<event>
 5    1  0.3209683E-002  0.1250020E+03  0.7818608E-02  0.1235066E+00
          4   -1    0    0  501    0  0.00000000000E+00  0.00000000000E+00  0.10366897263E+02  0.10444398444E+02  0.12700000000E+01 0. -1.
         -4   -1    0    0    0  501 -0.00000000000E+00 -0.00000000000E+00 -0.37533076512E+03  0.37533291375E+03  0.12700000000E+01 0. -1.
         25    2    1    2    0    0  0.00000000000E+00  0.00000000000E+00 -0.36496386786E+03  0.38577731220E+03  0.12500203904E+03 0.  0.
    9000005    1    3    3    0    0 -0.48503025936E+02 -0.38978514856E+02 -0.20034690165E+03  0.20978977369E+03  0.10000000000E+01 0.  0.
    9000005    1    3    3    0    0  0.48503025936E+02  0.38978514856E+02 -0.16461696621E+03  0.17598753850E+03  0.10000000000E+01 0.  0.
<mgrwt>
<rscale>  0 0.12500204E+03</rscale>
<asrwt>0</asrwt>
<pdfrwt beam="1">  1        4 0.16010345E-02 0.12500204E+03</pdfrwt>
<pdfrwt beam="2">  1       -4 0.57749311E-01 0.12500204E+03</pdfrwt>
<totfact> 0.65957016E+03</totfact>
</mgrwt>
</event>
<event>
 5    1  0.3209683E-002  0.1249918E+03  0.7818608E-02  0.1235082E+00
         -4   -1    0    0    0  501 -0.00000000000E+00  0.00000000000E+00  0.19666628746E+01  0.23410815582E+01  0.12700000000E+01 0.  1.
          4   -1    0    0  501    0  0.00000000000E+00 -0.00000000000E+00 -0.18129823234E+04  0.18129827682E+04  0.12700000000E+01 0.  1.
         25    2    1    2    0    0  0.00000000000E+00  0.00000000000E+00 -0.18110156605E+04  0.18153238498E+04  0.12499182735E+03 0.  0.
    9000005    1    3    3    0    0 -0.25527891156E+02  0.30794688040E+02 -0.16027517059E+04  0.16032510773E+04  0.10000000000E+01 0.  0.
    9000005    1    3    3    0    0  0.25527891156E+02 -0.30794688040E+02 -0.20826395466E+03  0.21207277253E+03  0.10000000000E+01 0.  0.
<mgrwt>
<rscale>  0 0.12499183E+03</rscale>
<asrwt>0</asrwt>
<pdfrwt beam="2">  1        4 0.27894797E+00 0.12499183E+03</pdfrwt>
<pdfrwt beam="1">  1       -4 0.33140062E-03 0.12499183E+03</pdfrwt>
<totfact> 0.12471242E+03</totfact>
</mgrwt>
</event>
<event>
 5    1  0.3209683E-002  0.1249990E+03  0.7818608E-02  0.1235071E+00
         -4   -1    0    0    0  501 -0.00000000000E+00  0.00000000000E+00  0.57184210377E+03  0.57184351403E+03  0.12700000000E+01 0.  1.
          4   -1    0    0  501    0  0.00000000000E+00 -0.00000000000E+00 -0.67704219303E+01  0.68885058695E+01  0.12700000000E+01 0.  1.
         25    2    1    2    0    0  0.00000000000E+00  0.00000000000E+00  0.56507168184E+03  0.57873201990E+03  0.12499898098E+03 0.  0.
    9000005    1    3    3    0    0  0.45557727710E+02  0.69326928699E+01  0.87111670416E+02  0.98554613830E+02  0.10000000000E+01 0.  0.
    9000005    1    3    3    0    0 -0.45557727710E+02 -0.69326928699E+01  0.47796001142E+03  0.48017740607E+03  0.10000000000E+01 0.  0.
<mgrwt>
<rscale>  0 0.12499898E+03</rscale>
<asrwt>0</asrwt>
<pdfrwt beam="2">  1        4 0.10507949E-02 0.12499898E+03</pdfrwt>
<pdfrwt beam="1">  1       -4 0.87984925E-01 0.12499898E+03</pdfrwt>
<totfact> 0.50239340E+03</totfact>
</mgrwt>
</event>
<event>
 5    1  0.3209683E-002  0.1250007E+03  0.7818608E-02  0.1235068E+00
          4   -1    0    0  501    0  0.00000000000E+00  0.00000000000E+00  0.28623277953E+02  0.28651438721E+02  0.12700000000E+01 0. -1.
         -4   -1    0    0    0  501 -0.00000000000E+00 -0.00000000000E+00 -0.13637449420E+03  0.13638040756E+03  0.12700000000E+01 0. -1.
         25    2    1    2    0    0  0.00000000000E+00  0.00000000000E+00 -0.10775121624E+03  0.16503184629E+03  0.12500074274E+03 0.  0.
    9000005    1    3    3    0    0 -0.52024697690E+02  0.10185867728E+02 -0.10188093733E+02  0.53991835726E+02  0.10000000000E+01 0.  0.
    9000005    1    3    3    0    0  0.52024697690E+02 -0.10185867728E+02 -0.97563122511E+02  0.11104001056E+03  0.10000000000E+01 0.  0.
<mgrwt>
<rscale>  0 0.12500074E+03</rscale>
<asrwt>0</asrwt>
<pdfrwt beam="1">  1        4 0.44062024E-02 0.12500074E+03</pdfrwt>
<pdfrwt beam="2">  1       -4 0.20983312E-01 0.12500074E+03</pdfrwt>
<totfact> 0.96379753E+03</totfact>
</mgrwt>
</event>
<event>
 5    1  0.3209683E-002  0.1249987E+03  0.7818608E-02  0.1235071E+00
          4   -1    0    0  501    0  0.00000000000E+00  0.00000000000E+00  0.19227809880E+04  0.19227814074E+04  0.12700000000E+01 0.  1.
         -4   -1    0    0    0  501 -0.00000000000E+00 -0.00000000000E+00 -0.18325751530E+01  0.22296259084E+01  0.12700000000E+01 0.  1.
         25    2    1    2    0    0  0.00000000000E+00  0.00000000000E+00  0.19209484128E+04  0.19250110333E+04  0.12499869444E+03 0.  0.
    9000005    1    3    3    0    0  0.29400974668E+02  0.19383391643E+02  0.16545206776E+03  0.16916122460E+03  0.10000000000E+01 0.  0.
    9000005    1    3    3    0    0 -0.29400974668E+02 -0.19383391643E+02  0.17554963451E+04  0.17558498087E+04  0.10000000000E+01 0.  0.
<mgrwt>
<rscale>  0 0.12499869E+03</rscale>
<asrwt>0</asrwt>
<pdfrwt beam="1">  1        4 0.29584146E+00 0.12499869E+03</pdfrwt>
<pdfrwt beam="2">  1       -4 0.31251094E-03 0.12499869E+03</pdfrwt>
<totfact> 0.10872382E+03</totfact>
</mgrwt>
</event>
<event>
 5    1  0.3209683E-002  0.1249987E+03  0.7818608E-02  0.1235071E+00
          4   -1    0    0  501    0  0.00000000000E+00  0.00000000000E+00  0.69991908381E+01  0.71134782201E+01  0.12700000000E+01 0. -1.
         -4   -1    0    0    0  501 -0.00000000000E+00 -0.00000000000E+00 -0.55345364759E+03  0.55345510471E+03  0.12700000000E+01 0. -1.
         25    2    1    2    0    0  0.00000000000E+00  0.00000000000E+00 -0.54645445675E+03  0.56056858293E+03  0.12499865145E+03 0.  0.
    9000005    1    3    3    0    0 -0.28555812291E+02 -0.34031116057E+02 -0.47032587770E+03  0.47242034515E+03  0.10000000000E+01 0.  0.
    9000005    1    3    3    0    0  0.28555812291E+02  0.34031116057E+02 -0.76128579047E+02  0.88148237778E+02  0.10000000000E+01 0.  0.
<mgrwt>
<rscale>  0 0.12499865E+03</rscale>
<asrwt>0</asrwt>
<pdfrwt beam="1">  1        4 0.10857024E-02 0.12499865E+03</pdfrwt>
<pdfrwt beam="2">  1       -4 0.85155584E-01 0.12499865E+03</pdfrwt>
<totfact> 0.51456683E+03</totfact>
</mgrwt>
</event>
<event>
 5    1  0.3209683E-002  0.1250023E+03  0.7818608E-02  0.1235066E+00
         -4   -1    0    0    0  501 -0.00000000000E+00  0.00000000000E+00  0.12505817140E+04  0.12505823589E+04  0.12700000000E+01 0.  1.
          4   -1    0    0  501    0  0.00000000000E+00 -0.00000000000E+00 -0.29939022682E+01  0.32521301929E+01  0.12700000000E+01 0.  1.
         25    2    1    2    0    0  0.00000000000E+00  0.00000000000E+00  0.12475878118E+04  0.12538344891E+04  0.12500231181E+03 0.  0.
    9000005    1    3    3    0    0  0.50006056011E+02 -0.18800535537E+02  0.29856328366E+03  0.30330694045E+03  0.10000000000E+01 0.  0.
    9000005    1    3    3    0    0 -0.50006056011E+02  0.18800535537E+02  0.94902452810E+03  0.95052754864E+03  0.10000000000E+01 0.  0.
<mgrwt>
<rscale>  0 0.12500231E+03</rscale>
<asrwt>0</asrwt>
<pdfrwt beam="2">  1        4 0.48051275E-03 0.12500231E+03</pdfrwt>
<pdfrwt beam="1">  1       -4 0.19241746E+00 0.12500231E+03</pdfrwt>
<totfact> 0.23343751E+03</totfact>
</mgrwt>
</event>
<event>
 5    1  0.3209683E-002  0.1249990E+03  0.7818608E-02  0.1235071E+00
          4   -1    0    0  501    0  0.00000000000E+00  0.00000000000E+00  0.93731644845E+01  0.94588113658E+01  0.12700000000E+01 0. -1.
         -4   -1    0    0    0  501 -0.00000000000E+00 -0.00000000000E+00 -0.41475937870E+03  0.41476132307E+03  0.12700000000E+01 0. -1.
         25    2    1    2    0    0  0.00000000000E+00  0.00000000000E+00 -0.40538621421E+03  0.42422013444E+03  0.12499895915E+03 0.  0.
    9000005    1    3    3    0    0 -0.34061015805E+02 -0.15371205068E+02 -0.37267954899E+03  0.37454969360E+03  0.10000000000E+01 0.  0.
    9000005    1    3    3    0    0  0.34061015805E+02  0.15371205068E+02 -0.32706665225E+02  0.49670440838E+02  0.10000000000E+01 0.  0.
<mgrwt>
<rscale>  0 0.12499896E+03</rscale>
<asrwt>0</asrwt>
<pdfrwt beam="1">  1        4 0.14487634E-02 0.12499896E+03</pdfrwt>
<pdfrwt beam="2">  1       -4 0.63815859E-01 0.12499896E+03</pdfrwt>
<totfact> 0.62264853E+03</totfact>
</mgrwt>
</event>
<event>
 5    1  0.3209683E-002  0.1250016E+03  0.7818608E-02  0.1235067E+00
         -4   -1    0    0    0  501 -0.00000000000E+00  0.00000000000E+00  0.93736835570E+03  0.93736921603E+03  0.12700000000E+01 0.  1.
          4   -1    0    0  501    0  0.00000000000E+00 -0.00000000000E+00 -0.40697190564E+01  0.42632749382E+01  0.12700000000E+01 0.  1.
         25    2    1    2    0    0  0.00000000000E+00  0.00000000000E+00  0.93329863664E+03  0.94163249097E+03  0.12500161156E+03 0.  0.
    9000005    1    3    3    0    0 -0.38238285200E+02 -0.49104419469E+02  0.42407624278E+03  0.42861996005E+03  0.10000000000E+01 0.  0.
    9000005    1    3    3    0    0  0.38238285200E+02  0.49104419469E+02  0.50922239386E+03  0.51301253092E+03  0.10000000000E+01 0.  0.
<mgrwt>
<rscale>  0 0.12500161E+03</rscale>
<asrwt>0</asrwt>
<pdfrwt beam="2">  1        4 0.64106422E-03 0.12500161E+03</pdfrwt>
<pdfrwt beam="1">  1       -4 0.14422581E+00 0.12500161E+03</pdfrwt>
<totfact> 0.32613701E+03</totfact>
</mgrwt>
</event>
<event>
 5    1  0.3209683E-002  0.1250578E+03  0.7818608E-02  0.1234979E+00
         -4   -1    0    0    0  501 -0.00000000000E+00  0.00000000000E+00  0.62672147069E+03  0.62672275747E+03  0.12700000000E+01 0.  1.
          4   -1    0    0  501    0  0.00000000000E+00 -0.00000000000E+00 -0.61726609964E+01  0.63019555518E+01  0.12700000000E+01 0.  1.
         25    2    1    2    0    0  0.00000000000E+00  0.00000000000E+00  0.62054880969E+03  0.63302471302E+03  0.12505783493E+03 0.  0.
    9000005    1    3    3    0    0  0.61194666931E+02  0.24208940352E+01  0.37394472889E+03  0.37892784044E+03  0.10000000000E+01 0.  0.
    9000005    1    3    3    0    0 -0.61194666931E+02 -0.24208940352E+01  0.24660408080E+03  0.25409687258E+03  0.10000000000E+01 0.  0.
<mgrwt>
<rscale>  0 0.12505783E+03</rscale>
<asrwt>0</asrwt>
<pdfrwt beam="2">  1        4 0.95968510E-03 0.12505783E+03</pdfrwt>
<pdfrwt beam="1">  1       -4 0.96428709E-01 0.12505783E+03</pdfrwt>
<totfact> 0.46787910E+03</totfact>
</mgrwt>
</event>
<event>
 5    1  0.3209683E-002  0.1250181E+03  0.7818608E-02  0.1235041E+00
          4   -1    0    0  501    0  0.00000000000E+00  0.00000000000E+00  0.26717335269E+03  0.26717637112E+03  0.12700000000E+01 0. -1.
         -4   -1    0    0    0  501 -0.00000000000E+00 -0.00000000000E+00 -0.14594223083E+02  0.14649377031E+02  0.12700000000E+01 0. -1.
         25    2    1    2    0    0  0.00000000000E+00  0.00000000000E+00  0.25257912961E+03  0.28182574815E+03  0.12501814113E+03 0.  0.
    9000005    1    3    3    0    0 -0.18033846066E+02 -0.58800595062E+01  0.26053918786E+03  0.26123067032E+03  0.10000000000E+01 0.  0.
    9000005    1    3    3    0    0  0.18033846066E+02  0.58800595062E+01 -0.79600582546E+01  0.20595077837E+02  0.10000000000E+01 0.  0.
<mgrwt>
<rscale>  0 0.12501814E+03</rscale>
<asrwt>0</asrwt>
<pdfrwt beam="1">  1        4 0.41108069E-01 0.12501814E+03</pdfrwt>
<pdfrwt beam="2">  1       -4 0.22497398E-02 0.12501814E+03</pdfrwt>
<totfact> 0.77905228E+03</totfact>
</mgrwt>
</event>
<event>
 5    1  0.3209683E-002  0.1249921E+03  0.7818608E-02  0.1235082E+00
          4   -1    0    0  501    0  0.00000000000E+00  0.00000000000E+00  0.18215356014E+02  0.18259575425E+02  0.12700000000E+01 0. -1.
         -4   -1    0    0    0  501 -0.00000000000E+00 -0.00000000000E+00 -0.21411495174E+03  0.21411871815E+03  0.12700000000E+01 0. -1.
         25    2    1    2    0    0  0.00000000000E+00  0.00000000000E+00 -0.19589959573E+03  0.23237829357E+03  0.12499207861E+03 0.  0.
    9000005    1    3    3    0    0  0.40660251602E+02 -0.33588118155E+02 -0.16026128781E+03  0.16871899156E+03  0.10000000000E+01 0.  0.
    9000005    1    3    3    0    0 -0.40660251602E+02  0.33588118155E+02 -0.35638307921E+02  0.63659302015E+02  0.10000000000E+01 0.  0.
<mgrwt>
<rscale>  0 0.12499208E+03</rscale>
<asrwt>0</asrwt>
<pdfrwt beam="1">  1        4 0.28060538E-02 0.12499208E+03</pdfrwt>
<pdfrwt beam="2">  1       -4 0.32944451E-01 0.12499208E+03</pdfrwt>
<totfact> 0.84960753E+03</totfact>
</mgrwt>
</event>
<event>
 5    1  0.3209683E-002  0.1250009E+03  0.7818608E-02  0.1235068E+00
         -4   -1    0    0    0  501 -0.00000000000E+00  0.00000000000E+00  0.59144035535E+02  0.59157669320E+02  0.12700000000E+01 0.  1.
          4   -1    0    0  501    0  0.00000000000E+00 -0.00000000000E+00 -0.66019972977E+02  0.66032187090E+02  0.12700000000E+01 0.  1.
         25    2    1    2    0    0  0.00000000000E+00  0.00000000000E+00 -0.68759374416E+01  0.12518985641E+03  0.12500088653E+03 0.  0.
    9000005    1    3    3    0    0 -0.31966930466E+02  0.50636847079E+01 -0.56976990760E+02  0.65535509629E+02  0.10000000000E+01 0.  0.
    9000005    1    3    3    0    0  0.31966930466E+02 -0.50636847079E+01  0.50101053319E+02  0.59654346781E+02  0.10000000000E+01 0.  0.
<mgrwt>
<rscale>  0 0.12500089E+03</rscale>
<asrwt>0</asrwt>
<pdfrwt beam="2">  1        4 0.10158907E-01 0.12500089E+03</pdfrwt>
<pdfrwt beam="1">  1       -4 0.91010706E-02 0.12500089E+03</pdfrwt>
<totfact> 0.10448531E+04</totfact>
</mgrwt>
</event>
<event>
 5    1  0.3209683E-002  0.1250011E+03  0.7818608E-02  0.1235068E+00
         -4   -1    0    0    0  501 -0.00000000000E+00  0.00000000000E+00  0.32267339311E+01  0.34676666308E+01  0.12700000000E+01 0.  1.
          4   -1    0    0  501    0  0.00000000000E+00 -0.00000000000E+00 -0.11667995725E+04  0.11668002637E+04  0.12700000000E+01 0.  1.
         25    2    1    2    0    0  0.00000000000E+00  0.00000000000E+00 -0.11635728386E+04  0.11702679303E+04  0.12500111208E+03 0.  0.
    9000005    1    3    3    0    0 -0.59314319643E+02 -0.16766943003E+02 -0.67817500660E+03  0.68097111427E+03  0.10000000000E+01 0.  0.
    9000005    1    3    3    0    0  0.59314319643E+02  0.16766943003E+02 -0.48539783196E+03  0.48929681602E+03  0.10000000000E+01 0.  0.
<mgrwt>
<rscale>  0 0.12500111E+03</rscale>
<asrwt>0</asrwt>
<pdfrwt beam="2">  1        4 0.17952589E+00 0.12500111E+03</pdfrwt>
<pdfrwt beam="1">  1       -4 0.51500798E-03 0.12500111E+03</pdfrwt>
<totfact> 0.25503954E+03</totfact>
</mgrwt>
</event>
<event>
 5    1  0.3209683E-002  0.1250028E+03  0.7818608E-02  0.1235065E+00
         -4   -1    0    0    0  501 -0.00000000000E+00  0.00000000000E+00  0.16826698883E+03  0.16827178145E+03  0.12700000000E+01 0. -1.
          4   -1    0    0  501    0  0.00000000000E+00 -0.00000000000E+00 -0.23193140137E+02  0.23227885169E+02  0.12700000000E+01 0. -1.
         25    2    1    2    0    0  0.00000000000E+00  0.00000000000E+00  0.14507384870E+03  0.19149966662E+03  0.12500280292E+03 0.  0.
    9000005    1    3    3    0    0 -0.22130035139E+02  0.16517509036E+02  0.15842061397E+03  0.16081249172E+03  0.10000000000E+01 0.  0.
    9000005    1    3    3    0    0  0.22130035139E+02 -0.16517509036E+02 -0.13346765277E+02  0.30687174900E+02  0.10000000000E+01 0.  0.
<mgrwt>
<rscale>  0 0.12500280E+03</rscale>
<asrwt>0</asrwt>
<pdfrwt beam="2">  1        4 0.35712169E-02 0.12500280E+03</pdfrwt>
<pdfrwt beam="1">  1       -4 0.25890269E-01 0.12500280E+03</pdfrwt>
<totfact> 0.91581282E+03</totfact>
</mgrwt>
</event>
<event>
 5    1  0.3209683E-002  0.1250015E+03  0.7818608E-02  0.1235067E+00
         -4   -1    0    0    0  501 -0.00000000000E+00  0.00000000000E+00  0.15706467687E+02  0.15757729126E+02  0.12700000000E+01 0. -1.
          4   -1    0    0  501    0  0.00000000000E+00 -0.00000000000E+00 -0.24825106590E+03  0.24825431440E+03  0.12700000000E+01 0. -1.
         25    2    1    2    0    0  0.00000000000E+00  0.00000000000E+00 -0.23254459821E+03  0.26401204353E+03  0.12500147588E+03 0.  0.
    9000005    1    3    3    0    0 -0.36300607085E+02  0.44279237024E+02 -0.16915670044E+03  0.17858716138E+03  0.10000000000E+01 0.  0.
    9000005    1    3    3    0    0  0.36300607085E+02 -0.44279237024E+02 -0.63387897769E+02  0.85424882147E+02  0.10000000000E+01 0.  0.
<mgrwt>
<rscale>  0 0.12500148E+03</rscale>
<asrwt>0</asrwt>
<pdfrwt beam="2">  1        4 0.38196662E-01 0.12500148E+03</pdfrwt>
<pdfrwt beam="1">  1       -4 0.24205729E-02 0.12500148E+03</pdfrwt>
<totfact> 0.80343666E+03</totfact>
</mgrwt>
</event>
<event>
 5    1  0.3209683E-002  0.1249960E+03  0.7818608E-02  0.1235076E+00
          4   -1    0    0  501    0  0.00000000000E+00  0.00000000000E+00  0.41639047498E+02  0.41658410634E+02  0.12700000000E+01 0. -1.
         -4   -1    0    0    0  501 -0.00000000000E+00 -0.00000000000E+00 -0.93760713312E+02  0.93769314068E+02  0.12700000000E+01 0. -1.
         25    2    1    2    0    0  0.00000000000E+00  0.00000000000E+00 -0.52121665814E+02  0.13542772470E+03  0.12499600222E+03 0.  0.
    9000005    1    3    3    0    0 -0.30111670143E+02 -0.21452233434E+02  0.28523108837E+02  0.46706302956E+02  0.10000000000E+01 0.  0.
    9000005    1    3    3    0    0  0.30111670143E+02  0.21452233434E+02 -0.80644774651E+02  0.88721421746E+02  0.10000000000E+01 0.  0.
<mgrwt>
<rscale>  0 0.12499600E+03</rscale>
<asrwt>0</asrwt>
<pdfrwt beam="1">  1        4 0.64081584E-02 0.12499600E+03</pdfrwt>
<pdfrwt beam="2">  1       -4 0.14426876E-01 0.12499600E+03</pdfrwt>
<totfact> 0.10229986E+04</totfact>
</mgrwt>
</event>
<event>
 5    1  0.3209683E-002  0.1250005E+03  0.7818608E-02  0.1235069E+00
         -4   -1    0    0    0  501 -0.00000000000E+00  0.00000000000E+00  0.35275120731E+02  0.35297975049E+02  0.12700000000E+01 0. -1.
          4   -1    0    0  501    0  0.00000000000E+00 -0.00000000000E+00 -0.11067513091E+03  0.11068241731E+03  0.12700000000E+01 0. -1.
         25    2    1    2    0    0  0.00000000000E+00  0.00000000000E+00 -0.75400010180E+02  0.14598039236E+03  0.12500045368E+03 0.  0.
    9000005    1    3    3    0    0  0.12663354211E+02  0.51764074208E+02  0.41877248517E+00  0.53301550530E+02  0.10000000000E+01 0.  0.
    9000005    1    3    3    0    0 -0.12663354211E+02 -0.51764074208E+02 -0.75818782666E+02  0.92678841832E+02  0.10000000000E+01 0.  0.
<mgrwt>
<rscale>  0 0.12500045E+03</rscale>
<asrwt>0</asrwt>
<pdfrwt beam="2">  1        4 0.17029262E-01 0.12500045E+03</pdfrwt>
<pdfrwt beam="1">  1       -4 0.54292602E-02 0.12500045E+03</pdfrwt>
<totfact> 0.10011005E+04</totfact>
</mgrwt>
</event>
<event>
 5    1  0.3209683E-002  0.1249993E+03  0.7818608E-02  0.1235070E+00
         -4   -1    0    0    0  501 -0.00000000000E+00  0.00000000000E+00  0.19235606941E+03  0.19236026185E+03  0.12700000000E+01 0. -1.
          4   -1    0    0  501    0  0.00000000000E+00 -0.00000000000E+00 -0.20282899935E+02  0.20322621134E+02  0.12700000000E+01 0. -1.
         25    2    1    2    0    0  0.00000000000E+00  0.00000000000E+00  0.17207316948E+03  0.21268288299E+03  0.12499933224E+03 0.  0.
    9000005    1    3    3    0    0  0.39612140764E+01 -0.61335739796E+02  0.10524469612E+03  0.12188195213E+03  0.10000000000E+01 0.  0.
    9000005    1    3    3    0    0 -0.39612140764E+01  0.61335739796E+02  0.66828473357E+02  0.90800930857E+02  0.10000000000E+01 0.  0.
<mgrwt>
<rscale>  0 0.12499933E+03</rscale>
<asrwt>0</asrwt>
<pdfrwt beam="2">  1        4 0.31238242E-02 0.12499933E+03</pdfrwt>
<pdfrwt beam="1">  1       -4 0.29596619E-01 0.12499933E+03</pdfrwt>
<totfact> 0.88040911E+03</totfact>
</mgrwt>
</event>
<event>
 5    1  0.3209683E-002  0.1249573E+03  0.7818608E-02  0.1235136E+00
         -4   -1    0    0    0  501 -0.00000000000E+00  0.00000000000E+00  0.69577838939E+03  0.69577954845E+03  0.12700000000E+01 0. -1.
          4   -1    0    0  501    0  0.00000000000E+00 -0.00000000000E+00 -0.55373296777E+01  0.56811020022E+01  0.12700000000E+01 0. -1.
         25    2    1    2    0    0  0.00000000000E+00  0.00000000000E+00  0.69024105972E+03  0.70146065046E+03  0.12495728719E+03 0.  0.
    9000005    1    3    3    0    0 -0.23663394269E+02 -0.56284347646E+02  0.27092387793E+03  0.27772041994E+03  0.10000000000E+01 0.  0.
    9000005    1    3    3    0    0  0.23663394269E+02  0.56284347646E+02  0.41931718179E+03  0.42374023052E+03  0.10000000000E+01 0.  0.
<mgrwt>
<rscale>  0 0.12495729E+03</rscale>
<asrwt>0</asrwt>
<pdfrwt beam="2">  1        4 0.86304531E-03 0.12495729E+03</pdfrwt>
<pdfrwt beam="1">  1       -4 0.10705399E+00 0.12495729E+03</pdfrwt>
<totfact> 0.43049908E+03</totfact>
</mgrwt>
</event>
<event>
 5    1  0.3209683E-002  0.1249998E+03  0.7818608E-02  0.1235070E+00
          4   -1    0    0  501    0  0.00000000000E+00  0.00000000000E+00  0.63589564227E+02  0.63602245075E+02  0.12700000000E+01 0.  1.
         -4   -1    0    0    0  501 -0.00000000000E+00 -0.00000000000E+00 -0.61403530267E+02  0.61416662472E+02  0.12700000000E+01 0.  1.
         25    2    1    2    0    0  0.00000000000E+00  0.00000000000E+00  0.21860339606E+01  0.12501890755E+03  0.12499979400E+03 0.  0.
    9000005    1    3    3    0    0 -0.33584758677E+02  0.26084949083E+01  0.53736574938E+02  0.63429959382E+02  0.10000000000E+01 0.  0.
    9000005    1    3    3    0    0  0.33584758677E+02 -0.26084949083E+01 -0.51550540977E+02  0.61588948166E+02  0.10000000000E+01 0.  0.
<mgrwt>
<rscale>  0 0.12499979E+03</rscale>
<asrwt>0</asrwt>
<pdfrwt beam="1">  1        4 0.97849954E-02 0.12499979E+03</pdfrwt>
<pdfrwt beam="2">  1       -4 0.94486827E-02 0.12499979E+03</pdfrwt>
<totfact> 0.10452501E+04</totfact>
</mgrwt>
</event>
<event>
 5    1  0.3209683E-002  0.1249996E+03  0.7818608E-02  0.1235070E+00
          4   -1    0    0  501    0  0.00000000000E+00  0.00000000000E+00  0.17472993140E+03  0.17473454675E+03  0.12700000000E+01 0. -1.
         -4   -1    0    0    0  501 -0.00000000000E+00 -0.00000000000E+00 -0.22332820732E+02  0.22368902116E+02  0.12700000000E+01 0. -1.
         25    2    1    2    0    0  0.00000000000E+00  0.00000000000E+00  0.15239711067E+03  0.19710344886E+03  0.12499956085E+03 0.  0.
    9000005    1    3    3    0    0  0.38730080559E+02  0.11355125224E+02  0.96750882618E+00  0.40384329663E+02  0.10000000000E+01 0.  0.
    9000005    1    3    3    0    0 -0.38730080559E+02 -0.11355125224E+02  0.15142960184E+03  0.15671911920E+03  0.10000000000E+01 0.  0.
<mgrwt>
<rscale>  0 0.12499956E+03</rscale>
<asrwt>0</asrwt>
<pdfrwt beam="1">  1        4 0.26884658E-01 0.12499956E+03</pdfrwt>
<pdfrwt beam="2">  1       -4 0.34389492E-02 0.12499956E+03</pdfrwt>
<totfact> 0.90626708E+03</totfact>
</mgrwt>
</event>
<event>
 5    1  0.3209683E-002  0.1250143E+03  0.7818608E-02  0.1235047E+00
          4   -1    0    0  501    0  0.00000000000E+00  0.00000000000E+00  0.25900805655E+02  0.25931923059E+02  0.12700000000E+01 0. -1.
         -4   -1    0    0    0  501 -0.00000000000E+00 -0.00000000000E+00 -0.15072581188E+03  0.15073116223E+03  0.12700000000E+01 0. -1.
         25    2    1    2    0    0  0.00000000000E+00  0.00000000000E+00 -0.12482500623E+03  0.17666308529E+03  0.12501425329E+03 0.  0.
    9000005    1    3    3    0    0 -0.23119978691E+02  0.15344749942E+02 -0.14155038531E+03  0.14424807224E+03  0.10000000000E+01 0.  0.
    9000005    1    3    3    0    0  0.23119978691E+02 -0.15344749942E+02  0.16725379079E+02  0.32415013047E+02  0.10000000000E+01 0.  0.
<mgrwt>
<rscale>  0 0.12501425E+03</rscale>
<asrwt>0</asrwt>
<pdfrwt beam="1">  1        4 0.39875446E-02 0.12501425E+03</pdfrwt>
<pdfrwt beam="2">  1       -4 0.23191391E-01 0.12501425E+03</pdfrwt>
<totfact> 0.94191015E+03</totfact>
</mgrwt>
</event>
<event>
 5    1  0.3209683E-002  0.1250007E+03  0.7818608E-02  0.1235068E+00
          4   -1    0    0  501    0  0.00000000000E+00  0.00000000000E+00  0.20367748426E+02  0.20407304475E+02  0.12700000000E+01 0.  1.
         -4   -1    0    0    0  501 -0.00000000000E+00 -0.00000000000E+00 -0.19156049321E+03  0.19156470306E+03  0.12700000000E+01 0.  1.
         25    2    1    2    0    0  0.00000000000E+00  0.00000000000E+00 -0.17119274478E+03  0.21197200753E+03  0.12500070445E+03 0.  0.
    9000005    1    3    3    0    0  0.39099316604E+02  0.17916524876E+02 -0.87136851872E+01  0.43894039824E+02  0.10000000000E+01 0.  0.
    9000005    1    3    3    0    0 -0.39099316604E+02 -0.17916524876E+02 -0.16247905959E+03  0.16807796771E+03  0.10000000000E+01 0.  0.
<mgrwt>
<rscale>  0 0.12500070E+03</rscale>
<asrwt>0</asrwt>
<pdfrwt beam="1">  1        4 0.31368665E-02 0.12500070E+03</pdfrwt>
<pdfrwt beam="2">  1       -4 0.29474211E-01 0.12500070E+03</pdfrwt>
<totfact> 0.88153448E+03</totfact>
</mgrwt>
</event>
<event>
 5    1  0.3209683E-002  0.1249991E+03  0.7818608E-02  0.1235071E+00
          4   -1    0    0  501    0  0.00000000000E+00  0.00000000000E+00  0.24100634074E+02  0.24134072651E+02  0.12700000000E+01 0.  1.
         -4   -1    0    0    0  501 -0.00000000000E+00 -0.00000000000E+00 -0.16193004615E+03  0.16193502631E+03  0.12700000000E+01 0.  1.
         25    2    1    2    0    0  0.00000000000E+00  0.00000000000E+00 -0.13782941208E+03  0.18606909896E+03  0.12499905102E+03 0.  0.
    9000005    1    3    3    0    0  0.56186662699E+02 -0.17726788057E+02 -0.99925844586E+02  0.11600583820E+03  0.10000000000E+01 0.  0.
    9000005    1    3    3    0    0 -0.56186662699E+02  0.17726788057E+02 -0.37903567490E+02  0.70063260762E+02  0.10000000000E+01 0.  0.
<mgrwt>
<rscale>  0 0.12499905E+03</rscale>
<asrwt>0</asrwt>
<pdfrwt beam="1">  1        4 0.37107452E-02 0.12499905E+03</pdfrwt>
<pdfrwt beam="2">  1       -4 0.24915269E-01 0.12499905E+03</pdfrwt>
<totfact> 0.92537781E+03</totfact>
</mgrwt>
</event>
<event>
 5    1  0.3209683E-002  0.1249998E+03  0.7818608E-02  0.1235070E+00
          4   -1    0    0  501    0  0.00000000000E+00  0.00000000000E+00  0.59609320990E+02  0.59622848379E+02  0.12700000000E+01 0.  1.
         -4   -1    0    0    0  501 -0.00000000000E+00 -0.00000000000E+00 -0.65503499663E+02  0.65515810062E+02  0.12700000000E+01 0.  1.
         25    2    1    2    0    0  0.00000000000E+00  0.00000000000E+00 -0.58941786727E+01  0.12513865844E+03  0.12499976998E+03 0.  0.
    9000005    1    3    3    0    0 -0.19114659931E+02 -0.50474933642E+02  0.28586265469E+02  0.61084070950E+02  0.10000000000E+01 0.  0.
    9000005    1    3    3    0    0  0.19114659931E+02  0.50474933642E+02 -0.34480444142E+02  0.64054587491E+02  0.10000000000E+01 0.  0.
<mgrwt>
<rscale>  0 0.12499977E+03</rscale>
<asrwt>0</asrwt>
<pdfrwt beam="1">  1        4 0.91726522E-02 0.12499977E+03</pdfrwt>
<pdfrwt beam="2">  1       -4 0.10079449E-01 0.12499977E+03</pdfrwt>
<totfact> 0.10449906E+04</totfact>
</mgrwt>
</event>
<event>
 5    1  0.3209683E-002  0.1250006E+03  0.7818608E-02  0.1235068E+00
         -4   -1    0    0    0  501 -0.00000000000E+00  0.00000000000E+00  0.31487169538E+02  0.31512771149E+02  0.12700000000E+01 0. -1.
          4   -1    0    0  501    0  0.00000000000E+00 -0.00000000000E+00 -0.12398041901E+03  0.12398692349E+03  0.12700000000E+01 0. -1.
         25    2    1    2    0    0  0.00000000000E+00  0.00000000000E+00 -0.92493249471E+02  0.15549969464E+03  0.12500061534E+03 0.  0.
    9000005    1    3    3    0    0 -0.62129483853E+02  0.42080948047E+01 -0.52771076186E+02  0.81630676265E+02  0.10000000000E+01 0.  0.
    9000005    1    3    3    0    0  0.62129483853E+02 -0.42080948047E+01 -0.39722173285E+02  0.73869018378E+02  0.10000000000E+01 0.  0.
<mgrwt>
<rscale>  0 0.12500062E+03</rscale>
<asrwt>0</asrwt>
<pdfrwt beam="2">  1        4 0.19076380E-01 0.12500062E+03</pdfrwt>
<pdfrwt beam="1">  1       -4 0.48466497E-02 0.12500062E+03</pdfrwt>
<totfact> 0.98216133E+03</totfact>
</mgrwt>
</event>
<event>
 5    1  0.3209683E-002  0.1249946E+03  0.7818608E-02  0.1235078E+00
          4   -1    0    0  501    0  0.00000000000E+00  0.00000000000E+00  0.24140318923E+03  0.24140652989E+03  0.12700000000E+01 0.  1.
         -4   -1    0    0    0  501 -0.00000000000E+00 -0.00000000000E+00 -0.16151646754E+02  0.16201499710E+02  0.12700000000E+01 0.  1.
         25    2    1    2    0    0  0.00000000000E+00  0.00000000000E+00  0.22525154248E+03  0.25760802960E+03  0.12499455798E+03 0.  0.
    9000005    1    3    3    0    0  0.28441575852E+02  0.65129483604E+01 -0.12606901652E+01  0.29222099052E+02  0.10000000000E+01 0.  0.
    9000005    1    3    3    0    0 -0.28441575852E+02 -0.65129483604E+01  0.22651223265E+03  0.22838593055E+03  0.10000000000E+01 0.  0.
<mgrwt>
<rscale>  0 0.12499456E+03</rscale>
<asrwt>0</asrwt>
<pdfrwt beam="1">  1        4 0.37143040E-01 0.12499456E+03</pdfrwt>
<pdfrwt beam="2">  1       -4 0.24889608E-02 0.12499456E+03</pdfrwt>
<totfact> 0.81252762E+03</totfact>
</mgrwt>
</event>
<event>
 5    1  0.3209683E-002  0.1249965E+03  0.7818608E-02  0.1235075E+00
          4   -1    0    0  501    0  0.00000000000E+00  0.00000000000E+00  0.57136467829E+02  0.57150580539E+02  0.12700000000E+01 0. -1.
         -4   -1    0    0    0  501 -0.00000000000E+00 -0.00000000000E+00 -0.68334740009E+02  0.68346540454E+02  0.12700000000E+01 0. -1.
         25    2    1    2    0    0  0.00000000000E+00  0.00000000000E+00 -0.11198272180E+02  0.12549712099E+03  0.12499650426E+03 0.  0.
    9000005    1    3    3    0    0 -0.28356123803E+02 -0.20266206078E+02 -0.57674417140E+02  0.67395305907E+02  0.10000000000E+01 0.  0.
    9000005    1    3    3    0    0  0.28356123803E+02  0.20266206078E+02  0.46476144960E+02  0.58101815086E+02  0.10000000000E+01 0.  0.
<mgrwt>
<rscale>  0 0.12499650E+03</rscale>
<asrwt>0</asrwt>
<pdfrwt beam="1">  1        4 0.87922191E-02 0.12499650E+03</pdfrwt>
<pdfrwt beam="2">  1       -4 0.10515030E-01 0.12499650E+03</pdfrwt>
<totfact> 0.10442841E+04</totfact>
</mgrwt>
</event>
<event>
 5    1  0.3209683E-002  0.1250006E+03  0.7818608E-02  0.1235068E+00
         -4   -1    0    0    0  501 -0.00000000000E+00  0.00000000000E+00  0.55327834371E+02  0.55342408297E+02  0.12700000000E+01 0. -1.
          4   -1    0    0  501    0  0.00000000000E+00 -0.00000000000E+00 -0.70572985225E+02  0.70584411477E+02  0.12700000000E+01 0. -1.
         25    2    1    2    0    0  0.00000000000E+00  0.00000000000E+00 -0.15245150854E+02  0.12592681977E+03  0.12500059725E+03 0.  0.
    9000005    1    3    3    0    0 -0.21026674390E+02  0.31968771053E+02  0.42151662932E+02  0.56937562702E+02  0.10000000000E+01 0.  0.
    9000005    1    3    3    0    0  0.21026674390E+02 -0.31968771053E+02 -0.57396813787E+02  0.68989257072E+02  0.10000000000E+01 0.  0.
<mgrwt>
<rscale>  0 0.12500060E+03</rscale>
<asrwt>0</asrwt>
<pdfrwt beam="2">  1        4 0.10859382E-01 0.12500060E+03</pdfrwt>
<pdfrwt beam="1">  1       -4 0.85139745E-02 0.12500060E+03</pdfrwt>
<totfact> 0.10432421E+04</totfact>
</mgrwt>
</event>
<event>
 5    1  0.3209683E-002  0.1249997E+03  0.7818608E-02  0.1235070E+00
         -4   -1    0    0    0  501 -0.00000000000E+00  0.00000000000E+00  0.71637469357E+02  0.71648725849E+02  0.12700000000E+01 0. -1.
          4   -1    0    0  501    0  0.00000000000E+00 -0.00000000000E+00 -0.54504855291E+02  0.54519649213E+02  0.12700000000E+01 0. -1.
         25    2    1    2    0    0  0.00000000000E+00  0.00000000000E+00  0.17132614066E+02  0.12616837506E+03  0.12499972960E+03 0.  0.
    9000005    1    3    3    0    0  0.52538756747E+02  0.33518541994E+02  0.38949192397E+01  0.62449851992E+02  0.10000000000E+01 0.  0.
    9000005    1    3    3    0    0 -0.52538756747E+02 -0.33518541994E+02  0.13237694826E+02  0.63718523070E+02  0.10000000000E+01 0.  0.
<mgrwt>
<rscale>  0 0.12499973E+03</rscale>
<asrwt>0</asrwt>
<pdfrwt beam="2">  1        4 0.83873663E-02 0.12499973E+03</pdfrwt>
<pdfrwt beam="1">  1       -4 0.11023153E-01 0.12499973E+03</pdfrwt>
<totfact> 0.10427334E+04</totfact>
</mgrwt>
</event>
<event>
 5    1  0.3209683E-002  0.1250003E+03  0.7818608E-02  0.1235069E+00
         -4   -1    0    0    0  501 -0.00000000000E+00  0.00000000000E+00  0.10736351270E+02  0.10811204308E+02  0.12700000000E+01 0.  1.
          4   -1    0    0  501    0  0.00000000000E+00 -0.00000000000E+00 -0.36249598550E+03  0.36249821021E+03  0.12700000000E+01 0.  1.
         25    2    1    2    0    0  0.00000000000E+00  0.00000000000E+00 -0.35175963423E+03  0.37330941452E+03  0.12500031477E+03 0.  0.
    9000005    1    3    3    0    0  0.16973763810E+02 -0.11731186639E+02 -0.35204446894E+03  0.35265002128E+03  0.10000000000E+01 0.  0.
    9000005    1    3    3    0    0 -0.16973763810E+02  0.11731186639E+02  0.28483471472E+00  0.20659393231E+02  0.10000000000E+01 0.  0.
<mgrwt>
<rscale>  0 0.12500031E+03</rscale>
<asrwt>0</asrwt>
<pdfrwt beam="2">  1        4 0.55774533E-01 0.12500031E+03</pdfrwt>
<pdfrwt beam="1">  1       -4 0.16576757E-02 0.12500031E+03</pdfrwt>
<totfact> 0.67233662E+03</totfact>
</mgrwt>
</event>
<event>
 5    1  0.3209683E-002  0.1249973E+03  0.7818608E-02  0.1235074E+00
         -4   -1    0    0    0  501 -0.00000000000E+00  0.00000000000E+00  0.65190131448E+01  0.66415685182E+01  0.12700000000E+01 0.  1.
          4   -1    0    0  501    0  0.00000000000E+00 -0.00000000000E+00 -0.59347955405E+03  0.59348091290E+03  0.12700000000E+01 0.  1.
         25    2    1    2    0    0  0.00000000000E+00  0.00000000000E+00 -0.58696054091E+03  0.60012248142E+03  0.12499726446E+03 0.  0.
    9000005    1    3    3    0    0  0.38505535208E+02  0.35469175832E+02 -0.45730496340E+03  0.46029291568E+03  0.10000000000E+01 0.  0.
    9000005    1    3    3    0    0 -0.38505535208E+02 -0.35469175832E+02 -0.12965557751E+03  0.13982956574E+03  0.10000000000E+01 0.  0.
<mgrwt>
<rscale>  0 0.12499726E+03</rscale>
<asrwt>0</asrwt>
<pdfrwt beam="2">  1        4 0.91314036E-01 0.12499726E+03</pdfrwt>
<pdfrwt beam="1">  1       -4 0.10124574E-02 0.12499726E+03</pdfrwt>
<totfact> 0.48862827E+03</totfact>
</mgrwt>
</event>
<event>
 5    1  0.3209683E-002  0.1249962E+03  0.7818608E-02  0.1235075E+00
          4   -1    0    0  501    0  0.00000000000E+00  0.00000000000E+00  0.27839271145E+03  0.27839560824E+03  0.12700000000E+01 0. -1.
         -4   -1    0    0    0  501 -0.00000000000E+00 -0.00000000000E+00 -0.13998867039E+02  0.14056357223E+02  0.12700000000E+01 0. -1.
         25    2    1    2    0    0  0.00000000000E+00  0.00000000000E+00  0.26439384441E+03  0.29245196546E+03  0.12499618851E+03 0.  0.
    9000005    1    3    3    0    0 -0.33311599002E+02  0.55320641572E+01  0.91741956585E+01  0.35006174140E+02  0.10000000000E+01 0.  0.
    9000005    1    3    3    0    0  0.33311599002E+02 -0.55320641572E+01  0.25521964875E+03  0.25744579132E+03  0.10000000000E+01 0.  0.
<mgrwt>
<rscale>  0 0.12499619E+03</rscale>
<asrwt>0</asrwt>
<pdfrwt beam="1">  1        4 0.42834291E-01 0.12499619E+03</pdfrwt>
<pdfrwt beam="2">  1       -4 0.21583171E-02 0.12499619E+03</pdfrwt>
<totfact> 0.76561992E+03</totfact>
</mgrwt>
</event>
<event>
 4    1  0.3209683E-002  0.1250643E+03  0.7818608E-02  0.1234969E+00
          4   -1    0    0  501    0  0.00000000000E+00  0.00000000000E+00  0.11553114764E+03  0.11553812780E+03  0.12700000000E+01 0. -1.
         -4   -1    0    0    0  501 -0.00000000000E+00 -0.00000000000E+00 -0.33826113677E+02  0.33849946330E+02  0.12700000000E+01 0. -1.
    9000005    1    1    2    0    0  0.61400515930E+02 -0.99429343363E+01  0.48443472893E+02  0.78845769485E+02  0.10000000000E+01 0.  0.
    9000005    1    1    2    0    0 -0.61400515930E+02  0.99429343363E+01  0.33261561072E+02  0.70542304645E+02  0.10000000000E+01 0.  0.
<mgrwt>
<rscale>  0 0.12506432E+03</rscale>
<asrwt>0</asrwt>
<pdfrwt beam="1">  1        4 0.17776393E-01 0.12506432E+03</pdfrwt>
<pdfrwt beam="2">  1       -4 0.52063875E-02 0.12506432E+03</pdfrwt>
<totfact> 0.99282018E+03</totfact>
</mgrwt>
</event>
<event>
 5    1  0.3209683E-002  0.1249988E+03  0.7818608E-02  0.1235071E+00
         -4   -1    0    0    0  501 -0.00000000000E+00  0.00000000000E+00  0.14191842441E+02  0.14248554028E+02  0.12700000000E+01 0.  1.
          4   -1    0    0  501    0  0.00000000000E+00 -0.00000000000E+00 -0.27463373600E+03  0.27463667244E+03  0.12700000000E+01 0.  1.
         25    2    1    2    0    0  0.00000000000E+00  0.00000000000E+00 -0.26044189356E+03  0.28888522647E+03  0.12499877660E+03 0.  0.
    9000005    1    3    3    0    0 -0.17775151916E+02  0.10427740227E+02 -0.26656591832E+03  0.26736320353E+03  0.10000000000E+01 0.  0.
    9000005    1    3    3    0    0  0.17775151916E+02 -0.10427740227E+02  0.61240247652E+01  0.21522022935E+02  0.10000000000E+01 0.  0.
<mgrwt>
<rscale>  0 0.12499878E+03</rscale>
<asrwt>0</asrwt>
<pdfrwt beam="2">  1        4 0.42255928E-01 0.12499878E+03</pdfrwt>
<pdfrwt beam="1">  1       -4 0.21879489E-02 0.12499878E+03</pdfrwt>
<totfact> 0.77016643E+03</totfact>
</mgrwt>
</event>
<event>
 5    1  0.3209683E-002  0.1250027E+03  0.7818608E-02  0.1235065E+00
          4   -1    0    0  501    0  0.00000000000E+00  0.00000000000E+00  0.12463392962E+02  0.12527931359E+02  0.12700000000E+01 0.  1.
         -4   -1    0    0    0  501 -0.00000000000E+00 -0.00000000000E+00 -0.31255616925E+03  0.31255874941E+03  0.12700000000E+01 0.  1.
         25    2    1    2    0    0  0.00000000000E+00  0.00000000000E+00 -0.30009277629E+03  0.32508668077E+03  0.12500270252E+03 0.  0.
    9000005    1    3    3    0    0 -0.28427779597E+02  0.95197745873E+01 -0.74457361683E+01  0.30906370672E+02  0.10000000000E+01 0.  0.
    9000005    1    3    3    0    0  0.28427779597E+02 -0.95197745873E+01 -0.29264704012E+03  0.29418031010E+03  0.10000000000E+01 0.  0.
<mgrwt>
<rscale>  0 0.12500270E+03</rscale>
<asrwt>0</asrwt>
<pdfrwt beam="1">  1        4 0.19226083E-02 0.12500270E+03</pdfrwt>
<pdfrwt beam="2">  1       -4 0.48090722E-01 0.12500270E+03</pdfrwt>
<totfact> 0.72550846E+03</totfact>
</mgrwt>
</event>
<event>
 5    1  0.3209683E-002  0.1249971E+03  0.7818608E-02  0.1235074E+00
          4   -1    0    0  501    0  0.00000000000E+00  0.00000000000E+00  0.58521714501E+01  0.59883896568E+01  0.12700000000E+01 0.  1.
         -4   -1    0    0    0  501 -0.00000000000E+00 -0.00000000000E+00 -0.65964130301E+03  0.65964252556E+03  0.12700000000E+01 0.  1.
         25    2    1    2    0    0  0.00000000000E+00  0.00000000000E+00 -0.65378913156E+03  0.66563091522E+03  0.12499714699E+03 0.  0.
    9000005    1    3    3    0    0 -0.42879587526E+02  0.45298207182E+02 -0.30662735596E+03  0.31290880783E+03  0.10000000000E+01 0.  0.
    9000005    1    3    3    0    0  0.42879587526E+02 -0.45298207182E+02 -0.34716177560E+03  0.35272210739E+03  0.10000000000E+01 0.  0.
<mgrwt>
<rscale>  0 0.12499715E+03</rscale>
<asrwt>0</asrwt>
<pdfrwt beam="1">  1        4 0.91090696E-03 0.12499715E+03</pdfrwt>
<pdfrwt beam="2">  1       -4 0.10149379E+00 0.12499715E+03</pdfrwt>
<totfact> 0.44966914E+03</totfact>
</mgrwt>
</event>
<event>
 5    1  0.3209683E-002  0.1249986E+03  0.7818608E-02  0.1235071E+00
          4   -1    0    0  501    0  0.00000000000E+00  0.00000000000E+00  0.58493601881E+02  0.58507387234E+02  0.12700000000E+01 0.  1.
         -4   -1    0    0    0  501 -0.00000000000E+00 -0.00000000000E+00 -0.66751659501E+02  0.66763739756E+02  0.12700000000E+01 0.  1.
         25    2    1    2    0    0  0.00000000000E+00  0.00000000000E+00 -0.82580576206E+01  0.12527112699E+03  0.12499863896E+03 0.  0.
    9000005    1    3    3    0    0 -0.60052019343E+02  0.14261518004E+02 -0.13924229634E+02  0.63281277593E+02  0.10000000000E+01 0.  0.
    9000005    1    3    3    0    0  0.60052019343E+02 -0.14261518004E+02  0.56661720134E+01  0.61989849397E+02  0.10000000000E+01 0.  0.
<mgrwt>
<rscale>  0 0.12499864E+03</rscale>
<asrwt>0</asrwt>
<pdfrwt beam="1">  1        4 0.90010054E-02 0.12499864E+03</pdfrwt>
<pdfrwt beam="2">  1       -4 0.10271476E-01 0.12499864E+03</pdfrwt>
<totfact> 0.10447298E+04</totfact>
</mgrwt>
</event>
<event>
 5    1  0.3209683E-002  0.1249948E+03  0.7818608E-02  0.1235077E+00
         -4   -1    0    0    0  501 -0.00000000000E+00  0.00000000000E+00  0.10979933650E+02  0.11053137245E+02  0.12700000000E+01 0.  1.
          4   -1    0    0  501    0  0.00000000000E+00 -0.00000000000E+00 -0.35447666141E+03  0.35447893644E+03  0.12700000000E+01 0.  1.
         25    2    1    2    0    0  0.00000000000E+00  0.00000000000E+00 -0.34349672776E+03  0.36553207369E+03  0.12499477955E+03 0.  0.
    9000005    1    3    3    0    0 -0.16093792295E+02  0.44934511105E+02 -0.53797497205E+02  0.71925594500E+02  0.10000000000E+01 0.  0.
    9000005    1    3    3    0    0  0.16093792295E+02 -0.44934511105E+02 -0.28969923055E+03  0.29360647919E+03  0.10000000000E+01 0.  0.
<mgrwt>
<rscale>  0 0.12499478E+03</rscale>
<asrwt>0</asrwt>
<pdfrwt beam="2">  1        4 0.54540668E-01 0.12499478E+03</pdfrwt>
<pdfrwt beam="1">  1       -4 0.16950269E-02 0.12499478E+03</pdfrwt>
<totfact> 0.68056830E+03</totfact>
</mgrwt>
</event>
<event>
 5    1  0.3209683E-002  0.1250075E+03  0.7818608E-02  0.1235058E+00
          4   -1    0    0  501    0  0.00000000000E+00  0.00000000000E+00  0.25216819393E+03  0.25217139197E+03  0.12700000000E+01 0.  1.
         -4   -1    0    0    0  501 -0.00000000000E+00 -0.00000000000E+00 -0.15463170804E+02  0.15515236102E+02  0.12700000000E+01 0.  1.
         25    2    1    2    0    0  0.00000000000E+00  0.00000000000E+00  0.23670502313E+03  0.26768662808E+03  0.12500745129E+03 0.  0.
    9000005    1    3    3    0    0 -0.16243281082E+02 -0.46719096856E+02  0.36553544584E+02  0.61511623397E+02  0.10000000000E+01 0.  0.
    9000005    1    3    3    0    0  0.16243281082E+02  0.46719096856E+02  0.20015147854E+03  0.20617500468E+03  0.10000000000E+01 0.  0.
<mgrwt>
<rscale>  0 0.12500745E+03</rscale>
<asrwt>0</asrwt>
<pdfrwt beam="1">  1        4 0.38799355E-01 0.12500745E+03</pdfrwt>
<pdfrwt beam="2">  1       -4 0.23832005E-02 0.12500745E+03</pdfrwt>
<totfact> 0.79826076E+03</totfact>
</mgrwt>
</event>
<event>
 5    1  0.3209683E-002  0.1249886E+03  0.7818608E-02  0.1235087E+00
          4   -1    0    0  501    0  0.00000000000E+00  0.00000000000E+00  0.66374224241E+02  0.66386373177E+02  0.12700000000E+01 0.  1.
         -4   -1    0    0    0  501 -0.00000000000E+00 -0.00000000000E+00 -0.58816755698E+02  0.58830465329E+02  0.12700000000E+01 0.  1.
         25    2    1    2    0    0  0.00000000000E+00  0.00000000000E+00  0.75574685429E+01  0.12521683851E+03  0.12498856474E+03 0.  0.
    9000005    1    3    3    0    0  0.36767409632E+02 -0.50428708307E+02  0.68889648480E+01  0.62796137375E+02  0.10000000000E+01 0.  0.
    9000005    1    3    3    0    0 -0.36767409632E+02  0.50428708307E+02  0.66850369492E+00  0.62420701131E+02  0.10000000000E+01 0.  0.
<mgrwt>
<rscale>  0 0.12498856E+03</rscale>
<asrwt>0</asrwt>
<pdfrwt beam="1">  1        4 0.10213408E-01 0.12498856E+03</pdfrwt>
<pdfrwt beam="2">  1       -4 0.90507207E-02 0.12498856E+03</pdfrwt>
<totfact> 0.10450855E+04</totfact>
</mgrwt>
</event>
<event>
 5    1  0.3209683E-002  0.1250024E+03  0.7818608E-02  0.1235066E+00
         -4   -1    0    0    0  501 -0.00000000000E+00  0.00000000000E+00  0.67633381962E+02  0.67645304756E+02  0.12700000000E+01 0.  1.
          4   -1    0    0  501    0  0.00000000000E+00 -0.00000000000E+00 -0.57734473447E+02  0.57748440015E+02  0.12700000000E+01 0.  1.
         25    2    1    2    0    0  0.00000000000E+00  0.00000000000E+00  0.98989085150E+01  0.12539374477E+03  0.12500241133E+03 0.  0.
    9000005    1    3    3    0    0 -0.28915769751E+02 -0.27552480250E+01 -0.50556288385E+02  0.58315104623E+02  0.10000000000E+01 0.  0.
    9000005    1    3    3    0    0  0.28915769751E+02  0.27552480250E+01  0.60455196900E+02  0.67078640148E+02  0.10000000000E+01 0.  0.
<mgrwt>
<rscale>  0 0.12500241E+03</rscale>
<asrwt>0</asrwt>
<pdfrwt beam="2">  1        4 0.88842182E-02 0.12500241E+03</pdfrwt>
<pdfrwt beam="1">  1       -4 0.10407127E-01 0.12500241E+03</pdfrwt>
<totfact> 0.10443738E+04</totfact>
</mgrwt>
</event>
<event>
 5    1  0.3209683E-002  0.1250012E+03  0.7818608E-02  0.1235067E+00
          4   -1    0    0  501    0  0.00000000000E+00  0.00000000000E+00  0.39960060677E+02  0.39980236984E+02  0.12700000000E+01 0. -1.
         -4   -1    0    0    0  501 -0.00000000000E+00 -0.00000000000E+00 -0.97706698091E+02  0.97714951527E+02  0.12700000000E+01 0. -1.
         25    2    1    2    0    0  0.00000000000E+00  0.00000000000E+00 -0.57746637415E+02  0.13769518851E+03  0.12500116322E+03 0.  0.
    9000005    1    3    3    0    0  0.22409691633E+02 -0.25232638763E+02  0.29064951355E+02  0.44549430246E+02  0.10000000000E+01 0.  0.
    9000005    1    3    3    0    0 -0.22409691633E+02  0.25232638763E+02 -0.86811588769E+02  0.93145758265E+02  0.10000000000E+01 0.  0.
<mgrwt>
<rscale>  0 0.12500116E+03</rscale>
<asrwt>0</asrwt>
<pdfrwt beam="1">  1        4 0.61498886E-02 0.12500116E+03</pdfrwt>
<pdfrwt beam="2">  1       -4 0.15033987E-01 0.12500116E+03</pdfrwt>
<totfact> 0.10181303E+04</totfact>
</mgrwt>
</event>
<event>
 5    1  0.3209683E-002  0.1250057E+03  0.7818608E-02  0.1235060E+00
         -4   -1    0    0    0  501 -0.00000000000E+00  0.00000000000E+00  0.17528782071E+01  0.21645974242E+01  0.12700000000E+01 0. -1.
          4   -1    0    0  501    0  0.00000000000E+00 -0.00000000000E+00 -0.19940375254E+04  0.19940379298E+04  0.12700000000E+01 0. -1.
         25    2    1    2    0    0  0.00000000000E+00  0.00000000000E+00 -0.19922846472E+04  0.19962025273E+04  0.12500565739E+03 0.  0.
    9000005    1    3    3    0    0 -0.32018485865E+01  0.26857244053E+02 -0.96476662655E+02  0.10020134645E+03  0.10000000000E+01 0.  0.
    9000005    1    3    3    0    0  0.32018485865E+01 -0.26857244053E+02 -0.18958079845E+04  0.18960011808E+04  0.10000000000E+01 0.  0.
<mgrwt>
<rscale>  0 0.12500566E+03</rscale>
<asrwt>0</asrwt>
<pdfrwt beam="2">  1        4 0.30680508E+00 0.12500566E+03</pdfrwt>
<pdfrwt beam="1">  1       -4 0.30137699E-03 0.12500566E+03</pdfrwt>
<totfact> 0.99097641E+02</totfact>
</mgrwt>
</event>
<event>
 5    1  0.3209683E-002  0.1250039E+03  0.7818608E-02  0.1235063E+00
          4   -1    0    0  501    0  0.00000000000E+00  0.00000000000E+00  0.38353243242E+03  0.38353453510E+03  0.12700000000E+01 0. -1.
         -4   -1    0    0    0  501 -0.00000000000E+00 -0.00000000000E+00 -0.10143831031E+02  0.10223023427E+02  0.12700000000E+01 0. -1.
         25    2    1    2    0    0  0.00000000000E+00  0.00000000000E+00  0.37338860138E+03  0.39375755853E+03  0.12500386895E+03 0.  0.
    9000005    1    3    3    0    0  0.58364238760E+02  0.21567153364E+02  0.16833638161E+03  0.17947050967E+03  0.10000000000E+01 0.  0.
    9000005    1    3    3    0    0 -0.58364238760E+02 -0.21567153364E+02  0.20505221978E+03  0.21428704885E+03  0.10000000000E+01 0.  0.
<mgrwt>
<rscale>  0 0.12500387E+03</rscale>
<asrwt>0</asrwt>
<pdfrwt beam="1">  1        4 0.59011238E-01 0.12500387E+03</pdfrwt>
<pdfrwt beam="2">  1       -4 0.15668430E-02 0.12500387E+03</pdfrwt>
<totfact> 0.65158918E+03</totfact>
</mgrwt>
</event>
<event>
 5    1  0.3209683E-002  0.1249972E+03  0.7818608E-02  0.1235074E+00
         -4   -1    0    0    0  501 -0.00000000000E+00  0.00000000000E+00  0.43379818766E+01  0.45200649068E+01  0.12700000000E+01 0.  1.
          4   -1    0    0  501    0  0.00000000000E+00 -0.00000000000E+00 -0.88174475641E+03  0.88174567101E+03  0.12700000000E+01 0.  1.
         25    2    1    2    0    0  0.00000000000E+00  0.00000000000E+00 -0.87740677453E+03  0.88626573592E+03  0.12499722667E+03 0.  0.
    9000005    1    3    3    0    0  0.17388038224E+02  0.48037109629E+02 -0.69387172510E+03  0.69575058654E+03  0.10000000000E+01 0.  0.
    9000005    1    3    3    0    0 -0.17388038224E+02 -0.48037109629E+02 -0.18353504943E+03  0.19051514938E+03  0.10000000000E+01 0.  0.
<mgrwt>
<rscale>  0 0.12499723E+03</rscale>
<asrwt>0</asrwt>
<pdfrwt beam="2">  1        4 0.13566698E+00 0.12499723E+03</pdfrwt>
<pdfrwt beam="1">  1       -4 0.68145927E-03 0.12499723E+03</pdfrwt>
<totfact> 0.34689586E+03</totfact>
</mgrwt>
</event>
<event>
 5    1  0.3209683E-002  0.1250005E+03  0.7818608E-02  0.1235069E+00
          4   -1    0    0  501    0  0.00000000000E+00  0.00000000000E+00  0.24355855657E+01  0.27468121610E+01  0.12700000000E+01 0. -1.
         -4   -1    0    0    0  501 -0.00000000000E+00 -0.00000000000E+00 -0.15072069547E+04  0.15072074897E+04  0.12700000000E+01 0. -1.
         25    2    1    2    0    0  0.00000000000E+00  0.00000000000E+00 -0.15047713691E+04  0.15099543019E+04  0.12500048212E+03 0.  0.
    9000005    1    3    3    0    0 -0.46170588640E+02 -0.85020260043E+01 -0.12506262088E+04  0.12515074598E+04  0.10000000000E+01 0.  0.
    9000005    1    3    3    0    0  0.46170588640E+02  0.85020260043E+01 -0.25414516027E+03  0.25844684209E+03  0.10000000000E+01 0.  0.
<mgrwt>
<rscale>  0 0.12500048E+03</rscale>
<asrwt>0</asrwt>
<pdfrwt beam="1">  1        4 0.39868834E-03 0.12500048E+03</pdfrwt>
<pdfrwt beam="2">  1       -4 0.23190127E+00 0.12500048E+03</pdfrwt>
<totfact> 0.17735464E+03</totfact>
</mgrwt>
</event>
<event>
 5    1  0.3209683E-002  0.1249988E+03  0.7818608E-02  0.1235071E+00
         -4   -1    0    0    0  501 -0.00000000000E+00  0.00000000000E+00  0.56889438283E+02  0.56903612259E+02  0.12700000000E+01 0.  1.
          4   -1    0    0  501    0  0.00000000000E+00 -0.00000000000E+00 -0.68633946221E+02  0.68645695232E+02  0.12700000000E+01 0.  1.
         25    2    1    2    0    0  0.00000000000E+00  0.00000000000E+00 -0.11744507939E+02  0.12554930749E+03  0.12499878057E+03 0.  0.
    9000005    1    3    3    0    0 -0.42729883172E+02 -0.45595147587E+02 -0.65180373934E+01  0.62835063546E+02  0.10000000000E+01 0.  0.
    9000005    1    3    3    0    0  0.42729883172E+02  0.45595147587E+02 -0.52264705452E+01  0.62714243946E+02  0.10000000000E+01 0.  0.
<mgrwt>
<rscale>  0 0.12499878E+03</rscale>
<asrwt>0</asrwt>
<pdfrwt beam="2">  1        4 0.10561063E-01 0.12499878E+03</pdfrwt>
<pdfrwt beam="1">  1       -4 0.87542153E-02 0.12499878E+03</pdfrwt>
<totfact> 0.10441152E+04</totfact>
</mgrwt>
</event>
<event>
 5    1  0.3209683E-002  0.1250000E+03  0.7818608E-02  0.1235069E+00
         -4   -1    0    0    0  501 -0.00000000000E+00  0.00000000000E+00  0.70718438335E+02  0.70729841089E+02  0.12700000000E+01 0.  1.
          4   -1    0    0  501    0  0.00000000000E+00 -0.00000000000E+00 -0.55213479690E+02  0.55228083793E+02  0.12700000000E+01 0.  1.
         25    2    1    2    0    0  0.00000000000E+00  0.00000000000E+00  0.15504958645E+02  0.12595792488E+03  0.12499998039E+03 0.  0.
    9000005    1    3    3    0    0  0.49135440565E+02 -0.11101878599E+02  0.45018400098E+02  0.67566260628E+02  0.10000000000E+01 0.  0.
    9000005    1    3    3    0    0 -0.49135440565E+02  0.11101878599E+02 -0.29513441453E+02  0.58391664254E+02  0.10000000000E+01 0.  0.
<mgrwt>
<rscale>  0 0.12499998E+03</rscale>
<asrwt>0</asrwt>
<pdfrwt beam="2">  1        4 0.84963821E-02 0.12499998E+03</pdfrwt>
<pdfrwt beam="1">  1       -4 0.10881760E-01 0.12499998E+03</pdfrwt>
<totfact> 0.10431884E+04</totfact>
</mgrwt>
</event>
<event>
 5    1  0.3209683E-002  0.1249984E+03  0.7818608E-02  0.1235072E+00
         -4   -1    0    0    0  501 -0.00000000000E+00  0.00000000000E+00  0.11475846680E+04  0.11475853708E+04  0.12700000000E+01 0.  1.
          4   -1    0    0  501    0  0.00000000000E+00 -0.00000000000E+00 -0.32846116381E+01  0.35215868033E+01  0.12700000000E+01 0.  1.
         25    2    1    2    0    0  0.00000000000E+00  0.00000000000E+00  0.11443000564E+04  0.11511069576E+04  0.12499843482E+03 0.  0.
    9000005    1    3    3    0    0  0.19406113873E+02  0.58846477566E+02  0.49753633390E+03  0.50138100156E+03  0.10000000000E+01 0.  0.
    9000005    1    3    3    0    0 -0.19406113873E+02 -0.58846477566E+02  0.64676372250E+03  0.64972595602E+03  0.10000000000E+01 0.  0.
<mgrwt>
<rscale>  0 0.12499843E+03</rscale>
<asrwt>0</asrwt>
<pdfrwt beam="2">  1        4 0.52360748E-03 0.12499843E+03</pdfrwt>
<pdfrwt beam="1">  1       -4 0.17656987E+00 0.12499843E+03</pdfrwt>
<totfact> 0.26030408E+03</totfact>
</mgrwt>
</event>
<event>
 5    1  0.3209683E-002  0.1250012E+03  0.7818608E-02  0.1235067E+00
         -4   -1    0    0    0  501 -0.00000000000E+00  0.00000000000E+00  0.29891307156E+03  0.29891576948E+03  0.12700000000E+01 0.  1.
          4   -1    0    0  501    0  0.00000000000E+00 -0.00000000000E+00 -0.13034813913E+02  0.13096536708E+02  0.12700000000E+01 0.  1.
         25    2    1    2    0    0  0.00000000000E+00  0.00000000000E+00  0.28587825764E+03  0.31201230619E+03  0.12500120409E+03 0.  0.
    9000005    1    3    3    0    0  0.61201990381E+02 -0.87291909706E+01  0.16574003474E+03  0.17689726260E+03  0.10000000000E+01 0.  0.
    9000005    1    3    3    0    0 -0.61201990381E+02  0.87291909706E+01  0.12013822291E+03  0.13511504359E+03  0.10000000000E+01 0.  0.
<mgrwt>
<rscale>  0 0.12500120E+03</rscale>
<asrwt>0</asrwt>
<pdfrwt beam="2">  1        4 0.20103117E-02 0.12500120E+03</pdfrwt>
<pdfrwt beam="1">  1       -4 0.45991576E-01 0.12500120E+03</pdfrwt>
<totfact> 0.74114349E+03</totfact>
</mgrwt>
</event>
<event>
 5    1  0.3209683E-002  0.1250025E+03  0.7818608E-02  0.1235065E+00
         -4   -1    0    0    0  501 -0.00000000000E+00  0.00000000000E+00  0.19559194167E+03  0.19559606475E+03  0.12700000000E+01 0.  1.
          4   -1    0    0  501    0  0.00000000000E+00 -0.00000000000E+00 -0.19947697113E+02  0.19988084453E+02  0.12700000000E+01 0.  1.
         25    2    1    2    0    0  0.00000000000E+00  0.00000000000E+00  0.17564424456E+03  0.21558414920E+03  0.12500249894E+03 0.  0.
    9000005    1    3    3    0    0 -0.55120675760E+02 -0.29290123708E+02  0.93054899642E+02  0.11205540857E+03  0.10000000000E+01 0.  0.
    9000005    1    3    3    0    0  0.55120675760E+02  0.29290123708E+02  0.82589344915E+02  0.10352874063E+03  0.10000000000E+01 0.  0.
<mgrwt>
<rscale>  0 0.12500250E+03</rscale>
<asrwt>0</asrwt>
<pdfrwt beam="2">  1        4 0.30723004E-02 0.12500250E+03</pdfrwt>
<pdfrwt beam="1">  1       -4 0.30094492E-01 0.12500250E+03</pdfrwt>
<totfact> 0.87567069E+03</totfact>
</mgrwt>
</event>
<event>
 5    1  0.3209683E-002  0.1249986E+03  0.7818608E-02  0.1235071E+00
         -4   -1    0    0    0  501 -0.00000000000E+00  0.00000000000E+00  0.15695325407E+02  0.15746623119E+02  0.12700000000E+01 0.  1.
          4   -1    0    0  501    0  0.00000000000E+00 -0.00000000000E+00 -0.24841540185E+03  0.24841864820E+03  0.12700000000E+01 0.  1.
         25    2    1    2    0    0  0.00000000000E+00  0.00000000000E+00 -0.23272007644E+03  0.26416527132E+03  0.12499862637E+03 0.  0.
    9000005    1    3    3    0    0 -0.12277951095E+02 -0.11937795939E+02  0.10650175504E+02  0.20191218221E+02  0.10000000000E+01 0.  0.
    9000005    1    3    3    0    0  0.12277951095E+02  0.11937795939E+02 -0.24337025194E+03  0.24397405310E+03  0.10000000000E+01 0.  0.
<mgrwt>
<rscale>  0 0.12499863E+03</rscale>
<asrwt>0</asrwt>
<pdfrwt beam="2">  1        4 0.38221947E-01 0.12499863E+03</pdfrwt>
<pdfrwt beam="1">  1       -4 0.24188613E-02 0.12499863E+03</pdfrwt>
<totfact> 0.80327511E+03</totfact>
</mgrwt>
</event>
<event>
 5    1  0.3209683E-002  0.1250018E+03  0.7818608E-02  0.1235066E+00
          4   -1    0    0  501    0  0.00000000000E+00  0.00000000000E+00  0.26534213092E+02  0.26564588543E+02  0.12700000000E+01 0. -1.
         -4   -1    0    0    0  501 -0.00000000000E+00 -0.00000000000E+00 -0.14710257864E+03  0.14710806077E+03  0.12700000000E+01 0. -1.
         25    2    1    2    0    0  0.00000000000E+00  0.00000000000E+00 -0.12056836555E+03  0.17367264931E+03  0.12500183337E+03 0.  0.
    9000005    1    3    3    0    0  0.57922449029E+02  0.17485551437E+01 -0.92787418405E+02  0.10940097148E+03  0.10000000000E+01 0.  0.
    9000005    1    3    3    0    0 -0.57922449029E+02 -0.17485551437E+01 -0.27780947141E+02  0.64271677827E+02  0.10000000000E+01 0.  0.
<mgrwt>
<rscale>  0 0.12500183E+03</rscale>
<asrwt>0</asrwt>
<pdfrwt beam="1">  1        4 0.40849450E-02 0.12500183E+03</pdfrwt>
<pdfrwt beam="2">  1       -4 0.22633924E-01 0.12500183E+03</pdfrwt>
<totfact> 0.94764608E+03</totfact>
</mgrwt>
</event>
<event>
 5    1  0.3209683E-002  0.1249958E+03  0.7818608E-02  0.1235076E+00
          4   -1    0    0  501    0  0.00000000000E+00  0.00000000000E+00  0.49403598667E+02  0.49419919681E+02  0.12700000000E+01 0. -1.
         -4   -1    0    0    0  501 -0.00000000000E+00 -0.00000000000E+00 -0.79028298605E+02  0.79038502518E+02  0.12700000000E+01 0. -1.
         25    2    1    2    0    0  0.00000000000E+00  0.00000000000E+00 -0.29624699938E+02  0.12845842220E+03  0.12499577348E+03 0.  0.
    9000005    1    3    3    0    0  0.37802025486E+02 -0.49659554447E+02 -0.11575272917E+02  0.63482686001E+02  0.10000000000E+01 0.  0.
    9000005    1    3    3    0    0 -0.37802025486E+02  0.49659554447E+02 -0.18049427021E+02  0.64975736198E+02  0.10000000000E+01 0.  0.
<mgrwt>
<rscale>  0 0.12499577E+03</rscale>
<asrwt>0</asrwt>
<pdfrwt beam="1">  1        4 0.76025940E-02 0.12499577E+03</pdfrwt>
<pdfrwt beam="2">  1       -4 0.12160240E-01 0.12499577E+03</pdfrwt>
<totfact> 0.10378590E+04</totfact>
</mgrwt>
</event>
<event>
 5    1  0.3209683E-002  0.1249975E+03  0.7818608E-02  0.1235073E+00
          4   -1    0    0  501    0  0.00000000000E+00  0.00000000000E+00  0.52488122475E+01  0.54002712903E+01  0.12700000000E+01 0. -1.
         -4   -1    0    0    0  501 -0.00000000000E+00 -0.00000000000E+00 -0.73345010788E+03  0.73345120741E+03  0.12700000000E+01 0. -1.
         25    2    1    2    0    0  0.00000000000E+00  0.00000000000E+00 -0.72820129563E+03  0.73885147870E+03  0.12499752243E+03 0.  0.
    9000005    1    3    3    0    0  0.23031295399E+02 -0.39812197449E+02 -0.11404365272E+03  0.12297319366E+03  0.10000000000E+01 0.  0.
    9000005    1    3    3    0    0 -0.23031295399E+02  0.39812197449E+02 -0.61415764291E+03  0.61587828504E+03  0.10000000000E+01 0.  0.
<mgrwt>
<rscale>  0 0.12499752E+03</rscale>
<asrwt>0</asrwt>
<pdfrwt beam="1">  1        4 0.81924543E-03 0.12499752E+03</pdfrwt>
<pdfrwt beam="2">  1       -4 0.11285013E+00 0.12499752E+03</pdfrwt>
<totfact> 0.41115384E+03</totfact>
</mgrwt>
</event>
<event>
 5    1  0.3209683E-002  0.1250014E+03  0.7818608E-02  0.1235067E+00
          4   -1    0    0  501    0  0.00000000000E+00  0.00000000000E+00  0.17763341907E+01  0.21836353077E+01  0.12700000000E+01 0.  1.
         -4   -1    0    0    0  501 -0.00000000000E+00 -0.00000000000E+00 -0.19725061003E+04  0.19725065092E+04  0.12700000000E+01 0.  1.
         25    2    1    2    0    0  0.00000000000E+00  0.00000000000E+00 -0.19707297661E+04  0.19746901445E+04  0.12500142227E+03 0.  0.
    9000005    1    3    3    0    0  0.41542739369E+02 -0.94098850993E+01 -0.26299376663E+03  0.26642272129E+03  0.10000000000E+01 0.  0.
    9000005    1    3    3    0    0 -0.41542739369E+02  0.94098850993E+01 -0.17077359995E+04  0.17082674232E+04  0.10000000000E+01 0.  0.
<mgrwt>
<rscale>  0 0.12500142E+03</rscale>
<asrwt>0</asrwt>
<pdfrwt beam="1">  1        4 0.30464607E-03 0.12500142E+03</pdfrwt>
<pdfrwt beam="2">  1       -4 0.30349227E+00 0.12500142E+03</pdfrwt>
<totfact> 0.10195082E+03</totfact>
</mgrwt>
</event>
<event>
 5    1  0.3209683E-002  0.1249947E+03  0.7818608E-02  0.1235078E+00
         -4   -1    0    0    0  501 -0.00000000000E+00  0.00000000000E+00  0.27045098104E+03  0.27045396289E+03  0.12700000000E+01 0.  1.
          4   -1    0    0  501    0  0.00000000000E+00 -0.00000000000E+00 -0.14411260021E+02  0.14467111508E+02  0.12700000000E+01 0.  1.
         25    2    1    2    0    0  0.00000000000E+00  0.00000000000E+00  0.25603972102E+03  0.28492107440E+03  0.12499471949E+03 0.  0.
    9000005    1    3    3    0    0  0.55981832852E+01  0.62129149073E+02  0.13641038286E+03  0.15000054457E+03  0.10000000000E+01 0.  0.
    9000005    1    3    3    0    0 -0.55981832852E+01 -0.62129149073E+02  0.11962933816E+03  0.13492052983E+03  0.10000000000E+01 0.  0.
<mgrwt>
<rscale>  0 0.12499472E+03</rscale>
<asrwt>0</asrwt>
<pdfrwt beam="2">  1        4 0.22216428E-02 0.12499472E+03</pdfrwt>
<pdfrwt beam="1">  1       -4 0.41612365E-01 0.12499472E+03</pdfrwt>
<totfact> 0.77539198E+03</totfact>
</mgrwt>
</event>
<event>
 5    1  0.3209683E-002  0.1249995E+03  0.7818608E-02  0.1235070E+00
          4   -1    0    0  501    0  0.00000000000E+00  0.00000000000E+00  0.16542381702E+02  0.16591060616E+02  0.12700000000E+01 0.  1.
         -4   -1    0    0    0  501 -0.00000000000E+00 -0.00000000000E+00 -0.23573671904E+03  0.23574013999E+03  0.12700000000E+01 0.  1.
         25    2    1    2    0    0  0.00000000000E+00  0.00000000000E+00 -0.21919433733E+03  0.25233120060E+03  0.12499950912E+03 0.  0.
    9000005    1    3    3    0    0 -0.29730760338E+02  0.24606972953E+02 -0.20881573869E+03  0.21235450066E+03  0.10000000000E+01 0.  0.
    9000005    1    3    3    0    0  0.29730760338E+02 -0.24606972953E+02 -0.10378598645E+02  0.39976699940E+02  0.10000000000E+01 0.  0.
<mgrwt>
<rscale>  0 0.12499951E+03</rscale>
<asrwt>0</asrwt>
<pdfrwt beam="1">  1        4 0.25489896E-02 0.12499951E+03</pdfrwt>
<pdfrwt beam="2">  1       -4 0.36271193E-01 0.12499951E+03</pdfrwt>
<totfact> 0.81995358E+03</totfact>
</mgrwt>
</event>
<event>
 5    1  0.3209683E-002  0.1250041E+03  0.7818608E-02  0.1235063E+00
          4   -1    0    0  501    0  0.00000000000E+00  0.00000000000E+00  0.73438263257E+01  0.74528306771E+01  0.12700000000E+01 0.  1.
         -4   -1    0    0    0  501 -0.00000000000E+00 -0.00000000000E+00 -0.52791533637E+03  0.52791686398E+03  0.12700000000E+01 0.  1.
         25    2    1    2    0    0  0.00000000000E+00  0.00000000000E+00 -0.52057151004E+03  0.53536969465E+03  0.12500405148E+03 0.  0.
    9000005    1    3    3    0    0 -0.24600736169E+02 -0.54902846356E+02 -0.33271282478E+03  0.33810995627E+03  0.10000000000E+01 0.  0.
    9000005    1    3    3    0    0  0.24600736169E+02  0.54902846356E+02 -0.18785868526E+03  0.19725973838E+03  0.10000000000E+01 0.  0.
<mgrwt>
<rscale>  0 0.12500405E+03</rscale>
<asrwt>0</asrwt>
<pdfrwt beam="1">  1        4 0.11383223E-02 0.12500405E+03</pdfrwt>
<pdfrwt beam="2">  1       -4 0.81226216E-01 0.12500405E+03</pdfrwt>
<totfact> 0.53216158E+03</totfact>
</mgrwt>
</event>
<event>
 5    1  0.3209683E-002  0.1249977E+03  0.7818608E-02  0.1235073E+00
          4   -1    0    0  501    0  0.00000000000E+00  0.00000000000E+00  0.55096019974E+01  0.56540794273E+01  0.12700000000E+01 0. -1.
         -4   -1    0    0    0  501 -0.00000000000E+00 -0.00000000000E+00 -0.69964267800E+03  0.69964383066E+03  0.12700000000E+01 0. -1.
         25    2    1    2    0    0  0.00000000000E+00  0.00000000000E+00 -0.69413307600E+03  0.70529791009E+03  0.12499765906E+03 0.  0.
    9000005    1    3    3    0    0 -0.28083045882E+02 -0.32101874942E+02 -0.60476932154E+03  0.60627231515E+03  0.10000000000E+01 0.  0.
    9000005    1    3    3    0    0  0.28083045882E+02  0.32101874942E+02 -0.89363754460E+02  0.99025594934E+02  0.10000000000E+01 0.  0.
<mgrwt>
<rscale>  0 0.12499766E+03</rscale>
<asrwt>0</asrwt>
<pdfrwt beam="1">  1        4 0.85883394E-03 0.12499766E+03</pdfrwt>
<pdfrwt beam="2">  1       -4 0.10764847E+00 0.12499766E+03</pdfrwt>
<totfact> 0.42810712E+03</totfact>
</mgrwt>
</event>
<event>
 5    1  0.3209683E-002  0.1250069E+03  0.7818608E-02  0.1235059E+00
          4   -1    0    0  501    0  0.00000000000E+00  0.00000000000E+00  0.41688691970E+02  0.41708032058E+02  0.12700000000E+01 0.  1.
         -4   -1    0    0    0  501 -0.00000000000E+00 -0.00000000000E+00 -0.93665415006E+02  0.93674024511E+02  0.12700000000E+01 0.  1.
         25    2    1    2    0    0  0.00000000000E+00  0.00000000000E+00 -0.51976723036E+02  0.13538205657E+03  0.12500688582E+03 0.  0.
    9000005    1    3    3    0    0  0.48891143131E+02  0.23609423593E+02 -0.59507621712E+02  0.80559951594E+02  0.10000000000E+01 0.  0.
    9000005    1    3    3    0    0 -0.48891143131E+02 -0.23609423593E+02  0.75308986764E+01  0.54822104975E+02  0.10000000000E+01 0.  0.
<mgrwt>
<rscale>  0 0.12500689E+03</rscale>
<asrwt>0</asrwt>
<pdfrwt beam="1">  1        4 0.64157949E-02 0.12500689E+03</pdfrwt>
<pdfrwt beam="2">  1       -4 0.14412214E-01 0.12500689E+03</pdfrwt>
<totfact> 0.10228436E+04</totfact>
</mgrwt>
</event>
<event>
 5    1  0.3209683E-002  0.1250096E+03  0.7818608E-02  0.1235054E+00
          4   -1    0    0  501    0  0.00000000000E+00  0.00000000000E+00  0.23133658303E+03  0.23134006905E+03  0.12700000000E+01 0. -1.
         -4   -1    0    0    0  501 -0.00000000000E+00 -0.00000000000E+00 -0.16860661361E+02  0.16908423982E+02  0.12700000000E+01 0. -1.
         25    2    1    2    0    0  0.00000000000E+00  0.00000000000E+00  0.21447592167E+03  0.24824849304E+03  0.12500957290E+03 0.  0.
    9000005    1    3    3    0    0 -0.10499280836E+02 -0.38163088196E+02  0.11192621218E+02  0.41145242355E+02  0.10000000000E+01 0.  0.
    9000005    1    3    3    0    0  0.10499280836E+02  0.38163088196E+02  0.20328330045E+03  0.20710325068E+03  0.10000000000E+01 0.  0.
<mgrwt>
<rscale>  0 0.12500957E+03</rscale>
<asrwt>0</asrwt>
<pdfrwt beam="1">  1        4 0.35594182E-01 0.12500957E+03</pdfrwt>
<pdfrwt beam="2">  1       -4 0.25978904E-02 0.12500957E+03</pdfrwt>
<totfact> 0.82566427E+03</totfact>
</mgrwt>
</event>
<event>
 5    1  0.3209683E-002  0.1250028E+03  0.7818608E-02  0.1235065E+00
          4   -1    0    0  501    0  0.00000000000E+00  0.00000000000E+00  0.20484459837E+02  0.20523790947E+02  0.12700000000E+01 0.  1.
         -4   -1    0    0    0  501 -0.00000000000E+00 -0.00000000000E+00 -0.19047758454E+03  0.19048181833E+03  0.12700000000E+01 0.  1.
         25    2    1    2    0    0  0.00000000000E+00  0.00000000000E+00 -0.16999312470E+03  0.21100560927E+03  0.12500281876E+03 0.  0.
    9000005    1    3    3    0    0 -0.17834915988E+02  0.52461054437E+02 -0.36214050061E+02  0.66201993042E+02  0.10000000000E+01 0.  0.
    9000005    1    3    3    0    0  0.17834915988E+02 -0.52461054437E+02 -0.13377907464E+03  0.14480361623E+03  0.10000000000E+01 0.  0.
<mgrwt>
<rscale>  0 0.12500282E+03</rscale>
<asrwt>0</asrwt>
<pdfrwt beam="1">  1        4 0.31548066E-02 0.12500282E+03</pdfrwt>
<pdfrwt beam="2">  1       -4 0.29307594E-01 0.12500282E+03</pdfrwt>
<totfact> 0.88306351E+03</totfact>
</mgrwt>
</event>
<event>
 5    1  0.3209683E-002  0.1250010E+03  0.7818608E-02  0.1235068E+00
         -4   -1    0    0    0  501 -0.00000000000E+00  0.00000000000E+00  0.19634346202E+02  0.19675376763E+02  0.12700000000E+01 0.  1.
          4   -1    0    0  501    0  0.00000000000E+00 -0.00000000000E+00 -0.19870243602E+03  0.19870649456E+03  0.12700000000E+01 0.  1.
         25    2    1    2    0    0  0.00000000000E+00  0.00000000000E+00 -0.17906808982E+03  0.21838187132E+03  0.12500104372E+03 0.  0.
    9000005    1    3    3    0    0  0.45458807843E+02 -0.42717803343E+02 -0.96071174952E+02  0.11455123129E+03  0.10000000000E+01 0.  0.
    9000005    1    3    3    0    0 -0.45458807843E+02  0.42717803343E+02 -0.82996914867E+02  0.10383064004E+03  0.10000000000E+01 0.  0.
<mgrwt>
<rscale>  0 0.12500104E+03</rscale>
<asrwt>0</asrwt>
<pdfrwt beam="2">  1        4 0.30573073E-01 0.12500104E+03</pdfrwt>
<pdfrwt beam="1">  1       -4 0.30241372E-02 0.12500104E+03</pdfrwt>
<totfact> 0.87123016E+03</totfact>
</mgrwt>
</event>
<event>
 5    1  0.3209683E-002  0.1249927E+03  0.7818608E-02  0.1235081E+00
         -4   -1    0    0    0  501 -0.00000000000E+00  0.00000000000E+00  0.31411629672E+03  0.31411886407E+03  0.12700000000E+01 0.  1.
          4   -1    0    0  501    0  0.00000000000E+00 -0.00000000000E+00 -0.12399171561E+02  0.12464042498E+02  0.12700000000E+01 0.  1.
         25    2    1    2    0    0  0.00000000000E+00  0.00000000000E+00  0.30171712516E+03  0.32658290656E+03  0.12499268478E+03 0.  0.
    9000005    1    3    3    0    0  0.21363824946E+02 -0.55149550334E+02  0.98153009246E+02  0.11459886187E+03  0.10000000000E+01 0.  0.
    9000005    1    3    3    0    0 -0.21363824946E+02  0.55149550334E+02  0.20356411591E+03  0.21198404469E+03  0.10000000000E+01 0.  0.
<mgrwt>
<rscale>  0 0.12499268E+03</rscale>
<asrwt>0</asrwt>
<pdfrwt beam="2">  1        4 0.19127524E-02 0.12499268E+03</pdfrwt>
<pdfrwt beam="1">  1       -4 0.48330772E-01 0.12499268E+03</pdfrwt>
<totfact> 0.72391688E+03</totfact>
</mgrwt>
</event>
<event>
 5    1  0.3209683E-002  0.1249963E+03  0.7818608E-02  0.1235075E+00
          4   -1    0    0  501    0  0.00000000000E+00  0.00000000000E+00  0.14247764487E+03  0.14248330495E+03  0.12700000000E+01 0. -1.
         -4   -1    0    0    0  501 -0.00000000000E+00 -0.00000000000E+00 -0.27394028966E+02  0.27423452062E+02  0.12700000000E+01 0. -1.
         25    2    1    2    0    0  0.00000000000E+00  0.00000000000E+00  0.11508361590E+03  0.16990675701E+03  0.12499626965E+03 0.  0.
    9000005    1    3    3    0    0 -0.40741695465E+02  0.47108441668E+02  0.64462984720E+02  0.89641326545E+02  0.10000000000E+01 0.  0.
    9000005    1    3    3    0    0  0.40741695465E+02 -0.47108441668E+02  0.50620631185E+02  0.80265430462E+02  0.10000000000E+01 0.  0.
<mgrwt>
<rscale>  0 0.12499627E+03</rscale>
<asrwt>0</asrwt>
<pdfrwt beam="1">  1        4 0.21922336E-01 0.12499627E+03</pdfrwt>
<pdfrwt beam="2">  1       -4 0.42171648E-02 0.12499627E+03</pdfrwt>
<totfact> 0.95474012E+03</totfact>
</mgrwt>
</event>
<event>
 5    1  0.3209683E-002  0.1249982E+03  0.7818608E-02  0.1235072E+00
         -4   -1    0    0    0  501 -0.00000000000E+00  0.00000000000E+00  0.15908556379E+03  0.15909063299E+03  0.12700000000E+01 0.  1.
          4   -1    0    0  501    0  0.00000000000E+00 -0.00000000000E+00 -0.24531786790E+02  0.24564638469E+02  0.12700000000E+01 0.  1.
         25    2    1    2    0    0  0.00000000000E+00  0.00000000000E+00  0.13455377700E+03  0.18365527146E+03  0.12499815931E+03 0.  0.
    9000005    1    3    3    0    0  0.49862442291E+02  0.31725626223E+02  0.37441192367E+02  0.69968717269E+02  0.10000000000E+01 0.  0.
    9000005    1    3    3    0    0 -0.49862442291E+02 -0.31725626223E+02  0.97112584632E+02  0.11368655419E+03  0.10000000000E+01 0.  0.
<mgrwt>
<rscale>  0 0.12499816E+03</rscale>
<asrwt>0</asrwt>
<pdfrwt beam="2">  1        4 0.37770382E-02 0.12499816E+03</pdfrwt>
<pdfrwt beam="1">  1       -4 0.24477618E-01 0.12499816E+03</pdfrwt>
<totfact> 0.92966986E+03</totfact>
</mgrwt>
</event>
<event>
 4    1  0.3209683E-002  0.1253811E+03  0.7818608E-02  0.1234475E+00
         -4   -1    0    0    0  501 -0.00000000000E+00  0.00000000000E+00  0.26365742176E+02  0.26396311494E+02  0.12700000000E+01 0.  1.
          4   -1    0    0  501    0  0.00000000000E+00 -0.00000000000E+00 -0.14894130346E+03  0.14894671791E+03  0.12700000000E+01 0.  1.
    9000005    1    1    2    0    0  0.61088106355E+01 -0.42042437724E+02 -0.12574271161E+03  0.13272947548E+03  0.10000000000E+01 0.  0.
    9000005    1    1    2    0    0 -0.61088106355E+01  0.42042437724E+02  0.31671503261E+01  0.42613553928E+02  0.10000000000E+01 0.  0.
<mgrwt>
<rscale>  0 0.12538106E+03</rscale>
<asrwt>0</asrwt>
<pdfrwt beam="2">  1        4 0.22916814E-01 0.12538106E+03</pdfrwt>
<pdfrwt beam="1">  1       -4 0.40590361E-02 0.12538106E+03</pdfrwt>
<totfact> 0.93659097E+03</totfact>
</mgrwt>
</event>
<event>
 5    1  0.3209683E-002  0.1250048E+03  0.7818608E-02  0.1235062E+00
          4   -1    0    0  501    0  0.00000000000E+00  0.00000000000E+00  0.39403132452E+01  0.41399237276E+01  0.12700000000E+01 0. -1.
         -4   -1    0    0    0  501 -0.00000000000E+00 -0.00000000000E+00 -0.96673881670E+03  0.96673965089E+03  0.12700000000E+01 0. -1.
         25    2    1    2    0    0  0.00000000000E+00  0.00000000000E+00 -0.96279850345E+03  0.97087957462E+03  0.12500476058E+03 0.  0.
    9000005    1    3    3    0    0  0.56698032195E+02  0.25128138291E+02 -0.54128749817E+03  0.54482955671E+03  0.10000000000E+01 0.  0.
    9000005    1    3    3    0    0 -0.56698032195E+02 -0.25128138291E+02 -0.42151100528E+03  0.42605001791E+03  0.10000000000E+01 0.  0.
<mgrwt>
<rscale>  0 0.12500476E+03</rscale>
<asrwt>0</asrwt>
<pdfrwt beam="1">  1        4 0.62162163E-03 0.12500476E+03</pdfrwt>
<pdfrwt beam="2">  1       -4 0.14874428E+00 0.12500476E+03</pdfrwt>
<totfact> 0.31582831E+03</totfact>
</mgrwt>
</event>
<event>
 5    1  0.3209683E-002  0.1249960E+03  0.7818608E-02  0.1235076E+00
          4   -1    0    0  501    0  0.00000000000E+00  0.00000000000E+00  0.23510106680E+02  0.23544383961E+02  0.12700000000E+01 0.  1.
         -4   -1    0    0    0  501 -0.00000000000E+00 -0.00000000000E+00 -0.16598344569E+03  0.16598830424E+03  0.12700000000E+01 0.  1.
         25    2    1    2    0    0  0.00000000000E+00  0.00000000000E+00 -0.14247333901E+03  0.18953268820E+03  0.12499595020E+03 0.  0.
    9000005    1    3    3    0    0 -0.18084142144E+02  0.46086707035E+02 -0.13418169794E+02  0.51303684498E+02  0.10000000000E+01 0.  0.
    9000005    1    3    3    0    0  0.18084142144E+02 -0.46086707035E+02 -0.12905516922E+03  0.13822900370E+03  0.10000000000E+01 0.  0.
<mgrwt>
<rscale>  0 0.12499595E+03</rscale>
<asrwt>0</asrwt>
<pdfrwt beam="1">  1        4 0.36199501E-02 0.12499595E+03</pdfrwt>
<pdfrwt beam="2">  1       -4 0.25538924E-01 0.12499595E+03</pdfrwt>
<totfact> 0.91937029E+03</totfact>
</mgrwt>
</event>
<event>
 5    1  0.3209683E-002  0.1250018E+03  0.7818608E-02  0.1235067E+00
          4   -1    0    0  501    0  0.00000000000E+00  0.00000000000E+00  0.13936875325E+02  0.13994620174E+02  0.12700000000E+01 0. -1.
         -4   -1    0    0    0  501 -0.00000000000E+00 -0.00000000000E+00 -0.27965082803E+03  0.27965371179E+03  0.12700000000E+01 0. -1.
         25    2    1    2    0    0  0.00000000000E+00  0.00000000000E+00 -0.26571395270E+03  0.29364833196E+03  0.12500175280E+03 0.  0.
    9000005    1    3    3    0    0 -0.16691751367E+02 -0.29205056340E+02 -0.91341694100E+01  0.34870946794E+02  0.10000000000E+01 0.  0.
    9000005    1    3    3    0    0  0.16691751367E+02  0.29205056340E+02 -0.25657978329E+03  0.25877738517E+03  0.10000000000E+01 0.  0.
<mgrwt>
<rscale>  0 0.12500175E+03</rscale>
<asrwt>0</asrwt>
<pdfrwt beam="1">  1        4 0.21487986E-02 0.12500175E+03</pdfrwt>
<pdfrwt beam="2">  1       -4 0.43027864E-01 0.12500175E+03</pdfrwt>
<totfact> 0.76399579E+03</totfact>
</mgrwt>
</event>
<event>
 5    1  0.3209683E-002  0.1249963E+03  0.7818608E-02  0.1235075E+00
          4   -1    0    0  501    0  0.00000000000E+00  0.00000000000E+00  0.87762638431E+02  0.87771826940E+02  0.12700000000E+01 0.  1.
         -4   -1    0    0    0  501 -0.00000000000E+00 -0.00000000000E+00 -0.44486018983E+02  0.44504143459E+02  0.12700000000E+01 0.  1.
         25    2    1    2    0    0  0.00000000000E+00  0.00000000000E+00  0.43276619447E+02  0.13227597040E+03  0.12499626616E+03 0.  0.
    9000005    1    3    3    0    0  0.59106359889E+02  0.13845867562E+02  0.59511179271E+01  0.61005619679E+02  0.10000000000E+01 0.  0.
    9000005    1    3    3    0    0 -0.59106359889E+02 -0.13845867562E+02  0.37325501520E+02  0.71270350719E+02  0.10000000000E+01 0.  0.
<mgrwt>
<rscale>  0 0.12499627E+03</rscale>
<asrwt>0</asrwt>
<pdfrwt beam="1">  1        4 0.13504045E-01 0.12499627E+03</pdfrwt>
<pdfrwt beam="2">  1       -4 0.68461039E-02 0.12499627E+03</pdfrwt>
<totfact> 0.10296679E+04</totfact>
</mgrwt>
</event>
<event>
 5    1  0.3209683E-002  0.1250013E+03  0.7818608E-02  0.1235067E+00
          4   -1    0    0  501    0  0.00000000000E+00  0.00000000000E+00  0.73886695720E+01  0.74970219450E+01  0.12700000000E+01 0.  1.
         -4   -1    0    0    0  501 -0.00000000000E+00 -0.00000000000E+00 -0.52473471303E+03  0.52473624990E+03  0.12700000000E+01 0.  1.
         25    2    1    2    0    0  0.00000000000E+00  0.00000000000E+00 -0.51734604345E+03  0.53223327184E+03  0.12500130790E+03 0.  0.
    9000005    1    3    3    0    0  0.48638284177E+02 -0.83491658900E+01 -0.42191706353E+03  0.42479453829E+03  0.10000000000E+01 0.  0.
    9000005    1    3    3    0    0 -0.48638284177E+02  0.83491658900E+01 -0.95428979923E+02  0.10743873356E+03  0.10000000000E+01 0.  0.
<mgrwt>
<rscale>  0 0.12500131E+03</rscale>
<asrwt>0</asrwt>
<pdfrwt beam="1">  1        4 0.11451718E-02 0.12500131E+03</pdfrwt>
<pdfrwt beam="2">  1       -4 0.80736841E-01 0.12500131E+03</pdfrwt>
<totfact> 0.53445888E+03</totfact>
</mgrwt>
</event>
<event>
 5    1  0.3209683E-002  0.1249965E+03  0.7818608E-02  0.1235075E+00
          4   -1    0    0  501    0  0.00000000000E+00  0.00000000000E+00  0.19791675272E+02  0.19832380343E+02  0.12700000000E+01 0. -1.
         -4   -1    0    0    0  501 -0.00000000000E+00 -0.00000000000E+00 -0.19711186369E+03  0.19711595498E+03  0.12700000000E+01 0. -1.
         25    2    1    2    0    0  0.00000000000E+00  0.00000000000E+00 -0.17732018842E+03  0.21694833532E+03  0.12499652387E+03 0.  0.
    9000005    1    3    3    0    0 -0.23807479802E+02  0.66662085013E+01  0.10950811296E+02  0.27058357273E+02  0.10000000000E+01 0.  0.
    9000005    1    3    3    0    0  0.23807479802E+02 -0.66662085013E+01 -0.18827099972E+03  0.18988997805E+03  0.10000000000E+01 0.  0.
<mgrwt>
<rscale>  0 0.12499652E+03</rscale>
<asrwt>0</asrwt>
<pdfrwt beam="1">  1        4 0.30483191E-02 0.12499652E+03</pdfrwt>
<pdfrwt beam="2">  1       -4 0.30328347E-01 0.12499652E+03</pdfrwt>
<totfact> 0.87360336E+03</totfact>
</mgrwt>
</event>
<event>
 5    1  0.3209683E-002  0.1250009E+03  0.7818608E-02  0.1235068E+00
         -4   -1    0    0    0  501 -0.00000000000E+00  0.00000000000E+00  0.79331215052E+02  0.79341380009E+02  0.12700000000E+01 0.  1.
          4   -1    0    0  501    0  0.00000000000E+00 -0.00000000000E+00 -0.49218996519E+02  0.49235378726E+02  0.12700000000E+01 0.  1.
         25    2    1    2    0    0  0.00000000000E+00  0.00000000000E+00  0.30112218533E+02  0.12857675873E+03  0.12500094872E+03 0.  0.
    9000005    1    3    3    0    0  0.21898864511E+02  0.45518808604E+02  0.52902489539E+02  0.73151866709E+02  0.10000000000E+01 0.  0.
    9000005    1    3    3    0    0 -0.21898864511E+02 -0.45518808604E+02 -0.22790271005E+02  0.55424892026E+02  0.10000000000E+01 0.  0.
<mgrwt>
<rscale>  0 0.12500095E+03</rscale>
<asrwt>0</asrwt>
<pdfrwt beam="2">  1        4 0.75741954E-02 0.12500095E+03</pdfrwt>
<pdfrwt beam="1">  1       -4 0.12206844E-01 0.12500095E+03</pdfrwt>
<totfact> 0.10374828E+04</totfact>
</mgrwt>
</event>
<event>
 5    1  0.3209683E-002  0.1249996E+03  0.7818608E-02  0.1235070E+00
          4   -1    0    0  501    0  0.00000000000E+00  0.00000000000E+00  0.19607039347E+02  0.19648126933E+02  0.12700000000E+01 0. -1.
         -4   -1    0    0    0  501 -0.00000000000E+00 -0.00000000000E+00 -0.19897385821E+03  0.19897791121E+03  0.12700000000E+01 0. -1.
         25    2    1    2    0    0  0.00000000000E+00  0.00000000000E+00 -0.17936681886E+03  0.21862603815E+03  0.12499955539E+03 0.  0.
    9000005    1    3    3    0    0  0.49419095068E+02 -0.33876020483E+02 -0.58622246352E+02  0.83829585997E+02  0.10000000000E+01 0.  0.
    9000005    1    3    3    0    0 -0.49419095068E+02  0.33876020483E+02 -0.12074457251E+03  0.13479645215E+03  0.10000000000E+01 0.  0.
<mgrwt>
<rscale>  0 0.12499956E+03</rscale>
<asrwt>0</asrwt>
<pdfrwt beam="1">  1        4 0.30199401E-02 0.12499956E+03</pdfrwt>
<pdfrwt beam="2">  1       -4 0.30614834E-01 0.12499956E+03</pdfrwt>
<totfact> 0.87087095E+03</totfact>
</mgrwt>
</event>
<event>
 5    1  0.3209683E-002  0.1249966E+03  0.7818608E-02  0.1235075E+00
          4   -1    0    0  501    0  0.00000000000E+00  0.00000000000E+00  0.36647094184E+02  0.36669093418E+02  0.12700000000E+01 0.  1.
         -4   -1    0    0    0  501 -0.00000000000E+00 -0.00000000000E+00 -0.10652741192E+03  0.10653498201E+03  0.12700000000E+01 0.  1.
         25    2    1    2    0    0  0.00000000000E+00  0.00000000000E+00 -0.69880317741E+02  0.14320407543E+03  0.12499659360E+03 0.  0.
    9000005    1    3    3    0    0 -0.85005359956E+01 -0.59127580134E+02 -0.55962614230E+02  0.81860515733E+02  0.10000000000E+01 0.  0.
    9000005    1    3    3    0    0  0.85005359956E+01  0.59127580134E+02 -0.13917703511E+02  0.61343559692E+02  0.10000000000E+01 0.  0.
<mgrwt>
<rscale>  0 0.12499659E+03</rscale>
<asrwt>0</asrwt>
<pdfrwt beam="1">  1        4 0.56402891E-02 0.12499659E+03</pdfrwt>
<pdfrwt beam="2">  1       -4 0.16391107E-01 0.12499659E+03</pdfrwt>
<totfact> 0.10068378E+04</totfact>
</mgrwt>
</event>
<event>
 5    1  0.3209683E-002  0.1249932E+03  0.7818608E-02  0.1235080E+00
         -4   -1    0    0    0  501 -0.00000000000E+00  0.00000000000E+00  0.46450359949E+02  0.46467718250E+02  0.12700000000E+01 0.  1.
          4   -1    0    0  501    0  0.00000000000E+00 -0.00000000000E+00 -0.84048126677E+02  0.84057721227E+02  0.12700000000E+01 0.  1.
         25    2    1    2    0    0  0.00000000000E+00  0.00000000000E+00 -0.37597766728E+02  0.13052543948E+03  0.12499319297E+03 0.  0.
    9000005    1    3    3    0    0  0.12267755832E+02  0.40450302336E+02 -0.66858688921E+02  0.79106315022E+02  0.10000000000E+01 0.  0.
    9000005    1    3    3    0    0 -0.12267755832E+02 -0.40450302336E+02  0.29260922193E+02  0.51419124456E+02  0.10000000000E+01 0.  0.
<mgrwt>
<rscale>  0 0.12499319E+03</rscale>
<asrwt>0</asrwt>
<pdfrwt beam="2">  1        4 0.12932554E-01 0.12499319E+03</pdfrwt>
<pdfrwt beam="1">  1       -4 0.71482826E-02 0.12499319E+03</pdfrwt>
<totfact> 0.10334861E+04</totfact>
</mgrwt>
</event>
<event>
 5    1  0.3209683E-002  0.1250020E+03  0.7818608E-02  0.1235066E+00
         -4   -1    0    0    0  501 -0.00000000000E+00  0.00000000000E+00  0.22797031297E+02  0.22832379113E+02  0.12700000000E+01 0.  1.
          4   -1    0    0  501    0  0.00000000000E+00 -0.00000000000E+00 -0.17118410906E+03  0.17118882000E+03  0.12700000000E+01 0.  1.
         25    2    1    2    0    0  0.00000000000E+00  0.00000000000E+00 -0.14838707776E+03  0.19402119911E+03  0.12500200342E+03 0.  0.
    9000005    1    3    3    0    0 -0.72040919071E+01 -0.36894518772E+02  0.32936350550E+01  0.37748542852E+02  0.10000000000E+01 0.  0.
    9000005    1    3    3    0    0  0.72040919071E+01  0.36894518772E+02 -0.15168071281E+03  0.15627265626E+03  0.10000000000E+01 0.  0.
<mgrwt>
<rscale>  0 0.12500200E+03</rscale>
<asrwt>0</asrwt>
<pdfrwt beam="2">  1        4 0.26339097E-01 0.12500200E+03</pdfrwt>
<pdfrwt beam="1">  1       -4 0.35103171E-02 0.12500200E+03</pdfrwt>
<totfact> 0.91148220E+03</totfact>
</mgrwt>
</event>
<event>
 5    1  0.3209683E-002  0.1249982E+03  0.7818608E-02  0.1235072E+00
         -4   -1    0    0    0  501 -0.00000000000E+00  0.00000000000E+00  0.17156622509E+02  0.17203563466E+02  0.12700000000E+01 0. -1.
          4   -1    0    0  501    0  0.00000000000E+00 -0.00000000000E+00 -0.22731550003E+03  0.22731904771E+03  0.12700000000E+01 0. -1.
         25    2    1    2    0    0  0.00000000000E+00  0.00000000000E+00 -0.21015887752E+03  0.24452261118E+03  0.12499821430E+03 0.  0.
    9000005    1    3    3    0    0  0.44834798876E+02  0.32039638976E+02 -0.16272758016E+03  0.17180792473E+03  0.10000000000E+01 0.  0.
    9000005    1    3    3    0    0 -0.44834798876E+02 -0.32039638976E+02 -0.47431297361E+02  0.72714686449E+02  0.10000000000E+01 0.  0.
<mgrwt>
<rscale>  0 0.12499821E+03</rscale>
<asrwt>0</asrwt>
<pdfrwt beam="2">  1        4 0.34975497E-01 0.12499821E+03</pdfrwt>
<pdfrwt beam="1">  1       -4 0.26433643E-02 0.12499821E+03</pdfrwt>
<totfact> 0.83131691E+03</totfact>
</mgrwt>
</event>
<event>
 5    1  0.3209683E-002  0.1249981E+03  0.7818608E-02  0.1235072E+00
         -4   -1    0    0    0  501 -0.00000000000E+00  0.00000000000E+00  0.32711288230E+04  0.32711290695E+04  0.12700000000E+01 0.  1.
          4   -1    0    0  501    0  0.00000000000E+00 -0.00000000000E+00 -0.85613131282E+00  0.15316203266E+01  0.12700000000E+01 0.  1.
         25    2    1    2    0    0  0.00000000000E+00  0.00000000000E+00  0.32702726917E+04  0.32726606898E+04  0.12499805188E+03 0.  0.
    9000005    1    3    3    0    0 -0.20856565965E+02  0.46246644096E+02  0.25904560131E+04  0.25909529336E+04  0.10000000000E+01 0.  0.
    9000005    1    3    3    0    0  0.20856565965E+02 -0.46246644096E+02  0.67981667859E+03  0.68170775624E+03  0.10000000000E+01 0.  0.
<mgrwt>
<rscale>  0 0.12499805E+03</rscale>
<asrwt>0</asrwt>
<pdfrwt beam="2">  1        4 0.18369001E-03 0.12499805E+03</pdfrwt>
<pdfrwt beam="1">  1       -4 0.50330849E+00 0.12499805E+03</pdfrwt>
<totfact> 0.99651378E+01</totfact>
</mgrwt>
</event>
<event>
 5    1  0.3209683E-002  0.1250025E+03  0.7818608E-02  0.1235065E+00
         -4   -1    0    0    0  501 -0.00000000000E+00  0.00000000000E+00  0.98193041238E+02  0.98201253798E+02  0.12700000000E+01 0. -1.
          4   -1    0    0  501    0  0.00000000000E+00 -0.00000000000E+00 -0.39762905168E+02  0.39783181464E+02  0.12700000000E+01 0. -1.
         25    2    1    2    0    0  0.00000000000E+00  0.00000000000E+00  0.58430136070E+02  0.13798443526E+03  0.12500249427E+03 0.  0.
    9000005    1    3    3    0    0  0.47912766782E+02  0.40121891601E+02  0.29303974118E+02  0.69029865315E+02  0.10000000000E+01 0.  0.
    9000005    1    3    3    0    0 -0.47912766782E+02 -0.40121891601E+02  0.29126161952E+02  0.68954569946E+02  0.10000000000E+01 0.  0.
<mgrwt>
<rscale>  0 0.12500249E+03</rscale>
<asrwt>0</asrwt>
<pdfrwt beam="2">  1        4 0.61195616E-02 0.12500249E+03</pdfrwt>
<pdfrwt beam="1">  1       -4 0.15108813E-01 0.12500249E+03</pdfrwt>
<totfact> 0.10174959E+04</totfact>
</mgrwt>
</event>
<event>
 5    1  0.3209683E-002  0.1250005E+03  0.7818608E-02  0.1235069E+00
          4   -1    0    0  501    0  0.00000000000E+00  0.00000000000E+00  0.16709675487E+03  0.16710158105E+03  0.12700000000E+01 0. -1.
         -4   -1    0    0    0  501 -0.00000000000E+00 -0.00000000000E+00 -0.23354942030E+02  0.23389446706E+02  0.12700000000E+01 0. -1.
         25    2    1    2    0    0  0.00000000000E+00  0.00000000000E+00  0.14374181284E+03  0.19049102776E+03  0.12500049158E+03 0.  0.
    9000005    1    3    3    0    0  0.61165300510E+02  0.30935109041E+01  0.52927815827E+02  0.80951327873E+02  0.10000000000E+01 0.  0.
    9000005    1    3    3    0    0 -0.61165300510E+02 -0.30935109041E+01  0.90813997016E+02  0.10953969988E+03  0.10000000000E+01 0.  0.
<mgrwt>
<rscale>  0 0.12500049E+03</rscale>
<asrwt>0</asrwt>
<pdfrwt beam="1">  1        4 0.25710218E-01 0.12500049E+03</pdfrwt>
<pdfrwt beam="2">  1       -4 0.35960935E-02 0.12500049E+03</pdfrwt>
<totfact> 0.91760937E+03</totfact>
</mgrwt>
</event>
<event>
 5    1  0.3209683E-002  0.1250003E+03  0.7818608E-02  0.1235069E+00
          4   -1    0    0  501    0  0.00000000000E+00  0.00000000000E+00  0.59071317953E+02  0.59084968517E+02  0.12700000000E+01 0. -1.
         -4   -1    0    0    0  501 -0.00000000000E+00 -0.00000000000E+00 -0.66100622732E+02  0.66112821945E+02  0.12700000000E+01 0. -1.
         25    2    1    2    0    0  0.00000000000E+00  0.00000000000E+00 -0.70293047792E+01  0.12519779046E+03  0.12500030244E+03 0.  0.
    9000005    1    3    3    0    0  0.57210260265E+02 -0.22037928972E+02 -0.15640997846E+02  0.63279736145E+02  0.10000000000E+01 0.  0.
    9000005    1    3    3    0    0 -0.57210260265E+02  0.22037928972E+02  0.86116930667E+01  0.61918054318E+02  0.10000000000E+01 0.  0.
<mgrwt>
<rscale>  0 0.12500030E+03</rscale>
<asrwt>0</asrwt>
<pdfrwt beam="1">  1        4 0.90898835E-02 0.12500030E+03</pdfrwt>
<pdfrwt beam="2">  1       -4 0.10171315E-01 0.12500030E+03</pdfrwt>
<totfact> 0.10448497E+04</totfact>
</mgrwt>
</event>
<event>
 5    1  0.3209683E-002  0.1250005E+03  0.7818608E-02  0.1235069E+00
          4   -1    0    0  501    0  0.00000000000E+00  0.00000000000E+00  0.89219497703E+02  0.89228536189E+02  0.12700000000E+01 0.  1.
         -4   -1    0    0    0  501 -0.00000000000E+00 -0.00000000000E+00 -0.43762322044E+02  0.43780746118E+02  0.12700000000E+01 0.  1.
         25    2    1    2    0    0  0.00000000000E+00  0.00000000000E+00  0.45457175659E+02  0.13300928231E+03  0.12500045744E+03 0.  0.
    9000005    1    3    3    0    0  0.44979887802E+02  0.13245019290E+01  0.68869677300E+02  0.82273793297E+02  0.10000000000E+01 0.  0.
    9000005    1    3    3    0    0 -0.44979887802E+02 -0.13245019290E+01 -0.23412501640E+02  0.50735489010E+02  0.10000000000E+01 0.  0.
<mgrwt>
<rscale>  0 0.12500046E+03</rscale>
<asrwt>0</asrwt>
<pdfrwt beam="1">  1        4 0.13728189E-01 0.12500046E+03</pdfrwt>
<pdfrwt beam="2">  1       -4 0.67347775E-02 0.12500046E+03</pdfrwt>
<totfact> 0.10280097E+04</totfact>
</mgrwt>
</event>
<event>
 5    1  0.3209683E-002  0.1249998E+03  0.7818608E-02  0.1235070E+00
         -4   -1    0    0    0  501 -0.00000000000E+00  0.00000000000E+00  0.12646756208E+03  0.12647393865E+03  0.12700000000E+01 0.  1.
          4   -1    0    0  501    0  0.00000000000E+00 -0.00000000000E+00 -0.30867066681E+02  0.30893182185E+02  0.12700000000E+01 0.  1.
         25    2    1    2    0    0  0.00000000000E+00  0.00000000000E+00  0.95600495396E+02  0.15736712084E+03  0.12499982400E+03 0.  0.
    9000005    1    3    3    0    0 -0.48015079629E+02  0.24600558667E+02  0.87503823308E+02  0.10280347490E+03  0.10000000000E+01 0.  0.
    9000005    1    3    3    0    0  0.48015079629E+02 -0.24600558667E+02  0.80966720881E+01  0.54563645933E+02  0.10000000000E+01 0.  0.
<mgrwt>
<rscale>  0 0.12499982E+03</rscale>
<asrwt>0</asrwt>
<pdfrwt beam="2">  1        4 0.47512789E-02 0.12499982E+03</pdfrwt>
<pdfrwt beam="1">  1       -4 0.19459047E-01 0.12499982E+03</pdfrwt>
<totfact> 0.97853185E+03</totfact>
</mgrwt>
</event>
<event>
 5    1  0.3209683E-002  0.1249987E+03  0.7818608E-02  0.1235071E+00
         -4   -1    0    0    0  501 -0.00000000000E+00  0.00000000000E+00  0.84853357141E+03  0.84853452182E+03  0.12700000000E+01 0.  1.
          4   -1    0    0  501    0  0.00000000000E+00 -0.00000000000E+00 -0.45148720808E+01  0.46900927396E+01  0.12700000000E+01 0.  1.
         25    2    1    2    0    0  0.00000000000E+00  0.00000000000E+00  0.84401869933E+03  0.85322461456E+03  0.12499871224E+03 0.  0.
    9000005    1    3    3    0    0 -0.13174195127E+02  0.43566685388E+02  0.12972558525E+03  0.13748215507E+03  0.10000000000E+01 0.  0.
    9000005    1    3    3    0    0  0.13174195127E+02 -0.43566685388E+02  0.71429311408E+03  0.71574245949E+03  0.10000000000E+01 0.  0.
<mgrwt>
<rscale>  0 0.12499871E+03</rscale>
<asrwt>0</asrwt>
<pdfrwt beam="2">  1        4 0.70814722E-03 0.12499871E+03</pdfrwt>
<pdfrwt beam="1">  1       -4 0.13055720E+00 0.12499871E+03</pdfrwt>
<totfact> 0.35996736E+03</totfact>
</mgrwt>
</event>
<event>
 5    1  0.3209683E-002  0.1250001E+03  0.7818608E-02  0.1235069E+00
         -4   -1    0    0    0  501 -0.00000000000E+00  0.00000000000E+00  0.39116622560E+03  0.39116828725E+03  0.12700000000E+01 0. -1.
          4   -1    0    0  501    0  0.00000000000E+00 -0.00000000000E+00 -0.99437014592E+01  0.10024474984E+02  0.12700000000E+01 0. -1.
         25    2    1    2    0    0  0.00000000000E+00  0.00000000000E+00  0.38122252414E+03  0.40119276223E+03  0.12500007823E+03 0.  0.
    9000005    1    3    3    0    0  0.24771282692E+02  0.57332172491E+02  0.18368248974E+03  0.19401250343E+03  0.10000000000E+01 0.  0.
    9000005    1    3    3    0    0 -0.24771282692E+02 -0.57332172491E+02  0.19754003440E+03  0.20718025881E+03  0.10000000000E+01 0.  0.
<mgrwt>
<rscale>  0 0.12500008E+03</rscale>
<asrwt>0</asrwt>
<pdfrwt beam="2">  1        4 0.15361723E-02 0.12500008E+03</pdfrwt>
<pdfrwt beam="1">  1       -4 0.60185786E-01 0.12500008E+03</pdfrwt>
<totfact> 0.64436838E+03</totfact>
</mgrwt>
</event>
<event>
 5    1  0.3209683E-002  0.1250026E+03  0.7818608E-02  0.1235065E+00
         -4   -1    0    0    0  501 -0.00000000000E+00  0.00000000000E+00  0.14797479438E+03  0.14798024420E+03  0.12700000000E+01 0.  1.
          4   -1    0    0  501    0  0.00000000000E+00 -0.00000000000E+00 -0.26377948263E+02  0.26408503452E+02  0.12700000000E+01 0.  1.
         25    2    1    2    0    0  0.00000000000E+00  0.00000000000E+00  0.12159684612E+03  0.17438874765E+03  0.12500256926E+03 0.  0.
    9000005    1    3    3    0    0 -0.49116506229E+02  0.38495979060E+02  0.56163268368E+02  0.83962398141E+02  0.10000000000E+01 0.  0.
    9000005    1    3    3    0    0  0.49116506229E+02 -0.38495979060E+02  0.65433577753E+02  0.90426349508E+02  0.10000000000E+01 0.  0.
<mgrwt>
<rscale>  0 0.12500257E+03</rscale>
<asrwt>0</asrwt>
<pdfrwt beam="2">  1        4 0.40609155E-02 0.12500257E+03</pdfrwt>
<pdfrwt beam="1">  1       -4 0.22768123E-01 0.12500257E+03</pdfrwt>
<totfact> 0.94631454E+03</totfact>
</mgrwt>
</event>
<event>
 5    1  0.3209683E-002  0.1249997E+03  0.7818608E-02  0.1235070E+00
          4   -1    0    0  501    0  0.00000000000E+00  0.00000000000E+00  0.18840524801E+03  0.18840952836E+03  0.12700000000E+01 0. -1.
         -4   -1    0    0    0  501 -0.00000000000E+00 -0.00000000000E+00 -0.20709169904E+02  0.20748075046E+02  0.12700000000E+01 0. -1.
         25    2    1    2    0    0  0.00000000000E+00  0.00000000000E+00  0.16769607810E+03  0.20915760341E+03  0.12499971380E+03 0.  0.
    9000005    1    3    3    0    0 -0.64401904033E+01  0.53949001377E+02  0.13550996847E+03  0.14599973410E+03  0.10000000000E+01 0.  0.
    9000005    1    3    3    0    0  0.64401904033E+01 -0.53949001377E+02  0.32186109634E+02  0.63157869307E+02  0.10000000000E+01 0.  0.
<mgrwt>
<rscale>  0 0.12499971E+03</rscale>
<asrwt>0</asrwt>
<pdfrwt beam="1">  1        4 0.28988745E-01 0.12499971E+03</pdfrwt>
<pdfrwt beam="2">  1       -4 0.31893481E-02 0.12499971E+03</pdfrwt>
<totfact> 0.88614207E+03</totfact>
</mgrwt>
</event>
<event>
 5    1  0.3209683E-002  0.1250159E+03  0.7818608E-02  0.1235044E+00
          4   -1    0    0  501    0  0.00000000000E+00  0.00000000000E+00  0.54469628179E+02  0.54484431666E+02  0.12700000000E+01 0. -1.
         -4   -1    0    0    0  501 -0.00000000000E+00 -0.00000000000E+00 -0.71702329953E+02  0.71713576265E+02  0.12700000000E+01 0. -1.
         25    2    1    2    0    0  0.00000000000E+00  0.00000000000E+00 -0.17232701774E+02  0.12619800793E+03  0.12501588377E+03 0.  0.
    9000005    1    3    3    0    0 -0.58283054278E+02  0.20007935691E+02  0.19232035469E+01  0.61659797425E+02  0.10000000000E+01 0.  0.
    9000005    1    3    3    0    0  0.58283054278E+02 -0.20007935691E+02 -0.19155905321E+02  0.64538210506E+02  0.10000000000E+01 0.  0.
<mgrwt>
<rscale>  0 0.12501588E+03</rscale>
<asrwt>0</asrwt>
<pdfrwt beam="1">  1        4 0.83819466E-02 0.12501588E+03</pdfrwt>
<pdfrwt beam="2">  1       -4 0.11033131E-01 0.12501588E+03</pdfrwt>
<totfact> 0.10422886E+04</totfact>
</mgrwt>
</event>
<event>
 5    1  0.3209683E-002  0.1250004E+03  0.7818608E-02  0.1235069E+00
         -4   -1    0    0    0  501 -0.00000000000E+00  0.00000000000E+00  0.24493440849E+03  0.24493770098E+03  0.12700000000E+01 0. -1.
          4   -1    0    0  501    0  0.00000000000E+00 -0.00000000000E+00 -0.15919549557E+02  0.15970127053E+02  0.12700000000E+01 0. -1.
         25    2    1    2    0    0  0.00000000000E+00  0.00000000000E+00  0.22901485893E+03  0.26090782803E+03  0.12500035647E+03 0.  0.
    9000005    1    3    3    0    0 -0.66073624188E+01  0.10552100523E+02 -0.13314986699E+02  0.18256312179E+02  0.10000000000E+01 0.  0.
    9000005    1    3    3    0    0  0.66073624188E+01 -0.10552100523E+02  0.24232984563E+03  0.24265151586E+03  0.10000000000E+01 0.  0.
<mgrwt>
<rscale>  0 0.12500036E+03</rscale>
<asrwt>0</asrwt>
<pdfrwt beam="2">  1        4 0.24533054E-02 0.12500036E+03</pdfrwt>
<pdfrwt beam="1">  1       -4 0.37686359E-01 0.12500036E+03</pdfrwt>
<totfact> 0.80778188E+03</totfact>
</mgrwt>
</event>
<event>
 5    1  0.3209683E-002  0.1249983E+03  0.7818608E-02  0.1235072E+00
         -4   -1    0    0    0  501 -0.00000000000E+00  0.00000000000E+00  0.33142726261E+03  0.33142969586E+03  0.12700000000E+01 0.  1.
          4   -1    0    0  501    0  0.00000000000E+00 -0.00000000000E+00 -0.11749136845E+02  0.11817576596E+02  0.12700000000E+01 0.  1.
         25    2    1    2    0    0  0.00000000000E+00  0.00000000000E+00  0.31967812576E+03  0.34324727246E+03  0.12499834382E+03 0.  0.
    9000005    1    3    3    0    0 -0.33325494485E+02 -0.25133334584E+02  0.32130979893E+02  0.52684655820E+02  0.10000000000E+01 0.  0.
    9000005    1    3    3    0    0  0.33325494485E+02  0.25133334584E+02  0.28754714587E+03  0.29056261664E+03  0.10000000000E+01 0.  0.
<mgrwt>
<rscale>  0 0.12499834E+03</rscale>
<asrwt>0</asrwt>
<pdfrwt beam="2">  1        4 0.18130113E-02 0.12499834E+03</pdfrwt>
<pdfrwt beam="1">  1       -4 0.50994260E-01 0.12499834E+03</pdfrwt>
<totfact> 0.70476466E+03</totfact>
</mgrwt>
</event>
<event>
 5    1  0.3209683E-002  0.1250009E+03  0.7818608E-02  0.1235068E+00
          4   -1    0    0  501    0  0.00000000000E+00  0.00000000000E+00  0.23438294988E+02  0.23472677136E+02  0.12700000000E+01 0. -1.
         -4   -1    0    0    0  501 -0.00000000000E+00 -0.00000000000E+00 -0.16650450279E+03  0.16650934614E+03  0.12700000000E+01 0. -1.
         25    2    1    2    0    0  0.00000000000E+00  0.00000000000E+00 -0.14306620781E+03  0.18998202327E+03  0.12500091740E+03 0.  0.
    9000005    1    3    3    0    0  0.30754236299E+02  0.54154735386E+02 -0.63672562593E+02  0.89071620858E+02  0.10000000000E+01 0.  0.
    9000005    1    3    3    0    0 -0.30754236299E+02 -0.54154735386E+02 -0.79393645212E+02  0.10091040241E+03  0.10000000000E+01 0.  0.
<mgrwt>
<rscale>  0 0.12500092E+03</rscale>
<asrwt>0</asrwt>
<pdfrwt beam="1">  1        4 0.36089090E-02 0.12500092E+03</pdfrwt>
<pdfrwt beam="2">  1       -4 0.25619094E-01 0.12500092E+03</pdfrwt>
<totfact> 0.91848555E+03</totfact>
</mgrwt>
</event>
<event>
 5    1  0.3209683E-002  0.1250002E+03  0.7818608E-02  0.1235069E+00
         -4   -1    0    0    0  501 -0.00000000000E+00  0.00000000000E+00  0.99489172905E+02  0.99497278482E+02  0.12700000000E+01 0. -1.
          4   -1    0    0  501    0  0.00000000000E+00 -0.00000000000E+00 -0.39243221744E+02  0.39263766412E+02  0.12700000000E+01 0. -1.
         25    2    1    2    0    0  0.00000000000E+00  0.00000000000E+00  0.60245951161E+02  0.13876104489E+03  0.12500021180E+03 0.  0.
    9000005    1    3    3    0    0 -0.34926954363E+02 -0.46657885923E+02  0.55153217144E+02  0.80247914747E+02  0.10000000000E+01 0.  0.
    9000005    1    3    3    0    0  0.34926954363E+02  0.46657885923E+02  0.50927340171E+01  0.58513130147E+02  0.10000000000E+01 0.  0.
<mgrwt>
<rscale>  0 0.12500021E+03</rscale>
<asrwt>0</asrwt>
<pdfrwt beam="2">  1        4 0.60396226E-02 0.12500021E+03</pdfrwt>
<pdfrwt beam="1">  1       -4 0.15308230E-01 0.12500021E+03</pdfrwt>
<totfact> 0.10159280E+04</totfact>
</mgrwt>
</event>
<event>
 5    1  0.3209683E-002  0.1249986E+03  0.7818608E-02  0.1235071E+00
          4   -1    0    0  501    0  0.00000000000E+00  0.00000000000E+00  0.59256442761E+02  0.59270050689E+02  0.12700000000E+01 0.  1.
         -4   -1    0    0    0  501 -0.00000000000E+00 -0.00000000000E+00 -0.65892371454E+02  0.65904609215E+02  0.12700000000E+01 0.  1.
         25    2    1    2    0    0  0.00000000000E+00  0.00000000000E+00 -0.66359286935E+01  0.12517465990E+03  0.12499863972E+03 0.  0.
    9000005    1    3    3    0    0 -0.58017610819E+02  0.21328562748E+02 -0.12507718053E+02  0.63074509629E+02  0.10000000000E+01 0.  0.
    9000005    1    3    3    0    0  0.58017610819E+02 -0.21328562748E+02  0.58717893597E+01  0.62100150276E+02  0.10000000000E+01 0.  0.
<mgrwt>
<rscale>  0 0.12499864E+03</rscale>
<asrwt>0</asrwt>
<pdfrwt beam="1">  1        4 0.91183639E-02 0.12499864E+03</pdfrwt>
<pdfrwt beam="2">  1       -4 0.10139276E-01 0.12499864E+03</pdfrwt>
<totfact> 0.10449391E+04</totfact>
</mgrwt>
</event>
<event>
 5    1  0.3209683E-002  0.1249970E+03  0.7818608E-02  0.1235074E+00
          4   -1    0    0  501    0  0.00000000000E+00  0.00000000000E+00  0.30157047537E+01  0.32722125789E+01  0.12700000000E+01 0.  1.
         -4   -1    0    0    0  501 -0.00000000000E+00 -0.00000000000E+00 -0.12421453059E+04  0.12421459552E+04  0.12700000000E+01 0.  1.
         25    2    1    2    0    0  0.00000000000E+00  0.00000000000E+00 -0.12391296012E+04  0.12454181677E+04  0.12499697615E+03 0.  0.
    9000005    1    3    3    0    0 -0.34254970032E+02  0.47199050176E+02 -0.39590332379E+03  0.40017695473E+03  0.10000000000E+01 0.  0.
    9000005    1    3    3    0    0  0.34254970032E+02 -0.47199050176E+02 -0.84322627738E+03  0.84524121301E+03  0.10000000000E+01 0.  0.
<mgrwt>
<rscale>  0 0.12499698E+03</rscale>
<asrwt>0</asrwt>
<pdfrwt beam="1">  1        4 0.48373688E-03 0.12499698E+03</pdfrwt>
<pdfrwt beam="2">  1       -4 0.19111867E+00 0.12499698E+03</pdfrwt>
<totfact> 0.23555517E+03</totfact>
</mgrwt>
</event>
<event>
 5    1  0.3209683E-002  0.1250004E+03  0.7818608E-02  0.1235069E+00
          4   -1    0    0  501    0  0.00000000000E+00  0.00000000000E+00  0.45914142593E+02  0.45931703540E+02  0.12700000000E+01 0.  1.
         -4   -1    0    0    0  501 -0.00000000000E+00 -0.00000000000E+00 -0.85039188759E+02  0.85048671505E+02  0.12700000000E+01 0.  1.
         25    2    1    2    0    0  0.00000000000E+00  0.00000000000E+00 -0.39125046166E+02  0.13098037505E+03  0.12500035764E+03 0.  0.
    9000005    1    3    3    0    0 -0.23432430835E+02 -0.54882692362E+02 -0.38999421784E+02  0.71296168447E+02  0.10000000000E+01 0.  0.
    9000005    1    3    3    0    0  0.23432430835E+02  0.54882692362E+02 -0.12562438235E+00  0.59684206598E+02  0.10000000000E+01 0.  0.
<mgrwt>
<rscale>  0 0.12500036E+03</rscale>
<asrwt>0</asrwt>
<pdfrwt beam="1">  1        4 0.70657945E-02 0.12500036E+03</pdfrwt>
<pdfrwt beam="2">  1       -4 0.13085032E-01 0.12500036E+03</pdfrwt>
<totfact> 0.10323427E+04</totfact>
</mgrwt>
</event>
<event>
 5    1  0.3209683E-002  0.1250018E+03  0.7818608E-02  0.1235066E+00
         -4   -1    0    0    0  501 -0.00000000000E+00  0.00000000000E+00  0.20221394118E+02  0.20261235897E+02  0.12700000000E+01 0.  1.
          4   -1    0    0  501    0  0.00000000000E+00 -0.00000000000E+00 -0.19294764667E+03  0.19295182625E+03  0.12700000000E+01 0.  1.
         25    2    1    2    0    0  0.00000000000E+00  0.00000000000E+00 -0.17272625255E+03  0.21321306215E+03  0.12500180620E+03 0.  0.
    9000005    1    3    3    0    0  0.27578443968E+02  0.10480761065E+02 -0.18032961542E+03  0.18272982001E+03  0.10000000000E+01 0.  0.
    9000005    1    3    3    0    0 -0.27578443968E+02 -0.10480761065E+02  0.76033628724E+01  0.30483242137E+02  0.10000000000E+01 0.  0.
<mgrwt>
<rscale>  0 0.12500181E+03</rscale>
<asrwt>0</asrwt>
<pdfrwt beam="2">  1        4 0.29687638E-01 0.12500181E+03</pdfrwt>
<pdfrwt beam="1">  1       -4 0.31143701E-02 0.12500181E+03</pdfrwt>
<totfact> 0.87950270E+03</totfact>
</mgrwt>
</event>
<event>
 5    1  0.3209683E-002  0.1250033E+03  0.7818608E-02  0.1235064E+00
          4   -1    0    0  501    0  0.00000000000E+00  0.00000000000E+00  0.60653415506E+02  0.60666710085E+02  0.12700000000E+01 0.  1.
         -4   -1    0    0    0  501 -0.00000000000E+00 -0.00000000000E+00 -0.64379574347E+02  0.64392099618E+02  0.12700000000E+01 0.  1.
         25    2    1    2    0    0  0.00000000000E+00  0.00000000000E+00 -0.37261588417E+01  0.12505880970E+03  0.12500328645E+03 0.  0.
    9000005    1    3    3    0    0  0.35319464445E+02  0.50756374907E+02  0.71842356563E+01  0.62259837812E+02  0.10000000000E+01 0.  0.
    9000005    1    3    3    0    0 -0.35319464445E+02 -0.50756374907E+02 -0.10910394498E+02  0.62798971890E+02  0.10000000000E+01 0.  0.
<mgrwt>
<rscale>  0 0.12500329E+03</rscale>
<asrwt>0</asrwt>
<pdfrwt beam="1">  1        4 0.93332808E-02 0.12500329E+03</pdfrwt>
<pdfrwt beam="2">  1       -4 0.99065361E-02 0.12500329E+03</pdfrwt>
<totfact> 0.10450809E+04</totfact>
</mgrwt>
</event>
<event>
 5    1  0.3209683E-002  0.1250065E+03  0.7818608E-02  0.1235059E+00
         -4   -1    0    0    0  501 -0.00000000000E+00  0.00000000000E+00  0.50979512627E+02  0.50995329274E+02  0.12700000000E+01 0. -1.
          4   -1    0    0  501    0  0.00000000000E+00 -0.00000000000E+00 -0.76598959359E+02  0.76609486846E+02  0.12700000000E+01 0. -1.
         25    2    1    2    0    0  0.00000000000E+00  0.00000000000E+00 -0.25619446731E+02  0.12760481612E+03  0.12500653201E+03 0.  0.
    9000005    1    3    3    0    0 -0.29710520301E+02 -0.52112292306E+02  0.50832240193E+01  0.60210009071E+02  0.10000000000E+01 0.  0.
    9000005    1    3    3    0    0  0.29710520301E+02  0.52112292306E+02 -0.30702670750E+02  0.67394807049E+02  0.10000000000E+01 0.  0.
<mgrwt>
<rscale>  0 0.12500653E+03</rscale>
<asrwt>0</asrwt>
<pdfrwt beam="2">  1        4 0.11786482E-01 0.12500653E+03</pdfrwt>
<pdfrwt beam="1">  1       -4 0.78450285E-02 0.12500653E+03</pdfrwt>
<totfact> 0.10394498E+04</totfact>
</mgrwt>
</event>
<event>
 5    1  0.3209683E-002  0.1250019E+03  0.7818608E-02  0.1235066E+00
         -4   -1    0    0    0  501 -0.00000000000E+00  0.00000000000E+00  0.10481341119E+02  0.10558002256E+02  0.12700000000E+01 0. -1.
          4   -1    0    0  501    0  0.00000000000E+00 -0.00000000000E+00 -0.37126194909E+03  0.37126412127E+03  0.12700000000E+01 0. -1.
         25    2    1    2    0    0  0.00000000000E+00  0.00000000000E+00 -0.36078060797E+03  0.38182212353E+03  0.12500194769E+03 0.  0.
    9000005    1    3    3    0    0  0.78166997052E+01  0.12799900228E+02 -0.36569814482E+03  0.36600692802E+03  0.10000000000E+01 0.  0.
    9000005    1    3    3    0    0 -0.78166997052E+01 -0.12799900228E+02  0.49175368443E+01  0.15815195501E+02  0.10000000000E+01 0.  0.
<mgrwt>
<rscale>  0 0.12500195E+03</rscale>
<asrwt>0</asrwt>
<pdfrwt beam="2">  1        4 0.57123277E-01 0.12500195E+03</pdfrwt>
<pdfrwt beam="1">  1       -4 0.16185784E-02 0.12500195E+03</pdfrwt>
<totfact> 0.66357142E+03</totfact>
</mgrwt>
</event>
<event>
 5    1  0.3209683E-002  0.1250003E+03  0.7818608E-02  0.1235069E+00
         -4   -1    0    0    0  501 -0.00000000000E+00  0.00000000000E+00  0.89752092454E+01  0.90646169802E+01  0.12700000000E+01 0. -1.
          4   -1    0    0  501    0  0.00000000000E+00 -0.00000000000E+00 -0.43298100355E+03  0.43298286610E+03  0.12700000000E+01 0. -1.
         25    2    1    2    0    0  0.00000000000E+00  0.00000000000E+00 -0.42400579430E+03  0.44204748308E+03  0.12500025477E+03 0.  0.
    9000005    1    3    3    0    0 -0.61169063425E+02 -0.12388143546E+02 -0.22326695315E+03  0.23182806730E+03  0.10000000000E+01 0.  0.
    9000005    1    3    3    0    0  0.61169063425E+02  0.12388143546E+02 -0.20073884116E+03  0.21021941578E+03  0.10000000000E+01 0.  0.
<mgrwt>
<rscale>  0 0.12500025E+03</rscale>
<asrwt>0</asrwt>
<pdfrwt beam="2">  1        4 0.66619467E-01 0.12500025E+03</pdfrwt>
<pdfrwt beam="1">  1       -4 0.13878226E-02 0.12500025E+03</pdfrwt>
<totfact> 0.60658604E+03</totfact>
</mgrwt>
</event>
<event>
 5    1  0.3209683E-002  0.1249880E+03  0.7818608E-02  0.1235088E+00
          4   -1    0    0  501    0  0.00000000000E+00  0.00000000000E+00  0.17912430175E+04  0.17912434677E+04  0.12700000000E+01 0.  1.
         -4   -1    0    0    0  501 -0.00000000000E+00 -0.00000000000E+00 -0.19949022455E+01  0.23648541116E+01  0.12700000000E+01 0.  1.
         25    2    1    2    0    0  0.00000000000E+00  0.00000000000E+00  0.17892481153E+04  0.17936083219E+04  0.12498797620E+03 0.  0.
    9000005    1    3    3    0    0  0.44065496703E+02 -0.32254277063E+02  0.13304541123E+04  0.13315747262E+04  0.10000000000E+01 0.  0.
    9000005    1    3    3    0    0 -0.44065496703E+02  0.32254277063E+02  0.45879400295E+03  0.46203359567E+03  0.10000000000E+01 0.  0.
<mgrwt>
<rscale>  0 0.12498798E+03</rscale>
<asrwt>0</asrwt>
<pdfrwt beam="1">  1        4 0.27560583E+00 0.12498798E+03</pdfrwt>
<pdfrwt beam="2">  1       -4 0.33539870E-03 0.12498798E+03</pdfrwt>
<totfact> 0.12805445E+03</totfact>
</mgrwt>
</event>
<event>
 5    1  0.3209683E-002  0.1250025E+03  0.7818608E-02  0.1235065E+00
         -4   -1    0    0    0  501 -0.00000000000E+00  0.00000000000E+00  0.29412715280E+02  0.29440120926E+02  0.12700000000E+01 0. -1.
          4   -1    0    0  501    0  0.00000000000E+00 -0.00000000000E+00 -0.13272117613E+03  0.13272725226E+03  0.12700000000E+01 0. -1.
         25    2    1    2    0    0  0.00000000000E+00  0.00000000000E+00 -0.10330846085E+03  0.16216737319E+03  0.12500247535E+03 0.  0.
    9000005    1    3    3    0    0 -0.37036674557E+02 -0.49266573209E+02 -0.38266471815E+02  0.72555036787E+02  0.10000000000E+01 0.  0.
    9000005    1    3    3    0    0  0.37036674557E+02  0.49266573209E+02 -0.65041989036E+02  0.89612336403E+02  0.10000000000E+01 0.  0.
<mgrwt>
<rscale>  0 0.12500248E+03</rscale>
<asrwt>0</asrwt>
<pdfrwt beam="2">  1        4 0.20421218E-01 0.12500248E+03</pdfrwt>
<pdfrwt beam="1">  1       -4 0.45276087E-02 0.12500248E+03</pdfrwt>
<totfact> 0.96921161E+03</totfact>
</mgrwt>
</event>
<event>
 5    1  0.3209683E-002  0.1250067E+03  0.7818608E-02  0.1235059E+00
          4   -1    0    0  501    0  0.00000000000E+00  0.00000000000E+00  0.25135660634E+02  0.25167724083E+02  0.12700000000E+01 0.  1.
         -4   -1    0    0    0  501 -0.00000000000E+00 -0.00000000000E+00 -0.15528961590E+03  0.15529480901E+03  0.12700000000E+01 0.  1.
         25    2    1    2    0    0  0.00000000000E+00  0.00000000000E+00 -0.13015395526E+03  0.18046253309E+03  0.12500669494E+03 0.  0.
    9000005    1    3    3    0    0  0.11060187307E+02  0.21242117921E+02  0.18255375381E+02  0.30129952661E+02  0.10000000000E+01 0.  0.
    9000005    1    3    3    0    0 -0.11060187307E+02 -0.21242117921E+02 -0.14840933064E+03  0.15033258043E+03  0.10000000000E+01 0.  0.
<mgrwt>
<rscale>  0 0.12500669E+03</rscale>
<asrwt>0</asrwt>
<pdfrwt beam="1">  1        4 0.38698907E-02 0.12500669E+03</pdfrwt>
<pdfrwt beam="2">  1       -4 0.23893575E-01 0.12500669E+03</pdfrwt>
<totfact> 0.93519774E+03</totfact>
</mgrwt>
</event>
<event>
 5    1  0.3209683E-002  0.1250167E+03  0.7818608E-02  0.1235043E+00
          4   -1    0    0  501    0  0.00000000000E+00  0.00000000000E+00  0.47319365774E+03  0.47319536200E+03  0.12700000000E+01 0.  1.
         -4   -1    0    0    0  501 -0.00000000000E+00 -0.00000000000E+00 -0.82067163308E+01  0.83044020214E+01  0.12700000000E+01 0.  1.
         25    2    1    2    0    0  0.00000000000E+00  0.00000000000E+00  0.46498694141E+03  0.48149976403E+03  0.12501666720E+03 0.  0.
    9000005    1    3    3    0    0 -0.14691034275E+02  0.46916337005E+02  0.38112897198E+03  0.38428799415E+03  0.10000000000E+01 0.  0.
    9000005    1    3    3    0    0  0.14691034275E+02 -0.46916337005E+02  0.83857969431E+02  0.97211769880E+02  0.10000000000E+01 0.  0.
<mgrwt>
<rscale>  0 0.12501667E+03</rscale>
<asrwt>0</asrwt>
<pdfrwt beam="1">  1        4 0.72806662E-01 0.12501667E+03</pdfrwt>
<pdfrwt beam="2">  1       -4 0.12702173E-02 0.12501667E+03</pdfrwt>
<totfact> 0.57307865E+03</totfact>
</mgrwt>
</event>
<event>
 5    1  0.3209683E-002  0.1249991E+03  0.7818608E-02  0.1235071E+00
          4   -1    0    0  501    0  0.00000000000E+00  0.00000000000E+00  0.39653410870E+03  0.39653614244E+03  0.12700000000E+01 0.  1.
         -4   -1    0    0    0  501 -0.00000000000E+00 -0.00000000000E+00 -0.98078446820E+01  0.98897278681E+01  0.12700000000E+01 0.  1.
         25    2    1    2    0    0  0.00000000000E+00  0.00000000000E+00  0.38672626402E+03  0.40642587031E+03  0.12499913910E+03 0.  0.
    9000005    1    3    3    0    0  0.37759451694E+02  0.32294882499E+02  0.31659447360E+03  0.32047120985E+03  0.10000000000E+01 0.  0.
    9000005    1    3    3    0    0 -0.37759451694E+02 -0.32294882499E+02  0.70131790419E+02  0.85954660462E+02  0.10000000000E+01 0.  0.
<mgrwt>
<rscale>  0 0.12499914E+03</rscale>
<asrwt>0</asrwt>
<pdfrwt beam="1">  1        4 0.61011713E-01 0.12499914E+03</pdfrwt>
<pdfrwt beam="2">  1       -4 0.15153541E-02 0.12499914E+03</pdfrwt>
<totfact> 0.63933785E+03</totfact>
</mgrwt>
</event>
<event>
 5    1  0.3209683E-002  0.1250017E+03  0.7818608E-02  0.1235067E+00
         -4   -1    0    0    0  501 -0.00000000000E+00  0.00000000000E+00  0.33371859396E+03  0.33372101051E+03  0.12700000000E+01 0.  1.
          4   -1    0    0  501    0  0.00000000000E+00 -0.00000000000E+00 -0.11668634795E+02  0.11737543950E+02  0.12700000000E+01 0.  1.
         25    2    1    2    0    0  0.00000000000E+00  0.00000000000E+00  0.32204995916E+03  0.34545855446E+03  0.12500174659E+03 0.  0.
    9000005    1    3    3    0    0 -0.50485420485E+02  0.26539376868E+02  0.23160545333E+03  0.23852715195E+03  0.10000000000E+01 0.  0.
    9000005    1    3    3    0    0  0.50485420485E+02 -0.26539376868E+02  0.90444505835E+02  0.10693140251E+03  0.10000000000E+01 0.  0.
<mgrwt>
<rscale>  0 0.12500175E+03</rscale>
<asrwt>0</asrwt>
<pdfrwt beam="2">  1        4 0.18006611E-02 0.12500175E+03</pdfrwt>
<pdfrwt beam="1">  1       -4 0.51346810E-01 0.12500175E+03</pdfrwt>
<totfact> 0.70224359E+03</totfact>
</mgrwt>
</event>
<event>
 5    1  0.3209683E-002  0.1250020E+03  0.7818608E-02  0.1235066E+00
          4   -1    0    0  501    0  0.00000000000E+00  0.00000000000E+00  0.19849317318E+04  0.19849321381E+04  0.12700000000E+01 0.  1.
         -4   -1    0    0    0  501 -0.00000000000E+00 -0.00000000000E+00 -0.17626780397E+01  0.21725408792E+01  0.12700000000E+01 0.  1.
         25    2    1    2    0    0  0.00000000000E+00  0.00000000000E+00  0.19831690537E+04  0.19871046790E+04  0.12500203747E+03 0.  0.
    9000005    1    3    3    0    0 -0.55530959362E+02 -0.41738792596E+01  0.54076344359E+03  0.54362414464E+03  0.10000000000E+01 0.  0.
    9000005    1    3    3    0    0  0.55530959362E+02  0.41738792596E+01  0.14424056102E+04  0.14434805343E+04  0.10000000000E+01 0.  0.
<mgrwt>
<rscale>  0 0.12500204E+03</rscale>
<asrwt>0</asrwt>
<pdfrwt beam="1">  1        4 0.30540500E+00 0.12500204E+03</pdfrwt>
<pdfrwt beam="2">  1       -4 0.30274106E-03 0.12500204E+03</pdfrwt>
<totfact> 0.10030100E+03</totfact>
</mgrwt>
</event>
<event>
 5    1  0.3209683E-002  0.1250015E+03  0.7818608E-02  0.1235067E+00
         -4   -1    0    0    0  501 -0.00000000000E+00  0.00000000000E+00  0.60576808224E+02  0.60590119612E+02  0.12700000000E+01 0.  1.
          4   -1    0    0  501    0  0.00000000000E+00 -0.00000000000E+00 -0.64459160505E+02  0.64471670314E+02  0.12700000000E+01 0.  1.
         25    2    1    2    0    0  0.00000000000E+00  0.00000000000E+00 -0.38823522810E+01  0.12506178993E+03  0.12500151455E+03 0.  0.
    9000005    1    3    3    0    0  0.34967612250E+02 -0.48427201442E+02 -0.20318945198E+02  0.63101404738E+02  0.10000000000E+01 0.  0.
    9000005    1    3    3    0    0 -0.34967612250E+02  0.48427201442E+02  0.16436592917E+02  0.61960385188E+02  0.10000000000E+01 0.  0.
<mgrwt>
<rscale>  0 0.12500151E+03</rscale>
<asrwt>0</asrwt>
<pdfrwt beam="2">  1        4 0.99187802E-02 0.12500151E+03</pdfrwt>
<pdfrwt beam="1">  1       -4 0.93214951E-02 0.12500151E+03</pdfrwt>
<totfact> 0.10451163E+04</totfact>
</mgrwt>
</event>
<event>
 5    1  0.3209683E-002  0.1250028E+03  0.7818608E-02  0.1235065E+00
         -4   -1    0    0    0  501 -0.00000000000E+00  0.00000000000E+00  0.46214749601E+02  0.46232196364E+02  0.12700000000E+01 0. -1.
          4   -1    0    0  501    0  0.00000000000E+00 -0.00000000000E+00 -0.84489511914E+02  0.84499056347E+02  0.12700000000E+01 0. -1.
         25    2    1    2    0    0  0.00000000000E+00  0.00000000000E+00 -0.38274762313E+02  0.13073125271E+03  0.12500281199E+03 0.  0.
    9000005    1    3    3    0    0  0.45138805209E+02 -0.26003852008E+02 -0.55240573521E+02  0.75935716352E+02  0.10000000000E+01 0.  0.
    9000005    1    3    3    0    0 -0.45138805209E+02  0.26003852008E+02  0.16965811208E+02  0.54795536359E+02  0.10000000000E+01 0.  0.
<mgrwt>
<rscale>  0 0.12500281E+03</rscale>
<asrwt>0</asrwt>
<pdfrwt beam="2">  1        4 0.13000463E-01 0.12500281E+03</pdfrwt>
<pdfrwt beam="1">  1       -4 0.71120377E-02 0.12500281E+03</pdfrwt>
<totfact> 0.10328199E+04</totfact>
</mgrwt>
</event>
<event>
 5    1  0.3209683E-002  0.1250033E+03  0.7818608E-02  0.1235064E+00
         -4   -1    0    0    0  501 -0.00000000000E+00  0.00000000000E+00  0.98344603548E+03  0.98344685551E+03  0.12700000000E+01 0. -1.
          4   -1    0    0  501    0  0.00000000000E+00 -0.00000000000E+00 -0.38698605621E+01  0.40729253333E+01  0.12700000000E+01 0. -1.
         25    2    1    2    0    0  0.00000000000E+00  0.00000000000E+00  0.97957617492E+03  0.98751978084E+03  0.12500334027E+03 0.  0.
    9000005    1    3    3    0    0 -0.38835039932E+02 -0.10786107306E+02  0.11249151365E+03  0.11949828902E+03  0.10000000000E+01 0.  0.
    9000005    1    3    3    0    0  0.38835039932E+02  0.10786107306E+02  0.86708466128E+03  0.86802149182E+03  0.10000000000E+01 0.  0.
<mgrwt>
<rscale>  0 0.12500334E+03</rscale>
<asrwt>0</asrwt>
<pdfrwt beam="2">  1        4 0.61104703E-03 0.12500334E+03</pdfrwt>
<pdfrwt beam="1">  1       -4 0.15131497E+00 0.12500334E+03</pdfrwt>
<totfact> 0.31017934E+03</totfact>
</mgrwt>
</event>
<event>
 5    1  0.3209683E-002  0.1249847E+03  0.7818608E-02  0.1235093E+00
         -4   -1    0    0    0  501 -0.00000000000E+00  0.00000000000E+00  0.73365931116E+01  0.74457033573E+01  0.12700000000E+01 0. -1.
          4   -1    0    0  501    0  0.00000000000E+00 -0.00000000000E+00 -0.52826452951E+03  0.52826605612E+03  0.12700000000E+01 0. -1.
         25    2    1    2    0    0  0.00000000000E+00  0.00000000000E+00 -0.52092793640E+03  0.53571175947E+03  0.12498469631E+03 0.  0.
    9000005    1    3    3    0    0  0.15641046697E+02  0.56045649437E+02 -0.16286078744E+03  0.17294621490E+03  0.10000000000E+01 0.  0.
    9000005    1    3    3    0    0 -0.15641046697E+02 -0.56045649437E+02 -0.35806714896E+03  0.36276554457E+03  0.10000000000E+01 0.  0.
<mgrwt>
<rscale>  0 0.12498470E+03</rscale>
<asrwt>0</asrwt>
<pdfrwt beam="2">  1        4 0.81279947E-01 0.12498470E+03</pdfrwt>
<pdfrwt beam="1">  1       -4 0.11372176E-02 0.12498470E+03</pdfrwt>
<totfact> 0.53214162E+03</totfact>
</mgrwt>
</event>
<event>
 5    1  0.3209683E-002  0.1250002E+03  0.7818608E-02  0.1235069E+00
          4   -1    0    0  501    0  0.00000000000E+00  0.00000000000E+00  0.14189662850E+02  0.14246383113E+02  0.12700000000E+01 0. -1.
         -4   -1    0    0    0  501 -0.00000000000E+00 -0.00000000000E+00 -0.27468215946E+03  0.27468509538E+03  0.12700000000E+01 0. -1.
         25    2    1    2    0    0  0.00000000000E+00  0.00000000000E+00 -0.26049249661E+03  0.28893147849E+03  0.12500023390E+03 0.  0.
    9000005    1    3    3    0    0  0.58326282718E+02  0.22064351615E+02 -0.13962792110E+03  0.15292399163E+03  0.10000000000E+01 0.  0.
    9000005    1    3    3    0    0 -0.58326282718E+02 -0.22064351615E+02 -0.12086457551E+03  0.13600748686E+03  0.10000000000E+01 0.  0.
<mgrwt>
<rscale>  0 0.12500023E+03</rscale>
<asrwt>0</asrwt>
<pdfrwt beam="1">  1        4 0.21876142E-02 0.12500023E+03</pdfrwt>
<pdfrwt beam="2">  1       -4 0.42263379E-01 0.12500023E+03</pdfrwt>
<totfact> 0.77008168E+03</totfact>
</mgrwt>
</event>
<event>
 5    1  0.3209683E-002  0.1250014E+03  0.7818608E-02  0.1235067E+00
          4   -1    0    0  501    0  0.00000000000E+00  0.00000000000E+00  0.16202661102E+02  0.16252357577E+02  0.12700000000E+01 0. -1.
         -4   -1    0    0    0  501 -0.00000000000E+00 -0.00000000000E+00 -0.24067197112E+03  0.24067532193E+03  0.12700000000E+01 0. -1.
         25    2    1    2    0    0  0.00000000000E+00  0.00000000000E+00 -0.22446931002E+03  0.25692767950E+03  0.12500144541E+03 0.  0.
    9000005    1    3    3    0    0 -0.48721127569E+02 -0.19295504725E+02 -0.42252195670E+02  0.67322454004E+02  0.10000000000E+01 0.  0.
    9000005    1    3    3    0    0  0.48721127569E+02  0.19295504725E+02 -0.18221711435E+03  0.18960522550E+03  0.10000000000E+01 0.  0.
<mgrwt>
<rscale>  0 0.12500145E+03</rscale>
<asrwt>0</asrwt>
<pdfrwt beam="1">  1        4 0.24967978E-02 0.12500145E+03</pdfrwt>
<pdfrwt beam="2">  1       -4 0.37030535E-01 0.12500145E+03</pdfrwt>
<totfact> 0.81336543E+03</totfact>
</mgrwt>
</event>
<event>
 5    1  0.3209683E-002  0.1249985E+03  0.7818608E-02  0.1235072E+00
          4   -1    0    0  501    0  0.00000000000E+00  0.00000000000E+00  0.37316468876E+02  0.37338073723E+02  0.12700000000E+01 0. -1.
         -4   -1    0    0    0  501 -0.00000000000E+00 -0.00000000000E+00 -0.10462064191E+03  0.10462834995E+03  0.12700000000E+01 0. -1.
         25    2    1    2    0    0  0.00000000000E+00  0.00000000000E+00 -0.67304173032E+02  0.14196642367E+03  0.12499845496E+03 0.  0.
    9000005    1    3    3    0    0 -0.39767822631E+02 -0.35731641528E+01  0.20945338122E+02  0.45099383676E+02  0.10000000000E+01 0.  0.
    9000005    1    3    3    0    0  0.39767822631E+02  0.35731641528E+01 -0.88249511155E+02  0.96867039998E+02  0.10000000000E+01 0.  0.
<mgrwt>
<rscale>  0 0.12499845E+03</rscale>
<asrwt>0</asrwt>
<pdfrwt beam="1">  1        4 0.57432501E-02 0.12499845E+03</pdfrwt>
<pdfrwt beam="2">  1       -4 0.16097738E-01 0.12499845E+03</pdfrwt>
<totfact> 0.10093343E+04</totfact>
</mgrwt>
</event>
<event>
 5    1  0.3209683E-002  0.1250018E+03  0.7818608E-02  0.1235066E+00
         -4   -1    0    0    0  501 -0.00000000000E+00  0.00000000000E+00  0.11435380272E+03  0.11436085474E+03  0.12700000000E+01 0.  1.
          4   -1    0    0  501    0  0.00000000000E+00 -0.00000000000E+00 -0.34140414272E+02  0.34164027671E+02  0.12700000000E+01 0.  1.
         25    2    1    2    0    0  0.00000000000E+00  0.00000000000E+00  0.80213388449E+02  0.14852488241E+03  0.12500181202E+03 0.  0.
    9000005    1    3    3    0    0 -0.42019669698E+02  0.44710570558E+02  0.54199326780E+02  0.81873407066E+02  0.10000000000E+01 0.  0.
    9000005    1    3    3    0    0  0.42019669698E+02 -0.44710570558E+02  0.26014061668E+02  0.66651475345E+02  0.10000000000E+01 0.  0.
<mgrwt>
<rscale>  0 0.12500181E+03</rscale>
<asrwt>0</asrwt>
<pdfrwt beam="2">  1        4 0.52547303E-02 0.12500181E+03</pdfrwt>
<pdfrwt beam="1">  1       -4 0.17595252E-01 0.12500181E+03</pdfrwt>
<totfact> 0.99594494E+03</totfact>
</mgrwt>
</event>
<event>
 5    1  0.3209683E-002  0.1250042E+03  0.7818608E-02  0.1235063E+00
         -4   -1    0    0    0  501 -0.00000000000E+00  0.00000000000E+00  0.49300575154E+02  0.49316930262E+02  0.12700000000E+01 0.  1.
          4   -1    0    0  501    0  0.00000000000E+00 -0.00000000000E+00 -0.79204100695E+02  0.79214281963E+02  0.12700000000E+01 0.  1.
         25    2    1    2    0    0  0.00000000000E+00  0.00000000000E+00 -0.29903525541E+02  0.12853121223E+03  0.12500420663E+03 0.  0.
    9000005    1    3    3    0    0 -0.11550131589E+02 -0.54816680205E+02  0.13528847884E+02  0.57639428289E+02  0.10000000000E+01 0.  0.
    9000005    1    3    3    0    0  0.11550131589E+02  0.54816680205E+02 -0.43432373426E+02  0.70891783937E+02  0.10000000000E+01 0.  0.
<mgrwt>
<rscale>  0 0.12500421E+03</rscale>
<asrwt>0</asrwt>
<pdfrwt beam="2">  1        4 0.12187288E-01 0.12500421E+03</pdfrwt>
<pdfrwt beam="1">  1       -4 0.75867451E-02 0.12500421E+03</pdfrwt>
<totfact> 0.10375046E+04</totfact>
</mgrwt>
</event>
<event>
 5    1  0.3209683E-002  0.1250005E+03  0.7818608E-02  0.1235068E+00
         -4   -1    0    0    0  501 -0.00000000000E+00  0.00000000000E+00  0.13937171994E+04  0.13937177780E+04  0.12700000000E+01 0.  1.
          4   -1    0    0  501    0  0.00000000000E+00 -0.00000000000E+00 -0.26583046963E+01  0.29460963763E+01  0.12700000000E+01 0.  1.
         25    2    1    2    0    0  0.00000000000E+00  0.00000000000E+00  0.13910588947E+04  0.13966638744E+04  0.12500051817E+03 0.  0.
    9000005    1    3    3    0    0  0.30837062426E+02  0.42414329517E+02  0.31573990549E+03  0.32006653634E+03  0.10000000000E+01 0.  0.
    9000005    1    3    3    0    0 -0.30837062426E+02 -0.42414329517E+02  0.10753189892E+04  0.10765973381E+04  0.10000000000E+01 0.  0.
<mgrwt>
<rscale>  0 0.12500052E+03</rscale>
<asrwt>0</asrwt>
<pdfrwt beam="2">  1        4 0.43115166E-03 0.12500052E+03</pdfrwt>
<pdfrwt beam="1">  1       -4 0.21444053E+00 0.12500052E+03</pdfrwt>
<totfact> 0.20052359E+03</totfact>
</mgrwt>
</event>
<event>
 5    1  0.3209683E-002  0.1250046E+03  0.7818608E-02  0.1235062E+00
          4   -1    0    0  501    0  0.00000000000E+00  0.00000000000E+00  0.29807029536E+02  0.29834072966E+02  0.12700000000E+01 0. -1.
         -4   -1    0    0    0  501 -0.00000000000E+00 -0.00000000000E+00 -0.13097133329E+03  0.13097749060E+03  0.12700000000E+01 0. -1.
         25    2    1    2    0    0  0.00000000000E+00  0.00000000000E+00 -0.10116430375E+03  0.16081156357E+03  0.12500457041E+03 0.  0.
    9000005    1    3    3    0    0  0.40548522039E+02  0.44040023930E+02 -0.27503832532E+02  0.65887534111E+02  0.10000000000E+01 0.  0.
    9000005    1    3    3    0    0 -0.40548522039E+02 -0.44040023930E+02 -0.73660471222E+02  0.94924029455E+02  0.10000000000E+01 0.  0.
<mgrwt>
<rscale>  0 0.12500457E+03</rscale>
<asrwt>0</asrwt>
<pdfrwt beam="1">  1        4 0.45882508E-02 0.12500457E+03</pdfrwt>
<pdfrwt beam="2">  1       -4 0.20151989E-01 0.12500457E+03</pdfrwt>
<totfact> 0.97176567E+03</totfact>
</mgrwt>
</event>
<event>
 5    1  0.3209683E-002  0.1250007E+03  0.7818608E-02  0.1235068E+00
          4   -1    0    0  501    0  0.00000000000E+00  0.00000000000E+00  0.66131351535E+01  0.67339777665E+01  0.12700000000E+01 0. -1.
         -4   -1    0    0    0  501 -0.00000000000E+00 -0.00000000000E+00 -0.58521795793E+03  0.58521933596E+03  0.12700000000E+01 0. -1.
         25    2    1    2    0    0  0.00000000000E+00  0.00000000000E+00 -0.57860482278E+03  0.59195331373E+03  0.12500073877E+03 0.  0.
    9000005    1    3    3    0    0  0.59331151054E+02  0.92218969811E+01 -0.37133458413E+03  0.37615901190E+03  0.10000000000E+01 0.  0.
    9000005    1    3    3    0    0 -0.59331151054E+02 -0.92218969811E+01 -0.20727023865E+03  0.21579430182E+03  0.10000000000E+01 0.  0.
<mgrwt>
<rscale>  0 0.12500074E+03</rscale>
<asrwt>0</asrwt>
<pdfrwt beam="1">  1        4 0.10268075E-02 0.12500074E+03</pdfrwt>
<pdfrwt beam="2">  1       -4 0.90042893E-01 0.12500074E+03</pdfrwt>
<totfact> 0.49378728E+03</totfact>
</mgrwt>
</event>
<event>
 5    1  0.3209683E-002  0.1250000E+03  0.7818608E-02  0.1235069E+00
          4   -1    0    0  501    0  0.00000000000E+00  0.00000000000E+00  0.30992458278E+02  0.31018468211E+02  0.12700000000E+01 0. -1.
         -4   -1    0    0    0  501 -0.00000000000E+00 -0.00000000000E+00 -0.12595672199E+03  0.12596312443E+03  0.12700000000E+01 0. -1.
         25    2    1    2    0    0  0.00000000000E+00  0.00000000000E+00 -0.94964263716E+02  0.15698159264E+03  0.12500003618E+03 0.  0.
    9000005    1    3    3    0    0 -0.45336017426E+02  0.31213753173E+02 -0.10320795841E+02  0.56010460540E+02  0.10000000000E+01 0.  0.
    9000005    1    3    3    0    0  0.45336017426E+02 -0.31213753173E+02 -0.84643467875E+02  0.10097113210E+03  0.10000000000E+01 0.  0.
<mgrwt>
<rscale>  0 0.12500004E+03</rscale>
<asrwt>0</asrwt>
<pdfrwt beam="1">  1        4 0.47705638E-02 0.12500004E+03</pdfrwt>
<pdfrwt beam="2">  1       -4 0.19380450E-01 0.12500004E+03</pdfrwt>
<totfact> 0.97927807E+03</totfact>
</mgrwt>
</event>
<event>
 5    1  0.3209683E-002  0.1250008E+03  0.7818608E-02  0.1235068E+00
         -4   -1    0    0    0  501 -0.00000000000E+00  0.00000000000E+00  0.60488960860E+02  0.60502291576E+02  0.12700000000E+01 0. -1.
          4   -1    0    0  501    0  0.00000000000E+00 -0.00000000000E+00 -0.64551999634E+02  0.64564491454E+02  0.12700000000E+01 0. -1.
         25    2    1    2    0    0  0.00000000000E+00  0.00000000000E+00 -0.40630387737E+01  0.12506678303E+03  0.12500076773E+03 0.  0.
    9000005    1    3    3    0    0  0.24429517406E+02 -0.47696174625E+02  0.30134667440E+02  0.61488410097E+02  0.10000000000E+01 0.  0.
    9000005    1    3    3    0    0 -0.24429517406E+02  0.47696174625E+02 -0.34197706213E+02  0.63578372933E+02  0.10000000000E+01 0.  0.
<mgrwt>
<rscale>  0 0.12500077E+03</rscale>
<asrwt>0</asrwt>
<pdfrwt beam="2">  1        4 0.99330632E-02 0.12500077E+03</pdfrwt>
<pdfrwt beam="1">  1       -4 0.93079803E-02 0.12500077E+03</pdfrwt>
<totfact> 0.10451231E+04</totfact>
</mgrwt>
</event>
<event>
 5    1  0.3209683E-002  0.1250087E+03  0.7818608E-02  0.1235056E+00
          4   -1    0    0  501    0  0.00000000000E+00  0.00000000000E+00  0.11935889955E+03  0.11936565587E+03  0.12700000000E+01 0.  1.
         -4   -1    0    0    0  501 -0.00000000000E+00 -0.00000000000E+00 -0.32711487366E+02  0.32736131502E+02  0.12700000000E+01 0.  1.
         25    2    1    2    0    0  0.00000000000E+00  0.00000000000E+00  0.86647412183E+02  0.15210178737E+03  0.12500871843E+03 0.  0.
    9000005    1    3    3    0    0  0.77011789898E+01  0.24476364686E+02 -0.26012732229E+02  0.36552193150E+02  0.10000000000E+01 0.  0.
    9000005    1    3    3    0    0 -0.77011789898E+01 -0.24476364686E+02  0.11266014441E+03  0.11554959422E+03  0.10000000000E+01 0.  0.
<mgrwt>
<rscale>  0 0.12500872E+03</rscale>
<asrwt>0</asrwt>
<pdfrwt beam="1">  1        4 0.18365323E-01 0.12500872E+03</pdfrwt>
<pdfrwt beam="2">  1       -4 0.50349519E-02 0.12500872E+03</pdfrwt>
<totfact> 0.98866981E+03</totfact>
</mgrwt>
</event>
<event>
 5    1  0.3209683E-002  0.1250052E+03  0.7818608E-02  0.1235061E+00
         -4   -1    0    0    0  501 -0.00000000000E+00  0.00000000000E+00  0.16716620422E+03  0.16717102839E+03  0.12700000000E+01 0.  1.
          4   -1    0    0  501    0  0.00000000000E+00 -0.00000000000E+00 -0.23346977234E+02  0.23381493664E+02  0.12700000000E+01 0.  1.
         25    2    1    2    0    0  0.00000000000E+00  0.00000000000E+00  0.14381922698E+03  0.19055252205E+03  0.12500517434E+03 0.  0.
    9000005    1    3    3    0    0  0.42295904591E+02  0.16399846555E+02  0.63857511032E+01  0.45822225278E+02  0.10000000000E+01 0.  0.
    9000005    1    3    3    0    0 -0.42295904591E+02 -0.16399846555E+02  0.13743347588E+03  0.14473029678E+03  0.10000000000E+01 0.  0.
<mgrwt>
<rscale>  0 0.12500517E+03</rscale>
<asrwt>0</asrwt>
<pdfrwt beam="2">  1        4 0.35948691E-02 0.12500517E+03</pdfrwt>
<pdfrwt beam="1">  1       -4 0.25720902E-01 0.12500517E+03</pdfrwt>
<totfact> 0.91740635E+03</totfact>
</mgrwt>
</event>
<event>
 5    1  0.3209683E-002  0.1250016E+03  0.7818608E-02  0.1235067E+00
          4   -1    0    0  501    0  0.00000000000E+00  0.00000000000E+00  0.81706911413E+03  0.81707010113E+03  0.12700000000E+01 0. -1.
         -4   -1    0    0    0  501 -0.00000000000E+00 -0.00000000000E+00 -0.46955788180E+01  0.48642944438E+01  0.12700000000E+01 0. -1.
         25    2    1    2    0    0  0.00000000000E+00  0.00000000000E+00  0.81237353531E+03  0.82193439557E+03  0.12500155902E+03 0.  0.
    9000005    1    3    3    0    0  0.11716902102E+02 -0.16890176402E+02  0.18139196288E+02  0.27433452129E+02  0.10000000000E+01 0.  0.
    9000005    1    3    3    0    0 -0.11716902102E+02  0.16890176402E+02  0.79423433902E+03  0.79450094344E+03  0.10000000000E+01 0.  0.
<mgrwt>
<rscale>  0 0.12500156E+03</rscale>
<asrwt>0</asrwt>
<pdfrwt beam="1">  1        4 0.12571597E+00 0.12500156E+03</pdfrwt>
<pdfrwt beam="2">  1       -4 0.73545095E-03 0.12500156E+03</pdfrwt>
<totfact> 0.37302813E+03</totfact>
</mgrwt>
</event>
<event>
 5    1  0.3209683E-002  0.1250003E+03  0.7818608E-02  0.1235069E+00
          4   -1    0    0  501    0  0.00000000000E+00  0.00000000000E+00  0.40616454146E+02  0.40636304549E+02  0.12700000000E+01 0.  1.
         -4   -1    0    0    0  501 -0.00000000000E+00 -0.00000000000E+00 -0.96127018567E+02  0.96135407622E+02  0.12700000000E+01 0.  1.
         25    2    1    2    0    0  0.00000000000E+00  0.00000000000E+00 -0.55510564421E+02  0.13677171217E+03  0.12500031395E+03 0.  0.
    9000005    1    3    3    0    0  0.41630662272E+01 -0.60092839762E+02 -0.45958982652E+02  0.75774062828E+02  0.10000000000E+01 0.  0.
    9000005    1    3    3    0    0 -0.41630662272E+01  0.60092839762E+02 -0.95515817696E+01  0.60997649343E+02  0.10000000000E+01 0.  0.
<mgrwt>
<rscale>  0 0.12500031E+03</rscale>
<asrwt>0</asrwt>
<pdfrwt beam="1">  1        4 0.62508576E-02 0.12500031E+03</pdfrwt>
<pdfrwt beam="2">  1       -4 0.14790944E-01 0.12500031E+03</pdfrwt>
<totfact> 0.10200789E+04</totfact>
</mgrwt>
</event>
<event>
 5    1  0.3209683E-002  0.1250055E+03  0.7818608E-02  0.1235061E+00
          4   -1    0    0  501    0  0.00000000000E+00  0.00000000000E+00  0.79480686423E+02  0.79490832266E+02  0.12700000000E+01 0. -1.
         -4   -1    0    0    0  501 -0.00000000000E+00 -0.00000000000E+00 -0.49130007995E+02  0.49146419866E+02  0.12700000000E+01 0. -1.
         25    2    1    2    0    0  0.00000000000E+00  0.00000000000E+00  0.30350678428E+02  0.12863725213E+03  0.12500551570E+03 0.  0.
    9000005    1    3    3    0    0 -0.88453181087E+01 -0.32327829042E+02  0.69454977632E+02  0.77125366131E+02  0.10000000000E+01 0.  0.
    9000005    1    3    3    0    0  0.88453181087E+01  0.32327829042E+02 -0.39104299204E+02  0.51511886000E+02  0.10000000000E+01 0.  0.
<mgrwt>
<rscale>  0 0.12500552E+03</rscale>
<asrwt>0</asrwt>
<pdfrwt beam="1">  1        4 0.12229841E-01 0.12500552E+03</pdfrwt>
<pdfrwt beam="2">  1       -4 0.75605056E-02 0.12500552E+03</pdfrwt>
<totfact> 0.10372457E+04</totfact>
</mgrwt>
</event>
<event>
 5    1  0.3209683E-002  0.1250007E+03  0.7818608E-02  0.1235068E+00
         -4   -1    0    0    0  501 -0.00000000000E+00  0.00000000000E+00  0.67478776536E+03  0.67478896047E+03  0.12700000000E+01 0. -1.
          4   -1    0    0  501    0  0.00000000000E+00 -0.00000000000E+00 -0.57180512781E+01  0.58573893860E+01  0.12700000000E+01 0. -1.
         25    2    1    2    0    0  0.00000000000E+00  0.00000000000E+00  0.66906971408E+03  0.68064634986E+03  0.12500068511E+03 0.  0.
    9000005    1    3    3    0    0 -0.47245612928E+02 -0.39314478831E+02  0.39602316532E+03  0.40076567175E+03  0.10000000000E+01 0.  0.
    9000005    1    3    3    0    0  0.47245612928E+02  0.39314478831E+02  0.27304654876E+03  0.27988067810E+03  0.10000000000E+01 0.  0.
<mgrwt>
<rscale>  0 0.12500069E+03</rscale>
<asrwt>0</asrwt>
<pdfrwt beam="2">  1        4 0.89050987E-03 0.12500069E+03</pdfrwt>
<pdfrwt beam="1">  1       -4 0.10382438E+00 0.12500069E+03</pdfrwt>
<totfact> 0.44127546E+03</totfact>
</mgrwt>
</event>
<event>
 5    1  0.3209683E-002  0.1249805E+03  0.7818608E-02  0.1235100E+00
         -4   -1    0    0    0  501 -0.00000000000E+00  0.00000000000E+00  0.87718115094E+03  0.87718207030E+03  0.12700000000E+01 0.  1.
          4   -1    0    0  501    0  0.00000000000E+00 -0.00000000000E+00 -0.43602784100E+01  0.45414675836E+01  0.12700000000E+01 0.  1.
         25    2    1    2    0    0  0.00000000000E+00  0.00000000000E+00  0.87282087253E+03  0.88172353788E+03  0.12498048545E+03 0.  0.
    9000005    1    3    3    0    0 -0.29242193292E+02  0.40225067570E+02  0.70327449675E+03  0.70503133243E+03  0.10000000000E+01 0.  0.
    9000005    1    3    3    0    0  0.29242193292E+02 -0.40225067570E+02  0.16954637578E+03  0.17669220546E+03  0.10000000000E+01 0.  0.
<mgrwt>
<rscale>  0 0.12498049E+03</rscale>
<asrwt>0</asrwt>
<pdfrwt beam="2">  1        4 0.68482030E-03 0.12498049E+03</pdfrwt>
<pdfrwt beam="1">  1       -4 0.13496498E+00 0.12498049E+03</pdfrwt>
<totfact> 0.34877991E+03</totfact>
</mgrwt>
</event>
<event>
 5    1  0.3209683E-002  0.1250007E+03  0.7818608E-02  0.1235068E+00
          4   -1    0    0  501    0  0.00000000000E+00  0.00000000000E+00  0.13380949073E+02  0.13441082475E+02  0.12700000000E+01 0.  1.
         -4   -1    0    0    0  501 -0.00000000000E+00 -0.00000000000E+00 -0.29121345432E+03  0.29121622358E+03  0.12700000000E+01 0.  1.
         25    2    1    2    0    0  0.00000000000E+00  0.00000000000E+00 -0.27783250524E+03  0.30465730605E+03  0.12500069264E+03 0.  0.
    9000005    1    3    3    0    0 -0.41134942261E+02 -0.28104068093E+02 -0.46964870637E+02  0.68473507228E+02  0.10000000000E+01 0.  0.
    9000005    1    3    3    0    0  0.41134942261E+02  0.28104068093E+02 -0.23086763461E+03  0.23618379882E+03  0.10000000000E+01 0.  0.
<mgrwt>
<rscale>  0 0.12500069E+03</rscale>
<asrwt>0</asrwt>
<pdfrwt beam="1">  1        4 0.20634464E-02 0.12500069E+03</pdfrwt>
<pdfrwt beam="2">  1       -4 0.44806904E-01 0.12500069E+03</pdfrwt>
<totfact> 0.75017173E+03</totfact>
</mgrwt>
</event>
<event>
 5    1  0.3209683E-002  0.1249940E+03  0.7818608E-02  0.1235079E+00
         -4   -1    0    0    0  501 -0.00000000000E+00  0.00000000000E+00  0.30815706398E+03  0.30815968098E+03  0.12700000000E+01 0.  1.
          4   -1    0    0  501    0  0.00000000000E+00 -0.00000000000E+00 -0.12640460861E+02  0.12704099762E+02  0.12700000000E+01 0.  1.
         25    2    1    2    0    0  0.00000000000E+00  0.00000000000E+00  0.29551660312E+03  0.32086378074E+03  0.12499401214E+03 0.  0.
    9000005    1    3    3    0    0  0.35043659042E+02 -0.51736291936E+02  0.14668804379E+03  0.15944617943E+03  0.10000000000E+01 0.  0.
    9000005    1    3    3    0    0 -0.35043659042E+02  0.51736291936E+02  0.14882855933E+03  0.16141760132E+03  0.10000000000E+01 0.  0.
<mgrwt>
<rscale>  0 0.12499401E+03</rscale>
<asrwt>0</asrwt>
<pdfrwt beam="2">  1        4 0.19497828E-02 0.12499401E+03</pdfrwt>
<pdfrwt beam="1">  1       -4 0.47413877E-01 0.12499401E+03</pdfrwt>
<totfact> 0.73063202E+03</totfact>
</mgrwt>
</event>
<event>
 5    1  0.3209683E-002  0.1250036E+03  0.7818608E-02  0.1235064E+00
          4   -1    0    0  501    0  0.00000000000E+00  0.00000000000E+00  0.43936180691E+02  0.43954531890E+02  0.12700000000E+01 0.  1.
         -4   -1    0    0    0  501 -0.00000000000E+00 -0.00000000000E+00 -0.88871006193E+02  0.88880080118E+02  0.12700000000E+01 0.  1.
         25    2    1    2    0    0  0.00000000000E+00  0.00000000000E+00 -0.44934825502E+02  0.13283461201E+03  0.12500358237E+03 0.  0.
    9000005    1    3    3    0    0 -0.60806987703E+02 -0.11898613366E+02 -0.31126980319E+02  0.69346634074E+02  0.10000000000E+01 0.  0.
    9000005    1    3    3    0    0  0.60806987703E+02  0.11898613366E+02 -0.13807845183E+02  0.63487977934E+02  0.10000000000E+01 0.  0.
<mgrwt>
<rscale>  0 0.12500358E+03</rscale>
<asrwt>0</asrwt>
<pdfrwt beam="1">  1        4 0.67615220E-02 0.12500358E+03</pdfrwt>
<pdfrwt beam="2">  1       -4 0.13674572E-01 0.12500358E+03</pdfrwt>
<totfact> 0.10283085E+04</totfact>
</mgrwt>
</event>
<event>
 5    1  0.3209683E-002  0.1249968E+03  0.7818608E-02  0.1235074E+00
         -4   -1    0    0    0  501 -0.00000000000E+00  0.00000000000E+00  0.53372307523E+02  0.53387415280E+02  0.12700000000E+01 0.  1.
          4   -1    0    0  501    0  0.00000000000E+00 -0.00000000000E+00 -0.73153942265E+02  0.73164965448E+02  0.12700000000E+01 0.  1.
         25    2    1    2    0    0  0.00000000000E+00  0.00000000000E+00 -0.19781634742E+02  0.12655238073E+03  0.12499676794E+03 0.  0.
    9000005    1    3    3    0    0  0.59011323134E+01 -0.53616081257E+02  0.22054043062E+02  0.58282830639E+02  0.10000000000E+01 0.  0.
    9000005    1    3    3    0    0 -0.59011323134E+01  0.53616081257E+02 -0.41835677804E+02  0.68269550089E+02  0.10000000000E+01 0.  0.
<mgrwt>
<rscale>  0 0.12499677E+03</rscale>
<asrwt>0</asrwt>
<pdfrwt beam="2">  1        4 0.11256463E-01 0.12499677E+03</pdfrwt>
<pdfrwt beam="1">  1       -4 0.82131343E-02 0.12499677E+03</pdfrwt>
<totfact> 0.10419646E+04</totfact>
</mgrwt>
</event>
<event>
 5    1  0.3209683E-002  0.1249986E+03  0.7818608E-02  0.1235071E+00
          4   -1    0    0  501    0  0.00000000000E+00  0.00000000000E+00  0.21430796178E+01  0.24911222869E+01  0.12700000000E+01 0. -1.
         -4   -1    0    0    0  501 -0.00000000000E+00 -0.00000000000E+00 -0.16854496050E+04  0.16854500835E+04  0.12700000000E+01 0. -1.
         25    2    1    2    0    0  0.00000000000E+00  0.00000000000E+00 -0.16833065254E+04  0.16879412057E+04  0.12499862289E+03 0.  0.
    9000005    1    3    3    0    0 -0.52818276730E+02  0.23887711042E+02 -0.11568335241E+04  0.11582854552E+04  0.10000000000E+01 0.  0.
    9000005    1    3    3    0    0  0.52818276730E+02 -0.23887711042E+02 -0.52647300122E+03  0.52965575057E+03  0.10000000000E+01 0.  0.
<mgrwt>
<rscale>  0 0.12499862E+03</rscale>
<asrwt>0</asrwt>
<pdfrwt beam="1">  1        4 0.35651522E-03 0.12499862E+03</pdfrwt>
<pdfrwt beam="2">  1       -4 0.25932577E+00 0.12499862E+03</pdfrwt>
<totfact> 0.14510644E+03</totfact>
</mgrwt>
</event>
<event>
 5    1  0.3209683E-002  0.1250061E+03  0.7818608E-02  0.1235060E+00
          4   -1    0    0  501    0  0.00000000000E+00  0.00000000000E+00  0.17232215743E+02  0.17278951340E+02  0.12700000000E+01 0. -1.
         -4   -1    0    0    0  501 -0.00000000000E+00 -0.00000000000E+00 -0.22634941467E+03  0.22635297749E+03  0.12700000000E+01 0. -1.
         25    2    1    2    0    0  0.00000000000E+00  0.00000000000E+00 -0.20911719893E+03  0.24363192883E+03  0.12500605530E+03 0.  0.
    9000005    1    3    3    0    0  0.45809262352E+01  0.35981048409E+02 -0.20374535475E+03  0.20695117858E+03  0.10000000000E+01 0.  0.
    9000005    1    3    3    0    0 -0.45809262352E+01 -0.35981048409E+02 -0.53718441708E+01  0.36680750259E+02  0.10000000000E+01 0.  0.
<mgrwt>
<rscale>  0 0.12500606E+03</rscale>
<asrwt>0</asrwt>
<pdfrwt beam="1">  1        4 0.26549794E-02 0.12500606E+03</pdfrwt>
<pdfrwt beam="2">  1       -4 0.34826854E-01 0.12500606E+03</pdfrwt>
<totfact> 0.83248178E+03</totfact>
</mgrwt>
</event>
<event>
 5    1  0.3209683E-002  0.1249995E+03  0.7818608E-02  0.1235070E+00
         -4   -1    0    0    0  501 -0.00000000000E+00  0.00000000000E+00  0.24647100418E+03  0.24647427615E+03  0.12700000000E+01 0. -1.
          4   -1    0    0  501    0  0.00000000000E+00 -0.00000000000E+00 -0.15819775730E+02  0.15870671194E+02  0.12700000000E+01 0. -1.
         25    2    1    2    0    0  0.00000000000E+00  0.00000000000E+00  0.23065122845E+03  0.26234494734E+03  0.12499952884E+03 0.  0.
    9000005    1    3    3    0    0  0.38424226275E+02  0.42331969412E+02  0.62363277826E+02  0.84608481964E+02  0.10000000000E+01 0.  0.
    9000005    1    3    3    0    0 -0.38424226275E+02 -0.42331969412E+02  0.16828795063E+03  0.17773646538E+03  0.10000000000E+01 0.  0.
<mgrwt>
<rscale>  0 0.12499953E+03</rscale>
<asrwt>0</asrwt>
<pdfrwt beam="2">  1        4 0.24379783E-02 0.12499953E+03</pdfrwt>
<pdfrwt beam="1">  1       -4 0.37922784E-01 0.12499953E+03</pdfrwt>
<totfact> 0.80578946E+03</totfact>
</mgrwt>
</event>
<event>
 5    1  0.3209683E-002  0.1249998E+03  0.7818608E-02  0.1235070E+00
         -4   -1    0    0    0  501 -0.00000000000E+00  0.00000000000E+00  0.11050055085E+02  0.11122797193E+02  0.12700000000E+01 0. -1.
          4   -1    0    0  501    0  0.00000000000E+00 -0.00000000000E+00 -0.35227005993E+03  0.35227234922E+03  0.12700000000E+01 0. -1.
         25    2    1    2    0    0  0.00000000000E+00  0.00000000000E+00 -0.34122000485E+03  0.36339514641E+03  0.12499976291E+03 0.  0.
    9000005    1    3    3    0    0  0.57849169720E+02  0.23477298653E+02 -0.16263503815E+03  0.17420925814E+03  0.10000000000E+01 0.  0.
    9000005    1    3    3    0    0 -0.57849169720E+02 -0.23477298653E+02 -0.17858496670E+03  0.18918588827E+03  0.10000000000E+01 0.  0.
<mgrwt>
<rscale>  0 0.12499976E+03</rscale>
<asrwt>0</asrwt>
<pdfrwt beam="2">  1        4 0.54201157E-01 0.12499976E+03</pdfrwt>
<pdfrwt beam="1">  1       -4 0.17057804E-02 0.12499976E+03</pdfrwt>
<totfact> 0.68275998E+03</totfact>
</mgrwt>
</event>
<event>
 5    1  0.3209683E-002  0.1249971E+03  0.7818608E-02  0.1235074E+00
         -4   -1    0    0    0  501 -0.00000000000E+00  0.00000000000E+00  0.26617975389E+02  0.26648255361E+02  0.12700000000E+01 0. -1.
          4   -1    0    0  501    0  0.00000000000E+00 -0.00000000000E+00 -0.14662911548E+03  0.14663461531E+03  0.12700000000E+01 0. -1.
         25    2    1    2    0    0  0.00000000000E+00  0.00000000000E+00 -0.12001114009E+03  0.17328287067E+03  0.12499711805E+03 0.  0.
    9000005    1    3    3    0    0 -0.53707207819E+02  0.31865116907E+02 -0.63172892384E+02  0.88835039142E+02  0.10000000000E+01 0.  0.
    9000005    1    3    3    0    0  0.53707207819E+02 -0.31865116907E+02 -0.56838247708E+02  0.84447831528E+02  0.10000000000E+01 0.  0.
<mgrwt>
<rscale>  0 0.12499712E+03</rscale>
<asrwt>0</asrwt>
<pdfrwt beam="2">  1        4 0.22561077E-01 0.12499712E+03</pdfrwt>
<pdfrwt beam="1">  1       -4 0.40978255E-02 0.12499712E+03</pdfrwt>
<totfact> 0.94846406E+03</totfact>
</mgrwt>
</event>
<event>
 5    1  0.3209683E-002  0.1249484E+03  0.7818608E-02  0.1235150E+00
          4   -1    0    0  501    0  0.00000000000E+00  0.00000000000E+00  0.15426733673E+03  0.15427256425E+03  0.12700000000E+01 0. -1.
         -4   -1    0    0    0  501 -0.00000000000E+00 -0.00000000000E+00 -0.25278787349E+02  0.25310669486E+02  0.12700000000E+01 0. -1.
         25    2    1    2    0    0  0.00000000000E+00  0.00000000000E+00  0.12898854938E+03  0.17958323374E+03  0.12494835721E+03 0.  0.
    9000005    1    3    3    0    0  0.40148095922E+02  0.42160730132E+02  0.97035630641E+02  0.11316496978E+03  0.10000000000E+01 0.  0.
    9000005    1    3    3    0    0 -0.40148095922E+02 -0.42160730132E+02  0.31952918739E+02  0.66418263960E+02  0.10000000000E+01 0.  0.
<mgrwt>
<rscale>  0 0.12494836E+03</rscale>
<asrwt>0</asrwt>
<pdfrwt beam="1">  1        4 0.23736291E-01 0.12494836E+03</pdfrwt>
<pdfrwt beam="2">  1       -4 0.38918988E-02 0.12494836E+03</pdfrwt>
<totfact> 0.93800652E+03</totfact>
</mgrwt>
</event>
<event>
 5    1  0.3209683E-002  0.1249995E+03  0.7818608E-02  0.1235070E+00
          4   -1    0    0  501    0  0.00000000000E+00  0.00000000000E+00  0.41824061804E+02  0.41843339324E+02  0.12700000000E+01 0. -1.
         -4   -1    0    0    0  501 -0.00000000000E+00 -0.00000000000E+00 -0.93351348726E+02  0.93359987195E+02  0.12700000000E+01 0. -1.
         25    2    1    2    0    0  0.00000000000E+00  0.00000000000E+00 -0.51527286922E+02  0.13520332652E+03  0.12499951282E+03 0.  0.
    9000005    1    3    3    0    0  0.52861243355E+01  0.15246892557E+02 -0.91064131438E+02  0.92488306708E+02  0.10000000000E+01 0.  0.
    9000005    1    3    3    0    0 -0.52861243355E+01 -0.15246892557E+02  0.39536844516E+02  0.42715019811E+02  0.10000000000E+01 0.  0.
<mgrwt>
<rscale>  0 0.12499951E+03</rscale>
<asrwt>0</asrwt>
<pdfrwt beam="1">  1        4 0.64366185E-02 0.12499951E+03</pdfrwt>
<pdfrwt beam="2">  1       -4 0.14363893E-01 0.12499951E+03</pdfrwt>
<totfact> 0.10233900E+04</totfact>
</mgrwt>
</event>
<event>
 5    1  0.3209683E-002  0.1249831E+03  0.7818608E-02  0.1235096E+00
         -4   -1    0    0    0  501 -0.00000000000E+00  0.00000000000E+00  0.16439670828E+02  0.16488652975E+02  0.12700000000E+01 0.  1.
          4   -1    0    0  501    0  0.00000000000E+00 -0.00000000000E+00 -0.23714275171E+03  0.23714615238E+03  0.12700000000E+01 0.  1.
         25    2    1    2    0    0  0.00000000000E+00  0.00000000000E+00 -0.22070308088E+03  0.25363480535E+03  0.12498305716E+03 0.  0.
    9000005    1    3    3    0    0 -0.51674446330E+02 -0.33042188179E+02 -0.86155676696E+02  0.10576310902E+03  0.10000000000E+01 0.  0.
    9000005    1    3    3    0    0  0.51674446330E+02  0.33042188179E+02 -0.13454740418E+03  0.14787169633E+03  0.10000000000E+01 0.  0.
<mgrwt>
<rscale>  0 0.12498306E+03</rscale>
<asrwt>0</asrwt>
<pdfrwt beam="2">  1        4 0.36487527E-01 0.12498306E+03</pdfrwt>
<pdfrwt beam="1">  1       -4 0.25332097E-02 0.12498306E+03</pdfrwt>
<totfact> 0.81838584E+03</totfact>
</mgrwt>
</event>
<event>
 5    1  0.3209683E-002  0.1250013E+03  0.7818608E-02  0.1235067E+00
         -4   -1    0    0    0  501 -0.00000000000E+00  0.00000000000E+00  0.39986550092E+02  0.40006713040E+02  0.12700000000E+01 0. -1.
          4   -1    0    0  501    0  0.00000000000E+00 -0.00000000000E+00 -0.97642277519E+02  0.97650536399E+02  0.12700000000E+01 0. -1.
         25    2    1    2    0    0  0.00000000000E+00  0.00000000000E+00 -0.57655727427E+02  0.13765724944E+03  0.12500134167E+03 0.  0.
    9000005    1    3    3    0    0  0.36464273501E+02 -0.16646742366E+02 -0.81625429740E+02  0.90942113751E+02  0.10000000000E+01 0.  0.
    9000005    1    3    3    0    0 -0.36464273501E+02  0.16646742366E+02  0.23969702313E+02  0.46715135688E+02  0.10000000000E+01 0.  0.
<mgrwt>
<rscale>  0 0.12500134E+03</rscale>
<asrwt>0</asrwt>
<pdfrwt beam="2">  1        4 0.15024075E-01 0.12500134E+03</pdfrwt>
<pdfrwt beam="1">  1       -4 0.61539633E-02 0.12500134E+03</pdfrwt>
<totfact> 0.10182053E+04</totfact>
</mgrwt>
</event>
<event>
 5    1  0.3209683E-002  0.1249990E+03  0.7818608E-02  0.1235071E+00
          4   -1    0    0  501    0  0.00000000000E+00  0.00000000000E+00  0.19357586575E+03  0.19358003177E+03  0.12700000000E+01 0. -1.
         -4   -1    0    0    0  501 -0.00000000000E+00 -0.00000000000E+00 -0.20154736575E+02  0.20194709862E+02  0.12700000000E+01 0. -1.
         25    2    1    2    0    0  0.00000000000E+00  0.00000000000E+00  0.17342112917E+03  0.21377474163E+03  0.12499900846E+03 0.  0.
    9000005    1    3    3    0    0  0.81008798747E+01 -0.31056916343E+02 -0.49898169413E+01  0.32496993408E+02  0.10000000000E+01 0.  0.
    9000005    1    3    3    0    0 -0.81008798747E+01  0.31056916343E+02  0.17841094611E+03  0.18127774822E+03  0.10000000000E+01 0.  0.
<mgrwt>
<rscale>  0 0.12499901E+03</rscale>
<asrwt>0</asrwt>
<pdfrwt beam="1">  1        4 0.29784298E-01 0.12499901E+03</pdfrwt>
<pdfrwt beam="2">  1       -4 0.31041240E-02 0.12499901E+03</pdfrwt>
<totfact> 0.87865049E+03</totfact>
</mgrwt>
</event>
<event>
 5    1  0.3209683E-002  0.1249977E+03  0.7818608E-02  0.1235073E+00
         -4   -1    0    0    0  501 -0.00000000000E+00  0.00000000000E+00  0.16180662528E+03  0.16181160924E+03  0.12700000000E+01 0. -1.
          4   -1    0    0  501    0  0.00000000000E+00 -0.00000000000E+00 -0.24118510389E+02  0.24151924217E+02  0.12700000000E+01 0. -1.
         25    2    1    2    0    0  0.00000000000E+00  0.00000000000E+00  0.13768811489E+03  0.18596353346E+03  0.12499767515E+03 0.  0.
    9000005    1    3    3    0    0  0.60468383118E+01  0.49041354883E+02  0.12575819164E+03  0.13512121043E+03  0.10000000000E+01 0.  0.
    9000005    1    3    3    0    0 -0.60468383118E+01 -0.49041354883E+02  0.11929923252E+02  0.50842323031E+02  0.10000000000E+01 0.  0.
<mgrwt>
<rscale>  0 0.12499768E+03</rscale>
<asrwt>0</asrwt>
<pdfrwt beam="2">  1        4 0.37134936E-02 0.12499768E+03</pdfrwt>
<pdfrwt beam="1">  1       -4 0.24896282E-01 0.12499768E+03</pdfrwt>
<totfact> 0.92559249E+03</totfact>
</mgrwt>
</event>
<event>
 5    1  0.3209683E-002  0.1249959E+03  0.7818608E-02  0.1235076E+00
          4   -1    0    0  501    0  0.00000000000E+00  0.00000000000E+00  0.16068682235E+03  0.16069184104E+03  0.12700000000E+01 0. -1.
         -4   -1    0    0    0  501 -0.00000000000E+00 -0.00000000000E+00 -0.24286119580E+02  0.24319303120E+02  0.12700000000E+01 0. -1.
         25    2    1    2    0    0  0.00000000000E+00  0.00000000000E+00  0.13640070277E+03  0.18501114416E+03  0.12499588692E+03 0.  0.
    9000005    1    3    3    0    0  0.12270729181E+02  0.43391290378E+02  0.13223437330E+03  0.13971508278E+03  0.10000000000E+01 0.  0.
    9000005    1    3    3    0    0 -0.12270729181E+02 -0.43391290378E+02  0.41663294743E+01  0.45296061381E+02  0.10000000000E+01 0.  0.
<mgrwt>
<rscale>  0 0.12499589E+03</rscale>
<asrwt>0</asrwt>
<pdfrwt beam="1">  1        4 0.24723988E-01 0.12499589E+03</pdfrwt>
<pdfrwt beam="2">  1       -4 0.37392647E-02 0.12499589E+03</pdfrwt>
<totfact> 0.92731226E+03</totfact>
</mgrwt>
</event>
<event>
 5    1  0.3209683E-002  0.1249413E+03  0.7818608E-02  0.1235161E+00
          4   -1    0    0  501    0  0.00000000000E+00  0.00000000000E+00  0.17779097184E+02  0.17824398915E+02  0.12700000000E+01 0. -1.
         -4   -1    0    0    0  501 -0.00000000000E+00 -0.00000000000E+00 -0.21917749802E+03  0.21918117743E+03  0.12700000000E+01 0. -1.
         25    2    1    2    0    0  0.00000000000E+00  0.00000000000E+00 -0.20139840084E+03  0.23700557635E+03  0.12494129565E+03 0.  0.
    9000005    1    3    3    0    0 -0.20331667696E+02 -0.38101402885E+02 -0.15095308330E+02  0.45759828962E+02  0.10000000000E+01 0.  0.
    9000005    1    3    3    0    0  0.20331667696E+02  0.38101402885E+02 -0.18630309251E+03  0.19124574738E+03  0.10000000000E+01 0.  0.
<mgrwt>
<rscale>  0 0.12494130E+03</rscale>
<asrwt>0</asrwt>
<pdfrwt beam="1">  1        4 0.27390136E-02 0.12494130E+03</pdfrwt>
<pdfrwt beam="2">  1       -4 0.33723381E-01 0.12494130E+03</pdfrwt>
<totfact> 0.84355741E+03</totfact>
</mgrwt>
</event>
<event>
 4    1  0.3209683E-002  0.1249174E+03  0.7818608E-02  0.1235198E+00
         -4   -1    0    0    0  501 -0.00000000000E+00  0.00000000000E+00  0.15916911081E+02  0.15967496935E+02  0.12700000000E+01 0. -1.
          4   -1    0    0  501    0  0.00000000000E+00 -0.00000000000E+00 -0.24464962749E+03  0.24465292382E+03  0.12700000000E+01 0. -1.
    9000005    1    1    2    0    0 -0.53304030564E+02  0.27504871298E+02 -0.78094620396E+02  0.98476430450E+02  0.10000000000E+01 0.  0.
    9000005    1    1    2    0    0  0.53304030564E+02 -0.27504871298E+02 -0.15063809601E+03  0.16214399030E+03  0.10000000000E+01 0.  0.
<mgrwt>
<rscale>  0 0.12491737E+03</rscale>
<asrwt>0</asrwt>
<pdfrwt beam="2">  1        4 0.37642546E-01 0.12491737E+03</pdfrwt>
<pdfrwt beam="1">  1       -4 0.24529005E-02 0.12491737E+03</pdfrwt>
<totfact> 0.80967909E+03</totfact>
</mgrwt>
</event>
<event>
 5    1  0.3209683E-002  0.1249989E+03  0.7818608E-02  0.1235071E+00
          4   -1    0    0  501    0  0.00000000000E+00  0.00000000000E+00  0.44123915859E+02  0.44142189011E+02  0.12700000000E+01 0.  1.
         -4   -1    0    0    0  501 -0.00000000000E+00 -0.00000000000E+00 -0.88486319761E+02  0.88495433130E+02  0.12700000000E+01 0.  1.
         25    2    1    2    0    0  0.00000000000E+00  0.00000000000E+00 -0.44362403902E+02  0.13263762214E+03  0.12499886370E+03 0.  0.
    9000005    1    3    3    0    0  0.25616793214E+02  0.52578652192E+02 -0.45536346099E+02  0.74130247382E+02  0.10000000000E+01 0.  0.
    9000005    1    3    3    0    0 -0.25616793214E+02 -0.52578652192E+02  0.11739421972E+01  0.58507374759E+02  0.10000000000E+01 0.  0.
<mgrwt>
<rscale>  0 0.12499886E+03</rscale>
<asrwt>0</asrwt>
<pdfrwt beam="1">  1        4 0.67904014E-02 0.12499886E+03</pdfrwt>
<pdfrwt beam="2">  1       -4 0.13615387E-01 0.12499886E+03</pdfrwt>
<totfact> 0.10288371E+04</totfact>
</mgrwt>
</event>
<event>
 5    1  0.3209683E-002  0.1249917E+03  0.7818608E-02  0.1235082E+00
          4   -1    0    0  501    0  0.00000000000E+00  0.00000000000E+00  0.18070385315E+02  0.18114958609E+02  0.12700000000E+01 0.  1.
         -4   -1    0    0    0  501 -0.00000000000E+00 -0.00000000000E+00 -0.21582726812E+03  0.21583100464E+03  0.12700000000E+01 0.  1.
         25    2    1    2    0    0  0.00000000000E+00  0.00000000000E+00 -0.19775688280E+03  0.23394596325E+03  0.12499171582E+03 0.  0.
    9000005    1    3    3    0    0  0.58234432118E+02  0.13677432940E+02 -0.13269401191E+03  0.14555762451E+03  0.10000000000E+01 0.  0.
    9000005    1    3    3    0    0 -0.58234432118E+02 -0.13677432940E+02 -0.65062870889E+02  0.88388338734E+02  0.10000000000E+01 0.  0.
<mgrwt>
<rscale>  0 0.12499172E+03</rscale>
<asrwt>0</asrwt>
<pdfrwt beam="1">  1        4 0.27837756E-02 0.12499172E+03</pdfrwt>
<pdfrwt beam="2">  1       -4 0.33207909E-01 0.12499172E+03</pdfrwt>
<totfact> 0.84723005E+03</totfact>
</mgrwt>
</event>
<event>
 5    1  0.3209683E-002  0.1250029E+03  0.7818608E-02  0.1235065E+00
          4   -1    0    0  501    0  0.00000000000E+00  0.00000000000E+00  0.71045821417E+03  0.71045934929E+03  0.12700000000E+01 0.  1.
         -4   -1    0    0    0  501 -0.00000000000E+00 -0.00000000000E+00 -0.54239774617E+01  0.55706760366E+01  0.12700000000E+01 0.  1.
         25    2    1    2    0    0  0.00000000000E+00  0.00000000000E+00  0.70503423671E+03  0.71603002532E+03  0.12500288887E+03 0.  0.
    9000005    1    3    3    0    0 -0.91321921674E+00 -0.59304613506E+02  0.46528367618E+03  0.46904985926E+03  0.10000000000E+01 0.  0.
    9000005    1    3    3    0    0  0.91321921674E+00  0.59304613506E+02  0.23975056053E+03  0.24698016606E+03  0.10000000000E+01 0.  0.
<mgrwt>
<rscale>  0 0.12500289E+03</rscale>
<asrwt>0</asrwt>
<pdfrwt beam="1">  1        4 0.10931264E+00 0.12500289E+03</pdfrwt>
<pdfrwt beam="2">  1       -4 0.84582987E-03 0.12500289E+03</pdfrwt>
<totfact> 0.42251219E+03</totfact>
</mgrwt>
</event>
<event>
 5    1  0.3209683E-002  0.1249998E+03  0.7818608E-02  0.1235070E+00
         -4   -1    0    0    0  501 -0.00000000000E+00  0.00000000000E+00  0.47846364287E+01  0.49503177428E+01  0.12700000000E+01 0. -1.
          4   -1    0    0  501    0  0.00000000000E+00 -0.00000000000E+00 -0.80235204233E+03  0.80235304744E+03  0.12700000000E+01 0. -1.
         25    2    1    2    0    0  0.00000000000E+00  0.00000000000E+00 -0.79756740590E+03  0.80730336518E+03  0.12499982590E+03 0.  0.
    9000005    1    3    3    0    0 -0.51321503971E+02  0.33198567156E+02 -0.31477499419E+03  0.32065610644E+03  0.10000000000E+01 0.  0.
    9000005    1    3    3    0    0  0.51321503971E+02 -0.33198567156E+02 -0.48279241171E+03  0.48664725874E+03  0.10000000000E+01 0.  0.
<mgrwt>
<rscale>  0 0.12499983E+03</rscale>
<asrwt>0</asrwt>
<pdfrwt beam="2">  1        4 0.12345149E+00 0.12499983E+03</pdfrwt>
<pdfrwt beam="1">  1       -4 0.74892058E-03 0.12499983E+03</pdfrwt>
<totfact> 0.37940930E+03</totfact>
</mgrwt>
</event>
<event>
 5    1  0.3209683E-002  0.1250005E+03  0.7818608E-02  0.1235068E+00
         -4   -1    0    0    0  501 -0.00000000000E+00  0.00000000000E+00  0.72684333715E+01  0.73785515975E+01  0.12700000000E+01 0. -1.
          4   -1    0    0  501    0  0.00000000000E+00 -0.00000000000E+00 -0.53327990686E+03  0.53328141910E+03  0.12700000000E+01 0. -1.
         25    2    1    2    0    0  0.00000000000E+00  0.00000000000E+00 -0.52601147349E+03  0.54065997070E+03  0.12500053470E+03 0.  0.
    9000005    1    3    3    0    0  0.53738437606E+02  0.19077187120E+02 -0.15243420129E+03  0.16275424562E+03  0.10000000000E+01 0.  0.
    9000005    1    3    3    0    0 -0.53738437606E+02 -0.19077187120E+02 -0.37357727220E+03  0.37790572508E+03  0.10000000000E+01 0.  0.
<mgrwt>
<rscale>  0 0.12500053E+03</rscale>
<asrwt>0</asrwt>
<pdfrwt beam="2">  1        4 0.82051619E-01 0.12500053E+03</pdfrwt>
<pdfrwt beam="1">  1       -4 0.11268079E-02 0.12500053E+03</pdfrwt>
<totfact> 0.52841518E+03</totfact>
</mgrwt>
</event>
<event>
 5    1  0.3209683E-002  0.1250019E+03  0.7818608E-02  0.1235066E+00
          4   -1    0    0  501    0  0.00000000000E+00  0.00000000000E+00  0.80170873926E+03  0.80170974517E+03  0.12700000000E+01 0. -1.
         -4   -1    0    0    0  501 -0.00000000000E+00 -0.00000000000E+00 -0.47887701419E+01  0.49543132190E+01  0.12700000000E+01 0. -1.
         25    2    1    2    0    0  0.00000000000E+00  0.00000000000E+00  0.79691996912E+03  0.80666405839E+03  0.12500186368E+03 0.  0.
    9000005    1    3    3    0    0 -0.18713726260E+02 -0.56157341354E+02  0.52776864593E+03  0.53107870807E+03  0.10000000000E+01 0.  0.
    9000005    1    3    3    0    0  0.18713726260E+02  0.56157341354E+02  0.26915132319E+03  0.27558535032E+03  0.10000000000E+01 0.  0.
<mgrwt>
<rscale>  0 0.12500186E+03</rscale>
<asrwt>0</asrwt>
<pdfrwt beam="1">  1        4 0.12335274E+00 0.12500186E+03</pdfrwt>
<pdfrwt beam="2">  1       -4 0.74954456E-03 0.12500186E+03</pdfrwt>
<totfact> 0.37967367E+03</totfact>
</mgrwt>
</event>
<event>
 5    1  0.3209683E-002  0.1250000E+03  0.7818608E-02  0.1235069E+00
          4   -1    0    0  501    0  0.00000000000E+00  0.00000000000E+00  0.12527948053E+02  0.12592155591E+02  0.12700000000E+01 0. -1.
         -4   -1    0    0    0  501 -0.00000000000E+00 -0.00000000000E+00 -0.31094032936E+03  0.31094292294E+03  0.12700000000E+01 0. -1.
         25    2    1    2    0    0  0.00000000000E+00  0.00000000000E+00 -0.29841238131E+03  0.32353507853E+03  0.12499999087E+03 0.  0.
    9000005    1    3    3    0    0  0.22017445594E+02 -0.54848925741E+02 -0.20174745382E+03  0.21022894113E+03  0.10000000000E+01 0.  0.
    9000005    1    3    3    0    0 -0.22017445594E+02  0.54848925741E+02 -0.96664927488E+02  0.11330613740E+03  0.10000000000E+01 0.  0.
<mgrwt>
<rscale>  0 0.12499999E+03</rscale>
<asrwt>0</asrwt>
<pdfrwt beam="1">  1        4 0.19325154E-02 0.12499999E+03</pdfrwt>
<pdfrwt beam="2">  1       -4 0.47842107E-01 0.12499999E+03</pdfrwt>
<totfact> 0.72737655E+03</totfact>
</mgrwt>
</event>
<event>
 5    1  0.3209683E-002  0.1250008E+03  0.7818608E-02  0.1235068E+00
          4   -1    0    0  501    0  0.00000000000E+00  0.00000000000E+00  0.11941048937E+03  0.11941724278E+03  0.12700000000E+01 0.  1.
         -4   -1    0    0    0  501 -0.00000000000E+00 -0.00000000000E+00 -0.32693224611E+02  0.32717882503E+02  0.12700000000E+01 0.  1.
         25    2    1    2    0    0  0.00000000000E+00  0.00000000000E+00  0.86717264762E+02  0.15213512528E+03  0.12500084934E+03 0.  0.
    9000005    1    3    3    0    0 -0.96313801095E+01  0.55478156768E+02  0.10369141874E+02  0.57263500281E+02  0.10000000000E+01 0.  0.
    9000005    1    3    3    0    0  0.96313801095E+01 -0.55478156768E+02  0.76348122888E+02  0.94871624998E+02  0.10000000000E+01 0.  0.
<mgrwt>
<rscale>  0 0.12500085E+03</rscale>
<asrwt>0</asrwt>
<pdfrwt beam="1">  1        4 0.18373261E-01 0.12500085E+03</pdfrwt>
<pdfrwt beam="2">  1       -4 0.50321430E-02 0.12500085E+03</pdfrwt>
<totfact> 0.98877893E+03</totfact>
</mgrwt>
</event>
<event>
 5    1  0.3209683E-002  0.1250001E+03  0.7818608E-02  0.1235069E+00
          4   -1    0    0  501    0  0.00000000000E+00  0.00000000000E+00  0.12996394852E+03  0.12997015355E+03  0.12700000000E+01 0. -1.
         -4   -1    0    0    0  501 -0.00000000000E+00 -0.00000000000E+00 -0.30036102654E+02  0.30062940020E+02  0.12700000000E+01 0. -1.
         25    2    1    2    0    0  0.00000000000E+00  0.00000000000E+00  0.99927845864E+02  0.16003309357E+03  0.12500006664E+03 0.  0.
    9000005    1    3    3    0    0 -0.24370640677E+02  0.56832924294E+02  0.61510794378E+02  0.87226642925E+02  0.10000000000E+01 0.  0.
    9000005    1    3    3    0    0  0.24370640677E+02 -0.56832924294E+02  0.38417051486E+02  0.72806450646E+02  0.10000000000E+01 0.  0.
<mgrwt>
<rscale>  0 0.12500007E+03</rscale>
<asrwt>0</asrwt>
<pdfrwt beam="1">  1        4 0.19996995E-01 0.12500007E+03</pdfrwt>
<pdfrwt beam="2">  1       -4 0.46234807E-02 0.12500007E+03</pdfrwt>
<totfact> 0.97336259E+03</totfact>
</mgrwt>
</event>
<event>
 5    1  0.3209683E-002  0.1249984E+03  0.7818608E-02  0.1235072E+00
         -4   -1    0    0    0  501 -0.00000000000E+00  0.00000000000E+00  0.92722753561E+02  0.92731450587E+02  0.12700000000E+01 0.  1.
          4   -1    0    0  501    0  0.00000000000E+00 -0.00000000000E+00 -0.42106922736E+02  0.42126070815E+02  0.12700000000E+01 0.  1.
         25    2    1    2    0    0  0.00000000000E+00  0.00000000000E+00  0.50615830824E+02  0.13485752140E+03  0.12499835498E+03 0.  0.
    9000005    1    3    3    0    0 -0.34857401831E+02 -0.34953371305E+02  0.66649651466E+02  0.82945480097E+02  0.10000000000E+01 0.  0.
    9000005    1    3    3    0    0  0.34857401831E+02  0.34953371305E+02 -0.16033820642E+02  0.51912041304E+02  0.10000000000E+01 0.  0.
<mgrwt>
<rscale>  0 0.12499835E+03</rscale>
<asrwt>0</asrwt>
<pdfrwt beam="2">  1        4 0.64801300E-02 0.12499835E+03</pdfrwt>
<pdfrwt beam="1">  1       -4 0.14267181E-01 0.12499835E+03</pdfrwt>
<totfact> 0.10241455E+04</totfact>
</mgrwt>
</event>
<event>
 5    1  0.3209683E-002  0.1250010E+03  0.7818608E-02  0.1235068E+00
         -4   -1    0    0    0  501 -0.00000000000E+00  0.00000000000E+00  0.58867119880E+01  0.60221489545E+01  0.12700000000E+01 0. -1.
          4   -1    0    0  501    0  0.00000000000E+00 -0.00000000000E+00 -0.65589897735E+03  0.65590020688E+03  0.12700000000E+01 0. -1.
         25    2    1    2    0    0  0.00000000000E+00  0.00000000000E+00 -0.65001226536E+03  0.66192235584E+03  0.12500104014E+03 0.  0.
    9000005    1    3    3    0    0 -0.40186437944E+02 -0.45468141251E+02 -0.24592755510E+03  0.25330547570E+03  0.10000000000E+01 0.  0.
    9000005    1    3    3    0    0  0.40186437944E+02  0.45468141251E+02 -0.40408471026E+03  0.40861688013E+03  0.10000000000E+01 0.  0.
<mgrwt>
<rscale>  0 0.12500104E+03</rscale>
<asrwt>0</asrwt>
<pdfrwt beam="2">  1        4 0.10091799E+00 0.12500104E+03</pdfrwt>
<pdfrwt beam="1">  1       -4 0.91616133E-03 0.12500104E+03</pdfrwt>
<totfact> 0.45173291E+03</totfact>
</mgrwt>
</event>
<event>
 5    1  0.3209683E-002  0.1250007E+03  0.7818608E-02  0.1235068E+00
          4   -1    0    0  501    0  0.00000000000E+00  0.00000000000E+00  0.25867757193E+02  0.25898914305E+02  0.12700000000E+01 0. -1.
         -4   -1    0    0    0  501 -0.00000000000E+00 -0.00000000000E+00 -0.15088536397E+03  0.15089070866E+03  0.12700000000E+01 0. -1.
         25    2    1    2    0    0  0.00000000000E+00  0.00000000000E+00 -0.12501760677E+03  0.17678962296E+03  0.12500067513E+03 0.  0.
    9000005    1    3    3    0    0  0.48958757471E+02 -0.15301224389E+01 -0.76235596128E+01  0.49582455254E+02  0.10000000000E+01 0.  0.
    9000005    1    3    3    0    0 -0.48958757471E+02  0.15301224389E+01 -0.11739404716E+03  0.12720716771E+03  0.10000000000E+01 0.  0.
<mgrwt>
<rscale>  0 0.12500068E+03</rscale>
<asrwt>0</asrwt>
<pdfrwt beam="1">  1        4 0.39824629E-02 0.12500068E+03</pdfrwt>
<pdfrwt beam="2">  1       -4 0.23215940E-01 0.12500068E+03</pdfrwt>
<totfact> 0.94196668E+03</totfact>
</mgrwt>
</event>
<event>
 5    1  0.3209683E-002  0.1250022E+03  0.7818608E-02  0.1235066E+00
         -4   -1    0    0    0  501 -0.00000000000E+00  0.00000000000E+00  0.13855123233E+03  0.13855705280E+03  0.12700000000E+01 0. -1.
          4   -1    0    0  501    0  0.00000000000E+00 -0.00000000000E+00 -0.28173815667E+02  0.28202425236E+02  0.12700000000E+01 0. -1.
         25    2    1    2    0    0  0.00000000000E+00  0.00000000000E+00  0.11037741667E+03  0.16675947804E+03  0.12500219760E+03 0.  0.
    9000005    1    3    3    0    0 -0.19914362910E+02 -0.89404002933E+01  0.13330627186E+03  0.13508543491E+03  0.10000000000E+01 0.  0.
    9000005    1    3    3    0    0  0.19914362910E+02  0.89404002933E+01 -0.22928855194E+02  0.31674043127E+02  0.10000000000E+01 0.  0.
<mgrwt>
<rscale>  0 0.12500220E+03</rscale>
<asrwt>0</asrwt>
<pdfrwt beam="2">  1        4 0.43370816E-02 0.12500220E+03</pdfrwt>
<pdfrwt beam="1">  1       -4 0.21318223E-01 0.12500220E+03</pdfrwt>
<totfact> 0.96050468E+03</totfact>
</mgrwt>
</event>
<event>
 5    1  0.3209683E-002  0.1249968E+03  0.7818608E-02  0.1235074E+00
         -4   -1    0    0    0  501 -0.00000000000E+00  0.00000000000E+00  0.36422820815E+03  0.36423042228E+03  0.12700000000E+01 0.  1.
          4   -1    0    0  501    0  0.00000000000E+00 -0.00000000000E+00 -0.10684333757E+02  0.10759548682E+02  0.12700000000E+01 0.  1.
         25    2    1    2    0    0  0.00000000000E+00  0.00000000000E+00  0.35354387439E+03  0.37498997096E+03  0.12499682876E+03 0.  0.
    9000005    1    3    3    0    0 -0.51606100751E+02 -0.31231031176E+02  0.22574496160E+03  0.23366718775E+03  0.10000000000E+01 0.  0.
    9000005    1    3    3    0    0  0.51606100751E+02  0.31231031176E+02  0.12779891279E+03  0.14132278321E+03  0.10000000000E+01 0.  0.
<mgrwt>
<rscale>  0 0.12499683E+03</rscale>
<asrwt>0</asrwt>
<pdfrwt beam="2">  1        4 0.16496998E-02 0.12499683E+03</pdfrwt>
<pdfrwt beam="1">  1       -4 0.56041064E-01 0.12499683E+03</pdfrwt>
<totfact> 0.67064803E+03</totfact>
</mgrwt>
</event>
<event>
 5    1  0.3209683E-002  0.1250003E+03  0.7818608E-02  0.1235069E+00
          4   -1    0    0  501    0  0.00000000000E+00  0.00000000000E+00  0.15131966961E+02  0.15185167899E+02  0.12700000000E+01 0.  1.
         -4   -1    0    0    0  501 -0.00000000000E+00 -0.00000000000E+00 -0.25763884591E+03  0.25764197604E+03  0.12700000000E+01 0.  1.
         25    2    1    2    0    0  0.00000000000E+00  0.00000000000E+00 -0.24250687895E+03  0.27282714394E+03  0.12500025655E+03 0.  0.
    9000005    1    3    3    0    0  0.55274024668E+02  0.19893902290E+02 -0.16777335344E+03  0.17776356003E+03  0.10000000000E+01 0.  0.
    9000005    1    3    3    0    0 -0.55274024668E+02 -0.19893902290E+02 -0.74733525504E+02  0.95063583909E+02  0.10000000000E+01 0.  0.
<mgrwt>
<rscale>  0 0.12500026E+03</rscale>
<asrwt>0</asrwt>
<pdfrwt beam="1">  1        4 0.23323283E-02 0.12500026E+03</pdfrwt>
<pdfrwt beam="2">  1       -4 0.39641075E-01 0.12500026E+03</pdfrwt>
<totfact> 0.79138438E+03</totfact>
</mgrwt>
</event>
<event>
 5    1  0.3209683E-002  0.1250005E+03  0.7818608E-02  0.1235069E+00
         -4   -1    0    0    0  501 -0.00000000000E+00  0.00000000000E+00  0.12763395373E+04  0.12763401692E+04  0.12700000000E+01 0.  1.
          4   -1    0    0  501    0  0.00000000000E+00 -0.00000000000E+00 -0.29281239264E+01  0.31916781994E+01  0.12700000000E+01 0.  1.
         25    2    1    2    0    0  0.00000000000E+00  0.00000000000E+00  0.12734114134E+04  0.12795318474E+04  0.12500048264E+03 0.  0.
    9000005    1    3    3    0    0  0.34661445720E+02 -0.25638514758E+02  0.17363366186E+03  0.17890890920E+03  0.10000000000E+01 0.  0.
    9000005    1    3    3    0    0 -0.34661445720E+02  0.25638514758E+02  0.10997777515E+04  0.11006229382E+04  0.10000000000E+01 0.  0.
<mgrwt>
<rscale>  0 0.12500048E+03</rscale>
<asrwt>0</asrwt>
<pdfrwt beam="2">  1        4 0.47080217E-03 0.12500048E+03</pdfrwt>
<pdfrwt beam="1">  1       -4 0.19638044E+00 0.12500048E+03</pdfrwt>
<totfact> 0.22716547E+03</totfact>
</mgrwt>
</event>
<event>
 5    1  0.3209683E-002  0.1250054E+03  0.7818608E-02  0.1235061E+00
          4   -1    0    0  501    0  0.00000000000E+00  0.00000000000E+00  0.74035503209E+03  0.74035612137E+03  0.12700000000E+01 0.  1.
         -4   -1    0    0    0  501 -0.00000000000E+00 -0.00000000000E+00 -0.51991168671E+01  0.53519824549E+01  0.12700000000E+01 0.  1.
         25    2    1    2    0    0  0.00000000000E+00  0.00000000000E+00  0.73515591523E+03  0.74570810382E+03  0.12500542554E+03 0.  0.
    9000005    1    3    3    0    0  0.19898554469E+02  0.57218512585E+02  0.45915780964E+03  0.46313799759E+03  0.10000000000E+01 0.  0.
    9000005    1    3    3    0    0 -0.19898554469E+02 -0.57218512585E+02  0.27599810558E+03  0.28257010623E+03  0.10000000000E+01 0.  0.
<mgrwt>
<rscale>  0 0.12500543E+03</rscale>
<asrwt>0</asrwt>
<pdfrwt beam="1">  1        4 0.11391263E+00 0.12500543E+03</pdfrwt>
<pdfrwt beam="2">  1       -4 0.81170673E-03 0.12500543E+03</pdfrwt>
<totfact> 0.40775421E+03</totfact>
</mgrwt>
</event>
<event>
 5    1  0.3209683E-002  0.1249937E+03  0.7818608E-02  0.1235079E+00
          4   -1    0    0  501    0  0.00000000000E+00  0.00000000000E+00  0.28844599342E+02  0.28872544245E+02  0.12700000000E+01 0.  1.
         -4   -1    0    0    0  501 -0.00000000000E+00 -0.00000000000E+00 -0.13531381229E+03  0.13531977201E+03  0.12700000000E+01 0.  1.
         25    2    1    2    0    0  0.00000000000E+00  0.00000000000E+00 -0.10646921295E+03  0.16419231626E+03  0.12499369349E+03 0.  0.
    9000005    1    3    3    0    0 -0.13238648315E+02  0.60474995967E+02 -0.64409431537E+02  0.89342385335E+02  0.10000000000E+01 0.  0.
    9000005    1    3    3    0    0  0.13238648315E+02 -0.60474995967E+02 -0.42059781415E+02  0.74849930922E+02  0.10000000000E+01 0.  0.
<mgrwt>
<rscale>  0 0.12499369E+03</rscale>
<asrwt>0</asrwt>
<pdfrwt beam="1">  1        4 0.44402388E-02 0.12499369E+03</pdfrwt>
<pdfrwt beam="2">  1       -4 0.20820117E-01 0.12499369E+03</pdfrwt>
<totfact> 0.96554254E+03</totfact>
</mgrwt>
</event>
<event>
 5    1  0.3209683E-002  0.1250365E+03  0.7818608E-02  0.1235012E+00
          4   -1    0    0  501    0  0.00000000000E+00  0.00000000000E+00  0.10994263318E+02  0.11067372132E+02  0.12700000000E+01 0.  1.
         -4   -1    0    0    0  501 -0.00000000000E+00 -0.00000000000E+00 -0.35425399283E+03  0.35425626930E+03  0.12700000000E+01 0.  1.
         25    2    1    2    0    0  0.00000000000E+00  0.00000000000E+00 -0.34325972952E+03  0.36532364143E+03  0.12503647901E+03 0.  0.
    9000005    1    3    3    0    0 -0.30801198420E+01 -0.59284010813E+02 -0.11441683364E+03  0.12890420046E+03  0.10000000000E+01 0.  0.
    9000005    1    3    3    0    0  0.30801198420E+01  0.59284010813E+02 -0.22884289588E+03  0.23641944097E+03  0.10000000000E+01 0.  0.
<mgrwt>
<rscale>  0 0.12503648E+03</rscale>
<asrwt>0</asrwt>
<pdfrwt beam="1">  1        4 0.16972243E-02 0.12503648E+03</pdfrwt>
<pdfrwt beam="2">  1       -4 0.54506404E-01 0.12503648E+03</pdfrwt>
<totfact> 0.68016149E+03</totfact>
</mgrwt>
</event>
<event>
 5    1  0.3209683E-002  0.1249989E+03  0.7818608E-02  0.1235071E+00
          4   -1    0    0  501    0  0.00000000000E+00  0.00000000000E+00  0.15668437051E+03  0.15668951740E+03  0.12700000000E+01 0.  1.
         -4   -1    0    0    0  501 -0.00000000000E+00 -0.00000000000E+00 -0.24908516128E+02  0.24940871591E+02  0.12700000000E+01 0.  1.
         25    2    1    2    0    0  0.00000000000E+00  0.00000000000E+00  0.13177585439E+03  0.18163038899E+03  0.12499888962E+03 0.  0.
    9000005    1    3    3    0    0  0.53920381214E+02 -0.14504246369E+02  0.25114234678E+02  0.61233205505E+02  0.10000000000E+01 0.  0.
    9000005    1    3    3    0    0 -0.53920381214E+02  0.14504246369E+02  0.10666161971E+03  0.12039718349E+03  0.10000000000E+01 0.  0.
<mgrwt>
<rscale>  0 0.12499889E+03</rscale>
<asrwt>0</asrwt>
<pdfrwt beam="1">  1        4 0.24108172E-01 0.12499889E+03</pdfrwt>
<pdfrwt beam="2">  1       -4 0.38349643E-02 0.12499889E+03</pdfrwt>
<totfact> 0.93326672E+03</totfact>
</mgrwt>
</event>
<event>
 5    1  0.3209683E-002  0.1249959E+03  0.7818608E-02  0.1235076E+00
         -4   -1    0    0    0  501 -0.00000000000E+00  0.00000000000E+00  0.13179579942E+03  0.13180191821E+03  0.12700000000E+01 0.  1.
          4   -1    0    0  501    0  0.00000000000E+00 -0.00000000000E+00 -0.29616316180E+02  0.29643533596E+02  0.12700000000E+01 0.  1.
         25    2    1    2    0    0  0.00000000000E+00  0.00000000000E+00  0.10217948324E+03  0.16144545181E+03  0.12499594839E+03 0.  0.
    9000005    1    3    3    0    0 -0.20741359335E+02 -0.58091543615E+02  0.64016470472E+02  0.88904105183E+02  0.10000000000E+01 0.  0.
    9000005    1    3    3    0    0  0.20741359335E+02  0.58091543615E+02  0.38163012765E+02  0.72541346624E+02  0.10000000000E+01 0.  0.
<mgrwt>
<rscale>  0 0.12499595E+03</rscale>
<asrwt>0</asrwt>
<pdfrwt beam="2">  1        4 0.45589206E-02 0.12499595E+03</pdfrwt>
<pdfrwt beam="1">  1       -4 0.20278841E-01 0.12499595E+03</pdfrwt>
<totfact> 0.97073673E+03</totfact>
</mgrwt>
</event>
<event>
 5    1  0.3209683E-002  0.1249974E+03  0.7818608E-02  0.1235073E+00
          4   -1    0    0  501    0  0.00000000000E+00  0.00000000000E+00  0.19094701437E+03  0.19095123774E+03  0.12700000000E+01 0. -1.
         -4   -1    0    0    0  501 -0.00000000000E+00 -0.00000000000E+00 -0.20432234351E+02  0.20471665799E+02  0.12700000000E+01 0. -1.
         25    2    1    2    0    0  0.00000000000E+00  0.00000000000E+00  0.17051478002E+03  0.21142290354E+03  0.12499741573E+03 0.  0.
    9000005    1    3    3    0    0 -0.51737099674E+02 -0.24967541579E+02  0.12686018774E+03  0.13926454268E+03  0.10000000000E+01 0.  0.
    9000005    1    3    3    0    0  0.51737099674E+02  0.24967541579E+02  0.43654592275E+02  0.72158360859E+02  0.10000000000E+01 0.  0.
<mgrwt>
<rscale>  0 0.12499742E+03</rscale>
<asrwt>0</asrwt>
<pdfrwt beam="1">  1        4 0.29379821E-01 0.12499742E+03</pdfrwt>
<pdfrwt beam="2">  1       -4 0.31467788E-02 0.12499742E+03</pdfrwt>
<totfact> 0.88249126E+03</totfact>
</mgrwt>
</event>
<event>
 5    1  0.3209683E-002  0.1249990E+03  0.7818608E-02  0.1235071E+00
         -4   -1    0    0    0  501 -0.00000000000E+00  0.00000000000E+00  0.11451504048E+03  0.11452208257E+03  0.12700000000E+01 0.  1.
          4   -1    0    0  501    0  0.00000000000E+00 -0.00000000000E+00 -0.34090773167E+02  0.34114420926E+02  0.12700000000E+01 0.  1.
         25    2    1    2    0    0  0.00000000000E+00  0.00000000000E+00  0.80424267317E+02  0.14863650350E+03  0.12499898959E+03 0.  0.
    9000005    1    3    3    0    0 -0.46753705678E+02  0.19588198155E+02 -0.32442905873E+01  0.50804841531E+02  0.10000000000E+01 0.  0.
    9000005    1    3    3    0    0  0.46753705678E+02 -0.19588198155E+02  0.83668557904E+02  0.97831661968E+02  0.10000000000E+01 0.  0.
<mgrwt>
<rscale>  0 0.12499899E+03</rscale>
<asrwt>0</asrwt>
<pdfrwt beam="2">  1        4 0.52470951E-02 0.12499899E+03</pdfrwt>
<pdfrwt beam="1">  1       -4 0.17620059E-01 0.12499899E+03</pdfrwt>
<totfact> 0.99578452E+03</totfact>
</mgrwt>
</event>
<event>
 5    1  0.3209683E-002  0.1250040E+03  0.7818608E-02  0.1235063E+00
          4   -1    0    0  501    0  0.00000000000E+00  0.00000000000E+00  0.32587025269E+01  0.34974336532E+01  0.12700000000E+01 0. -1.
         -4   -1    0    0    0  501 -0.00000000000E+00 -0.00000000000E+00 -0.11561906702E+04  0.11561913677E+04  0.12700000000E+01 0. -1.
         25    2    1    2    0    0  0.00000000000E+00  0.00000000000E+00 -0.11529319677E+04  0.11596888014E+04  0.12500397560E+03 0.  0.
    9000005    1    3    3    0    0 -0.25481958694E+02 -0.47704867911E+02 -0.28598189165E+03  0.29105279073E+03  0.10000000000E+01 0.  0.
    9000005    1    3    3    0    0  0.25481958694E+02  0.47704867911E+02 -0.86695007604E+03  0.86863601064E+03  0.10000000000E+01 0.  0.
<mgrwt>
<rscale>  0 0.12500398E+03</rscale>
<asrwt>0</asrwt>
<pdfrwt beam="1">  1        4 0.51975736E-03 0.12500398E+03</pdfrwt>
<pdfrwt beam="2">  1       -4 0.17789359E+00 0.12500398E+03</pdfrwt>
<totfact> 0.25790748E+03</totfact>
</mgrwt>
</event>
<event>
 5    1  0.3209683E-002  0.1250008E+03  0.7818608E-02  0.1235068E+00
         -4   -1    0    0    0  501 -0.00000000000E+00  0.00000000000E+00  0.18613852319E+02  0.18657127275E+02  0.12700000000E+01 0.  1.
          4   -1    0    0  501    0  0.00000000000E+00 -0.00000000000E+00 -0.20957080828E+03  0.20957465635E+03  0.12700000000E+01 0.  1.
         25    2    1    2    0    0  0.00000000000E+00  0.00000000000E+00 -0.19095695596E+03  0.22823178362E+03  0.12500075210E+03 0.  0.
    9000005    1    3    3    0    0  0.21042228827E+02 -0.57173988773E+02 -0.70069940238E+02  0.92857077873E+02  0.10000000000E+01 0.  0.
    9000005    1    3    3    0    0 -0.21042228827E+02  0.57173988773E+02 -0.12088701572E+03  0.13537470575E+03  0.10000000000E+01 0.  0.
<mgrwt>
<rscale>  0 0.12500075E+03</rscale>
<asrwt>0</asrwt>
<pdfrwt beam="2">  1        4 0.32245286E-01 0.12500075E+03</pdfrwt>
<pdfrwt beam="1">  1       -4 0.28672946E-02 0.12500075E+03</pdfrwt>
<totfact> 0.85580414E+03</totfact>
</mgrwt>
</event>
<event>
 5    1  0.3209683E-002  0.1250080E+03  0.7818608E-02  0.1235057E+00
          4   -1    0    0  501    0  0.00000000000E+00  0.00000000000E+00  0.96418890975E+03  0.96418974616E+03  0.12700000000E+01 0. -1.
         -4   -1    0    0    0  501 -0.00000000000E+00 -0.00000000000E+00 -0.39514782899E+01  0.41505518519E+01  0.12700000000E+01 0. -1.
         25    2    1    2    0    0  0.00000000000E+00  0.00000000000E+00  0.96023743146E+03  0.96834029801E+03  0.12500803159E+03 0.  0.
    9000005    1    3    3    0    0  0.37834154661E+02 -0.63583171107E+01  0.97961994675E+02  0.10521123446E+03  0.10000000000E+01 0.  0.
    9000005    1    3    3    0    0 -0.37834154661E+02  0.63583171107E+01  0.86227543679E+03  0.86312906355E+03  0.10000000000E+01 0.  0.
<mgrwt>
<rscale>  0 0.12500803E+03</rscale>
<asrwt>0</asrwt>
<pdfrwt beam="1">  1        4 0.14835222E+00 0.12500803E+03</pdfrwt>
<pdfrwt beam="2">  1       -4 0.62329704E-03 0.12500803E+03</pdfrwt>
<totfact> 0.31668068E+03</totfact>
</mgrwt>
</event>
<event>
 5    1  0.3209683E-002  0.1249976E+03  0.7818608E-02  0.1235073E+00
         -4   -1    0    0    0  501 -0.00000000000E+00  0.00000000000E+00  0.53738774415E+01  0.55219071666E+01  0.12700000000E+01 0.  1.
          4   -1    0    0  501    0  0.00000000000E+00 -0.00000000000E+00 -0.71684446241E+03  0.71684558741E+03  0.12700000000E+01 0.  1.
         25    2    1    2    0    0  0.00000000000E+00  0.00000000000E+00 -0.71147058497E+03  0.72236749458E+03  0.12499761575E+03 0.  0.
    9000005    1    3    3    0    0  0.28433406928E+02 -0.35413720098E+02 -0.60379800329E+03  0.60550443349E+03  0.10000000000E+01 0.  0.
    9000005    1    3    3    0    0 -0.28433406928E+02  0.35413720098E+02 -0.10767258168E+03  0.11686306109E+03  0.10000000000E+01 0.  0.
<mgrwt>
<rscale>  0 0.12499762E+03</rscale>
<asrwt>0</asrwt>
<pdfrwt beam="2">  1        4 0.11029516E+00 0.12499762E+03</pdfrwt>
<pdfrwt beam="1">  1       -4 0.83822439E-03 0.12499762E+03</pdfrwt>
<totfact> 0.41934127E+03</totfact>
</mgrwt>
</event>
<event>
 5    1  0.3209683E-002  0.1249984E+03  0.7818608E-02  0.1235072E+00
         -4   -1    0    0    0  501 -0.00000000000E+00  0.00000000000E+00  0.81979781806E+03  0.81979880178E+03  0.12700000000E+01 0.  1.
          4   -1    0    0  501    0  0.00000000000E+00 -0.00000000000E+00 -0.46791382082E+01  0.48484259685E+01  0.12700000000E+01 0.  1.
         25    2    1    2    0    0  0.00000000000E+00  0.00000000000E+00  0.81511867985E+03  0.82464722774E+03  0.12499835193E+03 0.  0.
    9000005    1    3    3    0    0  0.39982619684E+01 -0.36893563621E+02  0.75852312437E+02  0.84449360196E+02  0.10000000000E+01 0.  0.
    9000005    1    3    3    0    0 -0.39982619684E+01  0.36893563621E+02  0.73926636741E+03  0.74019786755E+03  0.10000000000E+01 0.  0.
<mgrwt>
<rscale>  0 0.12499835E+03</rscale>
<asrwt>0</asrwt>
<pdfrwt beam="2">  1        4 0.73296482E-03 0.12499835E+03</pdfrwt>
<pdfrwt beam="1">  1       -4 0.12613591E+00 0.12499835E+03</pdfrwt>
<totfact> 0.37189126E+03</totfact>
</mgrwt>
</event>
<event>
 5    1  0.3209683E-002  0.1249997E+03  0.7818608E-02  0.1235070E+00
          4   -1    0    0  501    0  0.00000000000E+00  0.00000000000E+00  0.39254476535E+03  0.39254681976E+03  0.12700000000E+01 0.  1.
         -4   -1    0    0    0  501 -0.00000000000E+00 -0.00000000000E+00 -0.99084419452E+01  0.99895005771E+01  0.12700000000E+01 0.  1.
         25    2    1    2    0    0  0.00000000000E+00  0.00000000000E+00  0.38263632341E+03  0.40253632034E+03  0.12499973281E+03 0.  0.
    9000005    1    3    3    0    0 -0.30269020159E+02 -0.29754164845E+02  0.33902100673E+03  0.34166908978E+03  0.10000000000E+01 0.  0.
    9000005    1    3    3    0    0  0.30269020159E+02  0.29754164845E+02  0.43615316673E+02  0.60867230555E+02  0.10000000000E+01 0.  0.
<mgrwt>
<rscale>  0 0.12499973E+03</rscale>
<asrwt>0</asrwt>
<pdfrwt beam="1">  1        4 0.60397899E-01 0.12499973E+03</pdfrwt>
<pdfrwt beam="2">  1       -4 0.15307689E-02 0.12499973E+03</pdfrwt>
<totfact> 0.64307230E+03</totfact>
</mgrwt>
</event>
<event>
 5    1  0.3209683E-002  0.1250049E+03  0.7818608E-02  0.1235062E+00
          4   -1    0    0  501    0  0.00000000000E+00  0.00000000000E+00  0.35830503866E+03  0.35830728939E+03  0.12700000000E+01 0. -1.
         -4   -1    0    0    0  501 -0.00000000000E+00 -0.00000000000E+00 -0.10863607409E+02  0.10937589586E+02  0.12700000000E+01 0. -1.
         25    2    1    2    0    0  0.00000000000E+00  0.00000000000E+00  0.34744143125E+03  0.36924487897E+03  0.12500492990E+03 0.  0.
    9000005    1    3    3    0    0  0.45019776768E+01 -0.18352268112E+02 -0.22371968306E+01  0.19054621422E+02  0.10000000000E+01 0.  0.
    9000005    1    3    3    0    0 -0.45019776768E+01  0.18352268112E+02  0.34967862808E+03  0.35019025755E+03  0.10000000000E+01 0.  0.
<mgrwt>
<rscale>  0 0.12500493E+03</rscale>
<asrwt>0</asrwt>
<pdfrwt beam="1">  1        4 0.55129715E-01 0.12500493E+03</pdfrwt>
<pdfrwt beam="2">  1       -4 0.16771883E-02 0.12500493E+03</pdfrwt>
<totfact> 0.67650636E+03</totfact>
</mgrwt>
</event>
<event>
 5    1  0.3209683E-002  0.1249994E+03  0.7818608E-02  0.1235070E+00
         -4   -1    0    0    0  501 -0.00000000000E+00  0.00000000000E+00  0.23632152299E+02  0.23666252814E+02  0.12700000000E+01 0. -1.
          4   -1    0    0  501    0  0.00000000000E+00 -0.00000000000E+00 -0.16513655768E+03  0.16514144114E+03  0.12700000000E+01 0. -1.
         25    2    1    2    0    0  0.00000000000E+00  0.00000000000E+00 -0.14150440538E+03  0.18880769396E+03  0.12499939422E+03 0.  0.
    9000005    1    3    3    0    0 -0.12250172468E+01 -0.12540835869E+02  0.21700818386E+02  0.25113716375E+02  0.10000000000E+01 0.  0.
    9000005    1    3    3    0    0  0.12250172468E+01  0.12540835869E+02 -0.16320522377E+03  0.16369397758E+03  0.10000000000E+01 0.  0.
<mgrwt>
<rscale>  0 0.12499939E+03</rscale>
<asrwt>0</asrwt>
<pdfrwt beam="2">  1        4 0.25408622E-01 0.12499939E+03</pdfrwt>
<pdfrwt beam="1">  1       -4 0.36387146E-02 0.12499939E+03</pdfrwt>
<totfact> 0.92056436E+03</totfact>
</mgrwt>
</event>
<event>
 5    1  0.3209683E-002  0.1249997E+03  0.7818608E-02  0.1235070E+00
         -4   -1    0    0    0  501 -0.00000000000E+00  0.00000000000E+00  0.75256928132E+02  0.75267643326E+02  0.12700000000E+01 0.  1.
          4   -1    0    0  501    0  0.00000000000E+00 -0.00000000000E+00 -0.51883099844E+02  0.51898641113E+02  0.12700000000E+01 0.  1.
         25    2    1    2    0    0  0.00000000000E+00  0.00000000000E+00  0.23373828288E+02  0.12716628444E+03  0.12499971220E+03 0.  0.
    9000005    1    3    3    0    0 -0.32101105533E+02  0.42117287479E+02 -0.22067764070E+02  0.57378855793E+02  0.10000000000E+01 0.  0.
    9000005    1    3    3    0    0  0.32101105533E+02 -0.42117287479E+02  0.45441592359E+02  0.69787428647E+02  0.10000000000E+01 0.  0.
<mgrwt>
<rscale>  0 0.12499971E+03</rscale>
<asrwt>0</asrwt>
<pdfrwt beam="2">  1        4 0.79840351E-02 0.12499971E+03</pdfrwt>
<pdfrwt beam="1">  1       -4 0.11580009E-01 0.12499971E+03</pdfrwt>
<totfact> 0.10405603E+04</totfact>
</mgrwt>
</event>
<event>
 5    1  0.3209683E-002  0.1250005E+03  0.7818608E-02  0.1235068E+00
         -4   -1    0    0    0  501 -0.00000000000E+00  0.00000000000E+00  0.19677401873E+03  0.19677811704E+03  0.12700000000E+01 0.  1.
          4   -1    0    0  501    0  0.00000000000E+00 -0.00000000000E+00 -0.19826999801E+02  0.19867632499E+02  0.12700000000E+01 0.  1.
         25    2    1    2    0    0  0.00000000000E+00  0.00000000000E+00  0.17694701893E+03  0.21664574954E+03  0.12500053315E+03 0.  0.
    9000005    1    3    3    0    0 -0.57829718524E+02  0.42222734584E+00  0.12951786332E+03  0.14184615447E+03  0.10000000000E+01 0.  0.
    9000005    1    3    3    0    0  0.57829718524E+02 -0.42222734584E+00  0.47429155611E+02  0.74799595069E+02  0.10000000000E+01 0.  0.
<mgrwt>
<rscale>  0 0.12500053E+03</rscale>
<asrwt>0</asrwt>
<pdfrwt beam="2">  1        4 0.30537485E-02 0.12500053E+03</pdfrwt>
<pdfrwt beam="1">  1       -4 0.30276367E-01 0.12500053E+03</pdfrwt>
<totfact> 0.87400872E+03</totfact>
</mgrwt>
</event>
<event>
 5    1  0.3209683E-002  0.1249950E+03  0.7818608E-02  0.1235077E+00
         -4   -1    0    0    0  501 -0.00000000000E+00  0.00000000000E+00  0.12665836722E+04  0.12665843089E+04  0.12700000000E+01 0.  1.
          4   -1    0    0  501    0  0.00000000000E+00 -0.00000000000E+00 -0.29524187889E+01  0.32139814413E+01  0.12700000000E+01 0.  1.
         25    2    1    2    0    0  0.00000000000E+00  0.00000000000E+00  0.12636312534E+04  0.12697982903E+04  0.12499501425E+03 0.  0.
    9000005    1    3    3    0    0  0.36374944466E+01  0.61438692117E+02  0.52193424640E+03  0.52555142643E+03  0.10000000000E+01 0.  0.
    9000005    1    3    3    0    0 -0.36374944466E+01 -0.61438692117E+02  0.74169700697E+03  0.74424686388E+03  0.10000000000E+01 0.  0.
<mgrwt>
<rscale>  0 0.12499501E+03</rscale>
<asrwt>0</asrwt>
<pdfrwt beam="2">  1        4 0.47438781E-03 0.12499501E+03</pdfrwt>
<pdfrwt beam="1">  1       -4 0.19487905E+00 0.12499501E+03</pdfrwt>
<totfact> 0.22955263E+03</totfact>
</mgrwt>
</event>
<event>
 5    1  0.3209683E-002  0.1250008E+03  0.7818608E-02  0.1235068E+00
          4   -1    0    0  501    0  0.00000000000E+00  0.00000000000E+00  0.28481157078E+03  0.28481440229E+03  0.12700000000E+01 0. -1.
         -4   -1    0    0    0  501 -0.00000000000E+00 -0.00000000000E+00 -0.13683074868E+02  0.13741886255E+02  0.12700000000E+01 0. -1.
         25    2    1    2    0    0  0.00000000000E+00  0.00000000000E+00  0.27112849592E+03  0.29855628855E+03  0.12500078453E+03 0.  0.
    9000005    1    3    3    0    0 -0.94959340883E+01  0.19626783422E+02 -0.43156168420E+01  0.22248773909E+02  0.10000000000E+01 0.  0.
    9000005    1    3    3    0    0  0.94959340883E+01 -0.19626783422E+02  0.27544411276E+03  0.27630751464E+03  0.10000000000E+01 0.  0.
<mgrwt>
<rscale>  0 0.12500078E+03</rscale>
<asrwt>0</asrwt>
<pdfrwt beam="1">  1        4 0.43821908E-01 0.12500078E+03</pdfrwt>
<pdfrwt beam="2">  1       -4 0.21098302E-02 0.12500078E+03</pdfrwt>
<totfact> 0.75778971E+03</totfact>
</mgrwt>
</event>
<event>
 5    1  0.3209683E-002  0.1249971E+03  0.7818608E-02  0.1235074E+00
         -4   -1    0    0    0  501 -0.00000000000E+00  0.00000000000E+00  0.21678694676E+02  0.21715862931E+02  0.12700000000E+01 0. -1.
          4   -1    0    0  501    0  0.00000000000E+00 -0.00000000000E+00 -0.17998623828E+03  0.17999071884E+03  0.12700000000E+01 0. -1.
         25    2    1    2    0    0  0.00000000000E+00  0.00000000000E+00 -0.15830754360E+03  0.20170658177E+03  0.12499706704E+03 0.  0.
    9000005    1    3    3    0    0 -0.36382586917E+02  0.30197146129E+02 -0.14508851128E+03  0.15260156084E+03  0.10000000000E+01 0.  0.
    9000005    1    3    3    0    0  0.36382586917E+02 -0.30197146129E+02 -0.13219032318E+02  0.49105020930E+02  0.10000000000E+01 0.  0.
<mgrwt>
<rscale>  0 0.12499707E+03</rscale>
<asrwt>0</asrwt>
<pdfrwt beam="2">  1        4 0.27693393E-01 0.12499707E+03</pdfrwt>
<pdfrwt beam="1">  1       -4 0.33383877E-02 0.12499707E+03</pdfrwt>
<totfact> 0.89854370E+03</totfact>
</mgrwt>
</event>
<event>
 5    1  0.3209683E-002  0.1250042E+03  0.7818608E-02  0.1235063E+00
          4   -1    0    0  501    0  0.00000000000E+00  0.00000000000E+00  0.33684169060E+03  0.33684408475E+03  0.12700000000E+01 0. -1.
         -4   -1    0    0    0  501 -0.00000000000E+00 -0.00000000000E+00 -0.11560258027E+02  0.11629809356E+02  0.12700000000E+01 0. -1.
         25    2    1    2    0    0  0.00000000000E+00  0.00000000000E+00  0.32528143258E+03  0.34847389410E+03  0.12500417790E+03 0.  0.
    9000005    1    3    3    0    0 -0.29333349612E+01  0.60882974927E+02  0.20108367111E+03  0.21012135511E+03  0.10000000000E+01 0.  0.
    9000005    1    3    3    0    0  0.29333349612E+01 -0.60882974927E+02  0.12419776147E+03  0.13835253899E+03  0.10000000000E+01 0.  0.
<mgrwt>
<rscale>  0 0.12500418E+03</rscale>
<asrwt>0</asrwt>
<pdfrwt beam="1">  1        4 0.51827330E-01 0.12500418E+03</pdfrwt>
<pdfrwt beam="2">  1       -4 0.17840356E-02 0.12500418E+03</pdfrwt>
<totfact> 0.69886311E+03</totfact>
</mgrwt>
</event>
<event>
 5    1  0.3209683E-002  0.1250021E+03  0.7818608E-02  0.1235066E+00
         -4   -1    0    0    0  501 -0.00000000000E+00  0.00000000000E+00  0.37106575963E+03  0.37106793295E+03  0.12700000000E+01 0. -1.
          4   -1    0    0  501    0  0.00000000000E+00 -0.00000000000E+00 -0.10486952484E+02  0.10563572899E+02  0.12700000000E+01 0. -1.
         25    2    1    2    0    0  0.00000000000E+00  0.00000000000E+00  0.36057880714E+03  0.38163150585E+03  0.12500212038E+03 0.  0.
    9000005    1    3    3    0    0 -0.27489573762E+02  0.56102669104E+02  0.18481400632E+03  0.19509075600E+03  0.10000000000E+01 0.  0.
    9000005    1    3    3    0    0  0.27489573762E+02 -0.56102669104E+02  0.17576480082E+03  0.18654074985E+03  0.10000000000E+01 0.  0.
<mgrwt>
<rscale>  0 0.12500212E+03</rscale>
<asrwt>0</asrwt>
<pdfrwt beam="2">  1        4 0.16194384E-02 0.12500212E+03</pdfrwt>
<pdfrwt beam="1">  1       -4 0.57093101E-01 0.12500212E+03</pdfrwt>
<totfact> 0.66376256E+03</totfact>
</mgrwt>
</event>
<event>
 5    1  0.3209683E-002  0.1250037E+03  0.7818608E-02  0.1235064E+00
         -4   -1    0    0    0  501 -0.00000000000E+00  0.00000000000E+00  0.59313523463E+03  0.59313659427E+03  0.12700000000E+01 0.  1.
          4   -1    0    0  501    0  0.00000000000E+00 -0.00000000000E+00 -0.65235497957E+01  0.66460215119E+01  0.12700000000E+01 0.  1.
         25    2    1    2    0    0  0.00000000000E+00  0.00000000000E+00  0.58661168484E+03  0.59978261578E+03  0.12500366958E+03 0.  0.
    9000005    1    3    3    0    0 -0.13468899418E+02  0.59895418748E+02  0.34938577088E+03  0.35473974873E+03  0.10000000000E+01 0.  0.
    9000005    1    3    3    0    0  0.13468899418E+02 -0.59895418748E+02  0.23722591396E+03  0.24504286705E+03  0.10000000000E+01 0.  0.
<mgrwt>
<rscale>  0 0.12500367E+03</rscale>
<asrwt>0</asrwt>
<pdfrwt beam="2">  1        4 0.10131481E-02 0.12500367E+03</pdfrwt>
<pdfrwt beam="1">  1       -4 0.91261140E-01 0.12500367E+03</pdfrwt>
<totfact> 0.48877386E+03</totfact>
</mgrwt>
</event>
<event>
 5    1  0.3209683E-002  0.1250002E+03  0.7818608E-02  0.1235069E+00
          4   -1    0    0  501    0  0.00000000000E+00  0.00000000000E+00  0.19689196560E+02  0.19730113056E+02  0.12700000000E+01 0.  1.
         -4   -1    0    0    0  501 -0.00000000000E+00 -0.00000000000E+00 -0.19814750455E+03  0.19815157446E+03  0.12700000000E+01 0.  1.
         25    2    1    2    0    0  0.00000000000E+00  0.00000000000E+00 -0.17845830799E+03  0.21788168751E+03  0.12500024825E+03 0.  0.
    9000005    1    3    3    0    0 -0.59128273350E+02 -0.26807589388E+01 -0.54284311466E+02  0.80318899701E+02  0.10000000000E+01 0.  0.
    9000005    1    3    3    0    0  0.59128273350E+02  0.26807589388E+01 -0.12417399652E+03  0.13756278781E+03  0.10000000000E+01 0.  0.
<mgrwt>
<rscale>  0 0.12500025E+03</rscale>
<asrwt>0</asrwt>
<pdfrwt beam="1">  1        4 0.30325678E-02 0.12500025E+03</pdfrwt>
<pdfrwt beam="2">  1       -4 0.30487691E-01 0.12500025E+03</pdfrwt>
<totfact> 0.87204175E+03</totfact>
</mgrwt>
</event>
<event>
 5    1  0.3209683E-002  0.1250011E+03  0.7818608E-02  0.1235068E+00
          4   -1    0    0  501    0  0.00000000000E+00  0.00000000000E+00  0.24956605467E+03  0.24956928605E+03  0.12700000000E+01 0. -1.
         -4   -1    0    0    0  501 -0.00000000000E+00 -0.00000000000E+00 -0.15623336522E+02  0.15674869827E+02  0.12700000000E+01 0. -1.
         25    2    1    2    0    0  0.00000000000E+00  0.00000000000E+00  0.23394271814E+03  0.26524415588E+03  0.12500106742E+03 0.  0.
    9000005    1    3    3    0    0 -0.39596321426E+02  0.12773428098E+02  0.21591561676E+03  0.21988993314E+03  0.10000000000E+01 0.  0.
    9000005    1    3    3    0    0  0.39596321426E+02 -0.12773428098E+02  0.18027101380E+02  0.45354222736E+02  0.10000000000E+01 0.  0.
<mgrwt>
<rscale>  0 0.12500107E+03</rscale>
<asrwt>0</asrwt>
<pdfrwt beam="1">  1        4 0.38398990E-01 0.12500107E+03</pdfrwt>
<pdfrwt beam="2">  1       -4 0.24078029E-02 0.12500107E+03</pdfrwt>
<totfact> 0.80173799E+03</totfact>
</mgrwt>
</event>
<event>
 5    1  0.3209683E-002  0.1249976E+03  0.7818608E-02  0.1235073E+00
         -4   -1    0    0    0  501 -0.00000000000E+00  0.00000000000E+00  0.70650987639E+02  0.70662401278E+02  0.12700000000E+01 0. -1.
          4   -1    0    0  501    0  0.00000000000E+00 -0.00000000000E+00 -0.55264115919E+02  0.55278706645E+02  0.12700000000E+01 0. -1.
         25    2    1    2    0    0  0.00000000000E+00  0.00000000000E+00  0.15386871720E+02  0.12594110792E+03  0.12499762735E+03 0.  0.
    9000005    1    3    3    0    0 -0.54746737218E+02  0.27332151683E+02  0.20471828181E+02  0.64531755754E+02  0.10000000000E+01 0.  0.
    9000005    1    3    3    0    0  0.54746737218E+02 -0.27332151683E+02 -0.50849564609E+01  0.61409352169E+02  0.10000000000E+01 0.  0.
<mgrwt>
<rscale>  0 0.12499763E+03</rscale>
<asrwt>0</asrwt>
<pdfrwt beam="2">  1        4 0.85041720E-02 0.12499763E+03</pdfrwt>
<pdfrwt beam="1">  1       -4 0.10871383E-01 0.12499763E+03</pdfrwt>
<totfact> 0.10432806E+04</totfact>
</mgrwt>
</event>
<event>
 5    1  0.3209683E-002  0.1249994E+03  0.7818608E-02  0.1235070E+00
         -4   -1    0    0    0  501 -0.00000000000E+00  0.00000000000E+00  0.93010197017E+02  0.93018867168E+02  0.12700000000E+01 0.  1.
          4   -1    0    0  501    0  0.00000000000E+00 -0.00000000000E+00 -0.41977416755E+02  0.41996623881E+02  0.12700000000E+01 0.  1.
         25    2    1    2    0    0  0.00000000000E+00  0.00000000000E+00  0.51032780262E+02  0.13501549105E+03  0.12499935265E+03 0.  0.
    9000005    1    3    3    0    0  0.47173998287E+02 -0.37501386046E+02  0.76543828734E+01  0.60756313638E+02  0.10000000000E+01 0.  0.
    9000005    1    3    3    0    0 -0.47173998287E+02  0.37501386046E+02  0.43378397389E+02  0.74259177411E+02  0.10000000000E+01 0.  0.
<mgrwt>
<rscale>  0 0.12499935E+03</rscale>
<asrwt>0</asrwt>
<pdfrwt beam="2">  1        4 0.64602086E-02 0.12499935E+03</pdfrwt>
<pdfrwt beam="1">  1       -4 0.14311405E-01 0.12499935E+03</pdfrwt>
<totfact> 0.10237894E+04</totfact>
</mgrwt>
</event>
<event>
 5    1  0.3209683E-002  0.1250000E+03  0.7818608E-02  0.1235069E+00
         -4   -1    0    0    0  501 -0.00000000000E+00  0.00000000000E+00  0.35495860960E+02  0.35518573244E+02  0.12700000000E+01 0. -1.
          4   -1    0    0  501    0  0.00000000000E+00 -0.00000000000E+00 -0.10998644471E+03  0.10999377673E+03  0.12700000000E+01 0. -1.
         25    2    1    2    0    0  0.00000000000E+00  0.00000000000E+00 -0.74490583752E+02  0.14551234998E+03  0.12499998771E+03 0.  0.
    9000005    1    3    3    0    0  0.56926273252E+02 -0.15184759693E+02 -0.12992003552E+02  0.60340448040E+02  0.10000000000E+01 0.  0.
    9000005    1    3    3    0    0 -0.56926273252E+02  0.15184759693E+02 -0.61498580200E+02  0.85171901939E+02  0.10000000000E+01 0.  0.
<mgrwt>
<rscale>  0 0.12499999E+03</rscale>
<asrwt>0</asrwt>
<pdfrwt beam="2">  1        4 0.16923302E-01 0.12499999E+03</pdfrwt>
<pdfrwt beam="1">  1       -4 0.54632129E-02 0.12499999E+03</pdfrwt>
<totfact> 0.10020592E+04</totfact>
</mgrwt>
</event>
<event>
 5    1  0.3209683E-002  0.1250109E+03  0.7818608E-02  0.1235052E+00
         -4   -1    0    0    0  501 -0.00000000000E+00  0.00000000000E+00  0.47288050149E+03  0.47288220689E+03  0.12700000000E+01 0.  1.
          4   -1    0    0  501    0  0.00000000000E+00 -0.00000000000E+00 -0.82114536769E+01  0.83090836732E+01  0.12700000000E+01 0.  1.
         25    2    1    2    0    0  0.00000000000E+00  0.00000000000E+00  0.46466904782E+03  0.48119129056E+03  0.12501093598E+03 0.  0.
    9000005    1    3    3    0    0  0.38906405482E+02 -0.38623239264E+02  0.34784051298E+03  0.35213560665E+03  0.10000000000E+01 0.  0.
    9000005    1    3    3    0    0 -0.38906405482E+02  0.38623239264E+02  0.11682853483E+03  0.12905568391E+03  0.10000000000E+01 0.  0.
<mgrwt>
<rscale>  0 0.12501094E+03</rscale>
<asrwt>0</asrwt>
<pdfrwt beam="2">  1        4 0.12709417E-02 0.12501094E+03</pdfrwt>
<pdfrwt beam="1">  1       -4 0.72758490E-01 0.12501094E+03</pdfrwt>
<totfact> 0.57340003E+03</totfact>
</mgrwt>
</event>
<event>
 5    1  0.3209683E-002  0.1250020E+03  0.7818608E-02  0.1235066E+00
         -4   -1    0    0    0  501 -0.00000000000E+00  0.00000000000E+00  0.62880980704E+02  0.62893804419E+02  0.12700000000E+01 0. -1.
          4   -1    0    0  501    0  0.00000000000E+00 -0.00000000000E+00 -0.62097689531E+02  0.62110674969E+02  0.12700000000E+01 0. -1.
         25    2    1    2    0    0  0.00000000000E+00  0.00000000000E+00  0.78329117351E+00  0.12500447939E+03  0.12500202527E+03 0.  0.
    9000005    1    3    3    0    0 -0.28102163047E+02  0.39084955069E+02  0.40242287414E+02  0.62751947994E+02  0.10000000000E+01 0.  0.
    9000005    1    3    3    0    0  0.28102163047E+02 -0.39084955069E+02 -0.39458996241E+02  0.62252531394E+02  0.10000000000E+01 0.  0.
<mgrwt>
<rscale>  0 0.12500203E+03</rscale>
<asrwt>0</asrwt>
<pdfrwt beam="2">  1        4 0.95554760E-02 0.12500203E+03</pdfrwt>
<pdfrwt beam="1">  1       -4 0.96759824E-02 0.12500203E+03</pdfrwt>
<totfact> 0.10452287E+04</totfact>
</mgrwt>
</event>
<event>
 5    1  0.3209683E-002  0.1249980E+03  0.7818608E-02  0.1235072E+00
         -4   -1    0    0    0  501 -0.00000000000E+00  0.00000000000E+00  0.16160502083E+02  0.16210327806E+02  0.12700000000E+01 0.  1.
          4   -1    0    0  501    0  0.00000000000E+00 -0.00000000000E+00 -0.24128470091E+03  0.24128804321E+03  0.12700000000E+01 0.  1.
         25    2    1    2    0    0  0.00000000000E+00  0.00000000000E+00 -0.22512419883E+03  0.25749837101E+03  0.12499802469E+03 0.  0.
    9000005    1    3    3    0    0 -0.58798915736E+02  0.20867140865E+02 -0.11980929506E+03  0.13508522215E+03  0.10000000000E+01 0.  0.
    9000005    1    3    3    0    0  0.58798915736E+02 -0.20867140865E+02 -0.10531490377E+03  0.12241314887E+03  0.10000000000E+01 0.  0.
<mgrwt>
<rscale>  0 0.12499802E+03</rscale>
<asrwt>0</asrwt>
<pdfrwt beam="2">  1        4 0.37124811E-01 0.12499802E+03</pdfrwt>
<pdfrwt beam="1">  1       -4 0.24903211E-02 0.12499802E+03</pdfrwt>
<totfact> 0.81261990E+03</totfact>
</mgrwt>
</event>
<event>
 5    1  0.3209683E-002  0.1250007E+03  0.7818608E-02  0.1235068E+00
          4   -1    0    0  501    0  0.00000000000E+00  0.00000000000E+00  0.16622953814E+03  0.16623438949E+03  0.12700000000E+01 0. -1.
         -4   -1    0    0    0  501 -0.00000000000E+00 -0.00000000000E+00 -0.23477040785E+02  0.23511366273E+02  0.12700000000E+01 0. -1.
         25    2    1    2    0    0  0.00000000000E+00  0.00000000000E+00  0.14275249735E+03  0.18974575577E+03  0.12500070532E+03 0.  0.
    9000005    1    3    3    0    0 -0.27801258984E+02  0.13507170647E+02  0.15382161070E+03  0.15689946328E+03  0.10000000000E+01 0.  0.
    9000005    1    3    3    0    0  0.27801258984E+02 -0.13507170647E+02 -0.11069113342E+02  0.32846292487E+02  0.10000000000E+01 0.  0.
<mgrwt>
<rscale>  0 0.12500071E+03</rscale>
<asrwt>0</asrwt>
<pdfrwt beam="1">  1        4 0.25576789E-01 0.12500071E+03</pdfrwt>
<pdfrwt beam="2">  1       -4 0.36148660E-02 0.12500071E+03</pdfrwt>
<totfact> 0.91890119E+03</totfact>
</mgrwt>
</event>
<event>
 5    1  0.3209683E-002  0.1250005E+03  0.7818608E-02  0.1235068E+00
         -4   -1    0    0    0  501 -0.00000000000E+00  0.00000000000E+00  0.36764686127E+02  0.36786615039E+02  0.12700000000E+01 0. -1.
          4   -1    0    0  501    0  0.00000000000E+00 -0.00000000000E+00 -0.10619352349E+03  0.10620111737E+03  0.12700000000E+01 0. -1.
         25    2    1    2    0    0  0.00000000000E+00  0.00000000000E+00 -0.69428837365E+02  0.14298773241E+03  0.12500051265E+03 0.  0.
    9000005    1    3    3    0    0 -0.35686371187E+02 -0.50812131483E+02 -0.42794272699E+02  0.75417103963E+02  0.10000000000E+01 0.  0.
    9000005    1    3    3    0    0  0.35686371187E+02  0.50812131483E+02 -0.26634564666E+02  0.67570628451E+02  0.10000000000E+01 0.  0.
<mgrwt>
<rscale>  0 0.12500051E+03</rscale>
<asrwt>0</asrwt>
<pdfrwt beam="2">  1        4 0.16339736E-01 0.12500051E+03</pdfrwt>
<pdfrwt beam="1">  1       -4 0.56583766E-02 0.12500051E+03</pdfrwt>
<totfact> 0.10071918E+04</totfact>
</mgrwt>
</event>
<event>
 5    1  0.3209683E-002  0.1250001E+03  0.7818608E-02  0.1235069E+00
         -4   -1    0    0    0  501 -0.00000000000E+00  0.00000000000E+00  0.40333579620E+02  0.40353569173E+02  0.12700000000E+01 0.  1.
          4   -1    0    0  501    0  0.00000000000E+00 -0.00000000000E+00 -0.96800526611E+02  0.96808857302E+02  0.12700000000E+01 0.  1.
         25    2    1    2    0    0  0.00000000000E+00  0.00000000000E+00 -0.56466946991E+02  0.13716242648E+03  0.12500006054E+03 0.  0.
    9000005    1    3    3    0    0  0.16960698841E+02  0.56735529203E+02 -0.63240607947E+01  0.59561559114E+02  0.10000000000E+01 0.  0.
    9000005    1    3    3    0    0 -0.16960698841E+02 -0.56735529203E+02 -0.50142886196E+02  0.77600867361E+02  0.10000000000E+01 0.  0.
<mgrwt>
<rscale>  0 0.12500006E+03</rscale>
<asrwt>0</asrwt>
<pdfrwt beam="2">  1        4 0.14894567E-01 0.12500006E+03</pdfrwt>
<pdfrwt beam="1">  1       -4 0.62073446E-02 0.12500006E+03</pdfrwt>
<totfact> 0.10192677E+04</totfact>
</mgrwt>
</event>
<event>
 4    1  0.3209683E-002  0.1253447E+03  0.7818608E-02  0.1234532E+00
          4   -1    0    0  501    0  0.00000000000E+00  0.00000000000E+00  0.99559840702E+02  0.99567940526E+02  0.12700000000E+01 0.  1.
         -4   -1    0    0    0  501 -0.00000000000E+00 -0.00000000000E+00 -0.39431975523E+02  0.39452421898E+02  0.12700000000E+01 0.  1.
    9000005    1    1    2    0    0 -0.25317540177E+02 -0.51055642605E+02  0.58968148639E+02  0.82011578673E+02  0.10000000000E+01 0.  0.
    9000005    1    1    2    0    0  0.25317540177E+02  0.51055642605E+02  0.11597165403E+01  0.57008783752E+02  0.10000000000E+01 0.  0.
<mgrwt>
<rscale>  0 0.12534473E+03</rscale>
<asrwt>0</asrwt>
<pdfrwt beam="1">  1        4 0.15319094E-01 0.12534473E+03</pdfrwt>
<pdfrwt beam="2">  1       -4 0.60686536E-02 0.12534473E+03</pdfrwt>
<totfact> 0.10075462E+04</totfact>
</mgrwt>
</event>
<event>
 5    1  0.3209683E-002  0.1249968E+03  0.7818608E-02  0.1235074E+00
         -4   -1    0    0    0  501 -0.00000000000E+00  0.00000000000E+00  0.27482549232E+01  0.30275080715E+01  0.12700000000E+01 0.  1.
          4   -1    0    0  501    0  0.00000000000E+00 -0.00000000000E+00 -0.13522868430E+04  0.13522874393E+04  0.12700000000E+01 0.  1.
         25    2    1    2    0    0  0.00000000000E+00  0.00000000000E+00 -0.13495385881E+04  0.13553149474E+04  0.12499682405E+03 0.  0.
    9000005    1    3    3    0    0 -0.35255447886E+02  0.16157234071E+02 -0.14346694890E+03  0.14861954193E+03  0.10000000000E+01 0.  0.
    9000005    1    3    3    0    0  0.35255447886E+02 -0.16157234071E+02 -0.12060716392E+04  0.12066954055E+04  0.10000000000E+01 0.  0.
<mgrwt>
<rscale>  0 0.12499682E+03</rscale>
<asrwt>0</asrwt>
<pdfrwt beam="2">  1        4 0.20806515E+00 0.12499682E+03</pdfrwt>
<pdfrwt beam="1">  1       -4 0.44433641E-03 0.12499682E+03</pdfrwt>
<totfact> 0.20960881E+03</totfact>
</mgrwt>
</event>
<event>
 5    1  0.3209683E-002  0.1249985E+03  0.7818608E-02  0.1235072E+00
         -4   -1    0    0    0  501 -0.00000000000E+00  0.00000000000E+00  0.16718338212E+03  0.16718820579E+03  0.12700000000E+01 0. -1.
          4   -1    0    0  501    0  0.00000000000E+00 -0.00000000000E+00 -0.23342078823E+02  0.23376602485E+02  0.12700000000E+01 0. -1.
         25    2    1    2    0    0  0.00000000000E+00  0.00000000000E+00  0.14384130329E+03  0.19056480828E+03  0.12499850247E+03 0.  0.
    9000005    1    3    3    0    0 -0.21881770776E+02  0.58175231945E+02  0.62042065253E+02  0.87825892339E+02  0.10000000000E+01 0.  0.
    9000005    1    3    3    0    0  0.21881770776E+02 -0.58175231945E+02  0.81799238039E+02  0.10273891594E+03  0.10000000000E+01 0.  0.
<mgrwt>
<rscale>  0 0.12499850E+03</rscale>
<asrwt>0</asrwt>
<pdfrwt beam="2">  1        4 0.35941159E-02 0.12499850E+03</pdfrwt>
<pdfrwt beam="1">  1       -4 0.25723546E-01 0.12499850E+03</pdfrwt>
<totfact> 0.91752211E+03</totfact>
</mgrwt>
</event>
<event>
 5    1  0.3209683E-002  0.1249969E+03  0.7818608E-02  0.1235074E+00
         -4   -1    0    0    0  501 -0.00000000000E+00  0.00000000000E+00  0.22930689894E+02  0.22965831991E+02  0.12700000000E+01 0.  1.
          4   -1    0    0  501    0  0.00000000000E+00 -0.00000000000E+00 -0.17017400821E+03  0.17017874711E+03  0.12700000000E+01 0.  1.
         25    2    1    2    0    0  0.00000000000E+00  0.00000000000E+00 -0.14724331831E+03  0.19314457910E+03  0.12499693456E+03 0.  0.
    9000005    1    3    3    0    0  0.47192667426E+01 -0.37876579093E+02 -0.15007603072E+03  0.15485710097E+03  0.10000000000E+01 0.  0.
    9000005    1    3    3    0    0 -0.47192667426E+01  0.37876579093E+02  0.28327124123E+01  0.38287478136E+02  0.10000000000E+01 0.  0.
<mgrwt>
<rscale>  0 0.12499693E+03</rscale>
<asrwt>0</asrwt>
<pdfrwt beam="2">  1        4 0.26183684E-01 0.12499693E+03</pdfrwt>
<pdfrwt beam="1">  1       -4 0.35308663E-02 0.12499693E+03</pdfrwt>
<totfact> 0.91309297E+03</totfact>
</mgrwt>
</event>
<event>
 5    1  0.3209683E-002  0.1250008E+03  0.7818608E-02  0.1235068E+00
          4   -1    0    0  501    0  0.00000000000E+00  0.00000000000E+00  0.35042755856E+03  0.35042985989E+03  0.12700000000E+01 0. -1.
         -4   -1    0    0    0  501 -0.00000000000E+00 -0.00000000000E+00 -0.11108726316E+02  0.11181086726E+02  0.12700000000E+01 0. -1.
         25    2    1    2    0    0  0.00000000000E+00  0.00000000000E+00  0.33931883225E+03  0.36161094661E+03  0.12500082717E+03 0.  0.
    9000005    1    3    3    0    0  0.41952878394E+02  0.26506895253E+02  0.59782111448E+02  0.77701739689E+02  0.10000000000E+01 0.  0.
    9000005    1    3    3    0    0 -0.41952878394E+02 -0.26506895253E+02  0.27953672080E+03  0.28390920692E+03  0.10000000000E+01 0.  0.
<mgrwt>
<rscale>  0 0.12500083E+03</rscale>
<asrwt>0</asrwt>
<pdfrwt beam="1">  1        4 0.53917672E-01 0.12500083E+03</pdfrwt>
<pdfrwt beam="2">  1       -4 0.17147781E-02 0.12500083E+03</pdfrwt>
<totfact> 0.68464566E+03</totfact>
</mgrwt>
</event>
<event>
 5    1  0.3209683E-002  0.1250028E+03  0.7818608E-02  0.1235065E+00
         -4   -1    0    0    0  501 -0.00000000000E+00  0.00000000000E+00  0.55533326456E+02  0.55547846469E+02  0.12700000000E+01 0.  1.
          4   -1    0    0  501    0  0.00000000000E+00 -0.00000000000E+00 -0.70314330041E+02  0.70325798318E+02  0.12700000000E+01 0.  1.
         25    2    1    2    0    0  0.00000000000E+00  0.00000000000E+00 -0.14781003584E+02  0.12587364479E+03  0.12500278551E+03 0.  0.
    9000005    1    3    3    0    0  0.69547015286E+01 -0.31962319829E+02  0.46229566728E+02  0.56640361952E+02  0.10000000000E+01 0.  0.
    9000005    1    3    3    0    0 -0.69547015286E+01  0.31962319829E+02 -0.61010570313E+02  0.69233282835E+02  0.10000000000E+01 0.  0.
<mgrwt>
<rscale>  0 0.12500279E+03</rscale>
<asrwt>0</asrwt>
<pdfrwt beam="2">  1        4 0.10819588E-01 0.12500279E+03</pdfrwt>
<pdfrwt beam="1">  1       -4 0.85455878E-02 0.12500279E+03</pdfrwt>
<totfact> 0.10433072E+04</totfact>
</mgrwt>
</event>
<event>
 5    1  0.3209683E-002  0.1249988E+03  0.7818608E-02  0.1235071E+00
         -4   -1    0    0    0  501 -0.00000000000E+00  0.00000000000E+00  0.55242281984E+02  0.55256878475E+02  0.12700000000E+01 0.  1.
          4   -1    0    0  501    0  0.00000000000E+00 -0.00000000000E+00 -0.70680224357E+02  0.70691633275E+02  0.12700000000E+01 0.  1.
         25    2    1    2    0    0  0.00000000000E+00  0.00000000000E+00 -0.15437942373E+02  0.12594851175E+03  0.12499879018E+03 0.  0.
    9000005    1    3    3    0    0 -0.38632265500E+02 -0.41833359183E+02 -0.33657375830E+02  0.66153615365E+02  0.10000000000E+01 0.  0.
    9000005    1    3    3    0    0  0.38632265500E+02  0.41833359183E+02  0.18219433457E+02  0.59794896385E+02  0.10000000000E+01 0.  0.
<mgrwt>
<rscale>  0 0.12499879E+03</rscale>
<asrwt>0</asrwt>
<pdfrwt beam="2">  1        4 0.10875881E-01 0.12499879E+03</pdfrwt>
<pdfrwt beam="1">  1       -4 0.85008130E-02 0.12499879E+03</pdfrwt>
<totfact> 0.10432370E+04</totfact>
</mgrwt>
</event>
<event>
 5    1  0.3209683E-002  0.1249952E+03  0.7818608E-02  0.1235077E+00
          4   -1    0    0  501    0  0.00000000000E+00  0.00000000000E+00  0.17229752285E+02  0.17276494546E+02  0.12700000000E+01 0.  1.
         -4   -1    0    0    0  501 -0.00000000000E+00 -0.00000000000E+00 -0.22634251467E+03  0.22634607760E+03  0.12700000000E+01 0.  1.
         25    2    1    2    0    0  0.00000000000E+00  0.00000000000E+00 -0.20911276238E+03  0.24362257215E+03  0.12499524099E+03 0.  0.
    9000005    1    3    3    0    0 -0.19535125091E+02  0.10344049311E+02 -0.21847745940E+03  0.21959512912E+03  0.10000000000E+01 0.  0.
    9000005    1    3    3    0    0  0.19535125091E+02 -0.10344049311E+02  0.93646970130E+01  0.24027443031E+02  0.10000000000E+01 0.  0.
<mgrwt>
<rscale>  0 0.12499524E+03</rscale>
<asrwt>0</asrwt>
<pdfrwt beam="1">  1        4 0.26546009E-02 0.12499524E+03</pdfrwt>
<pdfrwt beam="2">  1       -4 0.34825793E-01 0.12499524E+03</pdfrwt>
<totfact> 0.83269623E+03</totfact>
</mgrwt>
</event>
<event>
 5    1  0.3209683E-002  0.1249981E+03  0.7818608E-02  0.1235072E+00
          4   -1    0    0  501    0  0.00000000000E+00  0.00000000000E+00  0.18247951095E+03  0.18248393029E+03  0.12700000000E+01 0.  1.
         -4   -1    0    0    0  501 -0.00000000000E+00 -0.00000000000E+00 -0.21382326196E+02  0.21420008720E+02  0.12700000000E+01 0.  1.
         25    2    1    2    0    0  0.00000000000E+00  0.00000000000E+00  0.16109718475E+03  0.20390393901E+03  0.12499805363E+03 0.  0.
    9000005    1    3    3    0    0  0.16143121613E+02 -0.55633865106E+02  0.42313063664E+02  0.71743450423E+02  0.10000000000E+01 0.  0.
    9000005    1    3    3    0    0 -0.16143121613E+02  0.55633865106E+02  0.11878412109E+03  0.13216048859E+03  0.10000000000E+01 0.  0.
<mgrwt>
<rscale>  0 0.12499805E+03</rscale>
<asrwt>0</asrwt>
<pdfrwt beam="1">  1        4 0.28077010E-01 0.12499805E+03</pdfrwt>
<pdfrwt beam="2">  1       -4 0.32928272E-02 0.12499805E+03</pdfrwt>
<totfact> 0.89485122E+03</totfact>
</mgrwt>
</event>
<event>
 5    1  0.3209683E-002  0.1249994E+03  0.7818608E-02  0.1235070E+00
          4   -1    0    0  501    0  0.00000000000E+00  0.00000000000E+00  0.20956955137E+02  0.20995401130E+02  0.12700000000E+01 0. -1.
         -4   -1    0    0    0  501 -0.00000000000E+00 -0.00000000000E+00 -0.18618065710E+03  0.18618498860E+03  0.12700000000E+01 0. -1.
         25    2    1    2    0    0  0.00000000000E+00  0.00000000000E+00 -0.16522370197E+03  0.20718038973E+03  0.12499936878E+03 0.  0.
    9000005    1    3    3    0    0 -0.53386953893E+02 -0.20971965781E+02 -0.41501027746E+02  0.70804840927E+02  0.10000000000E+01 0.  0.
    9000005    1    3    3    0    0  0.53386953893E+02  0.20971965781E+02 -0.12372267422E+03  0.13637554880E+03  0.10000000000E+01 0.  0.
<mgrwt>
<rscale>  0 0.12499937E+03</rscale>
<asrwt>0</asrwt>
<pdfrwt beam="1">  1        4 0.32274376E-02 0.12499937E+03</pdfrwt>
<pdfrwt beam="2">  1       -4 0.28646467E-01 0.12499937E+03</pdfrwt>
<totfact> 0.88939696E+03</totfact>
</mgrwt>
</event>
<event>
 5    1  0.3209683E-002  0.1250039E+03  0.7818608E-02  0.1235063E+00
          4   -1    0    0  501    0  0.00000000000E+00  0.00000000000E+00  0.18156360672E+03  0.18156804836E+03  0.12700000000E+01 0. -1.
         -4   -1    0    0    0  501 -0.00000000000E+00 -0.00000000000E+00 -0.21492400365E+02  0.21529890233E+02  0.12700000000E+01 0. -1.
         25    2    1    2    0    0  0.00000000000E+00  0.00000000000E+00  0.16007120636E+03  0.20309793859E+03  0.12500392616E+03 0.  0.
    9000005    1    3    3    0    0 -0.30028601499E+02  0.46001762560E+02  0.31630126449E+02  0.63398296237E+02  0.10000000000E+01 0.  0.
    9000005    1    3    3    0    0  0.30028601499E+02 -0.46001762560E+02  0.12844107991E+03  0.13969964236E+03  0.10000000000E+01 0.  0.
<mgrwt>
<rscale>  0 0.12500393E+03</rscale>
<asrwt>0</asrwt>
<pdfrwt beam="1">  1        4 0.27936087E-01 0.12500393E+03</pdfrwt>
<pdfrwt beam="2">  1       -4 0.33097488E-02 0.12500393E+03</pdfrwt>
<totfact> 0.89607762E+03</totfact>
</mgrwt>
</event>
<event>
 5    1  0.3209683E-002  0.1249957E+03  0.7818608E-02  0.1235076E+00
         -4   -1    0    0    0  501 -0.00000000000E+00  0.00000000000E+00  0.41241250865E+02  0.41260800681E+02  0.12700000000E+01 0.  1.
          4   -1    0    0  501    0  0.00000000000E+00 -0.00000000000E+00 -0.94664282063E+02  0.94672800732E+02  0.12700000000E+01 0.  1.
         25    2    1    2    0    0  0.00000000000E+00  0.00000000000E+00 -0.53423031198E+02  0.13593360141E+03  0.12499569485E+03 0.  0.
    9000005    1    3    3    0    0 -0.18660790757E+02 -0.36590166414E+02 -0.77927352089E+02  0.88095048632E+02  0.10000000000E+01 0.  0.
    9000005    1    3    3    0    0  0.18660790757E+02  0.36590166414E+02  0.24504320891E+02  0.47838552781E+02  0.10000000000E+01 0.  0.
<mgrwt>
<rscale>  0 0.12499569E+03</rscale>
<asrwt>0</asrwt>
<pdfrwt beam="2">  1        4 0.14565895E-01 0.12499569E+03</pdfrwt>
<pdfrwt beam="1">  1       -4 0.63469670E-02 0.12499569E+03</pdfrwt>
<totfact> 0.10219422E+04</totfact>
</mgrwt>
</event>
<event>
 5    1  0.3209683E-002  0.1250001E+03  0.7818608E-02  0.1235069E+00
         -4   -1    0    0    0  501 -0.00000000000E+00  0.00000000000E+00  0.60771904729E+03  0.60772037430E+03  0.12700000000E+01 0.  1.
          4   -1    0    0  501    0  0.00000000000E+00 -0.00000000000E+00 -0.63636551130E+01  0.64891452748E+01  0.12700000000E+01 0.  1.
         25    2    1    2    0    0  0.00000000000E+00  0.00000000000E+00  0.60135539218E+03  0.61420951957E+03  0.12500010494E+03 0.  0.
    9000005    1    3    3    0    0 -0.27305799636E+02 -0.56209217542E+02  0.30272575101E+03  0.30910995318E+03  0.10000000000E+01 0.  0.
    9000005    1    3    3    0    0  0.27305799636E+02  0.56209217542E+02  0.29862964117E+03  0.30509956640E+03  0.10000000000E+01 0.  0.
<mgrwt>
<rscale>  0 0.12500010E+03</rscale>
<asrwt>0</asrwt>
<pdfrwt beam="2">  1        4 0.98877849E-03 0.12500010E+03</pdfrwt>
<pdfrwt beam="1">  1       -4 0.93505044E-01 0.12500010E+03</pdfrwt>
<totfact> 0.47982644E+03</totfact>
</mgrwt>
</event>
<event>
 5    1  0.3209683E-002  0.1249979E+03  0.7818608E-02  0.1235073E+00
         -4   -1    0    0    0  501 -0.00000000000E+00  0.00000000000E+00  0.19827742069E+02  0.19868373248E+02  0.12700000000E+01 0. -1.
          4   -1    0    0  501    0  0.00000000000E+00 -0.00000000000E+00 -0.19675846717E+03  0.19676256581E+03  0.12700000000E+01 0. -1.
         25    2    1    2    0    0  0.00000000000E+00  0.00000000000E+00 -0.17693072510E+03  0.21663093906E+03  0.12499792907E+03 0.  0.
    9000005    1    3    3    0    0 -0.62154283644E+02  0.93808024337E+00 -0.99574042912E+02  0.11738835118E+03  0.10000000000E+01 0.  0.
    9000005    1    3    3    0    0  0.62154283644E+02 -0.93808024337E+00 -0.77356682189E+02  0.99242587880E+02  0.10000000000E+01 0.  0.
<mgrwt>
<rscale>  0 0.12499793E+03</rscale>
<asrwt>0</asrwt>
<pdfrwt beam="2">  1        4 0.30273973E-01 0.12499793E+03</pdfrwt>
<pdfrwt beam="1">  1       -4 0.30538628E-02 0.12499793E+03</pdfrwt>
<totfact> 0.87408328E+03</totfact>
</mgrwt>
</event>
<event>
 5    1  0.3209683E-002  0.1249978E+03  0.7818608E-02  0.1235073E+00
          4   -1    0    0  501    0  0.00000000000E+00  0.00000000000E+00  0.27095065653E+01  0.29923779553E+01  0.12700000000E+01 0. -1.
         -4   -1    0    0    0  501 -0.00000000000E+00 -0.00000000000E+00 -0.13698301339E+04  0.13698307226E+04  0.12700000000E+01 0. -1.
         25    2    1    2    0    0  0.00000000000E+00  0.00000000000E+00 -0.13671206273E+04  0.13728231006E+04  0.12499782317E+03 0.  0.
    9000005    1    3    3    0    0 -0.43480395002E+02  0.41284964226E+02 -0.87696975313E+03  0.87901759989E+03  0.10000000000E+01 0.  0.
    9000005    1    3    3    0    0  0.43480395002E+02 -0.41284964226E+02 -0.49015087420E+03  0.49380550067E+03  0.10000000000E+01 0.  0.
<mgrwt>
<rscale>  0 0.12499782E+03</rscale>
<asrwt>0</asrwt>
<pdfrwt beam="1">  1        4 0.43865288E-03 0.12499782E+03</pdfrwt>
<pdfrwt beam="2">  1       -4 0.21076438E+00 0.12499782E+03</pdfrwt>
<totfact> 0.20572775E+03</totfact>
</mgrwt>
</event>
<event>
 5    1  0.3209683E-002  0.1250000E+03  0.7818608E-02  0.1235069E+00
         -4   -1    0    0    0  501 -0.00000000000E+00  0.00000000000E+00  0.24559331302E+03  0.24559659668E+03  0.12700000000E+01 0. -1.
          4   -1    0    0  501    0  0.00000000000E+00 -0.00000000000E+00 -0.15876614704E+02  0.15927328541E+02  0.12700000000E+01 0. -1.
         25    2    1    2    0    0  0.00000000000E+00  0.00000000000E+00  0.22971669831E+03  0.26152392522E+03  0.12500000791E+03 0.  0.
    9000005    1    3    3    0    0 -0.59193859782E+02 -0.81458544095E+01  0.15315073747E+03  0.16439713005E+03  0.10000000000E+01 0.  0.
    9000005    1    3    3    0    0  0.59193859782E+02  0.81458544095E+01  0.76565960841E+02  0.97126795167E+02  0.10000000000E+01 0.  0.
<mgrwt>
<rscale>  0 0.12500001E+03</rscale>
<asrwt>0</asrwt>
<pdfrwt beam="2">  1        4 0.24467099E-02 0.12500001E+03</pdfrwt>
<pdfrwt beam="1">  1       -4 0.37787738E-01 0.12500001E+03</pdfrwt>
<totfact> 0.80692661E+03</totfact>
</mgrwt>
</event>
<event>
 5    1  0.3209683E-002  0.1250078E+03  0.7818608E-02  0.1235057E+00
          4   -1    0    0  501    0  0.00000000000E+00  0.00000000000E+00  0.70015407935E+02  0.70026925166E+02  0.12700000000E+01 0.  1.
         -4   -1    0    0    0  501 -0.00000000000E+00 -0.00000000000E+00 -0.55774937510E+02  0.55789394639E+02  0.12700000000E+01 0.  1.
         25    2    1    2    0    0  0.00000000000E+00  0.00000000000E+00  0.14240470425E+02  0.12581631981E+03  0.12500782108E+03 0.  0.
    9000005    1    3    3    0    0  0.19454102082E+02  0.46617136427E+02 -0.29916121830E+02  0.58716214471E+02  0.10000000000E+01 0.  0.
    9000005    1    3    3    0    0 -0.19454102082E+02 -0.46617136427E+02  0.44156592254E+02  0.67100105335E+02  0.10000000000E+01 0.  0.
<mgrwt>
<rscale>  0 0.12500782E+03</rscale>
<asrwt>0</asrwt>
<pdfrwt beam="1">  1        4 0.10773599E-01 0.12500782E+03</pdfrwt>
<pdfrwt beam="2">  1       -4 0.85827577E-02 0.12500782E+03</pdfrwt>
<totfact> 0.10433146E+04</totfact>
</mgrwt>
</event>
<event>
 5    1  0.3209683E-002  0.1249981E+03  0.7818608E-02  0.1235072E+00
         -4   -1    0    0    0  501 -0.00000000000E+00  0.00000000000E+00  0.67945562783E+01  0.69122279346E+01  0.12700000000E+01 0.  1.
          4   -1    0    0  501    0  0.00000000000E+00 -0.00000000000E+00 -0.56983725944E+03  0.56983867467E+03  0.12700000000E+01 0.  1.
         25    2    1    2    0    0  0.00000000000E+00  0.00000000000E+00 -0.56304270317E+03  0.57675090261E+03  0.12499807226E+03 0.  0.
    9000005    1    3    3    0    0  0.56379226797E+02  0.26925823072E+02 -0.27584705805E+03  0.28283602422E+03  0.10000000000E+01 0.  0.
    9000005    1    3    3    0    0 -0.56379226797E+02 -0.26925823072E+02 -0.28719564512E+03  0.29391487839E+03  0.10000000000E+01 0.  0.
<mgrwt>
<rscale>  0 0.12499807E+03</rscale>
<asrwt>0</asrwt>
<pdfrwt beam="2">  1        4 0.87676394E-01 0.12499807E+03</pdfrwt>
<pdfrwt beam="1">  1       -4 0.10544773E-02 0.12499807E+03</pdfrwt>
<totfact> 0.50370980E+03</totfact>
</mgrwt>
</event>
<event>
 5    1  0.3209683E-002  0.1249971E+03  0.7818608E-02  0.1235074E+00
         -4   -1    0    0    0  501 -0.00000000000E+00  0.00000000000E+00  0.10974349779E+03  0.10975084605E+03  0.12700000000E+01 0.  1.
          4   -1    0    0  501    0  0.00000000000E+00 -0.00000000000E+00 -0.35572825425E+02  0.35595488600E+02  0.12700000000E+01 0.  1.
         25    2    1    2    0    0  0.00000000000E+00  0.00000000000E+00  0.74170672368E+02  0.14534633465E+03  0.12499707339E+03 0.  0.
    9000005    1    3    3    0    0  0.38776763968E+02 -0.16029178065E+02 -0.16762315721E+02  0.45194548361E+02  0.10000000000E+01 0.  0.
    9000005    1    3    3    0    0 -0.38776763968E+02  0.16029178065E+02  0.90932988088E+02  0.10015178628E+03  0.10000000000E+01 0.  0.
<mgrwt>
<rscale>  0 0.12499707E+03</rscale>
<asrwt>0</asrwt>
<pdfrwt beam="2">  1        4 0.54750511E-02 0.12499707E+03</pdfrwt>
<pdfrwt beam="1">  1       -4 0.16885923E-01 0.12499707E+03</pdfrwt>
<totfact> 0.10024617E+04</totfact>
</mgrwt>
</event>
<event>
 5    1  0.3209683E-002  0.1250008E+03  0.7818608E-02  0.1235068E+00
          4   -1    0    0  501    0  0.00000000000E+00  0.00000000000E+00  0.67299557713E+01  0.68487374518E+01  0.12700000000E+01 0. -1.
         -4   -1    0    0    0  501 -0.00000000000E+00 -0.00000000000E+00 -0.57523816681E+03  0.57523956875E+03  0.12700000000E+01 0. -1.
         25    2    1    2    0    0  0.00000000000E+00  0.00000000000E+00 -0.56850821104E+03  0.58208830620E+03  0.12500084079E+03 0.  0.
    9000005    1    3    3    0    0  0.73057577511E+01  0.38151721293E+02 -0.51221129598E+03  0.51368311211E+03  0.10000000000E+01 0.  0.
    9000005    1    3    3    0    0 -0.73057577511E+01 -0.38151721293E+02 -0.56296915056E+02  0.68405194092E+02  0.10000000000E+01 0.  0.
<mgrwt>
<rscale>  0 0.12500084E+03</rscale>
<asrwt>0</asrwt>
<pdfrwt beam="1">  1        4 0.10446232E-02 0.12500084E+03</pdfrwt>
<pdfrwt beam="2">  1       -4 0.88507386E-01 0.12500084E+03</pdfrwt>
<totfact> 0.50017219E+03</totfact>
</mgrwt>
</event>
<event>
 5    1  0.3209683E-002  0.1249988E+03  0.7818608E-02  0.1235071E+00
         -4   -1    0    0    0  501 -0.00000000000E+00  0.00000000000E+00  0.20029239240E+02  0.20069462487E+02  0.12700000000E+01 0. -1.
          4   -1    0    0  501    0  0.00000000000E+00 -0.00000000000E+00 -0.19478569374E+03  0.19478983389E+03  0.12700000000E+01 0. -1.
         25    2    1    2    0    0  0.00000000000E+00  0.00000000000E+00 -0.17475645450E+03  0.21485929637E+03  0.12499879539E+03 0.  0.
    9000005    1    3    3    0    0 -0.61778554635E+02 -0.93392934576E+01 -0.85371833704E+02  0.10579774197E+03  0.10000000000E+01 0.  0.
    9000005    1    3    3    0    0  0.61778554635E+02  0.93392934576E+01 -0.89384620795E+02  0.10906155441E+03  0.10000000000E+01 0.  0.
<mgrwt>
<rscale>  0 0.12499880E+03</rscale>
<asrwt>0</asrwt>
<pdfrwt beam="2">  1        4 0.29970441E-01 0.12499880E+03</pdfrwt>
<pdfrwt beam="1">  1       -4 0.30848341E-02 0.12499880E+03</pdfrwt>
<totfact> 0.87690754E+03</totfact>
</mgrwt>
</event>
<event>
 5    1  0.3209683E-002  0.1250023E+03  0.7818608E-02  0.1235066E+00
         -4   -1    0    0    0  501 -0.00000000000E+00  0.00000000000E+00  0.22253444410E+02  0.22289654284E+02  0.12700000000E+01 0. -1.
          4   -1    0    0  501    0  0.00000000000E+00 -0.00000000000E+00 -0.17535981099E+03  0.17536440976E+03  0.12700000000E+01 0. -1.
         25    2    1    2    0    0  0.00000000000E+00  0.00000000000E+00 -0.15310636658E+03  0.19765406404E+03  0.12500227816E+03 0.  0.
    9000005    1    3    3    0    0 -0.23695378292E+02 -0.45981579310E+02 -0.21106887484E+02  0.55877341449E+02  0.10000000000E+01 0.  0.
    9000005    1    3    3    0    0  0.23695378292E+02  0.45981579310E+02 -0.13199947910E+03  0.14177672260E+03  0.10000000000E+01 0.  0.
<mgrwt>
<rscale>  0 0.12500228E+03</rscale>
<asrwt>0</asrwt>
<pdfrwt beam="2">  1        4 0.26981571E-01 0.12500228E+03</pdfrwt>
<pdfrwt beam="1">  1       -4 0.34267461E-02 0.12500228E+03</pdfrwt>
<totfact> 0.90527708E+03</totfact>
</mgrwt>
</event>
<event>
 5    1  0.3209683E-002  0.1249985E+03  0.7818608E-02  0.1235072E+00
          4   -1    0    0  501    0  0.00000000000E+00  0.00000000000E+00  0.68668794928E+01  0.69833325833E+01  0.12700000000E+01 0.  1.
         -4   -1    0    0    0  501 -0.00000000000E+00 -0.00000000000E+00 -0.56394046489E+03  0.56394189491E+03  0.12700000000E+01 0.  1.
         25    2    1    2    0    0  0.00000000000E+00  0.00000000000E+00 -0.55707358540E+03  0.57092522750E+03  0.12499854338E+03 0.  0.
    9000005    1    3    3    0    0  0.14604436861E+02 -0.54927059787E+01 -0.55492253508E+03  0.55514275581E+03  0.10000000000E+01 0.  0.
    9000005    1    3    3    0    0 -0.14604436861E+02  0.54927059787E+01 -0.21510503189E+01  0.15782471684E+02  0.10000000000E+01 0.  0.
<mgrwt>
<rscale>  0 0.12499854E+03</rscale>
<asrwt>0</asrwt>
<pdfrwt beam="1">  1        4 0.10655114E-02 0.12499854E+03</pdfrwt>
<pdfrwt beam="2">  1       -4 0.86769103E-01 0.12499854E+03</pdfrwt>
<totfact> 0.50757513E+03</totfact>
</mgrwt>
</event>
<event>
 5    1  0.3209683E-002  0.1250073E+03  0.7818608E-02  0.1235058E+00
          4   -1    0    0  501    0  0.00000000000E+00  0.00000000000E+00  0.12402833232E+04  0.12402839734E+04  0.12700000000E+01 0.  1.
         -4   -1    0    0    0  501 -0.00000000000E+00 -0.00000000000E+00 -0.30211592315E+01  0.32772401655E+01  0.12700000000E+01 0.  1.
         25    2    1    2    0    0  0.00000000000E+00  0.00000000000E+00  0.12372621640E+04  0.12435612136E+04  0.12500731791E+03 0.  0.
    9000005    1    3    3    0    0 -0.14078081346E+02  0.41550869224E+02  0.10614012816E+04  0.10623080286E+04  0.10000000000E+01 0.  0.
    9000005    1    3    3    0    0  0.14078081346E+02 -0.41550869224E+02  0.17586088240E+03  0.18125318499E+03  0.10000000000E+01 0.  0.
<mgrwt>
<rscale>  0 0.12500732E+03</rscale>
<asrwt>0</asrwt>
<pdfrwt beam="1">  1        4 0.19083272E+00 0.12500732E+03</pdfrwt>
<pdfrwt beam="2">  1       -4 0.48454189E-03 0.12500732E+03</pdfrwt>
<totfact> 0.23596354E+03</totfact>
</mgrwt>
</event>
<event>
 5    1  0.3209683E-002  0.1249999E+03  0.7818608E-02  0.1235069E+00
          4   -1    0    0  501    0  0.00000000000E+00  0.00000000000E+00  0.57776512694E+02  0.57790469103E+02  0.12700000000E+01 0.  1.
         -4   -1    0    0    0  501 -0.00000000000E+00 -0.00000000000E+00 -0.67581417694E+02  0.67593349655E+02  0.12700000000E+01 0.  1.
         25    2    1    2    0    0  0.00000000000E+00  0.00000000000E+00 -0.98049050002E+01  0.12538381876E+03  0.12499986338E+03 0.  0.
    9000005    1    3    3    0    0  0.20513407570E+02  0.15661328017E+01  0.54287179433E+02  0.58063331913E+02  0.10000000000E+01 0.  0.
    9000005    1    3    3    0    0 -0.20513407570E+02 -0.15661328017E+01 -0.64092084433E+02  0.67320486845E+02  0.10000000000E+01 0.  0.
<mgrwt>
<rscale>  0 0.12499986E+03</rscale>
<asrwt>0</asrwt>
<pdfrwt beam="1">  1        4 0.88906858E-02 0.12499986E+03</pdfrwt>
<pdfrwt beam="2">  1       -4 0.10399132E-01 0.12499986E+03</pdfrwt>
<totfact> 0.10444558E+04</totfact>
</mgrwt>
</event>
<event>
 5    1  0.3209683E-002  0.1250041E+03  0.7818608E-02  0.1235063E+00
         -4   -1    0    0    0  501 -0.00000000000E+00  0.00000000000E+00  0.40413094208E+02  0.40433044449E+02  0.12700000000E+01 0.  1.
          4   -1    0    0  501    0  0.00000000000E+00 -0.00000000000E+00 -0.96616323036E+02  0.96624669608E+02  0.12700000000E+01 0.  1.
         25    2    1    2    0    0  0.00000000000E+00  0.00000000000E+00 -0.56203228828E+02  0.13705771406E+03  0.12500405614E+03 0.  0.
    9000005    1    3    3    0    0  0.34633469514E+02  0.13215791779E+02  0.27062559671E+02  0.45907695421E+02  0.10000000000E+01 0.  0.
    9000005    1    3    3    0    0 -0.34633469514E+02 -0.13215791779E+02 -0.83265788499E+02  0.91150018636E+02  0.10000000000E+01 0.  0.
<mgrwt>
<rscale>  0 0.12500406E+03</rscale>
<asrwt>0</asrwt>
<pdfrwt beam="2">  1        4 0.14866226E-01 0.12500406E+03</pdfrwt>
<pdfrwt beam="1">  1       -4 0.62195758E-02 0.12500406E+03</pdfrwt>
<totfact> 0.10193947E+04</totfact>
</mgrwt>
</event>
<event>
 5    1  0.3209683E-002  0.1250001E+03  0.7818608E-02  0.1235069E+00
         -4   -1    0    0    0  501 -0.00000000000E+00  0.00000000000E+00  0.21187136271E+04  0.21187140077E+04  0.12700000000E+01 0.  1.
          4   -1    0    0  501    0  0.00000000000E+00 -0.00000000000E+00 -0.16245626490E+01  0.20620629963E+01  0.12700000000E+01 0.  1.
         25    2    1    2    0    0  0.00000000000E+00  0.00000000000E+00  0.21170890644E+04  0.21207760707E+04  0.12500014142E+03 0.  0.
    9000005    1    3    3    0    0  0.11746109120E+01  0.30425746214E+02  0.13265788731E+03  0.13611106057E+03  0.10000000000E+01 0.  0.
    9000005    1    3    3    0    0 -0.11746109120E+01 -0.30425746214E+02  0.19844311771E+04  0.19846650101E+04  0.10000000000E+01 0.  0.
<mgrwt>
<rscale>  0 0.12500014E+03</rscale>
<asrwt>0</asrwt>
<pdfrwt beam="2">  1        4 0.28361621E-03 0.12500014E+03</pdfrwt>
<pdfrwt beam="1">  1       -4 0.32598923E+00 0.12500014E+03</pdfrwt>
<totfact> 0.83660796E+02</totfact>
</mgrwt>
</event>
<event>
 5    1  0.3209683E-002  0.1250023E+03  0.7818608E-02  0.1235066E+00
         -4   -1    0    0    0  501 -0.00000000000E+00  0.00000000000E+00  0.14485558330E+02  0.14541124446E+02  0.12700000000E+01 0.  1.
          4   -1    0    0  501    0  0.00000000000E+00 -0.00000000000E+00 -0.26910185695E+03  0.26910485376E+03  0.12700000000E+01 0.  1.
         25    2    1    2    0    0  0.00000000000E+00  0.00000000000E+00 -0.25461629862E+03  0.28364597820E+03  0.12500232568E+03 0.  0.
    9000005    1    3    3    0    0 -0.36119515870E+02  0.22076992717E+02 -0.23162334381E+03  0.23546207005E+03  0.10000000000E+01 0.  0.
    9000005    1    3    3    0    0  0.36119515870E+02 -0.22076992717E+02 -0.22992954817E+02  0.48183908158E+02  0.10000000000E+01 0.  0.
<mgrwt>
<rscale>  0 0.12500233E+03</rscale>
<asrwt>0</asrwt>
<pdfrwt beam="2">  1        4 0.41404787E-01 0.12500233E+03</pdfrwt>
<pdfrwt beam="1">  1       -4 0.22330525E-02 0.12500233E+03</pdfrwt>
<totfact> 0.77693132E+03</totfact>
</mgrwt>
</event>
<event>
 5    1  0.3209683E-002  0.1250020E+03  0.7818608E-02  0.1235066E+00
          4   -1    0    0  501    0  0.00000000000E+00  0.00000000000E+00  0.92514709159E+02  0.92523425741E+02  0.12700000000E+01 0.  1.
         -4   -1    0    0    0  501 -0.00000000000E+00 -0.00000000000E+00 -0.42204084994E+02  0.42223189010E+02  0.12700000000E+01 0.  1.
         25    2    1    2    0    0  0.00000000000E+00  0.00000000000E+00  0.50310624165E+02  0.13474661475E+03  0.12500196512E+03 0.  0.
    9000005    1    3    3    0    0 -0.28084295824E+02 -0.16506318299E+02 -0.32333067324E+02  0.45908751435E+02  0.10000000000E+01 0.  0.
    9000005    1    3    3    0    0  0.28084295824E+02  0.16506318299E+02  0.82643691489E+02  0.88837863316E+02  0.10000000000E+01 0.  0.
<mgrwt>
<rscale>  0 0.12500197E+03</rscale>
<asrwt>0</asrwt>
<pdfrwt beam="1">  1        4 0.14235172E-01 0.12500197E+03</pdfrwt>
<pdfrwt beam="2">  1       -4 0.64950763E-02 0.12500197E+03</pdfrwt>
<totfact> 0.10242960E+04</totfact>
</mgrwt>
</event>
<event>
 5    1  0.3209683E-002  0.1250025E+03  0.7818608E-02  0.1235065E+00
          4   -1    0    0  501    0  0.00000000000E+00  0.00000000000E+00  0.17898283764E+04  0.17898288270E+04  0.12700000000E+01 0.  1.
         -4   -1    0    0    0  501 -0.00000000000E+00 -0.00000000000E+00 -0.19973224218E+01  0.23668960384E+01  0.12700000000E+01 0.  1.
         25    2    1    2    0    0  0.00000000000E+00  0.00000000000E+00  0.17878310540E+04  0.17921957230E+04  0.12500252803E+03 0.  0.
    9000005    1    3    3    0    0  0.50048820356E+02  0.35511410307E+02  0.72460005549E+03  0.72719473671E+03  0.10000000000E+01 0.  0.
    9000005    1    3    3    0    0 -0.50048820356E+02 -0.35511410307E+02  0.10632309985E+04  0.10650009863E+04  0.10000000000E+01 0.  0.
<mgrwt>
<rscale>  0 0.12500253E+03</rscale>
<asrwt>0</asrwt>
<pdfrwt beam="1">  1        4 0.27538655E+00 0.12500253E+03</pdfrwt>
<pdfrwt beam="2">  1       -4 0.33574393E-03 0.12500253E+03</pdfrwt>
<totfact> 0.12823409E+03</totfact>
</mgrwt>
</event>
<event>
 5    1  0.3209683E-002  0.1250000E+03  0.7818608E-02  0.1235069E+00
         -4   -1    0    0    0  501 -0.00000000000E+00  0.00000000000E+00  0.46319256429E+03  0.46319430535E+03  0.12700000000E+01 0.  1.
          4   -1    0    0  501    0  0.00000000000E+00 -0.00000000000E+00 -0.83837413652E+01  0.84793879070E+01  0.12700000000E+01 0.  1.
         25    2    1    2    0    0  0.00000000000E+00  0.00000000000E+00  0.45480882292E+03  0.47167369326E+03  0.12500003002E+03 0.  0.
    9000005    1    3    3    0    0  0.58122136736E+02 -0.21850438209E+02  0.20082211437E+03  0.21020500957E+03  0.10000000000E+01 0.  0.
    9000005    1    3    3    0    0 -0.58122136736E+02  0.21850438209E+02  0.25398670855E+03  0.26146868369E+03  0.10000000000E+01 0.  0.
<mgrwt>
<rscale>  0 0.12500003E+03</rscale>
<asrwt>0</asrwt>
<pdfrwt beam="2">  1        4 0.12972972E-02 0.12500003E+03</pdfrwt>
<pdfrwt beam="1">  1       -4 0.71267912E-01 0.12500003E+03</pdfrwt>
<totfact> 0.58131077E+03</totfact>
</mgrwt>
</event>
<event>
 5    1  0.3209683E-002  0.1250031E+03  0.7818608E-02  0.1235064E+00
          4   -1    0    0  501    0  0.00000000000E+00  0.00000000000E+00  0.47815011450E+01  0.49472874587E+01  0.12700000000E+01 0. -1.
         -4   -1    0    0    0  501 -0.00000000000E+00 -0.00000000000E+00 -0.80290312687E+03  0.80290413129E+03  0.12700000000E+01 0. -1.
         25    2    1    2    0    0  0.00000000000E+00  0.00000000000E+00 -0.79812162573E+03  0.80785141875E+03  0.12500314124E+03 0.  0.
    9000005    1    3    3    0    0 -0.16335011933E+02 -0.41274245473E+02 -0.68334761821E+03  0.68478855369E+03  0.10000000000E+01 0.  0.
    9000005    1    3    3    0    0  0.16335011933E+02  0.41274245473E+02 -0.11477400752E+03  0.12306286506E+03  0.10000000000E+01 0.  0.
<mgrwt>
<rscale>  0 0.12500314E+03</rscale>
<asrwt>0</asrwt>
<pdfrwt beam="1">  1        4 0.74844625E-03 0.12500314E+03</pdfrwt>
<pdfrwt beam="2">  1       -4 0.12353628E+00 0.12500314E+03</pdfrwt>
<totfact> 0.37914039E+03</totfact>
</mgrwt>
</event>
<event>
 5    1  0.3209683E-002  0.1250032E+03  0.7818608E-02  0.1235064E+00
         -4   -1    0    0    0  501 -0.00000000000E+00  0.00000000000E+00  0.41888149338E+02  0.41907397378E+02  0.12700000000E+01 0. -1.
          4   -1    0    0  501    0  0.00000000000E+00 -0.00000000000E+00 -0.93214040730E+02  0.93222691923E+02  0.12700000000E+01 0. -1.
         25    2    1    2    0    0  0.00000000000E+00  0.00000000000E+00 -0.51325891392E+02  0.13513008930E+03  0.12500317559E+03 0.  0.
    9000005    1    3    3    0    0  0.29901554412E+02 -0.38581553585E+02 -0.67847529622E+02  0.83587837088E+02  0.10000000000E+01 0.  0.
    9000005    1    3    3    0    0 -0.29901554412E+02  0.38581553585E+02  0.16521638230E+02  0.51542252212E+02  0.10000000000E+01 0.  0.
<mgrwt>
<rscale>  0 0.12500318E+03</rscale>
<asrwt>0</asrwt>
<pdfrwt beam="2">  1        4 0.14342768E-01 0.12500318E+03</pdfrwt>
<pdfrwt beam="1">  1       -4 0.64464768E-02 0.12500318E+03</pdfrwt>
<totfact> 0.10234597E+04</totfact>
</mgrwt>
</event>
<event>
 5    1  0.3209683E-002  0.1249993E+03  0.7818608E-02  0.1235070E+00
          4   -1    0    0  501    0  0.00000000000E+00  0.00000000000E+00  0.47614227905E+03  0.47614397276E+03  0.12700000000E+01 0. -1.
         -4   -1    0    0    0  501 -0.00000000000E+00 -0.00000000000E+00 -0.81529899285E+01  0.82513117002E+01  0.12700000000E+01 0. -1.
         25    2    1    2    0    0  0.00000000000E+00  0.00000000000E+00  0.46798928912E+03  0.48439528446E+03  0.12499926751E+03 0.  0.
    9000005    1    3    3    0    0  0.39244114891E+02 -0.30990291639E+02  0.88755033075E+02  0.10187715458E+03  0.10000000000E+01 0.  0.
    9000005    1    3    3    0    0 -0.39244114891E+02  0.30990291639E+02  0.37923425604E+03  0.38251812988E+03  0.10000000000E+01 0.  0.
<mgrwt>
<rscale>  0 0.12499927E+03</rscale>
<asrwt>0</asrwt>
<pdfrwt beam="1">  1        4 0.73260343E-01 0.12499927E+03</pdfrwt>
<pdfrwt beam="2">  1       -4 0.12619998E-02 0.12499927E+03</pdfrwt>
<totfact> 0.57096681E+03</totfact>
</mgrwt>
</event>
<event>
 5    1  0.3209683E-002  0.1250007E+03  0.7818608E-02  0.1235068E+00
          4   -1    0    0  501    0  0.00000000000E+00  0.00000000000E+00  0.61329695360E+01  0.62630835321E+01  0.12700000000E+01 0.  1.
         -4   -1    0    0    0  501 -0.00000000000E+00 -0.00000000000E+00 -0.63011708317E+03  0.63011836301E+03  0.12700000000E+01 0.  1.
         25    2    1    2    0    0  0.00000000000E+00  0.00000000000E+00 -0.62398411363E+03  0.63638144654E+03  0.12500068574E+03 0.  0.
    9000005    1    3    3    0    0  0.60109903802E+01 -0.49855004493E+02 -0.12261970572E+03  0.13250753076E+03  0.10000000000E+01 0.  0.
    9000005    1    3    3    0    0 -0.60109903802E+01  0.49855004493E+02 -0.50136440792E+03  0.50387391578E+03  0.10000000000E+01 0.  0.
<mgrwt>
<rscale>  0 0.12500069E+03</rscale>
<asrwt>0</asrwt>
<pdfrwt beam="1">  1        4 0.95364149E-03 0.12500069E+03</pdfrwt>
<pdfrwt beam="2">  1       -4 0.96951146E-01 0.12500069E+03</pdfrwt>
<totfact> 0.46648104E+03</totfact>
</mgrwt>
</event>
<event>
 5    1  0.3209683E-002  0.1250009E+03  0.7818608E-02  0.1235068E+00
         -4   -1    0    0    0  501 -0.00000000000E+00  0.00000000000E+00  0.11707341055E+02  0.11776023717E+02  0.12700000000E+01 0. -1.
          4   -1    0    0  501    0  0.00000000000E+00 -0.00000000000E+00 -0.33261697174E+03  0.33261939629E+03  0.12700000000E+01 0. -1.
         25    2    1    2    0    0  0.00000000000E+00  0.00000000000E+00 -0.32090963068E+03  0.34439542001E+03  0.12500085702E+03 0.  0.
    9000005    1    3    3    0    0  0.11853941995E+02  0.83338711015E+01  0.70283801129E+01  0.16135906401E+02  0.10000000000E+01 0.  0.
    9000005    1    3    3    0    0 -0.11853941995E+02 -0.83338711015E+01 -0.32793801080E+03  0.32825951361E+03  0.10000000000E+01 0.  0.
<mgrwt>
<rscale>  0 0.12500086E+03</rscale>
<asrwt>0</asrwt>
<pdfrwt beam="2">  1        4 0.51177304E-01 0.12500086E+03</pdfrwt>
<pdfrwt beam="1">  1       -4 0.18065994E-02 0.12500086E+03</pdfrwt>
<totfact> 0.70344229E+03</totfact>
</mgrwt>
</event>
<event>
 5    1  0.3209683E-002  0.1250011E+03  0.7818608E-02  0.1235068E+00
          4   -1    0    0  501    0  0.00000000000E+00  0.00000000000E+00  0.68802661211E+02  0.68814381416E+02  0.12700000000E+01 0.  1.
         -4   -1    0    0    0  501 -0.00000000000E+00 -0.00000000000E+00 -0.56752043747E+02  0.56766252029E+02  0.12700000000E+01 0.  1.
         25    2    1    2    0    0  0.00000000000E+00  0.00000000000E+00  0.12050617464E+02  0.12558063345E+03  0.12500111246E+03 0.  0.
    9000005    1    3    3    0    0  0.26393453970E+01  0.61253698455E+02 -0.61277911567E+01  0.61624114947E+02  0.10000000000E+01 0.  0.
    9000005    1    3    3    0    0 -0.26393453970E+01 -0.61253698455E+02  0.18178408621E+02  0.63956518499E+02  0.10000000000E+01 0.  0.
<mgrwt>
<rscale>  0 0.12500111E+03</rscale>
<asrwt>0</asrwt>
<pdfrwt beam="1">  1        4 0.10587019E-01 0.12500111E+03</pdfrwt>
<pdfrwt beam="2">  1       -4 0.87330781E-02 0.12500111E+03</pdfrwt>
<totfact> 0.10439912E+04</totfact>
</mgrwt>
</event>
<event>
 5    1  0.3209683E-002  0.1250005E+03  0.7818608E-02  0.1235068E+00
         -4   -1    0    0    0  501 -0.00000000000E+00  0.00000000000E+00  0.81124231148E+01  0.82112306504E+01  0.12700000000E+01 0. -1.
          4   -1    0    0  501    0  0.00000000000E+00 -0.00000000000E+00 -0.47850417878E+03  0.47850586413E+03  0.12700000000E+01 0. -1.
         25    2    1    2    0    0  0.00000000000E+00  0.00000000000E+00 -0.47039175567E+03  0.48671709478E+03  0.12500050623E+03 0.  0.
    9000005    1    3    3    0    0  0.28588459630E+02  0.45327461893E+02 -0.36036570371E+03  0.36432995929E+03  0.10000000000E+01 0.  0.
    9000005    1    3    3    0    0 -0.28588459630E+02 -0.45327461893E+02 -0.11002605196E+03  0.12238713550E+03  0.10000000000E+01 0.  0.
<mgrwt>
<rscale>  0 0.12500051E+03</rscale>
<asrwt>0</asrwt>
<pdfrwt beam="2">  1        4 0.73623736E-01 0.12500051E+03</pdfrwt>
<pdfrwt beam="1">  1       -4 0.12557957E-02 0.12500051E+03</pdfrwt>
<totfact> 0.56909264E+03</totfact>
</mgrwt>
</event>
<event>
 5    1  0.3209683E-002  0.1250087E+03  0.7818608E-02  0.1235056E+00
          4   -1    0    0  501    0  0.00000000000E+00  0.00000000000E+00  0.12635103709E+02  0.12698769458E+02  0.12700000000E+01 0.  1.
         -4   -1    0    0    0  501 -0.00000000000E+00 -0.00000000000E+00 -0.30835972348E+03  0.30836233876E+03  0.12700000000E+01 0.  1.
         25    2    1    2    0    0  0.00000000000E+00  0.00000000000E+00 -0.29572461977E+03  0.32106110821E+03  0.12500873758E+03 0.  0.
    9000005    1    3    3    0    0  0.40914295458E+02 -0.19993488536E+02 -0.37931560704E+02  0.59274973252E+02  0.10000000000E+01 0.  0.
    9000005    1    3    3    0    0 -0.40914295458E+02  0.19993488536E+02 -0.25779305906E+03  0.26178613496E+03  0.10000000000E+01 0.  0.
<mgrwt>
<rscale>  0 0.12500874E+03</rscale>
<asrwt>0</asrwt>
<pdfrwt beam="1">  1        4 0.19489609E-02 0.12500874E+03</pdfrwt>
<pdfrwt beam="2">  1       -4 0.47445050E-01 0.12500874E+03</pdfrwt>
<totfact> 0.73015958E+03</totfact>
</mgrwt>
</event>
<event>
 5    1  0.3209683E-002  0.1250211E+03  0.7818608E-02  0.1235036E+00
         -4   -1    0    0    0  501 -0.00000000000E+00  0.00000000000E+00  0.12334305845E+02  0.12399516147E+02  0.12700000000E+01 0.  1.
          4   -1    0    0  501    0  0.00000000000E+00 -0.00000000000E+00 -0.31590302097E+03  0.31590557381E+03  0.12700000000E+01 0.  1.
         25    2    1    2    0    0  0.00000000000E+00  0.00000000000E+00 -0.30356871513E+03  0.32830508995E+03  0.12502106736E+03 0.  0.
    9000005    1    3    3    0    0  0.11532564607E+02 -0.35375142913E+02 -0.19903655521E+02  0.42208485943E+02  0.10000000000E+01 0.  0.
    9000005    1    3    3    0    0 -0.11532564607E+02  0.35375142913E+02 -0.28366505961E+03  0.28609660401E+03  0.10000000000E+01 0.  0.
<mgrwt>
<rscale>  0 0.12502107E+03</rscale>
<asrwt>0</asrwt>
<pdfrwt beam="2">  1        4 0.48605671E-01 0.12502107E+03</pdfrwt>
<pdfrwt beam="1">  1       -4 0.19027983E-02 0.12502107E+03</pdfrwt>
<totfact> 0.72145434E+03</totfact>
</mgrwt>
</event>
<event>
 5    1  0.3209683E-002  0.1250012E+03  0.7818608E-02  0.1235067E+00
          4   -1    0    0  501    0  0.00000000000E+00  0.00000000000E+00  0.21686483082E+02  0.21723638012E+02  0.12700000000E+01 0.  1.
         -4   -1    0    0    0  501 -0.00000000000E+00 -0.00000000000E+00 -0.17993373159E+03  0.17993821346E+03  0.12700000000E+01 0.  1.
         25    2    1    2    0    0  0.00000000000E+00  0.00000000000E+00 -0.15824724851E+03  0.20166185147E+03  0.12500124271E+03 0.  0.
    9000005    1    3    3    0    0  0.25184443482E+02  0.56942495837E+02 -0.70492410291E+02  0.94057875450E+02  0.10000000000E+01 0.  0.
    9000005    1    3    3    0    0 -0.25184443482E+02 -0.56942495837E+02 -0.87754838218E+02  0.10760397602E+03  0.10000000000E+01 0.  0.
<mgrwt>
<rscale>  0 0.12500124E+03</rscale>
<asrwt>0</asrwt>
<pdfrwt beam="1">  1        4 0.33395850E-02 0.12500124E+03</pdfrwt>
<pdfrwt beam="2">  1       -4 0.27685314E-01 0.12500124E+03</pdfrwt>
<totfact> 0.89853479E+03</totfact>
</mgrwt>
</event>
<event>
 5    1  0.3209683E-002  0.1249904E+03  0.7818608E-02  0.1235084E+00
         -4   -1    0    0    0  501 -0.00000000000E+00  0.00000000000E+00  0.87417388846E+03  0.87417481098E+03  0.12700000000E+01 0. -1.
          4   -1    0    0  501    0  0.00000000000E+00 -0.00000000000E+00 -0.43766252693E+01  0.45571645513E+01  0.12700000000E+01 0. -1.
         25    2    1    2    0    0  0.00000000000E+00  0.00000000000E+00  0.86979726319E+03  0.87873197554E+03  0.12499042275E+03 0.  0.
    9000005    1    3    3    0    0 -0.61987241389E+01  0.45318324773E+02  0.73420496694E+03  0.73562905613E+03  0.10000000000E+01 0.  0.
    9000005    1    3    3    0    0  0.61987241389E+01 -0.45318324773E+02  0.13559229625E+03  0.14310291941E+03  0.10000000000E+01 0.  0.
<mgrwt>
<rscale>  0 0.12499042E+03</rscale>
<asrwt>0</asrwt>
<pdfrwt beam="2">  1        4 0.68728489E-03 0.12499042E+03</pdfrwt>
<pdfrwt beam="1">  1       -4 0.13450238E+00 0.12499042E+03</pdfrwt>
<totfact> 0.34986833E+03</totfact>
</mgrwt>
</event>
<event>
 5    1  0.3209683E-002  0.1249996E+03  0.7818608E-02  0.1235070E+00
          4   -1    0    0  501    0  0.00000000000E+00  0.00000000000E+00  0.13298526030E+03  0.13299132436E+03  0.12700000000E+01 0. -1.
         -4   -1    0    0    0  501 -0.00000000000E+00 -0.00000000000E+00 -0.29352913873E+02  0.29380375301E+02  0.12700000000E+01 0. -1.
         25    2    1    2    0    0  0.00000000000E+00  0.00000000000E+00  0.10363234642E+03  0.16237169967E+03  0.12499962251E+03 0.  0.
    9000005    1    3    3    0    0 -0.57308155769E+02  0.24893714604E+02  0.53299888944E+02  0.82132818689E+02  0.10000000000E+01 0.  0.
    9000005    1    3    3    0    0  0.57308155769E+02 -0.24893714604E+02  0.50332457480E+02  0.80238880976E+02  0.10000000000E+01 0.  0.
<mgrwt>
<rscale>  0 0.12499962E+03</rscale>
<asrwt>0</asrwt>
<pdfrwt beam="1">  1        4 0.20461849E-01 0.12499962E+03</pdfrwt>
<pdfrwt beam="2">  1       -4 0.45184119E-02 0.12499962E+03</pdfrwt>
<totfact> 0.96888301E+03</totfact>
</mgrwt>
</event>
<event>
 5    1  0.3209683E-002  0.1249981E+03  0.7818608E-02  0.1235072E+00
          4   -1    0    0  501    0  0.00000000000E+00  0.00000000000E+00  0.52933375437E+01  0.54435578762E+01  0.12700000000E+01 0. -1.
         -4   -1    0    0    0  501 -0.00000000000E+00 -0.00000000000E+00 -0.72745778754E+03  0.72745889612E+03  0.12700000000E+01 0. -1.
         25    2    1    2    0    0  0.00000000000E+00  0.00000000000E+00 -0.72216444999E+03  0.73290245400E+03  0.12499805696E+03 0.  0.
    9000005    1    3    3    0    0  0.29468925721E+02  0.10158144817E+02 -0.43513542102E+02  0.53535351270E+02  0.10000000000E+01 0.  0.
    9000005    1    3    3    0    0 -0.29468925721E+02 -0.10158144817E+02 -0.67865090789E+03  0.67936710273E+03  0.10000000000E+01 0.  0.
<mgrwt>
<rscale>  0 0.12499806E+03</rscale>
<asrwt>0</asrwt>
<pdfrwt beam="1">  1        4 0.82600088E-03 0.12499806E+03</pdfrwt>
<pdfrwt beam="2">  1       -4 0.11192815E+00 0.12499806E+03</pdfrwt>
<totfact> 0.41407351E+03</totfact>
</mgrwt>
</event>
<event>
 5    1  0.3209683E-002  0.1250001E+03  0.7818608E-02  0.1235069E+00
          4   -1    0    0  501    0  0.00000000000E+00  0.00000000000E+00  0.48858059999E+03  0.48858225059E+03  0.12700000000E+01 0. -1.
         -4   -1    0    0    0  501 -0.00000000000E+00 -0.00000000000E+00 -0.79429983006E+01  0.80438872446E+01  0.12700000000E+01 0. -1.
         25    2    1    2    0    0  0.00000000000E+00  0.00000000000E+00  0.48063760169E+03  0.49662613783E+03  0.12500006647E+03 0.  0.
    9000005    1    3    3    0    0  0.40730169853E+02 -0.47084252712E+02  0.26185402510E+03  0.26915498148E+03  0.10000000000E+01 0.  0.
    9000005    1    3    3    0    0 -0.40730169853E+02  0.47084252712E+02  0.21878357659E+03  0.22747115636E+03  0.10000000000E+01 0.  0.
<mgrwt>
<rscale>  0 0.12500007E+03</rscale>
<asrwt>0</asrwt>
<pdfrwt beam="1">  1        4 0.75174140E-01 0.12500007E+03</pdfrwt>
<pdfrwt beam="2">  1       -4 0.12298873E-02 0.12500007E+03</pdfrwt>
<totfact> 0.56127003E+03</totfact>
</mgrwt>
</event>
<event>
 5    1  0.3209683E-002  0.1250271E+03  0.7818608E-02  0.1235027E+00
          4   -1    0    0  501    0  0.00000000000E+00  0.00000000000E+00  0.26102173695E+02  0.26133051326E+02  0.12700000000E+01 0. -1.
         -4   -1    0    0    0  501 -0.00000000000E+00 -0.00000000000E+00 -0.14959519000E+03  0.14960058079E+03  0.12700000000E+01 0. -1.
         25    2    1    2    0    0  0.00000000000E+00  0.00000000000E+00 -0.12349301631E+03  0.17573363211E+03  0.12502713457E+03 0.  0.
    9000005    1    3    3    0    0 -0.10539026671E+02  0.43370954707E+02 -0.12325234329E+03  0.13108871394E+03  0.10000000000E+01 0.  0.
    9000005    1    3    3    0    0  0.10539026671E+02 -0.43370954707E+02 -0.24067301697E+00  0.44644918175E+02  0.10000000000E+01 0.  0.
<mgrwt>
<rscale>  0 0.12502713E+03</rscale>
<asrwt>0</asrwt>
<pdfrwt beam="1">  1        4 0.40185090E-02 0.12502713E+03</pdfrwt>
<pdfrwt beam="2">  1       -4 0.23017434E-01 0.12502713E+03</pdfrwt>
<totfact> 0.94333219E+03</totfact>
</mgrwt>
</event>
<event>
 5    1  0.3209683E-002  0.1250002E+03  0.7818608E-02  0.1235069E+00
         -4   -1    0    0    0  501 -0.00000000000E+00  0.00000000000E+00  0.41475151338E+01  0.43376009251E+01  0.12700000000E+01 0.  1.
          4   -1    0    0  501    0  0.00000000000E+00 -0.00000000000E+00 -0.92054194684E+03  0.92054282290E+03  0.12700000000E+01 0.  1.
         25    2    1    2    0    0  0.00000000000E+00  0.00000000000E+00 -0.91639443170E+03  0.92488042382E+03  0.12500017565E+03 0.  0.
    9000005    1    3    3    0    0 -0.46114264608E+01 -0.51361103031E+01 -0.91774901047E+03  0.91777551237E+03  0.10000000000E+01 0.  0.
    9000005    1    3    3    0    0  0.46114264608E+01  0.51361103031E+01  0.13545787718E+01  0.71049114490E+01  0.10000000000E+01 0.  0.
<mgrwt>
<rscale>  0 0.12500018E+03</rscale>
<asrwt>0</asrwt>
<pdfrwt beam="2">  1        4 0.14163637E+00 0.12500018E+03</pdfrwt>
<pdfrwt beam="1">  1       -4 0.65276936E-03 0.12500018E+03</pdfrwt>
<totfact> 0.33224839E+03</totfact>
</mgrwt>
</event>
<event>
 5    1  0.3209683E-002  0.1249973E+03  0.7818608E-02  0.1235074E+00
          4   -1    0    0  501    0  0.00000000000E+00  0.00000000000E+00  0.10238918626E+02  0.10317381191E+02  0.12700000000E+01 0. -1.
         -4   -1    0    0    0  501 -0.00000000000E+00 -0.00000000000E+00 -0.37995776092E+03  0.37995988338E+03  0.12700000000E+01 0. -1.
         25    2    1    2    0    0  0.00000000000E+00  0.00000000000E+00 -0.36971884229E+03  0.39027726458E+03  0.12499728357E+03 0.  0.
    9000005    1    3    3    0    0  0.30549286971E+02  0.52184556077E+02 -0.23408801967E+03  0.24177404282E+03  0.10000000000E+01 0.  0.
    9000005    1    3    3    0    0 -0.30549286971E+02 -0.52184556077E+02 -0.13563082262E+03  0.14850322176E+03  0.10000000000E+01 0.  0.
<mgrwt>
<rscale>  0 0.12499728E+03</rscale>
<asrwt>0</asrwt>
<pdfrwt beam="1">  1        4 0.15814174E-02 0.12499728E+03</pdfrwt>
<pdfrwt beam="2">  1       -4 0.58461228E-01 0.12499728E+03</pdfrwt>
<totfact> 0.65513460E+03</totfact>
</mgrwt>
</event>
<event>
 5    1  0.3209683E-002  0.1249915E+03  0.7818608E-02  0.1235083E+00
          4   -1    0    0  501    0  0.00000000000E+00  0.00000000000E+00  0.26506644625E+02  0.26537051631E+02  0.12700000000E+01 0. -1.
         -4   -1    0    0    0  501 -0.00000000000E+00 -0.00000000000E+00 -0.14723103156E+03  0.14723650890E+03  0.12700000000E+01 0. -1.
         25    2    1    2    0    0  0.00000000000E+00  0.00000000000E+00 -0.12072438693E+03  0.17377356053E+03  0.12499149067E+03 0.  0.
    9000005    1    3    3    0    0 -0.52284390477E+02 -0.31711767136E+02 -0.78243662583E+02  0.99309437602E+02  0.10000000000E+01 0.  0.
    9000005    1    3    3    0    0  0.52284390477E+02  0.31711767136E+02 -0.42480724347E+02  0.74464122928E+02  0.10000000000E+01 0.  0.
<mgrwt>
<rscale>  0 0.12499149E+03</rscale>
<asrwt>0</asrwt>
<pdfrwt beam="1">  1        4 0.40807057E-02 0.12499149E+03</pdfrwt>
<pdfrwt beam="2">  1       -4 0.22653688E-01 0.12499149E+03</pdfrwt>
<totfact> 0.94768033E+03</totfact>
</mgrwt>
</event>
<event>
 5    1  0.3209683E-002  0.1250025E+03  0.7818608E-02  0.1235065E+00
          4   -1    0    0  501    0  0.00000000000E+00  0.00000000000E+00  0.23347294602E+02  0.23381810564E+02  0.12700000000E+01 0.  1.
         -4   -1    0    0    0  501 -0.00000000000E+00 -0.00000000000E+00 -0.16715671679E+03  0.16716154123E+03  0.12700000000E+01 0.  1.
         25    2    1    2    0    0  0.00000000000E+00  0.00000000000E+00 -0.14380942219E+03  0.19054335180E+03  0.12500247599E+03 0.  0.
    9000005    1    3    3    0    0  0.15346542249E+02 -0.34714169867E+02 -0.14758230782E+03  0.15238808198E+03  0.10000000000E+01 0.  0.
    9000005    1    3    3    0    0 -0.15346542249E+02  0.34714169867E+02  0.37728856352E+01  0.38155269814E+02  0.10000000000E+01 0.  0.
<mgrwt>
<rscale>  0 0.12500248E+03</rscale>
<asrwt>0</asrwt>
<pdfrwt beam="1">  1        4 0.35949178E-02 0.12500248E+03</pdfrwt>
<pdfrwt beam="2">  1       -4 0.25719443E-01 0.12500248E+03</pdfrwt>
<totfact> 0.91747771E+03</totfact>
</mgrwt>
</event>
<event>
 5    1  0.3209683E-002  0.1250068E+03  0.7818608E-02  0.1235059E+00
         -4   -1    0    0    0  501 -0.00000000000E+00  0.00000000000E+00  0.67498355022E+02  0.67510301664E+02  0.12700000000E+01 0. -1.
          4   -1    0    0  501    0  0.00000000000E+00 -0.00000000000E+00 -0.57854068109E+02  0.57868005813E+02  0.12700000000E+01 0. -1.
         25    2    1    2    0    0  0.00000000000E+00  0.00000000000E+00  0.96442869129E+01  0.12537830748E+03  0.12500683068E+03 0.  0.
    9000005    1    3    3    0    0 -0.53327394397E+02  0.32511448532E+02  0.70358839252E+01  0.62859437966E+02  0.10000000000E+01 0.  0.
    9000005    1    3    3    0    0  0.53327394397E+02 -0.32511448532E+02  0.26084029877E+01  0.62518869511E+02  0.10000000000E+01 0.  0.
<mgrwt>
<rscale>  0 0.12500683E+03</rscale>
<asrwt>0</asrwt>
<pdfrwt beam="2">  1        4 0.89026170E-02 0.12500683E+03</pdfrwt>
<pdfrwt beam="1">  1       -4 0.10386353E-01 0.12500683E+03</pdfrwt>
<totfact> 0.10443039E+04</totfact>
</mgrwt>
</event>
<event>
 5    1  0.3209683E-002  0.1249983E+03  0.7818608E-02  0.1235072E+00
          4   -1    0    0  501    0  0.00000000000E+00  0.00000000000E+00  0.26378551228E+03  0.26378856948E+03  0.12700000000E+01 0.  1.
         -4   -1    0    0    0  501 -0.00000000000E+00 -0.00000000000E+00 -0.14777640741E+02  0.14832112657E+02  0.12700000000E+01 0.  1.
         25    2    1    2    0    0  0.00000000000E+00  0.00000000000E+00  0.24900787154E+03  0.27862068214E+03  0.12499825769E+03 0.  0.
    9000005    1    3    3    0    0 -0.29680425086E+02 -0.10799140522E+02  0.43117793808E+01  0.31892640385E+02  0.10000000000E+01 0.  0.
    9000005    1    3    3    0    0  0.29680425086E+02  0.10799140522E+02  0.24469609216E+03  0.24672804175E+03  0.10000000000E+01 0.  0.
<mgrwt>
<rscale>  0 0.12499826E+03</rscale>
<asrwt>0</asrwt>
<pdfrwt beam="1">  1        4 0.40586809E-01 0.12499826E+03</pdfrwt>
<pdfrwt beam="2">  1       -4 0.22779087E-02 0.12499826E+03</pdfrwt>
<totfact> 0.78364385E+03</totfact>
</mgrwt>
</event>
<event>
 5    1  0.3209683E-002  0.1250007E+03  0.7818608E-02  0.1235068E+00
          4   -1    0    0  501    0  0.00000000000E+00  0.00000000000E+00  0.37232590762E+02  0.37254244253E+02  0.12700000000E+01 0. -1.
         -4   -1    0    0    0  501 -0.00000000000E+00 -0.00000000000E+00 -0.10486001849E+03  0.10486770894E+03  0.12700000000E+01 0. -1.
         25    2    1    2    0    0  0.00000000000E+00  0.00000000000E+00 -0.67627427731E+02  0.14212195319E+03  0.12500072239E+03 0.  0.
    9000005    1    3    3    0    0  0.25376983813E+02 -0.57107807071E+02 -0.33867207280E+02  0.71086430947E+02  0.10000000000E+01 0.  0.
    9000005    1    3    3    0    0 -0.25376983813E+02  0.57107807071E+02 -0.33760220450E+02  0.71035522245E+02  0.10000000000E+01 0.  0.
<mgrwt>
<rscale>  0 0.12500072E+03</rscale>
<asrwt>0</asrwt>
<pdfrwt beam="1">  1        4 0.57303482E-02 0.12500072E+03</pdfrwt>
<pdfrwt beam="2">  1       -4 0.16134568E-01 0.12500072E+03</pdfrwt>
<totfact> 0.10089631E+04</totfact>
</mgrwt>
</event>
<event>
 5    1  0.3209683E-002  0.1249987E+03  0.7818608E-02  0.1235071E+00
          4   -1    0    0  501    0  0.00000000000E+00  0.00000000000E+00  0.10456457627E+03  0.10457228845E+03  0.12700000000E+01 0. -1.
         -4   -1    0    0    0  501 -0.00000000000E+00 -0.00000000000E+00 -0.37336659395E+02  0.37358252566E+02  0.12700000000E+01 0. -1.
         25    2    1    2    0    0  0.00000000000E+00  0.00000000000E+00  0.67227916876E+02  0.14193054101E+03  0.12499874265E+03 0.  0.
    9000005    1    3    3    0    0 -0.50272195702E+02  0.32006333608E+00 -0.85323376048E+01  0.51001930221E+02  0.10000000000E+01 0.  0.
    9000005    1    3    3    0    0  0.50272195702E+02 -0.32006333608E+00  0.75760254481E+02  0.90928610790E+02  0.10000000000E+01 0.  0.
<mgrwt>
<rscale>  0 0.12499874E+03</rscale>
<asrwt>0</asrwt>
<pdfrwt beam="1">  1        4 0.16089112E-01 0.12499874E+03</pdfrwt>
<pdfrwt beam="2">  1       -4 0.57463558E-02 0.12499874E+03</pdfrwt>
<totfact> 0.10094016E+04</totfact>
</mgrwt>
</event>
<event>
 5    1  0.3209683E-002  0.1249991E+03  0.7818608E-02  0.1235071E+00
         -4   -1    0    0    0  501 -0.00000000000E+00  0.00000000000E+00  0.11841791124E+04  0.11841797934E+04  0.12700000000E+01 0.  1.
          4   -1    0    0  501    0  0.00000000000E+00 -0.00000000000E+00 -0.31757068605E+01  0.34202359661E+01  0.12700000000E+01 0.  1.
         25    2    1    2    0    0  0.00000000000E+00  0.00000000000E+00  0.11810034056E+04  0.11876000294E+04  0.12499914361E+03 0.  0.
    9000005    1    3    3    0    0  0.50763648748E+02  0.34727752224E+02  0.69554177924E+03  0.69825663726E+03  0.10000000000E+01 0.  0.
    9000005    1    3    3    0    0 -0.50763648748E+02 -0.34727752224E+02  0.48546162632E+03  0.48934339214E+03  0.10000000000E+01 0.  0.
<mgrwt>
<rscale>  0 0.12499914E+03</rscale>
<asrwt>0</asrwt>
<pdfrwt beam="2">  1        4 0.50743197E-03 0.12499914E+03</pdfrwt>
<pdfrwt beam="1">  1       -4 0.18220049E+00 0.12499914E+03</pdfrwt>
<totfact> 0.25040071E+03</totfact>
</mgrwt>
</event>
<event>
 5    1  0.3209683E-002  0.1249994E+03  0.7818608E-02  0.1235070E+00
          4   -1    0    0  501    0  0.00000000000E+00  0.00000000000E+00  0.28741568038E+02  0.28769613019E+02  0.12700000000E+01 0. -1.
         -4   -1    0    0    0  501 -0.00000000000E+00 -0.00000000000E+00 -0.13581088444E+03  0.13581682235E+03  0.12700000000E+01 0. -1.
         25    2    1    2    0    0  0.00000000000E+00  0.00000000000E+00 -0.10706931640E+03  0.16458643537E+03  0.12499942477E+03 0.  0.
    9000005    1    3    3    0    0 -0.25263776428E+01  0.36873567622E+02 -0.11988330049E+03  0.12545536381E+03  0.10000000000E+01 0.  0.
    9000005    1    3    3    0    0  0.25263776428E+01 -0.36873567622E+02  0.12813984082E+02  0.39131071558E+02  0.10000000000E+01 0.  0.
<mgrwt>
<rscale>  0 0.12499942E+03</rscale>
<asrwt>0</asrwt>
<pdfrwt beam="1">  1        4 0.44243939E-02 0.12499942E+03</pdfrwt>
<pdfrwt beam="2">  1       -4 0.20896596E-01 0.12499942E+03</pdfrwt>
<totfact> 0.96467019E+03</totfact>
</mgrwt>
</event>
<event>
 5    1  0.3209683E-002  0.1249967E+03  0.7818608E-02  0.1235074E+00
          4   -1    0    0  501    0  0.00000000000E+00  0.00000000000E+00  0.22095943665E+03  0.22096308639E+03  0.12700000000E+01 0.  1.
         -4   -1    0    0    0  501 -0.00000000000E+00 -0.00000000000E+00 -0.17651042104E+02  0.17696671647E+02  0.12700000000E+01 0.  1.
         25    2    1    2    0    0  0.00000000000E+00  0.00000000000E+00  0.20330839455E+03  0.23865975803E+03  0.12499670720E+03 0.  0.
    9000005    1    3    3    0    0 -0.10802511961E+02 -0.47372965470E+01  0.21882393943E+03  0.21914390867E+03  0.10000000000E+01 0.  0.
    9000005    1    3    3    0    0  0.10802511961E+02  0.47372965470E+01 -0.15515544879E+02  0.19515849358E+02  0.10000000000E+01 0.  0.
<mgrwt>
<rscale>  0 0.12499671E+03</rscale>
<asrwt>0</asrwt>
<pdfrwt beam="1">  1        4 0.33997551E-01 0.12499671E+03</pdfrwt>
<pdfrwt beam="2">  1       -4 0.27193356E-02 0.12499671E+03</pdfrwt>
<totfact> 0.84003544E+03</totfact>
</mgrwt>
</event>
<event>
 5    1  0.3209683E-002  0.1250019E+03  0.7818608E-02  0.1235066E+00
          4   -1    0    0  501    0  0.00000000000E+00  0.00000000000E+00  0.10420193605E+03  0.10420967506E+03  0.12700000000E+01 0.  1.
         -4   -1    0    0    0  501 -0.00000000000E+00 -0.00000000000E+00 -0.37468572858E+02  0.37490090051E+02  0.12700000000E+01 0.  1.
         25    2    1    2    0    0  0.00000000000E+00  0.00000000000E+00  0.66733363188E+02  0.14169976511E+03  0.12500192666E+03 0.  0.
    9000005    1    3    3    0    0  0.15567269393E+02 -0.14052583408E+02 -0.33366041791E+02  0.39422172969E+02  0.10000000000E+01 0.  0.
    9000005    1    3    3    0    0 -0.15567269393E+02  0.14052583408E+02  0.10009940498E+03  0.10227759214E+03  0.10000000000E+01 0.  0.
<mgrwt>
<rscale>  0 0.12500193E+03</rscale>
<asrwt>0</asrwt>
<pdfrwt beam="1">  1        4 0.16033317E-01 0.12500193E+03</pdfrwt>
<pdfrwt beam="2">  1       -4 0.57666465E-02 0.12500193E+03</pdfrwt>
<totfact> 0.10098040E+04</totfact>
</mgrwt>
</event>
<event>
 5    1  0.3209683E-002  0.1250022E+03  0.7818608E-02  0.1235066E+00
          4   -1    0    0  501    0  0.00000000000E+00  0.00000000000E+00  0.46957959173E+01  0.48645040134E+01  0.12700000000E+01 0. -1.
         -4   -1    0    0    0  501 -0.00000000000E+00 -0.00000000000E+00 -0.81704161549E+03  0.81704260253E+03  0.12700000000E+01 0. -1.
         25    2    1    2    0    0  0.00000000000E+00  0.00000000000E+00 -0.81234581958E+03  0.82190710654E+03  0.12500224479E+03 0.  0.
    9000005    1    3    3    0    0  0.37105359646E+02 -0.46934601828E+02 -0.28750563703E+03  0.29366674291E+03  0.10000000000E+01 0.  0.
    9000005    1    3    3    0    0 -0.37105359646E+02  0.46934601828E+02 -0.52484018254E+03  0.52824036364E+03  0.10000000000E+01 0.  0.
<mgrwt>
<rscale>  0 0.12500224E+03</rscale>
<asrwt>0</asrwt>
<pdfrwt beam="1">  1        4 0.73548426E-03 0.12500224E+03</pdfrwt>
<pdfrwt beam="2">  1       -4 0.12571165E+00 0.12500224E+03</pdfrwt>
<totfact> 0.37303450E+03</totfact>
</mgrwt>
</event>
<event>
 5    1  0.3209683E-002  0.1250030E+03  0.7818608E-02  0.1235065E+00
         -4   -1    0    0    0  501 -0.00000000000E+00  0.00000000000E+00  0.38798828006E+02  0.38819607863E+02  0.12700000000E+01 0. -1.
          4   -1    0    0  501    0  0.00000000000E+00 -0.00000000000E+00 -0.10063272860E+03  0.10064074208E+03  0.12700000000E+01 0. -1.
         25    2    1    2    0    0  0.00000000000E+00  0.00000000000E+00 -0.61833900597E+02  0.13946034994E+03  0.12500303173E+03 0.  0.
    9000005    1    3    3    0    0 -0.22487981493E+02  0.20910090328E+02  0.29806894146E+02  0.42806449605E+02  0.10000000000E+01 0.  0.
    9000005    1    3    3    0    0  0.22487981493E+02 -0.20910090328E+02 -0.91640794743E+02  0.96653900336E+02  0.10000000000E+01 0.  0.
<mgrwt>
<rscale>  0 0.12500303E+03</rscale>
<asrwt>0</asrwt>
<pdfrwt beam="2">  1        4 0.15484173E-01 0.12500303E+03</pdfrwt>
<pdfrwt beam="1">  1       -4 0.59712654E-02 0.12500303E+03</pdfrwt>
<totfact> 0.10144090E+04</totfact>
</mgrwt>
</event>
<event>
 5    1  0.3209683E-002  0.1249909E+03  0.7818608E-02  0.1235084E+00
          4   -1    0    0  501    0  0.00000000000E+00  0.00000000000E+00  0.42138698465E+01  0.44010906697E+01  0.12700000000E+01 0. -1.
         -4   -1    0    0    0  501 -0.00000000000E+00 -0.00000000000E+00 -0.90653238555E+03  0.90653327515E+03  0.12700000000E+01 0. -1.
         25    2    1    2    0    0  0.00000000000E+00  0.00000000000E+00 -0.90231851571E+03  0.91093436582E+03  0.12499085985E+03 0.  0.
    9000005    1    3    3    0    0  0.74602947102E+01 -0.42623136551E+02 -0.12260902658E+03  0.13002446372E+03  0.10000000000E+01 0.  0.
    9000005    1    3    3    0    0 -0.74602947102E+01  0.42623136551E+02 -0.77970948912E+03  0.78090990210E+03  0.10000000000E+01 0.  0.
<mgrwt>
<rscale>  0 0.12499086E+03</rscale>
<asrwt>0</asrwt>
<pdfrwt beam="1">  1        4 0.66275842E-03 0.12499086E+03</pdfrwt>
<pdfrwt beam="2">  1       -4 0.13948084E+00 0.12499086E+03</pdfrwt>
<totfact> 0.33751446E+03</totfact>
</mgrwt>
</event>
<event>
 5    1  0.3209683E-002  0.1249949E+03  0.7818608E-02  0.1235077E+00
          4   -1    0    0  501    0  0.00000000000E+00  0.00000000000E+00  0.20503294994E+02  0.20542590041E+02  0.12700000000E+01 0.  1.
         -4   -1    0    0    0  501 -0.00000000000E+00 -0.00000000000E+00 -0.19027874055E+03  0.19028297875E+03  0.12700000000E+01 0.  1.
         25    2    1    2    0    0  0.00000000000E+00  0.00000000000E+00 -0.16977544555E+03  0.21082556880E+03  0.12499487408E+03 0.  0.
    9000005    1    3    3    0    0  0.26562272026E+01 -0.59654982460E+02 -0.11594987710E+03  0.13042678588E+03  0.10000000000E+01 0.  0.
    9000005    1    3    3    0    0 -0.26562272026E+01  0.59654982460E+02 -0.53825568450E+02  0.80398782915E+02  0.10000000000E+01 0.  0.
<mgrwt>
<rscale>  0 0.12499487E+03</rscale>
<asrwt>0</asrwt>
<pdfrwt beam="1">  1        4 0.31577019E-02 0.12499487E+03</pdfrwt>
<pdfrwt beam="2">  1       -4 0.29277000E-01 0.12499487E+03</pdfrwt>
<totfact> 0.88351356E+03</totfact>
</mgrwt>
</event>
<event>
 4    1  0.3209683E-002  0.1242011E+03  0.7818608E-02  0.1236323E+00
          4   -1    0    0  501    0  0.00000000000E+00  0.00000000000E+00  0.11353348499E+03  0.11354058796E+03  0.12700000000E+01 0. -1.
         -4   -1    0    0    0  501 -0.00000000000E+00 -0.00000000000E+00 -0.33947710368E+02  0.33971457714E+02  0.12700000000E+01 0. -1.
    9000005    1    1    2    0    0  0.88191862849E+01 -0.61454367804E+02  0.41015487368E+02  0.74415640647E+02  0.10000000000E+01 0.  0.
    9000005    1    1    2    0    0 -0.88191862849E+01  0.61454367804E+02  0.38570287256E+02  0.73096405027E+02  0.10000000000E+01 0.  0.
<mgrwt>
<rscale>  0 0.12420108E+03</rscale>
<asrwt>0</asrwt>
<pdfrwt beam="1">  1        4 0.17469063E-01 0.12420108E+03</pdfrwt>
<pdfrwt beam="2">  1       -4 0.52250978E-02 0.12420108E+03</pdfrwt>
<totfact> 0.10161833E+04</totfact>
</mgrwt>
</event>
<event>
 5    1  0.3209683E-002  0.1249990E+03  0.7818608E-02  0.1235071E+00
          4   -1    0    0  501    0  0.00000000000E+00  0.00000000000E+00  0.22359440582E+02  0.22395479078E+02  0.12700000000E+01 0. -1.
         -4   -1    0    0    0  501 -0.00000000000E+00 -0.00000000000E+00 -0.17452077731E+03  0.17452539819E+03  0.12700000000E+01 0. -1.
         25    2    1    2    0    0  0.00000000000E+00  0.00000000000E+00 -0.15216133673E+03  0.19692087727E+03  0.12499903803E+03 0.  0.
    9000005    1    3    3    0    0  0.23930655721E+02  0.37364747329E+01 -0.16683334181E+03  0.16858529434E+03  0.10000000000E+01 0.  0.
    9000005    1    3    3    0    0 -0.23930655721E+02 -0.37364747329E+01  0.14672005085E+02  0.28335582928E+02  0.10000000000E+01 0.  0.
<mgrwt>
<rscale>  0 0.12499904E+03</rscale>
<asrwt>0</asrwt>
<pdfrwt beam="1">  1        4 0.34430417E-02 0.12499904E+03</pdfrwt>
<pdfrwt beam="2">  1       -4 0.26852477E-01 0.12499904E+03</pdfrwt>
<totfact> 0.90658807E+03</totfact>
</mgrwt>
</event>
<event>
 5    1  0.3209683E-002  0.1249975E+03  0.7818608E-02  0.1235073E+00
          4   -1    0    0  501    0  0.00000000000E+00  0.00000000000E+00  0.58383071901E+02  0.58396883347E+02  0.12700000000E+01 0.  1.
         -4   -1    0    0    0  501 -0.00000000000E+00 -0.00000000000E+00 -0.66876807015E+02  0.66888864668E+02  0.12700000000E+01 0.  1.
         25    2    1    2    0    0  0.00000000000E+00  0.00000000000E+00 -0.84937351138E+01  0.12528574801E+03  0.12499750045E+03 0.  0.
    9000005    1    3    3    0    0 -0.45972230913E+02  0.38047154914E+02 -0.22838543879E+02  0.63903294897E+02  0.10000000000E+01 0.  0.
    9000005    1    3    3    0    0  0.45972230913E+02 -0.38047154914E+02  0.14344808765E+02  0.61382453118E+02  0.10000000000E+01 0.  0.
<mgrwt>
<rscale>  0 0.12499750E+03</rscale>
<asrwt>0</asrwt>
<pdfrwt beam="1">  1        4 0.89840009E-02 0.12499750E+03</pdfrwt>
<pdfrwt beam="2">  1       -4 0.10290730E-01 0.12499750E+03</pdfrwt>
<totfact> 0.10447249E+04</totfact>
</mgrwt>
</event>
<event>
 5    1  0.3209683E-002  0.1250002E+03  0.7818608E-02  0.1235069E+00
         -4   -1    0    0    0  501 -0.00000000000E+00  0.00000000000E+00  0.16841931735E+03  0.16842410563E+03  0.12700000000E+01 0.  1.
          4   -1    0    0  501    0  0.00000000000E+00 -0.00000000000E+00 -0.23171158840E+02  0.23205936783E+02  0.12700000000E+01 0.  1.
         25    2    1    2    0    0  0.00000000000E+00  0.00000000000E+00  0.14524815851E+03  0.19163004242E+03  0.12500018242E+03 0.  0.
    9000005    1    3    3    0    0  0.20991372778E+02 -0.89241421018E+01 -0.16569012384E+02  0.28210108379E+02  0.10000000000E+01 0.  0.
    9000005    1    3    3    0    0 -0.20991372778E+02  0.89241421018E+01  0.16181717090E+03  0.16341993404E+03  0.10000000000E+01 0.  0.
<mgrwt>
<rscale>  0 0.12500018E+03</rscale>
<asrwt>0</asrwt>
<pdfrwt beam="2">  1        4 0.35678374E-02 0.12500018E+03</pdfrwt>
<pdfrwt beam="1">  1       -4 0.25913707E-01 0.12500018E+03</pdfrwt>
<totfact> 0.91564090E+03</totfact>
</mgrwt>
</event>
<event>
 5    1  0.3209683E-002  0.1249968E+03  0.7818608E-02  0.1235074E+00
          4   -1    0    0  501    0  0.00000000000E+00  0.00000000000E+00  0.23044657597E+02  0.23079626162E+02  0.12700000000E+01 0.  1.
         -4   -1    0    0    0  501 -0.00000000000E+00 -0.00000000000E+00 -0.16933341466E+03  0.16933817709E+03  0.12700000000E+01 0.  1.
         25    2    1    2    0    0  0.00000000000E+00  0.00000000000E+00 -0.14628875706E+03  0.19241780325E+03  0.12499684222E+03 0.  0.
    9000005    1    3    3    0    0 -0.41574669276E+02 -0.38193981782E+02 -0.31901044316E+02  0.64852987581E+02  0.10000000000E+01 0.  0.
    9000005    1    3    3    0    0  0.41574669276E+02  0.38193981782E+02 -0.11438771275E+03  0.12756481567E+03  0.10000000000E+01 0.  0.
<mgrwt>
<rscale>  0 0.12499684E+03</rscale>
<asrwt>0</asrwt>
<pdfrwt beam="1">  1        4 0.35483883E-02 0.12499684E+03</pdfrwt>
<pdfrwt beam="2">  1       -4 0.26054350E-01 0.12499684E+03</pdfrwt>
<totfact> 0.91434785E+03</totfact>
</mgrwt>
</event>
<event>
 5    1  0.3209683E-002  0.1249994E+03  0.7818608E-02  0.1235070E+00
          4   -1    0    0  501    0  0.00000000000E+00  0.00000000000E+00  0.43756515314E+02  0.43774941833E+02  0.12700000000E+01 0.  1.
         -4   -1    0    0    0  501 -0.00000000000E+00 -0.00000000000E+00 -0.89229844139E+02  0.89238881577E+02  0.12700000000E+01 0.  1.
         25    2    1    2    0    0  0.00000000000E+00  0.00000000000E+00 -0.45473328825E+02  0.13301382341E+03  0.12499941433E+03 0.  0.
    9000005    1    3    3    0    0 -0.11224320535E+02  0.48853194172E+02 -0.62446763622E+02  0.80082571382E+02  0.10000000000E+01 0.  0.
    9000005    1    3    3    0    0  0.11224320535E+02 -0.48853194172E+02  0.16973434798E+02  0.52931252027E+02  0.10000000000E+01 0.  0.
<mgrwt>
<rscale>  0 0.12499941E+03</rscale>
<asrwt>0</asrwt>
<pdfrwt beam="1">  1        4 0.67338842E-02 0.12499941E+03</pdfrwt>
<pdfrwt beam="2">  1       -4 0.13729781E-01 0.12499941E+03</pdfrwt>
<totfact> 0.10280242E+04</totfact>
</mgrwt>
</event>
<event>
 5    1  0.3209683E-002  0.1249912E+03  0.7818608E-02  0.1235083E+00
         -4   -1    0    0    0  501 -0.00000000000E+00  0.00000000000E+00  0.15934325100E+03  0.15934831200E+03  0.12700000000E+01 0.  1.
          4   -1    0    0  501    0  0.00000000000E+00 -0.00000000000E+00 -0.24489339961E+02  0.24522248505E+02  0.12700000000E+01 0.  1.
         25    2    1    2    0    0  0.00000000000E+00  0.00000000000E+00  0.13485391104E+03  0.18387056051E+03  0.12499122249E+03 0.  0.
    9000005    1    3    3    0    0  0.41754816372E+02  0.37086818072E+02  0.26189678119E+02  0.61691133924E+02  0.10000000000E+01 0.  0.
    9000005    1    3    3    0    0 -0.41754816372E+02 -0.37086818072E+02  0.10866423292E+03  0.12217942658E+03  0.10000000000E+01 0.  0.
<mgrwt>
<rscale>  0 0.12499122E+03</rscale>
<asrwt>0</asrwt>
<pdfrwt beam="2">  1        4 0.37705116E-02 0.12499122E+03</pdfrwt>
<pdfrwt beam="1">  1       -4 0.24517266E-01 0.12499122E+03</pdfrwt>
<totfact> 0.92943177E+03</totfact>
</mgrwt>
</event>
<event>
 5    1  0.3209683E-002  0.1249958E+03  0.7818608E-02  0.1235076E+00
          4   -1    0    0  501    0  0.00000000000E+00  0.00000000000E+00  0.64819004375E+01  0.66051444558E+01  0.12700000000E+01 0.  1.
         -4   -1    0    0    0  501 -0.00000000000E+00 -0.00000000000E+00 -0.59679990375E+03  0.59680125504E+03  0.12700000000E+01 0.  1.
         25    2    1    2    0    0  0.00000000000E+00  0.00000000000E+00 -0.59031800331E+03  0.60340639949E+03  0.12499575159E+03 0.  0.
    9000005    1    3    3    0    0  0.27554033936E+02  0.57389198003E+01 -0.25824508020E+02  0.38210799535E+02  0.10000000000E+01 0.  0.
    9000005    1    3    3    0    0 -0.27554033936E+02 -0.57389198003E+01 -0.56449349529E+03  0.56519559996E+03  0.10000000000E+01 0.  0.
<mgrwt>
<rscale>  0 0.12499575E+03</rscale>
<asrwt>0</asrwt>
<pdfrwt beam="1">  1        4 0.10068002E-02 0.12499575E+03</pdfrwt>
<pdfrwt beam="2">  1       -4 0.91824912E-01 0.12499575E+03</pdfrwt>
<totfact> 0.48657841E+03</totfact>
</mgrwt>
</event>
<event>
 5    1  0.3209683E-002  0.1249997E+03  0.7818608E-02  0.1235070E+00
          4   -1    0    0  501    0  0.00000000000E+00  0.00000000000E+00  0.32167170113E+01  0.34583476301E+01  0.12700000000E+01 0. -1.
         -4   -1    0    0    0  501 -0.00000000000E+00 -0.00000000000E+00 -0.11701537719E+04  0.11701544610E+04  0.12700000000E+01 0. -1.
         25    2    1    2    0    0  0.00000000000E+00  0.00000000000E+00 -0.11669370548E+04  0.11736128087E+04  0.12499973881E+03 0.  0.
    9000005    1    3    3    0    0  0.30394826211E+02  0.53513985726E+02 -0.68530330006E+03  0.68806191960E+03  0.10000000000E+01 0.  0.
    9000005    1    3    3    0    0 -0.30394826211E+02 -0.53513985726E+02 -0.48163375478E+03  0.48555088906E+03  0.10000000000E+01 0.  0.
<mgrwt>
<rscale>  0 0.12499974E+03</rscale>
<asrwt>0</asrwt>
<pdfrwt beam="1">  1        4 0.51352046E-03 0.12499974E+03</pdfrwt>
<pdfrwt beam="2">  1       -4 0.18004197E+00 0.12499974E+03</pdfrwt>
<totfact> 0.25414270E+03</totfact>
</mgrwt>
</event>
<event>
 5    1  0.3209683E-002  0.1249931E+03  0.7818608E-02  0.1235080E+00
         -4   -1    0    0    0  501 -0.00000000000E+00  0.00000000000E+00  0.82914812168E+02  0.82924537846E+02  0.12700000000E+01 0. -1.
          4   -1    0    0  501    0  0.00000000000E+00 -0.00000000000E+00 -0.47085333585E+02  0.47102457885E+02  0.12700000000E+01 0. -1.
         25    2    1    2    0    0  0.00000000000E+00  0.00000000000E+00  0.35829478583E+02  0.13002699573E+03  0.12499307214E+03 0.  0.
    9000005    1    3    3    0    0  0.57541666087E+02 -0.18742018474E+02  0.17148220814E+01  0.60549543411E+02  0.10000000000E+01 0.  0.
    9000005    1    3    3    0    0 -0.57541666087E+02  0.18742018474E+02  0.34114656502E+02  0.69477452319E+02  0.10000000000E+01 0.  0.
<mgrwt>
<rscale>  0 0.12499307E+03</rscale>
<asrwt>0</asrwt>
<pdfrwt beam="2">  1        4 0.72459629E-02 0.12499307E+03</pdfrwt>
<pdfrwt beam="1">  1       -4 0.12758190E-01 0.12499307E+03</pdfrwt>
<totfact> 0.10345548E+04</totfact>
</mgrwt>
</event>
<event>
 5    1  0.3209683E-002  0.1249996E+03  0.7818608E-02  0.1235070E+00
          4   -1    0    0  501    0  0.00000000000E+00  0.00000000000E+00  0.15711630815E+02  0.15762875463E+02  0.12700000000E+01 0. -1.
         -4   -1    0    0    0  501 -0.00000000000E+00 -0.00000000000E+00 -0.24816228556E+03  0.24816553523E+03  0.12700000000E+01 0. -1.
         25    2    1    2    0    0  0.00000000000E+00  0.00000000000E+00 -0.23245065475E+03  0.26392841069E+03  0.12499959631E+03 0.  0.
    9000005    1    3    3    0    0  0.33232840950E+02  0.49400498015E+02 -0.15630888093E+03  0.16726714315E+03  0.10000000000E+01 0.  0.
    9000005    1    3    3    0    0 -0.33232840950E+02 -0.49400498015E+02 -0.76141773822E+02  0.96661267541E+02  0.10000000000E+01 0.  0.
<mgrwt>
<rscale>  0 0.12499960E+03</rscale>
<asrwt>0</asrwt>
<pdfrwt beam="1">  1        4 0.24213660E-02 0.12499960E+03</pdfrwt>
<pdfrwt beam="2">  1       -4 0.38183002E-01 0.12499960E+03</pdfrwt>
<totfact> 0.80358629E+03</totfact>
</mgrwt>
</event>
<event>
 5    1  0.3209683E-002  0.1249981E+03  0.7818608E-02  0.1235072E+00
          4   -1    0    0  501    0  0.00000000000E+00  0.00000000000E+00  0.11950778057E+03  0.11951452847E+03  0.12700000000E+01 0.  1.
         -4   -1    0    0    0  501 -0.00000000000E+00 -0.00000000000E+00 -0.32665131006E+02  0.32689810089E+02  0.12700000000E+01 0.  1.
         25    2    1    2    0    0  0.00000000000E+00  0.00000000000E+00  0.86842649561E+02  0.15220433856E+03  0.12499805956E+03 0.  0.
    9000005    1    3    3    0    0 -0.19178889278E+02 -0.15240592983E+02 -0.26580767499E+02  0.36161342194E+02  0.10000000000E+01 0.  0.
    9000005    1    3    3    0    0  0.19178889278E+02  0.15240592983E+02  0.11342341706E+03  0.11604299637E+03  0.10000000000E+01 0.  0.
<mgrwt>
<rscale>  0 0.12499806E+03</rscale>
<asrwt>0</asrwt>
<pdfrwt beam="1">  1        4 0.18388230E-01 0.12499806E+03</pdfrwt>
<pdfrwt beam="2">  1       -4 0.50278222E-02 0.12499806E+03</pdfrwt>
<totfact> 0.98870414E+03</totfact>
</mgrwt>
</event>
<event>
 5    1  0.3209683E-002  0.1250013E+03  0.7818608E-02  0.1235067E+00
         -4   -1    0    0    0  501 -0.00000000000E+00  0.00000000000E+00  0.14897385661E+03  0.14897926988E+03  0.12700000000E+01 0. -1.
          4   -1    0    0  501    0  0.00000000000E+00 -0.00000000000E+00 -0.26200305275E+02  0.26231067391E+02  0.12700000000E+01 0. -1.
         25    2    1    2    0    0  0.00000000000E+00  0.00000000000E+00  0.12277355134E+03  0.17521033727E+03  0.12500126951E+03 0.  0.
    9000005    1    3    3    0    0 -0.43471606650E+02 -0.46849120947E+01 -0.11973736555E+01  0.43751145011E+02  0.10000000000E+01 0.  0.
    9000005    1    3    3    0    0  0.43471606650E+02  0.46849120947E+01  0.12397092499E+03  0.13145919226E+03  0.10000000000E+01 0.  0.
<mgrwt>
<rscale>  0 0.12500127E+03</rscale>
<asrwt>0</asrwt>
<pdfrwt beam="2">  1        4 0.40335989E-02 0.12500127E+03</pdfrwt>
<pdfrwt beam="1">  1       -4 0.22921838E-01 0.12500127E+03</pdfrwt>
<totfact> 0.94483641E+03</totfact>
</mgrwt>
</event>
<event>
 5    1  0.3209683E-002  0.1249919E+03  0.7818608E-02  0.1235082E+00
         -4   -1    0    0    0  501 -0.00000000000E+00  0.00000000000E+00  0.97188664742E+01  0.98014930262E+01  0.12700000000E+01 0. -1.
          4   -1    0    0  501    0  0.00000000000E+00 -0.00000000000E+00 -0.40008758692E+03  0.40008960260E+03  0.12700000000E+01 0. -1.
         25    2    1    2    0    0  0.00000000000E+00  0.00000000000E+00 -0.39036872045E+03  0.40989109563E+03  0.12499188922E+03 0.  0.
    9000005    1    3    3    0    0  0.42144829362E+02 -0.44183764363E+02 -0.15163556661E+03  0.16347090486E+03  0.10000000000E+01 0.  0.
    9000005    1    3    3    0    0 -0.42144829362E+02  0.44183764363E+02 -0.23873315383E+03  0.24642019076E+03  0.10000000000E+01 0.  0.
<mgrwt>
<rscale>  0 0.12499189E+03</rscale>
<asrwt>0</asrwt>
<pdfrwt beam="2">  1        4 0.61558435E-01 0.12499189E+03</pdfrwt>
<pdfrwt beam="1">  1       -4 0.15017215E-02 0.12499189E+03</pdfrwt>
<totfact> 0.63613420E+03</totfact>
</mgrwt>
</event>
<event>
 5    1  0.3209683E-002  0.1250228E+03  0.7818608E-02  0.1235034E+00
         -4   -1    0    0    0  501 -0.00000000000E+00  0.00000000000E+00  0.19821890203E+02  0.19862533354E+02  0.12700000000E+01 0.  1.
          4   -1    0    0  501    0  0.00000000000E+00 -0.00000000000E+00 -0.19689476298E+03  0.19689885878E+03  0.12700000000E+01 0.  1.
         25    2    1    2    0    0  0.00000000000E+00  0.00000000000E+00 -0.17707287278E+03  0.21676139214E+03  0.12502279331E+03 0.  0.
    9000005    1    3    3    0    0  0.88043031553E+01 -0.14633111188E+02  0.15707006733E+02  0.23223990992E+02  0.10000000000E+01 0.  0.
    9000005    1    3    3    0    0 -0.88043031553E+01  0.14633111188E+02 -0.19277987951E+03  0.19353740115E+03  0.10000000000E+01 0.  0.
<mgrwt>
<rscale>  0 0.12502279E+03</rscale>
<asrwt>0</asrwt>
<pdfrwt beam="2">  1        4 0.30294942E-01 0.12502279E+03</pdfrwt>
<pdfrwt beam="1">  1       -4 0.30529632E-02 0.12502279E+03</pdfrwt>
<totfact> 0.87338939E+03</totfact>
</mgrwt>
</event>
<event>
 5    1  0.3209683E-002  0.1249977E+03  0.7818608E-02  0.1235073E+00
         -4   -1    0    0    0  501 -0.00000000000E+00  0.00000000000E+00  0.13081930478E+02  0.13143432011E+02  0.12700000000E+01 0.  1.
          4   -1    0    0  501    0  0.00000000000E+00 -0.00000000000E+00 -0.29782503160E+03  0.29782773938E+03  0.12700000000E+01 0.  1.
         25    2    1    2    0    0  0.00000000000E+00  0.00000000000E+00 -0.28474310112E+03  0.31097117139E+03  0.12499774319E+03 0.  0.
    9000005    1    3    3    0    0  0.30616285534E+02  0.37240654799E+02 -0.43455177227E+02  0.64912061572E+02  0.10000000000E+01 0.  0.
    9000005    1    3    3    0    0 -0.30616285534E+02 -0.37240654799E+02 -0.24128792389E+03  0.24605910982E+03  0.10000000000E+01 0.  0.
<mgrwt>
<rscale>  0 0.12499774E+03</rscale>
<asrwt>0</asrwt>
<pdfrwt beam="2">  1        4 0.45824170E-01 0.12499774E+03</pdfrwt>
<pdfrwt beam="1">  1       -4 0.20175441E-02 0.12499774E+03</pdfrwt>
<totfact> 0.74246645E+03</totfact>
</mgrwt>
</event>
<event>
 5    1  0.3209683E-002  0.1250006E+03  0.7818608E-02  0.1235068E+00
          4   -1    0    0  501    0  0.00000000000E+00  0.00000000000E+00  0.36447000592E+02  0.36469120528E+02  0.12700000000E+01 0. -1.
         -4   -1    0    0    0  501 -0.00000000000E+00 -0.00000000000E+00 -0.10711877118E+03  0.10712629947E+03  0.12700000000E+01 0. -1.
         25    2    1    2    0    0  0.00000000000E+00  0.00000000000E+00 -0.70671770589E+02  0.14359542000E+03  0.12500058195E+03 0.  0.
    9000005    1    3    3    0    0 -0.28487936632E+01 -0.53666235544E+02 -0.71972188284E+02  0.89828594274E+02  0.10000000000E+01 0.  0.
    9000005    1    3    3    0    0  0.28487936632E+01  0.53666235544E+02  0.13004176956E+01  0.53766825729E+02  0.10000000000E+01 0.  0.
<mgrwt>
<rscale>  0 0.12500058E+03</rscale>
<asrwt>0</asrwt>
<pdfrwt beam="1">  1        4 0.56095116E-02 0.12500058E+03</pdfrwt>
<pdfrwt beam="2">  1       -4 0.16482091E-01 0.12500058E+03</pdfrwt>
<totfact> 0.10059473E+04</totfact>
</mgrwt>
</event>
<event>
 5    1  0.3209683E-002  0.1250000E+03  0.7818608E-02  0.1235069E+00
         -4   -1    0    0    0  501 -0.00000000000E+00  0.00000000000E+00  0.37866097520E+03  0.37866310493E+03  0.12700000000E+01 0. -1.
          4   -1    0    0  501    0  0.00000000000E+00 -0.00000000000E+00 -0.10274709102E+02  0.10352900421E+02  0.12700000000E+01 0. -1.
         25    2    1    2    0    0  0.00000000000E+00  0.00000000000E+00  0.36838626609E+03  0.38901600535E+03  0.12500004550E+03 0.  0.
    9000005    1    3    3    0    0 -0.26126977054E+02 -0.48138895838E+02  0.27783043914E+03  0.28317966935E+03  0.10000000000E+01 0.  0.
    9000005    1    3    3    0    0  0.26126977054E+02  0.48138895838E+02  0.90555826959E+02  0.10583633600E+03  0.10000000000E+01 0.  0.
<mgrwt>
<rscale>  0 0.12500005E+03</rscale>
<asrwt>0</asrwt>
<pdfrwt beam="2">  1        4 0.15869032E-02 0.12500005E+03</pdfrwt>
<pdfrwt beam="1">  1       -4 0.58261708E-01 0.12500005E+03</pdfrwt>
<totfact> 0.65635220E+03</totfact>
</mgrwt>
</event>
<event>
 5    1  0.3209683E-002  0.1250017E+03  0.7818608E-02  0.1235067E+00
          4   -1    0    0  501    0  0.00000000000E+00  0.00000000000E+00  0.36339635008E+03  0.36339856927E+03  0.12700000000E+01 0.  1.
         -4   -1    0    0    0  501 -0.00000000000E+00 -0.00000000000E+00 -0.10709808289E+02  0.10784845553E+02  0.12700000000E+01 0.  1.
         25    2    1    2    0    0  0.00000000000E+00  0.00000000000E+00  0.35268654179E+03  0.37418341482E+03  0.12500172468E+03 0.  0.
    9000005    1    3    3    0    0 -0.47402288177E+02 -0.14643850688E+02  0.62595504364E+02  0.79878760969E+02  0.10000000000E+01 0.  0.
    9000005    1    3    3    0    0  0.47402288177E+02  0.14643850688E+02  0.29009103742E+03  0.29430465385E+03  0.10000000000E+01 0.  0.
<mgrwt>
<rscale>  0 0.12500172E+03</rscale>
<asrwt>0</asrwt>
<pdfrwt beam="1">  1        4 0.55913074E-01 0.12500172E+03</pdfrwt>
<pdfrwt beam="2">  1       -4 0.16536056E-02 0.12500172E+03</pdfrwt>
<totfact> 0.67140971E+03</totfact>
</mgrwt>
</event>
<event>
 5    1  0.3209683E-002  0.1250002E+03  0.7818608E-02  0.1235069E+00
         -4   -1    0    0    0  501 -0.00000000000E+00  0.00000000000E+00  0.44162904278E+01  0.45952716071E+01  0.12700000000E+01 0. -1.
          4   -1    0    0  501    0  0.00000000000E+00 -0.00000000000E+00 -0.86676505299E+03  0.86676598340E+03  0.12700000000E+01 0. -1.
         25    2    1    2    0    0  0.00000000000E+00  0.00000000000E+00 -0.86234876256E+03  0.87136125501E+03  0.12500019376E+03 0.  0.
    9000005    1    3    3    0    0 -0.23592282102E+02 -0.21873320028E+02 -0.57713196752E+02  0.66082153288E+02  0.10000000000E+01 0.  0.
    9000005    1    3    3    0    0  0.23592282102E+02  0.21873320028E+02 -0.80463556581E+03  0.80527910172E+03  0.10000000000E+01 0.  0.
<mgrwt>
<rscale>  0 0.12500019E+03</rscale>
<asrwt>0</asrwt>
<pdfrwt beam="2">  1        4 0.13336218E+00 0.12500019E+03</pdfrwt>
<pdfrwt beam="1">  1       -4 0.69326934E-03 0.12500019E+03</pdfrwt>
<totfact> 0.35268677E+03</totfact>
</mgrwt>
</event>
<event>
 5    1  0.3209683E-002  0.1250012E+03  0.7818608E-02  0.1235067E+00
         -4   -1    0    0    0  501 -0.00000000000E+00  0.00000000000E+00  0.23111529684E+03  0.23111878619E+03  0.12700000000E+01 0.  1.
          4   -1    0    0  501    0  0.00000000000E+00 -0.00000000000E+00 -0.16874595463E+02  0.16922318755E+02  0.12700000000E+01 0.  1.
         25    2    1    2    0    0  0.00000000000E+00  0.00000000000E+00  0.21424070137E+03  0.24804110495E+03  0.12500124647E+03 0.  0.
    9000005    1    3    3    0    0 -0.44867853460E+02 -0.12254041967E+02  0.24299700592E+02  0.52485819680E+02  0.10000000000E+01 0.  0.
    9000005    1    3    3    0    0  0.44867853460E+02  0.12254041967E+02  0.18994100078E+03  0.19555528527E+03  0.10000000000E+01 0.  0.
<mgrwt>
<rscale>  0 0.12500125E+03</rscale>
<asrwt>0</asrwt>
<pdfrwt beam="2">  1        4 0.26000312E-02 0.12500125E+03</pdfrwt>
<pdfrwt beam="1">  1       -4 0.35560137E-01 0.12500125E+03</pdfrwt>
<totfact> 0.82611883E+03</totfact>
</mgrwt>
</event>
<event>
 5    1  0.3209683E-002  0.1249968E+03  0.7818608E-02  0.1235074E+00
         -4   -1    0    0    0  501 -0.00000000000E+00  0.00000000000E+00  0.86873348973E+03  0.86873441803E+03  0.12700000000E+01 0.  1.
          4   -1    0    0  501    0  0.00000000000E+00 -0.00000000000E+00 -0.44056250612E+01  0.45850225932E+01  0.12700000000E+01 0.  1.
         25    2    1    2    0    0  0.00000000000E+00  0.00000000000E+00  0.86432786467E+03  0.87331944063E+03  0.12499675090E+03 0.  0.
    9000005    1    3    3    0    0 -0.48120020505E+02 -0.29160904065E+02  0.24221303447E+03  0.24866453058E+03  0.10000000000E+01 0.  0.
    9000005    1    3    3    0    0  0.48120020505E+02  0.29160904065E+02  0.62211483020E+03  0.62465491005E+03  0.10000000000E+01 0.  0.
<mgrwt>
<rscale>  0 0.12499675E+03</rscale>
<asrwt>0</asrwt>
<pdfrwt beam="2">  1        4 0.69166019E-03 0.12499675E+03</pdfrwt>
<pdfrwt beam="1">  1       -4 0.13366508E+00 0.12499675E+03</pdfrwt>
<totfact> 0.35194131E+03</totfact>
</mgrwt>
</event>
<event>
 5    1  0.3209683E-002  0.1249995E+03  0.7818608E-02  0.1235070E+00
         -4   -1    0    0    0  501 -0.00000000000E+00  0.00000000000E+00  0.10060989375E+02  0.10140828723E+02  0.12700000000E+01 0.  1.
          4   -1    0    0  501    0  0.00000000000E+00 -0.00000000000E+00 -0.38663881721E+03  0.38664090301E+03  0.12700000000E+01 0.  1.
         25    2    1    2    0    0  0.00000000000E+00  0.00000000000E+00 -0.37657782784E+03  0.39678173173E+03  0.12499952885E+03 0.  0.
    9000005    1    3    3    0    0 -0.17394113462E+02  0.45852187857E+02 -0.31123762688E+03  0.31507909911E+03  0.10000000000E+01 0.  0.
    9000005    1    3    3    0    0  0.17394113462E+02 -0.45852187857E+02 -0.65340200963E+02  0.81702632615E+02  0.10000000000E+01 0.  0.
<mgrwt>
<rscale>  0 0.12499953E+03</rscale>
<asrwt>0</asrwt>
<pdfrwt beam="2">  1        4 0.59489186E-01 0.12499953E+03</pdfrwt>
<pdfrwt beam="1">  1       -4 0.15541467E-02 0.12499953E+03</pdfrwt>
<totfact> 0.64867682E+03</totfact>
</mgrwt>
</event>
<event>
 5    1  0.3209683E-002  0.1249977E+03  0.7818608E-02  0.1235073E+00
         -4   -1    0    0    0  501 -0.00000000000E+00  0.00000000000E+00  0.27228445776E+02  0.27258047608E+02  0.12700000000E+01 0. -1.
          4   -1    0    0  501    0  0.00000000000E+00 -0.00000000000E+00 -0.14334639676E+03  0.14335202253E+03  0.12700000000E+01 0. -1.
         25    2    1    2    0    0  0.00000000000E+00  0.00000000000E+00 -0.11611795098E+03  0.17061007014E+03  0.12499766995E+03 0.  0.
    9000005    1    3    3    0    0 -0.30093170464E+01 -0.17557785342E+02  0.23696188849E+02  0.29662116937E+02  0.10000000000E+01 0.  0.
    9000005    1    3    3    0    0  0.30093170464E+01  0.17557785342E+02 -0.13981413983E+03  0.14094795320E+03  0.10000000000E+01 0.  0.
<mgrwt>
<rscale>  0 0.12499767E+03</rscale>
<asrwt>0</asrwt>
<pdfrwt beam="2">  1        4 0.22056001E-01 0.12499767E+03</pdfrwt>
<pdfrwt beam="1">  1       -4 0.41917015E-02 0.12499767E+03</pdfrwt>
<totfact> 0.95340036E+03</totfact>
</mgrwt>
</event>
<event>
 5    1  0.3209683E-002  0.1250000E+03  0.7818608E-02  0.1235069E+00
          4   -1    0    0  501    0  0.00000000000E+00  0.00000000000E+00  0.63046231615E+02  0.63059021724E+02  0.12700000000E+01 0.  1.
         -4   -1    0    0    0  501 -0.00000000000E+00 -0.00000000000E+00 -0.61932900729E+02  0.61945920710E+02  0.12700000000E+01 0.  1.
         25    2    1    2    0    0  0.00000000000E+00  0.00000000000E+00  0.11133308859E+01  0.12500494243E+03  0.12499998451E+03 0.  0.
    9000005    1    3    3    0    0 -0.34129719276E+02 -0.32031455025E+02 -0.40850256482E+02  0.62133688958E+02  0.10000000000E+01 0.  0.
    9000005    1    3    3    0    0  0.34129719276E+02  0.32031455025E+02  0.41963587368E+02  0.62871253476E+02  0.10000000000E+01 0.  0.
<mgrwt>
<rscale>  0 0.12499998E+03</rscale>
<asrwt>0</asrwt>
<pdfrwt beam="1">  1        4 0.97014056E-02 0.12499998E+03</pdfrwt>
<pdfrwt beam="2">  1       -4 0.95301240E-02 0.12499998E+03</pdfrwt>
<totfact> 0.10452759E+04</totfact>
</mgrwt>
</event>
<event>
 5    1  0.3209683E-002  0.1250010E+03  0.7818608E-02  0.1235068E+00
          4   -1    0    0  501    0  0.00000000000E+00  0.00000000000E+00  0.12910677042E+02  0.12972990468E+02  0.12700000000E+01 0. -1.
         -4   -1    0    0    0  501 -0.00000000000E+00 -0.00000000000E+00 -0.30177243807E+03  0.30177511044E+03  0.12700000000E+01 0. -1.
         25    2    1    2    0    0  0.00000000000E+00  0.00000000000E+00 -0.28886176103E+03  0.31474810091E+03  0.12500100015E+03 0.  0.
    9000005    1    3    3    0    0 -0.68513068319E+01  0.12329207860E+02 -0.29772432788E+03  0.29805993555E+03  0.10000000000E+01 0.  0.
    9000005    1    3    3    0    0  0.68513068319E+01 -0.12329207860E+02  0.88625668469E+01  0.16688165354E+02  0.10000000000E+01 0.  0.
<mgrwt>
<rscale>  0 0.12500100E+03</rscale>
<asrwt>0</asrwt>
<pdfrwt beam="1">  1        4 0.19912572E-02 0.12500100E+03</pdfrwt>
<pdfrwt beam="2">  1       -4 0.46431522E-01 0.12500100E+03</pdfrwt>
<totfact> 0.73783520E+03</totfact>
</mgrwt>
</event>
<event>
 5    1  0.3209683E-002  0.1250085E+03  0.7818608E-02  0.1235056E+00
          4   -1    0    0  501    0  0.00000000000E+00  0.00000000000E+00  0.19547730950E+03  0.19548143500E+03  0.12700000000E+01 0.  1.
         -4   -1    0    0    0  501 -0.00000000000E+00 -0.00000000000E+00 -0.19961343614E+02  0.20001703400E+02  0.12700000000E+01 0.  1.
         25    2    1    2    0    0  0.00000000000E+00  0.00000000000E+00  0.17551596588E+03  0.21548313840E+03  0.12500851432E+03 0.  0.
    9000005    1    3    3    0    0  0.55755284003E+02 -0.16112034995E+01  0.39169865093E+02  0.68165431139E+02  0.10000000000E+01 0.  0.
    9000005    1    3    3    0    0 -0.55755284003E+02  0.16112034995E+01  0.13634610079E+03  0.14731770726E+03  0.10000000000E+01 0.  0.
<mgrwt>
<rscale>  0 0.12500851E+03</rscale>
<asrwt>0</asrwt>
<pdfrwt beam="1">  1        4 0.30076853E-01 0.12500851E+03</pdfrwt>
<pdfrwt beam="2">  1       -4 0.30743980E-02 0.12500851E+03</pdfrwt>
<totfact> 0.87571507E+03</totfact>
</mgrwt>
</event>
<event>
 5    1  0.3209683E-002  0.1250013E+03  0.7818608E-02  0.1235067E+00
         -4   -1    0    0    0  501 -0.00000000000E+00  0.00000000000E+00  0.13012725284E+03  0.13013345008E+03  0.12700000000E+01 0.  1.
          4   -1    0    0  501    0  0.00000000000E+00 -0.00000000000E+00 -0.29998964999E+02  0.30025835559E+02  0.12700000000E+01 0.  1.
         25    2    1    2    0    0  0.00000000000E+00  0.00000000000E+00  0.10012828784E+03  0.16015928564E+03  0.12500129100E+03 0.  0.
    9000005    1    3    3    0    0 -0.48659109271E+02 -0.31574224009E+02  0.20271307358E+02  0.61453774814E+02  0.10000000000E+01 0.  0.
    9000005    1    3    3    0    0  0.48659109271E+02  0.31574224009E+02  0.79856980479E+02  0.98705510829E+02  0.10000000000E+01 0.  0.
<mgrwt>
<rscale>  0 0.12500129E+03</rscale>
<asrwt>0</asrwt>
<pdfrwt beam="2">  1        4 0.46177690E-02 0.12500129E+03</pdfrwt>
<pdfrwt beam="1">  1       -4 0.20022121E-01 0.12500129E+03</pdfrwt>
<totfact> 0.97309261E+03</totfact>
</mgrwt>
</event>
<event>
 5    1  0.3209683E-002  0.1249978E+03  0.7818608E-02  0.1235073E+00
          4   -1    0    0  501    0  0.00000000000E+00  0.00000000000E+00  0.21283867004E+02  0.21321723539E+02  0.12700000000E+01 0. -1.
         -4   -1    0    0    0  501 -0.00000000000E+00 -0.00000000000E+00 -0.18332158131E+03  0.18332598035E+03  0.12700000000E+01 0. -1.
         25    2    1    2    0    0  0.00000000000E+00  0.00000000000E+00 -0.16203771430E+03  0.20464770389E+03  0.12499784739E+03 0.  0.
    9000005    1    3    3    0    0 -0.31201136997E+02 -0.24131954345E+02 -0.16037293778E+03  0.16515550655E+03  0.10000000000E+01 0.  0.
    9000005    1    3    3    0    0  0.31201136997E+02  0.24131954345E+02 -0.16647765235E+01  0.39492197347E+02  0.10000000000E+01 0.  0.
<mgrwt>
<rscale>  0 0.12499785E+03</rscale>
<asrwt>0</asrwt>
<pdfrwt beam="1">  1        4 0.32776916E-02 0.12499785E+03</pdfrwt>
<pdfrwt beam="2">  1       -4 0.28206570E-01 0.12499785E+03</pdfrwt>
<totfact> 0.89361813E+03</totfact>
</mgrwt>
</event>
<event>
 5    1  0.3209683E-002  0.1249966E+03  0.7818608E-02  0.1235075E+00
         -4   -1    0    0    0  501 -0.00000000000E+00  0.00000000000E+00  0.11521462581E+02  0.11591246697E+02  0.12700000000E+01 0.  1.
          4   -1    0    0  501    0  0.00000000000E+00 -0.00000000000E+00 -0.33792830299E+03  0.33793068943E+03  0.12700000000E+01 0.  1.
         25    2    1    2    0    0  0.00000000000E+00  0.00000000000E+00 -0.32640684041E+03  0.34952193613E+03  0.12499663344E+03 0.  0.
    9000005    1    3    3    0    0  0.49999692526E+02  0.36306969537E+02 -0.13714057719E+03  0.15042175109E+03  0.10000000000E+01 0.  0.
    9000005    1    3    3    0    0 -0.49999692526E+02 -0.36306969537E+02 -0.18926626322E+03  0.19910018504E+03  0.10000000000E+01 0.  0.
<mgrwt>
<rscale>  0 0.12499663E+03</rscale>
<asrwt>0</asrwt>
<pdfrwt beam="2">  1        4 0.51994514E-01 0.12499663E+03</pdfrwt>
<pdfrwt beam="1">  1       -4 0.17780845E-02 0.12499663E+03</pdfrwt>
<totfact> 0.69782383E+03</totfact>
</mgrwt>
</event>
<event>
 5    1  0.3209683E-002  0.1250042E+03  0.7818608E-02  0.1235063E+00
         -4   -1    0    0    0  501 -0.00000000000E+00  0.00000000000E+00  0.53808995831E+01  0.55287412965E+01  0.12700000000E+01 0.  1.
          4   -1    0    0  501    0  0.00000000000E+00 -0.00000000000E+00 -0.71600992298E+03  0.71601104929E+03  0.12700000000E+01 0.  1.
         25    2    1    2    0    0  0.00000000000E+00  0.00000000000E+00 -0.71062902339E+03  0.72153979058E+03  0.12500424195E+03 0.  0.
    9000005    1    3    3    0    0 -0.24345820908E+02  0.14809143484E+02 -0.34274198392E+02  0.44584194529E+02  0.10000000000E+01 0.  0.
    9000005    1    3    3    0    0  0.24345820908E+02 -0.14809143484E+02 -0.67635482500E+03  0.67695559605E+03  0.10000000000E+01 0.  0.
<mgrwt>
<rscale>  0 0.12500424E+03</rscale>
<asrwt>0</asrwt>
<pdfrwt beam="2">  1        4 0.11016676E+00 0.12500424E+03</pdfrwt>
<pdfrwt beam="1">  1       -4 0.83929035E-03 0.12500424E+03</pdfrwt>
<totfact> 0.41969868E+03</totfact>
</mgrwt>
</event>
<event>
 5    1  0.3209683E-002  0.1249963E+03  0.7818608E-02  0.1235075E+00
          4   -1    0    0  501    0  0.00000000000E+00  0.00000000000E+00  0.43791378932E+03  0.43791563089E+03  0.12700000000E+01 0. -1.
         -4   -1    0    0    0  501 -0.00000000000E+00 -0.00000000000E+00 -0.88725317015E+01  0.89629637282E+01  0.12700000000E+01 0. -1.
         25    2    1    2    0    0  0.00000000000E+00  0.00000000000E+00  0.42904125762E+03  0.44687859462E+03  0.12499631030E+03 0.  0.
    9000005    1    3    3    0    0  0.16506921175E+02  0.55896264463E+02  0.13392941206E+03  0.14606491106E+03  0.10000000000E+01 0.  0.
    9000005    1    3    3    0    0 -0.16506921175E+02 -0.55896264463E+02  0.29511184556E+03  0.30081368356E+03  0.10000000000E+01 0.  0.
<mgrwt>
<rscale>  0 0.12499631E+03</rscale>
<asrwt>0</asrwt>
<pdfrwt beam="1">  1        4 0.67378445E-01 0.12499631E+03</pdfrwt>
<pdfrwt beam="2">  1       -4 0.13721030E-02 0.12499631E+03</pdfrwt>
<totfact> 0.60240056E+03</totfact>
</mgrwt>
</event>
<event>
 5    1  0.3209683E-002  0.1250010E+03  0.7818608E-02  0.1235068E+00
         -4   -1    0    0    0  501 -0.00000000000E+00  0.00000000000E+00  0.22398538521E+03  0.22398898564E+03  0.12700000000E+01 0. -1.
          4   -1    0    0  501    0  0.00000000000E+00 -0.00000000000E+00 -0.17413167628E+02  0.17459418857E+02  0.12700000000E+01 0. -1.
         25    2    1    2    0    0  0.00000000000E+00  0.00000000000E+00  0.20657221758E+03  0.24144840450E+03  0.12500100382E+03 0.  0.
    9000005    1    3    3    0    0  0.81472000965E+01 -0.59108433660E+02  0.67402052596E+02  0.90023444132E+02  0.10000000000E+01 0.  0.
    9000005    1    3    3    0    0 -0.81472000965E+01  0.59108433660E+02  0.13917016499E+03  0.15142496037E+03  0.10000000000E+01 0.  0.
<mgrwt>
<rscale>  0 0.12500100E+03</rscale>
<asrwt>0</asrwt>
<pdfrwt beam="2">  1        4 0.26827839E-02 0.12500100E+03</pdfrwt>
<pdfrwt beam="1">  1       -4 0.34463121E-01 0.12500100E+03</pdfrwt>
<totfact> 0.83580258E+03</totfact>
</mgrwt>
</event>
<event>
 5    1  0.3209683E-002  0.1249999E+03  0.7818608E-02  0.1235069E+00
          4   -1    0    0  501    0  0.00000000000E+00  0.00000000000E+00  0.19112728500E+03  0.19113150439E+03  0.12700000000E+01 0. -1.
         -4   -1    0    0    0  501 -0.00000000000E+00 -0.00000000000E+00 -0.20413728249E+02  0.20453195375E+02  0.12700000000E+01 0. -1.
         25    2    1    2    0    0  0.00000000000E+00  0.00000000000E+00  0.17071355675E+03  0.21158469977E+03  0.12499986687E+03 0.  0.
    9000005    1    3    3    0    0 -0.73312356185E+01  0.61848673406E+02  0.94026909878E+02  0.11278769968E+03  0.10000000000E+01 0.  0.
    9000005    1    3    3    0    0  0.73312356185E+01 -0.61848673406E+02  0.76686646871E+02  0.98797000086E+02  0.10000000000E+01 0.  0.
<mgrwt>
<rscale>  0 0.12499987E+03</rscale>
<asrwt>0</asrwt>
<pdfrwt beam="1">  1        4 0.29407558E-01 0.12499987E+03</pdfrwt>
<pdfrwt beam="2">  1       -4 0.31439341E-02 0.12499987E+03</pdfrwt>
<totfact> 0.88217993E+03</totfact>
</mgrwt>
</event>
<event>
 5    1  0.3209683E-002  0.1249930E+03  0.7818608E-02  0.1235080E+00
          4   -1    0    0  501    0  0.00000000000E+00  0.00000000000E+00  0.17489922378E+02  0.17535971167E+02  0.12700000000E+01 0. -1.
         -4   -1    0    0    0  501 -0.00000000000E+00 -0.00000000000E+00 -0.22297657786E+03  0.22298019458E+03  0.12700000000E+01 0. -1.
         25    2    1    2    0    0  0.00000000000E+00  0.00000000000E+00 -0.20548665549E+03  0.24051616575E+03  0.12499304142E+03 0.  0.
    9000005    1    3    3    0    0  0.26470599889E+01 -0.57004893722E+02 -0.53750806690E+02  0.78400982485E+02  0.10000000000E+01 0.  0.
    9000005    1    3    3    0    0 -0.26470599889E+01  0.57004893722E+02 -0.15173584880E+03  0.16211518326E+03  0.10000000000E+01 0.  0.
<mgrwt>
<rscale>  0 0.12499304E+03</rscale>
<asrwt>0</asrwt>
<pdfrwt beam="1">  1        4 0.26945779E-02 0.12499304E+03</pdfrwt>
<pdfrwt beam="2">  1       -4 0.34307907E-01 0.12499304E+03</pdfrwt>
<totfact> 0.83733543E+03</totfact>
</mgrwt>
</event>
<event>
 5    1  0.3209683E-002  0.1249937E+03  0.7818608E-02  0.1235079E+00
          4   -1    0    0  501    0  0.00000000000E+00  0.00000000000E+00  0.17437773049E+03  0.17438235516E+03  0.12700000000E+01 0.  1.
         -4   -1    0    0    0  501 -0.00000000000E+00 -0.00000000000E+00 -0.22375888628E+02  0.22411900676E+02  0.12700000000E+01 0.  1.
         25    2    1    2    0    0  0.00000000000E+00  0.00000000000E+00  0.15200184186E+03  0.19679425584E+03  0.12499367664E+03 0.  0.
    9000005    1    3    3    0    0  0.58567454059E+02  0.42873658625E+01  0.42368178866E+02  0.72419546819E+02  0.10000000000E+01 0.  0.
    9000005    1    3    3    0    0 -0.58567454059E+02 -0.42873658625E+01  0.10963366300E+03  0.12437470902E+03  0.10000000000E+01 0.  0.
<mgrwt>
<rscale>  0 0.12499368E+03</rscale>
<asrwt>0</asrwt>
<pdfrwt beam="1">  1        4 0.26830469E-01 0.12499368E+03</pdfrwt>
<pdfrwt beam="2">  1       -4 0.34455703E-02 0.12499368E+03</pdfrwt>
<totfact> 0.90691227E+03</totfact>
</mgrwt>
</event>
<event>
 5    1  0.3209683E-002  0.1250001E+03  0.7818608E-02  0.1235069E+00
          4   -1    0    0  501    0  0.00000000000E+00  0.00000000000E+00  0.26041462287E+02  0.26072411818E+02  0.12700000000E+01 0. -1.
         -4   -1    0    0    0  501 -0.00000000000E+00 -0.00000000000E+00 -0.14987861246E+03  0.14988399305E+03  0.12700000000E+01 0. -1.
         25    2    1    2    0    0  0.00000000000E+00  0.00000000000E+00 -0.12383715017E+03  0.17595640487E+03  0.12500006660E+03 0.  0.
    9000005    1    3    3    0    0 -0.97165118234E+01 -0.26791766635E+02 -0.14020526680E+03  0.14307594557E+03  0.10000000000E+01 0.  0.
    9000005    1    3    3    0    0  0.97165118234E+01  0.26791766635E+02  0.16368116633E+02  0.32880459296E+02  0.10000000000E+01 0.  0.
<mgrwt>
<rscale>  0 0.12500007E+03</rscale>
<asrwt>0</asrwt>
<pdfrwt beam="1">  1        4 0.40091735E-02 0.12500007E+03</pdfrwt>
<pdfrwt beam="2">  1       -4 0.23061042E-01 0.12500007E+03</pdfrwt>
<totfact> 0.94349828E+03</totfact>
</mgrwt>
</event>
<event>
 5    1  0.3209683E-002  0.1250009E+03  0.7818608E-02  0.1235068E+00
         -4   -1    0    0    0  501 -0.00000000000E+00  0.00000000000E+00  0.31926420168E+01  0.34359661011E+01  0.12700000000E+01 0.  1.
          4   -1    0    0  501    0  0.00000000000E+00 -0.00000000000E+00 -0.11783764224E+04  0.11783771068E+04  0.12700000000E+01 0.  1.
         25    2    1    2    0    0  0.00000000000E+00  0.00000000000E+00 -0.11751837804E+04  0.11818130729E+04  0.12500088616E+03 0.  0.
    9000005    1    3    3    0    0 -0.46205583688E+02 -0.40510595695E+02 -0.69507394242E+03  0.69778567609E+03  0.10000000000E+01 0.  0.
    9000005    1    3    3    0    0  0.46205583688E+02  0.40510595695E+02 -0.48010983796E+03  0.48402739678E+03  0.10000000000E+01 0.  0.
<mgrwt>
<rscale>  0 0.12500089E+03</rscale>
<asrwt>0</asrwt>
<pdfrwt beam="2">  1        4 0.18130712E+00 0.12500089E+03</pdfrwt>
<pdfrwt beam="1">  1       -4 0.50994652E-03 0.12500089E+03</pdfrwt>
<totfact> 0.25193386E+03</totfact>
</mgrwt>
</event>
<event>
 5    1  0.3209683E-002  0.1249991E+03  0.7818608E-02  0.1235071E+00
         -4   -1    0    0    0  501 -0.00000000000E+00  0.00000000000E+00  0.37571334441E+03  0.37571549085E+03  0.12700000000E+01 0. -1.
          4   -1    0    0  501    0  0.00000000000E+00 -0.00000000000E+00 -0.10355763728E+02  0.10433347612E+02  0.12700000000E+01 0. -1.
         25    2    1    2    0    0  0.00000000000E+00  0.00000000000E+00  0.36535758068E+03  0.38614883847E+03  0.12499905474E+03 0.  0.
    9000005    1    3    3    0    0 -0.22423581736E+01 -0.24080229112E+02  0.36068576307E+03  0.36149703358E+03  0.10000000000E+01 0.  0.
    9000005    1    3    3    0    0  0.22423581736E+01  0.24080229112E+02  0.46718176083E+01  0.24651804884E+02  0.10000000000E+01 0.  0.
<mgrwt>
<rscale>  0 0.12499905E+03</rscale>
<asrwt>0</asrwt>
<pdfrwt beam="2">  1        4 0.15993275E-02 0.12499905E+03</pdfrwt>
<pdfrwt beam="1">  1       -4 0.57808186E-01 0.12499905E+03</pdfrwt>
<totfact> 0.65923980E+03</totfact>
</mgrwt>
</event>
<event>
 5    1  0.3209683E-002  0.1250025E+03  0.7818608E-02  0.1235065E+00
          4   -1    0    0  501    0  0.00000000000E+00  0.00000000000E+00  0.11370076985E+03  0.11370786237E+03  0.12700000000E+01 0. -1.
         -4   -1    0    0    0  501 -0.00000000000E+00 -0.00000000000E+00 -0.34336989776E+02  0.34360468083E+02  0.12700000000E+01 0. -1.
         25    2    1    2    0    0  0.00000000000E+00  0.00000000000E+00  0.79363780079E+02  0.14806833046E+03  0.12500248356E+03 0.  0.
    9000005    1    3    3    0    0  0.33457228356E+01 -0.38657208939E+02  0.97709397758E+02  0.10513657819E+03  0.10000000000E+01 0.  0.
    9000005    1    3    3    0    0 -0.33457228356E+01  0.38657208939E+02 -0.18345617679E+02  0.42931752261E+02  0.10000000000E+01 0.  0.
<mgrwt>
<rscale>  0 0.12500248E+03</rscale>
<asrwt>0</asrwt>
<pdfrwt beam="1">  1        4 0.17494778E-01 0.12500248E+03</pdfrwt>
<pdfrwt beam="2">  1       -4 0.52849654E-02 0.12500248E+03</pdfrwt>
<totfact> 0.99684576E+03</totfact>
</mgrwt>
</event>
<event>
 5    1  0.3209683E-002  0.1250003E+03  0.7818608E-02  0.1235069E+00
         -4   -1    0    0    0  501 -0.00000000000E+00  0.00000000000E+00  0.96751943731E+02  0.96760278605E+02  0.12700000000E+01 0.  1.
          4   -1    0    0  501    0  0.00000000000E+00 -0.00000000000E+00 -0.40353971421E+02  0.40373950877E+02  0.12700000000E+01 0.  1.
         25    2    1    2    0    0  0.00000000000E+00  0.00000000000E+00  0.56397972310E+02  0.13713422948E+03  0.12500026246E+03 0.  0.
    9000005    1    3    3    0    0 -0.73897297298E+01 -0.55329789507E+02 -0.26221386507E+01  0.55891585444E+02  0.10000000000E+01 0.  0.
    9000005    1    3    3    0    0  0.73897297298E+01  0.55329789507E+02  0.59020110961E+02  0.81242644038E+02  0.10000000000E+01 0.  0.
<mgrwt>
<rscale>  0 0.12500026E+03</rscale>
<asrwt>0</asrwt>
<pdfrwt beam="2">  1        4 0.62104814E-02 0.12500026E+03</pdfrwt>
<pdfrwt beam="1">  1       -4 0.14887092E-01 0.12500026E+03</pdfrwt>
<totfact> 0.10193220E+04</totfact>
</mgrwt>
</event>
<event>
 5    1  0.3209683E-002  0.1250179E+03  0.7818608E-02  0.1235041E+00
          4   -1    0    0  501    0  0.00000000000E+00  0.00000000000E+00  0.12628554439E+04  0.12628560825E+04  0.12700000000E+01 0.  1.
         -4   -1    0    0    0  501 -0.00000000000E+00 -0.00000000000E+00 -0.29630874711E+01  0.32237846332E+01  0.12700000000E+01 0.  1.
         25    2    1    2    0    0  0.00000000000E+00  0.00000000000E+00  0.12598923565E+04  0.12660798672E+04  0.12501791933E+03 0.  0.
    9000005    1    3    3    0    0 -0.39396406846E+02 -0.20354923308E+02  0.10759990837E+04  0.10769129156E+04  0.10000000000E+01 0.  0.
    9000005    1    3    3    0    0  0.39396406846E+02  0.20354923308E+02  0.18389327278E+03  0.18916695152E+03  0.10000000000E+01 0.  0.
<mgrwt>
<rscale>  0 0.12501792E+03</rscale>
<asrwt>0</asrwt>
<pdfrwt beam="1">  1        4 0.19430595E+00 0.12501792E+03</pdfrwt>
<pdfrwt beam="2">  1       -4 0.47596140E-03 0.12501792E+03</pdfrwt>
<totfact> 0.23034446E+03</totfact>
</mgrwt>
</event>
<event>
 5    1  0.3209683E-002  0.1249998E+03  0.7818608E-02  0.1235070E+00
          4   -1    0    0  501    0  0.00000000000E+00  0.00000000000E+00  0.16021730907E+03  0.16022234246E+03  0.12700000000E+01 0.  1.
         -4   -1    0    0    0  501 -0.00000000000E+00 -0.00000000000E+00 -0.24358930967E+02  0.24392015453E+02  0.12700000000E+01 0.  1.
         25    2    1    2    0    0  0.00000000000E+00  0.00000000000E+00  0.13585837810E+03  0.18461435792E+03  0.12499984900E+03 0.  0.
    9000005    1    3    3    0    0 -0.17364723736E+02  0.53019980485E+01  0.15624331843E+03  0.15729786828E+03  0.10000000000E+01 0.  0.
    9000005    1    3    3    0    0  0.17364723736E+02 -0.53019980485E+01 -0.20384940327E+02  0.27316489633E+02  0.10000000000E+01 0.  0.
<mgrwt>
<rscale>  0 0.12499985E+03</rscale>
<asrwt>0</asrwt>
<pdfrwt beam="1">  1        4 0.24651749E-01 0.12499985E+03</pdfrwt>
<pdfrwt beam="2">  1       -4 0.37504600E-02 0.12499985E+03</pdfrwt>
<totfact> 0.92793250E+03</totfact>
</mgrwt>
</event>
<event>
 5    1  0.3209683E-002  0.1250249E+03  0.7818608E-02  0.1235030E+00
         -4   -1    0    0    0  501 -0.00000000000E+00  0.00000000000E+00  0.53836938114E+03  0.53837087909E+03  0.12700000000E+01 0. -1.
          4   -1    0    0  501    0  0.00000000000E+00 -0.00000000000E+00 -0.72015242367E+01  0.73126500895E+01  0.12700000000E+01 0. -1.
         25    2    1    2    0    0  0.00000000000E+00  0.00000000000E+00  0.53116785691E+03  0.54568352918E+03  0.12502488475E+03 0.  0.
    9000005    1    3    3    0    0 -0.40680672401E+02  0.47064854167E+02  0.23911133018E+03  0.24707336123E+03  0.10000000000E+01 0.  0.
    9000005    1    3    3    0    0  0.40680672401E+02 -0.47064854167E+02  0.29205652672E+03  0.29861016795E+03  0.10000000000E+01 0.  0.
<mgrwt>
<rscale>  0 0.12502488E+03</rscale>
<asrwt>0</asrwt>
<pdfrwt beam="2">  1        4 0.11165903E-02 0.12502488E+03</pdfrwt>
<pdfrwt beam="1">  1       -4 0.82834713E-01 0.12502488E+03</pdfrwt>
<totfact> 0.52457628E+03</totfact>
</mgrwt>
</event>
<event>
 5    1  0.3209683E-002  0.1250041E+03  0.7818608E-02  0.1235063E+00
          4   -1    0    0  501    0  0.00000000000E+00  0.00000000000E+00  0.30833486460E+03  0.30833748009E+03  0.12700000000E+01 0.  1.
         -4   -1    0    0    0  501 -0.00000000000E+00 -0.00000000000E+00 -0.12635191987E+02  0.12698857293E+02  0.12700000000E+01 0.  1.
         25    2    1    2    0    0  0.00000000000E+00  0.00000000000E+00  0.29569967261E+03  0.32103633738E+03  0.12500413408E+03 0.  0.
    9000005    1    3    3    0    0  0.47632985503E+02  0.33687040111E+02  0.20537938832E+03  0.21350740298E+03  0.10000000000E+01 0.  0.
    9000005    1    3    3    0    0 -0.47632985503E+02 -0.33687040111E+02  0.90320284288E+02  0.10752893440E+03  0.10000000000E+01 0.  0.
<mgrwt>
<rscale>  0 0.12500413E+03</rscale>
<asrwt>0</asrwt>
<pdfrwt beam="1">  1        4 0.47441230E-01 0.12500413E+03</pdfrwt>
<pdfrwt beam="2">  1       -4 0.19489743E-02 0.12500413E+03</pdfrwt>
<totfact> 0.73026343E+03</totfact>
</mgrwt>
</event>
<event>
 5    1  0.3209683E-002  0.1249999E+03  0.7818608E-02  0.1235069E+00
          4   -1    0    0  501    0  0.00000000000E+00  0.00000000000E+00  0.16285447104E+02  0.16334891716E+02  0.12700000000E+01 0.  1.
         -4   -1    0    0    0  501 -0.00000000000E+00 -0.00000000000E+00 -0.23944635443E+03  0.23944972238E+03  0.12700000000E+01 0.  1.
         25    2    1    2    0    0  0.00000000000E+00  0.00000000000E+00 -0.22316090733E+03  0.25578461410E+03  0.12499991301E+03 0.  0.
    9000005    1    3    3    0    0 -0.25903171224E+02  0.41714811850E+02 -0.19067764165E+03  0.19690114990E+03  0.10000000000E+01 0.  0.
    9000005    1    3    3    0    0  0.25903171224E+02 -0.41714811850E+02 -0.32483265679E+02  0.58883464202E+02  0.10000000000E+01 0.  0.
<mgrwt>
<rscale>  0 0.12499991E+03</rscale>
<asrwt>0</asrwt>
<pdfrwt beam="1">  1        4 0.25095161E-02 0.12499991E+03</pdfrwt>
<pdfrwt beam="2">  1       -4 0.36841961E-01 0.12499991E+03</pdfrwt>
<totfact> 0.81501453E+03</totfact>
</mgrwt>
</event>
<event>
 5    1  0.3209683E-002  0.1249873E+03  0.7818608E-02  0.1235089E+00
         -4   -1    0    0    0  501 -0.00000000000E+00  0.00000000000E+00  0.66227783216E+02  0.66239959010E+02  0.12700000000E+01 0.  1.
          4   -1    0    0  501    0  0.00000000000E+00 -0.00000000000E+00 -0.58945592122E+02  0.58959271795E+02  0.12700000000E+01 0.  1.
         25    2    1    2    0    0  0.00000000000E+00  0.00000000000E+00  0.72821910932E+01  0.12519923081E+03  0.12498726770E+03 0.  0.
    9000005    1    3    3    0    0  0.43737770588E+02  0.19901473149E+02 -0.36369013592E+02  0.60272434488E+02  0.10000000000E+01 0.  0.
    9000005    1    3    3    0    0 -0.43737770588E+02 -0.19901473149E+02  0.43651204685E+02  0.64926796317E+02  0.10000000000E+01 0.  0.
<mgrwt>
<rscale>  0 0.12498727E+03</rscale>
<asrwt>0</asrwt>
<pdfrwt beam="2">  1        4 0.90705416E-02 0.12498727E+03</pdfrwt>
<pdfrwt beam="1">  1       -4 0.10190879E-01 0.12498727E+03</pdfrwt>
<totfact> 0.10451544E+04</totfact>
</mgrwt>
</event>
<event>
 5    1  0.3209683E-002  0.1249780E+03  0.7818608E-02  0.1235104E+00
         -4   -1    0    0    0  501 -0.00000000000E+00  0.00000000000E+00  0.23065212690E+03  0.23065562327E+03  0.12700000000E+01 0. -1.
          4   -1    0    0  501    0  0.00000000000E+00 -0.00000000000E+00 -0.16902256034E+02  0.16949901446E+02  0.12700000000E+01 0. -1.
         25    2    1    2    0    0  0.00000000000E+00  0.00000000000E+00  0.21374987087E+03  0.24760552472E+03  0.12497795235E+03 0.  0.
    9000005    1    3    3    0    0  0.28223589122E+02 -0.12276580457E+02 -0.85148709757E+00  0.30806013064E+02  0.10000000000E+01 0.  0.
    9000005    1    3    3    0    0 -0.28223589122E+02  0.12276580457E+02  0.21460135797E+03  0.21679951165E+03  0.10000000000E+01 0.  0.
<mgrwt>
<rscale>  0 0.12497795E+03</rscale>
<asrwt>0</asrwt>
<pdfrwt beam="2">  1        4 0.26042810E-02 0.12497795E+03</pdfrwt>
<pdfrwt beam="1">  1       -4 0.35488877E-01 0.12497795E+03</pdfrwt>
<totfact> 0.82718165E+03</totfact>
</mgrwt>
</event>
<event>
 5    1  0.3209683E-002  0.1249985E+03  0.7818608E-02  0.1235072E+00
          4   -1    0    0  501    0  0.00000000000E+00  0.00000000000E+00  0.10230699335E+04  0.10230707218E+04  0.12700000000E+01 0.  1.
         -4   -1    0    0    0  501 -0.00000000000E+00 -0.00000000000E+00 -0.37116518163E+01  0.39229146314E+01  0.12700000000E+01 0.  1.
         25    2    1    2    0    0  0.00000000000E+00  0.00000000000E+00  0.10193582817E+04  0.10269936364E+04  0.12499849103E+03 0.  0.
    9000005    1    3    3    0    0 -0.76459247329E+01 -0.35950196943E+02  0.92491718541E+03  0.92564770658E+03  0.10000000000E+01 0.  0.
    9000005    1    3    3    0    0  0.76459247329E+01  0.35950196943E+02  0.94441096262E+02  0.10134592981E+03  0.10000000000E+01 0.  0.
<mgrwt>
<rscale>  0 0.12499849E+03</rscale>
<asrwt>0</asrwt>
<pdfrwt beam="1">  1        4 0.15741186E+00 0.12499849E+03</pdfrwt>
<pdfrwt beam="2">  1       -4 0.58733432E-03 0.12499849E+03</pdfrwt>
<totfact> 0.29725065E+03</totfact>
</mgrwt>
</event>
<event>
 5    1  0.3209683E-002  0.1249980E+03  0.7818608E-02  0.1235072E+00
          4   -1    0    0  501    0  0.00000000000E+00  0.00000000000E+00  0.18070722053E+03  0.18071168322E+03  0.12700000000E+01 0. -1.
         -4   -1    0    0    0  501 -0.00000000000E+00 -0.00000000000E+00 -0.21592365204E+02  0.21629681808E+02  0.12700000000E+01 0. -1.
         25    2    1    2    0    0  0.00000000000E+00  0.00000000000E+00  0.15911485533E+03  0.20234136503E+03  0.12499796325E+03 0.  0.
    9000005    1    3    3    0    0  0.13763802703E+02  0.40727209339E+02  0.61404958694E+01  0.43437927378E+02  0.10000000000E+01 0.  0.
    9000005    1    3    3    0    0 -0.13763802703E+02 -0.40727209339E+02  0.15297435946E+03  0.15890343765E+03  0.10000000000E+01 0.  0.
<mgrwt>
<rscale>  0 0.12499796E+03</rscale>
<asrwt>0</asrwt>
<pdfrwt beam="1">  1        4 0.27804324E-01 0.12499796E+03</pdfrwt>
<pdfrwt beam="2">  1       -4 0.33251162E-02 0.12499796E+03</pdfrwt>
<totfact> 0.89746203E+03</totfact>
</mgrwt>
</event>
<event>
 5    1  0.3209683E-002  0.1250018E+03  0.7818608E-02  0.1235066E+00
          4   -1    0    0  501    0  0.00000000000E+00  0.00000000000E+00  0.80051314321E+02  0.80061387850E+02  0.12700000000E+01 0. -1.
         -4   -1    0    0    0  501 -0.00000000000E+00 -0.00000000000E+00 -0.48776847034E+02  0.48793377692E+02  0.12700000000E+01 0. -1.
         25    2    1    2    0    0  0.00000000000E+00  0.00000000000E+00  0.31274467287E+02  0.12885476554E+03  0.12500183318E+03 0.  0.
    9000005    1    3    3    0    0 -0.12047298215E+02  0.26179174269E+02 -0.41523533487E+02  0.50553836580E+02  0.10000000000E+01 0.  0.
    9000005    1    3    3    0    0  0.12047298215E+02 -0.26179174269E+02  0.72798000773E+02  0.78300928962E+02  0.10000000000E+01 0.  0.
<mgrwt>
<rscale>  0 0.12500183E+03</rscale>
<asrwt>0</asrwt>
<pdfrwt beam="1">  1        4 0.12317633E-01 0.12500183E+03</pdfrwt>
<pdfrwt beam="2">  1       -4 0.75061769E-02 0.12500183E+03</pdfrwt>
<totfact> 0.10368640E+04</totfact>
</mgrwt>
</event>
<event>
 5    1  0.3209683E-002  0.1250034E+03  0.7818608E-02  0.1235064E+00
         -4   -1    0    0    0  501 -0.00000000000E+00  0.00000000000E+00  0.15012082488E+02  0.15065706775E+02  0.12700000000E+01 0. -1.
          4   -1    0    0  501    0  0.00000000000E+00 -0.00000000000E+00 -0.25970198986E+03  0.25970509513E+03  0.12700000000E+01 0. -1.
         25    2    1    2    0    0  0.00000000000E+00  0.00000000000E+00 -0.24468990737E+03  0.27477080191E+03  0.12500337120E+03 0.  0.
    9000005    1    3    3    0    0  0.37913952052E+02  0.25917237705E+02 -0.21550657742E+03  0.22034803353E+03  0.10000000000E+01 0.  0.
    9000005    1    3    3    0    0 -0.37913952052E+02 -0.25917237705E+02 -0.29183329955E+02  0.54422768376E+02  0.10000000000E+01 0.  0.
<mgrwt>
<rscale>  0 0.12500337E+03</rscale>
<asrwt>0</asrwt>
<pdfrwt beam="2">  1        4 0.39958513E-01 0.12500337E+03</pdfrwt>
<pdfrwt beam="1">  1       -4 0.23139152E-02 0.12500337E+03</pdfrwt>
<totfact> 0.78870696E+03</totfact>
</mgrwt>
</event>
<event>
 5    1  0.3209683E-002  0.1249968E+03  0.7818608E-02  0.1235074E+00
          4   -1    0    0  501    0  0.00000000000E+00  0.00000000000E+00  0.13826004104E+02  0.13884210078E+02  0.12700000000E+01 0. -1.
         -4   -1    0    0    0  501 -0.00000000000E+00 -0.00000000000E+00 -0.28186164886E+03  0.28186451000E+03  0.12700000000E+01 0. -1.
         25    2    1    2    0    0  0.00000000000E+00  0.00000000000E+00 -0.26803564475E+03  0.29574872007E+03  0.12499679423E+03 0.  0.
    9000005    1    3    3    0    0 -0.37958522115E+02 -0.71715553940E+01 -0.17797553963E+02  0.42544488891E+02  0.10000000000E+01 0.  0.
    9000005    1    3    3    0    0  0.37958522115E+02  0.71715553940E+01 -0.25023809079E+03  0.25320423118E+03  0.10000000000E+01 0.  0.
<mgrwt>
<rscale>  0 0.12499679E+03</rscale>
<asrwt>0</asrwt>
<pdfrwt beam="1">  1        4 0.21317752E-02 0.12499679E+03</pdfrwt>
<pdfrwt beam="2">  1       -4 0.43368024E-01 0.12499679E+03</pdfrwt>
<totfact> 0.76140646E+03</totfact>
</mgrwt>
</event>
<event>
 5    1  0.3209683E-002  0.1249999E+03  0.7818608E-02  0.1235069E+00
         -4   -1    0    0    0  501 -0.00000000000E+00  0.00000000000E+00  0.67826405331E+01  0.69005153867E+01  0.12700000000E+01 0.  1.
          4   -1    0    0  501    0  0.00000000000E+00 -0.00000000000E+00 -0.57083778818E+03  0.57083920092E+03  0.12700000000E+01 0.  1.
         25    2    1    2    0    0  0.00000000000E+00  0.00000000000E+00 -0.56405514764E+03  0.57773971631E+03  0.12499988087E+03 0.  0.
    9000005    1    3    3    0    0  0.12431457581E+02 -0.46292114480E+02 -0.46735118027E+03  0.46980381724E+03  0.10000000000E+01 0.  0.
    9000005    1    3    3    0    0 -0.12431457581E+02  0.46292114480E+02 -0.96703967377E+02  0.10793589907E+03  0.10000000000E+01 0.  0.
<mgrwt>
<rscale>  0 0.12499988E+03</rscale>
<asrwt>0</asrwt>
<pdfrwt beam="2">  1        4 0.87830337E-01 0.12499988E+03</pdfrwt>
<pdfrwt beam="1">  1       -4 0.10526596E-02 0.12499988E+03</pdfrwt>
<totfact> 0.50303729E+03</totfact>
</mgrwt>
</event>
<event>
 5    1  0.3209683E-002  0.1250045E+03  0.7818608E-02  0.1235062E+00
          4   -1    0    0  501    0  0.00000000000E+00  0.00000000000E+00  0.22032733113E+04  0.22032736774E+04  0.12700000000E+01 0.  1.
         -4   -1    0    0    0  501 -0.00000000000E+00 -0.00000000000E+00 -0.15452283550E+01  0.20001576610E+01  0.12700000000E+01 0.  1.
         25    2    1    2    0    0  0.00000000000E+00  0.00000000000E+00  0.22017280830E+04  0.22052738350E+04  0.12500454407E+03 0.  0.
    9000005    1    3    3    0    0 -0.51950330872E+02  0.29275166505E+02  0.77098039028E+03  0.77328367010E+03  0.10000000000E+01 0.  0.
    9000005    1    3    3    0    0  0.51950330872E+02 -0.29275166505E+02  0.14307476927E+04  0.14319901649E+04  0.10000000000E+01 0.  0.
<mgrwt>
<rscale>  0 0.12500454E+03</rscale>
<asrwt>0</asrwt>
<pdfrwt beam="1">  1        4 0.33899934E+00 0.12500454E+03</pdfrwt>
<pdfrwt beam="2">  1       -4 0.27275080E-03 0.12500454E+03</pdfrwt>
<totfact> 0.74136439E+02</totfact>
</mgrwt>
</event>
<event>
 5    1  0.3209683E-002  0.1249983E+03  0.7818608E-02  0.1235072E+00
          4   -1    0    0  501    0  0.00000000000E+00  0.00000000000E+00  0.24435262104E+02  0.24468243380E+02  0.12700000000E+01 0.  1.
         -4   -1    0    0    0  501 -0.00000000000E+00 -0.00000000000E+00 -0.15971348407E+03  0.15971853334E+03  0.12700000000E+01 0.  1.
         25    2    1    2    0    0  0.00000000000E+00  0.00000000000E+00 -0.13527822197E+03  0.18418677672E+03  0.12499828552E+03 0.  0.
    9000005    1    3    3    0    0 -0.41525441790E+02 -0.85290334135E+01  0.14879097612E-01  0.42404091173E+02  0.10000000000E+01 0.  0.
    9000005    1    3    3    0    0  0.41525441790E+02  0.85290334135E+01 -0.13529310106E+03  0.14178268555E+03  0.10000000000E+01 0.  0.
<mgrwt>
<rscale>  0 0.12499829E+03</rscale>
<asrwt>0</asrwt>
<pdfrwt beam="1">  1        4 0.37621966E-02 0.12499829E+03</pdfrwt>
<pdfrwt beam="2">  1       -4 0.24574230E-01 0.12499829E+03</pdfrwt>
<totfact> 0.92872321E+03</totfact>
</mgrwt>
</event>
<event>
 5    1  0.3209683E-002  0.1249995E+03  0.7818608E-02  0.1235070E+00
         -4   -1    0    0    0  501 -0.00000000000E+00  0.00000000000E+00  0.14184332178E+03  0.14184900716E+03  0.12700000000E+01 0. -1.
          4   -1    0    0  501    0  0.00000000000E+00 -0.00000000000E+00 -0.27518075324E+02  0.27547365927E+02  0.12700000000E+01 0. -1.
         25    2    1    2    0    0  0.00000000000E+00  0.00000000000E+00  0.11432524645E+03  0.16939637309E+03  0.12499947696E+03 0.  0.
    9000005    1    3    3    0    0 -0.11922542661E+02 -0.61340487470E+02  0.58035511888E+02  0.85287297217E+02  0.10000000000E+01 0.  0.
    9000005    1    3    3    0    0  0.11922542661E+02  0.61340487470E+02  0.56289734567E+02  0.84109075873E+02  0.10000000000E+01 0.  0.
<mgrwt>
<rscale>  0 0.12499948E+03</rscale>
<asrwt>0</asrwt>
<pdfrwt beam="2">  1        4 0.42362406E-02 0.12499948E+03</pdfrwt>
<pdfrwt beam="1">  1       -4 0.21824740E-01 0.12499948E+03</pdfrwt>
<totfact> 0.95562329E+03</totfact>
</mgrwt>
</event>
<event>
 5    1  0.3209683E-002  0.1249948E+03  0.7818608E-02  0.1235077E+00
          4   -1    0    0  501    0  0.00000000000E+00  0.00000000000E+00  0.21819500050E+02  0.21856428858E+02  0.12700000000E+01 0. -1.
         -4   -1    0    0    0  501 -0.00000000000E+00 -0.00000000000E+00 -0.17882022325E+03  0.17882473303E+03  0.12700000000E+01 0. -1.
         25    2    1    2    0    0  0.00000000000E+00  0.00000000000E+00 -0.15700072320E+03  0.20068116189E+03  0.12499480650E+03 0.  0.
    9000005    1    3    3    0    0 -0.21767433357E+02  0.25252250103E+02 -0.16335652435E+03  0.16672687647E+03  0.10000000000E+01 0.  0.
    9000005    1    3    3    0    0  0.21767433357E+02 -0.25252250103E+02  0.63558011457E+01  0.33954285421E+02  0.10000000000E+01 0.  0.
<mgrwt>
<rscale>  0 0.12499481E+03</rscale>
<asrwt>0</asrwt>
<pdfrwt beam="1">  1        4 0.33600339E-02 0.12499481E+03</pdfrwt>
<pdfrwt beam="2">  1       -4 0.27513990E-01 0.12499481E+03</pdfrwt>
<totfact> 0.90031212E+03</totfact>
</mgrwt>
</event>
<event>
 5    1  0.3209683E-002  0.1250008E+03  0.7818608E-02  0.1235068E+00
          4   -1    0    0  501    0  0.00000000000E+00  0.00000000000E+00  0.10554758973E+02  0.10630890696E+02  0.12700000000E+01 0. -1.
         -4   -1    0    0    0  501 -0.00000000000E+00 -0.00000000000E+00 -0.36869154530E+03  0.36869373262E+03  0.12700000000E+01 0. -1.
         25    2    1    2    0    0  0.00000000000E+00  0.00000000000E+00 -0.35813678633E+03  0.37932462332E+03  0.12500084854E+03 0.  0.
    9000005    1    3    3    0    0 -0.54226014024E+02  0.27329913166E+02 -0.22386497828E+03  0.23195670556E+03  0.10000000000E+01 0.  0.
    9000005    1    3    3    0    0  0.54226014024E+02 -0.27329913166E+02 -0.13427180804E+03  0.14736791776E+03  0.10000000000E+01 0.  0.
<mgrwt>
<rscale>  0 0.12500085E+03</rscale>
<asrwt>0</asrwt>
<pdfrwt beam="1">  1        4 0.16298339E-02 0.12500085E+03</pdfrwt>
<pdfrwt beam="2">  1       -4 0.56727791E-01 0.12500085E+03</pdfrwt>
<totfact> 0.66613315E+03</totfact>
</mgrwt>
</event>
<event>
 5    1  0.3209683E-002  0.1249983E+03  0.7818608E-02  0.1235072E+00
          4   -1    0    0  501    0  0.00000000000E+00  0.00000000000E+00  0.74843049334E+01  0.75912924022E+01  0.12700000000E+01 0.  1.
         -4   -1    0    0    0  501 -0.00000000000E+00 -0.00000000000E+00 -0.51809939481E+03  0.51810095137E+03  0.12700000000E+01 0.  1.
         25    2    1    2    0    0  0.00000000000E+00  0.00000000000E+00 -0.51061508988E+03  0.52569224377E+03  0.12499826057E+03 0.  0.
    9000005    1    3    3    0    0 -0.53677531577E+02  0.20917556394E+02 -0.15347306447E+03  0.16393231249E+03  0.10000000000E+01 0.  0.
    9000005    1    3    3    0    0  0.53677531577E+02 -0.20917556394E+02 -0.35714202541E+03  0.36175993127E+03  0.10000000000E+01 0.  0.
<mgrwt>
<rscale>  0 0.12499826E+03</rscale>
<asrwt>0</asrwt>
<pdfrwt beam="1">  1        4 0.11597815E-02 0.12499826E+03</pdfrwt>
<pdfrwt beam="2">  1       -4 0.79715921E-01 0.12499826E+03</pdfrwt>
<totfact> 0.53926721E+03</totfact>
</mgrwt>
</event>
<event>
 5    1  0.3209683E-002  0.1250005E+03  0.7818608E-02  0.1235069E+00
          4   -1    0    0  501    0  0.00000000000E+00  0.00000000000E+00  0.62619568474E+03  0.62619697259E+03  0.12700000000E+01 0. -1.
         -4   -1    0    0    0  501 -0.00000000000E+00 -0.00000000000E+00 -0.61721688358E+01  0.63014734894E+01  0.12700000000E+01 0. -1.
         25    2    1    2    0    0  0.00000000000E+00  0.00000000000E+00  0.62002351590E+03  0.63249844608E+03  0.12500049610E+03 0.  0.
    9000005    1    3    3    0    0 -0.56730083360E+02  0.20643596569E-01  0.44263486894E+03  0.44625657416E+03  0.10000000000E+01 0.  0.
    9000005    1    3    3    0    0  0.56730083360E+02 -0.20643596569E-01  0.17738864697E+03  0.18624187192E+03  0.10000000000E+01 0.  0.
<mgrwt>
<rscale>  0 0.12500050E+03</rscale>
<asrwt>0</asrwt>
<pdfrwt beam="1">  1        4 0.96347847E-01 0.12500050E+03</pdfrwt>
<pdfrwt beam="2">  1       -4 0.95960997E-03 0.12500050E+03</pdfrwt>
<totfact> 0.46877925E+03</totfact>
</mgrwt>
</event>
<event>
 5    1  0.3209683E-002  0.1249988E+03  0.7818608E-02  0.1235071E+00
         -4   -1    0    0    0  501 -0.00000000000E+00  0.00000000000E+00  0.25788858137E+03  0.25789170848E+03  0.12700000000E+01 0. -1.
          4   -1    0    0  501    0  0.00000000000E+00 -0.00000000000E+00 -0.15116899246E+02  0.15170153026E+02  0.12700000000E+01 0. -1.
         25    2    1    2    0    0  0.00000000000E+00  0.00000000000E+00  0.24277168212E+03  0.27306186150E+03  0.12499876226E+03 0.  0.
    9000005    1    3    3    0    0  0.82386321162E+01  0.33794733817E+02  0.23479599097E+03  0.23736073068E+03  0.10000000000E+01 0.  0.
    9000005    1    3    3    0    0 -0.82386321162E+01 -0.33794733817E+02  0.79756911574E+01  0.35701130827E+02  0.10000000000E+01 0.  0.
<mgrwt>
<rscale>  0 0.12499876E+03</rscale>
<asrwt>0</asrwt>
<pdfrwt beam="2">  1        4 0.23300140E-02 0.12499876E+03</pdfrwt>
<pdfrwt beam="1">  1       -4 0.39679500E-01 0.12499876E+03</pdfrwt>
<totfact> 0.79109317E+03</totfact>
</mgrwt>
</event>
<event>
 5    1  0.3209683E-002  0.1249985E+03  0.7818608E-02  0.1235072E+00
          4   -1    0    0  501    0  0.00000000000E+00  0.00000000000E+00  0.10387704983E+03  0.10388481305E+03  0.12700000000E+01 0. -1.
         -4   -1    0    0    0  501 -0.00000000000E+00 -0.00000000000E+00 -0.37583784330E+02  0.37605235601E+02  0.12700000000E+01 0. -1.
         25    2    1    2    0    0  0.00000000000E+00  0.00000000000E+00  0.66293265501E+02  0.14149004865E+03  0.12499854725E+03 0.  0.
    9000005    1    3    3    0    0 -0.37076292134E+02 -0.40967361078E+02  0.10303042802E+00  0.55262887433E+02  0.10000000000E+01 0.  0.
    9000005    1    3    3    0    0  0.37076292134E+02  0.40967361078E+02  0.66190235073E+02  0.86227161214E+02  0.10000000000E+01 0.  0.
<mgrwt>
<rscale>  0 0.12499855E+03</rscale>
<asrwt>0</asrwt>
<pdfrwt beam="1">  1        4 0.15983331E-01 0.12499855E+03</pdfrwt>
<pdfrwt beam="2">  1       -4 0.57843681E-02 0.12499855E+03</pdfrwt>
<totfact> 0.10103127E+04</totfact>
</mgrwt>
</event>
<event>
 5    1  0.3209683E-002  0.1249602E+03  0.7818608E-02  0.1235131E+00
          4   -1    0    0  501    0  0.00000000000E+00  0.00000000000E+00  0.13474146558E+03  0.13474745062E+03  0.12700000000E+01 0. -1.
         -4   -1    0    0    0  501 -0.00000000000E+00 -0.00000000000E+00 -0.28951697899E+02  0.28979539528E+02  0.12700000000E+01 0. -1.
         25    2    1    2    0    0  0.00000000000E+00  0.00000000000E+00  0.10578976768E+03  0.16372699014E+03  0.12496020308E+03 0.  0.
    9000005    1    3    3    0    0 -0.52968954600E+02  0.36447219507E+01  0.97611647427E+01  0.53993281866E+02  0.10000000000E+01 0.  0.
    9000005    1    3    3    0    0  0.52968954600E+02 -0.36447219507E+01  0.96028602941E+02  0.10973370828E+03  0.10000000000E+01 0.  0.
<mgrwt>
<rscale>  0 0.12496020E+03</rscale>
<asrwt>0</asrwt>
<pdfrwt beam="1">  1        4 0.20732058E-01 0.12496020E+03</pdfrwt>
<pdfrwt beam="2">  1       -4 0.44567095E-02 0.12496020E+03</pdfrwt>
<totfact> 0.96715477E+03</totfact>
</mgrwt>
</event>
<event>
 5    1  0.3209683E-002  0.1250092E+03  0.7818608E-02  0.1235055E+00
         -4   -1    0    0    0  501 -0.00000000000E+00  0.00000000000E+00  0.89120605165E+01  0.90020954589E+01  0.12700000000E+01 0.  1.
          4   -1    0    0  501    0  0.00000000000E+00 -0.00000000000E+00 -0.43608100070E+03  0.43608285001E+03  0.12700000000E+01 0.  1.
         25    2    1    2    0    0  0.00000000000E+00  0.00000000000E+00 -0.42716894019E+03  0.44508494547E+03  0.12500922056E+03 0.  0.
    9000005    1    3    3    0    0  0.41502184408E+01 -0.20412964942E+02 -0.37942369522E+01  0.21196926308E+02  0.10000000000E+01 0.  0.
    9000005    1    3    3    0    0 -0.41502184408E+01  0.20412964942E+02 -0.42337470323E+03  0.42388801916E+03  0.10000000000E+01 0.  0.
<mgrwt>
<rscale>  0 0.12500922E+03</rscale>
<asrwt>0</asrwt>
<pdfrwt beam="2">  1        4 0.67096436E-01 0.12500922E+03</pdfrwt>
<pdfrwt beam="1">  1       -4 0.13781546E-02 0.12500922E+03</pdfrwt>
<totfact> 0.60379704E+03</totfact>
</mgrwt>
</event>
<event>
 5    1  0.3209683E-002  0.1250039E+03  0.7818608E-02  0.1235063E+00
          4   -1    0    0  501    0  0.00000000000E+00  0.00000000000E+00  0.13330229669E+02  0.13390590840E+02  0.12700000000E+01 0.  1.
         -4   -1    0    0    0  501 -0.00000000000E+00 -0.00000000000E+00 -0.29233138432E+03  0.29233414299E+03  0.12700000000E+01 0.  1.
         25    2    1    2    0    0  0.00000000000E+00  0.00000000000E+00 -0.27900115465E+03  0.30572473383E+03  0.12500387426E+03 0.  0.
    9000005    1    3    3    0    0 -0.47793751784E+02 -0.32734523832E+02 -0.82158935629E+02  0.10053299192E+03  0.10000000000E+01 0.  0.
    9000005    1    3    3    0    0  0.47793751784E+02  0.32734523832E+02 -0.19684221902E+03  0.20519174191E+03  0.10000000000E+01 0.  0.
<mgrwt>
<rscale>  0 0.12500387E+03</rscale>
<asrwt>0</asrwt>
<pdfrwt beam="1">  1        4 0.20556602E-02 0.12500387E+03</pdfrwt>
<pdfrwt beam="2">  1       -4 0.44978910E-01 0.12500387E+03</pdfrwt>
<totfact> 0.74879868E+03</totfact>
</mgrwt>
</event>
<event>
 5    1  0.3209683E-002  0.1250002E+03  0.7818608E-02  0.1235069E+00
          4   -1    0    0  501    0  0.00000000000E+00  0.00000000000E+00  0.22138369584E+03  0.22138733858E+03  0.12700000000E+01 0. -1.
         -4   -1    0    0    0  501 -0.00000000000E+00 -0.00000000000E+00 -0.17618104383E+02  0.17663819011E+02  0.12700000000E+01 0. -1.
         25    2    1    2    0    0  0.00000000000E+00  0.00000000000E+00  0.20376559146E+03  0.23905115759E+03  0.12500015874E+03 0.  0.
    9000005    1    3    3    0    0 -0.52895046390E+02 -0.32931685509E+02  0.11103003532E+03  0.12732262402E+03  0.10000000000E+01 0.  0.
    9000005    1    3    3    0    0  0.52895046390E+02  0.32931685509E+02  0.92735556137E+02  0.11172853358E+03  0.10000000000E+01 0.  0.
<mgrwt>
<rscale>  0 0.12500016E+03</rscale>
<asrwt>0</asrwt>
<pdfrwt beam="1">  1        4 0.34062830E-01 0.12500016E+03</pdfrwt>
<pdfrwt beam="2">  1       -4 0.27142741E-02 0.12500016E+03</pdfrwt>
<totfact> 0.83938583E+03</totfact>
</mgrwt>
</event>
<event>
 5    1  0.3209683E-002  0.1249997E+03  0.7818608E-02  0.1235070E+00
          4   -1    0    0  501    0  0.00000000000E+00  0.00000000000E+00  0.76938241146E+02  0.76948722215E+02  0.12700000000E+01 0. -1.
         -4   -1    0    0    0  501 -0.00000000000E+00 -0.00000000000E+00 -0.50749153047E+02  0.50765041466E+02  0.12700000000E+01 0. -1.
         25    2    1    2    0    0  0.00000000000E+00  0.00000000000E+00  0.26189088098E+02  0.12771376368E+03  0.12499974839E+03 0.  0.
    9000005    1    3    3    0    0 -0.72286193486E+01 -0.21480472457E+02  0.72596192576E+02  0.76058338209E+02  0.10000000000E+01 0.  0.
    9000005    1    3    3    0    0  0.72286193486E+01  0.21480472457E+02 -0.46407104478E+02  0.51655425472E+02  0.10000000000E+01 0.  0.
<mgrwt>
<rscale>  0 0.12499975E+03</rscale>
<asrwt>0</asrwt>
<pdfrwt beam="1">  1        4 0.11838681E-01 0.12499975E+03</pdfrwt>
<pdfrwt beam="2">  1       -4 0.78095905E-02 0.12499975E+03</pdfrwt>
<totfact> 0.10393733E+04</totfact>
</mgrwt>
</event>
<event>
 5    1  0.3209683E-002  0.1250018E+03  0.7818608E-02  0.1235066E+00
         -4   -1    0    0    0  501 -0.00000000000E+00  0.00000000000E+00  0.49386735984E+03  0.49386899277E+03  0.12700000000E+01 0. -1.
          4   -1    0    0  501    0  0.00000000000E+00 -0.00000000000E+00 -0.78571039880E+01  0.79590817987E+01  0.12700000000E+01 0. -1.
         25    2    1    2    0    0  0.00000000000E+00  0.00000000000E+00  0.48601025585E+03  0.50182807456E+03  0.12500179050E+03 0.  0.
    9000005    1    3    3    0    0  0.54079278645E+02 -0.22638914349E+01  0.11760735515E+03  0.12946885173E+03  0.10000000000E+01 0.  0.
    9000005    1    3    3    0    0 -0.54079278645E+02  0.22638914349E+01  0.36840290071E+03  0.37235922284E+03  0.10000000000E+01 0.  0.
<mgrwt>
<rscale>  0 0.12500179E+03</rscale>
<asrwt>0</asrwt>
<pdfrwt beam="2">  1        4 0.12167552E-02 0.12500179E+03</pdfrwt>
<pdfrwt beam="1">  1       -4 0.75987567E-01 0.12500179E+03</pdfrwt>
<totfact> 0.55720613E+03</totfact>
</mgrwt>
</event>
<event>
 5    1  0.3209683E-002  0.1250023E+03  0.7818608E-02  0.1235066E+00
         -4   -1    0    0    0  501 -0.00000000000E+00  0.00000000000E+00  0.74716034442E+02  0.74726827196E+02  0.12700000000E+01 0. -1.
          4   -1    0    0  501    0  0.00000000000E+00 -0.00000000000E+00 -0.52260951201E+02  0.52276380139E+02  0.12700000000E+01 0. -1.
         25    2    1    2    0    0  0.00000000000E+00  0.00000000000E+00  0.22455083241E+02  0.12700320733E+03  0.12500233562E+03 0.  0.
    9000005    1    3    3    0    0 -0.21153346915E+02 -0.24462928370E+02 -0.43102668636E+02  0.53895630563E+02  0.10000000000E+01 0.  0.
    9000005    1    3    3    0    0  0.21153346915E+02  0.24462928370E+02  0.65557751878E+02  0.73107576772E+02  0.10000000000E+01 0.  0.
<mgrwt>
<rscale>  0 0.12500234E+03</rscale>
<asrwt>0</asrwt>
<pdfrwt beam="2">  1        4 0.80421634E-02 0.12500234E+03</pdfrwt>
<pdfrwt beam="1">  1       -4 0.11496792E-01 0.12500234E+03</pdfrwt>
<totfact> 0.10408527E+04</totfact>
</mgrwt>
</event>
<event>
 5    1  0.3209683E-002  0.1250116E+03  0.7818608E-02  0.1235051E+00
         -4   -1    0    0    0  501 -0.00000000000E+00  0.00000000000E+00  0.32432342383E+03  0.32432591038E+03  0.12700000000E+01 0. -1.
          4   -1    0    0  501    0  0.00000000000E+00 -0.00000000000E+00 -0.12010527716E+02  0.12077486329E+02  0.12700000000E+01 0. -1.
         25    2    1    2    0    0  0.00000000000E+00  0.00000000000E+00  0.31231289611E+03  0.33640339671E+03  0.12501160042E+03 0.  0.
    9000005    1    3    3    0    0  0.30101679231E+02  0.34840434590E+02  0.26988035398E+03  0.27378161450E+03  0.10000000000E+01 0.  0.
    9000005    1    3    3    0    0 -0.30101679231E+02 -0.34840434590E+02  0.42432542133E+02  0.62621782207E+02  0.10000000000E+01 0.  0.
<mgrwt>
<rscale>  0 0.12501160E+03</rscale>
<asrwt>0</asrwt>
<pdfrwt beam="2">  1        4 0.18531156E-02 0.12501160E+03</pdfrwt>
<pdfrwt beam="1">  1       -4 0.49901250E-01 0.12501160E+03</pdfrwt>
<totfact> 0.71228413E+03</totfact>
</mgrwt>
</event>
<event>
 5    1  0.3209683E-002  0.1250015E+03  0.7818608E-02  0.1235067E+00
          4   -1    0    0  501    0  0.00000000000E+00  0.00000000000E+00  0.13493066739E+03  0.13493664403E+03  0.12700000000E+01 0. -1.
         -4   -1    0    0    0  501 -0.00000000000E+00 -0.00000000000E+00 -0.28930183761E+02  0.28958046074E+02  0.12700000000E+01 0. -1.
         25    2    1    2    0    0  0.00000000000E+00  0.00000000000E+00  0.10600048362E+03  0.16389469010E+03  0.12500146765E+03 0.  0.
    9000005    1    3    3    0    0 -0.14387039731E+02 -0.36349262378E+02  0.11692545912E+03  0.12329160060E+03  0.10000000000E+01 0.  0.
    9000005    1    3    3    0    0  0.14387039731E+02  0.36349262378E+02 -0.10924975494E+02  0.40603089503E+02  0.10000000000E+01 0.  0.
<mgrwt>
<rscale>  0 0.12500147E+03</rscale>
<asrwt>0</asrwt>
<pdfrwt beam="1">  1        4 0.20761167E-01 0.12500147E+03</pdfrwt>
<pdfrwt beam="2">  1       -4 0.44534005E-02 0.12500147E+03</pdfrwt>
<totfact> 0.96593945E+03</totfact>
</mgrwt>
</event>
<event>
 5    1  0.3209683E-002  0.1250002E+03  0.7818608E-02  0.1235069E+00
          4   -1    0    0  501    0  0.00000000000E+00  0.00000000000E+00  0.26670421750E+03  0.26670724124E+03  0.12700000000E+01 0. -1.
         -4   -1    0    0    0  501 -0.00000000000E+00 -0.00000000000E+00 -0.14615776884E+02  0.14670849803E+02  0.12700000000E+01 0. -1.
         25    2    1    2    0    0  0.00000000000E+00  0.00000000000E+00  0.25208844061E+03  0.28137809105E+03  0.12500019292E+03 0.  0.
    9000005    1    3    3    0    0 -0.81462849117E+01  0.74799626077E+01  0.26449484228E+03  0.26472784778E+03  0.10000000000E+01 0.  0.
    9000005    1    3    3    0    0  0.81462849117E+01 -0.74799626077E+01 -0.12406401666E+02  0.16650243264E+02  0.10000000000E+01 0.  0.
<mgrwt>
<rscale>  0 0.12500019E+03</rscale>
<asrwt>0</asrwt>
<pdfrwt beam="1">  1        4 0.41035888E-01 0.12500019E+03</pdfrwt>
<pdfrwt beam="2">  1       -4 0.22530500E-02 0.12500019E+03</pdfrwt>
<totfact> 0.77995398E+03</totfact>
</mgrwt>
</event>
<event>
 5    1  0.3209683E-002  0.1250005E+03  0.7818608E-02  0.1235069E+00
          4   -1    0    0  501    0  0.00000000000E+00  0.00000000000E+00  0.10467328505E+02  0.10544091523E+02  0.12700000000E+01 0.  1.
         -4   -1    0    0    0  501 -0.00000000000E+00 -0.00000000000E+00 -0.37174658755E+03  0.37174875689E+03  0.12700000000E+01 0.  1.
         25    2    1    2    0    0  0.00000000000E+00  0.00000000000E+00 -0.36127925904E+03  0.38229284842E+03  0.12500047575E+03 0.  0.
    9000005    1    3    3    0    0  0.14349497593E+02 -0.45500695468E+02 -0.57200505839E+02  0.74492410603E+02  0.10000000000E+01 0.  0.
    9000005    1    3    3    0    0 -0.14349497593E+02  0.45500695468E+02 -0.30407875320E+03  0.30780043781E+03  0.10000000000E+01 0.  0.
<mgrwt>
<rscale>  0 0.12500048E+03</rscale>
<asrwt>0</asrwt>
<pdfrwt beam="1">  1        4 0.16164302E-02 0.12500048E+03</pdfrwt>
<pdfrwt beam="2">  1       -4 0.57197844E-01 0.12500048E+03</pdfrwt>
<totfact> 0.66311494E+03</totfact>
</mgrwt>
</event>
<event>
 5    1  0.3209683E-002  0.1250049E+03  0.7818608E-02  0.1235062E+00
         -4   -1    0    0    0  501 -0.00000000000E+00  0.00000000000E+00  0.31785865497E+02  0.31811226719E+02  0.12700000000E+01 0.  1.
          4   -1    0    0  501    0  0.00000000000E+00 -0.00000000000E+00 -0.12282463966E+03  0.12283120535E+03  0.12700000000E+01 0.  1.
         25    2    1    2    0    0  0.00000000000E+00  0.00000000000E+00 -0.91038774161E+02  0.15464243207E+03  0.12500489348E+03 0.  0.
    9000005    1    3    3    0    0 -0.22553931780E+02  0.53254319160E+02 -0.74816604521E+02  0.94568634652E+02  0.10000000000E+01 0.  0.
    9000005    1    3    3    0    0  0.22553931780E+02 -0.53254319160E+02 -0.16222169640E+02  0.60073797414E+02  0.10000000000E+01 0.  0.
<mgrwt>
<rscale>  0 0.12500489E+03</rscale>
<asrwt>0</asrwt>
<pdfrwt beam="2">  1        4 0.18898554E-01 0.12500489E+03</pdfrwt>
<pdfrwt beam="1">  1       -4 0.48925891E-02 0.12500489E+03</pdfrwt>
<totfact> 0.98374912E+03</totfact>
</mgrwt>
</event>
<event>
 5    1  0.3209683E-002  0.1249846E+03  0.7818608E-02  0.1235093E+00
         -4   -1    0    0    0  501 -0.00000000000E+00  0.00000000000E+00  0.26786311815E+03  0.26786612881E+03  0.12700000000E+01 0. -1.
          4   -1    0    0  501    0  0.00000000000E+00 -0.00000000000E+00 -0.14548655761E+02  0.14603981801E+02  0.12700000000E+01 0. -1.
         25    2    1    2    0    0  0.00000000000E+00  0.00000000000E+00  0.25331446239E+03  0.28247011061E+03  0.12498458519E+03 0.  0.
    9000005    1    3    3    0    0  0.32268329862E+01  0.25596304942E+02 -0.19607333952E+01  0.25892619667E+02  0.10000000000E+01 0.  0.
    9000005    1    3    3    0    0 -0.32268329862E+01 -0.25596304942E+02  0.25527519578E+03  0.25657749094E+03  0.10000000000E+01 0.  0.
<mgrwt>
<rscale>  0 0.12498459E+03</rscale>
<asrwt>0</asrwt>
<pdfrwt beam="2">  1        4 0.22427422E-02 0.12498459E+03</pdfrwt>
<pdfrwt beam="1">  1       -4 0.41214198E-01 0.12498459E+03</pdfrwt>
<totfact> 0.77878398E+03</totfact>
</mgrwt>
</event>
<event>
 5    1  0.3209683E-002  0.1250028E+03  0.7818608E-02  0.1235065E+00
         -4   -1    0    0    0  501 -0.00000000000E+00  0.00000000000E+00  0.19491935061E+02  0.19533264767E+02  0.12700000000E+01 0.  1.
          4   -1    0    0  501    0  0.00000000000E+00 -0.00000000000E+00 -0.20015665014E+03  0.20016067919E+03  0.12700000000E+01 0.  1.
         25    2    1    2    0    0  0.00000000000E+00  0.00000000000E+00 -0.18066471508E+03  0.21969394396E+03  0.12500275892E+03 0.  0.
    9000005    1    3    3    0    0  0.38074151233E+02 -0.28850502137E+02 -0.19518986957E+02  0.51613789993E+02  0.10000000000E+01 0.  0.
    9000005    1    3    3    0    0 -0.38074151233E+02  0.28850502137E+02 -0.16114572812E+03  0.16808015396E+03  0.10000000000E+01 0.  0.
<mgrwt>
<rscale>  0 0.12500276E+03</rscale>
<asrwt>0</asrwt>
<pdfrwt beam="2">  1        4 0.30796818E-01 0.12500276E+03</pdfrwt>
<pdfrwt beam="1">  1       -4 0.30022485E-02 0.12500276E+03</pdfrwt>
<totfact> 0.86911447E+03</totfact>
</mgrwt>
</event>
<event>
 5    1  0.3209683E-002  0.1250029E+03  0.7818608E-02  0.1235065E+00
          4   -1    0    0  501    0  0.00000000000E+00  0.00000000000E+00  0.69233052609E+01  0.70388248831E+01  0.12700000000E+01 0.  1.
         -4   -1    0    0    0  501 -0.00000000000E+00 -0.00000000000E+00 -0.55945930433E+03  0.55946074581E+03  0.12700000000E+01 0.  1.
         25    2    1    2    0    0  0.00000000000E+00  0.00000000000E+00 -0.55253599907E+03  0.56649957070E+03  0.12500293328E+03 0.  0.
    9000005    1    3    3    0    0 -0.14365259886E+02  0.42554112511E+02 -0.79340804626E+02  0.91176622343E+02  0.10000000000E+01 0.  0.
    9000005    1    3    3    0    0  0.14365259886E+02 -0.42554112511E+02 -0.47319519445E+03  0.47532294835E+03  0.10000000000E+01 0.  0.
<mgrwt>
<rscale>  0 0.12500293E+03</rscale>
<asrwt>0</asrwt>
<pdfrwt beam="1">  1        4 0.10741213E-02 0.12500293E+03</pdfrwt>
<pdfrwt beam="2">  1       -4 0.86079624E-01 0.12500293E+03</pdfrwt>
<totfact> 0.51049647E+03</totfact>
</mgrwt>
</event>
<event>
 5    1  0.3209683E-002  0.1249983E+03  0.7818608E-02  0.1235072E+00
          4   -1    0    0  501    0  0.00000000000E+00  0.00000000000E+00  0.65908762449E+03  0.65908884808E+03  0.12700000000E+01 0. -1.
         -4   -1    0    0    0  501 -0.00000000000E+00 -0.00000000000E+00 -0.58573098946E+01  0.59934113159E+01  0.12700000000E+01 0. -1.
         25    2    1    2    0    0  0.00000000000E+00  0.00000000000E+00  0.65323031460E+03  0.66508225939E+03  0.12499827138E+03 0.  0.
    9000005    1    3    3    0    0 -0.55279313877E+02  0.22640745795E+02  0.42425254754E+03  0.42843859537E+03  0.10000000000E+01 0.  0.
    9000005    1    3    3    0    0  0.55279313877E+02 -0.22640745795E+02  0.22897776706E+03  0.23664366402E+03  0.10000000000E+01 0.  0.
<mgrwt>
<rscale>  0 0.12499827E+03</rscale>
<asrwt>0</asrwt>
<pdfrwt beam="1">  1        4 0.10140856E+00 0.12499827E+03</pdfrwt>
<pdfrwt beam="2">  1       -4 0.91168896E-03 0.12499827E+03</pdfrwt>
<totfact> 0.44996829E+03</totfact>
</mgrwt>
</event>
<event>
 5    1  0.3209683E-002  0.1250004E+03  0.7818608E-02  0.1235069E+00
          4   -1    0    0  501    0  0.00000000000E+00  0.00000000000E+00  0.11133203354E+03  0.11133927695E+03  0.12700000000E+01 0.  1.
         -4   -1    0    0    0  501 -0.00000000000E+00 -0.00000000000E+00 -0.35066835408E+02  0.35089825385E+02  0.12700000000E+01 0.  1.
         25    2    1    2    0    0  0.00000000000E+00  0.00000000000E+00  0.76265198132E+02  0.14642910234E+03  0.12500040626E+03 0.  0.
    9000005    1    3    3    0    0  0.58708461004E+02  0.16192346514E+02  0.54549327727E+02  0.81764935238E+02  0.10000000000E+01 0.  0.
    9000005    1    3    3    0    0 -0.58708461004E+02 -0.16192346514E+02  0.21715870404E+02  0.64664167098E+02  0.10000000000E+01 0.  0.
<mgrwt>
<rscale>  0 0.12500041E+03</rscale>
<asrwt>0</asrwt>
<pdfrwt beam="1">  1        4 0.17130331E-01 0.12500041E+03</pdfrwt>
<pdfrwt beam="2">  1       -4 0.53972235E-02 0.12500041E+03</pdfrwt>
<totfact> 0.10001941E+04</totfact>
</mgrwt>
</event>
<event>
 5    1  0.3209683E-002  0.1249984E+03  0.7818608E-02  0.1235072E+00
         -4   -1    0    0    0  501 -0.00000000000E+00  0.00000000000E+00  0.79891745148E+02  0.79901838795E+02  0.12700000000E+01 0.  1.
          4   -1    0    0  501    0  0.00000000000E+00 -0.00000000000E+00 -0.48871622935E+02  0.48888121546E+02  0.12700000000E+01 0.  1.
         25    2    1    2    0    0  0.00000000000E+00  0.00000000000E+00  0.31020122213E+02  0.12878996034E+03  0.12499842360E+03 0.  0.
    9000005    1    3    3    0    0  0.10159534322E+02 -0.32395327047E+02 -0.38545379474E+02  0.51375282295E+02  0.10000000000E+01 0.  0.
    9000005    1    3    3    0    0 -0.10159534322E+02  0.32395327047E+02  0.69565501686E+02  0.77414678046E+02  0.10000000000E+01 0.  0.
<mgrwt>
<rscale>  0 0.12499842E+03</rscale>
<asrwt>0</asrwt>
<pdfrwt beam="2">  1        4 0.75207568E-02 0.12499842E+03</pdfrwt>
<pdfrwt beam="1">  1       -4 0.12293083E-01 0.12499842E+03</pdfrwt>
<totfact> 0.10370831E+04</totfact>
</mgrwt>
</event>
<event>
 5    1  0.3209683E-002  0.1250037E+03  0.7818608E-02  0.1235064E+00
          4   -1    0    0  501    0  0.00000000000E+00  0.00000000000E+00  0.14385524697E+04  0.14385530303E+04  0.12700000000E+01 0. -1.
         -4   -1    0    0    0  501 -0.00000000000E+00 -0.00000000000E+00 -0.25664832293E+01  0.28635181449E+01  0.12700000000E+01 0. -1.
         25    2    1    2    0    0  0.00000000000E+00  0.00000000000E+00  0.14359859865E+04  0.14414165484E+04  0.12500365109E+03 0.  0.
    9000005    1    3    3    0    0  0.23554734115E+02  0.47088921156E+02  0.32980990908E+03  0.33398767661E+03  0.10000000000E+01 0.  0.
    9000005    1    3    3    0    0 -0.23554734115E+02 -0.47088921156E+02  0.11061760774E+04  0.11074288718E+04  0.10000000000E+01 0.  0.
<mgrwt>
<rscale>  0 0.12500365E+03</rscale>
<asrwt>0</asrwt>
<pdfrwt beam="1">  1        4 0.22133868E+00 0.12500365E+03</pdfrwt>
<pdfrwt beam="2">  1       -4 0.41773550E-03 0.12500365E+03</pdfrwt>
<totfact> 0.19107701E+03</totfact>
</mgrwt>
</event>
<event>
 5    1  0.3209683E-002  0.1250064E+03  0.7818608E-02  0.1235059E+00
          4   -1    0    0  501    0  0.00000000000E+00  0.00000000000E+00  0.13853177262E+03  0.13853759390E+03  0.12700000000E+01 0.  1.
         -4   -1    0    0    0  501 -0.00000000000E+00 -0.00000000000E+00 -0.28179694766E+02  0.28208298373E+02  0.12700000000E+01 0.  1.
         25    2    1    2    0    0  0.00000000000E+00  0.00000000000E+00  0.11035207785E+03  0.16674589227E+03  0.12500644585E+03 0.  0.
    9000005    1    3    3    0    0  0.12573905763E+02  0.42730903474E+02  0.11364918389E+03  0.12207034946E+03  0.10000000000E+01 0.  0.
    9000005    1    3    3    0    0 -0.12573905763E+02 -0.42730903474E+02 -0.32971060388E+01  0.44675542818E+02  0.10000000000E+01 0.  0.
<mgrwt>
<rscale>  0 0.12500645E+03</rscale>
<asrwt>0</asrwt>
<pdfrwt beam="1">  1        4 0.21315228E-01 0.12500645E+03</pdfrwt>
<pdfrwt beam="2">  1       -4 0.43379858E-02 0.12500645E+03</pdfrwt>
<totfact> 0.96043861E+03</totfact>
</mgrwt>
</event>
<event>
 5    1  0.3209683E-002  0.1250010E+03  0.7818608E-02  0.1235068E+00
          4   -1    0    0  501    0  0.00000000000E+00  0.00000000000E+00  0.43668778396E+01  0.45478040927E+01  0.12700000000E+01 0. -1.
         -4   -1    0    0    0  501 -0.00000000000E+00 -0.00000000000E+00 -0.87619649602E+03  0.87619741642E+03  0.12700000000E+01 0. -1.
         25    2    1    2    0    0  0.00000000000E+00  0.00000000000E+00 -0.87182961818E+03  0.88074522051E+03  0.12500104126E+03 0.  0.
    9000005    1    3    3    0    0  0.42920057581E+02 -0.23740941896E+02 -0.70876065421E+03  0.71045649312E+03  0.10000000000E+01 0.  0.
    9000005    1    3    3    0    0 -0.42920057581E+02  0.23740941896E+02 -0.16306896397E+03  0.17028872739E+03  0.10000000000E+01 0.  0.
<mgrwt>
<rscale>  0 0.12500104E+03</rscale>
<asrwt>0</asrwt>
<pdfrwt beam="1">  1        4 0.68581626E-03 0.12500104E+03</pdfrwt>
<pdfrwt beam="2">  1       -4 0.13481331E+00 0.12500104E+03</pdfrwt>
<totfact> 0.34900389E+03</totfact>
</mgrwt>
</event>
<event>
 5    1  0.3209683E-002  0.1250015E+03  0.7818608E-02  0.1235067E+00
          4   -1    0    0  501    0  0.00000000000E+00  0.00000000000E+00  0.48854375602E+02  0.48870880035E+02  0.12700000000E+01 0.  1.
         -4   -1    0    0    0  501 -0.00000000000E+00 -0.00000000000E+00 -0.79923904959E+02  0.79933994545E+02  0.12700000000E+01 0.  1.
         25    2    1    2    0    0  0.00000000000E+00  0.00000000000E+00 -0.31069529358E+02  0.12880487458E+03  0.12500152024E+03 0.  0.
    9000005    1    3    3    0    0 -0.62144826507E+02  0.59256587854E+01 -0.18494819917E+02  0.65116443832E+02  0.10000000000E+01 0.  0.
    9000005    1    3    3    0    0  0.62144826507E+02 -0.59256587854E+01 -0.12574709441E+02  0.63688430748E+02  0.10000000000E+01 0.  0.
<mgrwt>
<rscale>  0 0.12500152E+03</rscale>
<asrwt>0</asrwt>
<pdfrwt beam="1">  1        4 0.75181035E-02 0.12500152E+03</pdfrwt>
<pdfrwt beam="2">  1       -4 0.12298031E-01 0.12500152E+03</pdfrwt>
<totfact> 0.10369786E+04</totfact>
</mgrwt>
</event>
<event>
 4    1  0.3209683E-002  0.1249173E+03  0.7818608E-02  0.1235199E+00
          4   -1    0    0  501    0  0.00000000000E+00  0.00000000000E+00  0.11207274147E+03  0.11207993701E+03  0.12700000000E+01 0. -1.
         -4   -1    0    0    0  501 -0.00000000000E+00 -0.00000000000E+00 -0.34788564012E+02  0.34811737762E+02  0.12700000000E+01 0. -1.
    9000005    1    1    2    0    0  0.61697391968E+02  0.66299795936E+00  0.49986576791E+02  0.79414517573E+02  0.10000000000E+01 0.  0.
    9000005    1    1    2    0    0 -0.61697391968E+02 -0.66299795936E+00  0.27297600667E+02  0.67477157203E+02  0.10000000000E+01 0.  0.
<mgrwt>
<rscale>  0 0.12491725E+03</rscale>
<asrwt>0</asrwt>
<pdfrwt beam="1">  1        4 0.17244296E-01 0.12491725E+03</pdfrwt>
<pdfrwt beam="2">  1       -4 0.53544229E-02 0.12491725E+03</pdfrwt>
<totfact> 0.10011333E+04</totfact>
</mgrwt>
</event>
<event>
 5    1  0.3209683E-002  0.1250018E+03  0.7818608E-02  0.1235067E+00
          4   -1    0    0  501    0  0.00000000000E+00  0.00000000000E+00  0.11220026399E+02  0.11291673587E+02  0.12700000000E+01 0.  1.
         -4   -1    0    0    0  501 -0.00000000000E+00 -0.00000000000E+00 -0.34697869062E+03  0.34698101481E+03  0.12700000000E+01 0.  1.
         25    2    1    2    0    0  0.00000000000E+00  0.00000000000E+00 -0.33575866422E+03  0.35827268840E+03  0.12500175462E+03 0.  0.
    9000005    1    3    3    0    0 -0.34836721131E+01  0.18260386989E+02  0.31258582722E+01  0.18877200383E+02  0.10000000000E+01 0.  0.
    9000005    1    3    3    0    0  0.34836721131E+01 -0.18260386989E+02 -0.33888452249E+03  0.33939548802E+03  0.10000000000E+01 0.  0.
<mgrwt>
<rscale>  0 0.12500175E+03</rscale>
<asrwt>0</asrwt>
<pdfrwt beam="1">  1        4 0.17318483E-02 0.12500175E+03</pdfrwt>
<pdfrwt beam="2">  1       -4 0.53387019E-01 0.12500175E+03</pdfrwt>
<totfact> 0.68821278E+03</totfact>
</mgrwt>
</event>
<event>
 5    1  0.3209683E-002  0.1249965E+03  0.7818608E-02  0.1235075E+00
          4   -1    0    0  501    0  0.00000000000E+00  0.00000000000E+00  0.73275657223E+02  0.73286662098E+02  0.12700000000E+01 0.  1.
         -4   -1    0    0    0  501 -0.00000000000E+00 -0.00000000000E+00 -0.53283370955E+02  0.53298503922E+02  0.12700000000E+01 0.  1.
         25    2    1    2    0    0  0.00000000000E+00  0.00000000000E+00  0.19992286268E+02  0.12658516602E+03  0.12499645093E+03 0.  0.
    9000005    1    3    3    0    0  0.79915912736E+01  0.65621624730E+01  0.72408181929E+02  0.73149656990E+02  0.10000000000E+01 0.  0.
    9000005    1    3    3    0    0 -0.79915912736E+01 -0.65621624730E+01 -0.52415895661E+02  0.53435509031E+02  0.10000000000E+01 0.  0.
<mgrwt>
<rscale>  0 0.12499645E+03</rscale>
<asrwt>0</asrwt>
<pdfrwt beam="1">  1        4 0.11275189E-01 0.12499645E+03</pdfrwt>
<pdfrwt beam="2">  1       -4 0.81994524E-02 0.12499645E+03</pdfrwt>
<totfact> 0.10419006E+04</totfact>
</mgrwt>
</event>
<event>
 4    1  0.3209683E-002  0.1248983E+03  0.7818608E-02  0.1235228E+00
         -4   -1    0    0    0  501 -0.00000000000E+00  0.00000000000E+00  0.21359517757E+02  0.21397240448E+02  0.12700000000E+01 0. -1.
          4   -1    0    0  501    0  0.00000000000E+00 -0.00000000000E+00 -0.18238261199E+03  0.18238703369E+03  0.12700000000E+01 0. -1.
    9000005    1    1    2    0    0 -0.49387906011E+02 -0.28540872750E+02 -0.39069142296E+02  0.69145820967E+02  0.10000000000E+01 0.  0.
    9000005    1    1    2    0    0  0.49387906011E+02  0.28540872750E+02 -0.12195395194E+03  0.13463845317E+03  0.10000000000E+01 0.  0.
<mgrwt>
<rscale>  0 0.12489833E+03</rscale>
<asrwt>0</asrwt>
<pdfrwt beam="2">  1        4 0.28062104E-01 0.12489833E+03</pdfrwt>
<pdfrwt beam="1">  1       -4 0.32893217E-02 0.12489833E+03</pdfrwt>
<totfact> 0.89705011E+03</totfact>
</mgrwt>
</event>
<event>
 5    1  0.3209683E-002  0.1250340E+03  0.7818608E-02  0.1235016E+00
         -4   -1    0    0    0  501 -0.00000000000E+00  0.00000000000E+00  0.19072683129E+01  0.22914127558E+01  0.12700000000E+01 0. -1.
          4   -1    0    0  501    0  0.00000000000E+00 -0.00000000000E+00 -0.18613321846E+04  0.18613326178E+04  0.12700000000E+01 0. -1.
         25    2    1    2    0    0  0.00000000000E+00  0.00000000000E+00 -0.18594249163E+04  0.18636240306E+04  0.12503402816E+03 0.  0.
    9000005    1    3    3    0    0 -0.39555163163E+02 -0.12131906298E+02 -0.16281137039E+04  0.16286396246E+04  0.10000000000E+01 0.  0.
    9000005    1    3    3    0    0  0.39555163163E+02  0.12131906298E+02 -0.23131121235E+03  0.23498440595E+03  0.10000000000E+01 0.  0.
<mgrwt>
<rscale>  0 0.12503403E+03</rscale>
<asrwt>0</asrwt>
<pdfrwt beam="2">  1        4 0.28638706E+00 0.12503403E+03</pdfrwt>
<pdfrwt beam="1">  1       -4 0.32301028E-03 0.12503403E+03</pdfrwt>
<totfact> 0.11739450E+03</totfact>
</mgrwt>
</event>
<event>
 5    1  0.3209683E-002  0.1249947E+03  0.7818608E-02  0.1235078E+00
          4   -1    0    0  501    0  0.00000000000E+00  0.00000000000E+00  0.16017628069E+03  0.16018131538E+03  0.12700000000E+01 0.  1.
         -4   -1    0    0    0  501 -0.00000000000E+00 -0.00000000000E+00 -0.24363155868E+02  0.24396234625E+02  0.12700000000E+01 0.  1.
         25    2    1    2    0    0  0.00000000000E+00  0.00000000000E+00  0.13581312483E+03  0.18457755001E+03  0.12499466825E+03 0.  0.
    9000005    1    3    3    0    0 -0.18544789788E+02 -0.24371355760E+02  0.14834236942E+03  0.15147386169E+03  0.10000000000E+01 0.  0.
    9000005    1    3    3    0    0  0.18544789788E+02  0.24371355760E+02 -0.12529244596E+02  0.33103688314E+02  0.10000000000E+01 0.  0.
<mgrwt>
<rscale>  0 0.12499467E+03</rscale>
<asrwt>0</asrwt>
<pdfrwt beam="1">  1        4 0.24645437E-01 0.12499467E+03</pdfrwt>
<pdfrwt beam="2">  1       -4 0.37511096E-02 0.12499467E+03</pdfrwt>
<totfact> 0.92810548E+03</totfact>
</mgrwt>
</event>
<event>
 5    1  0.3209683E-002  0.1250021E+03  0.7818608E-02  0.1235066E+00
         -4   -1    0    0    0  501 -0.00000000000E+00  0.00000000000E+00  0.18674199051E+02  0.18717334485E+02  0.12700000000E+01 0. -1.
          4   -1    0    0  501    0  0.00000000000E+00 -0.00000000000E+00 -0.20889970752E+03  0.20890356795E+03  0.12700000000E+01 0. -1.
         25    2    1    2    0    0  0.00000000000E+00  0.00000000000E+00 -0.19022550847E+03  0.22762090244E+03  0.12500212459E+03 0.  0.
    9000005    1    3    3    0    0  0.52780645848E+02 -0.19720102902E+02 -0.14433545233E+03  0.15494644828E+03  0.10000000000E+01 0.  0.
    9000005    1    3    3    0    0 -0.52780645848E+02  0.19720102902E+02 -0.45890056140E+02  0.72674454158E+02  0.10000000000E+01 0.  0.
<mgrwt>
<rscale>  0 0.12500212E+03</rscale>
<asrwt>0</asrwt>
<pdfrwt beam="2">  1        4 0.32142030E-01 0.12500212E+03</pdfrwt>
<pdfrwt beam="1">  1       -4 0.28765689E-02 0.12500212E+03</pdfrwt>
<totfact> 0.85672192E+03</totfact>
</mgrwt>
</event>
<event>
 5    1  0.3209683E-002  0.1249970E+03  0.7818608E-02  0.1235074E+00
          4   -1    0    0  501    0  0.00000000000E+00  0.00000000000E+00  0.30733247151E+03  0.30733509553E+03  0.12700000000E+01 0. -1.
         -4   -1    0    0    0  501 -0.00000000000E+00 -0.00000000000E+00 -0.12675156265E+02  0.12738621839E+02  0.12700000000E+01 0. -1.
         25    2    1    2    0    0  0.00000000000E+00  0.00000000000E+00  0.29465731524E+03  0.32007371737E+03  0.12499700446E+03 0.  0.
    9000005    1    3    3    0    0 -0.19843547777E+02 -0.58713048832E+02  0.12683156295E+03  0.14116739656E+03  0.10000000000E+01 0.  0.
    9000005    1    3    3    0    0  0.19843547777E+02  0.58713048832E+02  0.16782575229E+03  0.17890632080E+03  0.10000000000E+01 0.  0.
<mgrwt>
<rscale>  0 0.12499700E+03</rscale>
<asrwt>0</asrwt>
<pdfrwt beam="1">  1        4 0.47287007E-01 0.12499700E+03</pdfrwt>
<pdfrwt beam="2">  1       -4 0.19551077E-02 0.12499700E+03</pdfrwt>
<totfact> 0.73152211E+03</totfact>
</mgrwt>
</event>
<event>
 5    1  0.3209683E-002  0.1249894E+03  0.7818608E-02  0.1235086E+00
          4   -1    0    0  501    0  0.00000000000E+00  0.00000000000E+00  0.10740184986E+03  0.10740935832E+03  0.12700000000E+01 0.  1.
         -4   -1    0    0    0  501 -0.00000000000E+00 -0.00000000000E+00 -0.36344361606E+02  0.36366543973E+02  0.12700000000E+01 0.  1.
         25    2    1    2    0    0  0.00000000000E+00  0.00000000000E+00  0.71057488258E+02  0.14377590229E+03  0.12498937332E+03 0.  0.
    9000005    1    3    3    0    0 -0.22751749796E+02  0.70800705336E+00 -0.31411125485E+02  0.38804667206E+02  0.10000000000E+01 0.  0.
    9000005    1    3    3    0    0  0.22751749796E+02 -0.70800705336E+00  0.10246861374E+03  0.10497123508E+03  0.10000000000E+01 0.  0.
<mgrwt>
<rscale>  0 0.12498937E+03</rscale>
<asrwt>0</asrwt>
<pdfrwt beam="1">  1        4 0.16525645E-01 0.12498937E+03</pdfrwt>
<pdfrwt beam="2">  1       -4 0.55937242E-02 0.12498937E+03</pdfrwt>
<totfact> 0.10058326E+04</totfact>
</mgrwt>
</event>
<event>
 5    1  0.3209683E-002  0.1250064E+03  0.7818608E-02  0.1235059E+00
          4   -1    0    0  501    0  0.00000000000E+00  0.00000000000E+00  0.53724858738E+03  0.53725008845E+03  0.12700000000E+01 0.  1.
         -4   -1    0    0    0  501 -0.00000000000E+00 -0.00000000000E+00 -0.72146148764E+01  0.73255421516E+01  0.12700000000E+01 0.  1.
         25    2    1    2    0    0  0.00000000000E+00  0.00000000000E+00  0.53003397250E+03  0.54457563060E+03  0.12500642159E+03 0.  0.
    9000005    1    3    3    0    0  0.44883733565E+02 -0.19691972123E+02  0.96107997874E+02  0.10788915868E+03  0.10000000000E+01 0.  0.
    9000005    1    3    3    0    0 -0.44883733565E+02  0.19691972123E+02  0.43392597463E+03  0.43668647192E+03  0.10000000000E+01 0.  0.
<mgrwt>
<rscale>  0 0.12500642E+03</rscale>
<asrwt>0</asrwt>
<pdfrwt beam="1">  1        4 0.82662284E-01 0.12500642E+03</pdfrwt>
<pdfrwt beam="2">  1       -4 0.11185890E-02 0.12500642E+03</pdfrwt>
<totfact> 0.52557036E+03</totfact>
</mgrwt>
</event>
<event>
 5    1  0.3209683E-002  0.1249912E+03  0.7818608E-02  0.1235083E+00
          4   -1    0    0  501    0  0.00000000000E+00  0.00000000000E+00  0.45249022397E+01  0.46997489591E+01  0.12700000000E+01 0. -1.
         -4   -1    0    0    0  501 -0.00000000000E+00 -0.00000000000E+00 -0.84662074262E+03  0.84662169517E+03  0.12700000000E+01 0. -1.
         25    2    1    2    0    0  0.00000000000E+00  0.00000000000E+00 -0.84209584038E+03  0.85132144413E+03  0.12499118709E+03 0.  0.
    9000005    1    3    3    0    0 -0.33877811486E+02 -0.41490506712E+02 -0.64022529610E+03  0.64246291568E+03  0.10000000000E+01 0.  0.
    9000005    1    3    3    0    0  0.33877811486E+02  0.41490506712E+02 -0.20187054428E+03  0.20885852845E+03  0.10000000000E+01 0.  0.
<mgrwt>
<rscale>  0 0.12499119E+03</rscale>
<asrwt>0</asrwt>
<pdfrwt beam="1">  1        4 0.70966250E-03 0.12499119E+03</pdfrwt>
<pdfrwt beam="2">  1       -4 0.13026274E+00 0.12499119E+03</pdfrwt>
<totfact> 0.36080283E+03</totfact>
</mgrwt>
</event>
<event>
 5    1  0.3209683E-002  0.1250032E+03  0.7818608E-02  0.1235064E+00
          4   -1    0    0  501    0  0.00000000000E+00  0.00000000000E+00  0.64163610241E+02  0.64176177661E+02  0.12700000000E+01 0. -1.
         -4   -1    0    0    0  501 -0.00000000000E+00 -0.00000000000E+00 -0.60857501741E+02  0.60870751746E+02  0.12700000000E+01 0. -1.
         25    2    1    2    0    0  0.00000000000E+00  0.00000000000E+00  0.33061085008E+01  0.12504692941E+03  0.12500321676E+03 0.  0.
    9000005    1    3    3    0    0 -0.16475134539E+02  0.19170541400E+02 -0.55520333622E+02  0.61011860824E+02  0.10000000000E+01 0.  0.
    9000005    1    3    3    0    0  0.16475134539E+02 -0.19170541400E+02  0.58826442123E+02  0.64035068584E+02  0.10000000000E+01 0.  0.
<mgrwt>
<rscale>  0 0.12500322E+03</rscale>
<asrwt>0</asrwt>
<pdfrwt beam="1">  1        4 0.98733106E-02 0.12500322E+03</pdfrwt>
<pdfrwt beam="2">  1       -4 0.93646785E-02 0.12500322E+03</pdfrwt>
<totfact> 0.10451084E+04</totfact>
</mgrwt>
</event>
<event>
 5    1  0.3209683E-002  0.1249987E+03  0.7818608E-02  0.1235071E+00
          4   -1    0    0  501    0  0.00000000000E+00  0.00000000000E+00  0.24378269170E+02  0.24411327447E+02  0.12700000000E+01 0.  1.
         -4   -1    0    0    0  501 -0.00000000000E+00 -0.00000000000E+00 -0.16008747437E+03  0.16009251185E+03  0.12700000000E+01 0.  1.
         25    2    1    2    0    0  0.00000000000E+00  0.00000000000E+00 -0.13570920520E+03  0.18450383930E+03  0.12499871335E+03 0.  0.
    9000005    1    3    3    0    0  0.41658123227E+02 -0.20268913164E+01 -0.13654487042E+03  0.14277608048E+03  0.10000000000E+01 0.  0.
    9000005    1    3    3    0    0 -0.41658123227E+02  0.20268913164E+01  0.83566522297E+00  0.41727758813E+02  0.10000000000E+01 0.  0.
<mgrwt>
<rscale>  0 0.12499871E+03</rscale>
<asrwt>0</asrwt>
<pdfrwt beam="1">  1        4 0.37534335E-02 0.12499871E+03</pdfrwt>
<pdfrwt beam="2">  1       -4 0.24631772E-01 0.12499871E+03</pdfrwt>
<totfact> 0.92815199E+03</totfact>
</mgrwt>
</event>
<event>
 5    1  0.3209683E-002  0.1249964E+03  0.7818608E-02  0.1235075E+00
          4   -1    0    0  501    0  0.00000000000E+00  0.00000000000E+00  0.44843172418E+03  0.44843352255E+03  0.12700000000E+01 0.  1.
         -4   -1    0    0    0  501 -0.00000000000E+00 -0.00000000000E+00 -0.86622882672E+01  0.87548922337E+01  0.12700000000E+01 0.  1.
         25    2    1    2    0    0  0.00000000000E+00  0.00000000000E+00  0.43976943591E+03  0.45718841478E+03  0.12499635936E+03 0.  0.
    9000005    1    3    3    0    0  0.12278350712E+02 -0.47177697877E+02  0.76885141985E+02  0.91042946631E+02  0.10000000000E+01 0.  0.
    9000005    1    3    3    0    0 -0.12278350712E+02  0.47177697877E+02  0.36288429392E+03  0.36614546815E+03  0.10000000000E+01 0.  0.
<mgrwt>
<rscale>  0 0.12499636E+03</rscale>
<asrwt>0</asrwt>
<pdfrwt beam="1">  1        4 0.68996768E-01 0.12499636E+03</pdfrwt>
<pdfrwt beam="2">  1       -4 0.13399212E-02 0.12499636E+03</pdfrwt>
<totfact> 0.59350833E+03</totfact>
</mgrwt>
</event>
<event>
 5    1  0.3209683E-002  0.1250012E+03  0.7818608E-02  0.1235067E+00
         -4   -1    0    0    0  501 -0.00000000000E+00  0.00000000000E+00  0.69023017447E+02  0.69034700242E+02  0.12700000000E+01 0. -1.
          4   -1    0    0  501    0  0.00000000000E+00 -0.00000000000E+00 -0.56570965144E+02  0.56585218894E+02  0.12700000000E+01 0. -1.
         25    2    1    2    0    0  0.00000000000E+00  0.00000000000E+00  0.12452052303E+02  0.12561991914E+03  0.12500124190E+03 0.  0.
    9000005    1    3    3    0    0 -0.62342479286E+02  0.78293348844E+00  0.19470288116E+01  0.62385804712E+02  0.10000000000E+01 0.  0.
    9000005    1    3    3    0    0  0.62342479286E+02 -0.78293348844E+00  0.10505023491E+02  0.63234114424E+02  0.10000000000E+01 0.  0.
<mgrwt>
<rscale>  0 0.12500124E+03</rscale>
<asrwt>0</asrwt>
<pdfrwt beam="2">  1        4 0.87052206E-02 0.12500124E+03</pdfrwt>
<pdfrwt beam="1">  1       -4 0.10620921E-01 0.12500124E+03</pdfrwt>
<totfact> 0.10439015E+04</totfact>
</mgrwt>
</event>
<event>
 5    1  0.3209683E-002  0.1249987E+03  0.7818608E-02  0.1235071E+00
         -4   -1    0    0    0  501 -0.00000000000E+00  0.00000000000E+00  0.10928349098E+03  0.10929087016E+03  0.12700000000E+01 0. -1.
          4   -1    0    0  501    0  0.00000000000E+00 -0.00000000000E+00 -0.35723559804E+02  0.35746127414E+02  0.12700000000E+01 0. -1.
         25    2    1    2    0    0  0.00000000000E+00  0.00000000000E+00  0.73559931173E+02  0.14503699757E+03  0.12499866876E+03 0.  0.
    9000005    1    3    3    0    0 -0.12095775714E+02  0.61100555375E+02  0.42648550109E+02  0.75494930185E+02  0.10000000000E+01 0.  0.
    9000005    1    3    3    0    0  0.12095775714E+02 -0.61100555375E+02  0.30911381064E+02  0.69542067388E+02  0.10000000000E+01 0.  0.
<mgrwt>
<rscale>  0 0.12499867E+03</rscale>
<asrwt>0</asrwt>
<pdfrwt beam="2">  1        4 0.54982359E-02 0.12499867E+03</pdfrwt>
<pdfrwt beam="1">  1       -4 0.16815148E-01 0.12499867E+03</pdfrwt>
<totfact> 0.10030537E+04</totfact>
</mgrwt>
</event>
<event>
 5    1  0.3209683E-002  0.1249927E+03  0.7818608E-02  0.1235081E+00
         -4   -1    0    0    0  501 -0.00000000000E+00  0.00000000000E+00  0.14680490896E+02  0.14735321949E+02  0.12700000000E+01 0. -1.
          4   -1    0    0  501    0  0.00000000000E+00 -0.00000000000E+00 -0.26550098308E+03  0.26550402053E+03  0.12700000000E+01 0. -1.
         25    2    1    2    0    0  0.00000000000E+00  0.00000000000E+00 -0.25082049219E+03  0.28023934248E+03  0.12499267887E+03 0.  0.
    9000005    1    3    3    0    0  0.36363051425E+01  0.16151196899E+02 -0.26050554117E+03  0.26103298806E+03  0.10000000000E+01 0.  0.
    9000005    1    3    3    0    0 -0.36363051425E+01 -0.16151196899E+02  0.96850489799E+01  0.19206354420E+02  0.10000000000E+01 0.  0.
<mgrwt>
<rscale>  0 0.12499268E+03</rscale>
<asrwt>0</asrwt>
<pdfrwt beam="2">  1        4 0.40850753E-01 0.12499268E+03</pdfrwt>
<pdfrwt beam="1">  1       -4 0.22629887E-02 0.12499268E+03</pdfrwt>
<totfact> 0.78159101E+03</totfact>
</mgrwt>
</event>
<event>
 5    1  0.3209683E-002  0.1249990E+03  0.7818608E-02  0.1235071E+00
         -4   -1    0    0    0  501 -0.00000000000E+00  0.00000000000E+00  0.25626086457E+02  0.25657537043E+02  0.12700000000E+01 0.  1.
          4   -1    0    0  501    0  0.00000000000E+00 -0.00000000000E+00 -0.15230259036E+03  0.15230788532E+03  0.12700000000E+01 0.  1.
         25    2    1    2    0    0  0.00000000000E+00  0.00000000000E+00 -0.12667650390E+03  0.17796542236E+03  0.12499901966E+03 0.  0.
    9000005    1    3    3    0    0  0.23498506661E+02  0.29902040334E+01  0.18993346324E+02  0.30378748164E+02  0.10000000000E+01 0.  0.
    9000005    1    3    3    0    0 -0.23498506661E+02 -0.29902040334E+01 -0.14566985022E+03  0.14758667419E+03  0.10000000000E+01 0.  0.
<mgrwt>
<rscale>  0 0.12499902E+03</rscale>
<asrwt>0</asrwt>
<pdfrwt beam="2">  1        4 0.23433994E-01 0.12499902E+03</pdfrwt>
<pdfrwt beam="1">  1       -4 0.39453015E-02 0.12499902E+03</pdfrwt>
<totfact> 0.93986588E+03</totfact>
</mgrwt>
</event>
<event>
 5    1  0.3209683E-002  0.1250039E+03  0.7818608E-02  0.1235063E+00
          4   -1    0    0  501    0  0.00000000000E+00  0.00000000000E+00  0.33379711442E+02  0.33403862590E+02  0.12700000000E+01 0. -1.
         -4   -1    0    0    0  501 -0.00000000000E+00 -0.00000000000E+00 -0.11696212928E+03  0.11696902405E+03  0.12700000000E+01 0. -1.
         25    2    1    2    0    0  0.00000000000E+00  0.00000000000E+00 -0.83582417841E+02  0.15037288664E+03  0.12500393779E+03 0.  0.
    9000005    1    3    3    0    0  0.51146113230E+02  0.21744274048E+02 -0.74122692174E+01  0.56077447226E+02  0.10000000000E+01 0.  0.
    9000005    1    3    3    0    0 -0.51146113230E+02 -0.21744274048E+02 -0.76170148624E+02  0.94295439411E+02  0.10000000000E+01 0.  0.
<mgrwt>
<rscale>  0 0.12500394E+03</rscale>
<asrwt>0</asrwt>
<pdfrwt beam="1">  1        4 0.51377284E-02 0.12500394E+03</pdfrwt>
<pdfrwt beam="2">  1       -4 0.17996562E-01 0.12500394E+03</pdfrwt>
<totfact> 0.99220628E+03</totfact>
</mgrwt>
</event>
<event>
 5    1  0.3209683E-002  0.1250059E+03  0.7818608E-02  0.1235060E+00
          4   -1    0    0  501    0  0.00000000000E+00  0.00000000000E+00  0.34191221902E+01  0.36473684420E+01  0.12700000000E+01 0.  1.
         -4   -1    0    0    0  501 -0.00000000000E+00 -0.00000000000E+00 -0.11054454768E+04  0.11054462064E+04  0.12700000000E+01 0.  1.
         25    2    1    2    0    0  0.00000000000E+00  0.00000000000E+00 -0.11020263547E+04  0.11090935748E+04  0.12500588520E+03 0.  0.
    9000005    1    3    3    0    0 -0.54893536702E+02  0.27338634870E+02 -0.44420693008E+03  0.44842111687E+03  0.10000000000E+01 0.  0.
    9000005    1    3    3    0    0  0.54893536702E+02 -0.27338634870E+02 -0.65781942457E+03  0.66067245794E+03  0.10000000000E+01 0.  0.
<mgrwt>
<rscale>  0 0.12500589E+03</rscale>
<asrwt>0</asrwt>
<pdfrwt beam="1">  1        4 0.54363320E-03 0.12500589E+03</pdfrwt>
<pdfrwt beam="2">  1       -4 0.17008587E+00 0.12500589E+03</pdfrwt>
<totfact> 0.27215323E+03</totfact>
</mgrwt>
</event>
<event>
 5    1  0.3209683E-002  0.1250031E+03  0.7818608E-02  0.1235064E+00
         -4   -1    0    0    0  501 -0.00000000000E+00  0.00000000000E+00  0.20056830757E+03  0.20057232835E+03  0.12700000000E+01 0.  1.
          4   -1    0    0  501    0  0.00000000000E+00 -0.00000000000E+00 -0.19451956401E+02  0.19493370869E+02  0.12700000000E+01 0.  1.
         25    2    1    2    0    0  0.00000000000E+00  0.00000000000E+00  0.18111635117E+03  0.22006569922E+03  0.12500311722E+03 0.  0.
    9000005    1    3    3    0    0  0.18923578329E+02 -0.40659344718E+02  0.13938567969E+02  0.46974118477E+02  0.10000000000E+01 0.  0.
    9000005    1    3    3    0    0 -0.18923578329E+02  0.40659344718E+02  0.16717778320E+03  0.17309158074E+03  0.10000000000E+01 0.  0.
<mgrwt>
<rscale>  0 0.12500312E+03</rscale>
<asrwt>0</asrwt>
<pdfrwt beam="2">  1        4 0.29961038E-02 0.12500312E+03</pdfrwt>
<pdfrwt beam="1">  1       -4 0.30860157E-01 0.12500312E+03</pdfrwt>
<totfact> 0.86851907E+03</totfact>
</mgrwt>
</event>
<event>
 5    1  0.3209683E-002  0.1249998E+03  0.7818608E-02  0.1235070E+00
          4   -1    0    0  501    0  0.00000000000E+00  0.00000000000E+00  0.23216597749E+03  0.23216945105E+03  0.12700000000E+01 0. -1.
         -4   -1    0    0    0  501 -0.00000000000E+00 -0.00000000000E+00 -0.16797616243E+02  0.16845557617E+02  0.12700000000E+01 0. -1.
         25    2    1    2    0    0  0.00000000000E+00  0.00000000000E+00  0.21536836124E+03  0.24901500867E+03  0.12499977407E+03 0.  0.
    9000005    1    3    3    0    0 -0.43095736694E+02  0.71651046264E+00  0.19782596001E+03  0.20246942081E+03  0.10000000000E+01 0.  0.
    9000005    1    3    3    0    0  0.43095736694E+02 -0.71651046264E+00  0.17542401234E+02  0.46545587862E+02  0.10000000000E+01 0.  0.
<mgrwt>
<rscale>  0 0.12499977E+03</rscale>
<asrwt>0</asrwt>
<pdfrwt beam="1">  1        4 0.35721797E-01 0.12499977E+03</pdfrwt>
<pdfrwt beam="2">  1       -4 0.25882037E-02 0.12499977E+03</pdfrwt>
<totfact> 0.82473213E+03</totfact>
</mgrwt>
</event>
<event>
 5    1  0.3209683E-002  0.1250051E+03  0.7818608E-02  0.1235061E+00
          4   -1    0    0  501    0  0.00000000000E+00  0.00000000000E+00  0.74527973791E+01  0.75602307355E+01  0.12700000000E+01 0. -1.
         -4   -1    0    0    0  501 -0.00000000000E+00 -0.00000000000E+00 -0.52031530700E+03  0.52031685692E+03  0.12700000000E+01 0. -1.
         25    2    1    2    0    0  0.00000000000E+00  0.00000000000E+00 -0.51286250962E+03  0.52787708766E+03  0.12500506350E+03 0.  0.
    9000005    1    3    3    0    0  0.47020014141E+02 -0.40606447916E+02 -0.22785249902E+03  0.23617266279E+03  0.10000000000E+01 0.  0.
    9000005    1    3    3    0    0 -0.47020014141E+02  0.40606447916E+02 -0.28501001061E+03  0.29170442487E+03  0.10000000000E+01 0.  0.
<mgrwt>
<rscale>  0 0.12500506E+03</rscale>
<asrwt>0</asrwt>
<pdfrwt beam="1">  1        4 0.11549679E-02 0.12500506E+03</pdfrwt>
<pdfrwt beam="2">  1       -4 0.80056864E-01 0.12500506E+03</pdfrwt>
<totfact> 0.53758544E+03</totfact>
</mgrwt>
</event>
<event>
 5    1  0.3209683E-002  0.1249996E+03  0.7818608E-02  0.1235070E+00
         -4   -1    0    0    0  501 -0.00000000000E+00  0.00000000000E+00  0.24172206801E+03  0.24172540426E+03  0.12700000000E+01 0.  1.
          4   -1    0    0  501    0  0.00000000000E+00 -0.00000000000E+00 -0.16131592587E+02  0.16181507327E+02  0.12700000000E+01 0.  1.
         25    2    1    2    0    0  0.00000000000E+00  0.00000000000E+00  0.22559047543E+03  0.25790691159E+03  0.12499964977E+03 0.  0.
    9000005    1    3    3    0    0  0.48532838984E+02 -0.19863239986E+02  0.42667323363E+02  0.67612759488E+02  0.10000000000E+01 0.  0.
    9000005    1    3    3    0    0 -0.48532838984E+02  0.19863239986E+02  0.18292315206E+03  0.19029415210E+03  0.10000000000E+01 0.  0.
<mgrwt>
<rscale>  0 0.12499965E+03</rscale>
<asrwt>0</asrwt>
<pdfrwt beam="2">  1        4 0.24858798E-02 0.12499965E+03</pdfrwt>
<pdfrwt beam="1">  1       -4 0.37192106E-01 0.12499965E+03</pdfrwt>
<totfact> 0.81201329E+03</totfact>
</mgrwt>
</event>
<event>
 5    1  0.3209683E-002  0.1250053E+03  0.7818608E-02  0.1235061E+00
         -4   -1    0    0    0  501 -0.00000000000E+00  0.00000000000E+00  0.11552486706E+03  0.11553184760E+03  0.12700000000E+01 0.  1.
          4   -1    0    0  501    0  0.00000000000E+00 -0.00000000000E+00 -0.33796025648E+02  0.33819879503E+02  0.12700000000E+01 0.  1.
         25    2    1    2    0    0  0.00000000000E+00  0.00000000000E+00  0.81728841414E+02  0.14935172710E+03  0.12500533936E+03 0.  0.
    9000005    1    3    3    0    0  0.40142597340E+02 -0.44363169963E+02  0.62438566496E+02  0.86481752736E+02  0.10000000000E+01 0.  0.
    9000005    1    3    3    0    0 -0.40142597340E+02  0.44363169963E+02  0.19290274918E+02  0.62869974366E+02  0.10000000000E+01 0.  0.
<mgrwt>
<rscale>  0 0.12500534E+03</rscale>
<asrwt>0</asrwt>
<pdfrwt beam="2">  1        4 0.52017605E-02 0.12500534E+03</pdfrwt>
<pdfrwt beam="1">  1       -4 0.17775428E-01 0.12500534E+03</pdfrwt>
<totfact> 0.99421130E+03</totfact>
</mgrwt>
</event>
<event>
 5    1  0.3209683E-002  0.1249977E+03  0.7818608E-02  0.1235073E+00
          4   -1    0    0  501    0  0.00000000000E+00  0.00000000000E+00  0.33772152195E+03  0.33772390986E+03  0.12700000000E+01 0. -1.
         -4   -1    0    0    0  501 -0.00000000000E+00 -0.00000000000E+00 -0.11528763775E+02  0.11598503963E+02  0.12700000000E+01 0. -1.
         25    2    1    2    0    0  0.00000000000E+00  0.00000000000E+00  0.32619275817E+03  0.34932241382E+03  0.12499773322E+03 0.  0.
    9000005    1    3    3    0    0 -0.28643067276E+02  0.17027806290E+01  0.31823694895E+03  0.31952946725E+03  0.10000000000E+01 0.  0.
    9000005    1    3    3    0    0  0.28643067276E+02 -0.17027806290E+01  0.79558092256E+01  0.29792946569E+02  0.10000000000E+01 0.  0.
<mgrwt>
<rscale>  0 0.12499773E+03</rscale>
<asrwt>0</asrwt>
<pdfrwt beam="1">  1        4 0.51962707E-01 0.12499773E+03</pdfrwt>
<pdfrwt beam="2">  1       -4 0.17792042E-02 0.12499773E+03</pdfrwt>
<totfact> 0.69802662E+03</totfact>
</mgrwt>
</event>
<event>
 5    1  0.3209683E-002  0.1249858E+03  0.7818608E-02  0.1235092E+00
         -4   -1    0    0    0  501 -0.00000000000E+00  0.00000000000E+00  0.35097186852E+02  0.35120156961E+02  0.12700000000E+01 0.  1.
          4   -1    0    0  501    0  0.00000000000E+00 -0.00000000000E+00 -0.11120975510E+03  0.11121700648E+03  0.12700000000E+01 0.  1.
         25    2    1    2    0    0  0.00000000000E+00  0.00000000000E+00 -0.76112568249E+02  0.14633716344E+03  0.12498576862E+03 0.  0.
    9000005    1    3    3    0    0  0.95665185641E+00 -0.23311320640E+02 -0.10592435402E+03  0.10846797512E+03  0.10000000000E+01 0.  0.
    9000005    1    3    3    0    0 -0.95665185641E+00  0.23311320640E+02  0.29811785771E+02  0.37869188315E+02  0.10000000000E+01 0.  0.
<mgrwt>
<rscale>  0 0.12498577E+03</rscale>
<asrwt>0</asrwt>
<pdfrwt beam="2">  1        4 0.17111518E-01 0.12498577E+03</pdfrwt>
<pdfrwt beam="1">  1       -4 0.54018920E-02 0.12498577E+03</pdfrwt>
<totfact> 0.10007097E+04</totfact>
</mgrwt>
</event>
<event>
 5    1  0.3209683E-002  0.1250117E+03  0.7818608E-02  0.1235051E+00
          4   -1    0    0  501    0  0.00000000000E+00  0.00000000000E+00  0.73046063131E+03  0.73046173534E+03  0.12700000000E+01 0. -1.
         -4   -1    0    0    0  501 -0.00000000000E+00 -0.00000000000E+00 -0.52721401995E+01  0.54229477485E+01  0.12700000000E+01 0. -1.
         25    2    1    2    0    0  0.00000000000E+00  0.00000000000E+00  0.72518849111E+03  0.73588468308E+03  0.12501167611E+03 0.  0.
    9000005    1    3    3    0    0 -0.35892299885E+02 -0.37739987660E+02  0.15923913044E+03  0.16754302291E+03  0.10000000000E+01 0.  0.
    9000005    1    3    3    0    0  0.35892299885E+02  0.37739987660E+02  0.56594936066E+03  0.56834166018E+03  0.10000000000E+01 0.  0.
<mgrwt>
<rscale>  0 0.12501168E+03</rscale>
<asrwt>0</asrwt>
<pdfrwt beam="1">  1        4 0.11239029E+00 0.12501168E+03</pdfrwt>
<pdfrwt beam="2">  1       -4 0.82278363E-03 0.12501168E+03</pdfrwt>
<totfact> 0.41247995E+03</totfact>
</mgrwt>
</event>
<event>
 5    1  0.3209683E-002  0.1249964E+03  0.7818608E-02  0.1235075E+00
          4   -1    0    0  501    0  0.00000000000E+00  0.00000000000E+00  0.61494915874E+02  0.61508028568E+02  0.12700000000E+01 0. -1.
         -4   -1    0    0    0  501 -0.00000000000E+00 -0.00000000000E+00 -0.63491649891E+02  0.63504350291E+02  0.12700000000E+01 0. -1.
         25    2    1    2    0    0  0.00000000000E+00  0.00000000000E+00 -0.19967340172E+01  0.12501237886E+03  0.12499643163E+03 0.  0.
    9000005    1    3    3    0    0 -0.90067563641E+01 -0.45346363345E+02  0.41049982654E+02  0.61834580979E+02  0.10000000000E+01 0.  0.
    9000005    1    3    3    0    0  0.90067563641E+01  0.45346363345E+02 -0.43046716672E+02  0.63177797881E+02  0.10000000000E+01 0.  0.
<mgrwt>
<rscale>  0 0.12499643E+03</rscale>
<asrwt>0</asrwt>
<pdfrwt beam="1">  1        4 0.94627419E-02 0.12499643E+03</pdfrwt>
<pdfrwt beam="2">  1       -4 0.97699318E-02 0.12499643E+03</pdfrwt>
<totfact> 0.10453437E+04</totfact>
</mgrwt>
</event>
<event>
 5    1  0.3209683E-002  0.1250062E+03  0.7818608E-02  0.1235060E+00
          4   -1    0    0  501    0  0.00000000000E+00  0.00000000000E+00  0.70976198473E+03  0.70976312096E+03  0.12700000000E+01 0. -1.
         -4   -1    0    0    0  501 -0.00000000000E+00 -0.00000000000E+00 -0.54297403772E+01  0.55762873459E+01  0.12700000000E+01 0. -1.
         25    2    1    2    0    0  0.00000000000E+00  0.00000000000E+00  0.70433224435E+03  0.71533940830E+03  0.12500623438E+03 0.  0.
    9000005    1    3    3    0    0  0.41867241273E+02 -0.37157185285E+02  0.19315696579E+03  0.20110727422E+03  0.10000000000E+01 0.  0.
    9000005    1    3    3    0    0 -0.41867241273E+02  0.37157185285E+02  0.51117527856E+03  0.51423213408E+03  0.10000000000E+01 0.  0.
<mgrwt>
<rscale>  0 0.12500623E+03</rscale>
<asrwt>0</asrwt>
<pdfrwt beam="1">  1        4 0.10920547E+00 0.12500623E+03</pdfrwt>
<pdfrwt beam="2">  1       -4 0.84670523E-03 0.12500623E+03</pdfrwt>
<totfact> 0.42283469E+03</totfact>
</mgrwt>
</event>
<event>
 5    1  0.3209683E-002  0.1249941E+03  0.7818608E-02  0.1235078E+00
         -4   -1    0    0    0  501 -0.00000000000E+00  0.00000000000E+00  0.95108899468E+01  0.95953075813E+01  0.12700000000E+01 0.  1.
          4   -1    0    0  501    0  0.00000000000E+00 -0.00000000000E+00 -0.40877489408E+03  0.40877686692E+03  0.12700000000E+01 0.  1.
         25    2    1    2    0    0  0.00000000000E+00  0.00000000000E+00 -0.39926400413E+03  0.41837217450E+03  0.12499412547E+03 0.  0.
    9000005    1    3    3    0    0  0.42487183423E+02 -0.10470389018E+02 -0.34894921719E+03  0.35168358787E+03  0.10000000000E+01 0.  0.
    9000005    1    3    3    0    0 -0.42487183423E+02  0.10470389018E+02 -0.50314786939E+02  0.66688586626E+02  0.10000000000E+01 0.  0.
<mgrwt>
<rscale>  0 0.12499413E+03</rscale>
<asrwt>0</asrwt>
<pdfrwt beam="2">  1        4 0.62895077E-01 0.12499413E+03</pdfrwt>
<pdfrwt beam="1">  1       -4 0.14698596E-02 0.12499413E+03</pdfrwt>
<totfact> 0.62812459E+03</totfact>
</mgrwt>
</event>
<event>
 5    1  0.3209683E-002  0.1250120E+03  0.7818608E-02  0.1235051E+00
          4   -1    0    0  501    0  0.00000000000E+00  0.00000000000E+00  0.14096961981E+04  0.14096967702E+04  0.12700000000E+01 0. -1.
         -4   -1    0    0    0  501 -0.00000000000E+00 -0.00000000000E+00 -0.26254274396E+01  0.29164651962E+01  0.12700000000E+01 0. -1.
         25    2    1    2    0    0  0.00000000000E+00  0.00000000000E+00  0.14070707707E+04  0.14126132354E+04  0.12501199581E+03 0.  0.
    9000005    1    3    3    0    0  0.34073801868E+02  0.82353109080E+01  0.11886866071E+03  0.12393386470E+03  0.10000000000E+01 0.  0.
    9000005    1    3    3    0    0 -0.34073801868E+02 -0.82353109080E+01  0.12882021100E+04  0.12886793707E+04  0.10000000000E+01 0.  0.
<mgrwt>
<rscale>  0 0.12501200E+03</rscale>
<asrwt>0</asrwt>
<pdfrwt beam="1">  1        4 0.21689859E+00 0.12501200E+03</pdfrwt>
<pdfrwt beam="2">  1       -4 0.42634378E-03 0.12501200E+03</pdfrwt>
<totfact> 0.19706720E+03</totfact>
</mgrwt>
</event>
<event>
 5    1  0.3209683E-002  0.1249976E+03  0.7818608E-02  0.1235073E+00
         -4   -1    0    0    0  501 -0.00000000000E+00  0.00000000000E+00  0.36468300306E+02  0.36490407331E+02  0.12700000000E+01 0.  1.
          4   -1    0    0  501    0  0.00000000000E+00 -0.00000000000E+00 -0.10705113306E+03  0.10705866611E+03  0.12700000000E+01 0.  1.
         25    2    1    2    0    0  0.00000000000E+00  0.00000000000E+00 -0.70582832757E+02  0.14354907344E+03  0.12499760080E+03 0.  0.
    9000005    1    3    3    0    0  0.20451224305E+02  0.55954131927E+02 -0.13623702131E+02  0.61120558858E+02  0.10000000000E+01 0.  0.
    9000005    1    3    3    0    0 -0.20451224305E+02 -0.55954131927E+02 -0.56959130626E+02  0.82428514587E+02  0.10000000000E+01 0.  0.
<mgrwt>
<rscale>  0 0.12499760E+03</rscale>
<asrwt>0</asrwt>
<pdfrwt beam="2">  1        4 0.16471685E-01 0.12499760E+03</pdfrwt>
<pdfrwt beam="1">  1       -4 0.56127878E-02 0.12499760E+03</pdfrwt>
<totfact> 0.10061095E+04</totfact>
</mgrwt>
</event>
<event>
 5    1  0.3209683E-002  0.1249990E+03  0.7818608E-02  0.1235071E+00
          4   -1    0    0  501    0  0.00000000000E+00  0.00000000000E+00  0.76834736255E+01  0.77877254030E+01  0.12700000000E+01 0.  1.
         -4   -1    0    0    0  501 -0.00000000000E+00 -0.00000000000E+00 -0.50485760660E+03  0.50485920398E+03  0.12700000000E+01 0.  1.
         25    2    1    2    0    0  0.00000000000E+00  0.00000000000E+00 -0.49717413298E+03  0.51264692938E+03  0.12499902282E+03 0.  0.
    9000005    1    3    3    0    0 -0.37747822732E+02  0.45731887698E+02 -0.32946359092E+03  0.33475896017E+03  0.10000000000E+01 0.  0.
    9000005    1    3    3    0    0  0.37747822732E+02 -0.45731887698E+02 -0.16771054206E+03  0.17788796921E+03  0.10000000000E+01 0.  0.
<mgrwt>
<rscale>  0 0.12499902E+03</rscale>
<asrwt>0</asrwt>
<pdfrwt beam="1">  1        4 0.11902155E-02 0.12499902E+03</pdfrwt>
<pdfrwt beam="2">  1       -4 0.77678517E-01 0.12499902E+03</pdfrwt>
<totfact> 0.54897491E+03</totfact>
</mgrwt>
</event>
<event>
 5    1  0.3209683E-002  0.1249970E+03  0.7818608E-02  0.1235074E+00
          4   -1    0    0  501    0  0.00000000000E+00  0.00000000000E+00  0.15556650048E+04  0.15556655232E+04  0.12700000000E+01 0.  1.
         -4   -1    0    0    0  501 -0.00000000000E+00 -0.00000000000E+00 -0.23497211771E+01  0.26709716603E+01  0.12700000000E+01 0.  1.
         25    2    1    2    0    0  0.00000000000E+00  0.00000000000E+00  0.15533152836E+04  0.15583364949E+04  0.12499704342E+03 0.  0.
    9000005    1    3    3    0    0  0.61945227647E+02  0.33682907415E+01  0.87037473168E+03  0.87258336573E+03  0.10000000000E+01 0.  0.
    9000005    1    3    3    0    0 -0.61945227647E+02 -0.33682907415E+01  0.68294055195E+03  0.68575312913E+03  0.10000000000E+01 0.  0.
<mgrwt>
<rscale>  0 0.12499704E+03</rscale>
<asrwt>0</asrwt>
<pdfrwt beam="1">  1        4 0.23935775E+00 0.12499704E+03</pdfrwt>
<pdfrwt beam="2">  1       -4 0.38624714E-03 0.12499704E+03</pdfrwt>
<totfact> 0.16812872E+03</totfact>
</mgrwt>
</event>
<event>
 5    1  0.3209683E-002  0.1249967E+03  0.7818608E-02  0.1235074E+00
          4   -1    0    0  501    0  0.00000000000E+00  0.00000000000E+00  0.98883729007E+03  0.98883810562E+03  0.12700000000E+01 0.  1.
         -4   -1    0    0    0  501 -0.00000000000E+00 -0.00000000000E+00 -0.38472196596E+01  0.40514193944E+01  0.12700000000E+01 0.  1.
         25    2    1    2    0    0  0.00000000000E+00  0.00000000000E+00  0.98499007041E+03  0.99288952502E+03  0.12499668029E+03 0.  0.
    9000005    1    3    3    0    0 -0.22280418916E+02 -0.35093301856E+02  0.86312472351E+03  0.86412571148E+03  0.10000000000E+01 0.  0.
    9000005    1    3    3    0    0  0.22280418916E+02  0.35093301856E+02  0.12186534689E+03  0.12876381353E+03  0.10000000000E+01 0.  0.
<mgrwt>
<rscale>  0 0.12499668E+03</rscale>
<asrwt>0</asrwt>
<pdfrwt beam="1">  1        4 0.15214449E+00 0.12499668E+03</pdfrwt>
<pdfrwt beam="2">  1       -4 0.60765075E-03 0.12499668E+03</pdfrwt>
<totfact> 0.30842677E+03</totfact>
</mgrwt>
</event>
<event>
 5    1  0.3209683E-002  0.1249776E+03  0.7818608E-02  0.1235104E+00
         -4   -1    0    0    0  501 -0.00000000000E+00  0.00000000000E+00  0.83744281273E+02  0.83753910631E+02  0.12700000000E+01 0.  1.
          4   -1    0    0  501    0  0.00000000000E+00 -0.00000000000E+00 -0.46607281327E+02  0.46624581207E+02  0.12700000000E+01 0.  1.
         25    2    1    2    0    0  0.00000000000E+00  0.00000000000E+00  0.37136999946E+02  0.13037849184E+03  0.12497757546E+03 0.  0.
    9000005    1    3    3    0    0 -0.50028668422E+02 -0.14408453451E+02  0.54606672645E+02  0.75454356350E+02  0.10000000000E+01 0.  0.
    9000005    1    3    3    0    0  0.50028668422E+02  0.14408453451E+02 -0.17469672698E+02  0.54924135488E+02  0.10000000000E+01 0.  0.
<mgrwt>
<rscale>  0 0.12497758E+03</rscale>
<asrwt>0</asrwt>
<pdfrwt beam="2">  1        4 0.71724225E-02 0.12497758E+03</pdfrwt>
<pdfrwt beam="1">  1       -4 0.12885807E-01 0.12497758E+03</pdfrwt>
<totfact> 0.10341651E+04</totfact>
</mgrwt>
</event>
<event>
 5    1  0.3209683E-002  0.1250036E+03  0.7818608E-02  0.1235064E+00
          4   -1    0    0  501    0  0.00000000000E+00  0.00000000000E+00  0.74457878563E+01  0.75533209120E+01  0.12700000000E+01 0. -1.
         -4   -1    0    0    0  501 -0.00000000000E+00 -0.00000000000E+00 -0.52078617312E+03  0.52078772164E+03  0.12700000000E+01 0. -1.
         25    2    1    2    0    0  0.00000000000E+00  0.00000000000E+00 -0.51334038526E+03  0.52834104255E+03  0.12500362436E+03 0.  0.
    9000005    1    3    3    0    0  0.28613785236E+02  0.27145214054E+02 -0.51783752763E+02  0.65101216592E+02  0.10000000000E+01 0.  0.
    9000005    1    3    3    0    0 -0.28613785236E+02 -0.27145214054E+02 -0.46155663250E+03  0.46323982596E+03  0.10000000000E+01 0.  0.
<mgrwt>
<rscale>  0 0.12500362E+03</rscale>
<asrwt>0</asrwt>
<pdfrwt beam="1">  1        4 0.11538971E-02 0.12500362E+03</pdfrwt>
<pdfrwt beam="2">  1       -4 0.80129312E-01 0.12500362E+03</pdfrwt>
<totfact> 0.53726336E+03</totfact>
</mgrwt>
</event>
<event>
 5    1  0.3209683E-002  0.1250015E+03  0.7818608E-02  0.1235067E+00
         -4   -1    0    0    0  501 -0.00000000000E+00  0.00000000000E+00  0.20578295158E+02  0.20617447262E+02  0.12700000000E+01 0. -1.
          4   -1    0    0  501    0  0.00000000000E+00 -0.00000000000E+00 -0.18960651821E+03  0.18961077145E+03  0.12700000000E+01 0. -1.
         25    2    1    2    0    0  0.00000000000E+00  0.00000000000E+00 -0.16902822305E+03  0.21022821871E+03  0.12500145500E+03 0.  0.
    9000005    1    3    3    0    0  0.12389656821E+01 -0.58752687791E+02 -0.48761286366E+02  0.76368032623E+02  0.10000000000E+01 0.  0.
    9000005    1    3    3    0    0 -0.12389656821E+01  0.58752687791E+02 -0.12026693669E+03  0.13386018609E+03  0.10000000000E+01 0.  0.
<mgrwt>
<rscale>  0 0.12500146E+03</rscale>
<asrwt>0</asrwt>
<pdfrwt beam="2">  1        4 0.29173571E-01 0.12500146E+03</pdfrwt>
<pdfrwt beam="1">  1       -4 0.31692306E-02 0.12500146E+03</pdfrwt>
<totfact> 0.88435747E+03</totfact>
</mgrwt>
</event>
<event>
 5    1  0.3209683E-002  0.1250008E+03  0.7818608E-02  0.1235068E+00
          4   -1    0    0  501    0  0.00000000000E+00  0.00000000000E+00  0.17142201987E+02  0.17189182324E+02  0.12700000000E+01 0. -1.
         -4   -1    0    0    0  501 -0.00000000000E+00 -0.00000000000E+00 -0.22751553217E+03  0.22751907674E+03  0.12700000000E+01 0. -1.
         25    2    1    2    0    0  0.00000000000E+00  0.00000000000E+00 -0.21037333019E+03  0.24470825906E+03  0.12500077600E+03 0.  0.
    9000005    1    3    3    0    0  0.21514116161E+02  0.53217939611E+02 -0.56824600675E+02  0.80777729186E+02  0.10000000000E+01 0.  0.
    9000005    1    3    3    0    0 -0.21514116161E+02 -0.53217939611E+02 -0.15354872951E+03  0.16393052987E+03  0.10000000000E+01 0.  0.
<mgrwt>
<rscale>  0 0.12500078E+03</rscale>
<asrwt>0</asrwt>
<pdfrwt beam="1">  1        4 0.26411485E-02 0.12500078E+03</pdfrwt>
<pdfrwt beam="2">  1       -4 0.35006274E-01 0.12500078E+03</pdfrwt>
<totfact> 0.83099679E+03</totfact>
</mgrwt>
</event>
<event>
 5    1  0.3209683E-002  0.1250004E+03  0.7818608E-02  0.1235069E+00
          4   -1    0    0  501    0  0.00000000000E+00  0.00000000000E+00  0.19216054188E+03  0.19216473859E+03  0.12700000000E+01 0. -1.
         -4   -1    0    0    0  501 -0.00000000000E+00 -0.00000000000E+00 -0.20303940042E+02  0.20343620160E+02  0.12700000000E+01 0. -1.
         25    2    1    2    0    0  0.00000000000E+00  0.00000000000E+00  0.17185660184E+03  0.21250835875E+03  0.12500044376E+03 0.  0.
    9000005    1    3    3    0    0  0.49191909076E+02  0.34535525959E+02  0.56841295219E+02  0.82731368379E+02  0.10000000000E+01 0.  0.
    9000005    1    3    3    0    0 -0.49191909076E+02 -0.34535525959E+02  0.11501530662E+03  0.12977699037E+03  0.10000000000E+01 0.  0.
<mgrwt>
<rscale>  0 0.12500044E+03</rscale>
<asrwt>0</asrwt>
<pdfrwt beam="1">  1        4 0.29566536E-01 0.12500044E+03</pdfrwt>
<pdfrwt beam="2">  1       -4 0.31270582E-02 0.12500044E+03</pdfrwt>
<totfact> 0.88066990E+03</totfact>
</mgrwt>
</event>
<event>
 5    1  0.3209683E-002  0.1250006E+03  0.7818608E-02  0.1235068E+00
         -4   -1    0    0    0  501 -0.00000000000E+00  0.00000000000E+00  0.27179283467E+03  0.27179580181E+03  0.12700000000E+01 0. -1.
          4   -1    0    0  501    0  0.00000000000E+00 -0.00000000000E+00 -0.14341184143E+02  0.14397307478E+02  0.12700000000E+01 0. -1.
         25    2    1    2    0    0  0.00000000000E+00  0.00000000000E+00  0.25745165053E+03  0.28619310929E+03  0.12500057376E+03 0.  0.
    9000005    1    3    3    0    0 -0.59188528060E+02 -0.28891286586E+01  0.17415199546E+03  0.18396071983E+03  0.10000000000E+01 0.  0.
    9000005    1    3    3    0    0  0.59188528060E+02  0.28891286586E+01  0.83299655073E+02  0.10223238945E+03  0.10000000000E+01 0.  0.
<mgrwt>
<rscale>  0 0.12500057E+03</rscale>
<asrwt>0</asrwt>
<pdfrwt beam="2">  1        4 0.22108817E-02 0.12500057E+03</pdfrwt>
<pdfrwt beam="1">  1       -4 0.41818824E-01 0.12500057E+03</pdfrwt>
<totfact> 0.77363061E+03</totfact>
</mgrwt>
</event>
<event>
 5    1  0.3209683E-002  0.1250022E+03  0.7818608E-02  0.1235066E+00
          4   -1    0    0  501    0  0.00000000000E+00  0.00000000000E+00  0.16520003092E+02  0.16568747754E+02  0.12700000000E+01 0.  1.
         -4   -1    0    0    0  501 -0.00000000000E+00 -0.00000000000E+00 -0.23606522037E+03  0.23606863656E+03  0.12700000000E+01 0.  1.
         25    2    1    2    0    0  0.00000000000E+00  0.00000000000E+00 -0.21954521727E+03  0.25263738431E+03  0.12500218208E+03 0.  0.
    9000005    1    3    3    0    0  0.34656749280E+02  0.47921842076E+02 -0.15058574702E+03  0.16178584742E+03  0.10000000000E+01 0.  0.
    9000005    1    3    3    0    0 -0.34656749280E+02 -0.47921842076E+02 -0.68959470254E+02  0.90851536896E+02  0.10000000000E+01 0.  0.
<mgrwt>
<rscale>  0 0.12500218E+03</rscale>
<asrwt>0</asrwt>
<pdfrwt beam="1">  1        4 0.25455515E-02 0.12500218E+03</pdfrwt>
<pdfrwt beam="2">  1       -4 0.36321736E-01 0.12500218E+03</pdfrwt>
<totfact> 0.81946550E+03</totfact>
</mgrwt>
</event>
<event>
 5    1  0.3209683E-002  0.1249990E+03  0.7818608E-02  0.1235071E+00
          4   -1    0    0  501    0  0.00000000000E+00  0.00000000000E+00  0.53986735831E+03  0.53986885210E+03  0.12700000000E+01 0. -1.
         -4   -1    0    0    0  501 -0.00000000000E+00 -0.00000000000E+00 -0.71782151393E+01  0.72896963302E+01  0.12700000000E+01 0. -1.
         25    2    1    2    0    0  0.00000000000E+00  0.00000000000E+00  0.53268914317E+03  0.54715854843E+03  0.12499901547E+03 0.  0.
    9000005    1    3    3    0    0  0.17737817492E+02  0.49373897094E+02  0.41496522603E+03  0.41826971047E+03  0.10000000000E+01 0.  0.
    9000005    1    3    3    0    0 -0.17737817492E+02 -0.49373897094E+02  0.11772391714E+03  0.12888883796E+03  0.10000000000E+01 0.  0.
<mgrwt>
<rscale>  0 0.12499902E+03</rscale>
<asrwt>0</asrwt>
<pdfrwt beam="1">  1        4 0.83065249E-01 0.12499902E+03</pdfrwt>
<pdfrwt beam="2">  1       -4 0.11130306E-02 0.12499902E+03</pdfrwt>
<totfact> 0.52383668E+03</totfact>
</mgrwt>
</event>
<event>
 5    1  0.3209683E-002  0.1250002E+03  0.7818608E-02  0.1235069E+00
          4   -1    0    0  501    0  0.00000000000E+00  0.00000000000E+00  0.10389270136E+03  0.10390046340E+03  0.12700000000E+01 0.  1.
         -4   -1    0    0    0  501 -0.00000000000E+00 -0.00000000000E+00 -0.37579128942E+02  0.37600582868E+02  0.12700000000E+01 0.  1.
         25    2    1    2    0    0  0.00000000000E+00  0.00000000000E+00  0.66313572415E+02  0.14150104627E+03  0.12500022484E+03 0.  0.
    9000005    1    3    3    0    0  0.15573315731E+02 -0.26523702245E+02 -0.28422996494E+02  0.41891546562E+02  0.10000000000E+01 0.  0.
    9000005    1    3    3    0    0 -0.15573315731E+02  0.26523702245E+02  0.94736568909E+02  0.99609499709E+02  0.10000000000E+01 0.  0.
<mgrwt>
<rscale>  0 0.12500022E+03</rscale>
<asrwt>0</asrwt>
<pdfrwt beam="1">  1        4 0.15985740E-01 0.12500022E+03</pdfrwt>
<pdfrwt beam="2">  1       -4 0.57836519E-02 0.12500022E+03</pdfrwt>
<totfact> 0.10102519E+04</totfact>
</mgrwt>
</event>
<event>
 5    1  0.3209683E-002  0.1249791E+03  0.7818608E-02  0.1235102E+00
          4   -1    0    0  501    0  0.00000000000E+00  0.00000000000E+00  0.36527237334E+02  0.36549308711E+02  0.12700000000E+01 0. -1.
         -4   -1    0    0    0  501 -0.00000000000E+00 -0.00000000000E+00 -0.10684679700E+03  0.10685434445E+03  0.12700000000E+01 0. -1.
         25    2    1    2    0    0  0.00000000000E+00  0.00000000000E+00 -0.70319559664E+02  0.14340365317E+03  0.12497906733E+03 0.  0.
    9000005    1    3    3    0    0  0.56140361762E+02  0.26753045372E+02 -0.28229871286E+02  0.68303669655E+02  0.10000000000E+01 0.  0.
    9000005    1    3    3    0    0 -0.56140361762E+02 -0.26753045372E+02 -0.42089688378E+02  0.75099983510E+02  0.10000000000E+01 0.  0.
<mgrwt>
<rscale>  0 0.12497907E+03</rscale>
<asrwt>0</asrwt>
<pdfrwt beam="1">  1        4 0.56218534E-02 0.12497907E+03</pdfrwt>
<pdfrwt beam="2">  1       -4 0.16440247E-01 0.12497907E+03</pdfrwt>
<totfact> 0.10068270E+04</totfact>
</mgrwt>
</event>
<event>
 5    1  0.3209683E-002  0.1249901E+03  0.7818608E-02  0.1235085E+00
         -4   -1    0    0    0  501 -0.00000000000E+00  0.00000000000E+00  0.37437018910E+02  0.37458554228E+02  0.12700000000E+01 0. -1.
          4   -1    0    0  501    0  0.00000000000E+00 -0.00000000000E+00 -0.10427005745E+03  0.10427779141E+03  0.12700000000E+01 0. -1.
         25    2    1    2    0    0  0.00000000000E+00  0.00000000000E+00 -0.66833038542E+02  0.14173634564E+03  0.12499014615E+03 0.  0.
    9000005    1    3    3    0    0  0.55787771797E+02  0.23452035331E+02 -0.15762785696E+02  0.62543895435E+02  0.10000000000E+01 0.  0.
    9000005    1    3    3    0    0 -0.55787771797E+02 -0.23452035331E+02 -0.51070252846E+02  0.79192450202E+02  0.10000000000E+01 0.  0.
<mgrwt>
<rscale>  0 0.12499015E+03</rscale>
<asrwt>0</asrwt>
<pdfrwt beam="2">  1        4 0.16043799E-01 0.12499015E+03</pdfrwt>
<pdfrwt beam="1">  1       -4 0.57617929E-02 0.12499015E+03</pdfrwt>
<totfact> 0.10099967E+04</totfact>
</mgrwt>
</event>
<event>
 5    1  0.3209683E-002  0.1250055E+03  0.7818608E-02  0.1235061E+00
          4   -1    0    0  501    0  0.00000000000E+00  0.00000000000E+00  0.10624615916E+03  0.10625374928E+03  0.12700000000E+01 0.  1.
         -4   -1    0    0    0  501 -0.00000000000E+00 -0.00000000000E+00 -0.36749384365E+02  0.36771322402E+02  0.12700000000E+01 0.  1.
         25    2    1    2    0    0  0.00000000000E+00  0.00000000000E+00  0.69496774794E+02  0.14302507168E+03  0.12500547757E+03 0.  0.
    9000005    1    3    3    0    0  0.28635437581E+02  0.25807852345E+02 -0.21531241275E+02  0.44165913089E+02  0.10000000000E+01 0.  0.
    9000005    1    3    3    0    0 -0.28635437581E+02 -0.25807852345E+02  0.91028016069E+02  0.98859158593E+02  0.10000000000E+01 0.  0.
<mgrwt>
<rscale>  0 0.12500548E+03</rscale>
<asrwt>0</asrwt>
<pdfrwt beam="1">  1        4 0.16347834E-01 0.12500548E+03</pdfrwt>
<pdfrwt beam="2">  1       -4 0.56560230E-02 0.12500548E+03</pdfrwt>
<totfact> 0.10070028E+04</totfact>
</mgrwt>
</event>
<event>
 5    1  0.3209683E-002  0.1249994E+03  0.7818608E-02  0.1235070E+00
          4   -1    0    0  501    0  0.00000000000E+00  0.00000000000E+00  0.96831745061E+02  0.96840073067E+02  0.12700000000E+01 0.  1.
         -4   -1    0    0    0  501 -0.00000000000E+00 -0.00000000000E+00 -0.40320141068E+02  0.40340137279E+02  0.12700000000E+01 0.  1.
         25    2    1    2    0    0  0.00000000000E+00  0.00000000000E+00  0.56511603993E+02  0.13718021035E+03  0.12499939490E+03 0.  0.
    9000005    1    3    3    0    0  0.23524778631E+02 -0.13283385891E+02  0.90097194638E+02  0.94065764399E+02  0.10000000000E+01 0.  0.
    9000005    1    3    3    0    0 -0.23524778631E+02  0.13283385891E+02 -0.33585590644E+02  0.43114445947E+02  0.10000000000E+01 0.  0.
<mgrwt>
<rscale>  0 0.12499939E+03</rscale>
<asrwt>0</asrwt>
<pdfrwt beam="1">  1        4 0.14899370E-01 0.12499939E+03</pdfrwt>
<pdfrwt beam="2">  1       -4 0.62052774E-02 0.12499939E+03</pdfrwt>
<totfact> 0.10192458E+04</totfact>
</mgrwt>
</event>
<event>
 5    1  0.3209683E-002  0.1250047E+03  0.7818608E-02  0.1235062E+00
          4   -1    0    0  501    0  0.00000000000E+00  0.00000000000E+00  0.62196723997E+02  0.62209688763E+02  0.12700000000E+01 0. -1.
         -4   -1    0    0    0  501 -0.00000000000E+00 -0.00000000000E+00 -0.62783495221E+02  0.62796338843E+02  0.12700000000E+01 0. -1.
         25    2    1    2    0    0  0.00000000000E+00  0.00000000000E+00 -0.58677122352E+00  0.12500602761E+03  0.12500465046E+03 0.  0.
    9000005    1    3    3    0    0  0.38178307122E+01 -0.15787908286E+02  0.60053834870E+02  0.62219747363E+02  0.10000000000E+01 0.  0.
    9000005    1    3    3    0    0 -0.38178307122E+01  0.15787908286E+02 -0.60640606093E+02  0.62786280243E+02  0.10000000000E+01 0.  0.
<mgrwt>
<rscale>  0 0.12500465E+03</rscale>
<asrwt>0</asrwt>
<pdfrwt beam="1">  1        4 0.95707119E-02 0.12500465E+03</pdfrwt>
<pdfrwt beam="2">  1       -4 0.96609846E-02 0.12500465E+03</pdfrwt>
<totfact> 0.10451633E+04</totfact>
</mgrwt>
</event>
<event>
 5    1  0.3209683E-002  0.1250022E+03  0.7818608E-02  0.1235066E+00
          4   -1    0    0  501    0  0.00000000000E+00  0.00000000000E+00  0.39809937763E+02  0.39830190116E+02  0.12700000000E+01 0.  1.
         -4   -1    0    0    0  501 -0.00000000000E+00 -0.00000000000E+00 -0.98076569690E+02  0.98084792002E+02  0.12700000000E+01 0.  1.
         25    2    1    2    0    0  0.00000000000E+00  0.00000000000E+00 -0.58266631927E+02  0.13791498212E+03  0.12500216757E+03 0.  0.
    9000005    1    3    3    0    0  0.57053195008E+02 -0.24387833921E+02 -0.20910063254E+02  0.65483312754E+02  0.10000000000E+01 0.  0.
    9000005    1    3    3    0    0 -0.57053195008E+02  0.24387833921E+02 -0.37356568673E+02  0.72431669365E+02  0.10000000000E+01 0.  0.
<mgrwt>
<rscale>  0 0.12500217E+03</rscale>
<asrwt>0</asrwt>
<pdfrwt beam="1">  1        4 0.61267962E-02 0.12500217E+03</pdfrwt>
<pdfrwt beam="2">  1       -4 0.15090893E-01 0.12500217E+03</pdfrwt>
<totfact> 0.10176486E+04</totfact>
</mgrwt>
</event>
<event>
 5    1  0.3209683E-002  0.1250082E+03  0.7818608E-02  0.1235057E+00
         -4   -1    0    0    0  501 -0.00000000000E+00  0.00000000000E+00  0.16436155606E+02  0.16485148198E+02  0.12700000000E+01 0.  1.
          4   -1    0    0  501    0  0.00000000000E+00 -0.00000000000E+00 -0.23728862457E+03  0.23729202315E+03  0.12700000000E+01 0.  1.
         25    2    1    2    0    0  0.00000000000E+00  0.00000000000E+00 -0.22085246896E+03  0.25377717135E+03  0.12500815833E+03 0.  0.
    9000005    1    3    3    0    0 -0.56192116590E+02 -0.25271499711E+02 -0.89177417677E+02  0.10839656124E+03  0.10000000000E+01 0.  0.
    9000005    1    3    3    0    0  0.56192116590E+02  0.25271499711E+02 -0.13167505129E+03  0.14538061011E+03  0.10000000000E+01 0.  0.
<mgrwt>
<rscale>  0 0.12500816E+03</rscale>
<asrwt>0</asrwt>
<pdfrwt beam="2">  1        4 0.36509970E-01 0.12500816E+03</pdfrwt>
<pdfrwt beam="1">  1       -4 0.25326696E-02 0.12500816E+03</pdfrwt>
<totfact> 0.81772499E+03</totfact>
</mgrwt>
</event>
<event>
 4    1  0.3209683E-002  0.1235320E+03  0.7818608E-02  0.1237382E+00
         -4   -1    0    0    0  501 -0.00000000000E+00  0.00000000000E+00  0.43220777953E+03  0.43220964541E+03  0.12700000000E+01 0.  1.
          4   -1    0    0  501    0  0.00000000000E+00 -0.00000000000E+00 -0.87792815232E+01  0.88706642403E+01  0.12700000000E+01 0.  1.
    9000005    1    1    2    0    0  0.56108116167E+02  0.24985714436E+02  0.23475208587E+03  0.24265602908E+03  0.10000000000E+01 0.  0.
    9000005    1    1    2    0    0 -0.56108116167E+02 -0.24985714436E+02  0.18867641213E+03  0.19842428057E+03  0.10000000000E+01 0.  0.
<mgrwt>
<rscale>  0 0.12353197E+03</rscale>
<asrwt>0</asrwt>
<pdfrwt beam="2">  1        4 0.13578318E-02 0.12353197E+03</pdfrwt>
<pdfrwt beam="1">  1       -4 0.66500672E-01 0.12353197E+03</pdfrwt>
<totfact> 0.62752081E+03</totfact>
</mgrwt>
</event>
<event>
 5    1  0.3209683E-002  0.1249957E+03  0.7818608E-02  0.1235076E+00
         -4   -1    0    0    0  501 -0.00000000000E+00  0.00000000000E+00  0.31854422457E+01  0.34292772272E+01  0.12700000000E+01 0. -1.
          4   -1    0    0  501    0  0.00000000000E+00 -0.00000000000E+00 -0.11807519886E+04  0.11807526716E+04  0.12700000000E+01 0. -1.
         25    2    1    2    0    0  0.00000000000E+00  0.00000000000E+00 -0.11775665464E+04  0.11841819488E+04  0.12499566724E+03 0.  0.
    9000005    1    3    3    0    0  0.19683400581E+02  0.54159208216E+02 -0.81779093384E+03  0.81981928958E+03  0.10000000000E+01 0.  0.
    9000005    1    3    3    0    0 -0.19683400581E+02 -0.54159208216E+02 -0.35977561254E+03  0.36436265927E+03  0.10000000000E+01 0.  0.
<mgrwt>
<rscale>  0 0.12499567E+03</rscale>
<asrwt>0</asrwt>
<pdfrwt beam="2">  1        4 0.18167263E+00 0.12499567E+03</pdfrwt>
<pdfrwt beam="1">  1       -4 0.50887805E-03 0.12499567E+03</pdfrwt>
<totfact> 0.25133013E+03</totfact>
</mgrwt>
</event>
<event>
 5    1  0.3209683E-002  0.1249991E+03  0.7818608E-02  0.1235071E+00
          4   -1    0    0  501    0  0.00000000000E+00  0.00000000000E+00  0.11755133238E+04  0.11755140098E+04  0.12700000000E+01 0. -1.
         -4   -1    0    0    0  501 -0.00000000000E+00 -0.00000000000E+00 -0.32009105575E+01  0.34436504465E+01  0.12700000000E+01 0. -1.
         25    2    1    2    0    0  0.00000000000E+00  0.00000000000E+00  0.11723124132E+04  0.11789576603E+04  0.12499908202E+03 0.  0.
    9000005    1    3    3    0    0  0.57071172755E+02 -0.77557660124E+01  0.35746407299E+03  0.36207572985E+03  0.10000000000E+01 0.  0.
    9000005    1    3    3    0    0 -0.57071172755E+02  0.77557660124E+01  0.81484834022E+03  0.81688193041E+03  0.10000000000E+01 0.  0.
<mgrwt>
<rscale>  0 0.12499908E+03</rscale>
<asrwt>0</asrwt>
<pdfrwt beam="1">  1        4 0.18086707E+00 0.12499908E+03</pdfrwt>
<pdfrwt beam="2">  1       -4 0.51117245E-03 0.12499908E+03</pdfrwt>
<totfact> 0.25270752E+03</totfact>
</mgrwt>
</event>
<event>
 5    1  0.3209683E-002  0.1250009E+03  0.7818608E-02  0.1235068E+00
         -4   -1    0    0    0  501 -0.00000000000E+00  0.00000000000E+00  0.59980761029E+02  0.59994204667E+02  0.12700000000E+01 0.  1.
          4   -1    0    0  501    0  0.00000000000E+00 -0.00000000000E+00 -0.65099004398E+02  0.65111391273E+02  0.12700000000E+01 0.  1.
         25    2    1    2    0    0  0.00000000000E+00  0.00000000000E+00 -0.51182433681E+01  0.12510559594E+03  0.12500085488E+03 0.  0.
    9000005    1    3    3    0    0 -0.20651527722E+02  0.10856294769E+02  0.55463231803E+02  0.60179023051E+02  0.10000000000E+01 0.  0.
    9000005    1    3    3    0    0  0.20651527722E+02 -0.10856294769E+02 -0.60581475171E+02  0.64926572890E+02  0.10000000000E+01 0.  0.
<mgrwt>
<rscale>  0 0.12500085E+03</rscale>
<asrwt>0</asrwt>
<pdfrwt beam="2">  1        4 0.10017218E-01 0.12500085E+03</pdfrwt>
<pdfrwt beam="1">  1       -4 0.92297964E-02 0.12500085E+03</pdfrwt>
<totfact> 0.10450368E+04</totfact>
</mgrwt>
</event>
<event>
 5    1  0.3209683E-002  0.1250018E+03  0.7818608E-02  0.1235067E+00
         -4   -1    0    0    0  501 -0.00000000000E+00  0.00000000000E+00  0.36473491722E+02  0.36495595602E+02  0.12700000000E+01 0.  1.
          4   -1    0    0  501    0  0.00000000000E+00 -0.00000000000E+00 -0.10704305028E+03  0.10705058390E+03  0.12700000000E+01 0.  1.
         25    2    1    2    0    0  0.00000000000E+00  0.00000000000E+00 -0.70569558563E+02  0.14354617951E+03  0.12500177221E+03 0.  0.
    9000005    1    3    3    0    0  0.46787132300E+02 -0.20347683501E+02  0.61562423293E+01  0.51400032027E+02  0.10000000000E+01 0.  0.
    9000005    1    3    3    0    0 -0.46787132300E+02  0.20347683501E+02 -0.76725800893E+02  0.92146147480E+02  0.10000000000E+01 0.  0.
<mgrwt>
<rscale>  0 0.12500177E+03</rscale>
<asrwt>0</asrwt>
<pdfrwt beam="2">  1        4 0.16470441E-01 0.12500177E+03</pdfrwt>
<pdfrwt beam="1">  1       -4 0.56135863E-02 0.12500177E+03</pdfrwt>
<totfact> 0.10060209E+04</totfact>
</mgrwt>
</event>
<event>
 5    1  0.3209683E-002  0.1250050E+03  0.7818608E-02  0.1235061E+00
          4   -1    0    0  501    0  0.00000000000E+00  0.00000000000E+00  0.49091032920E+03  0.49091197196E+03  0.12700000000E+01 0.  1.
         -4   -1    0    0    0  501 -0.00000000000E+00 -0.00000000000E+00 -0.79054550228E+01  0.80068170404E+01  0.12700000000E+01 0.  1.
         25    2    1    2    0    0  0.00000000000E+00  0.00000000000E+00  0.48300487418E+03  0.49891878900E+03  0.12500499806E+03 0.  0.
    9000005    1    3    3    0    0  0.55708225779E+02  0.12793247825E+02  0.14065169103E+03  0.15182546492E+03  0.10000000000E+01 0.  0.
    9000005    1    3    3    0    0 -0.55708225779E+02 -0.12793247825E+02  0.34235318315E+03  0.34709332408E+03  0.10000000000E+01 0.  0.
<mgrwt>
<rscale>  0 0.12500500E+03</rscale>
<asrwt>0</asrwt>
<pdfrwt beam="1">  1        4 0.75532604E-01 0.12500500E+03</pdfrwt>
<pdfrwt beam="2">  1       -4 0.12241471E-02 0.12500500E+03</pdfrwt>
<totfact> 0.55942196E+03</totfact>
</mgrwt>
</event>
<event>
 5    1  0.3209683E-002  0.1249994E+03  0.7818608E-02  0.1235070E+00
         -4   -1    0    0    0  501 -0.00000000000E+00  0.00000000000E+00  0.24516522248E+02  0.24549394354E+02  0.12700000000E+01 0.  1.
          4   -1    0    0  501    0  0.00000000000E+00 -0.00000000000E+00 -0.15918762768E+03  0.15919269363E+03  0.12700000000E+01 0.  1.
         25    2    1    2    0    0  0.00000000000E+00  0.00000000000E+00 -0.13467110543E+03  0.18374208798E+03  0.12499939304E+03 0.  0.
    9000005    1    3    3    0    0  0.61497980048E+02 -0.14176750793E+01 -0.51152765298E+02  0.80010104051E+02  0.10000000000E+01 0.  0.
    9000005    1    3    3    0    0 -0.61497980048E+02  0.14176750793E+01 -0.83518340131E+02  0.10373198393E+03  0.10000000000E+01 0.  0.
<mgrwt>
<rscale>  0 0.12499939E+03</rscale>
<asrwt>0</asrwt>
<pdfrwt beam="2">  1        4 0.24493322E-01 0.12499939E+03</pdfrwt>
<pdfrwt beam="1">  1       -4 0.37746911E-02 0.12499939E+03</pdfrwt>
<totfact> 0.92948984E+03</totfact>
</mgrwt>
</event>
<event>
 5    1  0.3209683E-002  0.1250018E+03  0.7818608E-02  0.1235067E+00
          4   -1    0    0  501    0  0.00000000000E+00  0.00000000000E+00  0.26929035305E+02  0.26958965901E+02  0.12700000000E+01 0. -1.
         -4   -1    0    0    0  501 -0.00000000000E+00 -0.00000000000E+00 -0.14494800728E+03  0.14495357089E+03  0.12700000000E+01 0. -1.
         25    2    1    2    0    0  0.00000000000E+00  0.00000000000E+00 -0.11801897198E+03  0.17191253679E+03  0.12500177023E+03 0.  0.
    9000005    1    3    3    0    0 -0.42754060994E+02 -0.32312458724E+02 -0.14799909813E+02  0.55606133212E+02  0.10000000000E+01 0.  0.
    9000005    1    3    3    0    0  0.42754060994E+02  0.32312458724E+02 -0.10321906216E+03  0.11630640358E+03  0.10000000000E+01 0.  0.
<mgrwt>
<rscale>  0 0.12500177E+03</rscale>
<asrwt>0</asrwt>
<pdfrwt beam="1">  1        4 0.41456589E-02 0.12500177E+03</pdfrwt>
<pdfrwt beam="2">  1       -4 0.22302423E-01 0.12500177E+03</pdfrwt>
<totfact> 0.95089586E+03</totfact>
</mgrwt>
</event>
<event>
 5    1  0.3209683E-002  0.1249996E+03  0.7818608E-02  0.1235070E+00
         -4   -1    0    0    0  501 -0.00000000000E+00  0.00000000000E+00  0.18265132199E+02  0.18309231394E+02  0.12700000000E+01 0. -1.
          4   -1    0    0  501    0  0.00000000000E+00 -0.00000000000E+00 -0.21355841872E+03  0.21356219494E+03  0.12700000000E+01 0. -1.
         25    2    1    2    0    0  0.00000000000E+00  0.00000000000E+00 -0.19529328652E+03  0.23187142633E+03  0.12499956235E+03 0.  0.
    9000005    1    3    3    0    0 -0.69105152720E+01 -0.49351854677E+02 -0.27699908705E+02  0.57023203379E+02  0.10000000000E+01 0.  0.
    9000005    1    3    3    0    0  0.69105152720E+01  0.49351854677E+02 -0.16759337782E+03  0.17484822295E+03  0.10000000000E+01 0.  0.
<mgrwt>
<rscale>  0 0.12499956E+03</rscale>
<asrwt>0</asrwt>
<pdfrwt beam="2">  1        4 0.32858822E-01 0.12499956E+03</pdfrwt>
<pdfrwt beam="1">  1       -4 0.28137032E-02 0.12499956E+03</pdfrwt>
<totfact> 0.85023895E+03</totfact>
</mgrwt>
</event>
<event>
 5    1  0.3209683E-002  0.1250057E+03  0.7818608E-02  0.1235060E+00
         -4   -1    0    0    0  501 -0.00000000000E+00  0.00000000000E+00  0.49044792326E+03  0.49044956757E+03  0.12700000000E+01 0. -1.
          4   -1    0    0  501    0  0.00000000000E+00 -0.00000000000E+00 -0.79130903362E+01  0.80143557863E+01  0.12700000000E+01 0. -1.
         25    2    1    2    0    0  0.00000000000E+00  0.00000000000E+00  0.48253483292E+03  0.49846392336E+03  0.12500567148E+03 0.  0.
    9000005    1    3    3    0    0  0.42679692210E+02  0.18366581642E+02  0.74613589490E+02  0.87903783678E+02  0.10000000000E+01 0.  0.
    9000005    1    3    3    0    0 -0.42679692210E+02 -0.18366581642E+02  0.40792124343E+03  0.41056013968E+03  0.10000000000E+01 0.  0.
<mgrwt>
<rscale>  0 0.12500567E+03</rscale>
<asrwt>0</asrwt>
<pdfrwt beam="2">  1        4 0.12253143E-02 0.12500567E+03</pdfrwt>
<pdfrwt beam="1">  1       -4 0.75461463E-01 0.12500567E+03</pdfrwt>
<totfact> 0.55976752E+03</totfact>
</mgrwt>
</event>
<event>
 5    1  0.3209683E-002  0.1250047E+03  0.7818608E-02  0.1235062E+00
          4   -1    0    0  501    0  0.00000000000E+00  0.00000000000E+00  0.36617727209E+02  0.36639744076E+02  0.12700000000E+01 0.  1.
         -4   -1    0    0    0  501 -0.00000000000E+00 -0.00000000000E+00 -0.10662657394E+03  0.10663413699E+03  0.12700000000E+01 0.  1.
         25    2    1    2    0    0  0.00000000000E+00  0.00000000000E+00 -0.70008846735E+02  0.14327388106E+03  0.12500466541E+03 0.  0.
    9000005    1    3    3    0    0  0.56122654349E+02  0.27239838772E+02 -0.30749689130E+02  0.69557922116E+02  0.10000000000E+01 0.  0.
    9000005    1    3    3    0    0 -0.56122654349E+02 -0.27239838772E+02 -0.39259157605E+02  0.73715958946E+02  0.10000000000E+01 0.  0.
<mgrwt>
<rscale>  0 0.12500467E+03</rscale>
<asrwt>0</asrwt>
<pdfrwt beam="1">  1        4 0.56357719E-02 0.12500467E+03</pdfrwt>
<pdfrwt beam="2">  1       -4 0.16406364E-01 0.12500467E+03</pdfrwt>
<totfact> 0.10065120E+04</totfact>
</mgrwt>
</event>
<event>
 5    1  0.3209683E-002  0.1250108E+03  0.7818608E-02  0.1235052E+00
         -4   -1    0    0    0  501 -0.00000000000E+00  0.00000000000E+00  0.77774896817E+03  0.77775000508E+03  0.12700000000E+01 0. -1.
          4   -1    0    0  501    0  0.00000000000E+00 -0.00000000000E+00 -0.49420518154E+01  0.51026244371E+01  0.12700000000E+01 0. -1.
         25    2    1    2    0    0  0.00000000000E+00  0.00000000000E+00  0.77280691636E+03  0.78285262951E+03  0.12501083779E+03 0.  0.
    9000005    1    3    3    0    0 -0.18723142341E+02  0.22905834012E+02  0.73115276428E+03  0.73175173249E+03  0.10000000000E+01 0.  0.
    9000005    1    3    3    0    0  0.18723142341E+02 -0.22905834012E+02  0.41654152075E+02  0.51100897018E+02  0.10000000000E+01 0.  0.
<mgrwt>
<rscale>  0 0.12501084E+03</rscale>
<asrwt>0</asrwt>
<pdfrwt beam="2">  1        4 0.77274657E-03 0.12501084E+03</pdfrwt>
<pdfrwt beam="1">  1       -4 0.11966621E+00 0.12501084E+03</pdfrwt>
<totfact> 0.39032515E+03</totfact>
</mgrwt>
</event>
<event>
 5    1  0.3209683E-002  0.1250000E+03  0.7818608E-02  0.1235069E+00
          4   -1    0    0  501    0  0.00000000000E+00  0.00000000000E+00  0.48723630715E+02  0.48740179422E+02  0.12700000000E+01 0. -1.
         -4   -1    0    0    0  501 -0.00000000000E+00 -0.00000000000E+00 -0.80136334038E+02  0.80146396881E+02  0.12700000000E+01 0. -1.
         25    2    1    2    0    0  0.00000000000E+00  0.00000000000E+00 -0.31412703322E+02  0.12888657630E+03  0.12499996648E+03 0.  0.
    9000005    1    3    3    0    0 -0.51941024405E+02  0.91589675002E+01 -0.50267059525E+02  0.72866549083E+02  0.10000000000E+01 0.  0.
    9000005    1    3    3    0    0  0.51941024405E+02 -0.91589675002E+01  0.18854356203E+02  0.56020027220E+02  0.10000000000E+01 0.  0.
<mgrwt>
<rscale>  0 0.12499997E+03</rscale>
<asrwt>0</asrwt>
<pdfrwt beam="1">  1        4 0.74979902E-02 0.12499997E+03</pdfrwt>
<pdfrwt beam="2">  1       -4 0.12330714E-01 0.12499997E+03</pdfrwt>
<totfact> 0.10368393E+04</totfact>
</mgrwt>
</event>
<event>
 5    1  0.3209683E-002  0.1250043E+03  0.7818608E-02  0.1235063E+00
          4   -1    0    0  501    0  0.00000000000E+00  0.00000000000E+00  0.18637792286E+02  0.18681011785E+02  0.12700000000E+01 0.  1.
         -4   -1    0    0    0  501 -0.00000000000E+00 -0.00000000000E+00 -0.20931397556E+03  0.20931782835E+03  0.12700000000E+01 0.  1.
         25    2    1    2    0    0  0.00000000000E+00  0.00000000000E+00 -0.19067618328E+03  0.22799884014E+03  0.12500425687E+03 0.  0.
    9000005    1    3    3    0    0 -0.54197498173E+02  0.31033372528E+02 -0.91228363219E+02  0.11056244061E+03  0.10000000000E+01 0.  0.
    9000005    1    3    3    0    0  0.54197498173E+02 -0.31033372528E+02 -0.99447820057E+02  0.11743639952E+03  0.10000000000E+01 0.  0.
<mgrwt>
<rscale>  0 0.12500426E+03</rscale>
<asrwt>0</asrwt>
<pdfrwt beam="1">  1        4 0.28709738E-02 0.12500426E+03</pdfrwt>
<pdfrwt beam="2">  1       -4 0.32205769E-01 0.12500426E+03</pdfrwt>
<totfact> 0.85609695E+03</totfact>
</mgrwt>
</event>
<event>
 5    1  0.3209683E-002  0.1250011E+03  0.7818608E-02  0.1235068E+00
          4   -1    0    0  501    0  0.00000000000E+00  0.00000000000E+00  0.76667769454E+03  0.76667874642E+03  0.12700000000E+01 0. -1.
         -4   -1    0    0    0  501 -0.00000000000E+00 -0.00000000000E+00 -0.50149111365E+01  0.51732227583E+01  0.12700000000E+01 0. -1.
         25    2    1    2    0    0  0.00000000000E+00  0.00000000000E+00  0.76166278341E+03  0.77185196918E+03  0.12500106678E+03 0.  0.
    9000005    1    3    3    0    0 -0.12157373872E+02  0.78513779101E+01  0.75621792404E+03  0.75635705491E+03  0.10000000000E+01 0.  0.
    9000005    1    3    3    0    0  0.12157373872E+02 -0.78513779101E+01  0.54448593648E+01  0.15494914264E+02  0.10000000000E+01 0.  0.
<mgrwt>
<rscale>  0 0.12500107E+03</rscale>
<asrwt>0</asrwt>
<pdfrwt beam="1">  1        4 0.11796263E+00 0.12500107E+03</pdfrwt>
<pdfrwt beam="2">  1       -4 0.78378381E-03 0.12500107E+03</pdfrwt>
<totfact> 0.39549201E+03</totfact>
</mgrwt>
</event>
<event>
 4    1  0.3209683E-002  0.1254906E+03  0.7818608E-02  0.1234304E+00
          4   -1    0    0  501    0  0.00000000000E+00  0.00000000000E+00  0.41217009154E+02  0.41236570463E+02  0.12700000000E+01 0. -1.
         -4   -1    0    0    0  501 -0.00000000000E+00 -0.00000000000E+00 -0.95471770655E+02  0.95480217281E+02  0.12700000000E+01 0. -1.
    9000005    1    1    2    0    0  0.26183248406E+01  0.59143538594E+02 -0.49749353141E+02  0.77335709218E+02  0.10000000000E+01 0.  0.
    9000005    1    1    2    0    0 -0.26183248406E+01 -0.59143538594E+02 -0.45054083603E+01  0.59381078526E+02  0.10000000000E+01 0.  0.
<mgrwt>
<rscale>  0 0.12549064E+03</rscale>
<asrwt>0</asrwt>
<pdfrwt beam="1">  1        4 0.63432328E-02 0.12549064E+03</pdfrwt>
<pdfrwt beam="2">  1       -4 0.14690119E-01 0.12549064E+03</pdfrwt>
<totfact> 0.10089961E+04</totfact>
</mgrwt>
</event>
<event>
 5    1  0.3209683E-002  0.1250073E+03  0.7818608E-02  0.1235058E+00
         -4   -1    0    0    0  501 -0.00000000000E+00  0.00000000000E+00  0.20853349281E+03  0.20853736002E+03  0.12700000000E+01 0. -1.
          4   -1    0    0  501    0  0.00000000000E+00 -0.00000000000E+00 -0.18708622540E+02  0.18751678788E+02  0.12700000000E+01 0. -1.
         25    2    1    2    0    0  0.00000000000E+00  0.00000000000E+00  0.18982487027E+03  0.22728903881E+03  0.12500730294E+03 0.  0.
    9000005    1    3    3    0    0  0.26534891246E+02 -0.42425387920E+00  0.19778861777E+03  0.19956356822E+03  0.10000000000E+01 0.  0.
    9000005    1    3    3    0    0 -0.26534891246E+02  0.42425387920E+00 -0.79637474962E+01  0.27725470582E+02  0.10000000000E+01 0.  0.
<mgrwt>
<rscale>  0 0.12500730E+03</rscale>
<asrwt>0</asrwt>
<pdfrwt beam="2">  1        4 0.28818592E-02 0.12500730E+03</pdfrwt>
<pdfrwt beam="1">  1       -4 0.32085685E-01 0.12500730E+03</pdfrwt>
<totfact> 0.85713643E+03</totfact>
</mgrwt>
</event>
<event>
 5    1  0.3209683E-002  0.1249958E+03  0.7818608E-02  0.1235076E+00
          4   -1    0    0  501    0  0.00000000000E+00  0.00000000000E+00  0.52649278061E+03  0.52649431235E+03  0.12700000000E+01 0. -1.
         -4   -1    0    0    0  501 -0.00000000000E+00 -0.00000000000E+00 -0.73629801951E+01  0.74717051168E+01  0.12700000000E+01 0. -1.
         25    2    1    2    0    0  0.00000000000E+00  0.00000000000E+00  0.51912980042E+03  0.53396601747E+03  0.12499583244E+03 0.  0.
    9000005    1    3    3    0    0  0.25374131855E+02  0.17343663201E+01  0.15726208814E+02  0.29919362252E+02  0.10000000000E+01 0.  0.
    9000005    1    3    3    0    0 -0.25374131855E+02 -0.17343663201E+01  0.50340359160E+03  0.50404665521E+03  0.10000000000E+01 0.  0.
<mgrwt>
<rscale>  0 0.12499583E+03</rscale>
<asrwt>0</asrwt>
<pdfrwt beam="1">  1        4 0.81007364E-01 0.12499583E+03</pdfrwt>
<pdfrwt beam="2">  1       -4 0.11412476E-02 0.12499583E+03</pdfrwt>
<totfact> 0.53326962E+03</totfact>
</mgrwt>
</event>
<event>
 5    1  0.3209683E-002  0.1250061E+03  0.7818608E-02  0.1235060E+00
          4   -1    0    0  501    0  0.00000000000E+00  0.00000000000E+00  0.16799621284E+03  0.16800101318E+03  0.12700000000E+01 0.  1.
         -4   -1    0    0    0  501 -0.00000000000E+00 -0.00000000000E+00 -0.23231817237E+02  0.23266504511E+02  0.12700000000E+01 0.  1.
         25    2    1    2    0    0  0.00000000000E+00  0.00000000000E+00  0.14476439561E+03  0.19126751769E+03  0.12500613220E+03 0.  0.
    9000005    1    3    3    0    0 -0.60232218537E+02  0.66841525011E+00  0.46904599791E+02  0.76350562607E+02  0.10000000000E+01 0.  0.
    9000005    1    3    3    0    0  0.60232218537E+02 -0.66841525011E+00  0.97859795815E+02  0.11491695508E+03  0.10000000000E+01 0.  0.
<mgrwt>
<rscale>  0 0.12500613E+03</rscale>
<asrwt>0</asrwt>
<pdfrwt beam="1">  1        4 0.25848610E-01 0.12500613E+03</pdfrwt>
<pdfrwt beam="2">  1       -4 0.35771630E-02 0.12500613E+03</pdfrwt>
<totfact> 0.91614652E+03</totfact>
</mgrwt>
</event>
<event>
 5    1  0.3209683E-002  0.1249999E+03  0.7818608E-02  0.1235070E+00
         -4   -1    0    0    0  501 -0.00000000000E+00  0.00000000000E+00  0.14900736868E+04  0.14900742280E+04  0.12700000000E+01 0.  1.
          4   -1    0    0  501    0  0.00000000000E+00 -0.00000000000E+00 -0.24671208470E+01  0.27748126556E+01  0.12700000000E+01 0.  1.
         25    2    1    2    0    0  0.00000000000E+00  0.00000000000E+00  0.14876065660E+04  0.14928490407E+04  0.12499985266E+03 0.  0.
    9000005    1    3    3    0    0 -0.17582067521E+02 -0.25225432310E+02  0.13935390685E+04  0.13938786127E+04  0.10000000000E+01 0.  0.
    9000005    1    3    3    0    0  0.17582067521E+02  0.25225432310E+02  0.94067497440E+02  0.98970427948E+02  0.10000000000E+01 0.  0.
<mgrwt>
<rscale>  0 0.12499985E+03</rscale>
<asrwt>0</asrwt>
<pdfrwt beam="2">  1        4 0.40326732E-03 0.12499985E+03</pdfrwt>
<pdfrwt beam="1">  1       -4 0.22926580E+00 0.12499985E+03</pdfrwt>
<totfact> 0.18071536E+03</totfact>
</mgrwt>
</event>
<event>
 5    1  0.3209683E-002  0.1250012E+03  0.7818608E-02  0.1235067E+00
         -4   -1    0    0    0  501 -0.00000000000E+00  0.00000000000E+00  0.17958767293E+03  0.17959216343E+03  0.12700000000E+01 0. -1.
          4   -1    0    0  501    0  0.00000000000E+00 -0.00000000000E+00 -0.21728320390E+02  0.21765403901E+02  0.12700000000E+01 0. -1.
         25    2    1    2    0    0  0.00000000000E+00  0.00000000000E+00  0.15785935254E+03  0.20135756734E+03  0.12500117895E+03 0.  0.
    9000005    1    3    3    0    0 -0.42589033232E+02 -0.27160185103E+02  0.19659710703E+02  0.54212596611E+02  0.10000000000E+01 0.  0.
    9000005    1    3    3    0    0  0.42589033232E+02  0.27160185103E+02  0.13819964183E+03  0.14714497072E+03  0.10000000000E+01 0.  0.
<mgrwt>
<rscale>  0 0.12500118E+03</rscale>
<asrwt>0</asrwt>
<pdfrwt beam="2">  1        4 0.33460166E-02 0.12500118E+03</pdfrwt>
<pdfrwt beam="1">  1       -4 0.27632070E-01 0.12500118E+03</pdfrwt>
<totfact> 0.89904674E+03</totfact>
</mgrwt>
</event>
<event>
 5    1  0.3209683E-002  0.1250004E+03  0.7818608E-02  0.1235069E+00
          4   -1    0    0  501    0  0.00000000000E+00  0.00000000000E+00  0.13491901721E+02  0.13551542792E+02  0.12700000000E+01 0.  1.
         -4   -1    0    0    0  501 -0.00000000000E+00 -0.00000000000E+00 -0.28882801774E+03  0.28883080987E+03  0.12700000000E+01 0.  1.
         25    2    1    2    0    0  0.00000000000E+00  0.00000000000E+00 -0.27533611601E+03  0.30238235266E+03  0.12500044167E+03 0.  0.
    9000005    1    3    3    0    0  0.28713128997E+02 -0.43633075438E+02 -0.22065906117E+03  0.22675914606E+03  0.10000000000E+01 0.  0.
    9000005    1    3    3    0    0 -0.28713128997E+02  0.43633075438E+02 -0.54677054850E+02  0.75623206597E+02  0.10000000000E+01 0.  0.
<mgrwt>
<rscale>  0 0.12500044E+03</rscale>
<asrwt>0</asrwt>
<pdfrwt beam="1">  1        4 0.20804800E-02 0.12500044E+03</pdfrwt>
<pdfrwt beam="2">  1       -4 0.44439877E-01 0.12500044E+03</pdfrwt>
<totfact> 0.75300233E+03</totfact>
</mgrwt>
</event>
<event>
 5    1  0.3209683E-002  0.1250090E+03  0.7818608E-02  0.1235055E+00
          4   -1    0    0  501    0  0.00000000000E+00  0.00000000000E+00  0.54874668765E+01  0.56325121146E+01  0.12700000000E+01 0. -1.
         -4   -1    0    0    0  501 -0.00000000000E+00 -0.00000000000E+00 -0.70251994029E+03  0.70252108823E+03  0.12700000000E+01 0. -1.
         25    2    1    2    0    0  0.00000000000E+00  0.00000000000E+00 -0.69703247341E+03  0.70815360034E+03  0.12500901042E+03 0.  0.
    9000005    1    3    3    0    0  0.62059729339E+02  0.73404005309E+01 -0.34442466074E+03  0.35004947995E+03  0.10000000000E+01 0.  0.
    9000005    1    3    3    0    0 -0.62059729339E+02 -0.73404005309E+01 -0.35260781267E+03  0.35810412039E+03  0.10000000000E+01 0.  0.
<mgrwt>
<rscale>  0 0.12500901E+03</rscale>
<asrwt>0</asrwt>
<pdfrwt beam="1">  1        4 0.85547186E-03 0.12500901E+03</pdfrwt>
<pdfrwt beam="2">  1       -4 0.10809117E+00 0.12500901E+03</pdfrwt>
<totfact> 0.42651376E+03</totfact>
</mgrwt>
</event>
<event>
 5    1  0.3209683E-002  0.1250307E+03  0.7818608E-02  0.1235021E+00
          4   -1    0    0  501    0  0.00000000000E+00  0.00000000000E+00  0.21740848878E+02  0.21777911056E+02  0.12700000000E+01 0. -1.
         -4   -1    0    0    0  501 -0.00000000000E+00 -0.00000000000E+00 -0.17956918638E+03  0.17957367736E+03  0.12700000000E+01 0. -1.
         25    2    1    2    0    0  0.00000000000E+00  0.00000000000E+00 -0.15782833751E+03  0.20135158841E+03  0.12503070837E+03 0.  0.
    9000005    1    3    3    0    0  0.53116118246E+02  0.31734534477E+02 -0.93206728117E+02  0.11187893842E+03  0.10000000000E+01 0.  0.
    9000005    1    3    3    0    0 -0.53116118246E+02 -0.31734534477E+02 -0.64621609389E+02  0.89472649989E+02  0.10000000000E+01 0.  0.
<mgrwt>
<rscale>  0 0.12503071E+03</rscale>
<asrwt>0</asrwt>
<pdfrwt beam="1">  1        4 0.33479425E-02 0.12503071E+03</pdfrwt>
<pdfrwt beam="2">  1       -4 0.27629224E-01 0.12503071E+03</pdfrwt>
<totfact> 0.89846304E+03</totfact>
</mgrwt>
</event>
<event>
 5    1  0.3209683E-002  0.1250005E+03  0.7818608E-02  0.1235069E+00
         -4   -1    0    0    0  501 -0.00000000000E+00  0.00000000000E+00  0.31772272599E+03  0.31772526420E+03  0.12700000000E+01 0. -1.
          4   -1    0    0  501    0  0.00000000000E+00 -0.00000000000E+00 -0.12259230158E+02  0.12324837690E+02  0.12700000000E+01 0. -1.
         25    2    1    2    0    0  0.00000000000E+00  0.00000000000E+00  0.30546349584E+03  0.33005010189E+03  0.12500048989E+03 0.  0.
    9000005    1    3    3    0    0 -0.55334619323E+02 -0.22408395883E+02  0.10395777394E+03  0.11988442378E+03  0.10000000000E+01 0.  0.
    9000005    1    3    3    0    0  0.55334619323E+02  0.22408395883E+02  0.20150572189E+03  0.21016567812E+03  0.10000000000E+01 0.  0.
<mgrwt>
<rscale>  0 0.12500049E+03</rscale>
<asrwt>0</asrwt>
<pdfrwt beam="2">  1        4 0.18912776E-02 0.12500049E+03</pdfrwt>
<pdfrwt beam="1">  1       -4 0.48885657E-01 0.12500049E+03</pdfrwt>
<totfact> 0.71975750E+03</totfact>
</mgrwt>
</event>
<event>
 5    1  0.3209683E-002  0.1249955E+03  0.7818608E-02  0.1235076E+00
         -4   -1    0    0    0  501 -0.00000000000E+00  0.00000000000E+00  0.45185532076E+03  0.45185710551E+03  0.12700000000E+01 0.  1.
          4   -1    0    0  501    0  0.00000000000E+00 -0.00000000000E+00 -0.85958287461E+01  0.86891410296E+01  0.12700000000E+01 0.  1.
         25    2    1    2    0    0  0.00000000000E+00  0.00000000000E+00  0.44325949201E+03  0.46054624654E+03  0.12499547168E+03 0.  0.
    9000005    1    3    3    0    0 -0.61953633967E+02  0.21102593606E+01  0.25070256297E+03  0.25825468250E+03  0.10000000000E+01 0.  0.
    9000005    1    3    3    0    0  0.61953633967E+02 -0.21102593606E+01  0.19255692904E+03  0.20229156403E+03  0.10000000000E+01 0.  0.
<mgrwt>
<rscale>  0 0.12499547E+03</rscale>
<asrwt>0</asrwt>
<pdfrwt beam="2">  1        4 0.13297505E-02 0.12499547E+03</pdfrwt>
<pdfrwt beam="1">  1       -4 0.69523509E-01 0.12499547E+03</pdfrwt>
<totfact> 0.59066832E+03</totfact>
</mgrwt>
</event>
<event>
 5    1  0.3209683E-002  0.1250194E+03  0.7818608E-02  0.1235039E+00
         -4   -1    0    0    0  501 -0.00000000000E+00  0.00000000000E+00  0.33266312590E+02  0.33290546005E+02  0.12700000000E+01 0. -1.
          4   -1    0    0  501    0  0.00000000000E+00 -0.00000000000E+00 -0.11738966948E+03  0.11739653913E+03  0.12700000000E+01 0. -1.
         25    2    1    2    0    0  0.00000000000E+00  0.00000000000E+00 -0.84123356889E+02  0.15068708514E+03  0.12501943230E+03 0.  0.
    9000005    1    3    3    0    0 -0.51117914154E+01  0.29167456655E+02 -0.10840400569E+03  0.11238015567E+03  0.10000000000E+01 0.  0.
    9000005    1    3    3    0    0  0.51117914154E+01 -0.29167456655E+02  0.24280648798E+02  0.38306929468E+02  0.10000000000E+01 0.  0.
<mgrwt>
<rscale>  0 0.12501943E+03</rscale>
<asrwt>0</asrwt>
<pdfrwt beam="2">  1        4 0.18062341E-01 0.12501943E+03</pdfrwt>
<pdfrwt beam="1">  1       -4 0.51202869E-02 0.12501943E+03</pdfrwt>
<totfact> 0.99123561E+03</totfact>
</mgrwt>
</event>
<event>
 5    1  0.3209683E-002  0.1249990E+03  0.7818608E-02  0.1235071E+00
          4   -1    0    0  501    0  0.00000000000E+00  0.00000000000E+00  0.78521840317E+02  0.78532110037E+02  0.12700000000E+01 0.  1.
         -4   -1    0    0    0  501 -0.00000000000E+00 -0.00000000000E+00 -0.49724888569E+02  0.49741104162E+02  0.12700000000E+01 0.  1.
         25    2    1    2    0    0  0.00000000000E+00  0.00000000000E+00  0.28796951748E+02  0.12827321420E+03  0.12499901220E+03 0.  0.
    9000005    1    3    3    0    0  0.57246785489E+02 -0.24939809296E+02  0.16912069758E+02  0.64700901385E+02  0.10000000000E+01 0.  0.
    9000005    1    3    3    0    0 -0.57246785489E+02  0.24939809296E+02  0.11884881990E+02  0.63572312813E+02  0.10000000000E+01 0.  0.
<mgrwt>
<rscale>  0 0.12499901E+03</rscale>
<asrwt>0</asrwt>
<pdfrwt beam="1">  1        4 0.12082320E-01 0.12499901E+03</pdfrwt>
<pdfrwt beam="2">  1       -4 0.76520202E-02 0.12499901E+03</pdfrwt>
<totfact> 0.10381823E+04</totfact>
</mgrwt>
</event>
<event>
 5    1  0.3209683E-002  0.1250050E+03  0.7818608E-02  0.1235061E+00
         -4   -1    0    0    0  501 -0.00000000000E+00  0.00000000000E+00  0.74594390376E+03  0.74594498487E+03  0.12700000000E+01 0.  1.
          4   -1    0    0  501    0  0.00000000000E+00 -0.00000000000E+00 -0.51589778329E+01  0.53129984265E+01  0.12700000000E+01 0.  1.
         25    2    1    2    0    0  0.00000000000E+00  0.00000000000E+00  0.74078492593E+03  0.75125798330E+03  0.12500500386E+03 0.  0.
    9000005    1    3    3    0    0  0.13005853450E+02 -0.51106637962E+02  0.16885968291E+03  0.17690571834E+03  0.10000000000E+01 0.  0.
    9000005    1    3    3    0    0 -0.13005853450E+02  0.51106637962E+02  0.57192524302E+03  0.57435226496E+03  0.10000000000E+01 0.  0.
<mgrwt>
<rscale>  0 0.12500500E+03</rscale>
<asrwt>0</asrwt>
<pdfrwt beam="2">  1        4 0.80562031E-03 0.12500500E+03</pdfrwt>
<pdfrwt beam="1">  1       -4 0.11477246E+00 0.12500500E+03</pdfrwt>
<totfact> 0.40509628E+03</totfact>
</mgrwt>
</event>
<event>
 5    1  0.3209683E-002  0.1249998E+03  0.7818608E-02  0.1235070E+00
         -4   -1    0    0    0  501 -0.00000000000E+00  0.00000000000E+00  0.67330035532E+01  0.68517323975E+01  0.12700000000E+01 0.  1.
          4   -1    0    0  501    0  0.00000000000E+00 -0.00000000000E+00 -0.57497276062E+03  0.57497416321E+03  0.12700000000E+01 0.  1.
         25    2    1    2    0    0  0.00000000000E+00  0.00000000000E+00 -0.56823975707E+03  0.58182589560E+03  0.12499980514E+03 0.  0.
    9000005    1    3    3    0    0 -0.28861778640E+02  0.31904345523E+02 -0.49508990061E+03  0.49695663716E+03  0.10000000000E+01 0.  0.
    9000005    1    3    3    0    0  0.28861778640E+02 -0.31904345523E+02 -0.73149856456E+02  0.84869258445E+02  0.10000000000E+01 0.  0.
<mgrwt>
<rscale>  0 0.12499981E+03</rscale>
<asrwt>0</asrwt>
<pdfrwt beam="2">  1        4 0.88466550E-01 0.12499981E+03</pdfrwt>
<pdfrwt beam="1">  1       -4 0.10450880E-02 0.12499981E+03</pdfrwt>
<totfact> 0.50035512E+03</totfact>
</mgrwt>
</event>
<event>
 5    1  0.3209683E-002  0.1249991E+03  0.7818608E-02  0.1235071E+00
         -4   -1    0    0    0  501 -0.00000000000E+00  0.00000000000E+00  0.92254420044E+01  0.93124475932E+01  0.12700000000E+01 0.  1.
          4   -1    0    0  501    0  0.00000000000E+00 -0.00000000000E+00 -0.42134011061E+03  0.42134202461E+03  0.12700000000E+01 0.  1.
         25    2    1    2    0    0  0.00000000000E+00  0.00000000000E+00 -0.41211466860E+03  0.43065447221E+03  0.12499909742E+03 0.  0.
    9000005    1    3    3    0    0  0.43101243560E+02 -0.12908210368E+01 -0.50226013587E+02  0.66204500272E+02  0.10000000000E+01 0.  0.
    9000005    1    3    3    0    0 -0.43101243560E+02  0.12908210368E+01 -0.36188865501E+03  0.36444997194E+03  0.10000000000E+01 0.  0.
<mgrwt>
<rscale>  0 0.12499910E+03</rscale>
<asrwt>0</asrwt>
<pdfrwt beam="2">  1        4 0.64828381E-01 0.12499910E+03</pdfrwt>
<pdfrwt beam="1">  1       -4 0.14261391E-02 0.12499910E+03</pdfrwt>
<totfact> 0.61677946E+03</totfact>
</mgrwt>
</event>
<event>
 5    1  0.3209683E-002  0.1250023E+03  0.7818608E-02  0.1235066E+00
          4   -1    0    0  501    0  0.00000000000E+00  0.00000000000E+00  0.20054552152E+01  0.23737629663E+01  0.12700000000E+01 0.  1.
         -4   -1    0    0    0  501 -0.00000000000E+00 -0.00000000000E+00 -0.17836924491E+04  0.17836929012E+04  0.12700000000E+01 0.  1.
         25    2    1    2    0    0  0.00000000000E+00  0.00000000000E+00 -0.17816869938E+04  0.17860666641E+04  0.12500233899E+03 0.  0.
    9000005    1    3    3    0    0  0.56829176150E+02  0.15909076659E+02 -0.11846201847E+04  0.11860896408E+04  0.10000000000E+01 0.  0.
    9000005    1    3    3    0    0 -0.56829176150E+02 -0.15909076659E+02 -0.59706680912E+03  0.59997702334E+03  0.10000000000E+01 0.  0.
<mgrwt>
<rscale>  0 0.12500234E+03</rscale>
<asrwt>0</asrwt>
<pdfrwt beam="1">  1        4 0.33689914E-03 0.12500234E+03</pdfrwt>
<pdfrwt beam="2">  1       -4 0.27444143E+00 0.12500234E+03</pdfrwt>
<totfact> 0.12918832E+03</totfact>
</mgrwt>
</event>
<event>
 5    1  0.3209683E-002  0.1250055E+03  0.7818608E-02  0.1235061E+00
          4   -1    0    0  501    0  0.00000000000E+00  0.00000000000E+00  0.59861493371E+02  0.59874963788E+02  0.12700000000E+01 0. -1.
         -4   -1    0    0    0  501 -0.00000000000E+00 -0.00000000000E+00 -0.65233515072E+02  0.65245876411E+02  0.12700000000E+01 0. -1.
         25    2    1    2    0    0  0.00000000000E+00  0.00000000000E+00 -0.53720217010E+01  0.12512084020E+03  0.12500546402E+03 0.  0.
    9000005    1    3    3    0    0  0.36364680016E+02 -0.21068966163E+02 -0.48981270428E+02  0.64548091688E+02  0.10000000000E+01 0.  0.
    9000005    1    3    3    0    0 -0.36364680016E+02  0.21068966163E+02  0.43609248727E+02  0.60572748512E+02  0.10000000000E+01 0.  0.
<mgrwt>
<rscale>  0 0.12500546E+03</rscale>
<asrwt>0</asrwt>
<pdfrwt beam="1">  1        4 0.92114476E-02 0.12500546E+03</pdfrwt>
<pdfrwt beam="2">  1       -4 0.10037912E-01 0.12500546E+03</pdfrwt>
<totfact> 0.10448948E+04</totfact>
</mgrwt>
</event>
<event>
 5    1  0.3209683E-002  0.1249972E+03  0.7818608E-02  0.1235074E+00
          4   -1    0    0  501    0  0.00000000000E+00  0.00000000000E+00  0.83586771922E+03  0.83586868403E+03  0.12700000000E+01 0. -1.
         -4   -1    0    0    0  501 -0.00000000000E+00 -0.00000000000E+00 -0.45858080101E+01  0.47584172900E+01  0.12700000000E+01 0. -1.
         25    2    1    2    0    0  0.00000000000E+00  0.00000000000E+00  0.83128191121E+03  0.84062710132E+03  0.12499723021E+03 0.  0.
    9000005    1    3    3    0    0  0.15984781544E+02 -0.35603659751E+02  0.74386370987E+03  0.74488747653E+03  0.10000000000E+01 0.  0.
    9000005    1    3    3    0    0 -0.15984781544E+02  0.35603659751E+02  0.87418201342E+02  0.95739624788E+02  0.10000000000E+01 0.  0.
<mgrwt>
<rscale>  0 0.12499723E+03</rscale>
<asrwt>0</asrwt>
<pdfrwt beam="1">  1        4 0.12860837E+00 0.12499723E+03</pdfrwt>
<pdfrwt beam="2">  1       -4 0.71886087E-03 0.12499723E+03</pdfrwt>
<totfact> 0.36516184E+03</totfact>
</mgrwt>
</event>
<event>
 5    1  0.3209683E-002  0.1250069E+03  0.7818608E-02  0.1235058E+00
         -4   -1    0    0    0  501 -0.00000000000E+00  0.00000000000E+00  0.21568408717E+02  0.21605766697E+02  0.12700000000E+01 0. -1.
          4   -1    0    0  501    0  0.00000000000E+00 -0.00000000000E+00 -0.18093356498E+03  0.18093802209E+03  0.12700000000E+01 0. -1.
         25    2    1    2    0    0  0.00000000000E+00  0.00000000000E+00 -0.15936515627E+03  0.20254378879E+03  0.12500693318E+03 0.  0.
    9000005    1    3    3    0    0 -0.11702352571E+02  0.12498498777E+02  0.17702027118E+02  0.24647906431E+02  0.10000000000E+01 0.  0.
    9000005    1    3    3    0    0  0.11702352571E+02 -0.12498498777E+02 -0.17706718338E+03  0.17789588236E+03  0.10000000000E+01 0.  0.
<mgrwt>
<rscale>  0 0.12500693E+03</rscale>
<asrwt>0</asrwt>
<pdfrwt beam="2">  1        4 0.27839149E-01 0.12500693E+03</pdfrwt>
<pdfrwt beam="1">  1       -4 0.33214334E-02 0.12500693E+03</pdfrwt>
<totfact> 0.89694330E+03</totfact>
</mgrwt>
</event>
<event>
 5    1  0.3209683E-002  0.1249988E+03  0.7818608E-02  0.1235071E+00
          4   -1    0    0  501    0  0.00000000000E+00  0.00000000000E+00  0.97020682193E+01  0.97848366227E+01  0.12700000000E+01 0. -1.
         -4   -1    0    0    0  501 -0.00000000000E+00 -0.00000000000E+00 -0.40081848590E+03  0.40082049791E+03  0.12700000000E+01 0. -1.
         25    2    1    2    0    0  0.00000000000E+00  0.00000000000E+00 -0.39111641768E+03  0.41060533453E+03  0.12499875424E+03 0.  0.
    9000005    1    3    3    0    0  0.48508563636E+02 -0.97894150376E+01 -0.70204214768E+02  0.85898458450E+02  0.10000000000E+01 0.  0.
    9000005    1    3    3    0    0 -0.48508563636E+02  0.97894150376E+01 -0.32091220292E+03  0.32470687608E+03  0.10000000000E+01 0.  0.
<mgrwt>
<rscale>  0 0.12499875E+03</rscale>
<asrwt>0</asrwt>
<pdfrwt beam="1">  1        4 0.14991478E-02 0.12499875E+03</pdfrwt>
<pdfrwt beam="2">  1       -4 0.61670891E-01 0.12499875E+03</pdfrwt>
<totfact> 0.63535986E+03</totfact>
</mgrwt>
</event>
<event>
 5    1  0.3209683E-002  0.1250058E+03  0.7818608E-02  0.1235060E+00
         -4   -1    0    0    0  501 -0.00000000000E+00  0.00000000000E+00  0.50990007055E+02  0.51005820447E+02  0.12700000000E+01 0.  1.
          4   -1    0    0  501    0  0.00000000000E+00 -0.00000000000E+00 -0.76582256804E+02  0.76592786587E+02  0.12700000000E+01 0.  1.
         25    2    1    2    0    0  0.00000000000E+00  0.00000000000E+00 -0.25592249749E+02  0.12759860703E+03  0.12500576495E+03 0.  0.
    9000005    1    3    3    0    0 -0.21372636763E+02  0.83157530333E+01 -0.72136866982E+02  0.75701181818E+02  0.10000000000E+01 0.  0.
    9000005    1    3    3    0    0  0.21372636763E+02 -0.83157530333E+01  0.46544617233E+02  0.51897425217E+02  0.10000000000E+01 0.  0.
<mgrwt>
<rscale>  0 0.12500576E+03</rscale>
<asrwt>0</asrwt>
<pdfrwt beam="2">  1        4 0.11783912E-01 0.12500576E+03</pdfrwt>
<pdfrwt beam="1">  1       -4 0.78466429E-02 0.12500576E+03</pdfrwt>
<totfact> 0.10394813E+04</totfact>
</mgrwt>
</event>
<event>
 5    1  0.3209683E-002  0.1249991E+03  0.7818608E-02  0.1235071E+00
          4   -1    0    0  501    0  0.00000000000E+00  0.00000000000E+00  0.52328600722E+03  0.52328754834E+03  0.12700000000E+01 0. -1.
         -4   -1    0    0    0  501 -0.00000000000E+00 -0.00000000000E+00 -0.74091536956E+01  0.75172108182E+01  0.12700000000E+01 0. -1.
         25    2    1    2    0    0  0.00000000000E+00  0.00000000000E+00  0.51587685352E+03  0.53080475916E+03  0.12499905739E+03 0.  0.
    9000005    1    3    3    0    0 -0.58099088125E+02 -0.20864586201E+02  0.29918738974E+03  0.30549129149E+03  0.10000000000E+01 0.  0.
    9000005    1    3    3    0    0  0.58099088125E+02  0.20864586201E+02  0.21668946379E+03  0.22531346767E+03  0.10000000000E+01 0.  0.
<mgrwt>
<rscale>  0 0.12499906E+03</rscale>
<asrwt>0</asrwt>
<pdfrwt beam="1">  1        4 0.80513990E-01 0.12499906E+03</pdfrwt>
<pdfrwt beam="2">  1       -4 0.11483002E-02 0.12499906E+03</pdfrwt>
<totfact> 0.53552177E+03</totfact>
</mgrwt>
</event>
<event>
 5    1  0.3209683E-002  0.1250007E+03  0.7818608E-02  0.1235068E+00
         -4   -1    0    0    0  501 -0.00000000000E+00  0.00000000000E+00  0.56127720100E+02  0.56142086385E+02  0.12700000000E+01 0. -1.
          4   -1    0    0  501    0  0.00000000000E+00 -0.00000000000E+00 -0.69567421165E+02  0.69579012551E+02  0.12700000000E+01 0. -1.
         25    2    1    2    0    0  0.00000000000E+00  0.00000000000E+00 -0.13439701065E+02  0.12572109894E+03  0.12500067661E+03 0.  0.
    9000005    1    3    3    0    0 -0.49450984314E+02  0.33992519892E+02  0.10827795428E+02  0.60984689981E+02  0.10000000000E+01 0.  0.
    9000005    1    3    3    0    0  0.49450984314E+02 -0.33992519892E+02 -0.24267496493E+02  0.64736408954E+02  0.10000000000E+01 0.  0.
<mgrwt>
<rscale>  0 0.12500068E+03</rscale>
<asrwt>0</asrwt>
<pdfrwt beam="2">  1        4 0.10704677E-01 0.12500068E+03</pdfrwt>
<pdfrwt beam="1">  1       -4 0.86370306E-02 0.12500068E+03</pdfrwt>
<totfact> 0.10436921E+04</totfact>
</mgrwt>
</event>
<event>
 5    1  0.3209683E-002  0.1249781E+03  0.7818608E-02  0.1235104E+00
         -4   -1    0    0    0  501 -0.00000000000E+00  0.00000000000E+00  0.71025590830E+02  0.71036944280E+02  0.12700000000E+01 0.  1.
          4   -1    0    0  501    0  0.00000000000E+00 -0.00000000000E+00 -0.54955425974E+02  0.54970098635E+02  0.12700000000E+01 0.  1.
         25    2    1    2    0    0  0.00000000000E+00  0.00000000000E+00  0.16070164856E+02  0.12600704292E+03  0.12497809674E+03 0.  0.
    9000005    1    3    3    0    0 -0.15945470111E+02  0.50113357476E+02 -0.25981010279E+02  0.58665317775E+02  0.10000000000E+01 0.  0.
    9000005    1    3    3    0    0  0.15945470111E+02 -0.50113357476E+02  0.42051175135E+02  0.67341725140E+02  0.10000000000E+01 0.  0.
<mgrwt>
<rscale>  0 0.12497810E+03</rscale>
<asrwt>0</asrwt>
<pdfrwt beam="2">  1        4 0.84566830E-02 0.12497810E+03</pdfrwt>
<pdfrwt beam="1">  1       -4 0.10929016E-01 0.12497810E+03</pdfrwt>
<totfact> 0.10435960E+04</totfact>
</mgrwt>
</event>
<event>
 5    1  0.3209683E-002  0.1249991E+03  0.7818608E-02  0.1235071E+00
          4   -1    0    0  501    0  0.00000000000E+00  0.00000000000E+00  0.20192051633E+04  0.20192055627E+04  0.12700000000E+01 0.  1.
         -4   -1    0    0    0  501 -0.00000000000E+00 -0.00000000000E+00 -0.17256404095E+01  0.21426000146E+01  0.12700000000E+01 0.  1.
         25    2    1    2    0    0  0.00000000000E+00  0.00000000000E+00  0.20174795229E+04  0.20213481627E+04  0.12499907834E+03 0.  0.
    9000005    1    3    3    0    0 -0.42155557172E+02  0.69356934059E+01  0.17462460457E+04  0.17467688590E+04  0.10000000000E+01 0.  0.
    9000005    1    3    3    0    0  0.42155557172E+02 -0.69356934059E+01  0.27123347720E+03  0.27457930366E+03  0.10000000000E+01 0.  0.
<mgrwt>
<rscale>  0 0.12499908E+03</rscale>
<asrwt>0</asrwt>
<pdfrwt beam="1">  1        4 0.31067795E+00 0.12499908E+03</pdfrwt>
<pdfrwt beam="2">  1       -4 0.29758873E-03 0.12499908E+03</pdfrwt>
<totfact> 0.95853955E+02</totfact>
</mgrwt>
</event>
<event>
 5    1  0.3209683E-002  0.1250028E+03  0.7818608E-02  0.1235065E+00
          4   -1    0    0  501    0  0.00000000000E+00  0.00000000000E+00  0.58082468780E+03  0.58082607625E+03  0.12700000000E+01 0. -1.
         -4   -1    0    0    0  501 -0.00000000000E+00 -0.00000000000E+00 -0.66642922997E+01  0.67842237475E+01  0.12700000000E+01 0. -1.
         25    2    1    2    0    0  0.00000000000E+00  0.00000000000E+00  0.57416039550E+03  0.58761030000E+03  0.12500281960E+03 0.  0.
    9000005    1    3    3    0    0  0.17055417725E+02  0.14179444004E+02  0.12437270366E+02  0.25448567743E+02  0.10000000000E+01 0.  0.
    9000005    1    3    3    0    0 -0.17055417725E+02 -0.14179444004E+02  0.56172312513E+03  0.56216173225E+03  0.10000000000E+01 0.  0.
<mgrwt>
<rscale>  0 0.12500282E+03</rscale>
<asrwt>0</asrwt>
<pdfrwt beam="1">  1        4 0.89366958E-01 0.12500282E+03</pdfrwt>
<pdfrwt beam="2">  1       -4 0.10346083E-02 0.12500282E+03</pdfrwt>
<totfact> 0.49656077E+03</totfact>
</mgrwt>
</event>
<event>
 5    1  0.3209683E-002  0.1249982E+03  0.7818608E-02  0.1235072E+00
          4   -1    0    0  501    0  0.00000000000E+00  0.00000000000E+00  0.22713085577E+02  0.22748563833E+02  0.12700000000E+01 0.  1.
         -4   -1    0    0    0  501 -0.00000000000E+00 -0.00000000000E+00 -0.17180531207E+03  0.17181000598E+03  0.12700000000E+01 0.  1.
         25    2    1    2    0    0  0.00000000000E+00  0.00000000000E+00 -0.14909222649E+03  0.19455856982E+03  0.12499818034E+03 0.  0.
    9000005    1    3    3    0    0 -0.10116603832E+02  0.34262049268E+02  0.52595884571E+01  0.36123357594E+02  0.10000000000E+01 0.  0.
    9000005    1    3    3    0    0  0.10116603832E+02 -0.34262049268E+02 -0.15435181495E+03  0.15843521222E+03  0.10000000000E+01 0.  0.
<mgrwt>
<rscale>  0 0.12499818E+03</rscale>
<asrwt>0</asrwt>
<pdfrwt beam="1">  1        4 0.34974111E-02 0.12499818E+03</pdfrwt>
<pdfrwt beam="2">  1       -4 0.26434676E-01 0.12499818E+03</pdfrwt>
<totfact> 0.91063843E+03</totfact>
</mgrwt>
</event>
<event>
 5    1  0.3209683E-002  0.1250005E+03  0.7818608E-02  0.1235069E+00
          4   -1    0    0  501    0  0.00000000000E+00  0.00000000000E+00  0.28775639834E+03  0.28775920087E+03  0.12700000000E+01 0.  1.
         -4   -1    0    0    0  501 -0.00000000000E+00 -0.00000000000E+00 -0.13542369777E+02  0.13601789558E+02  0.12700000000E+01 0.  1.
         25    2    1    2    0    0  0.00000000000E+00  0.00000000000E+00  0.27421402856E+03  0.30136099042E+03  0.12500045236E+03 0.  0.
    9000005    1    3    3    0    0 -0.52210939465E+02 -0.26625022564E+02  0.18939610221E+03  0.19825931897E+03  0.10000000000E+01 0.  0.
    9000005    1    3    3    0    0  0.52210939465E+02  0.26625022564E+02  0.84817926349E+02  0.10310167145E+03  0.10000000000E+01 0.  0.
<mgrwt>
<rscale>  0 0.12500045E+03</rscale>
<asrwt>0</asrwt>
<pdfrwt beam="1">  1        4 0.44274999E-01 0.12500045E+03</pdfrwt>
<pdfrwt beam="2">  1       -4 0.20882279E-02 0.12500045E+03</pdfrwt>
<totfact> 0.75427678E+03</totfact>
</mgrwt>
</event>
<event>
 5    1  0.3209683E-002  0.1250050E+03  0.7818608E-02  0.1235061E+00
          4   -1    0    0  501    0  0.00000000000E+00  0.00000000000E+00  0.68795776503E+02  0.68807497881E+02  0.12700000000E+01 0.  1.
         -4   -1    0    0    0  501 -0.00000000000E+00 -0.00000000000E+00 -0.56761281165E+02  0.56775487136E+02  0.12700000000E+01 0.  1.
         25    2    1    2    0    0  0.00000000000E+00  0.00000000000E+00  0.12034495338E+02  0.12558298502E+03  0.12500502809E+03 0.  0.
    9000005    1    3    3    0    0 -0.46876111073E+02  0.40030063077E+02 -0.43156611193E+01  0.61801299907E+02  0.10000000000E+01 0.  0.
    9000005    1    3    3    0    0  0.46876111073E+02 -0.40030063077E+02  0.16350156458E+02  0.63781685110E+02  0.10000000000E+01 0.  0.
<mgrwt>
<rscale>  0 0.12500503E+03</rscale>
<asrwt>0</asrwt>
<pdfrwt beam="1">  1        4 0.10585960E-01 0.12500503E+03</pdfrwt>
<pdfrwt beam="2">  1       -4 0.87344992E-02 0.12500503E+03</pdfrwt>
<totfact> 0.10438938E+04</totfact>
</mgrwt>
</event>
<event>
 5    1  0.3209683E-002  0.1250017E+03  0.7818608E-02  0.1235067E+00
          4   -1    0    0  501    0  0.00000000000E+00  0.00000000000E+00  0.45431840486E+03  0.45432017993E+03  0.12700000000E+01 0. -1.
         -4   -1    0    0    0  501 -0.00000000000E+00 -0.00000000000E+00 -0.85495801989E+01  0.86433917866E+01  0.12700000000E+01 0. -1.
         25    2    1    2    0    0  0.00000000000E+00  0.00000000000E+00  0.44576882466E+03  0.46296357172E+03  0.12500169479E+03 0.  0.
    9000005    1    3    3    0    0  0.42776697616E+02 -0.42177912269E+02  0.15910683655E+03  0.17007294782E+03  0.10000000000E+01 0.  0.
    9000005    1    3    3    0    0 -0.42776697616E+02  0.42177912269E+02  0.28666198810E+03  0.29289062390E+03  0.10000000000E+01 0.  0.
<mgrwt>
<rscale>  0 0.12500169E+03</rscale>
<asrwt>0</asrwt>
<pdfrwt beam="1">  1        4 0.69902506E-01 0.12500169E+03</pdfrwt>
<pdfrwt beam="2">  1       -4 0.13226726E-02 0.12500169E+03</pdfrwt>
<totfact> 0.58854780E+03</totfact>
</mgrwt>
</event>
<event>
 5    1  0.3209683E-002  0.1250059E+03  0.7818608E-02  0.1235060E+00
         -4   -1    0    0    0  501 -0.00000000000E+00  0.00000000000E+00  0.61951681691E+03  0.61951811864E+03  0.12700000000E+01 0. -1.
          4   -1    0    0  501    0  0.00000000000E+00 -0.00000000000E+00 -0.62406470104E+01  0.63685614630E+01  0.12700000000E+01 0. -1.
         25    2    1    2    0    0  0.00000000000E+00  0.00000000000E+00  0.61327616990E+03  0.62588668011E+03  0.12500590296E+03 0.  0.
    9000005    1    3    3    0    0 -0.55334964592E+02 -0.13905747599E+02  0.43431694589E+03  0.43804969765E+03  0.10000000000E+01 0.  0.
    9000005    1    3    3    0    0  0.55334964592E+02  0.13905747599E+02  0.17895922400E+03  0.18783698246E+03  0.10000000000E+01 0.  0.
<mgrwt>
<rscale>  0 0.12500590E+03</rscale>
<asrwt>0</asrwt>
<pdfrwt beam="2">  1        4 0.97003873E-03 0.12500590E+03</pdfrwt>
<pdfrwt beam="1">  1       -4 0.95320270E-01 0.12500590E+03</pdfrwt>
<totfact> 0.47267169E+03</totfact>
</mgrwt>
</event>
<event>
 5    1  0.3209683E-002  0.1249999E+03  0.7818608E-02  0.1235069E+00
          4   -1    0    0  501    0  0.00000000000E+00  0.00000000000E+00  0.10157908481E+03  0.10158702363E+03  0.12700000000E+01 0. -1.
         -4   -1    0    0    0  501 -0.00000000000E+00 -0.00000000000E+00 -0.38435258975E+02  0.38456235288E+02  0.12700000000E+01 0. -1.
         25    2    1    2    0    0  0.00000000000E+00  0.00000000000E+00  0.63143825830E+02  0.14004325892E+03  0.12499988651E+03 0.  0.
    9000005    1    3    3    0    0 -0.21745766890E+02 -0.50056897892E+01  0.96968978372E+02  0.99508381930E+02  0.10000000000E+01 0.  0.
    9000005    1    3    3    0    0  0.21745766890E+02  0.50056897892E+01 -0.33825152542E+02  0.40534876987E+02  0.10000000000E+01 0.  0.
<mgrwt>
<rscale>  0 0.12499989E+03</rscale>
<asrwt>0</asrwt>
<pdfrwt beam="1">  1        4 0.15629776E-01 0.12499989E+03</pdfrwt>
<pdfrwt beam="2">  1       -4 0.59153411E-02 0.12499989E+03</pdfrwt>
<totfact> 0.10132715E+04</totfact>
</mgrwt>
</event>
<event>
 5    1  0.3209683E-002  0.1249695E+03  0.7818608E-02  0.1235117E+00
          4   -1    0    0  501    0  0.00000000000E+00  0.00000000000E+00  0.35473567848E+02  0.35496294396E+02  0.12700000000E+01 0.  1.
         -4   -1    0    0    0  501 -0.00000000000E+00 -0.00000000000E+00 -0.11000177197E+03  0.11000910297E+03  0.12700000000E+01 0.  1.
         25    2    1    2    0    0  0.00000000000E+00  0.00000000000E+00 -0.74528204119E+02  0.14550539736E+03  0.12496946608E+03 0.  0.
    9000005    1    3    3    0    0 -0.58990595951E+02 -0.69896856351E+01 -0.14729151465E+02  0.61210244395E+02  0.10000000000E+01 0.  0.
    9000005    1    3    3    0    0  0.58990595951E+02  0.69896856351E+01 -0.59799052654E+02  0.84295152970E+02  0.10000000000E+01 0.  0.
<mgrwt>
<rscale>  0 0.12496947E+03</rscale>
<asrwt>0</asrwt>
<pdfrwt beam="1">  1        4 0.54597841E-02 0.12496947E+03</pdfrwt>
<pdfrwt beam="2">  1       -4 0.16925662E-01 0.12496947E+03</pdfrwt>
<totfact> 0.10027623E+04</totfact>
</mgrwt>
</event>
<event>
 5    1  0.3209683E-002  0.1249998E+03  0.7818608E-02  0.1235070E+00
          4   -1    0    0  501    0  0.00000000000E+00  0.00000000000E+00  0.42103449062E+03  0.42103640601E+03  0.12700000000E+01 0. -1.
         -4   -1    0    0    0  501 -0.00000000000E+00 -0.00000000000E+00 -0.92323091748E+01  0.93192506512E+01  0.12700000000E+01 0. -1.
         25    2    1    2    0    0  0.00000000000E+00  0.00000000000E+00  0.41180218144E+03  0.43035565667E+03  0.12499981833E+03 0.  0.
    9000005    1    3    3    0    0 -0.46854309388E+02  0.30523551382E+02  0.30194520692E+03  0.30708129457E+03  0.10000000000E+01 0.  0.
    9000005    1    3    3    0    0  0.46854309388E+02 -0.30523551382E+02  0.10985697453E+03  0.12327436209E+03  0.10000000000E+01 0.  0.
<mgrwt>
<rscale>  0 0.12499982E+03</rscale>
<asrwt>0</asrwt>
<pdfrwt beam="1">  1        4 0.64781361E-01 0.12499982E+03</pdfrwt>
<pdfrwt beam="2">  1       -4 0.14271907E-02 0.12499982E+03</pdfrwt>
<totfact> 0.61704018E+03</totfact>
</mgrwt>
</event>
<event>
 5    1  0.3209683E-002  0.1250023E+03  0.7818608E-02  0.1235066E+00
          4   -1    0    0  501    0  0.00000000000E+00  0.00000000000E+00  0.44165759314E+03  0.44165941910E+03  0.12700000000E+01 0. -1.
         -4   -1    0    0    0  501 -0.00000000000E+00 -0.00000000000E+00 -0.87974036149E+01  0.88886000227E+01  0.12700000000E+01 0. -1.
         25    2    1    2    0    0  0.00000000000E+00  0.00000000000E+00  0.43286018952E+03  0.45054801912E+03  0.12500229541E+03 0.  0.
    9000005    1    3    3    0    0  0.49297352000E+02 -0.86425160499E+00  0.78030967130E+02  0.92308221066E+02  0.10000000000E+01 0.  0.
    9000005    1    3    3    0    0 -0.49297352000E+02  0.86425160499E+00  0.35482922239E+03  0.35823979805E+03  0.10000000000E+01 0.  0.
<mgrwt>
<rscale>  0 0.12500230E+03</rscale>
<asrwt>0</asrwt>
<pdfrwt beam="1">  1        4 0.67954472E-01 0.12500230E+03</pdfrwt>
<pdfrwt beam="2">  1       -4 0.13606024E-02 0.12500230E+03</pdfrwt>
<totfact> 0.59913321E+03</totfact>
</mgrwt>
</event>
<event>
 5    1  0.3209683E-002  0.1250002E+03  0.7818608E-02  0.1235069E+00
         -4   -1    0    0    0  501 -0.00000000000E+00  0.00000000000E+00  0.15336756452E+02  0.15389249444E+02  0.12700000000E+01 0.  1.
          4   -1    0    0  501    0  0.00000000000E+00 -0.00000000000E+00 -0.25421000854E+03  0.25421318090E+03  0.12700000000E+01 0.  1.
         25    2    1    2    0    0  0.00000000000E+00  0.00000000000E+00 -0.23887325209E+03  0.26960243034E+03  0.12500015953E+03 0.  0.
    9000005    1    3    3    0    0  0.20415130781E+02  0.58221212916E+02 -0.98001212934E+02  0.11580900196E+03  0.10000000000E+01 0.  0.
    9000005    1    3    3    0    0 -0.20415130781E+02 -0.58221212916E+02 -0.14087203915E+03  0.15379342838E+03  0.10000000000E+01 0.  0.
<mgrwt>
<rscale>  0 0.12500016E+03</rscale>
<asrwt>0</asrwt>
<pdfrwt beam="2">  1        4 0.39113511E-01 0.12500016E+03</pdfrwt>
<pdfrwt beam="1">  1       -4 0.23637831E-02 0.12500016E+03</pdfrwt>
<totfact> 0.79576819E+03</totfact>
</mgrwt>
</event>
<event>
 5    1  0.3209683E-002  0.1250002E+03  0.7818608E-02  0.1235069E+00
          4   -1    0    0  501    0  0.00000000000E+00  0.00000000000E+00  0.32711686460E+02  0.32736330445E+02  0.12700000000E+01 0.  1.
         -4   -1    0    0    0  501 -0.00000000000E+00 -0.00000000000E+00 -0.11934195557E+03  0.11934871285E+03  0.12700000000E+01 0.  1.
         25    2    1    2    0    0  0.00000000000E+00  0.00000000000E+00 -0.86630269107E+02  0.15208504329E+03  0.12500022747E+03 0.  0.
    9000005    1    3    3    0    0 -0.62071632775E+01  0.60675426808E+02 -0.59873937216E+02  0.85474701825E+02  0.10000000000E+01 0.  0.
    9000005    1    3    3    0    0  0.62071632775E+01 -0.60675426808E+02 -0.26756331891E+02  0.66610341469E+02  0.10000000000E+01 0.  0.
<mgrwt>
<rscale>  0 0.12500023E+03</rscale>
<asrwt>0</asrwt>
<pdfrwt beam="1">  1        4 0.50349827E-02 0.12500023E+03</pdfrwt>
<pdfrwt beam="2">  1       -4 0.18362716E-01 0.12500023E+03</pdfrwt>
<totfact> 0.98889182E+03</totfact>
</mgrwt>
</event>
<event>
 5    1  0.3209683E-002  0.1249974E+03  0.7818608E-02  0.1235073E+00
          4   -1    0    0  501    0  0.00000000000E+00  0.00000000000E+00  0.79506219051E+03  0.79506320483E+03  0.12700000000E+01 0. -1.
         -4   -1    0    0    0  501 -0.00000000000E+00 -0.00000000000E+00 -0.48298243269E+01  0.49940067109E+01  0.12700000000E+01 0. -1.
         25    2    1    2    0    0  0.00000000000E+00  0.00000000000E+00  0.79023236618E+03  0.80005721154E+03  0.12499739669E+03 0.  0.
    9000005    1    3    3    0    0  0.20228750383E+02 -0.18663711070E+02  0.75420878109E+03  0.75471148257E+03  0.10000000000E+01 0.  0.
    9000005    1    3    3    0    0 -0.20228750383E+02  0.18663711070E+02  0.36023585092E+02  0.45345728970E+02  0.10000000000E+01 0.  0.
<mgrwt>
<rscale>  0 0.12499740E+03</rscale>
<asrwt>0</asrwt>
<pdfrwt beam="1">  1        4 0.12232990E+00 0.12499740E+03</pdfrwt>
<pdfrwt beam="2">  1       -4 0.75575778E-03 0.12499740E+03</pdfrwt>
<totfact> 0.38264366E+03</totfact>
</mgrwt>
</event>
<event>
 5    1  0.3209683E-002  0.1250008E+03  0.7818608E-02  0.1235068E+00
         -4   -1    0    0    0  501 -0.00000000000E+00  0.00000000000E+00  0.20061980676E+03  0.20062382651E+03  0.12700000000E+01 0. -1.
          4   -1    0    0  501    0  0.00000000000E+00 -0.00000000000E+00 -0.19446234951E+02  0.19487661578E+02  0.12700000000E+01 0. -1.
         25    2    1    2    0    0  0.00000000000E+00  0.00000000000E+00  0.18117357181E+03  0.22011148809E+03  0.12500081627E+03 0.  0.
    9000005    1    3    3    0    0  0.16671459924E+02  0.58661934414E+02  0.11461108665E+03  0.12983012481E+03  0.10000000000E+01 0.  0.
    9000005    1    3    3    0    0 -0.16671459924E+02 -0.58661934414E+02  0.66562485159E+02  0.90281363280E+02  0.10000000000E+01 0.  0.
<mgrwt>
<rscale>  0 0.12500082E+03</rscale>
<asrwt>0</asrwt>
<pdfrwt beam="2">  1        4 0.29952246E-02 0.12500082E+03</pdfrwt>
<pdfrwt beam="1">  1       -4 0.30868079E-01 0.12500082E+03</pdfrwt>
<totfact> 0.86849129E+03</totfact>
</mgrwt>
</event>
<event>
 5    1  0.3209683E-002  0.1250044E+03  0.7818608E-02  0.1235062E+00
          4   -1    0    0  501    0  0.00000000000E+00  0.00000000000E+00  0.26501385766E+01  0.29387300786E+01  0.12700000000E+01 0.  1.
         -4   -1    0    0    0  501 -0.00000000000E+00 -0.00000000000E+00 -0.13976766055E+04  0.13976771825E+04  0.12700000000E+01 0.  1.
         25    2    1    2    0    0  0.00000000000E+00  0.00000000000E+00 -0.13950264669E+04  0.14006159125E+04  0.12500436445E+03 0.  0.
    9000005    1    3    3    0    0 -0.14953612065E+02 -0.59741017731E+02 -0.57844793156E+03  0.58171780894E+03  0.10000000000E+01 0.  0.
    9000005    1    3    3    0    0  0.14953612065E+02  0.59741017731E+02 -0.81657853533E+03  0.81889810359E+03  0.10000000000E+01 0.  0.
<mgrwt>
<rscale>  0 0.12500436E+03</rscale>
<asrwt>0</asrwt>
<pdfrwt beam="1">  1        4 0.42995847E-03 0.12500436E+03</pdfrwt>
<pdfrwt beam="2">  1       -4 0.21504886E+00 0.12500436E+03</pdfrwt>
<totfact> 0.19965886E+03</totfact>
</mgrwt>
</event>
<event>
 5    1  0.3209683E-002  0.1250008E+03  0.7818608E-02  0.1235068E+00
         -4   -1    0    0    0  501 -0.00000000000E+00  0.00000000000E+00  0.10340906702E+03  0.10341686537E+03  0.12700000000E+01 0. -1.
          4   -1    0    0  501    0  0.00000000000E+00 -0.00000000000E+00 -0.37755347700E+02  0.37776701550E+02  0.12700000000E+01 0. -1.
         25    2    1    2    0    0  0.00000000000E+00  0.00000000000E+00  0.65653719324E+02  0.14119356692E+03  0.12500084991E+03 0.  0.
    9000005    1    3    3    0    0 -0.57843166751E+02  0.22885690297E+02  0.39577353356E+02  0.73735701386E+02  0.10000000000E+01 0.  0.
    9000005    1    3    3    0    0  0.57843166751E+02 -0.22885690297E+02  0.26076365967E+02  0.67457865533E+02  0.10000000000E+01 0.  0.
<mgrwt>
<rscale>  0 0.12500085E+03</rscale>
<asrwt>0</asrwt>
<pdfrwt beam="2">  1        4 0.58107575E-02 0.12500085E+03</pdfrwt>
<pdfrwt beam="1">  1       -4 0.15911330E-01 0.12500085E+03</pdfrwt>
<totfact> 0.10108715E+04</totfact>
</mgrwt>
</event>
<event>
 5    1  0.3209683E-002  0.1250041E+03  0.7818608E-02  0.1235063E+00
         -4   -1    0    0    0  501 -0.00000000000E+00  0.00000000000E+00  0.35146257564E+03  0.35146487019E+03  0.12700000000E+01 0.  1.
          4   -1    0    0  501    0  0.00000000000E+00 -0.00000000000E+00 -0.11076381113E+02  0.11148951455E+02  0.12700000000E+01 0.  1.
         25    2    1    2    0    0  0.00000000000E+00  0.00000000000E+00  0.34038619453E+03  0.36261382164E+03  0.12500408882E+03 0.  0.
    9000005    1    3    3    0    0  0.25237512707E+02  0.34459960839E+02  0.37861058466E+02  0.57086606982E+02  0.10000000000E+01 0.  0.
    9000005    1    3    3    0    0 -0.25237512707E+02 -0.34459960839E+02  0.30252513606E+03  0.30552721466E+03  0.10000000000E+01 0.  0.
<mgrwt>
<rscale>  0 0.12500409E+03</rscale>
<asrwt>0</asrwt>
<pdfrwt beam="2">  1        4 0.17098177E-02 0.12500409E+03</pdfrwt>
<pdfrwt beam="1">  1       -4 0.54076916E-01 0.12500409E+03</pdfrwt>
<totfact> 0.68352637E+03</totfact>
</mgrwt>
</event>
<event>
 5    1  0.3209683E-002  0.1250063E+03  0.7818608E-02  0.1235059E+00
          4   -1    0    0  501    0  0.00000000000E+00  0.00000000000E+00  0.12117876394E+03  0.12118541880E+03  0.12700000000E+01 0. -1.
         -4   -1    0    0    0  501 -0.00000000000E+00 -0.00000000000E+00 -0.32218623620E+02  0.32243644458E+02  0.12700000000E+01 0. -1.
         25    2    1    2    0    0  0.00000000000E+00  0.00000000000E+00  0.88960140316E+02  0.15342906326E+03  0.12500628339E+03 0.  0.
    9000005    1    3    3    0    0  0.28610979382E+02 -0.38423373031E+02 -0.47786340170E+01  0.48153702654E+02  0.10000000000E+01 0.  0.
    9000005    1    3    3    0    0 -0.28610979382E+02  0.38423373031E+02  0.93738774333E+02  0.10527536060E+03  0.10000000000E+01 0.  0.
<mgrwt>
<rscale>  0 0.12500628E+03</rscale>
<asrwt>0</asrwt>
<pdfrwt beam="1">  1        4 0.18645323E-01 0.12500628E+03</pdfrwt>
<pdfrwt beam="2">  1       -4 0.49591479E-02 0.12500628E+03</pdfrwt>
<totfact> 0.98610565E+03</totfact>
</mgrwt>
</event>
<event>
 5    1  0.3209683E-002  0.1250255E+03  0.7818608E-02  0.1235029E+00
          4   -1    0    0  501    0  0.00000000000E+00  0.00000000000E+00  0.49794908977E+03  0.49795070931E+03  0.12700000000E+01 0.  1.
         -4   -1    0    0    0  501 -0.00000000000E+00 -0.00000000000E+00 -0.77948516608E+01  0.78976333426E+01  0.12700000000E+01 0.  1.
         25    2    1    2    0    0  0.00000000000E+00  0.00000000000E+00  0.49015423811E+03  0.50584834265E+03  0.12502547192E+03 0.  0.
    9000005    1    3    3    0    0 -0.16485443128E+02 -0.59470379456E+02  0.20495343351E+03  0.21404533579E+03  0.10000000000E+01 0.  0.
    9000005    1    3    3    0    0  0.16485443128E+02  0.59470379456E+02  0.28520080460E+03  0.29180300686E+03  0.10000000000E+01 0.  0.
<mgrwt>
<rscale>  0 0.12502547E+03</rscale>
<asrwt>0</asrwt>
<pdfrwt beam="1">  1        4 0.76615598E-01 0.12502547E+03</pdfrwt>
<pdfrwt beam="2">  1       -4 0.12072386E-02 0.12502547E+03</pdfrwt>
<totfact> 0.55382418E+03</totfact>
</mgrwt>
</event>
<event>
 5    1  0.3209683E-002  0.1250029E+03  0.7818608E-02  0.1235065E+00
          4   -1    0    0  501    0  0.00000000000E+00  0.00000000000E+00  0.26778227034E+03  0.26778528192E+03  0.12700000000E+01 0. -1.
         -4   -1    0    0    0  501 -0.00000000000E+00 -0.00000000000E+00 -0.14557340111E+02  0.14612633271E+02  0.12700000000E+01 0. -1.
         25    2    1    2    0    0  0.00000000000E+00  0.00000000000E+00  0.25322493023E+03  0.28239791519E+03  0.12500286881E+03 0.  0.
    9000005    1    3    3    0    0  0.38137650388E+02 -0.34174001176E+02  0.20753500130E+03  0.21376182891E+03  0.10000000000E+01 0.  0.
    9000005    1    3    3    0    0 -0.38137650388E+02  0.34174001176E+02  0.45689928930E+02  0.68636086275E+02  0.10000000000E+01 0.  0.
<mgrwt>
<rscale>  0 0.12500287E+03</rscale>
<asrwt>0</asrwt>
<pdfrwt beam="1">  1        4 0.41201756E-01 0.12500287E+03</pdfrwt>
<pdfrwt beam="2">  1       -4 0.22440758E-02 0.12500287E+03</pdfrwt>
<totfact> 0.77856265E+03</totfact>
</mgrwt>
</event>
<event>
 5    1  0.3209683E-002  0.1249981E+03  0.7818608E-02  0.1235072E+00
         -4   -1    0    0    0  501 -0.00000000000E+00  0.00000000000E+00  0.93950544697E+01  0.94805035989E+01  0.12700000000E+01 0. -1.
          4   -1    0    0  501    0  0.00000000000E+00 -0.00000000000E+00 -0.41379575255E+03  0.41379770146E+03  0.12700000000E+01 0. -1.
         25    2    1    2    0    0  0.00000000000E+00  0.00000000000E+00 -0.40440069808E+03  0.42327820506E+03  0.12499805704E+03 0.  0.
    9000005    1    3    3    0    0  0.19592180932E+02 -0.37756410948E+02 -0.47179486695E+02  0.63531913918E+02  0.10000000000E+01 0.  0.
    9000005    1    3    3    0    0 -0.19592180932E+02  0.37756410948E+02 -0.35722121139E+03  0.35974629114E+03  0.10000000000E+01 0.  0.
<mgrwt>
<rscale>  0 0.12499806E+03</rscale>
<asrwt>0</asrwt>
<pdfrwt beam="2">  1        4 0.63667594E-01 0.12499806E+03</pdfrwt>
<pdfrwt beam="1">  1       -4 0.14521162E-02 0.12499806E+03</pdfrwt>
<totfact> 0.62352721E+03</totfact>
</mgrwt>
</event>
<event>
 5    1  0.3209683E-002  0.1250025E+03  0.7818608E-02  0.1235065E+00
         -4   -1    0    0    0  501 -0.00000000000E+00  0.00000000000E+00  0.19828079538E+02  0.19868710028E+02  0.12700000000E+01 0.  1.
          4   -1    0    0  501    0  0.00000000000E+00 -0.00000000000E+00 -0.19676942760E+03  0.19677352601E+03  0.12700000000E+01 0.  1.
         25    2    1    2    0    0  0.00000000000E+00  0.00000000000E+00 -0.17694134807E+03  0.21664223604E+03  0.12500247110E+03 0.  0.
    9000005    1    3    3    0    0 -0.66849022925E+01  0.55446733062E+02 -0.13707106294E+03  0.14801521686E+03  0.10000000000E+01 0.  0.
    9000005    1    3    3    0    0  0.66849022925E+01 -0.55446733062E+02 -0.39870285123E+02  0.68627019181E+02  0.10000000000E+01 0.  0.
<mgrwt>
<rscale>  0 0.12500247E+03</rscale>
<asrwt>0</asrwt>
<pdfrwt beam="2">  1        4 0.30275659E-01 0.12500247E+03</pdfrwt>
<pdfrwt beam="1">  1       -4 0.30539146E-02 0.12500247E+03</pdfrwt>
<totfact> 0.87397651E+03</totfact>
</mgrwt>
</event>
<event>
 5    1  0.3209683E-002  0.1250003E+03  0.7818608E-02  0.1235069E+00
         -4   -1    0    0    0  501 -0.00000000000E+00  0.00000000000E+00  0.62312097572E+02  0.62325038338E+02  0.12700000000E+01 0. -1.
          4   -1    0    0  501    0  0.00000000000E+00 -0.00000000000E+00 -0.62662843641E+02  0.62675711988E+02  0.12700000000E+01 0. -1.
         25    2    1    2    0    0  0.00000000000E+00  0.00000000000E+00 -0.35074606940E+00  0.12500075033E+03  0.12500025824E+03 0.  0.
    9000005    1    3    3    0    0  0.16253257143E+02  0.36859741396E+02 -0.47950630302E+02  0.62634430228E+02  0.10000000000E+01 0.  0.
    9000005    1    3    3    0    0 -0.16253257143E+02 -0.36859741396E+02  0.47599884233E+02  0.62366320098E+02  0.10000000000E+01 0.  0.
<mgrwt>
<rscale>  0 0.12500026E+03</rscale>
<asrwt>0</asrwt>
<pdfrwt beam="2">  1        4 0.96424228E-02 0.12500026E+03</pdfrwt>
<pdfrwt beam="1">  1       -4 0.95884618E-02 0.12500026E+03</pdfrwt>
<totfact> 0.10452785E+04</totfact>
</mgrwt>
</event>
<event>
 5    1  0.3209683E-002  0.1249996E+03  0.7818608E-02  0.1235070E+00
          4   -1    0    0  501    0  0.00000000000E+00  0.00000000000E+00  0.24833764189E+03  0.24834088926E+03  0.12700000000E+01 0. -1.
         -4   -1    0    0    0  501 -0.00000000000E+00 -0.00000000000E+00 -0.15700490504E+02  0.15751771394E+02  0.12700000000E+01 0. -1.
         25    2    1    2    0    0  0.00000000000E+00  0.00000000000E+00  0.23263715139E+03  0.26409266066E+03  0.12499955683E+03 0.  0.
    9000005    1    3    3    0    0 -0.18806303992E+02  0.59537788009E+02  0.11081040383E+03  0.12719422498E+03  0.10000000000E+01 0.  0.
    9000005    1    3    3    0    0  0.18806303992E+02 -0.59537788009E+02  0.12182674756E+03  0.13689843568E+03  0.10000000000E+01 0.  0.
<mgrwt>
<rscale>  0 0.12499956E+03</rscale>
<asrwt>0</asrwt>
<pdfrwt beam="1">  1        4 0.38209984E-01 0.12499956E+03</pdfrwt>
<pdfrwt beam="2">  1       -4 0.24196547E-02 0.12499956E+03</pdfrwt>
<totfact> 0.80335915E+03</totfact>
</mgrwt>
</event>
<event>
 5    1  0.3209683E-002  0.1250067E+03  0.7818608E-02  0.1235059E+00
         -4   -1    0    0    0  501 -0.00000000000E+00  0.00000000000E+00  0.17519856490E+02  0.17565826808E+02  0.12700000000E+01 0.  1.
          4   -1    0    0  501    0  0.00000000000E+00 -0.00000000000E+00 -0.22264520150E+03  0.22264882360E+03  0.12700000000E+01 0.  1.
         25    2    1    2    0    0  0.00000000000E+00  0.00000000000E+00 -0.20512534501E+03  0.24021465041E+03  0.12500668424E+03 0.  0.
    9000005    1    3    3    0    0  0.40229537142E+01 -0.59733461551E+02 -0.13701251919E+03  0.14952491765E+03  0.10000000000E+01 0.  0.
    9000005    1    3    3    0    0 -0.40229537142E+01  0.59733461551E+02 -0.68112825822E+02  0.90689732753E+02  0.10000000000E+01 0.  0.
<mgrwt>
<rscale>  0 0.12500668E+03</rscale>
<asrwt>0</asrwt>
<pdfrwt beam="2">  1        4 0.34256921E-01 0.12500668E+03</pdfrwt>
<pdfrwt beam="1">  1       -4 0.26991775E-02 0.12500668E+03</pdfrwt>
<totfact> 0.83752929E+03</totfact>
</mgrwt>
</event>
<event>
 5    1  0.3209683E-002  0.1249996E+03  0.7818608E-02  0.1235070E+00
          4   -1    0    0  501    0  0.00000000000E+00  0.00000000000E+00  0.52827943236E+02  0.52843206626E+02  0.12700000000E+01 0. -1.
         -4   -1    0    0    0  501 -0.00000000000E+00 -0.00000000000E+00 -0.73911009769E+02  0.73921920058E+02  0.12700000000E+01 0. -1.
         25    2    1    2    0    0  0.00000000000E+00  0.00000000000E+00 -0.21083066532E+02  0.12676512668E+03  0.12499960659E+03 0.  0.
    9000005    1    3    3    0    0  0.61206508310E+02 -0.61647364806E+01 -0.21696197766E+02  0.65237762323E+02  0.10000000000E+01 0.  0.
    9000005    1    3    3    0    0 -0.61206508310E+02  0.61647364806E+01  0.61313123328E+00  0.61527364362E+02  0.10000000000E+01 0.  0.
<mgrwt>
<rscale>  0 0.12499961E+03</rscale>
<asrwt>0</asrwt>
<pdfrwt beam="1">  1        4 0.81293892E-02 0.12499961E+03</pdfrwt>
<pdfrwt beam="2">  1       -4 0.11372938E-01 0.12499961E+03</pdfrwt>
<totfact> 0.10414345E+04</totfact>
</mgrwt>
</event>
<event>
 5    1  0.3209683E-002  0.1250107E+03  0.7818608E-02  0.1235053E+00
         -4   -1    0    0    0  501 -0.00000000000E+00  0.00000000000E+00  0.80975666794E+02  0.80985625347E+02  0.12700000000E+01 0. -1.
          4   -1    0    0  501    0  0.00000000000E+00 -0.00000000000E+00 -0.48226802841E+02  0.48243521972E+02  0.12700000000E+01 0. -1.
         25    2    1    2    0    0  0.00000000000E+00  0.00000000000E+00  0.32748863953E+02  0.12922914732E+03  0.12501073724E+03 0.  0.
    9000005    1    3    3    0    0 -0.49460972817E+02  0.27711135668E+02  0.43560656017E+02  0.71504025234E+02  0.10000000000E+01 0.  0.
    9000005    1    3    3    0    0  0.49460972817E+02 -0.27711135668E+02 -0.10811792064E+02  0.57725122084E+02  0.10000000000E+01 0.  0.
<mgrwt>
<rscale>  0 0.12501074E+03</rscale>
<asrwt>0</asrwt>
<pdfrwt beam="2">  1        4 0.74215603E-02 0.12501074E+03</pdfrwt>
<pdfrwt beam="1">  1       -4 0.12459847E-01 0.12501074E+03</pdfrwt>
<totfact> 0.10358515E+04</totfact>
</mgrwt>
</event>
<event>
 5    1  0.3209683E-002  0.1249943E+03  0.7818608E-02  0.1235078E+00
         -4   -1    0    0    0  501 -0.00000000000E+00  0.00000000000E+00  0.23960406766E+02  0.23994040769E+02  0.12700000000E+01 0.  1.
          4   -1    0    0  501    0  0.00000000000E+00 -0.00000000000E+00 -0.16286408946E+03  0.16286904106E+03  0.12700000000E+01 0.  1.
         25    2    1    2    0    0  0.00000000000E+00  0.00000000000E+00 -0.13890368270E+03  0.18686308183E+03  0.12499431301E+03 0.  0.
    9000005    1    3    3    0    0 -0.44738641005E+02 -0.36100686772E+02 -0.32829923725E+02  0.66208832313E+02  0.10000000000E+01 0.  0.
    9000005    1    3    3    0    0  0.44738641005E+02  0.36100686772E+02 -0.10607375897E+03  0.12065424952E+03  0.10000000000E+01 0.  0.
<mgrwt>
<rscale>  0 0.12499431E+03</rscale>
<asrwt>0</asrwt>
<pdfrwt beam="2">  1        4 0.25058981E-01 0.12499431E+03</pdfrwt>
<pdfrwt beam="1">  1       -4 0.36891846E-02 0.12499431E+03</pdfrwt>
<totfact> 0.92407786E+03</totfact>
</mgrwt>
</event>
<event>
 5    1  0.3209683E-002  0.1250022E+03  0.7818608E-02  0.1235066E+00
         -4   -1    0    0    0  501 -0.00000000000E+00  0.00000000000E+00  0.45510926718E+02  0.45528643191E+02  0.12700000000E+01 0. -1.
          4   -1    0    0  501    0  0.00000000000E+00 -0.00000000000E+00 -0.85794921101E+02  0.85804320327E+02  0.12700000000E+01 0. -1.
         25    2    1    2    0    0  0.00000000000E+00  0.00000000000E+00 -0.40283994382E+02  0.13133296352E+03  0.12500218839E+03 0.  0.
    9000005    1    3    3    0    0 -0.32126151113E+01 -0.62360072585E+02 -0.17507573026E+02  0.64858420131E+02  0.10000000000E+01 0.  0.
    9000005    1    3    3    0    0  0.32126151113E+01  0.62360072585E+02 -0.22776421357E+02  0.66474543386E+02  0.10000000000E+01 0.  0.
<mgrwt>
<rscale>  0 0.12500219E+03</rscale>
<asrwt>0</asrwt>
<pdfrwt beam="2">  1        4 0.13201304E-01 0.12500219E+03</pdfrwt>
<pdfrwt beam="1">  1       -4 0.70037669E-02 0.12500219E+03</pdfrwt>
<totfact> 0.10315447E+04</totfact>
</mgrwt>
</event>
<event>
 5    1  0.3209683E-002  0.1250101E+03  0.7818608E-02  0.1235054E+00
          4   -1    0    0  501    0  0.00000000000E+00  0.00000000000E+00  0.21556574233E+03  0.21556948338E+03  0.12700000000E+01 0.  1.
         -4   -1    0    0    0  501 -0.00000000000E+00 -0.00000000000E+00 -0.18097695440E+02  0.18142201637E+02  0.12700000000E+01 0.  1.
         25    2    1    2    0    0  0.00000000000E+00  0.00000000000E+00  0.19746804689E+03  0.23371168502E+03  0.12501008828E+03 0.  0.
    9000005    1    3    3    0    0  0.29349771165E+02  0.55165326964E+02  0.96636985949E+02  0.11508401027E+03  0.10000000000E+01 0.  0.
    9000005    1    3    3    0    0 -0.29349771165E+02 -0.55165326964E+02  0.10083106094E+03  0.11862767475E+03  0.10000000000E+01 0.  0.
<mgrwt>
<rscale>  0 0.12501009E+03</rscale>
<asrwt>0</asrwt>
<pdfrwt beam="1">  1        4 0.33167672E-01 0.12501009E+03</pdfrwt>
<pdfrwt beam="2">  1       -4 0.27879721E-02 0.12501009E+03</pdfrwt>
<totfact> 0.84723837E+03</totfact>
</mgrwt>
</event>
<event>
 5    1  0.3209683E-002  0.1249504E+03  0.7818608E-02  0.1235147E+00
          4   -1    0    0  501    0  0.00000000000E+00  0.00000000000E+00  0.37139974696E+01  0.39251340365E+01  0.12700000000E+01 0. -1.
         -4   -1    0    0    0  501 -0.00000000000E+00 -0.00000000000E+00 -0.10216721729E+04  0.10216729623E+04  0.12700000000E+01 0. -1.
         25    2    1    2    0    0  0.00000000000E+00  0.00000000000E+00 -0.10179581755E+04  0.10255980963E+04  0.12495042284E+03 0.  0.
    9000005    1    3    3    0    0 -0.13649693815E+02 -0.23951991476E+02 -0.96907909694E+03  0.96947166445E+03  0.10000000000E+01 0.  0.
    9000005    1    3    3    0    0  0.13649693815E+02  0.23951991476E+02 -0.48879078531E+02  0.56126431875E+02  0.10000000000E+01 0.  0.
<mgrwt>
<rscale>  0 0.12495042E+03</rscale>
<asrwt>0</asrwt>
<pdfrwt beam="1">  1        4 0.58768703E-03 0.12495042E+03</pdfrwt>
<pdfrwt beam="2">  1       -4 0.15719642E+00 0.12495042E+03</pdfrwt>
<totfact> 0.29801342E+03</totfact>
</mgrwt>
</event>
<event>
 5    1  0.3209683E-002  0.1250480E+03  0.7818608E-02  0.1234994E+00
         -4   -1    0    0    0  501 -0.00000000000E+00  0.00000000000E+00  0.41702111364E+02  0.41721445232E+02  0.12700000000E+01 0. -1.
          4   -1    0    0  501    0  0.00000000000E+00 -0.00000000000E+00 -0.93696890441E+02  0.93705497055E+02  0.12700000000E+01 0. -1.
         25    2    1    2    0    0  0.00000000000E+00  0.00000000000E+00 -0.51994779077E+02  0.13542694229E+03  0.12504798937E+03 0.  0.
    9000005    1    3    3    0    0  0.48183660803E+02 -0.10060804475E+02 -0.67736668896E+02  0.83738529174E+02  0.10000000000E+01 0.  0.
    9000005    1    3    3    0    0 -0.48183660803E+02  0.10060804475E+02  0.15741889820E+02  0.51688413113E+02  0.10000000000E+01 0.  0.
<mgrwt>
<rscale>  0 0.12504799E+03</rscale>
<asrwt>0</asrwt>
<pdfrwt beam="2">  1        4 0.14417055E-01 0.12504799E+03</pdfrwt>
<pdfrwt beam="1">  1       -4 0.64178587E-02 0.12504799E+03</pdfrwt>
<totfact> 0.10218018E+04</totfact>
</mgrwt>
</event>
<event>
 5    1  0.3209683E-002  0.1250021E+03  0.7818608E-02  0.1235066E+00
          4   -1    0    0  501    0  0.00000000000E+00  0.00000000000E+00  0.36496726693E+03  0.36496947658E+03  0.12700000000E+01 0. -1.
         -4   -1    0    0    0  501 -0.00000000000E+00 -0.00000000000E+00 -0.10663457338E+02  0.10738818483E+02  0.12700000000E+01 0. -1.
         25    2    1    2    0    0  0.00000000000E+00  0.00000000000E+00  0.35430380960E+03  0.37570829506E+03  0.12500213391E+03 0.  0.
    9000005    1    3    3    0    0 -0.48114630902E+02  0.35830657842E+02  0.12452963438E+03  0.13822982162E+03  0.10000000000E+01 0.  0.
    9000005    1    3    3    0    0  0.48114630902E+02 -0.35830657842E+02  0.22977417522E+03  0.23747847344E+03  0.10000000000E+01 0.  0.
<mgrwt>
<rscale>  0 0.12500213E+03</rscale>
<asrwt>0</asrwt>
<pdfrwt beam="1">  1        4 0.56154783E-01 0.12500213E+03</pdfrwt>
<pdfrwt beam="2">  1       -4 0.16464987E-02 0.12500213E+03</pdfrwt>
<totfact> 0.66982776E+03</totfact>
</mgrwt>
</event>
<event>
 5    1  0.3209683E-002  0.1250043E+03  0.7818608E-02  0.1235063E+00
         -4   -1    0    0    0  501 -0.00000000000E+00  0.00000000000E+00  0.28144713631E+02  0.28173352753E+02  0.12700000000E+01 0.  1.
          4   -1    0    0  501    0  0.00000000000E+00 -0.00000000000E+00 -0.13869900460E+03  0.13870481887E+03  0.12700000000E+01 0.  1.
         25    2    1    2    0    0  0.00000000000E+00  0.00000000000E+00 -0.11055429097E+03  0.16687817162E+03  0.12500429157E+03 0.  0.
    9000005    1    3    3    0    0 -0.38265491629E+02  0.48047825802E+02 -0.39900127345E+02  0.73252041446E+02  0.10000000000E+01 0.  0.
    9000005    1    3    3    0    0  0.38265491629E+02 -0.48047825802E+02 -0.70654163623E+02  0.93626130173E+02  0.10000000000E+01 0.  0.
<mgrwt>
<rscale>  0 0.12500429E+03</rscale>
<asrwt>0</asrwt>
<pdfrwt beam="2">  1        4 0.21340958E-01 0.12500429E+03</pdfrwt>
<pdfrwt beam="1">  1       -4 0.43326063E-02 0.12500429E+03</pdfrwt>
<totfact> 0.96023619E+03</totfact>
</mgrwt>
</event>
<event>
 5    1  0.3209683E-002  0.1249991E+03  0.7818608E-02  0.1235071E+00
         -4   -1    0    0    0  501 -0.00000000000E+00  0.00000000000E+00  0.16155876824E+03  0.16156375985E+03  0.12700000000E+01 0. -1.
          4   -1    0    0  501    0  0.00000000000E+00 -0.00000000000E+00 -0.24156116959E+02  0.24189478840E+02  0.12700000000E+01 0. -1.
         25    2    1    2    0    0  0.00000000000E+00  0.00000000000E+00  0.13740265129E+03  0.18575323869E+03  0.12499910841E+03 0.  0.
    9000005    1    3    3    0    0 -0.57823316139E+02 -0.24880769972E+01  0.33677873832E+02  0.66969587145E+02  0.10000000000E+01 0.  0.
    9000005    1    3    3    0    0  0.57823316139E+02  0.24880769972E+01  0.10372477745E+03  0.11878365154E+03  0.10000000000E+01 0.  0.
<mgrwt>
<rscale>  0 0.12499911E+03</rscale>
<asrwt>0</asrwt>
<pdfrwt beam="2">  1        4 0.37192761E-02 0.12499911E+03</pdfrwt>
<pdfrwt beam="1">  1       -4 0.24858145E-01 0.12499911E+03</pdfrwt>
<totfact> 0.92593383E+03</totfact>
</mgrwt>
</event>
<event>
 5    1  0.3209683E-002  0.1249948E+03  0.7818608E-02  0.1235077E+00
          4   -1    0    0  501    0  0.00000000000E+00  0.00000000000E+00  0.10220122470E+03  0.10220911520E+03  0.12700000000E+01 0. -1.
         -4   -1    0    0    0  501 -0.00000000000E+00 -0.00000000000E+00 -0.38198045102E+02  0.38219151608E+02  0.12700000000E+01 0. -1.
         25    2    1    2    0    0  0.00000000000E+00  0.00000000000E+00  0.64003179596E+02  0.14042826681E+03  0.12499476437E+03 0.  0.
    9000005    1    3    3    0    0 -0.42606192315E+02  0.28078307859E+02  0.72528365010E+02  0.88685076123E+02  0.10000000000E+01 0.  0.
    9000005    1    3    3    0    0  0.42606192315E+02 -0.28078307859E+02 -0.85251854138E+01  0.51743190684E+02  0.10000000000E+01 0.  0.
<mgrwt>
<rscale>  0 0.12499476E+03</rscale>
<asrwt>0</asrwt>
<pdfrwt beam="1">  1        4 0.15725496E-01 0.12499476E+03</pdfrwt>
<pdfrwt beam="2">  1       -4 0.58788529E-02 0.12499476E+03</pdfrwt>
<totfact> 0.10125912E+04</totfact>
</mgrwt>
</event>
<event>
 5    1  0.3209683E-002  0.1250356E+03  0.7818608E-02  0.1235014E+00
          4   -1    0    0  501    0  0.00000000000E+00  0.00000000000E+00  0.23695961303E+03  0.23696301633E+03  0.12700000000E+01 0.  1.
         -4   -1    0    0    0  501 -0.00000000000E+00 -0.00000000000E+00 -0.16466295496E+02  0.16515198678E+02  0.12700000000E+01 0.  1.
         25    2    1    2    0    0  0.00000000000E+00  0.00000000000E+00  0.22049331754E+03  0.25347821501E+03  0.12503560455E+03 0.  0.
    9000005    1    3    3    0    0  0.15642456497E+02  0.32541749331E+02  0.21369242725E+03  0.21672356900E+03  0.10000000000E+01 0.  0.
    9000005    1    3    3    0    0 -0.15642456497E+02 -0.32541749331E+02  0.68008902868E+01  0.36754646012E+02  0.10000000000E+01 0.  0.
<mgrwt>
<rscale>  0 0.12503560E+03</rscale>
<asrwt>0</asrwt>
<pdfrwt beam="1">  1        4 0.36459347E-01 0.12503560E+03</pdfrwt>
<pdfrwt beam="2">  1       -4 0.25372999E-02 0.12503560E+03</pdfrwt>
<totfact> 0.81765251E+03</totfact>
</mgrwt>
</event>
<event>
 5    1  0.3209683E-002  0.1250016E+03  0.7818608E-02  0.1235067E+00
         -4   -1    0    0    0  501 -0.00000000000E+00  0.00000000000E+00  0.89436750184E+02  0.89445766716E+02  0.12700000000E+01 0.  1.
          4   -1    0    0  501    0  0.00000000000E+00 -0.00000000000E+00 -0.43656775868E+02  0.43675244466E+02  0.12700000000E+01 0.  1.
         25    2    1    2    0    0  0.00000000000E+00  0.00000000000E+00  0.45779974316E+02  0.13312101118E+03  0.12500159027E+03 0.  0.
    9000005    1    3    3    0    0 -0.41205492152E+02  0.33581859447E+02  0.57883355061E+02  0.78594635062E+02  0.10000000000E+01 0.  0.
    9000005    1    3    3    0    0  0.41205492152E+02 -0.33581859447E+02 -0.12103380745E+02  0.54526376121E+02  0.10000000000E+01 0.  0.
<mgrwt>
<rscale>  0 0.12500159E+03</rscale>
<asrwt>0</asrwt>
<pdfrwt beam="2">  1        4 0.67185413E-02 0.12500159E+03</pdfrwt>
<pdfrwt beam="1">  1       -4 0.13761614E-01 0.12500159E+03</pdfrwt>
<totfact> 0.10277460E+04</totfact>
</mgrwt>
</event>
<event>
 5    1  0.3209683E-002  0.1250030E+03  0.7818608E-02  0.1235065E+00
         -4   -1    0    0    0  501 -0.00000000000E+00  0.00000000000E+00  0.60388442405E+03  0.60388575948E+03  0.12700000000E+01 0. -1.
          4   -1    0    0  501    0  0.00000000000E+00 -0.00000000000E+00 -0.64051565705E+01  0.65298492091E+01  0.12700000000E+01 0. -1.
         25    2    1    2    0    0  0.00000000000E+00  0.00000000000E+00  0.59747926748E+03  0.61041560869E+03  0.12500296105E+03 0.  0.
    9000005    1    3    3    0    0  0.53471417436E+02 -0.17725523974E+02  0.16661760823E+03  0.17588579833E+03  0.10000000000E+01 0.  0.
    9000005    1    3    3    0    0 -0.53471417436E+02  0.17725523974E+02  0.43086165925E+03  0.43452981036E+03  0.10000000000E+01 0.  0.
<mgrwt>
<rscale>  0 0.12500296E+03</rscale>
<asrwt>0</asrwt>
<pdfrwt beam="2">  1        4 0.99510313E-03 0.12500296E+03</pdfrwt>
<pdfrwt beam="1">  1       -4 0.92914995E-01 0.12500296E+03</pdfrwt>
<totfact> 0.48213547E+03</totfact>
</mgrwt>
</event>
<event>
 5    1  0.3209683E-002  0.1250003E+03  0.7818608E-02  0.1235069E+00
          4   -1    0    0  501    0  0.00000000000E+00  0.00000000000E+00  0.13647449534E+03  0.13648040437E+03  0.12700000000E+01 0.  1.
         -4   -1    0    0    0  501 -0.00000000000E+00 -0.00000000000E+00 -0.28602070350E+02  0.28630251978E+02  0.12700000000E+01 0.  1.
         25    2    1    2    0    0  0.00000000000E+00  0.00000000000E+00  0.10787242499E+03  0.16511065635E+03  0.12500027507E+03 0.  0.
    9000005    1    3    3    0    0  0.33774635038E+02 -0.43648455903E+02  0.15214900458E+02  0.57257373941E+02  0.10000000000E+01 0.  0.
    9000005    1    3    3    0    0 -0.33774635038E+02  0.43648455903E+02  0.92657524529E+02  0.10785328241E+03  0.10000000000E+01 0.  0.
<mgrwt>
<rscale>  0 0.12500028E+03</rscale>
<asrwt>0</asrwt>
<pdfrwt beam="1">  1        4 0.20998699E-01 0.12500028E+03</pdfrwt>
<pdfrwt beam="2">  1       -4 0.44029408E-02 0.12500028E+03</pdfrwt>
<totfact> 0.96365844E+03</totfact>
</mgrwt>
</event>
<event>
 5    1  0.3209683E-002  0.1250182E+03  0.7818608E-02  0.1235041E+00
         -4   -1    0    0    0  501 -0.00000000000E+00  0.00000000000E+00  0.19460649556E+02  0.19502045563E+02  0.12700000000E+01 0.  1.
          4   -1    0    0  501    0  0.00000000000E+00 -0.00000000000E+00 -0.20052738833E+03  0.20053140994E+03  0.12700000000E+01 0.  1.
         25    2    1    2    0    0  0.00000000000E+00  0.00000000000E+00 -0.18106673878E+03  0.22003345550E+03  0.12501822926E+03 0.  0.
    9000005    1    3    3    0    0  0.87228905427E+01  0.56056158645E+02 -0.44368456973E+02  0.72027367824E+02  0.10000000000E+01 0.  0.
    9000005    1    3    3    0    0 -0.87228905427E+01 -0.56056158645E+02 -0.13669828180E+03  0.14800608768E+03  0.10000000000E+01 0.  0.
<mgrwt>
<rscale>  0 0.12501823E+03</rscale>
<asrwt>0</asrwt>
<pdfrwt beam="2">  1        4 0.30853860E-01 0.12501823E+03</pdfrwt>
<pdfrwt beam="1">  1       -4 0.29974399E-02 0.12501823E+03</pdfrwt>
<totfact> 0.86827697E+03</totfact>
</mgrwt>
</event>
<event>
 5    1  0.3209683E-002  0.1249989E+03  0.7818608E-02  0.1235071E+00
         -4   -1    0    0    0  501 -0.00000000000E+00  0.00000000000E+00  0.12975080345E+02  0.13037085946E+02  0.12700000000E+01 0. -1.
          4   -1    0    0  501    0  0.00000000000E+00 -0.00000000000E+00 -0.30027166918E+03  0.30027435490E+03  0.12700000000E+01 0. -1.
         25    2    1    2    0    0  0.00000000000E+00  0.00000000000E+00 -0.28729658883E+03  0.31331144085E+03  0.12499891604E+03 0.  0.
    9000005    1    3    3    0    0 -0.17497857787E+02  0.19761287699E+02 -0.28562625810E+03  0.28684498050E+03  0.10000000000E+01 0.  0.
    9000005    1    3    3    0    0  0.17497857787E+02 -0.19761287699E+02 -0.16703307297E+01  0.26466460349E+02  0.10000000000E+01 0.  0.
<mgrwt>
<rscale>  0 0.12499892E+03</rscale>
<asrwt>0</asrwt>
<pdfrwt beam="2">  1        4 0.46200612E-01 0.12499892E+03</pdfrwt>
<pdfrwt beam="1">  1       -4 0.20011427E-02 0.12499892E+03</pdfrwt>
<totfact> 0.73960547E+03</totfact>
</mgrwt>
</event>
<event>
 5    1  0.3209683E-002  0.1250097E+03  0.7818608E-02  0.1235054E+00
         -4   -1    0    0    0  501 -0.00000000000E+00  0.00000000000E+00  0.35581421778E+03  0.35581648427E+03  0.12700000000E+01 0.  1.
          4   -1    0    0  501    0  0.00000000000E+00 -0.00000000000E+00 -0.10941014921E+02  0.11014477178E+02  0.12700000000E+01 0.  1.
         25    2    1    2    0    0  0.00000000000E+00  0.00000000000E+00  0.34487320286E+03  0.36683096145E+03  0.12500971252E+03 0.  0.
    9000005    1    3    3    0    0 -0.25558258184E+02 -0.43667044992E+02  0.64786117354E+02  0.82208736650E+02  0.10000000000E+01 0.  0.
    9000005    1    3    3    0    0  0.25558258184E+02  0.43667044992E+02  0.28008708551E+03  0.28462222479E+03  0.10000000000E+01 0.  0.
<mgrwt>
<rscale>  0 0.12500971E+03</rscale>
<asrwt>0</asrwt>
<pdfrwt beam="2">  1        4 0.16890582E-02 0.12500971E+03</pdfrwt>
<pdfrwt beam="1">  1       -4 0.54746478E-01 0.12500971E+03</pdfrwt>
<totfact> 0.67897199E+03</totfact>
</mgrwt>
</event>
<event>
 5    1  0.3209683E-002  0.1249997E+03  0.7818608E-02  0.1235070E+00
         -4   -1    0    0    0  501 -0.00000000000E+00  0.00000000000E+00  0.23157997673E+03  0.23158345908E+03  0.12700000000E+01 0.  1.
          4   -1    0    0  501    0  0.00000000000E+00 -0.00000000000E+00 -0.16840233337E+02  0.16888053731E+02  0.12700000000E+01 0.  1.
         25    2    1    2    0    0  0.00000000000E+00  0.00000000000E+00  0.21473974339E+03  0.24847151282E+03  0.12499974116E+03 0.  0.
    9000005    1    3    3    0    0 -0.83409730110E+01  0.55093685495E+02  0.16360489390E+03  0.17283647567E+03  0.10000000000E+01 0.  0.
    9000005    1    3    3    0    0  0.83409730110E+01 -0.55093685495E+02  0.51134849489E+02  0.75635037149E+02  0.10000000000E+01 0.  0.
<mgrwt>
<rscale>  0 0.12499974E+03</rscale>
<asrwt>0</asrwt>
<pdfrwt beam="2">  1        4 0.25947517E-02 0.12499974E+03</pdfrwt>
<pdfrwt beam="1">  1       -4 0.35631633E-01 0.12499974E+03</pdfrwt>
<totfact> 0.82552122E+03</totfact>
</mgrwt>
</event>
<event>
 5    1  0.3209683E-002  0.1249986E+03  0.7818608E-02  0.1235071E+00
         -4   -1    0    0    0  501 -0.00000000000E+00  0.00000000000E+00  0.92609508517E+02  0.92618216176E+02  0.12700000000E+01 0. -1.
          4   -1    0    0  501    0  0.00000000000E+00 -0.00000000000E+00 -0.42158598211E+02  0.42177722830E+02  0.12700000000E+01 0. -1.
         25    2    1    2    0    0  0.00000000000E+00  0.00000000000E+00  0.50450910306E+02  0.13479593901E+03  0.12499860328E+03 0.  0.
    9000005    1    3    3    0    0  0.48551285052E+02  0.57838626569E+01 -0.16741142141E+02  0.51690871415E+02  0.10000000000E+01 0.  0.
    9000005    1    3    3    0    0 -0.48551285052E+02 -0.57838626569E+01  0.67192052447E+02  0.83105067592E+02  0.10000000000E+01 0.  0.
<mgrwt>
<rscale>  0 0.12499860E+03</rscale>
<asrwt>0</asrwt>
<pdfrwt beam="2">  1        4 0.64880792E-02 0.12499860E+03</pdfrwt>
<pdfrwt beam="1">  1       -4 0.14249757E-01 0.12499860E+03</pdfrwt>
<totfact> 0.10242696E+04</totfact>
</mgrwt>
</event>
<event>
 5    1  0.3209683E-002  0.1249998E+03  0.7818608E-02  0.1235070E+00
          4   -1    0    0  501    0  0.00000000000E+00  0.00000000000E+00  0.10362206483E+03  0.10362984715E+03  0.12700000000E+01 0. -1.
         -4   -1    0    0    0  501 -0.00000000000E+00 -0.00000000000E+00 -0.37677062949E+02  0.37698461142E+02  0.12700000000E+01 0. -1.
         25    2    1    2    0    0  0.00000000000E+00  0.00000000000E+00  0.65945001885E+02  0.14132830829E+03  0.12499978980E+03 0.  0.
    9000005    1    3    3    0    0  0.47124745527E+02  0.22578561282E+02 -0.57786015641E+01  0.52582557057E+02  0.10000000000E+01 0.  0.
    9000005    1    3    3    0    0 -0.47124745527E+02 -0.22578561282E+02  0.71723603449E+02  0.88745751236E+02  0.10000000000E+01 0.  0.
<mgrwt>
<rscale>  0 0.12499979E+03</rscale>
<asrwt>0</asrwt>
<pdfrwt beam="1">  1        4 0.15944101E-01 0.12499979E+03</pdfrwt>
<pdfrwt beam="2">  1       -4 0.57987160E-02 0.12499979E+03</pdfrwt>
<totfact> 0.10106178E+04</totfact>
</mgrwt>
</event>
<event>
 5    1  0.3209683E-002  0.1249932E+03  0.7818608E-02  0.1235080E+00
         -4   -1    0    0    0  501 -0.00000000000E+00  0.00000000000E+00  0.14901227907E+04  0.14901233319E+04  0.12700000000E+01 0.  1.
          4   -1    0    0  501    0  0.00000000000E+00 -0.00000000000E+00 -0.24667318182E+01  0.27744667710E+01  0.12700000000E+01 0.  1.
         25    2    1    2    0    0  0.00000000000E+00  0.00000000000E+00  0.14876560589E+04  0.14928977987E+04  0.12499315077E+03 0.  0.
    9000005    1    3    3    0    0  0.30835073027E+01 -0.38231921409E+02  0.15461613787E+03  0.15930580002E+03  0.10000000000E+01 0.  0.
    9000005    1    3    3    0    0 -0.30835073027E+01  0.38231921409E+02  0.13330399210E+04  0.13335919987E+04  0.10000000000E+01 0.  0.
<mgrwt>
<rscale>  0 0.12499315E+03</rscale>
<asrwt>0</asrwt>
<pdfrwt beam="2">  1        4 0.40320974E-03 0.12499315E+03</pdfrwt>
<pdfrwt beam="1">  1       -4 0.22927395E+00 0.12499315E+03</pdfrwt>
<totfact> 0.18073143E+03</totfact>
</mgrwt>
</event>
<event>
 5    1  0.3209683E-002  0.1249855E+03  0.7818608E-02  0.1235092E+00
         -4   -1    0    0    0  501 -0.00000000000E+00  0.00000000000E+00  0.23172489574E+02  0.23207265523E+02  0.12700000000E+01 0. -1.
          4   -1    0    0  501    0  0.00000000000E+00 -0.00000000000E+00 -0.16837001737E+03  0.16837480705E+03  0.12700000000E+01 0. -1.
         25    2    1    2    0    0  0.00000000000E+00  0.00000000000E+00 -0.14519752779E+03  0.19158207257E+03  0.12498547297E+03 0.  0.
    9000005    1    3    3    0    0 -0.73895420226E+01 -0.86857700559E+01 -0.16676890105E+03  0.16716134210E+03  0.10000000000E+01 0.  0.
    9000005    1    3    3    0    0  0.73895420226E+01  0.86857700559E+01  0.21571373258E+02  0.24420730476E+02  0.10000000000E+01 0.  0.
<mgrwt>
<rscale>  0 0.12498547E+03</rscale>
<asrwt>0</asrwt>
<pdfrwt beam="2">  1        4 0.25906122E-01 0.12498547E+03</pdfrwt>
<pdfrwt beam="1">  1       -4 0.35680420E-02 0.12498547E+03</pdfrwt>
<totfact> 0.91602566E+03</totfact>
</mgrwt>
</event>
<event>
 5    1  0.3209683E-002  0.1249917E+03  0.7818608E-02  0.1235082E+00
          4   -1    0    0  501    0  0.00000000000E+00  0.00000000000E+00  0.14628158861E+03  0.14628710150E+03  0.12700000000E+01 0. -1.
         -4   -1    0    0    0  501 -0.00000000000E+00 -0.00000000000E+00 -0.26678980731E+02  0.26709191543E+02  0.12700000000E+01 0. -1.
         25    2    1    2    0    0  0.00000000000E+00  0.00000000000E+00  0.11960260787E+03  0.17299629304E+03  0.12499173411E+03 0.  0.
    9000005    1    3    3    0    0  0.52035237816E+02 -0.28901193221E+02  0.33475426464E+02  0.68297504501E+02  0.10000000000E+01 0.  0.
    9000005    1    3    3    0    0 -0.52035237816E+02  0.28901193221E+02  0.86127181411E+02  0.10469878854E+03  0.10000000000E+01 0.  0.
<mgrwt>
<rscale>  0 0.12499173E+03</rscale>
<asrwt>0</asrwt>
<pdfrwt beam="1">  1        4 0.22507608E-01 0.12499173E+03</pdfrwt>
<pdfrwt beam="2">  1       -4 0.41072065E-02 0.12499173E+03</pdfrwt>
<totfact> 0.94910703E+03</totfact>
</mgrwt>
</event>
<event>
 5    1  0.3209683E-002  0.1250031E+03  0.7818608E-02  0.1235064E+00
         -4   -1    0    0    0  501 -0.00000000000E+00  0.00000000000E+00  0.11955872270E+02  0.12023135270E+02  0.12700000000E+01 0. -1.
          4   -1    0    0  501    0  0.00000000000E+00 -0.00000000000E+00 -0.32575327134E+03  0.32575574698E+03  0.12700000000E+01 0. -1.
         25    2    1    2    0    0  0.00000000000E+00  0.00000000000E+00 -0.31379739907E+03  0.33777888225E+03  0.12500306248E+03 0.  0.
    9000005    1    3    3    0    0 -0.31296314072E+02 -0.51960720911E+01 -0.11408187245E+02  0.33728403103E+02  0.10000000000E+01 0.  0.
    9000005    1    3    3    0    0  0.31296314072E+02  0.51960720911E+01 -0.30238921183E+03  0.30405047915E+03  0.10000000000E+01 0.  0.
<mgrwt>
<rscale>  0 0.12500306E+03</rscale>
<asrwt>0</asrwt>
<pdfrwt beam="2">  1        4 0.50121246E-01 0.12500306E+03</pdfrwt>
<pdfrwt beam="1">  1       -4 0.18447297E-02 0.12500306E+03</pdfrwt>
<totfact> 0.71085472E+03</totfact>
</mgrwt>
</event>
<event>
 5    1  0.3209683E-002  0.1249969E+03  0.7818608E-02  0.1235074E+00
          4   -1    0    0  501    0  0.00000000000E+00  0.00000000000E+00  0.26701288414E+02  0.26731474015E+02  0.12700000000E+01 0.  1.
         -4   -1    0    0    0  501 -0.00000000000E+00 -0.00000000000E+00 -0.14617165789E+03  0.14617717493E+03  0.12700000000E+01 0.  1.
         25    2    1    2    0    0  0.00000000000E+00  0.00000000000E+00 -0.11947036948E+03  0.17290864894E+03  0.12499692675E+03 0.  0.
    9000005    1    3    3    0    0  0.49707703369E+02 -0.30168231291E+00 -0.73499630180E+01  0.50259016532E+02  0.10000000000E+01 0.  0.
    9000005    1    3    3    0    0 -0.49707703369E+02  0.30168231291E+00 -0.11212040646E+03  0.12264963241E+03  0.10000000000E+01 0.  0.
<mgrwt>
<rscale>  0 0.12499693E+03</rscale>
<asrwt>0</asrwt>
<pdfrwt beam="1">  1        4 0.41106370E-02 0.12499693E+03</pdfrwt>
<pdfrwt beam="2">  1       -4 0.22490693E-01 0.12499693E+03</pdfrwt>
<totfact> 0.94915813E+03</totfact>
</mgrwt>
</event>
<event>
 5    1  0.3209683E-002  0.1250103E+03  0.7818608E-02  0.1235053E+00
         -4   -1    0    0    0  501 -0.00000000000E+00  0.00000000000E+00  0.98491964697E+01  0.99307386986E+01  0.12700000000E+01 0.  1.
          4   -1    0    0  501    0  0.00000000000E+00 -0.00000000000E+00 -0.39495379056E+03  0.39495583244E+03  0.12700000000E+01 0.  1.
         25    2    1    2    0    0  0.00000000000E+00  0.00000000000E+00 -0.38510459409E+03  0.40488657114E+03  0.12501034796E+03 0.  0.
    9000005    1    3    3    0    0 -0.43548661906E+02  0.16499670898E+02 -0.32754452938E+03  0.33084005776E+03  0.10000000000E+01 0.  0.
    9000005    1    3    3    0    0  0.43548661906E+02 -0.16499670898E+02 -0.57560064709E+02  0.74046513374E+02  0.10000000000E+01 0.  0.
<mgrwt>
<rscale>  0 0.12501035E+03</rscale>
<asrwt>0</asrwt>
<pdfrwt beam="2">  1        4 0.60768539E-01 0.12501035E+03</pdfrwt>
<pdfrwt beam="1">  1       -4 0.15216909E-02 0.12501035E+03</pdfrwt>
<totfact> 0.64065658E+03</totfact>
</mgrwt>
</event>
<event>
 5    1  0.3209683E-002  0.1250009E+03  0.7818608E-02  0.1235068E+00
         -4   -1    0    0    0  501 -0.00000000000E+00  0.00000000000E+00  0.15146400389E+03  0.15146932817E+03  0.12700000000E+01 0. -1.
          4   -1    0    0  501    0  0.00000000000E+00 -0.00000000000E+00 -0.25768897671E+02  0.25800174169E+02  0.12700000000E+01 0. -1.
         25    2    1    2    0    0  0.00000000000E+00  0.00000000000E+00  0.12569510622E+03  0.17726950234E+03  0.12500086692E+03 0.  0.
    9000005    1    3    3    0    0 -0.20374236736E+02 -0.43620889696E+02  0.63452802864E+01  0.48571124368E+02  0.10000000000E+01 0.  0.
    9000005    1    3    3    0    0  0.20374236736E+02  0.43620889696E+02  0.11934982594E+03  0.12869837797E+03  0.10000000000E+01 0.  0.
<mgrwt>
<rscale>  0 0.12500087E+03</rscale>
<asrwt>0</asrwt>
<pdfrwt beam="2">  1        4 0.39672612E-02 0.12500087E+03</pdfrwt>
<pdfrwt beam="1">  1       -4 0.23304970E-01 0.12500087E+03</pdfrwt>
<totfact> 0.94108993E+03</totfact>
</mgrwt>
</event>
<event>
 5    1  0.3209683E-002  0.1249999E+03  0.7818608E-02  0.1235069E+00
          4   -1    0    0  501    0  0.00000000000E+00  0.00000000000E+00  0.20877084518E+02  0.20915677325E+02  0.12700000000E+01 0. -1.
         -4   -1    0    0    0  501 -0.00000000000E+00 -0.00000000000E+00 -0.18689317521E+03  0.18689749019E+03  0.12700000000E+01 0. -1.
         25    2    1    2    0    0  0.00000000000E+00  0.00000000000E+00 -0.16601609069E+03  0.20781316751E+03  0.12499988090E+03 0.  0.
    9000005    1    3    3    0    0  0.11295406063E+02  0.52799814890E+02 -0.13531326912E+03  0.14569175492E+03  0.10000000000E+01 0.  0.
    9000005    1    3    3    0    0 -0.11295406063E+02 -0.52799814890E+02 -0.30702821564E+02  0.62121412593E+02  0.10000000000E+01 0.  0.
<mgrwt>
<rscale>  0 0.12499988E+03</rscale>
<asrwt>0</asrwt>
<pdfrwt beam="1">  1        4 0.32151599E-02 0.12499988E+03</pdfrwt>
<pdfrwt beam="2">  1       -4 0.28756096E-01 0.12499988E+03</pdfrwt>
<totfact> 0.88834506E+03</totfact>
</mgrwt>
</event>
<event>
 5    1  0.3209683E-002  0.1250009E+03  0.7818608E-02  0.1235068E+00
         -4   -1    0    0    0  501 -0.00000000000E+00  0.00000000000E+00  0.55790320230E+02  0.55804773374E+02  0.12700000000E+01 0.  1.
          4   -1    0    0  501    0  0.00000000000E+00 -0.00000000000E+00 -0.69988300965E+02  0.69999822657E+02  0.12700000000E+01 0.  1.
         25    2    1    2    0    0  0.00000000000E+00  0.00000000000E+00 -0.14197980735E+02  0.12580459603E+03  0.12500085490E+03 0.  0.
    9000005    1    3    3    0    0  0.80260764923E+00 -0.51669931978E+02 -0.42465763970E+02  0.66893700445E+02  0.10000000000E+01 0.  0.
    9000005    1    3    3    0    0 -0.80260764923E+00  0.51669931978E+02  0.28267783235E+02  0.58910895586E+02  0.10000000000E+01 0.  0.
<mgrwt>
<rscale>  0 0.12500085E+03</rscale>
<asrwt>0</asrwt>
<pdfrwt beam="2">  1        4 0.10769429E-01 0.12500085E+03</pdfrwt>
<pdfrwt beam="1">  1       -4 0.85851242E-02 0.12500085E+03</pdfrwt>
<totfact> 0.10435043E+04</totfact>
</mgrwt>
</event>
<event>
 5    1  0.3209683E-002  0.1250044E+03  0.7818608E-02  0.1235062E+00
          4   -1    0    0  501    0  0.00000000000E+00  0.00000000000E+00  0.17934274075E+02  0.17979184814E+02  0.12700000000E+01 0. -1.
         -4   -1    0    0    0  501 -0.00000000000E+00 -0.00000000000E+00 -0.21750524131E+03  0.21750894901E+03  0.12700000000E+01 0. -1.
         25    2    1    2    0    0  0.00000000000E+00  0.00000000000E+00 -0.19957096724E+03  0.23548813382E+03  0.12500436075E+03 0.  0.
    9000005    1    3    3    0    0  0.27511363579E+02 -0.51435083454E+02 -0.57532028768E+02  0.81935201653E+02  0.10000000000E+01 0.  0.
    9000005    1    3    3    0    0 -0.27511363579E+02  0.51435083454E+02 -0.14203893847E+03  0.15355293217E+03  0.10000000000E+01 0.  0.
<mgrwt>
<rscale>  0 0.12500436E+03</rscale>
<asrwt>0</asrwt>
<pdfrwt beam="1">  1        4 0.27628591E-02 0.12500436E+03</pdfrwt>
<pdfrwt beam="2">  1       -4 0.33466083E-01 0.12500436E+03</pdfrwt>
<totfact> 0.84465738E+03</totfact>
</mgrwt>
</event>
<event>
 5    1  0.3209683E-002  0.1250023E+03  0.7818608E-02  0.1235066E+00
         -4   -1    0    0    0  501 -0.00000000000E+00  0.00000000000E+00  0.52409887668E+02  0.52425272774E+02  0.12700000000E+01 0.  1.
          4   -1    0    0  501    0  0.00000000000E+00 -0.00000000000E+00 -0.74503669707E+02  0.74514493219E+02  0.12700000000E+01 0.  1.
         25    2    1    2    0    0  0.00000000000E+00  0.00000000000E+00 -0.22093782038E+02  0.12693976599E+03  0.12500227592E+03 0.  0.
    9000005    1    3    3    0    0  0.52978024361E+02 -0.19275197791E+01  0.22556878127E+02  0.57621169275E+02  0.10000000000E+01 0.  0.
    9000005    1    3    3    0    0 -0.52978024361E+02  0.19275197791E+01 -0.44650660166E+02  0.69318596718E+02  0.10000000000E+01 0.  0.
<mgrwt>
<rscale>  0 0.12500228E+03</rscale>
<asrwt>0</asrwt>
<pdfrwt beam="2">  1        4 0.11464119E-01 0.12500228E+03</pdfrwt>
<pdfrwt beam="1">  1       -4 0.80650757E-02 0.12500228E+03</pdfrwt>
<totfact> 0.10409920E+04</totfact>
</mgrwt>
</event>
<event>
 5    1  0.3209683E-002  0.1249916E+03  0.7818608E-02  0.1235082E+00
         -4   -1    0    0    0  501 -0.00000000000E+00  0.00000000000E+00  0.21745069869E+03  0.21745440731E+03  0.12700000000E+01 0.  1.
          4   -1    0    0  501    0  0.00000000000E+00 -0.00000000000E+00 -0.17935124974E+02  0.17980033588E+02  0.12700000000E+01 0.  1.
         25    2    1    2    0    0  0.00000000000E+00  0.00000000000E+00  0.19951557371E+03  0.23543444090E+03  0.12499164695E+03 0.  0.
    9000005    1    3    3    0    0  0.22428051251E+02 -0.24212911244E+00 -0.10100781439E+02  0.24619136766E+02  0.10000000000E+01 0.  0.
    9000005    1    3    3    0    0 -0.22428051251E+02  0.24212911244E+00  0.20961635515E+03  0.21081530413E+03  0.10000000000E+01 0.  0.
<mgrwt>
<rscale>  0 0.12499165E+03</rscale>
<asrwt>0</asrwt>
<pdfrwt beam="2">  1        4 0.27629897E-02 0.12499165E+03</pdfrwt>
<pdfrwt beam="1">  1       -4 0.33457695E-01 0.12499165E+03</pdfrwt>
<totfact> 0.84497797E+03</totfact>
</mgrwt>
</event>
<event>
 5    1  0.3209683E-002  0.1250178E+03  0.7818608E-02  0.1235041E+00
          4   -1    0    0  501    0  0.00000000000E+00  0.00000000000E+00  0.76052192543E+03  0.76052298582E+03  0.12700000000E+01 0. -1.
         -4   -1    0    0    0  501 -0.00000000000E+00 -0.00000000000E+00 -0.50581739994E+01  0.52151725003E+01  0.12700000000E+01 0. -1.
         25    2    1    2    0    0  0.00000000000E+00  0.00000000000E+00  0.75546375144E+03  0.76573815832E+03  0.12501778826E+03 0.  0.
    9000005    1    3    3    0    0 -0.30569491811E+02 -0.42246862464E+02  0.16670063240E+03  0.17466937929E+03  0.10000000000E+01 0.  0.
    9000005    1    3    3    0    0  0.30569491811E+02  0.42246862464E+02  0.58876311904E+03  0.59106877904E+03  0.10000000000E+01 0.  0.
<mgrwt>
<rscale>  0 0.12501779E+03</rscale>
<asrwt>0</asrwt>
<pdfrwt beam="1">  1        4 0.11701554E+00 0.12501779E+03</pdfrwt>
<pdfrwt beam="2">  1       -4 0.79033892E-03 0.12501779E+03</pdfrwt>
<totfact> 0.39816968E+03</totfact>
</mgrwt>
</event>
<event>
 5    1  0.3209683E-002  0.1249902E+03  0.7818608E-02  0.1235085E+00
          4   -1    0    0  501    0  0.00000000000E+00  0.00000000000E+00  0.18252869060E+02  0.18296997812E+02  0.12700000000E+01 0.  1.
         -4   -1    0    0    0  501 -0.00000000000E+00 -0.00000000000E+00 -0.21366948894E+03  0.21367326320E+03  0.12700000000E+01 0.  1.
         25    2    1    2    0    0  0.00000000000E+00  0.00000000000E+00 -0.19541661988E+03  0.23197026101E+03  0.12499018628E+03 0.  0.
    9000005    1    3    3    0    0  0.60031959488E+02  0.43526376927E+01 -0.66550328993E+02  0.89736992951E+02  0.10000000000E+01 0.  0.
    9000005    1    3    3    0    0 -0.60031959488E+02 -0.43526376927E+01 -0.12886629089E+03  0.14223326806E+03  0.10000000000E+01 0.  0.
<mgrwt>
<rscale>  0 0.12499019E+03</rscale>
<asrwt>0</asrwt>
<pdfrwt beam="1">  1        4 0.28118187E-02 0.12499019E+03</pdfrwt>
<pdfrwt beam="2">  1       -4 0.32875912E-01 0.12499019E+03</pdfrwt>
<totfact> 0.85026591E+03</totfact>
</mgrwt>
</event>
<event>
 5    1  0.3209683E-002  0.1250054E+03  0.7818608E-02  0.1235061E+00
          4   -1    0    0  501    0  0.00000000000E+00  0.00000000000E+00  0.25572981778E+02  0.25604497594E+02  0.12700000000E+01 0.  1.
         -4   -1    0    0    0  501 -0.00000000000E+00 -0.00000000000E+00 -0.15263400818E+03  0.15263929164E+03  0.12700000000E+01 0.  1.
         25    2    1    2    0    0  0.00000000000E+00  0.00000000000E+00 -0.12706102640E+03  0.17824378924E+03  0.12500537577E+03 0.  0.
    9000005    1    3    3    0    0 -0.21861872532E+02 -0.43335045855E+02 -0.73983085207E+01  0.49108071015E+02  0.10000000000E+01 0.  0.
    9000005    1    3    3    0    0  0.21861872532E+02  0.43335045855E+02 -0.11966271788E+03  0.12913571822E+03  0.10000000000E+01 0.  0.
<mgrwt>
<rscale>  0 0.12500538E+03</rscale>
<asrwt>0</asrwt>
<pdfrwt beam="1">  1        4 0.39371357E-02 0.12500538E+03</pdfrwt>
<pdfrwt beam="2">  1       -4 0.23484985E-01 0.12500538E+03</pdfrwt>
<totfact> 0.93922762E+03</totfact>
</mgrwt>
</event>
<event>
 5    1  0.3209683E-002  0.1250011E+03  0.7818608E-02  0.1235068E+00
          4   -1    0    0  501    0  0.00000000000E+00  0.00000000000E+00  0.35898830087E+03  0.35899054732E+03  0.12700000000E+01 0.  1.
         -4   -1    0    0    0  501 -0.00000000000E+00 -0.00000000000E+00 -0.10842117689E+02  0.10916245507E+02  0.12700000000E+01 0.  1.
         25    2    1    2    0    0  0.00000000000E+00  0.00000000000E+00  0.34814618318E+03  0.36990679283E+03  0.12500108205E+03 0.  0.
    9000005    1    3    3    0    0  0.49295617877E+02 -0.18911524828E+02  0.75143905886E+02  0.91843945391E+02  0.10000000000E+01 0.  0.
    9000005    1    3    3    0    0 -0.49295617877E+02  0.18911524828E+02  0.27300227730E+03  0.27806284743E+03  0.10000000000E+01 0.  0.
<mgrwt>
<rscale>  0 0.12500108E+03</rscale>
<asrwt>0</asrwt>
<pdfrwt beam="1">  1        4 0.55234853E-01 0.12500108E+03</pdfrwt>
<pdfrwt beam="2">  1       -4 0.16738928E-02 0.12500108E+03</pdfrwt>
<totfact> 0.67587065E+03</totfact>
</mgrwt>
</event>
<event>
 5    1  0.3209683E-002  0.1250054E+03  0.7818608E-02  0.1235061E+00
          4   -1    0    0  501    0  0.00000000000E+00  0.00000000000E+00  0.98249262833E+03  0.98249344915E+03  0.12700000000E+01 0.  1.
         -4   -1    0    0    0  501 -0.00000000000E+00 -0.00000000000E+00 -0.38739493500E+01  0.40768104649E+01  0.12700000000E+01 0.  1.
         25    2    1    2    0    0  0.00000000000E+00  0.00000000000E+00  0.97861867898E+03  0.98657025961E+03  0.12500543311E+03 0.  0.
    9000005    1    3    3    0    0 -0.42739599805E+02 -0.30681586974E+02  0.22312310020E+03  0.22924430421E+03  0.10000000000E+01 0.  0.
    9000005    1    3    3    0    0  0.42739599805E+02  0.30681586974E+02  0.75549557878E+03  0.75732595540E+03  0.10000000000E+01 0.  0.
<mgrwt>
<rscale>  0 0.12500543E+03</rscale>
<asrwt>0</asrwt>
<pdfrwt beam="1">  1        4 0.15116860E+00 0.12500543E+03</pdfrwt>
<pdfrwt beam="2">  1       -4 0.61165915E-03 0.12500543E+03</pdfrwt>
<totfact> 0.31048372E+03</totfact>
</mgrwt>
</event>
<event>
 5    1  0.3209683E-002  0.1249766E+03  0.7818608E-02  0.1235106E+00
         -4   -1    0    0    0  501 -0.00000000000E+00  0.00000000000E+00  0.39945507781E+03  0.39945709668E+03  0.12700000000E+01 0.  1.
          4   -1    0    0  501    0  0.00000000000E+00 -0.00000000000E+00 -0.97319778535E+01  0.98144940237E+01  0.12700000000E+01 0.  1.
         25    2    1    2    0    0  0.00000000000E+00  0.00000000000E+00  0.38972309996E+03  0.40927159070E+03  0.12497655907E+03 0.  0.
    9000005    1    3    3    0    0 -0.43924342766E+02 -0.17786670137E+02  0.61514113539E+02  0.77657579710E+02  0.10000000000E+01 0.  0.
    9000005    1    3    3    0    0  0.43924342766E+02  0.17786670137E+02  0.32820898642E+03  0.33161401099E+03  0.10000000000E+01 0.  0.
<mgrwt>
<rscale>  0 0.12497656E+03</rscale>
<asrwt>0</asrwt>
<pdfrwt beam="2">  1        4 0.15037302E-02 0.12497656E+03</pdfrwt>
<pdfrwt beam="1">  1       -4 0.61461124E-01 0.12497656E+03</pdfrwt>
<totfact> 0.63693869E+03</totfact>
</mgrwt>
</event>
<event>
 5    1  0.3209683E-002  0.1249998E+03  0.7818608E-02  0.1235070E+00
         -4   -1    0    0    0  501 -0.00000000000E+00  0.00000000000E+00  0.46153171955E+03  0.46153346688E+03  0.12700000000E+01 0. -1.
          4   -1    0    0  501    0  0.00000000000E+00 -0.00000000000E+00 -0.84142233867E+01  0.85095273195E+01  0.12700000000E+01 0. -1.
         25    2    1    2    0    0  0.00000000000E+00  0.00000000000E+00  0.45311749616E+03  0.47004299420E+03  0.12499980427E+03 0.  0.
    9000005    1    3    3    0    0 -0.22622841393E+02 -0.31297833337E+02  0.41807649837E+02  0.56922991042E+02  0.10000000000E+01 0.  0.
    9000005    1    3    3    0    0  0.22622841393E+02  0.31297833337E+02  0.41130984632E+03  0.41312000315E+03  0.10000000000E+01 0.  0.
<mgrwt>
<rscale>  0 0.12499980E+03</rscale>
<asrwt>0</asrwt>
<pdfrwt beam="2">  1        4 0.13019610E-02 0.12499980E+03</pdfrwt>
<pdfrwt beam="1">  1       -4 0.71012365E-01 0.12499980E+03</pdfrwt>
<totfact> 0.58266198E+03</totfact>
</mgrwt>
</event>
<event>
 5    1  0.3209683E-002  0.1250017E+03  0.7818608E-02  0.1235067E+00
         -4   -1    0    0    0  501 -0.00000000000E+00  0.00000000000E+00  0.14472393582E+02  0.14528010050E+02  0.12700000000E+01 0. -1.
          4   -1    0    0  501    0  0.00000000000E+00 -0.00000000000E+00 -0.26934296017E+03  0.26934595429E+03  0.12700000000E+01 0. -1.
         25    2    1    2    0    0  0.00000000000E+00  0.00000000000E+00 -0.25487056659E+03  0.28387396434E+03  0.12500168766E+03 0.  0.
    9000005    1    3    3    0    0  0.60894230506E+01 -0.54966264139E+02 -0.61343519195E+02  0.82597812403E+02  0.10000000000E+01 0.  0.
    9000005    1    3    3    0    0 -0.60894230506E+01  0.54966264139E+02 -0.19352704739E+03  0.20127615194E+03  0.10000000000E+01 0.  0.
<mgrwt>
<rscale>  0 0.12500169E+03</rscale>
<asrwt>0</asrwt>
<pdfrwt beam="2">  1        4 0.41441883E-01 0.12500169E+03</pdfrwt>
<pdfrwt beam="1">  1       -4 0.22310308E-02 0.12500169E+03</pdfrwt>
<totfact> 0.77664323E+03</totfact>
</mgrwt>
</event>
<event>
 5    1  0.3209683E-002  0.1250028E+03  0.7818608E-02  0.1235065E+00
          4   -1    0    0  501    0  0.00000000000E+00  0.00000000000E+00  0.80272473449E+02  0.80282519228E+02  0.12700000000E+01 0. -1.
         -4   -1    0    0    0  501 -0.00000000000E+00 -0.00000000000E+00 -0.48643192221E+02  0.48659768284E+02  0.12700000000E+01 0. -1.
         25    2    1    2    0    0  0.00000000000E+00  0.00000000000E+00  0.31629281228E+02  0.12894228751E+03  0.12500280828E+03 0.  0.
    9000005    1    3    3    0    0  0.22317401771E+02  0.22664434060E+02 -0.39673611105E+02  0.50859988313E+02  0.10000000000E+01 0.  0.
    9000005    1    3    3    0    0 -0.22317401771E+02 -0.22664434060E+02  0.71302892334E+02  0.78082299199E+02  0.10000000000E+01 0.  0.
<mgrwt>
<rscale>  0 0.12500281E+03</rscale>
<asrwt>0</asrwt>
<pdfrwt beam="1">  1        4 0.12351659E-01 0.12500281E+03</pdfrwt>
<pdfrwt beam="2">  1       -4 0.74856159E-02 0.12500281E+03</pdfrwt>
<totfact> 0.10366530E+04</totfact>
</mgrwt>
</event>
<event>
 5    1  0.3209683E-002  0.1249807E+03  0.7818608E-02  0.1235099E+00
         -4   -1    0    0    0  501 -0.00000000000E+00  0.00000000000E+00  0.28546991894E+02  0.28575227841E+02  0.12700000000E+01 0. -1.
          4   -1    0    0  501    0  0.00000000000E+00 -0.00000000000E+00 -0.13669472062E+03  0.13670062014E+03  0.12700000000E+01 0. -1.
         25    2    1    2    0    0  0.00000000000E+00  0.00000000000E+00 -0.10814772873E+03  0.16527584798E+03  0.12498069729E+03 0.  0.
    9000005    1    3    3    0    0  0.33405963906E+02 -0.19337021308E+02  0.10901677870E+02  0.40121383300E+02  0.10000000000E+01 0.  0.
    9000005    1    3    3    0    0 -0.33405963906E+02  0.19337021308E+02 -0.11904940660E+03  0.12515446468E+03  0.10000000000E+01 0.  0.
<mgrwt>
<rscale>  0 0.12498070E+03</rscale>
<asrwt>0</asrwt>
<pdfrwt beam="2">  1        4 0.21032582E-01 0.12498070E+03</pdfrwt>
<pdfrwt beam="1">  1       -4 0.43944708E-02 0.12498070E+03</pdfrwt>
<totfact> 0.96376961E+03</totfact>
</mgrwt>
</event>
<event>
 5    1  0.3209683E-002  0.1249812E+03  0.7818608E-02  0.1235099E+00
          4   -1    0    0  501    0  0.00000000000E+00  0.00000000000E+00  0.18853863721E+03  0.18854291453E+03  0.12700000000E+01 0. -1.
         -4   -1    0    0    0  501 -0.00000000000E+00 -0.00000000000E+00 -0.20688350241E+02  0.20727294461E+02  0.12700000000E+01 0. -1.
         25    2    1    2    0    0  0.00000000000E+00  0.00000000000E+00  0.16785028697E+03  0.20927020899E+03  0.12498120473E+03 0.  0.
    9000005    1    3    3    0    0  0.52198153135E+02 -0.25612495560E+02  0.12223330295E+03  0.13536110028E+03  0.10000000000E+01 0.  0.
    9000005    1    3    3    0    0 -0.52198153135E+02  0.25612495560E+02  0.45616984017E+02  0.73909108710E+02  0.10000000000E+01 0.  0.
<mgrwt>
<rscale>  0 0.12498120E+03</rscale>
<asrwt>0</asrwt>
<pdfrwt beam="1">  1        4 0.29009268E-01 0.12498120E+03</pdfrwt>
<pdfrwt beam="2">  1       -4 0.31861480E-02 0.12498120E+03</pdfrwt>
<totfact> 0.88632445E+03</totfact>
</mgrwt>
</event>
<event>
 5    1  0.3209683E-002  0.1250066E+03  0.7818608E-02  0.1235059E+00
         -4   -1    0    0    0  501 -0.00000000000E+00  0.00000000000E+00  0.16378175747E+04  0.16378180671E+04  0.12700000000E+01 0. -1.
          4   -1    0    0  501    0  0.00000000000E+00 -0.00000000000E+00 -0.22157116330E+01  0.25538751027E+01  0.12700000000E+01 0. -1.
         25    2    1    2    0    0  0.00000000000E+00  0.00000000000E+00  0.16356018630E+04  0.16403719422E+04  0.12500661692E+03 0.  0.
    9000005    1    3    3    0    0  0.36407617324E+00  0.33158780128E+02  0.15129135947E+04  0.15132772985E+04  0.10000000000E+01 0.  0.
    9000005    1    3    3    0    0 -0.36407617324E+00 -0.33158780128E+02  0.12268826839E+03  0.12709464368E+03  0.10000000000E+01 0.  0.
<mgrwt>
<rscale>  0 0.12500662E+03</rscale>
<asrwt>0</asrwt>
<pdfrwt beam="2">  1        4 0.36692917E-03 0.12500662E+03</pdfrwt>
<pdfrwt beam="1">  1       -4 0.25199798E+00 0.12500662E+03</pdfrwt>
<totfact> 0.15325194E+03</totfact>
</mgrwt>
</event>
<event>
 5    1  0.3209683E-002  0.1250028E+03  0.7818608E-02  0.1235065E+00
         -4   -1    0    0    0  501 -0.00000000000E+00  0.00000000000E+00  0.14027419248E+02  0.14084792890E+02  0.12700000000E+01 0. -1.
          4   -1    0    0  501    0  0.00000000000E+00 -0.00000000000E+00 -0.27785762399E+03  0.27786052636E+03  0.12700000000E+01 0. -1.
         25    2    1    2    0    0  0.00000000000E+00  0.00000000000E+00 -0.26383020475E+03  0.29194531925E+03  0.12500276996E+03 0.  0.
    9000005    1    3    3    0    0  0.71973033008E+01 -0.60392319879E+02 -0.98362528869E+02  0.11565128863E+03  0.10000000000E+01 0.  0.
    9000005    1    3    3    0    0 -0.71973033008E+01  0.60392319879E+02 -0.16546767588E+03  0.17629403063E+03  0.10000000000E+01 0.  0.
<mgrwt>
<rscale>  0 0.12500277E+03</rscale>
<asrwt>0</asrwt>
<pdfrwt beam="2">  1        4 0.42751959E-01 0.12500277E+03</pdfrwt>
<pdfrwt beam="1">  1       -4 0.21627013E-02 0.12500277E+03</pdfrwt>
<totfact> 0.76615728E+03</totfact>
</mgrwt>
</event>
<event>
 5    1  0.3209683E-002  0.1249590E+03  0.7818608E-02  0.1235133E+00
          4   -1    0    0  501    0  0.00000000000E+00  0.00000000000E+00  0.73600940745E+02  0.73611896991E+02  0.12700000000E+01 0. -1.
         -4   -1    0    0    0  501 -0.00000000000E+00 -0.00000000000E+00 -0.53016064463E+02  0.53031273708E+02  0.12700000000E+01 0. -1.
         25    2    1    2    0    0  0.00000000000E+00  0.00000000000E+00  0.20584876283E+02  0.12664317070E+03  0.12495901549E+03 0.  0.
    9000005    1    3    3    0    0 -0.43566373308E+02 -0.16063271306E+02 -0.32063548441E+02  0.56436944521E+02  0.10000000000E+01 0.  0.
    9000005    1    3    3    0    0  0.43566373308E+02  0.16063271306E+02  0.52648424724E+02  0.70206226178E+02  0.10000000000E+01 0.  0.
<mgrwt>
<rscale>  0 0.12495902E+03</rscale>
<asrwt>0</asrwt>
<pdfrwt beam="1">  1        4 0.11325234E-01 0.12495902E+03</pdfrwt>
<pdfrwt beam="2">  1       -4 0.81583303E-02 0.12495902E+03</pdfrwt>
<totfact> 0.10426550E+04</totfact>
</mgrwt>
</event>
<event>
 5    1  0.3209683E-002  0.1249963E+03  0.7818608E-02  0.1235075E+00
          4   -1    0    0  501    0  0.00000000000E+00  0.00000000000E+00  0.11759552326E+03  0.11760238089E+03  0.12700000000E+01 0.  1.
         -4   -1    0    0    0  501 -0.00000000000E+00 -0.00000000000E+00 -0.33195750806E+02  0.33220035695E+02  0.12700000000E+01 0.  1.
         25    2    1    2    0    0  0.00000000000E+00  0.00000000000E+00  0.84399772458E+02  0.15082241659E+03  0.12499631897E+03 0.  0.
    9000005    1    3    3    0    0 -0.42268542455E+02 -0.45567501335E+02  0.34380772431E+02  0.71035655639E+02  0.10000000000E+01 0.  0.
    9000005    1    3    3    0    0  0.42268542455E+02  0.45567501335E+02  0.50019000028E+02  0.79786760950E+02  0.10000000000E+01 0.  0.
<mgrwt>
<rscale>  0 0.12499632E+03</rscale>
<asrwt>0</asrwt>
<pdfrwt beam="1">  1        4 0.18094014E-01 0.12499632E+03</pdfrwt>
<pdfrwt beam="2">  1       -4 0.51094342E-02 0.12499632E+03</pdfrwt>
<totfact> 0.99148227E+03</totfact>
</mgrwt>
</event>
<event>
 5    1  0.3209683E-002  0.1250004E+03  0.7818608E-02  0.1235069E+00
          4   -1    0    0  501    0  0.00000000000E+00  0.00000000000E+00  0.44991865493E+02  0.45009786275E+02  0.12700000000E+01 0. -1.
         -4   -1    0    0    0  501 -0.00000000000E+00 -0.00000000000E+00 -0.86781953637E+02  0.86791245971E+02  0.12700000000E+01 0. -1.
         25    2    1    2    0    0  0.00000000000E+00  0.00000000000E+00 -0.41790088144E+02  0.13180103225E+03  0.12500040254E+03 0.  0.
    9000005    1    3    3    0    0  0.20873483361E+02 -0.56387043294E+02 -0.38853208812E+02  0.71594502540E+02  0.10000000000E+01 0.  0.
    9000005    1    3    3    0    0 -0.20873483361E+02  0.56387043294E+02 -0.29368793325E+01  0.60206529706E+02  0.10000000000E+01 0.  0.
<mgrwt>
<rscale>  0 0.12500040E+03</rscale>
<asrwt>0</asrwt>
<pdfrwt beam="1">  1        4 0.69239188E-02 0.12500040E+03</pdfrwt>
<pdfrwt beam="2">  1       -4 0.13353163E-01 0.12500040E+03</pdfrwt>
<totfact> 0.10305853E+04</totfact>
</mgrwt>
</event>
<event>
 5    1  0.3209683E-002  0.1250015E+03  0.7818608E-02  0.1235067E+00
         -4   -1    0    0    0  501 -0.00000000000E+00  0.00000000000E+00  0.87073561673E+03  0.87073654290E+03  0.12700000000E+01 0.  1.
          4   -1    0    0  501    0  0.00000000000E+00 -0.00000000000E+00 -0.43954292443E+01  0.45752265782E+01  0.12700000000E+01 0.  1.
         25    2    1    2    0    0  0.00000000000E+00  0.00000000000E+00  0.86634018749E+03  0.87531176948E+03  0.12500149333E+03 0.  0.
    9000005    1    3    3    0    0  0.46873789972E+02  0.17515975181E+02  0.69530556801E+03  0.69710457930E+03  0.10000000000E+01 0.  0.
    9000005    1    3    3    0    0 -0.46873789972E+02 -0.17515975181E+02  0.17103461948E+03  0.17820719018E+03  0.10000000000E+01 0.  0.
<mgrwt>
<rscale>  0 0.12500149E+03</rscale>
<asrwt>0</asrwt>
<pdfrwt beam="2">  1        4 0.69012131E-03 0.12500149E+03</pdfrwt>
<pdfrwt beam="1">  1       -4 0.13397330E+00 0.12500149E+03</pdfrwt>
<totfact> 0.35112171E+03</totfact>
</mgrwt>
</event>
<event>
 5    1  0.3209683E-002  0.1249996E+03  0.7818608E-02  0.1235070E+00
          4   -1    0    0  501    0  0.00000000000E+00  0.00000000000E+00  0.26213829246E+03  0.26214136887E+03  0.12700000000E+01 0.  1.
         -4   -1    0    0    0  501 -0.00000000000E+00 -0.00000000000E+00 -0.14871167226E+02  0.14925297808E+02  0.12700000000E+01 0.  1.
         25    2    1    2    0    0  0.00000000000E+00  0.00000000000E+00  0.24726712524E+03  0.27706666668E+03  0.12499962625E+03 0.  0.
    9000005    1    3    3    0    0 -0.48612713563E+02 -0.45144471813E+01  0.21009710414E+03  0.21569740221E+03  0.10000000000E+01 0.  0.
    9000005    1    3    3    0    0  0.48612713563E+02  0.45144471813E+01  0.37170021098E+02  0.61369264471E+02  0.10000000000E+01 0.  0.
<mgrwt>
<rscale>  0 0.12499963E+03</rscale>
<asrwt>0</asrwt>
<pdfrwt beam="1">  1        4 0.40333367E-01 0.12499963E+03</pdfrwt>
<pdfrwt beam="2">  1       -4 0.22922725E-02 0.12499963E+03</pdfrwt>
<totfact> 0.78569311E+03</totfact>
</mgrwt>
</event>
<event>
 5    1  0.3209683E-002  0.1250012E+03  0.7818608E-02  0.1235067E+00
         -4   -1    0    0    0  501 -0.00000000000E+00  0.00000000000E+00  0.12975195744E+03  0.12975817261E+03  0.12700000000E+01 0. -1.
          4   -1    0    0  501    0  0.00000000000E+00 -0.00000000000E+00 -0.30085782527E+02  0.30112575616E+02  0.12700000000E+01 0. -1.
         25    2    1    2    0    0  0.00000000000E+00  0.00000000000E+00  0.99666174912E+02  0.15987074823E+03  0.12500123886E+03 0.  0.
    9000005    1    3    3    0    0  0.38845178148E+02  0.40441588405E+02  0.14554892917E+02  0.57942340700E+02  0.10000000000E+01 0.  0.
    9000005    1    3    3    0    0 -0.38845178148E+02 -0.40441588405E+02  0.85111281995E+02  0.10192840753E+03  0.10000000000E+01 0.  0.
<mgrwt>
<rscale>  0 0.12500124E+03</rscale>
<asrwt>0</asrwt>
<pdfrwt beam="2">  1        4 0.46311211E-02 0.12500124E+03</pdfrwt>
<pdfrwt beam="1">  1       -4 0.19964379E-01 0.12500124E+03</pdfrwt>
<totfact> 0.97364998E+03</totfact>
</mgrwt>
</event>
<event>
 5    1  0.3209683E-002  0.1249995E+03  0.7818608E-02  0.1235070E+00
          4   -1    0    0  501    0  0.00000000000E+00  0.00000000000E+00  0.58914652152E+02  0.58928339008E+02  0.12700000000E+01 0.  1.
         -4   -1    0    0    0  501 -0.00000000000E+00 -0.00000000000E+00 -0.66275524671E+02  0.66287691697E+02  0.12700000000E+01 0.  1.
         25    2    1    2    0    0  0.00000000000E+00  0.00000000000E+00 -0.73608725194E+01  0.12521603070E+03  0.12499948760E+03 0.  0.
    9000005    1    3    3    0    0  0.23025866518E+02  0.54269025928E+02  0.17089518928E+02  0.61387045549E+02  0.10000000000E+01 0.  0.
    9000005    1    3    3    0    0 -0.23025866518E+02 -0.54269025928E+02 -0.24450391447E+02  0.63828985155E+02  0.10000000000E+01 0.  0.
<mgrwt>
<rscale>  0 0.12499949E+03</rscale>
<asrwt>0</asrwt>
<pdfrwt beam="1">  1        4 0.90657814E-02 0.12499949E+03</pdfrwt>
<pdfrwt beam="2">  1       -4 0.10198223E-01 0.12499949E+03</pdfrwt>
<totfact> 0.10448293E+04</totfact>
</mgrwt>
</event>
<event>
 5    1  0.3209683E-002  0.1249995E+03  0.7818608E-02  0.1235070E+00
          4   -1    0    0  501    0  0.00000000000E+00  0.00000000000E+00  0.13772858428E+02  0.13831288055E+02  0.12700000000E+01 0.  1.
         -4   -1    0    0    0  501 -0.00000000000E+00 -0.00000000000E+00 -0.28295710906E+03  0.28295995912E+03  0.12700000000E+01 0.  1.
         25    2    1    2    0    0  0.00000000000E+00  0.00000000000E+00 -0.26918425063E+03  0.29679124718E+03  0.12499953446E+03 0.  0.
    9000005    1    3    3    0    0  0.57583134312E+02 -0.56395010983E+01 -0.19065868522E+03  0.19924697132E+03  0.10000000000E+01 0.  0.
    9000005    1    3    3    0    0 -0.57583134312E+02  0.56395010983E+01 -0.78525565409E+02  0.97544275858E+02  0.10000000000E+01 0.  0.
<mgrwt>
<rscale>  0 0.12499953E+03</rscale>
<asrwt>0</asrwt>
<pdfrwt beam="1">  1        4 0.21236153E-02 0.12499953E+03</pdfrwt>
<pdfrwt beam="2">  1       -4 0.43536572E-01 0.12499953E+03</pdfrwt>
<totfact> 0.76003897E+03</totfact>
</mgrwt>
</event>
<event>
 5    1  0.3209683E-002  0.1249958E+03  0.7818608E-02  0.1235076E+00
         -4   -1    0    0    0  501 -0.00000000000E+00  0.00000000000E+00  0.53060203167E+03  0.53060355155E+03  0.12700000000E+01 0. -1.
          4   -1    0    0  501    0  0.00000000000E+00 -0.00000000000E+00 -0.73051039188E+01  0.74146775563E+01  0.12700000000E+01 0. -1.
         25    2    1    2    0    0  0.00000000000E+00  0.00000000000E+00  0.52329692776E+03  0.53801822911E+03  0.12499576094E+03 0.  0.
    9000005    1    3    3    0    0 -0.58247663741E+02  0.91250771906E+01  0.35079279932E+03  0.35571427498E+03  0.10000000000E+01 0.  0.
    9000005    1    3    3    0    0  0.58247663741E+02 -0.91250771906E+01  0.17250412843E+03  0.18230395413E+03  0.10000000000E+01 0.  0.
<mgrwt>
<rscale>  0 0.12499576E+03</rscale>
<asrwt>0</asrwt>
<pdfrwt beam="2">  1        4 0.11324079E-02 0.12499576E+03</pdfrwt>
<pdfrwt beam="1">  1       -4 0.81639618E-01 0.12499576E+03</pdfrwt>
<totfact> 0.53035681E+03</totfact>
</mgrwt>
</event>
<event>
 5    1  0.3209683E-002  0.1249997E+03  0.7818608E-02  0.1235070E+00
         -4   -1    0    0    0  501 -0.00000000000E+00  0.00000000000E+00  0.42626683168E+02  0.42645597872E+02  0.12700000000E+01 0.  1.
          4   -1    0    0  501    0  0.00000000000E+00 -0.00000000000E+00 -0.91594561931E+02  0.91603366069E+02  0.12700000000E+01 0.  1.
         25    2    1    2    0    0  0.00000000000E+00  0.00000000000E+00 -0.48967878763E+02  0.13424896394E+03  0.12499972468E+03 0.  0.
    9000005    1    3    3    0    0 -0.45011451576E+01  0.48814462783E+02 -0.66108944787E+02  0.82307379167E+02  0.10000000000E+01 0.  0.
    9000005    1    3    3    0    0  0.45011451576E+01 -0.48814462783E+02  0.17141066024E+02  0.51941584775E+02  0.10000000000E+01 0.  0.
<mgrwt>
<rscale>  0 0.12499972E+03</rscale>
<asrwt>0</asrwt>
<pdfrwt beam="2">  1        4 0.14093603E-01 0.12499972E+03</pdfrwt>
<pdfrwt beam="1">  1       -4 0.65600835E-02 0.12499972E+03</pdfrwt>
<totfact> 0.10253989E+04</totfact>
</mgrwt>
</event>
<event>
 5    1  0.3209683E-002  0.1250002E+03  0.7818608E-02  0.1235069E+00
         -4   -1    0    0    0  501 -0.00000000000E+00  0.00000000000E+00  0.45270647068E+02  0.45288457536E+02  0.12700000000E+01 0. -1.
          4   -1    0    0  501    0  0.00000000000E+00 -0.00000000000E+00 -0.86247431054E+02  0.86256780970E+02  0.12700000000E+01 0. -1.
         25    2    1    2    0    0  0.00000000000E+00  0.00000000000E+00 -0.40976783986E+02  0.13154523851E+03  0.12500021179E+03 0.  0.
    9000005    1    3    3    0    0  0.46444008676E+02 -0.14410568537E+02  0.20816613004E+02  0.52905971349E+02  0.10000000000E+01 0.  0.
    9000005    1    3    3    0    0 -0.46444008676E+02  0.14410568537E+02 -0.61793396990E+02  0.78639267157E+02  0.10000000000E+01 0.  0.
<mgrwt>
<rscale>  0 0.12500021E+03</rscale>
<asrwt>0</asrwt>
<pdfrwt beam="2">  1        4 0.13270925E-01 0.12500021E+03</pdfrwt>
<pdfrwt beam="1">  1       -4 0.69668042E-02 0.12500021E+03</pdfrwt>
<totfact> 0.10311365E+04</totfact>
</mgrwt>
</event>
<event>
 5    1  0.3209683E-002  0.1250000E+03  0.7818608E-02  0.1235069E+00
         -4   -1    0    0    0  501 -0.00000000000E+00  0.00000000000E+00  0.20893150789E+03  0.20893536774E+03  0.12700000000E+01 0.  1.
          4   -1    0    0  501    0  0.00000000000E+00 -0.00000000000E+00 -0.18670725911E+02  0.18713869350E+02  0.12700000000E+01 0.  1.
         25    2    1    2    0    0  0.00000000000E+00  0.00000000000E+00  0.19026078198E+03  0.22764923709E+03  0.12500003994E+03 0.  0.
    9000005    1    3    3    0    0  0.60312093221E+02 -0.10752270203E+02  0.72670374047E+02  0.95053370100E+02  0.10000000000E+01 0.  0.
    9000005    1    3    3    0    0 -0.60312093221E+02  0.10752270203E+02  0.11759040794E+03  0.13259586699E+03  0.10000000000E+01 0.  0.
<mgrwt>
<rscale>  0 0.12500004E+03</rscale>
<asrwt>0</asrwt>
<pdfrwt beam="2">  1        4 0.28760350E-02 0.12500004E+03</pdfrwt>
<pdfrwt beam="1">  1       -4 0.32146924E-01 0.12500004E+03</pdfrwt>
<totfact> 0.85671794E+03</totfact>
</mgrwt>
</event>
<event>
 5    1  0.3209683E-002  0.1249956E+03  0.7818608E-02  0.1235076E+00
          4   -1    0    0  501    0  0.00000000000E+00  0.00000000000E+00  0.25959558018E+02  0.25990605081E+02  0.12700000000E+01 0. -1.
         -4   -1    0    0    0  501 -0.00000000000E+00 -0.00000000000E+00 -0.15034021720E+03  0.15034558127E+03  0.12700000000E+01 0. -1.
         25    2    1    2    0    0  0.00000000000E+00  0.00000000000E+00 -0.12438065918E+03  0.17633618635E+03  0.12499560888E+03 0.  0.
    9000005    1    3    3    0    0  0.25707607270E+02 -0.47448099535E+02 -0.10664030465E+03  0.11952136962E+03  0.10000000000E+01 0.  0.
    9000005    1    3    3    0    0 -0.25707607270E+02  0.47448099535E+02 -0.17740354534E+02  0.56814816730E+02  0.10000000000E+01 0.  0.
<mgrwt>
<rscale>  0 0.12499561E+03</rscale>
<asrwt>0</asrwt>
<pdfrwt beam="1">  1        4 0.39965791E-02 0.12499561E+03</pdfrwt>
<pdfrwt beam="2">  1       -4 0.23132064E-01 0.12499561E+03</pdfrwt>
<totfact> 0.94289977E+03</totfact>
</mgrwt>
</event>
<event>
 5    1  0.3209683E-002  0.1249993E+03  0.7818608E-02  0.1235070E+00
          4   -1    0    0  501    0  0.00000000000E+00  0.00000000000E+00  0.10814748740E+03  0.10815494409E+03  0.12700000000E+01 0.  1.
         -4   -1    0    0    0  501 -0.00000000000E+00 -0.00000000000E+00 -0.36099359097E+02  0.36121691920E+02  0.12700000000E+01 0.  1.
         25    2    1    2    0    0  0.00000000000E+00  0.00000000000E+00  0.72048128301E+02  0.14427663601E+03  0.12499925962E+03 0.  0.
    9000005    1    3    3    0    0  0.19164226385E+02 -0.50265055531E+02 -0.68231343627E+00  0.53808074971E+02  0.10000000000E+01 0.  0.
    9000005    1    3    3    0    0 -0.19164226385E+02  0.50265055531E+02  0.72730441737E+02  0.90468561035E+02  0.10000000000E+01 0.  0.
<mgrwt>
<rscale>  0 0.12499926E+03</rscale>
<asrwt>0</asrwt>
<pdfrwt beam="1">  1        4 0.16640367E-01 0.12499926E+03</pdfrwt>
<pdfrwt beam="2">  1       -4 0.55560390E-02 0.12499926E+03</pdfrwt>
<totfact> 0.10045874E+04</totfact>
</mgrwt>
</event>
<event>
 5    1  0.3209683E-002  0.1249999E+03  0.7818608E-02  0.1235069E+00
         -4   -1    0    0    0  501 -0.00000000000E+00  0.00000000000E+00  0.72406557608E+01  0.73511900973E+01  0.12700000000E+01 0.  1.
          4   -1    0    0  501    0  0.00000000000E+00 -0.00000000000E+00 -0.53528993919E+03  0.53529144575E+03  0.12700000000E+01 0.  1.
         25    2    1    2    0    0  0.00000000000E+00  0.00000000000E+00 -0.52804928342E+03  0.54264263585E+03  0.12499993806E+03 0.  0.
    9000005    1    3    3    0    0  0.48804177521E+02  0.30570965191E+02 -0.15868463208E+03  0.16881422959E+03  0.10000000000E+01 0.  0.
    9000005    1    3    3    0    0 -0.48804177521E+02 -0.30570965191E+02 -0.36936465135E+03  0.37382840625E+03  0.10000000000E+01 0.  0.
<mgrwt>
<rscale>  0 0.12499994E+03</rscale>
<asrwt>0</asrwt>
<pdfrwt beam="2">  1        4 0.82360886E-01 0.12499994E+03</pdfrwt>
<pdfrwt beam="1">  1       -4 0.11225660E-02 0.12499994E+03</pdfrwt>
<totfact> 0.52701331E+03</totfact>
</mgrwt>
</event>
<event>
 5    1  0.3209683E-002  0.1250031E+03  0.7818608E-02  0.1235064E+00
          4   -1    0    0  501    0  0.00000000000E+00  0.00000000000E+00  0.42100481425E+03  0.42100672978E+03  0.12700000000E+01 0. -1.
         -4   -1    0    0    0  501 -0.00000000000E+00 -0.00000000000E+00 -0.92334582106E+01  0.93203889687E+01  0.12700000000E+01 0. -1.
         25    2    1    2    0    0  0.00000000000E+00  0.00000000000E+00  0.41177135604E+03  0.43032711875E+03  0.12500311787E+03 0.  0.
    9000005    1    3    3    0    0  0.35994608420E+02  0.43631117054E+02  0.29736628017E+03  0.30269950577E+03  0.10000000000E+01 0.  0.
    9000005    1    3    3    0    0 -0.35994608420E+02 -0.43631117054E+02  0.11440507587E+03  0.12762761298E+03  0.10000000000E+01 0.  0.
<mgrwt>
<rscale>  0 0.12500312E+03</rscale>
<asrwt>0</asrwt>
<pdfrwt beam="1">  1        4 0.64776815E-01 0.12500312E+03</pdfrwt>
<pdfrwt beam="2">  1       -4 0.14273662E-02 0.12500312E+03</pdfrwt>
<totfact> 0.61702103E+03</totfact>
</mgrwt>
</event>
<event>
 5    1  0.3209683E-002  0.1249995E+03  0.7818608E-02  0.1235070E+00
          4   -1    0    0  501    0  0.00000000000E+00  0.00000000000E+00  0.42027798980E+02  0.42046983092E+02  0.12700000000E+01 0.  1.
         -4   -1    0    0    0  501 -0.00000000000E+00 -0.00000000000E+00 -0.92898937845E+02  0.92907618378E+02  0.12700000000E+01 0.  1.
         25    2    1    2    0    0  0.00000000000E+00  0.00000000000E+00 -0.50871138865E+02  0.13495460147E+03  0.12499948675E+03 0.  0.
    9000005    1    3    3    0    0 -0.52727995927E+02  0.29095487977E+02 -0.74204701558E+01  0.60686508817E+02  0.10000000000E+01 0.  0.
    9000005    1    3    3    0    0  0.52727995927E+02 -0.29095487977E+02 -0.43450668709E+02  0.74268092653E+02  0.10000000000E+01 0.  0.
<mgrwt>
<rscale>  0 0.12499949E+03</rscale>
<asrwt>0</asrwt>
<pdfrwt beam="1">  1        4 0.64679587E-02 0.12499949E+03</pdfrwt>
<pdfrwt beam="2">  1       -4 0.14294288E-01 0.12499949E+03</pdfrwt>
<totfact> 0.10239146E+04</totfact>
</mgrwt>
</event>
<event>
 5    1  0.3209683E-002  0.1250029E+03  0.7818608E-02  0.1235065E+00
          4   -1    0    0  501    0  0.00000000000E+00  0.00000000000E+00  0.10113290251E+03  0.10114087635E+03  0.12700000000E+01 0.  1.
         -4   -1    0    0    0  501 -0.00000000000E+00 -0.00000000000E+00 -0.38606787649E+02  0.38627670814E+02  0.12700000000E+01 0.  1.
         25    2    1    2    0    0  0.00000000000E+00  0.00000000000E+00  0.62526114860E+02  0.13976854717E+03  0.12500292692E+03 0.  0.
    9000005    1    3    3    0    0 -0.18616723052E+02  0.58235417583E+02  0.16792694393E+02  0.63410888838E+02  0.10000000000E+01 0.  0.
    9000005    1    3    3    0    0  0.18616723052E+02 -0.58235417583E+02  0.45733420468E+02  0.76357658332E+02  0.10000000000E+01 0.  0.
<mgrwt>
<rscale>  0 0.12500293E+03</rscale>
<asrwt>0</asrwt>
<pdfrwt beam="1">  1        4 0.15561128E-01 0.12500293E+03</pdfrwt>
<pdfrwt beam="2">  1       -4 0.59417256E-02 0.12500293E+03</pdfrwt>
<totfact> 0.10137716E+04</totfact>
</mgrwt>
</event>
<event>
 5    1  0.3209683E-002  0.1249959E+03  0.7818608E-02  0.1235076E+00
         -4   -1    0    0    0  501 -0.00000000000E+00  0.00000000000E+00  0.95054142350E+02  0.95062626083E+02  0.12700000000E+01 0.  1.
          4   -1    0    0  501    0  0.00000000000E+00 -0.00000000000E+00 -0.41072141931E+02  0.41091772204E+02  0.12700000000E+01 0.  1.
         25    2    1    2    0    0  0.00000000000E+00  0.00000000000E+00  0.53982000418E+02  0.13615439829E+03  0.12499585515E+03 0.  0.
    9000005    1    3    3    0    0  0.39982340045E+02 -0.47874327441E+02  0.31131980446E+02  0.69718999920E+02  0.10000000000E+01 0.  0.
    9000005    1    3    3    0    0 -0.39982340045E+02  0.47874327441E+02  0.22850019972E+02  0.66435398367E+02  0.10000000000E+01 0.  0.
<mgrwt>
<rscale>  0 0.12499586E+03</rscale>
<asrwt>0</asrwt>
<pdfrwt beam="2">  1        4 0.63209537E-02 0.12499586E+03</pdfrwt>
<pdfrwt beam="1">  1       -4 0.14625877E-01 0.12499586E+03</pdfrwt>
<totfact> 0.10214751E+04</totfact>
</mgrwt>
</event>
<event>
 5    1  0.3209683E-002  0.1250100E+03  0.7818608E-02  0.1235054E+00
         -4   -1    0    0    0  501 -0.00000000000E+00  0.00000000000E+00  0.14748765157E+02  0.14803343327E+02  0.12700000000E+01 0. -1.
          4   -1    0    0  501    0  0.00000000000E+00 -0.00000000000E+00 -0.26434988827E+03  0.26435293895E+03  0.12700000000E+01 0. -1.
         25    2    1    2    0    0  0.00000000000E+00  0.00000000000E+00 -0.24960112312E+03  0.27915628227E+03  0.12501003668E+03 0.  0.
    9000005    1    3    3    0    0  0.34328217733E+02 -0.21263071723E+02 -0.18282080541E+02  0.44337108845E+02  0.10000000000E+01 0.  0.
    9000005    1    3    3    0    0 -0.34328217733E+02  0.21263071723E+02 -0.23131904257E+03  0.23481917343E+03  0.10000000000E+01 0.  0.
<mgrwt>
<rscale>  0 0.12501004E+03</rscale>
<asrwt>0</asrwt>
<pdfrwt beam="2">  1        4 0.40673643E-01 0.12501004E+03</pdfrwt>
<pdfrwt beam="1">  1       -4 0.22734740E-02 0.12501004E+03</pdfrwt>
<totfact> 0.78272646E+03</totfact>
</mgrwt>
</event>
<event>
 5    1  0.3209683E-002  0.1250002E+03  0.7818608E-02  0.1235069E+00
         -4   -1    0    0    0  501 -0.00000000000E+00  0.00000000000E+00  0.82455237277E+02  0.82465017155E+02  0.12700000000E+01 0. -1.
          4   -1    0    0  501    0  0.00000000000E+00 -0.00000000000E+00 -0.47353250809E+02  0.47370278257E+02  0.12700000000E+01 0. -1.
         25    2    1    2    0    0  0.00000000000E+00  0.00000000000E+00  0.35101986468E+02  0.12983529541E+03  0.12500021792E+03 0.  0.
    9000005    1    3    3    0    0  0.34116524367E+00  0.55298603893E+02  0.47783764321E+02  0.73091313566E+02  0.10000000000E+01 0.  0.
    9000005    1    3    3    0    0 -0.34116524367E+00 -0.55298603893E+02 -0.12681777853E+02  0.56743981846E+02  0.10000000000E+01 0.  0.
<mgrwt>
<rscale>  0 0.12500022E+03</rscale>
<asrwt>0</asrwt>
<pdfrwt beam="2">  1        4 0.72871777E-02 0.12500022E+03</pdfrwt>
<pdfrwt beam="1">  1       -4 0.12687483E-01 0.12500022E+03</pdfrwt>
<totfact> 0.10347981E+04</totfact>
</mgrwt>
</event>
<event>
 5    1  0.3209683E-002  0.1250076E+03  0.7818608E-02  0.1235057E+00
          4   -1    0    0  501    0  0.00000000000E+00  0.00000000000E+00  0.33574959628E+03  0.33575199821E+03  0.12700000000E+01 0. -1.
         -4   -1    0    0    0  501 -0.00000000000E+00 -0.00000000000E+00 -0.11598729087E+02  0.11668051098E+02  0.12700000000E+01 0. -1.
         25    2    1    2    0    0  0.00000000000E+00  0.00000000000E+00  0.32415086719E+03  0.34742004931E+03  0.12500762360E+03 0.  0.
    9000005    1    3    3    0    0  0.42728913787E+02  0.36881284497E+02  0.23663534349E+03  0.24327612913E+03  0.10000000000E+01 0.  0.
    9000005    1    3    3    0    0 -0.42728913787E+02 -0.36881284497E+02  0.87515523705E+02  0.10414392017E+03  0.10000000000E+01 0.  0.
<mgrwt>
<rscale>  0 0.12500762E+03</rscale>
<asrwt>0</asrwt>
<pdfrwt beam="1">  1        4 0.51659290E-01 0.12500762E+03</pdfrwt>
<pdfrwt beam="2">  1       -4 0.17899375E-02 0.12500762E+03</pdfrwt>
<totfact> 0.69997511E+03</totfact>
</mgrwt>
</event>
<event>
 5    1  0.3209683E-002  0.1250018E+03  0.7818608E-02  0.1235066E+00
         -4   -1    0    0    0  501 -0.00000000000E+00  0.00000000000E+00  0.32782844644E+02  0.32807435178E+02  0.12700000000E+01 0.  1.
          4   -1    0    0  501    0  0.00000000000E+00 -0.00000000000E+00 -0.11908610218E+03  0.11909287398E+03  0.12700000000E+01 0.  1.
         25    2    1    2    0    0  0.00000000000E+00  0.00000000000E+00 -0.86303257540E+02  0.15190030916E+03  0.12500180663E+03 0.  0.
    9000005    1    3    3    0    0 -0.61101570701E+02  0.59147086336E+00 -0.27232653791E+02  0.66905673993E+02  0.10000000000E+01 0.  0.
    9000005    1    3    3    0    0  0.61101570701E+02 -0.59147086336E+00 -0.59070603749E+02  0.84994635167E+02  0.10000000000E+01 0.  0.
<mgrwt>
<rscale>  0 0.12500181E+03</rscale>
<asrwt>0</asrwt>
<pdfrwt beam="2">  1        4 0.18323351E-01 0.12500181E+03</pdfrwt>
<pdfrwt beam="1">  1       -4 0.50459271E-02 0.12500181E+03</pdfrwt>
<totfact> 0.98922219E+03</totfact>
</mgrwt>
</event>
<event>
 5    1  0.3209683E-002  0.1250041E+03  0.7818608E-02  0.1235063E+00
          4   -1    0    0  501    0  0.00000000000E+00  0.00000000000E+00  0.19900071282E+03  0.19900476527E+03  0.12700000000E+01 0.  1.
         -4   -1    0    0    0  501 -0.00000000000E+00 -0.00000000000E+00 -0.19605803833E+02  0.19646894002E+02  0.12700000000E+01 0.  1.
         25    2    1    2    0    0  0.00000000000E+00  0.00000000000E+00  0.17939490898E+03  0.21865165928E+03  0.12500405887E+03 0.  0.
    9000005    1    3    3    0    0  0.14074343504E+02 -0.16493430616E+02  0.19221926375E+03  0.19344085854E+03  0.10000000000E+01 0.  0.
    9000005    1    3    3    0    0 -0.14074343504E+02  0.16493430616E+02 -0.12824354762E+02  0.25210800733E+02  0.10000000000E+01 0.  0.
<mgrwt>
<rscale>  0 0.12500406E+03</rscale>
<asrwt>0</asrwt>
<pdfrwt beam="1">  1        4 0.30618969E-01 0.12500406E+03</pdfrwt>
<pdfrwt beam="2">  1       -4 0.30197498E-02 0.12500406E+03</pdfrwt>
<totfact> 0.87074259E+03</totfact>
</mgrwt>
</event>
<event>
 5    1  0.3209683E-002  0.1249934E+03  0.7818608E-02  0.1235080E+00
          4   -1    0    0  501    0  0.00000000000E+00  0.00000000000E+00  0.15687716815E+03  0.15688230872E+03  0.12700000000E+01 0.  1.
         -4   -1    0    0    0  501 -0.00000000000E+00 -0.00000000000E+00 -0.24875674167E+02  0.24908072291E+02  0.12700000000E+01 0.  1.
         25    2    1    2    0    0  0.00000000000E+00  0.00000000000E+00  0.13200149399E+03  0.18179038101E+03  0.12499339267E+03 0.  0.
    9000005    1    3    3    0    0 -0.42294341981E+02  0.44507767863E+02  0.49096872300E+02  0.78620961794E+02  0.10000000000E+01 0.  0.
    9000005    1    3    3    0    0  0.42294341981E+02 -0.44507767863E+02  0.82904621686E+02  0.10316941921E+03  0.10000000000E+01 0.  0.
<mgrwt>
<rscale>  0 0.12499339E+03</rscale>
<asrwt>0</asrwt>
<pdfrwt beam="1">  1        4 0.24137836E-01 0.12499339E+03</pdfrwt>
<pdfrwt beam="2">  1       -4 0.38299144E-02 0.12499339E+03</pdfrwt>
<totfact> 0.93309538E+03</totfact>
</mgrwt>
</event>
<event>
 5    1  0.3209683E-002  0.1249991E+03  0.7818608E-02  0.1235071E+00
         -4   -1    0    0    0  501 -0.00000000000E+00  0.00000000000E+00  0.12318497772E+02  0.12383791316E+02  0.12700000000E+01 0.  1.
          4   -1    0    0  501    0  0.00000000000E+00 -0.00000000000E+00 -0.31619528046E+03  0.31619783093E+03  0.12700000000E+01 0.  1.
         25    2    1    2    0    0  0.00000000000E+00  0.00000000000E+00 -0.30387678269E+03  0.32858162225E+03  0.12499913368E+03 0.  0.
    9000005    1    3    3    0    0  0.17443723388E+02 -0.32108622618E+02 -0.18678794380E+02  0.41050511465E+02  0.10000000000E+01 0.  0.
    9000005    1    3    3    0    0 -0.17443723388E+02  0.32108622618E+02 -0.28519798831E+03  0.28753111078E+03  0.10000000000E+01 0.  0.
<mgrwt>
<rscale>  0 0.12499913E+03</rscale>
<asrwt>0</asrwt>
<pdfrwt beam="2">  1        4 0.48650641E-01 0.12499913E+03</pdfrwt>
<pdfrwt beam="1">  1       -4 0.19003725E-02 0.12499913E+03</pdfrwt>
<totfact> 0.72148335E+03</totfact>
</mgrwt>
</event>
<event>
 5    1  0.3209683E-002  0.1250035E+03  0.7818608E-02  0.1235064E+00
          4   -1    0    0  501    0  0.00000000000E+00  0.00000000000E+00  0.11532895297E+02  0.11602610651E+02  0.12700000000E+01 0.  1.
         -4   -1    0    0    0  501 -0.00000000000E+00 -0.00000000000E+00 -0.33763266542E+03  0.33763505395E+03  0.12700000000E+01 0.  1.
         25    2    1    2    0    0  0.00000000000E+00  0.00000000000E+00 -0.32609977012E+03  0.34923766460E+03  0.12500354517E+03 0.  0.
    9000005    1    3    3    0    0  0.34876825697E+02 -0.14297719937E+02 -0.30231158384E+03  0.30465408497E+03  0.10000000000E+01 0.  0.
    9000005    1    3    3    0    0 -0.34876825697E+02  0.14297719937E+02 -0.23788186278E+02  0.44583579629E+02  0.10000000000E+01 0.  0.
<mgrwt>
<rscale>  0 0.12500355E+03</rscale>
<asrwt>0</asrwt>
<pdfrwt beam="1">  1        4 0.17798383E-02 0.12500355E+03</pdfrwt>
<pdfrwt beam="2">  1       -4 0.51949026E-01 0.12500355E+03</pdfrwt>
<totfact> 0.69803030E+03</totfact>
</mgrwt>
</event>
<event>
 5    1  0.3209683E-002  0.1249989E+03  0.7818608E-02  0.1235071E+00
          4   -1    0    0  501    0  0.00000000000E+00  0.00000000000E+00  0.41964093317E+02  0.41983306539E+02  0.12700000000E+01 0.  1.
         -4   -1    0    0    0  501 -0.00000000000E+00 -0.00000000000E+00 -0.93039008935E+02  0.93047676401E+02  0.12700000000E+01 0.  1.
         25    2    1    2    0    0  0.00000000000E+00  0.00000000000E+00 -0.51074915618E+02  0.13503098294E+03  0.12499887739E+03 0.  0.
    9000005    1    3    3    0    0 -0.33578873325E+01  0.14875171348E+02  0.39928590152E+02  0.42753227264E+02  0.10000000000E+01 0.  0.
    9000005    1    3    3    0    0  0.33578873325E+01 -0.14875171348E+02 -0.91003505770E+02  0.92277755675E+02  0.10000000000E+01 0.  0.
<mgrwt>
<rscale>  0 0.12499888E+03</rscale>
<asrwt>0</asrwt>
<pdfrwt beam="1">  1        4 0.64581590E-02 0.12499888E+03</pdfrwt>
<pdfrwt beam="2">  1       -4 0.14315838E-01 0.12499888E+03</pdfrwt>
<totfact> 0.10237677E+04</totfact>
</mgrwt>
</event>
<event>
 5    1  0.3209683E-002  0.1249984E+03  0.7818608E-02  0.1235072E+00
          4   -1    0    0  501    0  0.00000000000E+00  0.00000000000E+00  0.66541806655E+03  0.66541927849E+03  0.12700000000E+01 0.  1.
         -4   -1    0    0    0  501 -0.00000000000E+00 -0.00000000000E+00 -0.58002953687E+01  0.59377037956E+01  0.12700000000E+01 0.  1.
         25    2    1    2    0    0  0.00000000000E+00  0.00000000000E+00  0.65961777118E+03  0.67135698229E+03  0.12499837443E+03 0.  0.
    9000005    1    3    3    0    0 -0.26297807572E+02  0.13269698081E+02  0.62581895846E+03  0.62651259232E+03  0.10000000000E+01 0.  0.
    9000005    1    3    3    0    0  0.26297807572E+02 -0.13269698081E+02  0.33798812725E+02  0.44844389971E+02  0.10000000000E+01 0.  0.
<mgrwt>
<rscale>  0 0.12499837E+03</rscale>
<asrwt>0</asrwt>
<pdfrwt beam="1">  1        4 0.10238273E+00 0.12499837E+03</pdfrwt>
<pdfrwt beam="2">  1       -4 0.90301576E-03 0.12499837E+03</pdfrwt>
<totfact> 0.44644019E+03</totfact>
</mgrwt>
</event>
<event>
 5    1  0.3209683E-002  0.1250006E+03  0.7818608E-02  0.1235068E+00
          4   -1    0    0  501    0  0.00000000000E+00  0.00000000000E+00  0.26659908461E+02  0.26690140860E+02  0.12700000000E+01 0.  1.
         -4   -1    0    0    0  501 -0.00000000000E+00 -0.00000000000E+00 -0.14640698684E+03  0.14641249501E+03  0.12700000000E+01 0.  1.
         25    2    1    2    0    0  0.00000000000E+00  0.00000000000E+00 -0.11974707838E+03  0.17310263587E+03  0.12500063906E+03 0.  0.
    9000005    1    3    3    0    0 -0.53477684513E+02  0.21067370912E+02 -0.25907659659E+02  0.63054767361E+02  0.10000000000E+01 0.  0.
    9000005    1    3    3    0    0  0.53477684513E+02 -0.21067370912E+02 -0.93839418720E+02  0.11004786851E+03  0.10000000000E+01 0.  0.
<mgrwt>
<rscale>  0 0.12500064E+03</rscale>
<asrwt>0</asrwt>
<pdfrwt beam="1">  1        4 0.41042737E-02 0.12500064E+03</pdfrwt>
<pdfrwt beam="2">  1       -4 0.22526901E-01 0.12500064E+03</pdfrwt>
<totfact> 0.94872131E+03</totfact>
</mgrwt>
</event>
<event>
 5    1  0.3209683E-002  0.1250000E+03  0.7818608E-02  0.1235069E+00
          4   -1    0    0  501    0  0.00000000000E+00  0.00000000000E+00  0.50742141736E+02  0.50758032349E+02  0.12700000000E+01 0.  1.
         -4   -1    0    0    0  501 -0.00000000000E+00 -0.00000000000E+00 -0.76949133807E+02  0.76959613394E+02  0.12700000000E+01 0.  1.
         25    2    1    2    0    0  0.00000000000E+00  0.00000000000E+00 -0.26206992071E+02  0.12771764574E+03  0.12499996240E+03 0.  0.
    9000005    1    3    3    0    0  0.12480508599E+02  0.14560611290E+02 -0.73873266845E+02  0.76328461601E+02  0.10000000000E+01 0.  0.
    9000005    1    3    3    0    0 -0.12480508599E+02 -0.14560611290E+02  0.47666274773E+02  0.51389184142E+02  0.10000000000E+01 0.  0.
<mgrwt>
<rscale>  0 0.12499996E+03</rscale>
<asrwt>0</asrwt>
<pdfrwt beam="1">  1        4 0.78085118E-02 0.12499996E+03</pdfrwt>
<pdfrwt beam="2">  1       -4 0.11840357E-01 0.12499996E+03</pdfrwt>
<totfact> 0.10393599E+04</totfact>
</mgrwt>
</event>
<event>
 5    1  0.3209683E-002  0.1249794E+03  0.7818608E-02  0.1235101E+00
          4   -1    0    0  501    0  0.00000000000E+00  0.00000000000E+00  0.69015110454E+02  0.69026794587E+02  0.12700000000E+01 0.  1.
         -4   -1    0    0    0  501 -0.00000000000E+00 -0.00000000000E+00 -0.56557688024E+02  0.56571945120E+02  0.12700000000E+01 0.  1.
         25    2    1    2    0    0  0.00000000000E+00  0.00000000000E+00  0.12457422430E+02  0.12559873971E+03  0.12497942248E+03 0.  0.
    9000005    1    3    3    0    0  0.49663985166E+02 -0.34587869162E+02 -0.93766597688E+01  0.61251562137E+02  0.10000000000E+01 0.  0.
    9000005    1    3    3    0    0 -0.49663985166E+02  0.34587869162E+02  0.21834082198E+02  0.64347177570E+02  0.10000000000E+01 0.  0.
<mgrwt>
<rscale>  0 0.12497942E+03</rscale>
<asrwt>0</asrwt>
<pdfrwt beam="1">  1        4 0.10619705E-01 0.12497942E+03</pdfrwt>
<pdfrwt beam="2">  1       -4 0.87031783E-02 0.12497942E+03</pdfrwt>
<totfact> 0.10444622E+04</totfact>
</mgrwt>
</event>
<event>
 5    1  0.3209683E-002  0.1250036E+03  0.7818608E-02  0.1235064E+00
          4   -1    0    0  501    0  0.00000000000E+00  0.00000000000E+00  0.40964881320E+02  0.40984562966E+02  0.12700000000E+01 0. -1.
         -4   -1    0    0    0  501 -0.00000000000E+00 -0.00000000000E+00 -0.95314714375E+02  0.95323174918E+02  0.12700000000E+01 0. -1.
         25    2    1    2    0    0  0.00000000000E+00  0.00000000000E+00 -0.54349833056E+02  0.13630773788E+03  0.12500358016E+03 0.  0.
    9000005    1    3    3    0    0 -0.16589138378E+02 -0.60251658323E+02 -0.27293971842E+02  0.68201339735E+02  0.10000000000E+01 0.  0.
    9000005    1    3    3    0    0  0.16589138378E+02  0.60251658323E+02 -0.27055861214E+02  0.68106398149E+02  0.10000000000E+01 0.  0.
<mgrwt>
<rscale>  0 0.12500358E+03</rscale>
<asrwt>0</asrwt>
<pdfrwt beam="1">  1        4 0.63044542E-02 0.12500358E+03</pdfrwt>
<pdfrwt beam="2">  1       -4 0.14665967E-01 0.12500358E+03</pdfrwt>
<totfact> 0.10209756E+04</totfact>
</mgrwt>
</event>
<event>
 5    1  0.3209683E-002  0.1250060E+03  0.7818608E-02  0.1235060E+00
         -4   -1    0    0    0  501 -0.00000000000E+00  0.00000000000E+00  0.23059379249E+02  0.23094325523E+02  0.12700000000E+01 0.  1.
          4   -1    0    0  501    0  0.00000000000E+00 -0.00000000000E+00 -0.16925026036E+03  0.16925502513E+03  0.12700000000E+01 0.  1.
         25    2    1    2    0    0  0.00000000000E+00  0.00000000000E+00 -0.14619088111E+03  0.19234935065E+03  0.12500599576E+03 0.  0.
    9000005    1    3    3    0    0 -0.18052651134E+02  0.47808400298E+02 -0.12844842129E+03  0.13824448735E+03  0.10000000000E+01 0.  0.
    9000005    1    3    3    0    0  0.18052651134E+02 -0.47808400298E+02 -0.17742459819E+02  0.54104863298E+02  0.10000000000E+01 0.  0.
<mgrwt>
<rscale>  0 0.12500600E+03</rscale>
<asrwt>0</asrwt>
<pdfrwt beam="2">  1        4 0.26041556E-01 0.12500600E+03</pdfrwt>
<pdfrwt beam="1">  1       -4 0.35506516E-02 0.12500600E+03</pdfrwt>
<totfact> 0.91427858E+03</totfact>
</mgrwt>
</event>
<event>
 5    1  0.3209683E-002  0.1249905E+03  0.7818608E-02  0.1235084E+00
         -4   -1    0    0    0  501 -0.00000000000E+00  0.00000000000E+00  0.24182284745E+02  0.24215610574E+02  0.12700000000E+01 0.  1.
          4   -1    0    0  501    0  0.00000000000E+00 -0.00000000000E+00 -0.16136189856E+03  0.16136689626E+03  0.12700000000E+01 0.  1.
         25    2    1    2    0    0  0.00000000000E+00  0.00000000000E+00 -0.13717961382E+03  0.18558250683E+03  0.12499048122E+03 0.  0.
    9000005    1    3    3    0    0  0.36503890411E+02 -0.34538922394E+02 -0.13449244705E+02  0.52032233840E+02  0.10000000000E+01 0.  0.
    9000005    1    3    3    0    0 -0.36503890411E+02  0.34538922394E+02 -0.12373036911E+03  0.13355027299E+03  0.10000000000E+01 0.  0.
<mgrwt>
<rscale>  0 0.12499048E+03</rscale>
<asrwt>0</asrwt>
<pdfrwt beam="2">  1        4 0.24827855E-01 0.12499048E+03</pdfrwt>
<pdfrwt beam="1">  1       -4 0.37232996E-02 0.12499048E+03</pdfrwt>
<totfact> 0.92641436E+03</totfact>
</mgrwt>
</event>
<event>
 5    1  0.3209683E-002  0.1249992E+03  0.7818608E-02  0.1235070E+00
         -4   -1    0    0    0  501 -0.00000000000E+00  0.00000000000E+00  0.48481613268E+02  0.48498244556E+02  0.12700000000E+01 0. -1.
          4   -1    0    0  501    0  0.00000000000E+00 -0.00000000000E+00 -0.80535341689E+02  0.80545354683E+02  0.12700000000E+01 0. -1.
         25    2    1    2    0    0  0.00000000000E+00  0.00000000000E+00 -0.32053728421E+02  0.12904359924E+03  0.12499923599E+03 0.  0.
    9000005    1    3    3    0    0 -0.41774215887E+02  0.30997276543E+02  0.19724324641E+02  0.55641398693E+02  0.10000000000E+01 0.  0.
    9000005    1    3    3    0    0  0.41774215887E+02 -0.30997276543E+02 -0.51778053062E+02  0.73402200545E+02  0.10000000000E+01 0.  0.
<mgrwt>
<rscale>  0 0.12499924E+03</rscale>
<asrwt>0</asrwt>
<pdfrwt beam="2">  1        4 0.12392102E-01 0.12499924E+03</pdfrwt>
<pdfrwt beam="1">  1       -4 0.74607593E-02 0.12499924E+03</pdfrwt>
<totfact> 0.10365189E+04</totfact>
</mgrwt>
</event>
<event>
 5    1  0.3209683E-002  0.1250002E+03  0.7818608E-02  0.1235069E+00
         -4   -1    0    0    0  501 -0.00000000000E+00  0.00000000000E+00  0.90796446508E+01  0.91680339760E+01  0.12700000000E+01 0. -1.
          4   -1    0    0  501    0  0.00000000000E+00 -0.00000000000E+00 -0.42804881968E+03  0.42805070369E+03  0.12700000000E+01 0. -1.
         25    2    1    2    0    0  0.00000000000E+00  0.00000000000E+00 -0.41896917503E+03  0.43721873766E+03  0.12500021977E+03 0.  0.
    9000005    1    3    3    0    0 -0.37523443302E+02 -0.24224044445E+02 -0.36236642597E+03  0.36510990098E+03  0.10000000000E+01 0.  0.
    9000005    1    3    3    0    0  0.37523443302E+02  0.24224044445E+02 -0.56602749057E+02  0.72108836680E+02  0.10000000000E+01 0.  0.
<mgrwt>
<rscale>  0 0.12500022E+03</rscale>
<asrwt>0</asrwt>
<pdfrwt beam="2">  1        4 0.65860593E-01 0.12500022E+03</pdfrwt>
<pdfrwt beam="1">  1       -4 0.14038128E-02 0.12500022E+03</pdfrwt>
<totfact> 0.61086775E+03</totfact>
</mgrwt>
</event>
<event>
 5    1  0.3209683E-002  0.1249851E+03  0.7818608E-02  0.1235093E+00
         -4   -1    0    0    0  501 -0.00000000000E+00  0.00000000000E+00  0.41324572662E+01  0.43232051833E+01  0.12700000000E+01 0.  1.
          4   -1    0    0  501    0  0.00000000000E+00 -0.00000000000E+00 -0.92352587302E+03  0.92352674625E+03  0.12700000000E+01 0.  1.
         25    2    1    2    0    0  0.00000000000E+00  0.00000000000E+00 -0.91939341576E+03  0.92784995144E+03  0.12498511688E+03 0.  0.
    9000005    1    3    3    0    0 -0.18344063880E-01  0.32404041080E+02 -0.63081759844E+02  0.70924823862E+02  0.10000000000E+01 0.  0.
    9000005    1    3    3    0    0  0.18344063880E-01 -0.32404041080E+02 -0.85631165591E+03  0.85692512758E+03  0.10000000000E+01 0.  0.
<mgrwt>
<rscale>  0 0.12498512E+03</rscale>
<asrwt>0</asrwt>
<pdfrwt beam="2">  1        4 0.14209548E+00 0.12498512E+03</pdfrwt>
<pdfrwt beam="1">  1       -4 0.65050348E-03 0.12498512E+03</pdfrwt>
<totfact> 0.33126459E+03</totfact>
</mgrwt>
</event>
<event>
 5    1  0.3209683E-002  0.1250040E+03  0.7818608E-02  0.1235063E+00
         -4   -1    0    0    0  501 -0.00000000000E+00  0.00000000000E+00  0.77052142840E+01  0.78091758312E+01  0.12700000000E+01 0.  1.
          4   -1    0    0  501    0  0.00000000000E+00 -0.00000000000E+00 -0.50349251010E+03  0.50349411181E+03  0.12700000000E+01 0.  1.
         25    2    1    2    0    0  0.00000000000E+00  0.00000000000E+00 -0.49578729582E+03  0.51130328764E+03  0.12500403697E+03 0.  0.
    9000005    1    3    3    0    0 -0.45041665530E+02 -0.30555486726E+02 -0.12228012613E+03  0.13384998561E+03  0.10000000000E+01 0.  0.
    9000005    1    3    3    0    0  0.45041665530E+02  0.30555486726E+02 -0.37350716969E+03  0.37745330203E+03  0.10000000000E+01 0.  0.
<mgrwt>
<rscale>  0 0.12500404E+03</rscale>
<asrwt>0</asrwt>
<pdfrwt beam="2">  1        4 0.77468481E-01 0.12500404E+03</pdfrwt>
<pdfrwt beam="1">  1       -4 0.11935382E-02 0.12500404E+03</pdfrwt>
<totfact> 0.54993044E+03</totfact>
</mgrwt>
</event>
<event>
 5    1  0.3209683E-002  0.1250009E+03  0.7818608E-02  0.1235068E+00
         -4   -1    0    0    0  501 -0.00000000000E+00  0.00000000000E+00  0.26999088322E+03  0.26999387015E+03  0.12700000000E+01 0. -1.
          4   -1    0    0  501    0  0.00000000000E+00 -0.00000000000E+00 -0.14437352079E+02  0.14493103017E+02  0.12700000000E+01 0. -1.
         25    2    1    2    0    0  0.00000000000E+00  0.00000000000E+00  0.25555353114E+03  0.28448697317E+03  0.12500092250E+03 0.  0.
    9000005    1    3    3    0    0  0.32906555188E+02  0.21474159473E+02  0.17183874679E+02  0.42898326872E+02  0.10000000000E+01 0.  0.
    9000005    1    3    3    0    0 -0.32906555188E+02 -0.21474159473E+02  0.23836965646E+03  0.24158864630E+03  0.10000000000E+01 0.  0.
<mgrwt>
<rscale>  0 0.12500092E+03</rscale>
<asrwt>0</asrwt>
<pdfrwt beam="2">  1        4 0.22256495E-02 0.12500092E+03</pdfrwt>
<pdfrwt beam="1">  1       -4 0.41541575E-01 0.12500092E+03</pdfrwt>
<totfact> 0.77585312E+03</totfact>
</mgrwt>
</event>
<event>
 5    1  0.3209683E-002  0.1249738E+03  0.7818608E-02  0.1235110E+00
         -4   -1    0    0    0  501 -0.00000000000E+00  0.00000000000E+00  0.25696742215E+02  0.25728106430E+02  0.12700000000E+01 0.  1.
          4   -1    0    0  501    0  0.00000000000E+00 -0.00000000000E+00 -0.15182299512E+03  0.15182830681E+03  0.12700000000E+01 0.  1.
         25    2    1    2    0    0  0.00000000000E+00  0.00000000000E+00 -0.12612625291E+03  0.17755641324E+03  0.12497379009E+03 0.  0.
    9000005    1    3    3    0    0  0.18937156372E+02  0.58020907768E+02 -0.44077620044E+02  0.75291953212E+02  0.10000000000E+01 0.  0.
    9000005    1    3    3    0    0 -0.18937156372E+02 -0.58020907768E+02 -0.82048632865E+02  0.10226446003E+03  0.10000000000E+01 0.  0.
<mgrwt>
<rscale>  0 0.12497379E+03</rscale>
<asrwt>0</asrwt>
<pdfrwt beam="2">  1        4 0.23360204E-01 0.12497379E+03</pdfrwt>
<pdfrwt beam="1">  1       -4 0.39561663E-02 0.12497379E+03</pdfrwt>
<totfact> 0.94114027E+03</totfact>
</mgrwt>
</event>
<event>
 5    1  0.3209683E-002  0.1249996E+03  0.7818608E-02  0.1235070E+00
          4   -1    0    0  501    0  0.00000000000E+00  0.00000000000E+00  0.20564665595E+02  0.20603843599E+02  0.12700000000E+01 0.  1.
         -4   -1    0    0    0  501 -0.00000000000E+00 -0.00000000000E+00 -0.18972639125E+03  0.18973064180E+03  0.12700000000E+01 0.  1.
         25    2    1    2    0    0  0.00000000000E+00  0.00000000000E+00 -0.16916172566E+03  0.21033448540E+03  0.12499962528E+03 0.  0.
    9000005    1    3    3    0    0 -0.31568438414E+02  0.88165314304E+01  0.49486589436E+01  0.33163032969E+02  0.10000000000E+01 0.  0.
    9000005    1    3    3    0    0  0.31568438414E+02 -0.88165314304E+01 -0.17411038460E+03  0.17717145243E+03  0.10000000000E+01 0.  0.
<mgrwt>
<rscale>  0 0.12499963E+03</rscale>
<asrwt>0</asrwt>
<pdfrwt beam="1">  1        4 0.31671355E-02 0.12499963E+03</pdfrwt>
<pdfrwt beam="2">  1       -4 0.29192015E-01 0.12499963E+03</pdfrwt>
<totfact> 0.88422025E+03</totfact>
</mgrwt>
</event>
<event>
 5    1  0.3209683E-002  0.1249997E+03  0.7818608E-02  0.1235070E+00
          4   -1    0    0  501    0  0.00000000000E+00  0.00000000000E+00  0.72296270023E+02  0.72307423957E+02  0.12700000000E+01 0.  1.
         -4   -1    0    0    0  501 -0.00000000000E+00 -0.00000000000E+00 -0.54008058161E+02  0.54022988128E+02  0.12700000000E+01 0.  1.
         25    2    1    2    0    0  0.00000000000E+00  0.00000000000E+00  0.18288211863E+02  0.12633041208E+03  0.12499965730E+03 0.  0.
    9000005    1    3    3    0    0 -0.60734902652E+02  0.53238481826E+01  0.23007165024E+02  0.65172090668E+02  0.10000000000E+01 0.  0.
    9000005    1    3    3    0    0  0.60734902652E+02 -0.53238481826E+01 -0.47189531618E+01  0.61158321417E+02  0.10000000000E+01 0.  0.
<mgrwt>
<rscale>  0 0.12499966E+03</rscale>
<asrwt>0</asrwt>
<pdfrwt beam="1">  1        4 0.11124510E-01 0.12499966E+03</pdfrwt>
<pdfrwt beam="2">  1       -4 0.83109384E-02 0.12499966E+03</pdfrwt>
<totfact> 0.10423810E+04</totfact>
</mgrwt>
</event>
<event>
 5    1  0.3209683E-002  0.1250010E+03  0.7818608E-02  0.1235068E+00
          4   -1    0    0  501    0  0.00000000000E+00  0.00000000000E+00  0.17465893851E+02  0.17512005825E+02  0.12700000000E+01 0.  1.
         -4   -1    0    0    0  501 -0.00000000000E+00 -0.00000000000E+00 -0.22331080521E+03  0.22331441652E+03  0.12700000000E+01 0.  1.
         25    2    1    2    0    0  0.00000000000E+00  0.00000000000E+00 -0.20584491136E+03  0.24082642234E+03  0.12500095266E+03 0.  0.
    9000005    1    3    3    0    0 -0.33657943930E+02 -0.52359607986E+02 -0.11363610091E+03  0.12957063390E+03  0.10000000000E+01 0.  0.
    9000005    1    3    3    0    0  0.33657943930E+02  0.52359607986E+02 -0.92208810448E+02  0.11125578844E+03  0.10000000000E+01 0.  0.
<mgrwt>
<rscale>  0 0.12500095E+03</rscale>
<asrwt>0</asrwt>
<pdfrwt beam="1">  1        4 0.26908856E-02 0.12500095E+03</pdfrwt>
<pdfrwt beam="2">  1       -4 0.34359331E-01 0.12500095E+03</pdfrwt>
<totfact> 0.83672664E+03</totfact>
</mgrwt>
</event>
<event>
 5    1  0.3209683E-002  0.1250003E+03  0.7818608E-02  0.1235069E+00
          4   -1    0    0  501    0  0.00000000000E+00  0.00000000000E+00  0.25378299617E+03  0.25378617387E+03  0.12700000000E+01 0. -1.
         -4   -1    0    0    0  501 -0.00000000000E+00 -0.00000000000E+00 -0.15362691977E+02  0.15415096652E+02  0.12700000000E+01 0. -1.
         25    2    1    2    0    0  0.00000000000E+00  0.00000000000E+00  0.23842030420E+03  0.26920127052E+03  0.12500033039E+03 0.  0.
    9000005    1    3    3    0    0 -0.45190659110E+02 -0.34897930692E+02  0.17391380040E+03  0.18304936822E+03  0.10000000000E+01 0.  0.
    9000005    1    3    3    0    0  0.45190659110E+02  0.34897930692E+02  0.64506503800E+02  0.86151902300E+02  0.10000000000E+01 0.  0.
<mgrwt>
<rscale>  0 0.12500033E+03</rscale>
<asrwt>0</asrwt>
<pdfrwt beam="1">  1        4 0.39047812E-01 0.12500033E+03</pdfrwt>
<pdfrwt beam="2">  1       -4 0.23677667E-02 0.12500033E+03</pdfrwt>
<totfact> 0.79631301E+03</totfact>
</mgrwt>
</event>
<event>
 5    1  0.3209683E-002  0.1249975E+03  0.7818608E-02  0.1235073E+00
          4   -1    0    0  501    0  0.00000000000E+00  0.00000000000E+00  0.26951885272E+03  0.26952184489E+03  0.12700000000E+01 0. -1.
         -4   -1    0    0    0  501 -0.00000000000E+00 -0.00000000000E+00 -0.14461945431E+02  0.14517601925E+02  0.12700000000E+01 0. -1.
         25    2    1    2    0    0  0.00000000000E+00  0.00000000000E+00  0.25505690729E+03  0.28403944681E+03  0.12499752554E+03 0.  0.
    9000005    1    3    3    0    0  0.57685722143E+02 -0.18530269733E+02  0.16229496954E+03  0.17323876753E+03  0.10000000000E+01 0.  0.
    9000005    1    3    3    0    0 -0.57685722143E+02  0.18530269733E+02  0.92761937744E+02  0.11080067928E+03  0.10000000000E+01 0.  0.
<mgrwt>
<rscale>  0 0.12499753E+03</rscale>
<asrwt>0</asrwt>
<pdfrwt beam="1">  1        4 0.41468949E-01 0.12499753E+03</pdfrwt>
<pdfrwt beam="2">  1       -4 0.22294262E-02 0.12499753E+03</pdfrwt>
<totfact> 0.77649804E+03</totfact>
</mgrwt>
</event>
<event>
 5    1  0.3209683E-002  0.1250033E+03  0.7818608E-02  0.1235064E+00
         -4   -1    0    0    0  501 -0.00000000000E+00  0.00000000000E+00  0.49028263160E+02  0.49044709077E+02  0.12700000000E+01 0.  1.
          4   -1    0    0  501    0  0.00000000000E+00 -0.00000000000E+00 -0.79642829900E+02  0.79652955090E+02  0.12700000000E+01 0.  1.
         25    2    1    2    0    0  0.00000000000E+00  0.00000000000E+00 -0.30614566740E+02  0.12869766417E+03  0.12500334822E+03 0.  0.
    9000005    1    3    3    0    0  0.38382479006E+02  0.16641397716E+02 -0.63104624137E+02  0.75718851022E+02  0.10000000000E+01 0.  0.
    9000005    1    3    3    0    0 -0.38382479006E+02 -0.16641397716E+02  0.32490057397E+02  0.52978813145E+02  0.10000000000E+01 0.  0.
<mgrwt>
<rscale>  0 0.12500335E+03</rscale>
<asrwt>0</asrwt>
<pdfrwt beam="2">  1        4 0.12254787E-01 0.12500335E+03</pdfrwt>
<pdfrwt beam="1">  1       -4 0.75448536E-02 0.12500335E+03</pdfrwt>
<totfact> 0.10371664E+04</totfact>
</mgrwt>
</event>
<event>
 5    1  0.3209683E-002  0.1249992E+03  0.7818608E-02  0.1235071E+00
         -4   -1    0    0    0  501 -0.00000000000E+00  0.00000000000E+00  0.17168731954E+02  0.17215639892E+02  0.12700000000E+01 0. -1.
          4   -1    0    0  501    0  0.00000000000E+00 -0.00000000000E+00 -0.22715908680E+03  0.22716263693E+03  0.12700000000E+01 0. -1.
         25    2    1    2    0    0  0.00000000000E+00  0.00000000000E+00 -0.20999035485E+03  0.24437827682E+03  0.12499917221E+03 0.  0.
    9000005    1    3    3    0    0 -0.14284663215E+02 -0.51832643665E+02 -0.16726628093E+03  0.17569770428E+03  0.10000000000E+01 0.  0.
    9000005    1    3    3    0    0  0.14284663215E+02  0.51832643665E+02 -0.42724073912E+02  0.68680572537E+02  0.10000000000E+01 0.  0.
<mgrwt>
<rscale>  0 0.12499917E+03</rscale>
<asrwt>0</asrwt>
<pdfrwt beam="2">  1        4 0.34951431E-01 0.12499917E+03</pdfrwt>
<pdfrwt beam="1">  1       -4 0.26452249E-02 0.12499917E+03</pdfrwt>
<totfact> 0.83151126E+03</totfact>
</mgrwt>
</event>
<event>
 5    1  0.3209683E-002  0.1250541E+03  0.7818608E-02  0.1234985E+00
         -4   -1    0    0    0  501 -0.00000000000E+00  0.00000000000E+00  0.44235294198E+03  0.44235476507E+03  0.12700000000E+01 0. -1.
          4   -1    0    0  501    0  0.00000000000E+00 -0.00000000000E+00 -0.87907853319E+01  0.88820496932E+01  0.12700000000E+01 0. -1.
         25    2    1    2    0    0  0.00000000000E+00  0.00000000000E+00  0.43356215665E+03  0.45123681476E+03  0.12505406558E+03 0.  0.
    9000005    1    3    3    0    0 -0.56591456234E+02 -0.19772892346E+02  0.15273242729E+03  0.16407850114E+03  0.10000000000E+01 0.  0.
    9000005    1    3    3    0    0  0.56591456234E+02  0.19772892346E+02  0.28082972935E+03  0.28715831361E+03  0.10000000000E+01 0.  0.
<mgrwt>
<rscale>  0 0.12505407E+03</rscale>
<asrwt>0</asrwt>
<pdfrwt beam="2">  1        4 0.13595889E-02 0.12505407E+03</pdfrwt>
<pdfrwt beam="1">  1       -4 0.68061468E-01 0.12505407E+03</pdfrwt>
<totfact> 0.59785568E+03</totfact>
</mgrwt>
</event>
<event>
 5    1  0.3209683E-002  0.1250011E+03  0.7818608E-02  0.1235067E+00
          4   -1    0    0  501    0  0.00000000000E+00  0.00000000000E+00  0.47817517470E+02  0.47834379656E+02  0.12700000000E+01 0. -1.
         -4   -1    0    0    0  501 -0.00000000000E+00 -0.00000000000E+00 -0.81656067877E+02  0.81665943460E+02  0.12700000000E+01 0. -1.
         25    2    1    2    0    0  0.00000000000E+00  0.00000000000E+00 -0.33838550407E+02  0.12950032312E+03  0.12500114477E+03 0.  0.
    9000005    1    3    3    0    0  0.20521874537E+02  0.31437459731E+02  0.34837475288E+02  0.51226076302E+02  0.10000000000E+01 0.  0.
    9000005    1    3    3    0    0 -0.20521874537E+02 -0.31437459731E+02 -0.68676025695E+02  0.78274246813E+02  0.10000000000E+01 0.  0.
<mgrwt>
<rscale>  0 0.12500114E+03</rscale>
<asrwt>0</asrwt>
<pdfrwt beam="1">  1        4 0.73585979E-02 0.12500114E+03</pdfrwt>
<pdfrwt beam="2">  1       -4 0.12564529E-01 0.12500114E+03</pdfrwt>
<totfact> 0.10354941E+04</totfact>
</mgrwt>
</event>
<event>
 5    1  0.3209683E-002  0.1250050E+03  0.7818608E-02  0.1235061E+00
          4   -1    0    0  501    0  0.00000000000E+00  0.00000000000E+00  0.90573045174E+03  0.90573134213E+03  0.12700000000E+01 0. -1.
         -4   -1    0    0    0  501 -0.00000000000E+00 -0.00000000000E+00 -0.42187664209E+01  0.44057791722E+01  0.12700000000E+01 0. -1.
         25    2    1    2    0    0  0.00000000000E+00  0.00000000000E+00  0.90151168532E+03  0.91013712130E+03  0.12500504309E+03 0.  0.
    9000005    1    3    3    0    0  0.41976384948E+02 -0.12111084242E+02  0.12540331575E+03  0.13279942340E+03  0.10000000000E+01 0.  0.
    9000005    1    3    3    0    0 -0.41976384948E+02  0.12111084242E+02  0.77610836957E+03  0.77733769790E+03  0.10000000000E+01 0.  0.
<mgrwt>
<rscale>  0 0.12500504E+03</rscale>
<asrwt>0</asrwt>
<pdfrwt beam="1">  1        4 0.13935755E+00 0.12500504E+03</pdfrwt>
<pdfrwt beam="2">  1       -4 0.66349532E-03 0.12500504E+03</pdfrwt>
<totfact> 0.33771015E+03</totfact>
</mgrwt>
</event>
<event>
 5    1  0.3209683E-002  0.1249990E+03  0.7818608E-02  0.1235071E+00
          4   -1    0    0  501    0  0.00000000000E+00  0.00000000000E+00  0.23026462969E+02  0.23061459123E+02  0.12700000000E+01 0.  1.
         -4   -1    0    0    0  501 -0.00000000000E+00 -0.00000000000E+00 -0.16947275695E+03  0.16947751546E+03  0.12700000000E+01 0.  1.
         25    2    1    2    0    0  0.00000000000E+00  0.00000000000E+00 -0.14644629398E+03  0.19253897459E+03  0.12499895885E+03 0.  0.
    9000005    1    3    3    0    0 -0.43728673443E+02 -0.41917283347E+02 -0.49563770535E+02  0.78274024260E+02  0.10000000000E+01 0.  0.
    9000005    1    3    3    0    0  0.43728673443E+02  0.41917283347E+02 -0.96882523444E+02  0.11426495033E+03  0.10000000000E+01 0.  0.
<mgrwt>
<rscale>  0 0.12499896E+03</rscale>
<asrwt>0</asrwt>
<pdfrwt beam="1">  1        4 0.35455909E-02 0.12499896E+03</pdfrwt>
<pdfrwt beam="2">  1       -4 0.26075789E-01 0.12499896E+03</pdfrwt>
<totfact> 0.91409541E+03</totfact>
</mgrwt>
</event>
<event>
 5    1  0.3209683E-002  0.1250053E+03  0.7818608E-02  0.1235061E+00
         -4   -1    0    0    0  501 -0.00000000000E+00  0.00000000000E+00  0.11862348341E+03  0.11863028161E+03  0.12700000000E+01 0. -1.
          4   -1    0    0  501    0  0.00000000000E+00 -0.00000000000E+00 -0.32912628731E+02  0.32937122370E+02  0.12700000000E+01 0. -1.
         25    2    1    2    0    0  0.00000000000E+00  0.00000000000E+00  0.85710854676E+02  0.15156740398E+03  0.12500530925E+03 0.  0.
    9000005    1    3    3    0    0  0.13823713397E+02  0.41692185348E+02  0.96756589118E+02  0.10626462680E+03  0.10000000000E+01 0.  0.
    9000005    1    3    3    0    0 -0.13823713397E+02 -0.41692185348E+02 -0.11045734442E+02  0.45302777183E+02  0.10000000000E+01 0.  0.
<mgrwt>
<rscale>  0 0.12500531E+03</rscale>
<asrwt>0</asrwt>
<pdfrwt beam="2">  1        4 0.50658885E-02 0.12500531E+03</pdfrwt>
<pdfrwt beam="1">  1       -4 0.18252174E-01 0.12500531E+03</pdfrwt>
<totfact> 0.98980347E+03</totfact>
</mgrwt>
</event>
<event>
 5    1  0.3209683E-002  0.1250071E+03  0.7818608E-02  0.1235058E+00
          4   -1    0    0  501    0  0.00000000000E+00  0.00000000000E+00  0.13632274688E+03  0.13632866249E+03  0.12700000000E+01 0. -1.
         -4   -1    0    0    0  501 -0.00000000000E+00 -0.00000000000E+00 -0.28637058988E+02  0.28665206217E+02  0.12700000000E+01 0. -1.
         25    2    1    2    0    0  0.00000000000E+00  0.00000000000E+00  0.10768568789E+03  0.16499386871E+03  0.12500707714E+03 0.  0.
    9000005    1    3    3    0    0 -0.30482884906E+02  0.37606225296E+02  0.10601149018E+03  0.11654557265E+03  0.10000000000E+01 0.  0.
    9000005    1    3    3    0    0  0.30482884906E+02 -0.37606225296E+02  0.16741977101E+01  0.48448296061E+02  0.10000000000E+01 0.  0.
<mgrwt>
<rscale>  0 0.12500708E+03</rscale>
<asrwt>0</asrwt>
<pdfrwt beam="1">  1        4 0.20975350E-01 0.12500708E+03</pdfrwt>
<pdfrwt beam="2">  1       -4 0.44083218E-02 0.12500708E+03</pdfrwt>
<totfact> 0.96373231E+03</totfact>
</mgrwt>
</event>
<event>
 5    1  0.3209683E-002  0.1249992E+03  0.7818608E-02  0.1235070E+00
          4   -1    0    0  501    0  0.00000000000E+00  0.00000000000E+00  0.13540155890E+03  0.13540751476E+03  0.12700000000E+01 0.  1.
         -4   -1    0    0    0  501 -0.00000000000E+00 -0.00000000000E+00 -0.28828442967E+02  0.28856403516E+02  0.12700000000E+01 0.  1.
         25    2    1    2    0    0  0.00000000000E+00  0.00000000000E+00  0.10657311594E+03  0.16426391828E+03  0.12499922323E+03 0.  0.
    9000005    1    3    3    0    0  0.55212361867E+02 -0.46597576308E+01  0.91261729062E+02  0.10676994631E+03  0.10000000000E+01 0.  0.
    9000005    1    3    3    0    0 -0.55212361867E+02  0.46597576308E+01  0.15311386874E+02  0.57493971963E+02  0.10000000000E+01 0.  0.
<mgrwt>
<rscale>  0 0.12499922E+03</rscale>
<asrwt>0</asrwt>
<pdfrwt beam="1">  1        4 0.20833618E-01 0.12499922E+03</pdfrwt>
<pdfrwt beam="2">  1       -4 0.44377540E-02 0.12499922E+03</pdfrwt>
<totfact> 0.96528661E+03</totfact>
</mgrwt>
</event>
<event>
 5    1  0.3209683E-002  0.1250132E+03  0.7818608E-02  0.1235049E+00
          4   -1    0    0  501    0  0.00000000000E+00  0.00000000000E+00  0.12123468598E+03  0.12124133777E+03  0.12700000000E+01 0.  1.
         -4   -1    0    0    0  501 -0.00000000000E+00 -0.00000000000E+00 -0.32207300076E+02  0.32232329704E+02  0.12700000000E+01 0.  1.
         25    2    1    2    0    0  0.00000000000E+00  0.00000000000E+00  0.89027385906E+02  0.15347366748E+03  0.12501316398E+03 0.  0.
    9000005    1    3    3    0    0 -0.33790603585E+02  0.39026599790E+02  0.87764845010E+02  0.10182606936E+03  0.10000000000E+01 0.  0.
    9000005    1    3    3    0    0  0.33790603585E+02 -0.39026599790E+02  0.12625408964E+01  0.51647598118E+02  0.10000000000E+01 0.  0.
<mgrwt>
<rscale>  0 0.12501316E+03</rscale>
<asrwt>0</asrwt>
<pdfrwt beam="1">  1        4 0.18653927E-01 0.12501316E+03</pdfrwt>
<pdfrwt beam="2">  1       -4 0.49574063E-02 0.12501316E+03</pdfrwt>
<totfact> 0.98586527E+03</totfact>
</mgrwt>
</event>
<event>
 5    1  0.3209683E-002  0.1250002E+03  0.7818608E-02  0.1235069E+00
         -4   -1    0    0    0  501 -0.00000000000E+00  0.00000000000E+00  0.10178728232E+03  0.10179520491E+03  0.12700000000E+01 0.  1.
          4   -1    0    0  501    0  0.00000000000E+00 -0.00000000000E+00 -0.38356789216E+02  0.38377808417E+02  0.12700000000E+01 0.  1.
         25    2    1    2    0    0  0.00000000000E+00  0.00000000000E+00  0.63430493105E+02  0.14017301332E+03  0.12500018484E+03 0.  0.
    9000005    1    3    3    0    0 -0.34264940400E+02  0.44648571725E+02  0.12581925979E+01  0.56304210734E+02  0.10000000000E+01 0.  0.
    9000005    1    3    3    0    0  0.34264940400E+02 -0.44648571725E+02  0.62172300507E+02  0.83868802591E+02  0.10000000000E+01 0.  0.
<mgrwt>
<rscale>  0 0.12500018E+03</rscale>
<asrwt>0</asrwt>
<pdfrwt beam="2">  1        4 0.59032709E-02 0.12500018E+03</pdfrwt>
<pdfrwt beam="1">  1       -4 0.15661808E-01 0.12500018E+03</pdfrwt>
<totfact> 0.10129959E+04</totfact>
</mgrwt>
</event>
<event>
 5    1  0.3209683E-002  0.1249982E+03  0.7818608E-02  0.1235072E+00
         -4   -1    0    0    0  501 -0.00000000000E+00  0.00000000000E+00  0.30108937401E+03  0.30109205243E+03  0.12700000000E+01 0. -1.
          4   -1    0    0  501    0  0.00000000000E+00 -0.00000000000E+00 -0.12939518156E+02  0.13001693356E+02  0.12700000000E+01 0. -1.
         25    2    1    2    0    0  0.00000000000E+00  0.00000000000E+00  0.28814985585E+03  0.31409374579E+03  0.12499816686E+03 0.  0.
    9000005    1    3    3    0    0  0.58777459009E+02  0.15115638776E+02  0.10664678429E+03  0.12271026372E+03  0.10000000000E+01 0.  0.
    9000005    1    3    3    0    0 -0.58777459009E+02 -0.15115638776E+02  0.18150307156E+03  0.19138348207E+03  0.10000000000E+01 0.  0.
<mgrwt>
<rscale>  0 0.12499817E+03</rscale>
<asrwt>0</asrwt>
<pdfrwt beam="2">  1        4 0.19956839E-02 0.12499817E+03</pdfrwt>
<pdfrwt beam="1">  1       -4 0.46326429E-01 0.12499817E+03</pdfrwt>
<totfact> 0.73867149E+03</totfact>
</mgrwt>
</event>
<event>
 5    1  0.3209683E-002  0.1249658E+03  0.7818608E-02  0.1235123E+00
         -4   -1    0    0    0  501 -0.00000000000E+00  0.00000000000E+00  0.47568251173E+03  0.47568420708E+03  0.12700000000E+01 0.  1.
          4   -1    0    0  501    0  0.00000000000E+00 -0.00000000000E+00 -0.81565471926E+01  0.82548265945E+01  0.12700000000E+01 0.  1.
         25    2    1    2    0    0  0.00000000000E+00  0.00000000000E+00  0.46752596454E+03  0.48393903368E+03  0.12496583852E+03 0.  0.
    9000005    1    3    3    0    0 -0.61116437226E+01  0.58737271063E+02  0.31271936931E+03  0.31824805285E+03  0.10000000000E+01 0.  0.
    9000005    1    3    3    0    0  0.61116437226E+01 -0.58737271063E+02  0.15480659523E+03  0.16569098083E+03  0.10000000000E+01 0.  0.
<mgrwt>
<rscale>  0 0.12496584E+03</rscale>
<asrwt>0</asrwt>
<pdfrwt beam="2">  1        4 0.12625438E-02 0.12496584E+03</pdfrwt>
<pdfrwt beam="1">  1       -4 0.73189613E-01 0.12496584E+03</pdfrwt>
<totfact> 0.57175353E+03</totfact>
</mgrwt>
</event>
<event>
 5    1  0.3209683E-002  0.1249997E+03  0.7818608E-02  0.1235070E+00
         -4   -1    0    0    0  501 -0.00000000000E+00  0.00000000000E+00  0.16004479297E+03  0.16004983179E+03  0.12700000000E+01 0.  1.
          4   -1    0    0  501    0  0.00000000000E+00 -0.00000000000E+00 -0.24385152085E+02  0.24418201044E+02  0.12700000000E+01 0.  1.
         25    2    1    2    0    0  0.00000000000E+00  0.00000000000E+00  0.13565964089E+03  0.18446803284E+03  0.12499966789E+03 0.  0.
    9000005    1    3    3    0    0 -0.53860157238E+02  0.31123169190E+02  0.76642526635E+02  0.98714968911E+02  0.10000000000E+01 0.  0.
    9000005    1    3    3    0    0  0.53860157238E+02 -0.31123169190E+02  0.59017114252E+02  0.85753063927E+02  0.10000000000E+01 0.  0.
<mgrwt>
<rscale>  0 0.12499967E+03</rscale>
<asrwt>0</asrwt>
<pdfrwt beam="2">  1        4 0.37544918E-02 0.12499967E+03</pdfrwt>
<pdfrwt beam="1">  1       -4 0.24625205E-01 0.12499967E+03</pdfrwt>
<totfact> 0.92819561E+03</totfact>
</mgrwt>
</event>
<event>
 5    1  0.3209683E-002  0.1249993E+03  0.7818608E-02  0.1235070E+00
          4   -1    0    0  501    0  0.00000000000E+00  0.00000000000E+00  0.67882857428E+01  0.69060642429E+01  0.12700000000E+01 0.  1.
         -4   -1    0    0    0  501 -0.00000000000E+00 -0.00000000000E+00 -0.57036585181E+03  0.57036726572E+03  0.12700000000E+01 0.  1.
         25    2    1    2    0    0  0.00000000000E+00  0.00000000000E+00 -0.56357756606E+03  0.57727332996E+03  0.12499929807E+03 0.  0.
    9000005    1    3    3    0    0 -0.40769079990E+02  0.44451308959E+02 -0.35727493014E+03  0.36233190925E+03  0.10000000000E+01 0.  0.
    9000005    1    3    3    0    0  0.40769079990E+02 -0.44451308959E+02 -0.20630263592E+03  0.21494142072E+03  0.10000000000E+01 0.  0.
<mgrwt>
<rscale>  0 0.12499930E+03</rscale>
<asrwt>0</asrwt>
<pdfrwt beam="1">  1        4 0.10535207E-02 0.12499930E+03</pdfrwt>
<pdfrwt beam="2">  1       -4 0.87757724E-01 0.12499930E+03</pdfrwt>
<totfact> 0.50335134E+03</totfact>
</mgrwt>
</event>
<event>
 5    1  0.3209683E-002  0.1250001E+03  0.7818608E-02  0.1235069E+00
          4   -1    0    0  501    0  0.00000000000E+00  0.00000000000E+00  0.25764351824E+02  0.25795633834E+02  0.12700000000E+01 0. -1.
         -4   -1    0    0    0  501 -0.00000000000E+00 -0.00000000000E+00 -0.15148893786E+03  0.15149426126E+03  0.12700000000E+01 0. -1.
         25    2    1    2    0    0  0.00000000000E+00  0.00000000000E+00 -0.12572458604E+03  0.17728989510E+03  0.12500014147E+03 0.  0.
    9000005    1    3    3    0    0 -0.50381133184E+02  0.95745925749E+01 -0.12211723820E+02  0.52726251550E+02  0.10000000000E+01 0.  0.
    9000005    1    3    3    0    0  0.50381133184E+02 -0.95745925749E+01 -0.11351286222E+03  0.12456364354E+03  0.10000000000E+01 0.  0.
<mgrwt>
<rscale>  0 0.12500014E+03</rscale>
<asrwt>0</asrwt>
<pdfrwt beam="1">  1        4 0.39665623E-02 0.12500014E+03</pdfrwt>
<pdfrwt beam="2">  1       -4 0.23308806E-01 0.12500014E+03</pdfrwt>
<totfact> 0.94106820E+03</totfact>
</mgrwt>
</event>
<event>
 5    1  0.3209683E-002  0.1250203E+03  0.7818608E-02  0.1235038E+00
          4   -1    0    0  501    0  0.00000000000E+00  0.00000000000E+00  0.39451052485E+02  0.39471488978E+02  0.12700000000E+01 0. -1.
         -4   -1    0    0    0  501 -0.00000000000E+00 -0.00000000000E+00 -0.98997108981E+02  0.99005254844E+02  0.12700000000E+01 0. -1.
         25    2    1    2    0    0  0.00000000000E+00  0.00000000000E+00 -0.59546056497E+02  0.13847674382E+03  0.12502030129E+03 0.  0.
    9000005    1    3    3    0    0  0.49914769624E+02  0.36449943471E+02 -0.40070828333E+02  0.73666504525E+02  0.10000000000E+01 0.  0.
    9000005    1    3    3    0    0 -0.49914769624E+02 -0.36449943471E+02 -0.19475228164E+02  0.64810239297E+02  0.10000000000E+01 0.  0.
<mgrwt>
<rscale>  0 0.12502030E+03</rscale>
<asrwt>0</asrwt>
<pdfrwt beam="1">  1        4 0.60715914E-02 0.12502030E+03</pdfrwt>
<pdfrwt beam="2">  1       -4 0.15232523E-01 0.12502030E+03</pdfrwt>
<totfact> 0.10160605E+04</totfact>
</mgrwt>
</event>
<event>
 5    1  0.3209683E-002  0.1250016E+03  0.7818608E-02  0.1235067E+00
         -4   -1    0    0    0  501 -0.00000000000E+00  0.00000000000E+00  0.33173995500E+03  0.33174238596E+03  0.12700000000E+01 0.  1.
          4   -1    0    0  501    0  0.00000000000E+00 -0.00000000000E+00 -0.11738605725E+02  0.11807106519E+02  0.12700000000E+01 0.  1.
         25    2    1    2    0    0  0.00000000000E+00  0.00000000000E+00  0.32000134928E+03  0.34354949248E+03  0.12500156097E+03 0.  0.
    9000005    1    3    3    0    0 -0.20655239427E+02  0.44804580523E+02  0.26541953686E+03  0.26996781271E+03  0.10000000000E+01 0.  0.
    9000005    1    3    3    0    0  0.20655239427E+02 -0.44804580523E+02  0.54581812417E+02  0.73581679773E+02  0.10000000000E+01 0.  0.
<mgrwt>
<rscale>  0 0.12500156E+03</rscale>
<asrwt>0</asrwt>
<pdfrwt beam="2">  1        4 0.18113957E-02 0.12500156E+03</pdfrwt>
<pdfrwt beam="1">  1       -4 0.51042370E-01 0.12500156E+03</pdfrwt>
<totfact> 0.70437635E+03</totfact>
</mgrwt>
</event>
<event>
 5    1  0.3209683E-002  0.1249569E+03  0.7818608E-02  0.1235137E+00
          4   -1    0    0  501    0  0.00000000000E+00  0.00000000000E+00  0.56418899561E+03  0.56419042500E+03  0.12700000000E+01 0.  1.
         -4   -1    0    0    0  501 -0.00000000000E+00 -0.00000000000E+00 -0.68591474049E+01  0.69757295763E+01  0.12700000000E+01 0.  1.
         25    2    1    2    0    0  0.00000000000E+00  0.00000000000E+00  0.55732984820E+03  0.57116615458E+03  0.12495685831E+03 0.  0.
    9000005    1    3    3    0    0  0.62466111619E+02  0.73127332059E+00  0.27896284848E+03  0.28587378455E+03  0.10000000000E+01 0.  0.
    9000005    1    3    3    0    0 -0.62466111619E+02 -0.73127332059E+00  0.27836699972E+03  0.28529237003E+03  0.10000000000E+01 0.  0.
<mgrwt>
<rscale>  0 0.12495686E+03</rscale>
<asrwt>0</asrwt>
<pdfrwt beam="1">  1        4 0.86807452E-01 0.12495686E+03</pdfrwt>
<pdfrwt beam="2">  1       -4 0.10643304E-02 0.12495686E+03</pdfrwt>
<totfact> 0.50787815E+03</totfact>
</mgrwt>
</event>
<event>
 5    1  0.3209683E-002  0.1249998E+03  0.7818608E-02  0.1235070E+00
          4   -1    0    0  501    0  0.00000000000E+00  0.00000000000E+00  0.24807812334E+01  0.27869652900E+01  0.12700000000E+01 0.  1.
         -4   -1    0    0    0  501 -0.00000000000E+00 -0.00000000000E+00 -0.14827714770E+04  0.14827720209E+04  0.12700000000E+01 0.  1.
         25    2    1    2    0    0  0.00000000000E+00  0.00000000000E+00 -0.14802906958E+04  0.14855589862E+04  0.12499982967E+03 0.  0.
    9000005    1    3    3    0    0 -0.47102813035E+02  0.32116242730E+02 -0.43596018372E+03  0.43967307153E+03  0.10000000000E+01 0.  0.
    9000005    1    3    3    0    0  0.47102813035E+02 -0.32116242730E+02 -0.10443305121E+04  0.10458859147E+04  0.10000000000E+01 0.  0.
<mgrwt>
<rscale>  0 0.12499983E+03</rscale>
<asrwt>0</asrwt>
<pdfrwt beam="1">  1        4 0.40525429E-03 0.12499983E+03</pdfrwt>
<pdfrwt beam="2">  1       -4 0.22814162E+00 0.12499983E+03</pdfrwt>
<totfact> 0.18216118E+03</totfact>
</mgrwt>
</event>
<event>
 5    1  0.3209683E-002  0.1249993E+03  0.7818608E-02  0.1235070E+00
          4   -1    0    0  501    0  0.00000000000E+00  0.00000000000E+00  0.40024189002E+03  0.40024390492E+03  0.12700000000E+01 0.  1.
         -4   -1    0    0    0  501 -0.00000000000E+00 -0.00000000000E+00 -0.97162427992E+01  0.97988914747E+01  0.12700000000E+01 0.  1.
         25    2    1    2    0    0  0.00000000000E+00  0.00000000000E+00  0.39052564722E+03  0.41004279640E+03  0.12499925495E+03 0.  0.
    9000005    1    3    3    0    0 -0.59981603995E+02 -0.12909924763E+02  0.15634599730E+03  0.16795692855E+03  0.10000000000E+01 0.  0.
    9000005    1    3    3    0    0  0.59981603995E+02  0.12909924763E+02  0.23417964992E+03  0.24208586785E+03  0.10000000000E+01 0.  0.
<mgrwt>
<rscale>  0 0.12499925E+03</rscale>
<asrwt>0</asrwt>
<pdfrwt beam="1">  1        4 0.61582166E-01 0.12499925E+03</pdfrwt>
<pdfrwt beam="2">  1       -4 0.15013197E-02 0.12499925E+03</pdfrwt>
<totfact> 0.63588677E+03</totfact>
</mgrwt>
</event>
<event>
 5    1  0.3209683E-002  0.1249964E+03  0.7818608E-02  0.1235075E+00
          4   -1    0    0  501    0  0.00000000000E+00  0.00000000000E+00  0.37650764607E+02  0.37672177737E+02  0.12700000000E+01 0. -1.
         -4   -1    0    0    0  501 -0.00000000000E+00 -0.00000000000E+00 -0.10368876205E+03  0.10369653936E+03  0.12700000000E+01 0. -1.
         25    2    1    2    0    0  0.00000000000E+00  0.00000000000E+00 -0.66037997444E+02  0.14136871710E+03  0.12499638822E+03 0.  0.
    9000005    1    3    3    0    0  0.51470814809E+02 -0.72207592901E+01 -0.72256756441E+02  0.89013611280E+02  0.10000000000E+01 0.  0.
    9000005    1    3    3    0    0 -0.51470814809E+02  0.72207592901E+01  0.62187589964E+01  0.52355105819E+02  0.10000000000E+01 0.  0.
<mgrwt>
<rscale>  0 0.12499639E+03</rscale>
<asrwt>0</asrwt>
<pdfrwt beam="1">  1        4 0.57946708E-02 0.12499639E+03</pdfrwt>
<pdfrwt beam="2">  1       -4 0.15954363E-01 0.12499639E+03</pdfrwt>
<totfact> 0.10106119E+04</totfact>
</mgrwt>
</event>
<event>
 5    1  0.3209683E-002  0.1249992E+03  0.7818608E-02  0.1235071E+00
          4   -1    0    0  501    0  0.00000000000E+00  0.00000000000E+00  0.55700906855E+02  0.55715383194E+02  0.12700000000E+01 0. -1.
         -4   -1    0    0    0  501 -0.00000000000E+00 -0.00000000000E+00 -0.70098763106E+02  0.70110266645E+02  0.12700000000E+01 0. -1.
         25    2    1    2    0    0  0.00000000000E+00  0.00000000000E+00 -0.14397856251E+02  0.12582564984E+03  0.12499918357E+03 0.  0.
    9000005    1    3    3    0    0 -0.47368150514E+02  0.25415792807E+02  0.24878596739E+02  0.59242288805E+02  0.10000000000E+01 0.  0.
    9000005    1    3    3    0    0  0.47368150514E+02 -0.25415792807E+02 -0.39276452990E+02  0.66583361034E+02  0.10000000000E+01 0.  0.
<mgrwt>
<rscale>  0 0.12499918E+03</rscale>
<asrwt>0</asrwt>
<pdfrwt beam="1">  1        4 0.85713687E-02 0.12499918E+03</pdfrwt>
<pdfrwt beam="2">  1       -4 0.10786424E-01 0.12499918E+03</pdfrwt>
<totfact> 0.10434974E+04</totfact>
</mgrwt>
</event>
<event>
 5    1  0.3209683E-002  0.1250014E+03  0.7818608E-02  0.1235067E+00
         -4   -1    0    0    0  501 -0.00000000000E+00  0.00000000000E+00  0.26788561707E+03  0.26788862748E+03  0.12700000000E+01 0.  1.
          4   -1    0    0  501    0  0.00000000000E+00 -0.00000000000E+00 -0.14551359066E+02  0.14606674867E+02  0.12700000000E+01 0.  1.
         25    2    1    2    0    0  0.00000000000E+00  0.00000000000E+00  0.25333425800E+03  0.28249530234E+03  0.12500139827E+03 0.  0.
    9000005    1    3    3    0    0 -0.17187137646E+02 -0.45196771314E+02  0.21613300126E+03  0.22147826095E+03  0.10000000000E+01 0.  0.
    9000005    1    3    3    0    0  0.17187137646E+02  0.45196771314E+02  0.37201256737E+02  0.61017041394E+02  0.10000000000E+01 0.  0.
<mgrwt>
<rscale>  0 0.12500140E+03</rscale>
<asrwt>0</asrwt>
<pdfrwt beam="2">  1        4 0.22431573E-02 0.12500140E+03</pdfrwt>
<pdfrwt beam="1">  1       -4 0.41217658E-01 0.12500140E+03</pdfrwt>
<totfact> 0.77845986E+03</totfact>
</mgrwt>
</event>
<event>
 5    1  0.3209683E-002  0.1250003E+03  0.7818608E-02  0.1235069E+00
         -4   -1    0    0    0  501 -0.00000000000E+00  0.00000000000E+00  0.10405672310E+02  0.10482886827E+02  0.12700000000E+01 0.  1.
          4   -1    0    0  501    0  0.00000000000E+00 -0.00000000000E+00 -0.37393234221E+03  0.37393449888E+03  0.12700000000E+01 0.  1.
         25    2    1    2    0    0  0.00000000000E+00  0.00000000000E+00 -0.36352666990E+03  0.38441738571E+03  0.12500034681E+03 0.  0.
    9000005    1    3    3    0    0  0.25750420907E+02 -0.30512693736E+02 -0.33918181325E+02  0.52398012179E+02  0.10000000000E+01 0.  0.
    9000005    1    3    3    0    0 -0.25750420907E+02  0.30512693736E+02 -0.32960848858E+03  0.33201937353E+03  0.10000000000E+01 0.  0.
<mgrwt>
<rscale>  0 0.12500035E+03</rscale>
<asrwt>0</asrwt>
<pdfrwt beam="2">  1        4 0.57534148E-01 0.12500035E+03</pdfrwt>
<pdfrwt beam="1">  1       -4 0.16069784E-02 0.12500035E+03</pdfrwt>
<totfact> 0.66096585E+03</totfact>
</mgrwt>
</event>
<event>
 5    1  0.3209683E-002  0.1250016E+03  0.7818608E-02  0.1235067E+00
         -4   -1    0    0    0  501 -0.00000000000E+00  0.00000000000E+00  0.26685808211E+02  0.26716011301E+02  0.12700000000E+01 0.  1.
          4   -1    0    0  501    0  0.00000000000E+00 -0.00000000000E+00 -0.14626719545E+03  0.14627270889E+03  0.12700000000E+01 0.  1.
         25    2    1    2    0    0  0.00000000000E+00  0.00000000000E+00 -0.11958138724E+03  0.17298872019E+03  0.12500155654E+03 0.  0.
    9000005    1    3    3    0    0  0.31838789813E+02  0.48535873029E+02 -0.91827365597E+02  0.10864025304E+03  0.10000000000E+01 0.  0.
    9000005    1    3    3    0    0 -0.31838789813E+02 -0.48535873029E+02 -0.27754021644E+02  0.64348467152E+02  0.10000000000E+01 0.  0.
<mgrwt>
<rscale>  0 0.12500156E+03</rscale>
<asrwt>0</asrwt>
<pdfrwt beam="2">  1        4 0.22505392E-01 0.12500156E+03</pdfrwt>
<pdfrwt beam="1">  1       -4 0.41082565E-02 0.12500156E+03</pdfrwt>
<totfact> 0.94891184E+03</totfact>
</mgrwt>
</event>
<event>
 5    1  0.3209683E-002  0.1249592E+03  0.7818608E-02  0.1235133E+00
          4   -1    0    0  501    0  0.00000000000E+00  0.00000000000E+00  0.21994218596E+03  0.21994585258E+03  0.12700000000E+01 0.  1.
         -4   -1    0    0    0  501 -0.00000000000E+00 -0.00000000000E+00 -0.17722223511E+02  0.17767670252E+02  0.12700000000E+01 0.  1.
         25    2    1    2    0    0  0.00000000000E+00  0.00000000000E+00  0.20221996245E+03  0.23771352283E+03  0.12495921624E+03 0.  0.
    9000005    1    3    3    0    0 -0.25318662322E+02 -0.12887690511E+02  0.20695153456E+03  0.20889486562E+03  0.10000000000E+01 0.  0.
    9000005    1    3    3    0    0  0.25318662322E+02  0.12887690511E+02 -0.47315721063E+01  0.28818657205E+02  0.10000000000E+01 0.  0.
<mgrwt>
<rscale>  0 0.12495922E+03</rscale>
<asrwt>0</asrwt>
<pdfrwt beam="1">  1        4 0.33841037E-01 0.12495922E+03</pdfrwt>
<pdfrwt beam="2">  1       -4 0.27302739E-02 0.12495922E+03</pdfrwt>
<totfact> 0.84215640E+03</totfact>
</mgrwt>
</event>
<event>
 5    1  0.3209683E-002  0.1250080E+03  0.7818608E-02  0.1235057E+00
         -4   -1    0    0    0  501 -0.00000000000E+00  0.00000000000E+00  0.41455256174E+02  0.41474705116E+02  0.12700000000E+01 0. -1.
          4   -1    0    0  501    0  0.00000000000E+00 -0.00000000000E+00 -0.94194292547E+02  0.94202853717E+02  0.12700000000E+01 0. -1.
         25    2    1    2    0    0  0.00000000000E+00  0.00000000000E+00 -0.52739036373E+02  0.13567755883E+03  0.12500797580E+03 0.  0.
    9000005    1    3    3    0    0  0.47871375046E+02 -0.38959838557E+02 -0.37015421403E+02  0.71976933742E+02  0.10000000000E+01 0.  0.
    9000005    1    3    3    0    0 -0.47871375046E+02  0.38959838557E+02 -0.15723614970E+02  0.63700625090E+02  0.10000000000E+01 0.  0.
<mgrwt>
<rscale>  0 0.12500798E+03</rscale>
<asrwt>0</asrwt>
<pdfrwt beam="2">  1        4 0.14493584E-01 0.12500798E+03</pdfrwt>
<pdfrwt beam="1">  1       -4 0.63798864E-02 0.12500798E+03</pdfrwt>
<totfact> 0.10221971E+04</totfact>
</mgrwt>
</event>
<event>
 5    1  0.3209683E-002  0.1250111E+03  0.7818608E-02  0.1235052E+00
          4   -1    0    0  501    0  0.00000000000E+00  0.00000000000E+00  0.50819040417E+03  0.50819199107E+03  0.12700000000E+01 0. -1.
         -4   -1    0    0    0  501 -0.00000000000E+00 -0.00000000000E+00 -0.76338954074E+01  0.77388150961E+01  0.12700000000E+01 0. -1.
         25    2    1    2    0    0  0.00000000000E+00  0.00000000000E+00  0.50055650876E+03  0.51593080616E+03  0.12501111266E+03 0.  0.
    9000005    1    3    3    0    0 -0.14484876248E+02 -0.51423049278E+02  0.38412568198E+03  0.38782429165E+03  0.10000000000E+01 0.  0.
    9000005    1    3    3    0    0  0.14484876248E+02  0.51423049278E+02  0.11643082678E+03  0.12810651452E+03  0.10000000000E+01 0.  0.
<mgrwt>
<rscale>  0 0.12501111E+03</rscale>
<asrwt>0</asrwt>
<pdfrwt beam="1">  1        4 0.78191349E-01 0.12501111E+03</pdfrwt>
<pdfrwt beam="2">  1       -4 0.11826380E-02 0.12501111E+03</pdfrwt>
<totfact> 0.54635822E+03</totfact>
</mgrwt>
</event>
<event>
 5    1  0.3209683E-002  0.1249839E+03  0.7818608E-02  0.1235094E+00
          4   -1    0    0  501    0  0.00000000000E+00  0.00000000000E+00  0.15173786054E+02  0.15226840881E+02  0.12700000000E+01 0.  1.
         -4   -1    0    0    0  501 -0.00000000000E+00 -0.00000000000E+00 -0.25686391595E+03  0.25686705553E+03  0.12700000000E+01 0.  1.
         25    2    1    2    0    0  0.00000000000E+00  0.00000000000E+00 -0.24169012990E+03  0.27209389641E+03  0.12498387726E+03 0.  0.
    9000005    1    3    3    0    0  0.59317514004E+01 -0.31324483692E+02 -0.23783564039E+03  0.23996499910E+03  0.10000000000E+01 0.  0.
    9000005    1    3    3    0    0 -0.59317514004E+01  0.31324483692E+02 -0.38544895077E+01  0.32128897314E+02  0.10000000000E+01 0.  0.
<mgrwt>
<rscale>  0 0.12498388E+03</rscale>
<asrwt>0</asrwt>
<pdfrwt beam="1">  1        4 0.23387515E-02 0.12498388E+03</pdfrwt>
<pdfrwt beam="2">  1       -4 0.39521845E-01 0.12498388E+03</pdfrwt>
<totfact> 0.79266634E+03</totfact>
</mgrwt>
</event>
<event>
 5    1  0.3209683E-002  0.1250014E+03  0.7818608E-02  0.1235067E+00
         -4   -1    0    0    0  501 -0.00000000000E+00  0.00000000000E+00  0.10494221315E+02  0.10570789044E+02  0.12700000000E+01 0.  1.
          4   -1    0    0  501    0  0.00000000000E+00 -0.00000000000E+00 -0.37080654291E+03  0.37080871776E+03  0.12700000000E+01 0.  1.
         25    2    1    2    0    0  0.00000000000E+00  0.00000000000E+00 -0.36031232159E+03  0.38137950680E+03  0.12500143645E+03 0.  0.
    9000005    1    3    3    0    0  0.12436158550E+02 -0.36393362333E+02 -0.33043785705E+03  0.33266997495E+03  0.10000000000E+01 0.  0.
    9000005    1    3    3    0    0 -0.12436158550E+02  0.36393362333E+02 -0.29874464546E+02  0.48709531852E+02  0.10000000000E+01 0.  0.
<mgrwt>
<rscale>  0 0.12500144E+03</rscale>
<asrwt>0</asrwt>
<pdfrwt beam="2">  1        4 0.57053208E-01 0.12500144E+03</pdfrwt>
<pdfrwt beam="1">  1       -4 0.16205530E-02 0.12500144E+03</pdfrwt>
<totfact> 0.66402892E+03</totfact>
</mgrwt>
</event>
<event>
 5    1  0.3209683E-002  0.1249952E+03  0.7818608E-02  0.1235077E+00
         -4   -1    0    0    0  501 -0.00000000000E+00  0.00000000000E+00  0.60433887994E+02  0.60447230855E+02  0.12700000000E+01 0.  1.
          4   -1    0    0  501    0  0.00000000000E+00 -0.00000000000E+00 -0.64605070671E+02  0.64617552231E+02  0.12700000000E+01 0.  1.
         25    2    1    2    0    0  0.00000000000E+00  0.00000000000E+00 -0.41711826764E+01  0.12506478309E+03  0.12499520472E+03 0.  0.
    9000005    1    3    3    0    0 -0.36216687591E+02 -0.91406397119E+01  0.48039705875E+02  0.60860603801E+02  0.10000000000E+01 0.  0.
    9000005    1    3    3    0    0  0.36216687591E+02  0.91406397119E+01 -0.52210888552E+02  0.64204179286E+02  0.10000000000E+01 0.  0.
<mgrwt>
<rscale>  0 0.12499520E+03</rscale>
<asrwt>0</asrwt>
<pdfrwt beam="2">  1        4 0.99412281E-02 0.12499520E+03</pdfrwt>
<pdfrwt beam="1">  1       -4 0.92995077E-02 0.12499520E+03</pdfrwt>
<totfact> 0.10452588E+04</totfact>
</mgrwt>
</event>
<event>
 5    1  0.3209683E-002  0.1249947E+03  0.7818608E-02  0.1235078E+00
          4   -1    0    0  501    0  0.00000000000E+00  0.00000000000E+00  0.12543553254E+03  0.12544196157E+03  0.12700000000E+01 0. -1.
         -4   -1    0    0    0  501 -0.00000000000E+00 -0.00000000000E+00 -0.31118654660E+02  0.31144559201E+02  0.12700000000E+01 0. -1.
         25    2    1    2    0    0  0.00000000000E+00  0.00000000000E+00  0.94316877877E+02  0.15658652077E+03  0.12499466003E+03 0.  0.
    9000005    1    3    3    0    0 -0.62251170162E+02  0.38653196158E+01  0.51972533190E+02  0.81192937430E+02  0.10000000000E+01 0.  0.
    9000005    1    3    3    0    0  0.62251170162E+02 -0.38653196158E+01  0.42344344687E+02  0.75393583343E+02  0.10000000000E+01 0.  0.
<mgrwt>
<rscale>  0 0.12499466E+03</rscale>
<asrwt>0</asrwt>
<pdfrwt beam="1">  1        4 0.19300262E-01 0.12499466E+03</pdfrwt>
<pdfrwt beam="2">  1       -4 0.47899724E-02 0.12499466E+03</pdfrwt>
<totfact> 0.98016711E+03</totfact>
</mgrwt>
</event>
<event>
 5    1  0.3209683E-002  0.1249995E+03  0.7818608E-02  0.1235070E+00
         -4   -1    0    0    0  501 -0.00000000000E+00  0.00000000000E+00  0.21529519358E+02  0.21566944702E+02  0.12700000000E+01 0. -1.
          4   -1    0    0  501    0  0.00000000000E+00 -0.00000000000E+00 -0.18123832787E+03  0.18124277748E+03  0.12700000000E+01 0. -1.
         25    2    1    2    0    0  0.00000000000E+00  0.00000000000E+00 -0.15970880851E+03  0.20280972218E+03  0.12499951958E+03 0.  0.
    9000005    1    3    3    0    0  0.28428296022E+02 -0.19864477187E+02  0.44906500199E+01  0.34984731044E+02  0.10000000000E+01 0.  0.
    9000005    1    3    3    0    0 -0.28428296022E+02  0.19864477187E+02 -0.16419945853E+03  0.16782499114E+03  0.10000000000E+01 0.  0.
<mgrwt>
<rscale>  0 0.12499952E+03</rscale>
<asrwt>0</asrwt>
<pdfrwt beam="2">  1        4 0.27886040E-01 0.12499952E+03</pdfrwt>
<pdfrwt beam="1">  1       -4 0.33154550E-02 0.12499952E+03</pdfrwt>
<totfact> 0.89664742E+03</totfact>
</mgrwt>
</event>
<event>
 5    1  0.3209683E-002  0.1249846E+03  0.7818608E-02  0.1235093E+00
         -4   -1    0    0    0  501 -0.00000000000E+00  0.00000000000E+00  0.44218670175E+02  0.44236904187E+02  0.12700000000E+01 0.  1.
          4   -1    0    0  501    0  0.00000000000E+00 -0.00000000000E+00 -0.88276630815E+02  0.88285765829E+02  0.12700000000E+01 0.  1.
         25    2    1    2    0    0  0.00000000000E+00  0.00000000000E+00 -0.44057960640E+02  0.13252267002E+03  0.12498461574E+03 0.  0.
    9000005    1    3    3    0    0 -0.16735676914E+02  0.23664192678E+02 -0.80722884321E+02  0.85774477265E+02  0.10000000000E+01 0.  0.
    9000005    1    3    3    0    0  0.16735676914E+02 -0.23664192678E+02  0.36664923682E+02  0.46748192751E+02  0.10000000000E+01 0.  0.
<mgrwt>
<rscale>  0 0.12498462E+03</rscale>
<asrwt>0</asrwt>
<pdfrwt beam="2">  1        4 0.13583125E-01 0.12498462E+03</pdfrwt>
<pdfrwt beam="1">  1       -4 0.68049777E-02 0.12498462E+03</pdfrwt>
<totfact> 0.10294127E+04</totfact>
</mgrwt>
</event>
<event>
 5    1  0.3209683E-002  0.1249734E+03  0.7818608E-02  0.1235111E+00
         -4   -1    0    0    0  501 -0.00000000000E+00  0.00000000000E+00  0.93731187299E+01  0.94587660255E+01  0.12700000000E+01 0.  1.
          4   -1    0    0  501    0  0.00000000000E+00 -0.00000000000E+00 -0.41459170632E+03  0.41459365148E+03  0.12700000000E+01 0.  1.
         25    2    1    2    0    0  0.00000000000E+00  0.00000000000E+00 -0.40521858759E+03  0.42405241751E+03  0.12497339343E+03 0.  0.
    9000005    1    3    3    0    0  0.51887095006E+02 -0.11695933621E+02 -0.91382455724E+02  0.10573939051E+03  0.10000000000E+01 0.  0.
    9000005    1    3    3    0    0 -0.51887095006E+02  0.11695933621E+02 -0.31383613187E+03  0.31831302700E+03  0.10000000000E+01 0.  0.
<mgrwt>
<rscale>  0 0.12497339E+03</rscale>
<asrwt>0</asrwt>
<pdfrwt beam="2">  1        4 0.63790063E-01 0.12497339E+03</pdfrwt>
<pdfrwt beam="1">  1       -4 0.14487565E-02 0.12497339E+03</pdfrwt>
<totfact> 0.62315392E+03</totfact>
</mgrwt>
</event>
<event>
 5    1  0.3209683E-002  0.1249989E+03  0.7818608E-02  0.1235071E+00
          4   -1    0    0  501    0  0.00000000000E+00  0.00000000000E+00  0.12330688867E+02  0.12395918196E+02  0.12700000000E+01 0. -1.
         -4   -1    0    0    0  501 -0.00000000000E+00 -0.00000000000E+00 -0.31588322481E+03  0.31588577780E+03  0.12700000000E+01 0. -1.
         25    2    1    2    0    0  0.00000000000E+00  0.00000000000E+00 -0.30355253594E+03  0.32828169600E+03  0.12499891939E+03 0.  0.
    9000005    1    3    3    0    0 -0.55810880689E+02 -0.82039287209E+01 -0.81158066886E+02  0.98842251444E+02  0.10000000000E+01 0.  0.
    9000005    1    3    3    0    0  0.55810880689E+02  0.82039287209E+01 -0.22239446906E+03  0.22943944455E+03  0.10000000000E+01 0.  0.
<mgrwt>
<rscale>  0 0.12499892E+03</rscale>
<asrwt>0</asrwt>
<pdfrwt beam="1">  1        4 0.19022433E-02 0.12499892E+03</pdfrwt>
<pdfrwt beam="2">  1       -4 0.48602627E-01 0.12499892E+03</pdfrwt>
<totfact> 0.72183566E+03</totfact>
</mgrwt>
</event>
<event>
 5    1  0.3209683E-002  0.1249981E+03  0.7818608E-02  0.1235072E+00
         -4   -1    0    0    0  501 -0.00000000000E+00  0.00000000000E+00  0.32499396421E+02  0.32524201262E+02  0.12700000000E+01 0. -1.
          4   -1    0    0  501    0  0.00000000000E+00 -0.00000000000E+00 -0.12011684853E+03  0.12012356222E+03  0.12700000000E+01 0. -1.
         25    2    1    2    0    0  0.00000000000E+00  0.00000000000E+00 -0.87617452108E+02  0.15264776348E+03  0.12499808711E+03 0.  0.
    9000005    1    3    3    0    0 -0.32490012083E+02  0.85020018915E+01  0.20548040581E+02  0.39384094417E+02  0.10000000000E+01 0.  0.
    9000005    1    3    3    0    0  0.32490012083E+02 -0.85020018915E+01 -0.10816549269E+03  0.11326366906E+03  0.10000000000E+01 0.  0.
<mgrwt>
<rscale>  0 0.12499809E+03</rscale>
<asrwt>0</asrwt>
<pdfrwt beam="2">  1        4 0.18481940E-01 0.12499809E+03</pdfrwt>
<pdfrwt beam="1">  1       -4 0.50023317E-02 0.12499809E+03</pdfrwt>
<totfact> 0.98782752E+03</totfact>
</mgrwt>
</event>
<event>
 5    1  0.3209683E-002  0.1249990E+03  0.7818608E-02  0.1235071E+00
          4   -1    0    0  501    0  0.00000000000E+00  0.00000000000E+00  0.44958530183E+02  0.44976464247E+02  0.12700000000E+01 0. -1.
         -4   -1    0    0    0  501 -0.00000000000E+00 -0.00000000000E+00 -0.86844327989E+02  0.86853613649E+02  0.12700000000E+01 0. -1.
         25    2    1    2    0    0  0.00000000000E+00  0.00000000000E+00 -0.41885797806E+02  0.13183007790E+03  0.12499899752E+03 0.  0.
    9000005    1    3    3    0    0 -0.45463728236E+02  0.30441889101E+02 -0.52784362415E+02  0.76031888788E+02  0.10000000000E+01 0.  0.
    9000005    1    3    3    0    0  0.45463728236E+02 -0.30441889101E+02  0.10898564609E+02  0.55798189108E+02  0.10000000000E+01 0.  0.
<mgrwt>
<rscale>  0 0.12499900E+03</rscale>
<asrwt>0</asrwt>
<pdfrwt beam="1">  1        4 0.69187908E-02 0.12499900E+03</pdfrwt>
<pdfrwt beam="2">  1       -4 0.13362760E-01 0.12499900E+03</pdfrwt>
<totfact> 0.10305560E+04</totfact>
</mgrwt>
</event>
<event>
 5    1  0.3209683E-002  0.1250090E+03  0.7818608E-02  0.1235055E+00
          4   -1    0    0  501    0  0.00000000000E+00  0.00000000000E+00  0.47221851489E+02  0.47238926300E+02  0.12700000000E+01 0.  1.
         -4   -1    0    0    0  501 -0.00000000000E+00 -0.00000000000E+00 -0.82696296116E+02  0.82706047489E+02  0.12700000000E+01 0.  1.
         25    2    1    2    0    0  0.00000000000E+00  0.00000000000E+00 -0.35474444627E+02  0.12994497379E+03  0.12500903964E+03 0.  0.
    9000005    1    3    3    0    0 -0.23697567859E+01 -0.61972238348E+02 -0.25764905994E+02  0.67164011599E+02  0.10000000000E+01 0.  0.
    9000005    1    3    3    0    0  0.23697567859E+01  0.61972238348E+02 -0.97095386330E+01  0.62780962191E+02  0.10000000000E+01 0.  0.
<mgrwt>
<rscale>  0 0.12500904E+03</rscale>
<asrwt>0</asrwt>
<pdfrwt beam="1">  1        4 0.72669638E-02 0.12500904E+03</pdfrwt>
<pdfrwt beam="2">  1       -4 0.12724571E-01 0.12500904E+03</pdfrwt>
<totfact> 0.10343574E+04</totfact>
</mgrwt>
</event>
<event>
 5    1  0.3209683E-002  0.1250008E+03  0.7818608E-02  0.1235068E+00
          4   -1    0    0  501    0  0.00000000000E+00  0.00000000000E+00  0.31991655632E+02  0.32016853844E+02  0.12700000000E+01 0. -1.
         -4   -1    0    0    0  501 -0.00000000000E+00 -0.00000000000E+00 -0.12202718707E+03  0.12203379567E+03  0.12700000000E+01 0. -1.
         25    2    1    2    0    0  0.00000000000E+00  0.00000000000E+00 -0.90035531440E+02  0.15405064951E+03  0.12500082277E+03 0.  0.
    9000005    1    3    3    0    0 -0.40863183172E+02 -0.29837868101E+02  0.18287864632E+00  0.50607623500E+02  0.10000000000E+01 0.  0.
    9000005    1    3    3    0    0  0.40863183172E+02  0.29837868101E+02 -0.90218410087E+02  0.10344302601E+03  0.10000000000E+01 0.  0.
<mgrwt>
<rscale>  0 0.12500082E+03</rscale>
<asrwt>0</asrwt>
<pdfrwt beam="1">  1        4 0.49242399E-02 0.12500082E+03</pdfrwt>
<pdfrwt beam="2">  1       -4 0.18775860E-01 0.12500082E+03</pdfrwt>
<totfact> 0.98500368E+03</totfact>
</mgrwt>
</event>
<event>
 5    1  0.3209683E-002  0.1250050E+03  0.7818608E-02  0.1235061E+00
         -4   -1    0    0    0  501 -0.00000000000E+00  0.00000000000E+00  0.22440261632E+02  0.22476170539E+02  0.12700000000E+01 0. -1.
          4   -1    0    0  501    0  0.00000000000E+00 -0.00000000000E+00 -0.17390984306E+03  0.17391448017E+03  0.12700000000E+01 0. -1.
         25    2    1    2    0    0  0.00000000000E+00  0.00000000000E+00 -0.15146958142E+03  0.19639065071E+03  0.12500501425E+03 0.  0.
    9000005    1    3    3    0    0  0.26084868013E+02  0.46784285917E+02 -0.25157966475E+02  0.59187101848E+02  0.10000000000E+01 0.  0.
    9000005    1    3    3    0    0 -0.26084868013E+02 -0.46784285917E+02 -0.12631161495E+03  0.13720354886E+03  0.10000000000E+01 0.  0.
<mgrwt>
<rscale>  0 0.12500501E+03</rscale>
<asrwt>0</asrwt>
<pdfrwt beam="2">  1        4 0.26758479E-01 0.12500501E+03</pdfrwt>
<pdfrwt beam="1">  1       -4 0.34554670E-02 0.12500501E+03</pdfrwt>
<totfact> 0.90736913E+03</totfact>
</mgrwt>
</event>
<event>
 5    1  0.3209683E-002  0.1250012E+03  0.7818608E-02  0.1235067E+00
         -4   -1    0    0    0  501 -0.00000000000E+00  0.00000000000E+00  0.45005904493E+03  0.45006083681E+03  0.12700000000E+01 0.  1.
          4   -1    0    0  501    0  0.00000000000E+00 -0.00000000000E+00 -0.86313141112E+01  0.87242468607E+01  0.12700000000E+01 0.  1.
         25    2    1    2    0    0  0.00000000000E+00  0.00000000000E+00  0.44142773082E+03  0.45878508367E+03  0.12500124582E+03 0.  0.
    9000005    1    3    3    0    0  0.44855198860E+02 -0.17416336290E+02  0.74363130648E+02  0.88578738049E+02  0.10000000000E+01 0.  0.
    9000005    1    3    3    0    0 -0.44855198860E+02  0.17416336290E+02  0.36706460017E+03  0.37020634562E+03  0.10000000000E+01 0.  0.
<mgrwt>
<rscale>  0 0.12500125E+03</rscale>
<asrwt>0</asrwt>
<pdfrwt beam="2">  1        4 0.13351809E-02 0.12500125E+03</pdfrwt>
<pdfrwt beam="1">  1       -4 0.69247143E-01 0.12500125E+03</pdfrwt>
<totfact> 0.59208600E+03</totfact>
</mgrwt>
</event>
<event>
 5    1  0.3209683E-002  0.1249953E+03  0.7818608E-02  0.1235077E+00
         -4   -1    0    0    0  501 -0.00000000000E+00  0.00000000000E+00  0.64370848717E+03  0.64370973999E+03  0.12700000000E+01 0. -1.
          4   -1    0    0  501    0  0.00000000000E+00 -0.00000000000E+00 -0.60001736831E+01  0.61331055940E+01  0.12700000000E+01 0. -1.
         25    2    1    2    0    0  0.00000000000E+00  0.00000000000E+00  0.63770831349E+03  0.64984284558E+03  0.12499532336E+03 0.  0.
    9000005    1    3    3    0    0  0.51343326262E+02 -0.24782527657E+02  0.18583379299E+03  0.19438495170E+03  0.10000000000E+01 0.  0.
    9000005    1    3    3    0    0 -0.51343326262E+02  0.24782527657E+02  0.45187452049E+03  0.45545789388E+03  0.10000000000E+01 0.  0.
<mgrwt>
<rscale>  0 0.12499532E+03</rscale>
<asrwt>0</asrwt>
<pdfrwt beam="2">  1        4 0.93342591E-03 0.12499532E+03</pdfrwt>
<pdfrwt beam="1">  1       -4 0.99042358E-01 0.12499532E+03</pdfrwt>
<totfact> 0.45869846E+03</totfact>
</mgrwt>
</event>
<event>
 5    1  0.3209683E-002  0.1249859E+03  0.7818608E-02  0.1235091E+00
          4   -1    0    0  501    0  0.00000000000E+00  0.00000000000E+00  0.37386848475E+02  0.37408412675E+02  0.12700000000E+01 0.  1.
         -4   -1    0    0    0  501 -0.00000000000E+00 -0.00000000000E+00 -0.10440285076E+03  0.10441057488E+03  0.12700000000E+01 0.  1.
         25    2    1    2    0    0  0.00000000000E+00  0.00000000000E+00 -0.67016002289E+02  0.14181898756E+03  0.12498592189E+03 0.  0.
    9000005    1    3    3    0    0  0.46621944489E+02  0.95482951925E+01  0.12437343289E+02  0.49198202783E+02  0.10000000000E+01 0.  0.
    9000005    1    3    3    0    0 -0.46621944489E+02 -0.95482951925E+01 -0.79453345577E+02  0.92620784776E+02  0.10000000000E+01 0.  0.
<mgrwt>
<rscale>  0 0.12498592E+03</rscale>
<asrwt>0</asrwt>
<pdfrwt beam="1">  1        4 0.57540758E-02 0.12498592E+03</pdfrwt>
<pdfrwt beam="2">  1       -4 0.16064230E-01 0.12498592E+03</pdfrwt>
<totfact> 0.10099227E+04</totfact>
</mgrwt>
</event>
<event>
 5    1  0.3209683E-002  0.1249755E+03  0.7818608E-02  0.1235108E+00
          4   -1    0    0  501    0  0.00000000000E+00  0.00000000000E+00  0.59875100206E+03  0.59875234894E+03  0.12700000000E+01 0. -1.
         -4   -1    0    0    0  501 -0.00000000000E+00 -0.00000000000E+00 -0.64582454604E+01  0.65819324235E+01  0.12700000000E+01 0. -1.
         25    2    1    2    0    0  0.00000000000E+00  0.00000000000E+00  0.59229275660E+03  0.60533428137E+03  0.12497552833E+03 0.  0.
    9000005    1    3    3    0    0  0.60617373105E+02  0.61848487930E+00  0.36942323534E+03  0.37436529654E+03  0.10000000000E+01 0.  0.
    9000005    1    3    3    0    0 -0.60617373105E+02 -0.61848487930E+00  0.22286952126E+03  0.23096898483E+03  0.10000000000E+01 0.  0.
<mgrwt>
<rscale>  0 0.12497553E+03</rscale>
<asrwt>0</asrwt>
<pdfrwt beam="1">  1        4 0.92125163E-01 0.12497553E+03</pdfrwt>
<pdfrwt beam="2">  1       -4 0.10031941E-02 0.12497553E+03</pdfrwt>
<totfact> 0.48558663E+03</totfact>
</mgrwt>
</event>
<event>
 5    1  0.3209683E-002  0.1250071E+03  0.7818608E-02  0.1235058E+00
         -4   -1    0    0    0  501 -0.00000000000E+00  0.00000000000E+00  0.10913324561E+04  0.10913331951E+04  0.12700000000E+01 0.  1.
          4   -1    0    0  501    0  0.00000000000E+00 -0.00000000000E+00 -0.34663408936E+01  0.36916688896E+01  0.12700000000E+01 0.  1.
         25    2    1    2    0    0  0.00000000000E+00  0.00000000000E+00  0.10878661153E+04  0.10950248640E+04  0.12500707201E+03 0.  0.
    9000005    1    3    3    0    0  0.38473595029E+02 -0.46114223440E+02  0.69539055596E+03  0.69797977366E+03  0.10000000000E+01 0.  0.
    9000005    1    3    3    0    0 -0.38473595029E+02  0.46114223440E+02  0.39247555929E+03  0.39704509033E+03  0.10000000000E+01 0.  0.
<mgrwt>
<rscale>  0 0.12500707E+03</rscale>
<asrwt>0</asrwt>
<pdfrwt beam="2">  1        4 0.55067269E-03 0.12500707E+03</pdfrwt>
<pdfrwt beam="1">  1       -4 0.16791478E+00 0.12500707E+03</pdfrwt>
<totfact> 0.27625173E+03</totfact>
</mgrwt>
</event>
<event>
 5    1  0.3209683E-002  0.1249986E+03  0.7818608E-02  0.1235071E+00
         -4   -1    0    0    0  501 -0.00000000000E+00  0.00000000000E+00  0.17416853394E+03  0.17417316416E+03  0.12700000000E+01 0. -1.
          4   -1    0    0  501    0  0.00000000000E+00 -0.00000000000E+00 -0.22404586871E+02  0.22440552865E+02  0.12700000000E+01 0. -1.
         25    2    1    2    0    0  0.00000000000E+00  0.00000000000E+00  0.15176394707E+03  0.19661371703E+03  0.12499863237E+03 0.  0.
    9000005    1    3    3    0    0  0.29979615453E+02  0.47271586478E+02  0.11957946640E+03  0.13203646850E+03  0.10000000000E+01 0.  0.
    9000005    1    3    3    0    0 -0.29979615453E+02 -0.47271586478E+02  0.32184480669E+02  0.64577248523E+02  0.10000000000E+01 0.  0.
<mgrwt>
<rscale>  0 0.12499863E+03</rscale>
<asrwt>0</asrwt>
<pdfrwt beam="2">  1        4 0.34499822E-02 0.12499863E+03</pdfrwt>
<pdfrwt beam="1">  1       -4 0.26798283E-01 0.12499863E+03</pdfrwt>
<totfact> 0.90711889E+03</totfact>
</mgrwt>
</event>
<event>
 5    1  0.3209683E-002  0.1249999E+03  0.7818608E-02  0.1235069E+00
         -4   -1    0    0    0  501 -0.00000000000E+00  0.00000000000E+00  0.17955000573E+03  0.17955449718E+03  0.12700000000E+01 0.  1.
          4   -1    0    0  501    0  0.00000000000E+00 -0.00000000000E+00 -0.21732427505E+02  0.21769504019E+02  0.12700000000E+01 0.  1.
         25    2    1    2    0    0  0.00000000000E+00  0.00000000000E+00  0.15781757823E+03  0.20132400120E+03  0.12499986185E+03 0.  0.
    9000005    1    3    3    0    0  0.30660771563E+02 -0.27754178455E+02  0.15436410314E+03  0.15981130646E+03  0.10000000000E+01 0.  0.
    9000005    1    3    3    0    0 -0.30660771563E+02  0.27754178455E+02  0.34534750884E+01  0.41512694742E+02  0.10000000000E+01 0.  0.
<mgrwt>
<rscale>  0 0.12499986E+03</rscale>
<asrwt>0</asrwt>
<pdfrwt beam="2">  1        4 0.33466479E-02 0.12499986E+03</pdfrwt>
<pdfrwt beam="1">  1       -4 0.27626275E-01 0.12499986E+03</pdfrwt>
<totfact> 0.89912960E+03</totfact>
</mgrwt>
</event>
<event>
 5    1  0.3209683E-002  0.1249988E+03  0.7818608E-02  0.1235071E+00
          4   -1    0    0  501    0  0.00000000000E+00  0.00000000000E+00  0.95883096562E+03  0.95883180670E+03  0.12700000000E+01 0. -1.
         -4   -1    0    0    0  501 -0.00000000000E+00 -0.00000000000E+00 -0.39740530472E+01  0.41720495709E+01  0.12700000000E+01 0. -1.
         25    2    1    2    0    0  0.00000000000E+00  0.00000000000E+00  0.95485691257E+03  0.96300385627E+03  0.12499881478E+03 0.  0.
    9000005    1    3    3    0    0  0.44113821409E+02  0.10511061549E+02  0.80867484699E+03  0.80994599808E+03  0.10000000000E+01 0.  0.
    9000005    1    3    3    0    0 -0.44113821409E+02 -0.10511061549E+02  0.14618206559E+03  0.15305785819E+03  0.10000000000E+01 0.  0.
<mgrwt>
<rscale>  0 0.12499881E+03</rscale>
<asrwt>0</asrwt>
<pdfrwt beam="1">  1        4 0.14752789E+00 0.12499881E+03</pdfrwt>
<pdfrwt beam="2">  1       -4 0.62668739E-03 0.12499881E+03</pdfrwt>
<totfact> 0.31859527E+03</totfact>
</mgrwt>
</event>
<event>
 5    1  0.3209683E-002  0.1250000E+03  0.7818608E-02  0.1235069E+00
         -4   -1    0    0    0  501 -0.00000000000E+00  0.00000000000E+00  0.67975604851E+03  0.67975723489E+03  0.12700000000E+01 0.  1.
          4   -1    0    0  501    0  0.00000000000E+00 -0.00000000000E+00 -0.56751706764E+01  0.58155362785E+01  0.12700000000E+01 0.  1.
         25    2    1    2    0    0  0.00000000000E+00  0.00000000000E+00  0.67408087783E+03  0.68557277116E+03  0.12499997883E+03 0.  0.
    9000005    1    3    3    0    0  0.31880887366E+01  0.30732207449E+02  0.63496066005E+03  0.63571272781E+03  0.10000000000E+01 0.  0.
    9000005    1    3    3    0    0 -0.31880887366E+01 -0.30732207449E+02  0.39120217777E+02  0.49860043355E+02  0.10000000000E+01 0.  0.
<mgrwt>
<rscale>  0 0.12499998E+03</rscale>
<asrwt>0</asrwt>
<pdfrwt beam="2">  1        4 0.88399215E-03 0.12499998E+03</pdfrwt>
<pdfrwt beam="1">  1       -4 0.10458870E+00 0.12499998E+03</pdfrwt>
<totfact> 0.43859343E+03</totfact>
</mgrwt>
</event>
<event>
 5    1  0.3209683E-002  0.1250004E+03  0.7818608E-02  0.1235069E+00
         -4   -1    0    0    0  501 -0.00000000000E+00  0.00000000000E+00  0.17577494907E+03  0.17577953698E+03  0.12700000000E+01 0.  1.
          4   -1    0    0  501    0  0.00000000000E+00 -0.00000000000E+00 -0.22200130782E+02  0.22236427473E+02  0.12700000000E+01 0.  1.
         25    2    1    2    0    0  0.00000000000E+00  0.00000000000E+00  0.15357481828E+03  0.19801596445E+03  0.12500038946E+03 0.  0.
    9000005    1    3    3    0    0  0.47912893913E+02  0.97172949221E+01  0.15124463541E+02  0.51184183310E+02  0.10000000000E+01 0.  0.
    9000005    1    3    3    0    0 -0.47912893913E+02 -0.97172949221E+01  0.13845035474E+03  0.14683178114E+03  0.10000000000E+01 0.  0.
<mgrwt>
<rscale>  0 0.12500039E+03</rscale>
<asrwt>0</asrwt>
<pdfrwt beam="2">  1        4 0.34185496E-02 0.12500039E+03</pdfrwt>
<pdfrwt beam="1">  1       -4 0.27045446E-01 0.12500039E+03</pdfrwt>
<totfact> 0.90470177E+03</totfact>
</mgrwt>
</event>
<event>
 5    1  0.3209683E-002  0.1250004E+03  0.7818608E-02  0.1235069E+00
         -4   -1    0    0    0  501 -0.00000000000E+00  0.00000000000E+00  0.15208670147E+02  0.15261603705E+02  0.12700000000E+01 0. -1.
          4   -1    0    0  501    0  0.00000000000E+00 -0.00000000000E+00 -0.25634475521E+03  0.25634790115E+03  0.12700000000E+01 0. -1.
         25    2    1    2    0    0  0.00000000000E+00  0.00000000000E+00 -0.24113608506E+03  0.27160950485E+03  0.12500044643E+03 0.  0.
    9000005    1    3    3    0    0  0.56734911928E+02 -0.25817674042E+02 -0.11088100256E+03  0.12720455673E+03  0.10000000000E+01 0.  0.
    9000005    1    3    3    0    0 -0.56734911928E+02  0.25817674042E+02 -0.13025508250E+03  0.14440494812E+03  0.10000000000E+01 0.  0.
<mgrwt>
<rscale>  0 0.12500045E+03</rscale>
<asrwt>0</asrwt>
<pdfrwt beam="2">  1        4 0.39441965E-01 0.12500045E+03</pdfrwt>
<pdfrwt beam="1">  1       -4 0.23441094E-02 0.12500045E+03</pdfrwt>
<totfact> 0.79303155E+03</totfact>
</mgrwt>
</event>
<event>
 5    1  0.3209683E-002  0.1250012E+03  0.7818608E-02  0.1235067E+00
         -4   -1    0    0    0  501 -0.00000000000E+00  0.00000000000E+00  0.66913596694E+01  0.68108145053E+01  0.12700000000E+01 0.  1.
          4   -1    0    0  501    0  0.00000000000E+00 -0.00000000000E+00 -0.57850190995E+03  0.57850330398E+03  0.12700000000E+01 0.  1.
         25    2    1    2    0    0  0.00000000000E+00  0.00000000000E+00 -0.57181055028E+03  0.58531411848E+03  0.12500124754E+03 0.  0.
    9000005    1    3    3    0    0 -0.96495844636E+01  0.43422732865E+02 -0.49143726189E+03  0.49344729261E+03  0.10000000000E+01 0.  0.
    9000005    1    3    3    0    0  0.96495844636E+01 -0.43422732865E+02 -0.80373288393E+02  0.91866825878E+02  0.10000000000E+01 0.  0.
<mgrwt>
<rscale>  0 0.12500125E+03</rscale>
<asrwt>0</asrwt>
<pdfrwt beam="2">  1        4 0.89009551E-01 0.12500125E+03</pdfrwt>
<pdfrwt beam="1">  1       -4 0.10387365E-02 0.12500125E+03</pdfrwt>
<totfact> 0.49806597E+03</totfact>
</mgrwt>
</event>
<event>
 5    1  0.3209683E-002  0.1249961E+03  0.7818608E-02  0.1235075E+00
         -4   -1    0    0    0  501 -0.00000000000E+00  0.00000000000E+00  0.15655700022E+02  0.15707127146E+02  0.12700000000E+01 0. -1.
          4   -1    0    0  501    0  0.00000000000E+00 -0.00000000000E+00 -0.24903200782E+03  0.24903524614E+03  0.12700000000E+01 0. -1.
         25    2    1    2    0    0  0.00000000000E+00  0.00000000000E+00 -0.23337630780E+03  0.26474237328E+03  0.12499609262E+03 0.  0.
    9000005    1    3    3    0    0  0.55145360120E+02 -0.23172264363E+02 -0.15499075467E+03  0.16613578365E+03  0.10000000000E+01 0.  0.
    9000005    1    3    3    0    0 -0.55145360120E+02  0.23172264363E+02 -0.78385553131E+02  0.98606589628E+02  0.10000000000E+01 0.  0.
<mgrwt>
<rscale>  0 0.12499609E+03</rscale>
<asrwt>0</asrwt>
<pdfrwt beam="2">  1        4 0.38316819E-01 0.12499609E+03</pdfrwt>
<pdfrwt beam="1">  1       -4 0.24127745E-02 0.12499609E+03</pdfrwt>
<totfact> 0.80252087E+03</totfact>
</mgrwt>
</event>
<event>
 5    1  0.3209683E-002  0.1249997E+03  0.7818608E-02  0.1235070E+00
         -4   -1    0    0    0  501 -0.00000000000E+00  0.00000000000E+00  0.20716110317E+02  0.20755002449E+02  0.12700000000E+01 0.  1.
          4   -1    0    0  501    0  0.00000000000E+00 -0.00000000000E+00 -0.18834218852E+03  0.18834647030E+03  0.12700000000E+01 0.  1.
         25    2    1    2    0    0  0.00000000000E+00  0.00000000000E+00 -0.16762607820E+03  0.20910147275E+03  0.12499969526E+03 0.  0.
    9000005    1    3    3    0    0 -0.42013212811E+02  0.33840510996E+02 -0.13657813598E+03  0.14684984666E+03  0.10000000000E+01 0.  0.
    9000005    1    3    3    0    0  0.42013212811E+02 -0.33840510996E+02 -0.31047942216E+02  0.62251626092E+02  0.10000000000E+01 0.  0.
<mgrwt>
<rscale>  0 0.12499970E+03</rscale>
<asrwt>0</asrwt>
<pdfrwt beam="2">  1        4 0.28979041E-01 0.12499970E+03</pdfrwt>
<pdfrwt beam="1">  1       -4 0.31904151E-02 0.12499970E+03</pdfrwt>
<totfact> 0.88623437E+03</totfact>
</mgrwt>
</event>
<event>
 5    1  0.3209683E-002  0.1249979E+03  0.7818608E-02  0.1235073E+00
          4   -1    0    0  501    0  0.00000000000E+00  0.00000000000E+00  0.26845106690E+02  0.26875130757E+02  0.12700000000E+01 0. -1.
         -4   -1    0    0    0  501 -0.00000000000E+00 -0.00000000000E+00 -0.14539176454E+03  0.14539731117E+03  0.12700000000E+01 0. -1.
         25    2    1    2    0    0  0.00000000000E+00  0.00000000000E+00 -0.11854665785E+03  0.17227244193E+03  0.12499793663E+03 0.  0.
    9000005    1    3    3    0    0 -0.40078295720E+02 -0.12960923702E+02  0.43462815977E+01  0.42357354672E+02  0.10000000000E+01 0.  0.
    9000005    1    3    3    0    0  0.40078295720E+02  0.12960923702E+02 -0.12289293945E+03  0.12991508726E+03  0.10000000000E+01 0.  0.
<mgrwt>
<rscale>  0 0.12499794E+03</rscale>
<asrwt>0</asrwt>
<pdfrwt beam="1">  1        4 0.41327527E-02 0.12499794E+03</pdfrwt>
<pdfrwt beam="2">  1       -4 0.22370700E-01 0.12499794E+03</pdfrwt>
<totfact> 0.95031174E+03</totfact>
</mgrwt>
</event>
<event>
 5    1  0.3209683E-002  0.1250001E+03  0.7818608E-02  0.1235069E+00
         -4   -1    0    0    0  501 -0.00000000000E+00  0.00000000000E+00  0.22091986801E+02  0.22128460878E+02  0.12700000000E+01 0.  1.
          4   -1    0    0  501    0  0.00000000000E+00 -0.00000000000E+00 -0.17663314740E+03  0.17663771302E+03  0.12700000000E+01 0.  1.
         25    2    1    2    0    0  0.00000000000E+00  0.00000000000E+00 -0.15454116060E+03  0.19876617389E+03  0.12500008626E+03 0.  0.
    9000005    1    3    3    0    0 -0.54347268650E+02  0.28779603473E+02 -0.94932046256E+02  0.11311491764E+03  0.10000000000E+01 0.  0.
    9000005    1    3    3    0    0  0.54347268650E+02 -0.28779603473E+02 -0.59609114340E+02  0.85651256256E+02  0.10000000000E+01 0.  0.
<mgrwt>
<rscale>  0 0.12500009E+03</rscale>
<asrwt>0</asrwt>
<pdfrwt beam="2">  1        4 0.27177486E-01 0.12500009E+03</pdfrwt>
<pdfrwt beam="1">  1       -4 0.34019242E-02 0.12500009E+03</pdfrwt>
<totfact> 0.90343830E+03</totfact>
</mgrwt>
</event>
<event>
 5    1  0.3209683E-002  0.1250021E+03  0.7818608E-02  0.1235066E+00
          4   -1    0    0  501    0  0.00000000000E+00  0.00000000000E+00  0.10218653232E+03  0.10219442396E+03  0.12700000000E+01 0.  1.
         -4   -1    0    0    0  501 -0.00000000000E+00 -0.00000000000E+00 -0.38208030281E+02  0.38229131274E+02  0.12700000000E+01 0.  1.
         25    2    1    2    0    0  0.00000000000E+00  0.00000000000E+00  0.63978502043E+02  0.14042355523E+03  0.12500210455E+03 0.  0.
    9000005    1    3    3    0    0  0.50470024867E+02  0.89131373775E+00  0.73376899549E+02  0.89068441312E+02  0.10000000000E+01 0.  0.
    9000005    1    3    3    0    0 -0.50470024867E+02 -0.89131373775E+00 -0.93983975057E+01  0.51355113922E+02  0.10000000000E+01 0.  0.
<mgrwt>
<rscale>  0 0.12500210E+03</rscale>
<asrwt>0</asrwt>
<pdfrwt beam="1">  1        4 0.15723235E-01 0.12500210E+03</pdfrwt>
<pdfrwt beam="2">  1       -4 0.58803888E-02 0.12500210E+03</pdfrwt>
<totfact> 0.10124335E+04</totfact>
</mgrwt>
</event>
<event>
 5    1  0.3209683E-002  0.1249932E+03  0.7818608E-02  0.1235080E+00
          4   -1    0    0  501    0  0.00000000000E+00  0.00000000000E+00  0.16452768696E+03  0.16453258849E+03  0.12700000000E+01 0. -1.
         -4   -1    0    0    0  501 -0.00000000000E+00 -0.00000000000E+00 -0.23717358609E+02  0.23751336791E+02  0.12700000000E+01 0. -1.
         25    2    1    2    0    0  0.00000000000E+00  0.00000000000E+00  0.14081032835E+03  0.18828392528E+03  0.12499315161E+03 0.  0.
    9000005    1    3    3    0    0  0.30979668300E+02 -0.46060171004E+02  0.27176669863E+02  0.61813029256E+02  0.10000000000E+01 0.  0.
    9000005    1    3    3    0    0 -0.30979668300E+02  0.46060171004E+02  0.11363365849E+03  0.12647089603E+03  0.10000000000E+01 0.  0.
<mgrwt>
<rscale>  0 0.12499315E+03</rscale>
<asrwt>0</asrwt>
<pdfrwt beam="1">  1        4 0.25314943E-01 0.12499315E+03</pdfrwt>
<pdfrwt beam="2">  1       -4 0.36518151E-02 0.12499315E+03</pdfrwt>
<totfact> 0.92160905E+03</totfact>
</mgrwt>
</event>
<event>
 5    1  0.3209683E-002  0.1250030E+03  0.7818608E-02  0.1235065E+00
         -4   -1    0    0    0  501 -0.00000000000E+00  0.00000000000E+00  0.19407184602E+03  0.19407600139E+03  0.12700000000E+01 0.  1.
          4   -1    0    0  501    0  0.00000000000E+00 -0.00000000000E+00 -0.20104407597E+02  0.20144480754E+02  0.12700000000E+01 0.  1.
         25    2    1    2    0    0  0.00000000000E+00  0.00000000000E+00  0.17396743842E+03  0.21422048214E+03  0.12500298133E+03 0.  0.
    9000005    1    3    3    0    0  0.26431277301E+01  0.60667128179E+02  0.11228362059E+03  0.12765617110E+03  0.10000000000E+01 0.  0.
    9000005    1    3    3    0    0 -0.26431277301E+01 -0.60667128179E+02  0.61683817827E+02  0.86564311049E+02  0.10000000000E+01 0.  0.
<mgrwt>
<rscale>  0 0.12500298E+03</rscale>
<asrwt>0</asrwt>
<pdfrwt beam="2">  1        4 0.30963878E-02 0.12500298E+03</pdfrwt>
<pdfrwt beam="1">  1       -4 0.29860611E-01 0.12500298E+03</pdfrwt>
<totfact> 0.87785375E+03</totfact>
</mgrwt>
</event>
<event>
 5    1  0.3209683E-002  0.1249912E+03  0.7818608E-02  0.1235083E+00
         -4   -1    0    0    0  501 -0.00000000000E+00  0.00000000000E+00  0.19711806527E+03  0.19712215643E+03  0.12700000000E+01 0. -1.
          4   -1    0    0  501    0  0.00000000000E+00 -0.00000000000E+00 -0.19789370820E+02  0.19830080622E+02  0.12700000000E+01 0. -1.
         25    2    1    2    0    0  0.00000000000E+00  0.00000000000E+00  0.17732869445E+03  0.21695223705E+03  0.12499122884E+03 0.  0.
    9000005    1    3    3    0    0 -0.25187949217E+02 -0.45365193316E+01 -0.10283305663E+02  0.27599984941E+02  0.10000000000E+01 0.  0.
    9000005    1    3    3    0    0  0.25187949217E+02  0.45365193316E+01  0.18761200011E+03  0.18935225211E+03  0.10000000000E+01 0.  0.
<mgrwt>
<rscale>  0 0.12499123E+03</rscale>
<asrwt>0</asrwt>
<pdfrwt beam="2">  1        4 0.30479649E-02 0.12499123E+03</pdfrwt>
<pdfrwt beam="1">  1       -4 0.30329302E-01 0.12499123E+03</pdfrwt>
<totfact> 0.87370048E+03</totfact>
</mgrwt>
</event>
<event>
 5    1  0.3209683E-002  0.1250124E+03  0.7818608E-02  0.1235050E+00
         -4   -1    0    0    0  501 -0.00000000000E+00  0.00000000000E+00  0.11327531161E+02  0.11398502630E+02  0.12700000000E+01 0. -1.
          4   -1    0    0  501    0  0.00000000000E+00 -0.00000000000E+00 -0.34376479087E+03  0.34376713679E+03  0.12700000000E+01 0. -1.
         25    2    1    2    0    0  0.00000000000E+00  0.00000000000E+00 -0.33243725971E+03  0.35516563942E+03  0.12501239853E+03 0.  0.
    9000005    1    3    3    0    0 -0.10693319376E+02 -0.60014761478E+02 -0.12706721063E+03  0.14093684646E+03  0.10000000000E+01 0.  0.
    9000005    1    3    3    0    0  0.10693319376E+02  0.60014761478E+02 -0.20537004908E+03  0.21422879296E+03  0.10000000000E+01 0.  0.
<mgrwt>
<rscale>  0 0.12501240E+03</rscale>
<asrwt>0</asrwt>
<pdfrwt beam="2">  1        4 0.52892523E-01 0.12501240E+03</pdfrwt>
<pdfrwt beam="1">  1       -4 0.17483372E-02 0.12501240E+03</pdfrwt>
<totfact> 0.69141022E+03</totfact>
</mgrwt>
</event>
<event>
 5    1  0.3209683E-002  0.1250004E+03  0.7818608E-02  0.1235069E+00
          4   -1    0    0  501    0  0.00000000000E+00  0.00000000000E+00  0.14864042196E+02  0.14918198631E+02  0.12700000000E+01 0. -1.
         -4   -1    0    0    0  501 -0.00000000000E+00 -0.00000000000E+00 -0.26226656184E+03  0.26226963675E+03  0.12700000000E+01 0. -1.
         25    2    1    2    0    0  0.00000000000E+00  0.00000000000E+00 -0.24740251964E+03  0.27718783538E+03  0.12500035742E+03 0.  0.
    9000005    1    3    3    0    0 -0.39782436762E+02 -0.26752124225E+01 -0.23040577605E+03  0.23383246283E+03  0.10000000000E+01 0.  0.
    9000005    1    3    3    0    0  0.39782436762E+02  0.26752124225E+01 -0.16996743599E+02  0.43355372553E+02  0.10000000000E+01 0.  0.
<mgrwt>
<rscale>  0 0.12500036E+03</rscale>
<asrwt>0</asrwt>
<pdfrwt beam="1">  1        4 0.22911783E-02 0.12500036E+03</pdfrwt>
<pdfrwt beam="2">  1       -4 0.40353101E-01 0.12500036E+03</pdfrwt>
<totfact> 0.78551839E+03</totfact>
</mgrwt>
</event>
<event>
 5    1  0.3209683E-002  0.1249980E+03  0.7818608E-02  0.1235072E+00
          4   -1    0    0  501    0  0.00000000000E+00  0.00000000000E+00  0.24687532517E+03  0.24687859177E+03  0.12700000000E+01 0. -1.
         -4   -1    0    0    0  501 -0.00000000000E+00 -0.00000000000E+00 -0.15793387458E+02  0.15844367687E+02  0.12700000000E+01 0. -1.
         25    2    1    2    0    0  0.00000000000E+00  0.00000000000E+00  0.23108193771E+03  0.26272295946E+03  0.12499796595E+03 0.  0.
    9000005    1    3    3    0    0  0.27057953630E+01 -0.52683287824E+02  0.45129356961E+02  0.69429885526E+02  0.10000000000E+01 0.  0.
    9000005    1    3    3    0    0 -0.27057953630E+01  0.52683287824E+02  0.18595258075E+03  0.19329307393E+03  0.10000000000E+01 0.  0.
<mgrwt>
<rscale>  0 0.12499797E+03</rscale>
<asrwt>0</asrwt>
<pdfrwt beam="1">  1        4 0.37984991E-01 0.12499797E+03</pdfrwt>
<pdfrwt beam="2">  1       -4 0.24339248E-02 0.12499797E+03</pdfrwt>
<totfact> 0.80529089E+03</totfact>
</mgrwt>
</event>
<event>
 5    1  0.3209683E-002  0.1250036E+03  0.7818608E-02  0.1235064E+00
          4   -1    0    0  501    0  0.00000000000E+00  0.00000000000E+00  0.86970649685E+02  0.86979921859E+02  0.12700000000E+01 0. -1.
         -4   -1    0    0    0  501 -0.00000000000E+00 -0.00000000000E+00 -0.44896513436E+02  0.44914472263E+02  0.12700000000E+01 0. -1.
         25    2    1    2    0    0  0.00000000000E+00  0.00000000000E+00  0.42074136249E+02  0.13189439412E+03  0.12500359299E+03 0.  0.
    9000005    1    3    3    0    0  0.53267466311E+02  0.29298061536E+02  0.36315450028E+02  0.70820980561E+02  0.10000000000E+01 0.  0.
    9000005    1    3    3    0    0 -0.53267466311E+02 -0.29298061536E+02  0.57586862208E+01  0.61073413561E+02  0.10000000000E+01 0.  0.
<mgrwt>
<rscale>  0 0.12500359E+03</rscale>
<asrwt>0</asrwt>
<pdfrwt beam="1">  1        4 0.13382194E-01 0.12500359E+03</pdfrwt>
<pdfrwt beam="2">  1       -4 0.69092507E-02 0.12500359E+03</pdfrwt>
<totfact> 0.10303118E+04</totfact>
</mgrwt>
</event>
<event>
 5    1  0.3209683E-002  0.1250047E+03  0.7818608E-02  0.1235062E+00
         -4   -1    0    0    0  501 -0.00000000000E+00  0.00000000000E+00  0.22541681630E+03  0.22542039387E+03  0.12700000000E+01 0.  1.
          4   -1    0    0  501    0  0.00000000000E+00 -0.00000000000E+00 -0.17303317224E+02  0.17349861295E+02  0.12700000000E+01 0.  1.
         25    2    1    2    0    0  0.00000000000E+00  0.00000000000E+00  0.20811349908E+03  0.24277025517E+03  0.12500467309E+03 0.  0.
    9000005    1    3    3    0    0 -0.48950061678E+02  0.21815059667E+02  0.16649233362E+03  0.17490769715E+03  0.10000000000E+01 0.  0.
    9000005    1    3    3    0    0  0.48950061678E+02 -0.21815059667E+02  0.41621165459E+02  0.67862558018E+02  0.10000000000E+01 0.  0.
<mgrwt>
<rscale>  0 0.12500467E+03</rscale>
<asrwt>0</asrwt>
<pdfrwt beam="2">  1        4 0.26659045E-02 0.12500467E+03</pdfrwt>
<pdfrwt beam="1">  1       -4 0.34683363E-01 0.12500467E+03</pdfrwt>
<totfact> 0.83377826E+03</totfact>
</mgrwt>
</event>
<event>
 5    1  0.3209683E-002  0.1249984E+03  0.7818608E-02  0.1235072E+00
          4   -1    0    0  501    0  0.00000000000E+00  0.00000000000E+00  0.12525883791E+02  0.12590101857E+02  0.12700000000E+01 0. -1.
         -4   -1    0    0    0  501 -0.00000000000E+00 -0.00000000000E+00 -0.31098314714E+03  0.31098574035E+03  0.12700000000E+01 0. -1.
         25    2    1    2    0    0  0.00000000000E+00  0.00000000000E+00 -0.29845726335E+03  0.32357584221E+03  0.12499835046E+03 0.  0.
    9000005    1    3    3    0    0  0.13072347576E+02 -0.33575917902E+02 -0.17057829880E+02  0.39877287951E+02  0.10000000000E+01 0.  0.
    9000005    1    3    3    0    0 -0.13072347576E+02  0.33575917902E+02 -0.28139943347E+03  0.28369855426E+03  0.10000000000E+01 0.  0.
<mgrwt>
<rscale>  0 0.12499835E+03</rscale>
<asrwt>0</asrwt>
<pdfrwt beam="1">  1        4 0.19321986E-02 0.12499835E+03</pdfrwt>
<pdfrwt beam="2">  1       -4 0.47848694E-01 0.12499835E+03</pdfrwt>
<totfact> 0.72735497E+03</totfact>
</mgrwt>
</event>
<event>
 5    1  0.3209683E-002  0.1250015E+03  0.7818608E-02  0.1235067E+00
          4   -1    0    0  501    0  0.00000000000E+00  0.00000000000E+00  0.19637646963E+02  0.19678670642E+02  0.12700000000E+01 0.  1.
         -4   -1    0    0    0  501 -0.00000000000E+00 -0.00000000000E+00 -0.19867045618E+03  0.19867451538E+03  0.12700000000E+01 0.  1.
         25    2    1    2    0    0  0.00000000000E+00  0.00000000000E+00 -0.17903280922E+03  0.21835318602E+03  0.12500146826E+03 0.  0.
    9000005    1    3    3    0    0 -0.75614799065E+01 -0.59068500113E+02 -0.12261723339E+03  0.13631672534E+03  0.10000000000E+01 0.  0.
    9000005    1    3    3    0    0  0.75614799065E+01  0.59068500113E+02 -0.56415575830E+02  0.82036460675E+02  0.10000000000E+01 0.  0.
<mgrwt>
<rscale>  0 0.12500147E+03</rscale>
<asrwt>0</asrwt>
<pdfrwt beam="1">  1        4 0.30246445E-02 0.12500147E+03</pdfrwt>
<pdfrwt beam="2">  1       -4 0.30568152E-01 0.12500147E+03</pdfrwt>
<totfact> 0.87126752E+03</totfact>
</mgrwt>
</event>
<event>
 5    1  0.3209683E-002  0.1249984E+03  0.7818608E-02  0.1235072E+00
         -4   -1    0    0    0  501 -0.00000000000E+00  0.00000000000E+00  0.34713756417E+03  0.34713988730E+03  0.12700000000E+01 0. -1.
          4   -1    0    0  501    0  0.00000000000E+00 -0.00000000000E+00 -0.11214251210E+02  0.11285935061E+02  0.12700000000E+01 0. -1.
         25    2    1    2    0    0  0.00000000000E+00  0.00000000000E+00  0.33592331296E+03  0.35842582236E+03  0.12499839178E+03 0.  0.
    9000005    1    3    3    0    0  0.74041263597E+01 -0.28686854051E+02  0.32573340987E+03  0.32707951784E+03  0.10000000000E+01 0.  0.
    9000005    1    3    3    0    0 -0.74041263597E+01  0.28686854051E+02  0.10189903086E+02  0.31346304525E+02  0.10000000000E+01 0.  0.
<mgrwt>
<rscale>  0 0.12499839E+03</rscale>
<asrwt>0</asrwt>
<pdfrwt beam="2">  1        4 0.17309625E-02 0.12499839E+03</pdfrwt>
<pdfrwt beam="1">  1       -4 0.53411463E-01 0.12499839E+03</pdfrwt>
<totfact> 0.68809904E+03</totfact>
</mgrwt>
</event>
<event>
 5    1  0.3209683E-002  0.1250022E+03  0.7818608E-02  0.1235066E+00
          4   -1    0    0  501    0  0.00000000000E+00  0.00000000000E+00  0.32292845122E+01  0.34700401238E+01  0.12700000000E+01 0. -1.
         -4   -1    0    0    0  501 -0.00000000000E+00 -0.00000000000E+00 -0.11659614185E+04  0.11659621101E+04  0.12700000000E+01 0. -1.
         25    2    1    2    0    0  0.00000000000E+00  0.00000000000E+00 -0.11627321340E+04  0.11694321503E+04  0.12500215483E+03 0.  0.
    9000005    1    3    3    0    0  0.33580214207E+02  0.63175444330E+01 -0.10708762855E+04  0.10714217475E+04  0.10000000000E+01 0.  0.
    9000005    1    3    3    0    0 -0.33580214207E+02 -0.63175444330E+01 -0.91855848471E+02  0.98010402775E+02  0.10000000000E+01 0.  0.
<mgrwt>
<rscale>  0 0.12500215E+03</rscale>
<asrwt>0</asrwt>
<pdfrwt beam="1">  1        4 0.51538680E-03 0.12500215E+03</pdfrwt>
<pdfrwt beam="2">  1       -4 0.17939693E+00 0.12500215E+03</pdfrwt>
<totfact> 0.25526029E+03</totfact>
</mgrwt>
</event>
<event>
 5    1  0.3209683E-002  0.1249938E+03  0.7818608E-02  0.1235079E+00
          4   -1    0    0  501    0  0.00000000000E+00  0.00000000000E+00  0.22762362704E+02  0.22797764273E+02  0.12700000000E+01 0.  1.
         -4   -1    0    0    0  501 -0.00000000000E+00 -0.00000000000E+00 -0.17142181125E+03  0.17142651566E+03  0.12700000000E+01 0.  1.
         25    2    1    2    0    0  0.00000000000E+00  0.00000000000E+00 -0.14865944854E+03  0.19422427993E+03  0.12499375694E+03 0.  0.
    9000005    1    3    3    0    0 -0.14264430189E+02  0.23477503425E+02 -0.16154323264E+03  0.16386544220E+03  0.10000000000E+01 0.  0.
    9000005    1    3    3    0    0  0.14264430189E+02 -0.23477503425E+02  0.12883784098E+02  0.30358837731E+02  0.10000000000E+01 0.  0.
<mgrwt>
<rscale>  0 0.12499376E+03</rscale>
<asrwt>0</asrwt>
<pdfrwt beam="1">  1        4 0.35049871E-02 0.12499376E+03</pdfrwt>
<pdfrwt beam="2">  1       -4 0.26375671E-01 0.12499376E+03</pdfrwt>
<totfact> 0.91130193E+03</totfact>
</mgrwt>
</event>
<event>
 5    1  0.3209683E-002  0.1249976E+03  0.7818608E-02  0.1235073E+00
          4   -1    0    0  501    0  0.00000000000E+00  0.00000000000E+00  0.60308952633E+03  0.60309086353E+03  0.12700000000E+01 0. -1.
         -4   -1    0    0    0  501 -0.00000000000E+00 -0.00000000000E+00 -0.64131984438E+01  0.65377377035E+01  0.12700000000E+01 0. -1.
         25    2    1    2    0    0  0.00000000000E+00  0.00000000000E+00  0.59667632789E+03  0.60962860123E+03  0.12499756469E+03 0.  0.
    9000005    1    3    3    0    0 -0.31515472532E+02  0.53906573735E+02  0.31023883947E+03  0.31646213236E+03  0.10000000000E+01 0.  0.
    9000005    1    3    3    0    0  0.31515472532E+02 -0.53906573735E+02  0.28643748841E+03  0.29316646887E+03  0.10000000000E+01 0.  0.
<mgrwt>
<rscale>  0 0.12499756E+03</rscale>
<asrwt>0</asrwt>
<pdfrwt beam="1">  1        4 0.92792665E-01 0.12499756E+03</pdfrwt>
<pdfrwt beam="2">  1       -4 0.99632896E-03 0.12499756E+03</pdfrwt>
<totfact> 0.48267997E+03</totfact>
</mgrwt>
</event>
<event>
 5    1  0.3209683E-002  0.1249997E+03  0.7818608E-02  0.1235070E+00
          4   -1    0    0  501    0  0.00000000000E+00  0.00000000000E+00  0.10586383653E+02  0.10662289569E+02  0.12700000000E+01 0.  1.
         -4   -1    0    0    0  501 -0.00000000000E+00 -0.00000000000E+00 -0.36759100729E+03  0.36759320116E+03  0.12700000000E+01 0.  1.
         25    2    1    2    0    0  0.00000000000E+00  0.00000000000E+00 -0.35700462364E+03  0.37825549073E+03  0.12499965988E+03 0.  0.
    9000005    1    3    3    0    0 -0.28165468903E+02  0.54832899679E+02 -0.14745197646E+03  0.15982185673E+03  0.10000000000E+01 0.  0.
    9000005    1    3    3    0    0  0.28165468903E+02 -0.54832899679E+02 -0.20955264718E+03  0.21843363401E+03  0.10000000000E+01 0.  0.
<mgrwt>
<rscale>  0 0.12499966E+03</rscale>
<asrwt>0</asrwt>
<pdfrwt beam="1">  1        4 0.16346824E-02 0.12499966E+03</pdfrwt>
<pdfrwt beam="2">  1       -4 0.56558461E-01 0.12499966E+03</pdfrwt>
<totfact> 0.66724518E+03</totfact>
</mgrwt>
</event>
<event>
 5    1  0.3209683E-002  0.1249985E+03  0.7818608E-02  0.1235072E+00
          4   -1    0    0  501    0  0.00000000000E+00  0.00000000000E+00  0.32196460569E+03  0.32196711046E+03  0.12700000000E+01 0.  1.
         -4   -1    0    0    0  501 -0.00000000000E+00 -0.00000000000E+00 -0.12096463939E+02  0.12162949471E+02  0.12700000000E+01 0.  1.
         25    2    1    2    0    0  0.00000000000E+00  0.00000000000E+00  0.30986814175E+03  0.33413005993E+03  0.12499852670E+03 0.  0.
    9000005    1    3    3    0    0  0.29722185120E+01  0.62223194270E+02  0.14167662250E+03  0.15477023406E+03  0.10000000000E+01 0.  0.
    9000005    1    3    3    0    0 -0.29722185120E+01 -0.62223194270E+02  0.16819151925E+03  0.17935982587E+03  0.10000000000E+01 0.  0.
<mgrwt>
<rscale>  0 0.12499853E+03</rscale>
<asrwt>0</asrwt>
<pdfrwt beam="1">  1        4 0.49538327E-01 0.12499853E+03</pdfrwt>
<pdfrwt beam="2">  1       -4 0.18663013E-02 0.12499853E+03</pdfrwt>
<totfact> 0.71508799E+03</totfact>
</mgrwt>
</event>
<event>
 5    1  0.3209683E-002  0.1249964E+03  0.7818608E-02  0.1235075E+00
         -4   -1    0    0    0  501 -0.00000000000E+00  0.00000000000E+00  0.25433619446E+02  0.25465307737E+02  0.12700000000E+01 0. -1.
          4   -1    0    0  501    0  0.00000000000E+00 -0.00000000000E+00 -0.15344718385E+03  0.15345243931E+03  0.12700000000E+01 0. -1.
         25    2    1    2    0    0  0.00000000000E+00  0.00000000000E+00 -0.12801356440E+03  0.17891774705E+03  0.12499635010E+03 0.  0.
    9000005    1    3    3    0    0 -0.21378114544E+02  0.47523842010E+02 -0.11337359911E+03  0.12478025611E+03  0.10000000000E+01 0.  0.
    9000005    1    3    3    0    0  0.21378114544E+02 -0.47523842010E+02 -0.14639965291E+02  0.54137490934E+02  0.10000000000E+01 0.  0.
<mgrwt>
<rscale>  0 0.12499635E+03</rscale>
<asrwt>0</asrwt>
<pdfrwt beam="2">  1        4 0.23610100E-01 0.12499635E+03</pdfrwt>
<pdfrwt beam="1">  1       -4 0.39157065E-02 0.12499635E+03</pdfrwt>
<totfact> 0.93819855E+03</totfact>
</mgrwt>
</event>
<event>
 5    1  0.3209683E-002  0.1250069E+03  0.7818608E-02  0.1235059E+00
          4   -1    0    0  501    0  0.00000000000E+00  0.00000000000E+00  0.35676597553E+02  0.35699194850E+02  0.12700000000E+01 0.  1.
         -4   -1    0    0    0  501 -0.00000000000E+00 -0.00000000000E+00 -0.10944161064E+03  0.10944897916E+03  0.12700000000E+01 0.  1.
         25    2    1    2    0    0  0.00000000000E+00  0.00000000000E+00 -0.73765013084E+02  0.14514817401E+03  0.12500686086E+03 0.  0.
    9000005    1    3    3    0    0  0.49948396704E+02  0.18045298021E+02  0.13676626520E+01  0.53135163640E+02  0.10000000000E+01 0.  0.
    9000005    1    3    3    0    0 -0.49948396704E+02 -0.18045298021E+02 -0.75132675736E+02  0.92013010369E+02  0.10000000000E+01 0.  0.
<mgrwt>
<rscale>  0 0.12500686E+03</rscale>
<asrwt>0</asrwt>
<pdfrwt beam="1">  1        4 0.54910124E-02 0.12500686E+03</pdfrwt>
<pdfrwt beam="2">  1       -4 0.16839476E-01 0.12500686E+03</pdfrwt>
<totfact> 0.10026430E+04</totfact>
</mgrwt>
</event>
<event>
 5    1  0.3209683E-002  0.1249989E+03  0.7818608E-02  0.1235071E+00
         -4   -1    0    0    0  501 -0.00000000000E+00  0.00000000000E+00  0.92131734503E+02  0.92140487314E+02  0.12700000000E+01 0.  1.
          4   -1    0    0  501    0  0.00000000000E+00 -0.00000000000E+00 -0.42377518780E+02  0.42396544647E+02  0.12700000000E+01 0.  1.
         25    2    1    2    0    0  0.00000000000E+00  0.00000000000E+00  0.49754215723E+02  0.13453703196E+03  0.12499892394E+03 0.  0.
    9000005    1    3    3    0    0  0.15051597623E+02  0.34203154604E+02 -0.29032545997E+02  0.47331755756E+02  0.10000000000E+01 0.  0.
    9000005    1    3    3    0    0 -0.15051597623E+02 -0.34203154604E+02  0.78786761719E+02  0.87205276206E+02  0.10000000000E+01 0.  0.
<mgrwt>
<rscale>  0 0.12499892E+03</rscale>
<asrwt>0</asrwt>
<pdfrwt beam="2">  1        4 0.65217551E-02 0.12499892E+03</pdfrwt>
<pdfrwt beam="1">  1       -4 0.14176250E-01 0.12499892E+03</pdfrwt>
<totfact> 0.10248087E+04</totfact>
</mgrwt>
</event>
<event>
 5    1  0.3209683E-002  0.1250104E+03  0.7818608E-02  0.1235053E+00
          4   -1    0    0  501    0  0.00000000000E+00  0.00000000000E+00  0.61955253731E+02  0.61968269017E+02  0.12700000000E+01 0. -1.
         -4   -1    0    0    0  501 -0.00000000000E+00 -0.00000000000E+00 -0.63033999949E+02  0.63046792540E+02  0.12700000000E+01 0. -1.
         25    2    1    2    0    0  0.00000000000E+00  0.00000000000E+00 -0.10787462178E+01  0.12501506156E+03  0.12501040726E+03 0.  0.
    9000005    1    3    3    0    0  0.14601432805E+01  0.12944830515E+02 -0.61666110610E+02  0.63034989119E+02  0.10000000000E+01 0.  0.
    9000005    1    3    3    0    0 -0.14601432805E+01 -0.12944830515E+02  0.60587364392E+02  0.61980072438E+02  0.10000000000E+01 0.  0.
<mgrwt>
<rscale>  0 0.12501041E+03</rscale>
<asrwt>0</asrwt>
<pdfrwt beam="1">  1        4 0.95335626E-02 0.12501041E+03</pdfrwt>
<pdfrwt beam="2">  1       -4 0.96995238E-02 0.12501041E+03</pdfrwt>
<totfact> 0.10450077E+04</totfact>
</mgrwt>
</event>
<event>
 4    1  0.3209683E-002  0.1248550E+03  0.7818608E-02  0.1235296E+00
          4   -1    0    0  501    0  0.00000000000E+00  0.00000000000E+00  0.13093996652E+03  0.13094612531E+03  0.12700000000E+01 0.  1.
         -4   -1    0    0    0  501 -0.00000000000E+00 -0.00000000000E+00 -0.29742786658E+02  0.29769888447E+02  0.12700000000E+01 0.  1.
    9000005    1    1    2    0    0 -0.33457769542E+02  0.43895039034E+02  0.88127114152E+02  0.10398838898E+03  0.10000000000E+01 0.  0.
    9000005    1    1    2    0    0  0.33457769542E+02 -0.43895039034E+02  0.13070065713E+02  0.56727624772E+02  0.10000000000E+01 0.  0.
<mgrwt>
<rscale>  0 0.12485499E+03</rscale>
<asrwt>0</asrwt>
<pdfrwt beam="1">  1        4 0.20147169E-01 0.12485499E+03</pdfrwt>
<pdfrwt beam="2">  1       -4 0.45783718E-02 0.12485499E+03</pdfrwt>
<totfact> 0.97522414E+03</totfact>
</mgrwt>
</event>
<event>
 5    1  0.3209683E-002  0.1249995E+03  0.7818608E-02  0.1235070E+00
         -4   -1    0    0    0  501 -0.00000000000E+00  0.00000000000E+00  0.53217863445E+03  0.53218014982E+03  0.12700000000E+01 0.  1.
          4   -1    0    0  501    0  0.00000000000E+00 -0.00000000000E+00 -0.72835806413E+01  0.73934732676E+01  0.12700000000E+01 0.  1.
         25    2    1    2    0    0  0.00000000000E+00  0.00000000000E+00  0.52489505381E+03  0.53957362309E+03  0.12499950889E+03 0.  0.
    9000005    1    3    3    0    0  0.48680896790E+02 -0.36562937762E+02  0.20162454630E+03  0.21061846026E+03  0.10000000000E+01 0.  0.
    9000005    1    3    3    0    0 -0.48680896790E+02  0.36562937762E+02  0.32327050751E+03  0.32895516283E+03  0.10000000000E+01 0.  0.
<mgrwt>
<rscale>  0 0.12499951E+03</rscale>
<asrwt>0</asrwt>
<pdfrwt beam="2">  1        4 0.11291206E-02 0.12499951E+03</pdfrwt>
<pdfrwt beam="1">  1       -4 0.81882216E-01 0.12499951E+03</pdfrwt>
<totfact> 0.52920128E+03</totfact>
</mgrwt>
</event>
<event>
 5    1  0.3209683E-002  0.1249958E+03  0.7818608E-02  0.1235076E+00
         -4   -1    0    0    0  501 -0.00000000000E+00  0.00000000000E+00  0.23301715851E+03  0.23302061939E+03  0.12700000000E+01 0. -1.
          4   -1    0    0  501    0  0.00000000000E+00 -0.00000000000E+00 -0.16735008355E+02  0.16783128572E+02  0.12700000000E+01 0. -1.
         25    2    1    2    0    0  0.00000000000E+00  0.00000000000E+00  0.21628215016E+03  0.24980374796E+03  0.12499577601E+03 0.  0.
    9000005    1    3    3    0    0  0.42942139520E+02 -0.36607435994E+02  0.54483955380E+02  0.78445096153E+02  0.10000000000E+01 0.  0.
    9000005    1    3    3    0    0 -0.42942139520E+02  0.36607435994E+02  0.16179819478E+03  0.17135865181E+03  0.10000000000E+01 0.  0.
<mgrwt>
<rscale>  0 0.12499578E+03</rscale>
<asrwt>0</asrwt>
<pdfrwt beam="2">  1        4 0.25785848E-02 0.12499578E+03</pdfrwt>
<pdfrwt beam="1">  1       -4 0.35852757E-01 0.12499578E+03</pdfrwt>
<totfact> 0.82366354E+03</totfact>
</mgrwt>
</event>
<event>
 5    1  0.3209683E-002  0.1250015E+03  0.7818608E-02  0.1235067E+00
         -4   -1    0    0    0  501 -0.00000000000E+00  0.00000000000E+00  0.13716725443E+03  0.13717313362E+03  0.12700000000E+01 0.  1.
          4   -1    0    0  501    0  0.00000000000E+00 -0.00000000000E+00 -0.28458051468E+02  0.28486375574E+02  0.12700000000E+01 0.  1.
         25    2    1    2    0    0  0.00000000000E+00  0.00000000000E+00  0.10870920296E+03  0.16565950920E+03  0.12500152870E+03 0.  0.
    9000005    1    3    3    0    0  0.24957824062E+02  0.25493171792E+02  0.12235154987E+03  0.12745076126E+03  0.10000000000E+01 0.  0.
    9000005    1    3    3    0    0 -0.24957824062E+02 -0.25493171792E+02 -0.13642346906E+02  0.38208747939E+02  0.10000000000E+01 0.  0.
<mgrwt>
<rscale>  0 0.12500153E+03</rscale>
<asrwt>0</asrwt>
<pdfrwt beam="2">  1        4 0.43807928E-02 0.12500153E+03</pdfrwt>
<pdfrwt beam="1">  1       -4 0.21105286E-01 0.12500153E+03</pdfrwt>
<totfact> 0.96259332E+03</totfact>
</mgrwt>
</event>
<event>
 4    1  0.3209683E-002  0.1250877E+03  0.7818608E-02  0.1234932E+00
         -4   -1    0    0    0  501 -0.00000000000E+00  0.00000000000E+00  0.34152032319E+02  0.34175637690E+02  0.12700000000E+01 0.  1.
          4   -1    0    0  501    0  0.00000000000E+00 -0.00000000000E+00 -0.11447219527E+03  0.11447924000E+03  0.12700000000E+01 0.  1.
    9000005    1    1    2    0    0  0.59090996423E+02  0.18903069356E+02 -0.49492209933E+02  0.79369709168E+02  0.10000000000E+01 0.  0.
    9000005    1    1    2    0    0 -0.59090996423E+02 -0.18903069356E+02 -0.30827953019E+02  0.69285168519E+02  0.10000000000E+01 0.  0.
<mgrwt>
<rscale>  0 0.12508775E+03</rscale>
<asrwt>0</asrwt>
<pdfrwt beam="2">  1        4 0.17613465E-01 0.12508775E+03</pdfrwt>
<pdfrwt beam="1">  1       -4 0.52565166E-02 0.12508775E+03</pdfrwt>
<totfact> 0.99376100E+03</totfact>
</mgrwt>
</event>
<event>
 5    1  0.3209683E-002  0.1250010E+03  0.7818608E-02  0.1235068E+00
          4   -1    0    0  501    0  0.00000000000E+00  0.00000000000E+00  0.16834407907E+04  0.16834412698E+04  0.12700000000E+01 0.  1.
         -4   -1    0    0    0  501 -0.00000000000E+00 -0.00000000000E+00 -0.21461466214E+01  0.24937612798E+01  0.12700000000E+01 0.  1.
         25    2    1    2    0    0  0.00000000000E+00  0.00000000000E+00  0.16812946441E+04  0.16859350311E+04  0.12500099456E+03 0.  0.
    9000005    1    3    3    0    0 -0.46645059019E+02 -0.65477478641E+01  0.28673196182E+03  0.29057675830E+03  0.10000000000E+01 0.  0.
    9000005    1    3    3    0    0  0.46645059019E+02  0.65477478641E+01  0.13945626823E+04  0.13953582728E+04  0.10000000000E+01 0.  0.
<mgrwt>
<rscale>  0 0.12500099E+03</rscale>
<asrwt>0</asrwt>
<pdfrwt beam="1">  1        4 0.25901861E+00 0.12500099E+03</pdfrwt>
<pdfrwt beam="2">  1       -4 0.35695155E-03 0.12500099E+03</pdfrwt>
<totfact> 0.14543509E+03</totfact>
</mgrwt>
</event>
<event>
 5    1  0.3209683E-002  0.1250013E+03  0.7818608E-02  0.1235067E+00
          4   -1    0    0  501    0  0.00000000000E+00  0.00000000000E+00  0.19662316124E+03  0.19662726270E+03  0.12700000000E+01 0. -1.
         -4   -1    0    0    0  501 -0.00000000000E+00 -0.00000000000E+00 -0.19842475472E+02  0.19883076544E+02  0.12700000000E+01 0. -1.
         25    2    1    2    0    0  0.00000000000E+00  0.00000000000E+00  0.17678068577E+03  0.21651033924E+03  0.12500126455E+03 0.  0.
    9000005    1    3    3    0    0  0.19162563645E+02 -0.59480366143E+02  0.87594284960E+02  0.10760518835E+03  0.10000000000E+01 0.  0.
    9000005    1    3    3    0    0 -0.19162563645E+02  0.59480366143E+02  0.89186400805E+02  0.10890515089E+03  0.10000000000E+01 0.  0.
<mgrwt>
<rscale>  0 0.12500126E+03</rscale>
<asrwt>0</asrwt>
<pdfrwt beam="1">  1        4 0.30253155E-01 0.12500126E+03</pdfrwt>
<pdfrwt beam="2">  1       -4 0.30561273E-02 0.12500126E+03</pdfrwt>
<totfact> 0.87421103E+03</totfact>
</mgrwt>
</event>
<event>
 5    1  0.3209683E-002  0.1249992E+03  0.7818608E-02  0.1235071E+00
          4   -1    0    0  501    0  0.00000000000E+00  0.00000000000E+00  0.29698897017E+01  0.32300379008E+01  0.12700000000E+01 0.  1.
         -4   -1    0    0    0  501 -0.00000000000E+00 -0.00000000000E+00 -0.12598187438E+04  0.12598193839E+04  0.12700000000E+01 0.  1.
         25    2    1    2    0    0  0.00000000000E+00  0.00000000000E+00 -0.12568488541E+04  0.12630494218E+04  0.12499919977E+03 0.  0.
    9000005    1    3    3    0    0  0.62304310030E+02  0.39825192595E+01 -0.65611964021E+03  0.65908396262E+03  0.10000000000E+01 0.  0.
    9000005    1    3    3    0    0 -0.62304310030E+02 -0.39825192595E+01 -0.60072921388E+03  0.60396545921E+03  0.10000000000E+01 0.  0.
<mgrwt>
<rscale>  0 0.12499920E+03</rscale>
<asrwt>0</asrwt>
<pdfrwt beam="1">  1        4 0.47696775E-03 0.12499920E+03</pdfrwt>
<pdfrwt beam="2">  1       -4 0.19383792E+00 0.12499920E+03</pdfrwt>
<totfact> 0.23118228E+03</totfact>
</mgrwt>
</event>
<event>
 4    1  0.3209683E-002  0.1248611E+03  0.7818608E-02  0.1235287E+00
          4   -1    0    0  501    0  0.00000000000E+00  0.00000000000E+00  0.25571930483E+02  0.25603447592E+02  0.12700000000E+01 0.  1.
         -4   -1    0    0    0  501 -0.00000000000E+00 -0.00000000000E+00 -0.15228796672E+03  0.15229326218E+03  0.12700000000E+01 0.  1.
    9000005    1    1    2    0    0 -0.41026059870E+02  0.75764501443E+01  0.27978543561E+01  0.41825448883E+02  0.10000000000E+01 0.  0.
    9000005    1    1    2    0    0  0.41026059870E+02 -0.75764501443E+01 -0.12951389059E+03  0.13607126089E+03  0.10000000000E+01 0.  0.
<mgrwt>
<rscale>  0 0.12486106E+03</rscale>
<asrwt>0</asrwt>
<pdfrwt beam="1">  1        4 0.39369750E-02 0.12486106E+03</pdfrwt>
<pdfrwt beam="2">  1       -4 0.23431749E-01 0.12486106E+03</pdfrwt>
<totfact> 0.94290460E+03</totfact>
</mgrwt>
</event>
<event>
 5    1  0.3209683E-002  0.1250021E+03  0.7818608E-02  0.1235066E+00
          4   -1    0    0  501    0  0.00000000000E+00  0.00000000000E+00  0.75748937672E+02  0.75759583278E+02  0.12700000000E+01 0. -1.
         -4   -1    0    0    0  501 -0.00000000000E+00 -0.00000000000E+00 -0.51548053848E+02  0.51563696100E+02  0.12700000000E+01 0. -1.
         25    2    1    2    0    0  0.00000000000E+00  0.00000000000E+00  0.24200883825E+02  0.12732327938E+03  0.12500213876E+03 0.  0.
    9000005    1    3    3    0    0  0.24532278280E+02  0.57338336585E+02  0.80432439584E+01  0.62890470608E+02  0.10000000000E+01 0.  0.
    9000005    1    3    3    0    0 -0.24532278280E+02 -0.57338336585E+02  0.16157639866E+02  0.64432808770E+02  0.10000000000E+01 0.  0.
<mgrwt>
<rscale>  0 0.12500214E+03</rscale>
<asrwt>0</asrwt>
<pdfrwt beam="1">  1        4 0.11655705E-01 0.12500214E+03</pdfrwt>
<pdfrwt beam="2">  1       -4 0.79324921E-02 0.12500214E+03</pdfrwt>
<totfact> 0.10401628E+04</totfact>
</mgrwt>
</event>
<event>
 5    1  0.3209683E-002  0.1249986E+03  0.7818608E-02  0.1235072E+00
         -4   -1    0    0    0  501 -0.00000000000E+00  0.00000000000E+00  0.11932473758E+01  0.17426242566E+01  0.12700000000E+01 0. -1.
          4   -1    0    0  501    0  0.00000000000E+00 -0.00000000000E+00 -0.26604392340E+04  0.26604395372E+04  0.12700000000E+01 0. -1.
         25    2    1    2    0    0  0.00000000000E+00  0.00000000000E+00 -0.26592459867E+04  0.26621821614E+04  0.12499857203E+03 0.  0.
    9000005    1    3    3    0    0  0.50560115431E+02 -0.57211791601E+00 -0.54752799787E+03  0.54985867370E+03  0.10000000000E+01 0.  0.
    9000005    1    3    3    0    0 -0.50560115431E+02  0.57211791601E+00 -0.21117179888E+04  0.21123234877E+04  0.10000000000E+01 0.  0.
<mgrwt>
<rscale>  0 0.12499857E+03</rscale>
<asrwt>0</asrwt>
<pdfrwt beam="2">  1        4 0.40933677E+00 0.12499857E+03</pdfrwt>
<pdfrwt beam="1">  1       -4 0.22586173E-03 0.12499857E+03</pdfrwt>
<totfact> 0.35171431E+02</totfact>
</mgrwt>
</event>
<event>
 5    1  0.3209683E-002  0.1250000E+03  0.7818608E-02  0.1235069E+00
          4   -1    0    0  501    0  0.00000000000E+00  0.00000000000E+00  0.13706849333E+02  0.13765559147E+02  0.12700000000E+01 0.  1.
         -4   -1    0    0    0  501 -0.00000000000E+00 -0.00000000000E+00 -0.28431619827E+03  0.28431903471E+03  0.12700000000E+01 0.  1.
         25    2    1    2    0    0  0.00000000000E+00  0.00000000000E+00 -0.27060934894E+03  0.29808459386E+03  0.12500002145E+03 0.  0.
    9000005    1    3    3    0    0  0.39895510064E+01  0.57053552327E+02 -0.75249310532E+02  0.94522394626E+02  0.10000000000E+01 0.  0.
    9000005    1    3    3    0    0 -0.39895510064E+01 -0.57053552327E+02 -0.19536003841E+03  0.20356219923E+03  0.10000000000E+01 0.  0.
<mgrwt>
<rscale>  0 0.12500002E+03</rscale>
<asrwt>0</asrwt>
<pdfrwt beam="1">  1        4 0.21134806E-02 0.12500002E+03</pdfrwt>
<pdfrwt beam="2">  1       -4 0.43745684E-01 0.12500002E+03</pdfrwt>
<totfact> 0.75839699E+03</totfact>
</mgrwt>
</event>
<event>
 5    1  0.3209683E-002  0.1249992E+03  0.7818608E-02  0.1235071E+00
         -4   -1    0    0    0  501 -0.00000000000E+00  0.00000000000E+00  0.17282951900E+03  0.17283418510E+03  0.12700000000E+01 0.  1.
          4   -1    0    0  501    0  0.00000000000E+00 -0.00000000000E+00 -0.22578631845E+02  0.22614321037E+02  0.12700000000E+01 0.  1.
         25    2    1    2    0    0  0.00000000000E+00  0.00000000000E+00  0.15025088715E+03  0.19544850613E+03  0.12499915783E+03 0.  0.
    9000005    1    3    3    0    0  0.26063228167E+02 -0.24083406215E+02  0.15555424098E+03  0.15955382854E+03  0.10000000000E+01 0.  0.
    9000005    1    3    3    0    0 -0.26063228167E+02  0.24083406215E+02 -0.53033538217E+01  0.35894677588E+02  0.10000000000E+01 0.  0.
<mgrwt>
<rscale>  0 0.12499916E+03</rscale>
<asrwt>0</asrwt>
<pdfrwt beam="2">  1        4 0.34767398E-02 0.12499916E+03</pdfrwt>
<pdfrwt beam="1">  1       -4 0.26592262E-01 0.12499916E+03</pdfrwt>
<totfact> 0.90909552E+03</totfact>
</mgrwt>
</event>
<event>
 5    1  0.3209683E-002  0.1249958E+03  0.7818608E-02  0.1235076E+00
         -4   -1    0    0    0  501 -0.00000000000E+00  0.00000000000E+00  0.11788241884E+04  0.11788248725E+04  0.12700000000E+01 0.  1.
          4   -1    0    0  501    0  0.00000000000E+00 -0.00000000000E+00 -0.31910599699E+01  0.34344961394E+01  0.12700000000E+01 0.  1.
         25    2    1    2    0    0  0.00000000000E+00  0.00000000000E+00  0.11756331284E+04  0.11822593686E+04  0.12499584835E+03 0.  0.
    9000005    1    3    3    0    0  0.38415867347E+02  0.35958157893E+02  0.90663900080E+03  0.90816520841E+03  0.10000000000E+01 0.  0.
    9000005    1    3    3    0    0 -0.38415867347E+02 -0.35958157893E+02  0.26899412760E+03  0.27409416022E+03  0.10000000000E+01 0.  0.
<mgrwt>
<rscale>  0 0.12499585E+03</rscale>
<asrwt>0</asrwt>
<pdfrwt beam="2">  1        4 0.50971020E-03 0.12499585E+03</pdfrwt>
<pdfrwt beam="1">  1       -4 0.18137656E+00 0.12499585E+03</pdfrwt>
<totfact> 0.25184132E+03</totfact>
</mgrwt>
</event>
<event>
 5    1  0.3209683E-002  0.1250147E+03  0.7818608E-02  0.1235046E+00
         -4   -1    0    0    0  501 -0.00000000000E+00  0.00000000000E+00  0.22388307867E+02  0.22424299970E+02  0.12700000000E+01 0. -1.
          4   -1    0    0  501    0  0.00000000000E+00 -0.00000000000E+00 -0.17433992527E+03  0.17434455094E+03  0.12700000000E+01 0. -1.
         25    2    1    2    0    0  0.00000000000E+00  0.00000000000E+00 -0.15195161740E+03  0.19676885091E+03  0.12501474576E+03 0.  0.
    9000005    1    3    3    0    0  0.30868632848E+02  0.54331804267E+02 -0.74144173376E+02  0.96969974189E+02  0.10000000000E+01 0.  0.
    9000005    1    3    3    0    0 -0.30868632848E+02 -0.54331804267E+02 -0.77807444026E+02  0.99798876720E+02  0.10000000000E+01 0.  0.
<mgrwt>
<rscale>  0 0.12501475E+03</rscale>
<asrwt>0</asrwt>
<pdfrwt beam="2">  1        4 0.26824651E-01 0.12501475E+03</pdfrwt>
<pdfrwt beam="1">  1       -4 0.34474796E-02 0.12501475E+03</pdfrwt>
<totfact> 0.90652786E+03</totfact>
</mgrwt>
</event>
<event>
 5    1  0.3209683E-002  0.1249975E+03  0.7818608E-02  0.1235073E+00
          4   -1    0    0  501    0  0.00000000000E+00  0.00000000000E+00  0.98070537013E+02  0.98078759831E+02  0.12700000000E+01 0.  1.
         -4   -1    0    0    0  501 -0.00000000000E+00 -0.00000000000E+00 -0.39809430899E+02  0.39829683510E+02  0.12700000000E+01 0.  1.
         25    2    1    2    0    0  0.00000000000E+00  0.00000000000E+00  0.58261106114E+02  0.13790844334E+03  0.12499752901E+03 0.  0.
    9000005    1    3    3    0    0  0.21584439728E+02 -0.58109937261E+02  0.20412282799E+02  0.65271081927E+02  0.10000000000E+01 0.  0.
    9000005    1    3    3    0    0 -0.21584439728E+02  0.58109937261E+02  0.37848823315E+02  0.72637361414E+02  0.10000000000E+01 0.  0.
<mgrwt>
<rscale>  0 0.12499753E+03</rscale>
<asrwt>0</asrwt>
<pdfrwt beam="1">  1        4 0.15089965E-01 0.12499753E+03</pdfrwt>
<pdfrwt beam="2">  1       -4 0.61267183E-02 0.12499753E+03</pdfrwt>
<totfact> 0.10177686E+04</totfact>
</mgrwt>
</event>
<event>
 5    1  0.3209683E-002  0.1249987E+03  0.7818608E-02  0.1235071E+00
          4   -1    0    0  501    0  0.00000000000E+00  0.00000000000E+00  0.28280124328E+03  0.28280409492E+03  0.12700000000E+01 0. -1.
         -4   -1    0    0    0  501 -0.00000000000E+00 -0.00000000000E+00 -0.13780294194E+02  0.13838692427E+02  0.12700000000E+01 0. -1.
         25    2    1    2    0    0  0.00000000000E+00  0.00000000000E+00  0.26902094909E+03  0.29664278734E+03  0.12499868893E+03 0.  0.
    9000005    1    3    3    0    0  0.57498045251E+02  0.24460512687E+02  0.13235341030E+03  0.14636518407E+03  0.10000000000E+01 0.  0.
    9000005    1    3    3    0    0 -0.57498045251E+02 -0.24460512687E+02  0.13666753878E+03  0.15027760327E+03  0.10000000000E+01 0.  0.
<mgrwt>
<rscale>  0 0.12499869E+03</rscale>
<asrwt>0</asrwt>
<pdfrwt beam="1">  1        4 0.43512589E-01 0.12499869E+03</pdfrwt>
<pdfrwt beam="2">  1       -4 0.21247571E-02 0.12499869E+03</pdfrwt>
<totfact> 0.76024116E+03</totfact>
</mgrwt>
</event>
<event>
 5    1  0.3209683E-002  0.1249987E+03  0.7818608E-02  0.1235071E+00
          4   -1    0    0  501    0  0.00000000000E+00  0.00000000000E+00  0.23028759914E+02  0.23063752582E+02  0.12700000000E+01 0.  1.
         -4   -1    0    0    0  501 -0.00000000000E+00 -0.00000000000E+00 -0.16945520025E+03  0.16945995926E+03  0.12700000000E+01 0.  1.
         25    2    1    2    0    0  0.00000000000E+00  0.00000000000E+00 -0.14642644034E+03  0.19252371184E+03  0.12499870876E+03 0.  0.
    9000005    1    3    3    0    0  0.35885368938E+02 -0.45540472504E+02 -0.10911933937E+03  0.12357072698E+03  0.10000000000E+01 0.  0.
    9000005    1    3    3    0    0 -0.35885368938E+02  0.45540472504E+02 -0.37307100962E+02  0.68952984866E+02  0.10000000000E+01 0.  0.
<mgrwt>
<rscale>  0 0.12499871E+03</rscale>
<asrwt>0</asrwt>
<pdfrwt beam="1">  1        4 0.35459441E-02 0.12499871E+03</pdfrwt>
<pdfrwt beam="2">  1       -4 0.26073088E-01 0.12499871E+03</pdfrwt>
<totfact> 0.91412686E+03</totfact>
</mgrwt>
</event>
<event>
 5    1  0.3209683E-002  0.1249997E+03  0.7818608E-02  0.1235070E+00
          4   -1    0    0  501    0  0.00000000000E+00  0.00000000000E+00  0.17138717263E+01  0.21331329762E+01  0.12700000000E+01 0.  1.
         -4   -1    0    0    0  501 -0.00000000000E+00 -0.00000000000E+00 -0.20303703177E+04  0.20303707149E+04  0.12700000000E+01 0.  1.
         25    2    1    2    0    0  0.00000000000E+00  0.00000000000E+00 -0.20286564460E+04  0.20325038479E+04  0.12499966326E+03 0.  0.
    9000005    1    3    3    0    0 -0.21712589290E+01 -0.48179876358E+02 -0.36816380358E+03  0.37131065311E+03  0.10000000000E+01 0.  0.
    9000005    1    3    3    0    0  0.21712589290E+01  0.48179876358E+02 -0.16604926424E+04  0.16611931948E+04  0.10000000000E+01 0.  0.
<mgrwt>
<rscale>  0 0.12499966E+03</rscale>
<asrwt>0</asrwt>
<pdfrwt beam="1">  1        4 0.29595562E-03 0.12499966E+03</pdfrwt>
<pdfrwt beam="2">  1       -4 0.31239523E+00 0.12499966E+03</pdfrwt>
<totfact> 0.94430986E+02</totfact>
</mgrwt>
</event>
<event>
 5    1  0.3209683E-002  0.1249923E+03  0.7818608E-02  0.1235081E+00
          4   -1    0    0  501    0  0.00000000000E+00  0.00000000000E+00  0.30688981655E+01  0.33213003403E+01  0.12700000000E+01 0. -1.
         -4   -1    0    0    0  501 -0.00000000000E+00 -0.00000000000E+00 -0.12221713384E+04  0.12221719982E+04  0.12700000000E+01 0. -1.
         25    2    1    2    0    0  0.00000000000E+00  0.00000000000E+00 -0.12191024402E+04  0.12254932986E+04  0.12499226018E+03 0.  0.
    9000005    1    3    3    0    0  0.23207119850E+02 -0.57908211339E+02 -0.64467687797E+03  0.64768912940E+03  0.10000000000E+01 0.  0.
    9000005    1    3    3    0    0 -0.23207119850E+02  0.57908211339E+02 -0.57442556226E+03  0.57780416919E+03  0.10000000000E+01 0.  0.
<mgrwt>
<rscale>  0 0.12499226E+03</rscale>
<asrwt>0</asrwt>
<pdfrwt beam="1">  1        4 0.49160546E-03 0.12499226E+03</pdfrwt>
<pdfrwt beam="2">  1       -4 0.18804545E+00 0.12499226E+03</pdfrwt>
<totfact> 0.24059178E+03</totfact>
</mgrwt>
</event>
<event>
 5    1  0.3209683E-002  0.1249984E+03  0.7818608E-02  0.1235072E+00
         -4   -1    0    0    0  501 -0.00000000000E+00  0.00000000000E+00  0.77212092940E+02  0.77222536842E+02  0.12700000000E+01 0. -1.
          4   -1    0    0  501    0  0.00000000000E+00 -0.00000000000E+00 -0.50568059380E+02  0.50584004680E+02  0.12700000000E+01 0. -1.
         25    2    1    2    0    0  0.00000000000E+00  0.00000000000E+00  0.26644033561E+02  0.12780654152E+03  0.12499843012E+03 0.  0.
    9000005    1    3    3    0    0 -0.46820640066E+02  0.56280027637E+01 -0.28602859868E+02  0.55163124856E+02  0.10000000000E+01 0.  0.
    9000005    1    3    3    0    0  0.46820640066E+02 -0.56280027637E+01  0.55246893429E+02  0.72643416665E+02  0.10000000000E+01 0.  0.
<mgrwt>
<rscale>  0 0.12499843E+03</rscale>
<asrwt>0</asrwt>
<pdfrwt beam="2">  1        4 0.77817314E-02 0.12499843E+03</pdfrwt>
<pdfrwt beam="1">  1       -4 0.11880814E-01 0.12499843E+03</pdfrwt>
<totfact> 0.10392036E+04</totfact>
</mgrwt>
</event>
<event>
 5    1  0.3209683E-002  0.1249985E+03  0.7818608E-02  0.1235072E+00
         -4   -1    0    0    0  501 -0.00000000000E+00  0.00000000000E+00  0.35282117588E+03  0.35282346159E+03  0.12700000000E+01 0.  1.
          4   -1    0    0  501    0  0.00000000000E+00 -0.00000000000E+00 -0.11032454379E+02  0.11105311775E+02  0.12700000000E+01 0.  1.
         25    2    1    2    0    0  0.00000000000E+00  0.00000000000E+00  0.34178872150E+03  0.36392877337E+03  0.12499848774E+03 0.  0.
    9000005    1    3    3    0    0 -0.56104990095E+02 -0.24849016429E+02  0.20533244983E+03  0.21430739251E+03  0.10000000000E+01 0.  0.
    9000005    1    3    3    0    0  0.56104990095E+02  0.24849016429E+02  0.13645627168E+03  0.14962138086E+03  0.10000000000E+01 0.  0.
<mgrwt>
<rscale>  0 0.12499849E+03</rscale>
<asrwt>0</asrwt>
<pdfrwt beam="2">  1        4 0.17030810E-02 0.12499849E+03</pdfrwt>
<pdfrwt beam="1">  1       -4 0.54285960E-01 0.12499849E+03</pdfrwt>
<totfact> 0.68221201E+03</totfact>
</mgrwt>
</event>
<event>
 5    1  0.3209683E-002  0.1249997E+03  0.7818608E-02  0.1235070E+00
         -4   -1    0    0    0  501 -0.00000000000E+00  0.00000000000E+00  0.24568673321E+03  0.24569001562E+03  0.12700000000E+01 0.  1.
          4   -1    0    0  501    0  0.00000000000E+00 -0.00000000000E+00 -0.15870468245E+02  0.15921201660E+02  0.12700000000E+01 0.  1.
         25    2    1    2    0    0  0.00000000000E+00  0.00000000000E+00  0.22981626496E+03  0.26161121728E+03  0.12499965346E+03 0.  0.
    9000005    1    3    3    0    0  0.34024083073E+02  0.42893295172E+02  0.51851327881E+02  0.75412420746E+02  0.10000000000E+01 0.  0.
    9000005    1    3    3    0    0 -0.34024083073E+02 -0.42893295172E+02  0.17796493708E+03  0.18619879653E+03  0.10000000000E+01 0.  0.
<mgrwt>
<rscale>  0 0.12499965E+03</rscale>
<asrwt>0</asrwt>
<pdfrwt beam="2">  1        4 0.24457655E-02 0.12499965E+03</pdfrwt>
<pdfrwt beam="1">  1       -4 0.37802115E-01 0.12499965E+03</pdfrwt>
<totfact> 0.80681100E+03</totfact>
</mgrwt>
</event>
<event>
 5    1  0.3209683E-002  0.1249945E+03  0.7818608E-02  0.1235078E+00
          4   -1    0    0  501    0  0.00000000000E+00  0.00000000000E+00  0.26152940682E+01  0.29073463955E+01  0.12700000000E+01 0. -1.
         -4   -1    0    0    0  501 -0.00000000000E+00 -0.00000000000E+00 -0.14142151565E+04  0.14142157268E+04  0.12700000000E+01 0. -1.
         25    2    1    2    0    0  0.00000000000E+00  0.00000000000E+00 -0.14115998624E+04  0.14171230731E+04  0.12499453113E+03 0.  0.
    9000005    1    3    3    0    0  0.21877852178E+02  0.37252577574E+02 -0.12176860196E+04  0.12184525585E+04  0.10000000000E+01 0.  0.
    9000005    1    3    3    0    0 -0.21877852178E+02 -0.37252577574E+02 -0.19391384287E+03  0.19867051469E+03  0.10000000000E+01 0.  0.
<mgrwt>
<rscale>  0 0.12499453E+03</rscale>
<asrwt>0</asrwt>
<pdfrwt beam="1">  1        4 0.42486349E-03 0.12499453E+03</pdfrwt>
<pdfrwt beam="2">  1       -4 0.21759349E+00 0.12499453E+03</pdfrwt>
<totfact> 0.19618851E+03</totfact>
</mgrwt>
</event>
<event>
 5    1  0.3209683E-002  0.1249996E+03  0.7818608E-02  0.1235070E+00
         -4   -1    0    0    0  501 -0.00000000000E+00  0.00000000000E+00  0.73738516820E+02  0.73749452627E+02  0.12700000000E+01 0.  1.
          4   -1    0    0  501    0  0.00000000000E+00 -0.00000000000E+00 -0.52951541399E+02  0.52966769172E+02  0.12700000000E+01 0.  1.
         25    2    1    2    0    0  0.00000000000E+00  0.00000000000E+00  0.20786975421E+02  0.12671622180E+03  0.12499961008E+03 0.  0.
    9000005    1    3    3    0    0 -0.28560413737E+02 -0.35733114075E+02 -0.32766696020E+02  0.56277962315E+02  0.10000000000E+01 0.  0.
    9000005    1    3    3    0    0  0.28560413737E+02  0.35733114075E+02  0.53553671441E+02  0.70438259484E+02  0.10000000000E+01 0.  0.
<mgrwt>
<rscale>  0 0.12499961E+03</rscale>
<asrwt>0</asrwt>
<pdfrwt beam="2">  1        4 0.81484036E-02 0.12499961E+03</pdfrwt>
<pdfrwt beam="1">  1       -4 0.11346400E-01 0.12499961E+03</pdfrwt>
<totfact> 0.10415409E+04</totfact>
</mgrwt>
</event>
<event>
 5    1  0.3209683E-002  0.1250009E+03  0.7818608E-02  0.1235068E+00
         -4   -1    0    0    0  501 -0.00000000000E+00  0.00000000000E+00  0.35381517844E+02  0.35404303480E+02  0.12700000000E+01 0. -1.
          4   -1    0    0  501    0  0.00000000000E+00 -0.00000000000E+00 -0.11034325135E+03  0.11035055966E+03  0.12700000000E+01 0. -1.
         25    2    1    2    0    0  0.00000000000E+00  0.00000000000E+00 -0.74961733504E+02  0.14575486314E+03  0.12500087456E+03 0.  0.
    9000005    1    3    3    0    0  0.73716661394E+01  0.59702077641E+02 -0.17739958501E+02  0.62724681457E+02  0.10000000000E+01 0.  0.
    9000005    1    3    3    0    0 -0.73716661394E+01 -0.59702077641E+02 -0.57221775003E+02  0.83030181686E+02  0.10000000000E+01 0.  0.
<mgrwt>
<rscale>  0 0.12500087E+03</rscale>
<asrwt>0</asrwt>
<pdfrwt beam="2">  1        4 0.16978200E-01 0.12500087E+03</pdfrwt>
<pdfrwt beam="1">  1       -4 0.54456254E-02 0.12500087E+03</pdfrwt>
<totfact> 0.10015477E+04</totfact>
</mgrwt>
</event>
<event>
 5    1  0.3209683E-002  0.1250031E+03  0.7818608E-02  0.1235064E+00
          4   -1    0    0  501    0  0.00000000000E+00  0.00000000000E+00  0.33156561312E+02  0.33180874884E+02  0.12700000000E+01 0. -1.
         -4   -1    0    0    0  501 -0.00000000000E+00 -0.00000000000E+00 -0.11774725616E+03  0.11775410495E+03  0.12700000000E+01 0. -1.
         25    2    1    2    0    0  0.00000000000E+00  0.00000000000E+00 -0.84590694846E+02  0.15093497983E+03  0.12500312989E+03 0.  0.
    9000005    1    3    3    0    0  0.37745914635E+02 -0.27758428391E+02 -0.92228333528E+02  0.10345216249E+03  0.10000000000E+01 0.  0.
    9000005    1    3    3    0    0 -0.37745914635E+02  0.27758428391E+02  0.76376386822E+01  0.47482817345E+02  0.10000000000E+01 0.  0.
<mgrwt>
<rscale>  0 0.12500313E+03</rscale>
<asrwt>0</asrwt>
<pdfrwt beam="1">  1        4 0.51034066E-02 0.12500313E+03</pdfrwt>
<pdfrwt beam="2">  1       -4 0.18117359E-01 0.12500313E+03</pdfrwt>
<totfact> 0.99110669E+03</totfact>
</mgrwt>
</event>
<event>
 5    1  0.3209683E-002  0.1250198E+03  0.7818608E-02  0.1235038E+00
          4   -1    0    0  501    0  0.00000000000E+00  0.00000000000E+00  0.46115637305E+01  0.47832436735E+01  0.12700000000E+01 0. -1.
         -4   -1    0    0    0  501 -0.00000000000E+00 -0.00000000000E+00 -0.83166739605E+03  0.83166836573E+03  0.12700000000E+01 0. -1.
         25    2    1    2    0    0  0.00000000000E+00  0.00000000000E+00 -0.82705583232E+03  0.83645160940E+03  0.12501977882E+03 0.  0.
    9000005    1    3    3    0    0  0.59766665831E+02 -0.14599001840E+02 -0.33984031487E+03  0.34536592885E+03  0.10000000000E+01 0.  0.
    9000005    1    3    3    0    0 -0.59766665831E+02  0.14599001840E+02 -0.48721551745E+03  0.49108568055E+03  0.10000000000E+01 0.  0.
<mgrwt>
<rscale>  0 0.12501978E+03</rscale>
<asrwt>0</asrwt>
<pdfrwt beam="1">  1        4 0.72275274E-03 0.12501978E+03</pdfrwt>
<pdfrwt beam="2">  1       -4 0.12796199E+00 0.12501978E+03</pdfrwt>
<totfact> 0.36672429E+03</totfact>
</mgrwt>
</event>
<event>
 5    1  0.3209683E-002  0.1250004E+03  0.7818608E-02  0.1235069E+00
         -4   -1    0    0    0  501 -0.00000000000E+00  0.00000000000E+00  0.19287439489E+02  0.19329206452E+02  0.12700000000E+01 0.  1.
          4   -1    0    0  501    0  0.00000000000E+00 -0.00000000000E+00 -0.20226661979E+03  0.20227060681E+03  0.12700000000E+01 0.  1.
         25    2    1    2    0    0  0.00000000000E+00  0.00000000000E+00 -0.18297918030E+03  0.22159981326E+03  0.12500038726E+03 0.  0.
    9000005    1    3    3    0    0 -0.31790648975E+02 -0.44886003007E+02 -0.38903768659E+02  0.67378793727E+02  0.10000000000E+01 0.  0.
    9000005    1    3    3    0    0  0.31790648975E+02  0.44886003007E+02 -0.14407541164E+03  0.15422101954E+03  0.10000000000E+01 0.  0.
<mgrwt>
<rscale>  0 0.12500039E+03</rscale>
<asrwt>0</asrwt>
<pdfrwt beam="2">  1        4 0.31121460E-01 0.12500039E+03</pdfrwt>
<pdfrwt beam="1">  1       -4 0.29708181E-02 0.12500039E+03</pdfrwt>
<totfact> 0.86615083E+03</totfact>
</mgrwt>
</event>
<event>
 5    1  0.3209683E-002  0.1249987E+03  0.7818608E-02  0.1235071E+00
         -4   -1    0    0    0  501 -0.00000000000E+00  0.00000000000E+00  0.21626673337E+02  0.21663930844E+02  0.12700000000E+01 0. -1.
          4   -1    0    0  501    0  0.00000000000E+00 -0.00000000000E+00 -0.18042318567E+03  0.18042765539E+03  0.12700000000E+01 0. -1.
         25    2    1    2    0    0  0.00000000000E+00  0.00000000000E+00 -0.15879651234E+03  0.20209158623E+03  0.12499870758E+03 0.  0.
    9000005    1    3    3    0    0  0.11603939381E+02  0.18971876139E+02  0.15020265308E+02  0.26855015608E+02  0.10000000000E+01 0.  0.
    9000005    1    3    3    0    0 -0.11603939381E+02 -0.18971876139E+02 -0.17381677764E+03  0.17523657062E+03  0.10000000000E+01 0.  0.
<mgrwt>
<rscale>  0 0.12499871E+03</rscale>
<asrwt>0</asrwt>
<pdfrwt beam="2">  1        4 0.27760622E-01 0.12499871E+03</pdfrwt>
<pdfrwt beam="1">  1       -4 0.33303904E-02 0.12499871E+03</pdfrwt>
<totfact> 0.89786535E+03</totfact>
</mgrwt>
</event>
<event>
 5    1  0.3209683E-002  0.1250010E+03  0.7818608E-02  0.1235068E+00
         -4   -1    0    0    0  501 -0.00000000000E+00  0.00000000000E+00  0.15096491218E+03  0.15097025405E+03  0.12700000000E+01 0. -1.
          4   -1    0    0  501    0  0.00000000000E+00 -0.00000000000E+00 -0.25854255662E+02  0.25885429026E+02  0.12700000000E+01 0. -1.
         25    2    1    2    0    0  0.00000000000E+00  0.00000000000E+00  0.12511065652E+03  0.17685568308E+03  0.12500102505E+03 0.  0.
    9000005    1    3    3    0    0  0.51296306798E+02  0.30434295055E+01  0.11287133429E+03  0.12402222244E+03  0.10000000000E+01 0.  0.
    9000005    1    3    3    0    0 -0.51296306798E+02 -0.30434295055E+01  0.12239322222E+02  0.52833460636E+02  0.10000000000E+01 0.  0.
<mgrwt>
<rscale>  0 0.12500103E+03</rscale>
<asrwt>0</asrwt>
<pdfrwt beam="2">  1        4 0.39803866E-02 0.12500103E+03</pdfrwt>
<pdfrwt beam="1">  1       -4 0.23228180E-01 0.12500103E+03</pdfrwt>
<totfact> 0.94183906E+03</totfact>
</mgrwt>
</event>
<event>
 5    1  0.3209683E-002  0.1250461E+03  0.7818608E-02  0.1234997E+00
         -4   -1    0    0    0  501 -0.00000000000E+00  0.00000000000E+00  0.40736854337E+03  0.40737052302E+03  0.12700000000E+01 0. -1.
          4   -1    0    0  501    0  0.00000000000E+00 -0.00000000000E+00 -0.95520187960E+01  0.96360761246E+01  0.12700000000E+01 0. -1.
         25    2    1    2    0    0  0.00000000000E+00  0.00000000000E+00  0.39781652457E+03  0.41700659914E+03  0.12504605755E+03 0.  0.
    9000005    1    3    3    0    0  0.45778203628E+02 -0.28576199353E+02  0.30414751221E+03  0.30889958284E+03  0.10000000000E+01 0.  0.
    9000005    1    3    3    0    0 -0.45778203628E+02  0.28576199353E+02  0.93669012362E+02  0.10810701630E+03  0.10000000000E+01 0.  0.
<mgrwt>
<rscale>  0 0.12504606E+03</rscale>
<asrwt>0</asrwt>
<pdfrwt beam="2">  1        4 0.14761596E-02 0.12504606E+03</pdfrwt>
<pdfrwt beam="1">  1       -4 0.62678703E-01 0.12504606E+03</pdfrwt>
<totfact> 0.62867786E+03</totfact>
</mgrwt>
</event>
<event>
 5    1  0.3209683E-002  0.1250189E+03  0.7818608E-02  0.1235040E+00
          4   -1    0    0  501    0  0.00000000000E+00  0.00000000000E+00  0.85066179395E+02  0.85075659133E+02  0.12700000000E+01 0. -1.
         -4   -1    0    0    0  501 -0.00000000000E+00 -0.00000000000E+00 -0.45913190400E+02  0.45930751710E+02  0.12700000000E+01 0. -1.
         25    2    1    2    0    0  0.00000000000E+00  0.00000000000E+00  0.39152988996E+02  0.13100641084E+03  0.12501889111E+03 0.  0.
    9000005    1    3    3    0    0  0.19714879458E+01 -0.58900475239E+02 -0.22357442615E+01  0.58984330974E+02  0.10000000000E+01 0.  0.
    9000005    1    3    3    0    0 -0.19714879458E+01  0.58900475239E+02  0.41388733257E+02  0.72022079869E+02  0.10000000000E+01 0.  0.
<mgrwt>
<rscale>  0 0.12501889E+03</rscale>
<asrwt>0</asrwt>
<pdfrwt beam="1">  1        4 0.13089184E-01 0.12501889E+03</pdfrwt>
<pdfrwt beam="2">  1       -4 0.70656479E-02 0.12501889E+03</pdfrwt>
<totfact> 0.10318553E+04</totfact>
</mgrwt>
</event>
<event>
 5    1  0.3209683E-002  0.1249992E+03  0.7818608E-02  0.1235071E+00
         -4   -1    0    0    0  501 -0.00000000000E+00  0.00000000000E+00  0.54420701585E+02  0.54435518378E+02  0.12700000000E+01 0.  1.
          4   -1    0    0  501    0  0.00000000000E+00 -0.00000000000E+00 -0.71747636086E+02  0.71758875297E+02  0.12700000000E+01 0.  1.
         25    2    1    2    0    0  0.00000000000E+00  0.00000000000E+00 -0.17326934500E+02  0.12619439367E+03  0.12499920934E+03 0.  0.
    9000005    1    3    3    0    0 -0.23944626030E+02  0.49474187158E+02 -0.38682610556E+02  0.67218930891E+02  0.10000000000E+01 0.  0.
    9000005    1    3    3    0    0  0.23944626030E+02 -0.49474187158E+02  0.21355676056E+02  0.58975462783E+02  0.10000000000E+01 0.  0.
<mgrwt>
<rscale>  0 0.12499921E+03</rscale>
<asrwt>0</asrwt>
<pdfrwt beam="2">  1        4 0.11040102E-01 0.12499921E+03</pdfrwt>
<pdfrwt beam="1">  1       -4 0.83744199E-02 0.12499921E+03</pdfrwt>
<totfact> 0.10426888E+04</totfact>
</mgrwt>
</event>
<event>
 5    1  0.3209683E-002  0.1249992E+03  0.7818608E-02  0.1235071E+00
          4   -1    0    0  501    0  0.00000000000E+00  0.00000000000E+00  0.20094693331E+02  0.20134785821E+02  0.12700000000E+01 0. -1.
         -4   -1    0    0    0  501 -0.00000000000E+00 -0.00000000000E+00 -0.19415376327E+03  0.19415791689E+03  0.12700000000E+01 0. -1.
         25    2    1    2    0    0  0.00000000000E+00  0.00000000000E+00 -0.17405906993E+03  0.21429270271E+03  0.12499921043E+03 0.  0.
    9000005    1    3    3    0    0 -0.40959996947E+02 -0.26640759974E+02 -0.15381779360E+03  0.16139505901E+03  0.10000000000E+01 0.  0.
    9000005    1    3    3    0    0  0.40959996947E+02  0.26640759974E+02 -0.20241276330E+02  0.52897643703E+02  0.10000000000E+01 0.  0.
<mgrwt>
<rscale>  0 0.12499921E+03</rscale>
<asrwt>0</asrwt>
<pdfrwt beam="1">  1        4 0.30948950E-02 0.12499921E+03</pdfrwt>
<pdfrwt beam="2">  1       -4 0.29873212E-01 0.12499921E+03</pdfrwt>
<totfact> 0.87781140E+03</totfact>
</mgrwt>
</event>
<event>
 5    1  0.3209683E-002  0.1250004E+03  0.7818608E-02  0.1235069E+00
         -4   -1    0    0    0  501 -0.00000000000E+00  0.00000000000E+00  0.54842522756E+03  0.54842669804E+03  0.12700000000E+01 0. -1.
          4   -1    0    0  501    0  0.00000000000E+00 -0.00000000000E+00 -0.70646056367E+01  0.71778515450E+01  0.12700000000E+01 0. -1.
         25    2    1    2    0    0  0.00000000000E+00  0.00000000000E+00  0.54136062193E+03  0.55560454959E+03  0.12500037021E+03 0.  0.
    9000005    1    3    3    0    0  0.55581784758E+02 -0.14839458517E+02  0.37916758494E+03  0.38350828126E+03  0.10000000000E+01 0.  0.
    9000005    1    3    3    0    0 -0.55581784758E+02  0.14839458517E+02  0.16219303699E+03  0.17209626833E+03  0.10000000000E+01 0.  0.
<mgrwt>
<rscale>  0 0.12500037E+03</rscale>
<asrwt>0</asrwt>
<pdfrwt beam="2">  1        4 0.10956867E-02 0.12500037E+03</pdfrwt>
<pdfrwt beam="1">  1       -4 0.84381941E-01 0.12500037E+03</pdfrwt>
<totfact> 0.51795086E+03</totfact>
</mgrwt>
</event>
<event>
 5    1  0.3209683E-002  0.1249996E+03  0.7818608E-02  0.1235070E+00
         -4   -1    0    0    0  501 -0.00000000000E+00  0.00000000000E+00  0.20112935642E+03  0.20113336599E+03  0.12700000000E+01 0.  1.
          4   -1    0    0  501    0  0.00000000000E+00 -0.00000000000E+00 -0.19396498699E+02  0.19438031324E+02  0.12700000000E+01 0.  1.
         25    2    1    2    0    0  0.00000000000E+00  0.00000000000E+00  0.18173285772E+03  0.22057139732E+03  0.12499963895E+03 0.  0.
    9000005    1    3    3    0    0  0.60484998082E+02 -0.53180310940E+01  0.11695060203E+03  0.13177693184E+03  0.10000000000E+01 0.  0.
    9000005    1    3    3    0    0 -0.60484998082E+02  0.53180310940E+01  0.64782255690E+02  0.88794465481E+02  0.10000000000E+01 0.  0.
<mgrwt>
<rscale>  0 0.12499964E+03</rscale>
<asrwt>0</asrwt>
<pdfrwt beam="2">  1        4 0.29875801E-02 0.12499964E+03</pdfrwt>
<pdfrwt beam="1">  1       -4 0.30946480E-01 0.12499964E+03</pdfrwt>
<totfact> 0.86778714E+03</totfact>
</mgrwt>
</event>
<event>
 5    1  0.3209683E-002  0.1250031E+03  0.7818608E-02  0.1235064E+00
         -4   -1    0    0    0  501 -0.00000000000E+00  0.00000000000E+00  0.14685998387E+03  0.14686547506E+03  0.12700000000E+01 0.  1.
          4   -1    0    0  501    0  0.00000000000E+00 -0.00000000000E+00 -0.26578645716E+02  0.26608970444E+02  0.12700000000E+01 0.  1.
         25    2    1    2    0    0  0.00000000000E+00  0.00000000000E+00  0.12028133816E+03  0.17347444550E+03  0.12500313169E+03 0.  0.
    9000005    1    3    3    0    0  0.17332927188E+02 -0.54745276134E+02  0.25922581905E+02  0.63011553516E+02  0.10000000000E+01 0.  0.
    9000005    1    3    3    0    0 -0.17332927188E+02  0.54745276134E+02  0.94358756254E+02  0.11046289198E+03  0.10000000000E+01 0.  0.
<mgrwt>
<rscale>  0 0.12500313E+03</rscale>
<asrwt>0</asrwt>
<pdfrwt beam="2">  1        4 0.40917775E-02 0.12500313E+03</pdfrwt>
<pdfrwt beam="1">  1       -4 0.22596599E-01 0.12500313E+03</pdfrwt>
<totfact> 0.94798326E+03</totfact>
</mgrwt>
</event>
<event>
 5    1  0.3209683E-002  0.1250033E+03  0.7818608E-02  0.1235064E+00
         -4   -1    0    0    0  501 -0.00000000000E+00  0.00000000000E+00  0.90640133562E+02  0.90649030398E+02  0.12700000000E+01 0.  1.
          4   -1    0    0  501    0  0.00000000000E+00 -0.00000000000E+00 -0.43078151156E+02  0.43096867717E+02  0.12700000000E+01 0.  1.
         25    2    1    2    0    0  0.00000000000E+00  0.00000000000E+00  0.47561982406E+02  0.13374589812E+03  0.12500329233E+03 0.  0.
    9000005    1    3    3    0    0 -0.24355739333E+02 -0.35056692462E+02  0.72616200755E+02  0.84239458313E+02  0.10000000000E+01 0.  0.
    9000005    1    3    3    0    0  0.24355739333E+02  0.35056692462E+02 -0.25054218349E+02  0.49506439802E+02  0.10000000000E+01 0.  0.
<mgrwt>
<rscale>  0 0.12500329E+03</rscale>
<asrwt>0</asrwt>
<pdfrwt beam="2">  1        4 0.66295322E-02 0.12500329E+03</pdfrwt>
<pdfrwt beam="1">  1       -4 0.13946760E-01 0.12500329E+03</pdfrwt>
<totfact> 0.10263810E+04</totfact>
</mgrwt>
</event>
<event>
 5    1  0.3209683E-002  0.1250041E+03  0.7818608E-02  0.1235063E+00
          4   -1    0    0  501    0  0.00000000000E+00  0.00000000000E+00  0.15714535455E+03  0.15715048634E+03  0.12700000000E+01 0.  1.
         -4   -1    0    0    0  501 -0.00000000000E+00 -0.00000000000E+00 -0.24837419671E+02  0.24869867630E+02  0.12700000000E+01 0.  1.
         25    2    1    2    0    0  0.00000000000E+00  0.00000000000E+00  0.13230793488E+03  0.18202035397E+03  0.12500407844E+03 0.  0.
    9000005    1    3    3    0    0 -0.42058524166E+02 -0.45428724591E+02  0.78579370182E+02  0.10004202063E+03  0.10000000000E+01 0.  0.
    9000005    1    3    3    0    0  0.42058524166E+02  0.45428724591E+02  0.53728564695E+02  0.81978333339E+02  0.10000000000E+01 0.  0.
<mgrwt>
<rscale>  0 0.12500408E+03</rscale>
<asrwt>0</asrwt>
<pdfrwt beam="1">  1        4 0.24179099E-01 0.12500408E+03</pdfrwt>
<pdfrwt beam="2">  1       -4 0.38240323E-02 0.12500408E+03</pdfrwt>
<totfact> 0.93246066E+03</totfact>
</mgrwt>
</event>
<event>
 4    1  0.3209683E-002  0.1250976E+03  0.7818608E-02  0.1234917E+00
          4   -1    0    0  501    0  0.00000000000E+00  0.00000000000E+00  0.30033651925E+02  0.30060491479E+02  0.12700000000E+01 0.  1.
         -4   -1    0    0    0  501 -0.00000000000E+00 -0.00000000000E+00 -0.13017750636E+03  0.13018370121E+03  0.12700000000E+01 0.  1.
    9000005    1    1    2    0    0 -0.29783020610E+02 -0.47236127704E+02 -0.13998307423E+02  0.57578057347E+02  0.10000000000E+01 0.  0.
    9000005    1    1    2    0    0  0.29783020610E+02  0.47236127704E+02 -0.86145547010E+02  0.10266613535E+03  0.10000000000E+01 0.  0.
<mgrwt>
<rscale>  0 0.12509760E+03</rscale>
<asrwt>0</asrwt>
<pdfrwt beam="1">  1        4 0.46231030E-02 0.12509760E+03</pdfrwt>
<pdfrwt beam="2">  1       -4 0.20029850E-01 0.12509760E+03</pdfrwt>
<totfact> 0.97082593E+03</totfact>
</mgrwt>
</event>
<event>
 5    1  0.3209683E-002  0.1249994E+03  0.7818608E-02  0.1235070E+00
          4   -1    0    0  501    0  0.00000000000E+00  0.00000000000E+00  0.32652948774E+02  0.32677637057E+02  0.12700000000E+01 0.  1.
         -4   -1    0    0    0  501 -0.00000000000E+00 -0.00000000000E+00 -0.11955488182E+03  0.11956162706E+03  0.12700000000E+01 0.  1.
         25    2    1    2    0    0  0.00000000000E+00  0.00000000000E+00 -0.86901933041E+02  0.15223926412E+03  0.12499939029E+03 0.  0.
    9000005    1    3    3    0    0  0.72629191444E+01 -0.61839528937E+02 -0.49933981366E+02  0.79820297097E+02  0.10000000000E+01 0.  0.
    9000005    1    3    3    0    0 -0.72629191444E+01  0.61839528937E+02 -0.36967951675E+02  0.72418967023E+02  0.10000000000E+01 0.  0.
<mgrwt>
<rscale>  0 0.12499939E+03</rscale>
<asrwt>0</asrwt>
<pdfrwt beam="1">  1        4 0.50259486E-02 0.12499939E+03</pdfrwt>
<pdfrwt beam="2">  1       -4 0.18395477E-01 0.12499939E+03</pdfrwt>
<totfact> 0.98860549E+03</totfact>
</mgrwt>
</event>
<event>
 5    1  0.3209683E-002  0.1250023E+03  0.7818608E-02  0.1235066E+00
          4   -1    0    0  501    0  0.00000000000E+00  0.00000000000E+00  0.57330134217E+01  0.58719964998E+01  0.12700000000E+01 0.  1.
         -4   -1    0    0    0  501 -0.00000000000E+00 -0.00000000000E+00 -0.67308620364E+03  0.67308740178E+03  0.12700000000E+01 0.  1.
         25    2    1    2    0    0  0.00000000000E+00  0.00000000000E+00 -0.66735319022E+03  0.67895939828E+03  0.12500233603E+03 0.  0.
    9000005    1    3    3    0    0  0.55874448941E+02  0.12166014706E+02 -0.19675890995E+03  0.20490250024E+03  0.10000000000E+01 0.  0.
    9000005    1    3    3    0    0 -0.55874448941E+02 -0.12166014706E+02 -0.47059428027E+03  0.47405689804E+03  0.10000000000E+01 0.  0.
<mgrwt>
<rscale>  0 0.12500234E+03</rscale>
<asrwt>0</asrwt>
<pdfrwt beam="1">  1        4 0.89278577E-03 0.12500234E+03</pdfrwt>
<pdfrwt beam="2">  1       -4 0.10356244E+00 0.12500234E+03</pdfrwt>
<totfact> 0.44218681E+03</totfact>
</mgrwt>
</event>
<event>
 5    1  0.3209683E-002  0.1249975E+03  0.7818608E-02  0.1235073E+00
          4   -1    0    0  501    0  0.00000000000E+00  0.00000000000E+00  0.17489023810E+03  0.17489484922E+03  0.12700000000E+01 0. -1.
         -4   -1    0    0    0  501 -0.00000000000E+00 -0.00000000000E+00 -0.22311589416E+02  0.22347705078E+02  0.12700000000E+01 0. -1.
         25    2    1    2    0    0  0.00000000000E+00  0.00000000000E+00  0.15257864869E+03  0.19724255430E+03  0.12499752474E+03 0.  0.
    9000005    1    3    3    0    0  0.17467751605E+02 -0.15767080961E+02  0.16763974059E+03  0.16928616545E+03  0.10000000000E+01 0.  0.
    9000005    1    3    3    0    0 -0.17467751605E+02  0.15767080961E+02 -0.15061091901E+02  0.27956388848E+02  0.10000000000E+01 0.  0.
<mgrwt>
<rscale>  0 0.12499752E+03</rscale>
<asrwt>0</asrwt>
<pdfrwt beam="1">  1        4 0.26909322E-01 0.12499752E+03</pdfrwt>
<pdfrwt beam="2">  1       -4 0.34356852E-02 0.12499752E+03</pdfrwt>
<totfact> 0.90607202E+03</totfact>
</mgrwt>
</event>
<event>
 5    1  0.3209683E-002  0.1249973E+03  0.7818608E-02  0.1235073E+00
         -4   -1    0    0    0  501 -0.00000000000E+00  0.00000000000E+00  0.15172882171E+04  0.15172887486E+04  0.12700000000E+01 0.  1.
          4   -1    0    0  501    0  0.00000000000E+00 -0.00000000000E+00 -0.24171907656E+01  0.27305148228E+01  0.12700000000E+01 0.  1.
         25    2    1    2    0    0  0.00000000000E+00  0.00000000000E+00  0.15148710263E+04  0.15200192634E+04  0.12499733906E+03 0.  0.
    9000005    1    3    3    0    0 -0.17895025777E+02 -0.38948538853E+00  0.14855081927E+04  0.14856163618E+04  0.10000000000E+01 0.  0.
    9000005    1    3    3    0    0  0.17895025777E+02  0.38948538853E+00  0.29362833607E+02  0.34402901678E+02  0.10000000000E+01 0.  0.
<mgrwt>
<rscale>  0 0.12499734E+03</rscale>
<asrwt>0</asrwt>
<pdfrwt beam="2">  1        4 0.39601802E-03 0.12499734E+03</pdfrwt>
<pdfrwt beam="1">  1       -4 0.23345323E+00 0.12499734E+03</pdfrwt>
<totfact> 0.17541216E+03</totfact>
</mgrwt>
</event>
<event>
 5    1  0.3209683E-002  0.1249944E+03  0.7818608E-02  0.1235078E+00
          4   -1    0    0  501    0  0.00000000000E+00  0.00000000000E+00  0.31513013138E+03  0.31513269047E+03  0.12700000000E+01 0. -1.
         -4   -1    0    0    0  501 -0.00000000000E+00 -0.00000000000E+00 -0.12359419250E+02  0.12424497745E+02  0.12700000000E+01 0. -1.
         25    2    1    2    0    0  0.00000000000E+00  0.00000000000E+00  0.30277071213E+03  0.32755718822E+03  0.12499442959E+03 0.  0.
    9000005    1    3    3    0    0 -0.16370180591E+02 -0.59572528118E+02  0.12679758992E+03  0.14105140102E+03  0.10000000000E+01 0.  0.
    9000005    1    3    3    0    0  0.16370180591E+02  0.59572528118E+02  0.17597312221E+03  0.18650578720E+03  0.10000000000E+01 0.  0.
<mgrwt>
<rscale>  0 0.12499443E+03</rscale>
<asrwt>0</asrwt>
<pdfrwt beam="1">  1        4 0.48486764E-01 0.12499443E+03</pdfrwt>
<pdfrwt beam="2">  1       -4 0.19066519E-02 0.12499443E+03</pdfrwt>
<totfact> 0.72275140E+03</totfact>
</mgrwt>
</event>
<event>
 5    1  0.3209683E-002  0.1250002E+03  0.7818608E-02  0.1235069E+00
          4   -1    0    0  501    0  0.00000000000E+00  0.00000000000E+00  0.17906458027E+01  0.21952932357E+01  0.12700000000E+01 0.  1.
         -4   -1    0    0    0  501 -0.00000000000E+00 -0.00000000000E+00 -0.19596169408E+04  0.19596173523E+04  0.12700000000E+01 0.  1.
         25    2    1    2    0    0  0.00000000000E+00  0.00000000000E+00 -0.19578262950E+04  0.19618126455E+04  0.12500021974E+03 0.  0.
    9000005    1    3    3    0    0  0.59324428269E+02  0.79925771897E+01 -0.12605380692E+04  0.12619589902E+04  0.10000000000E+01 0.  0.
    9000005    1    3    3    0    0 -0.59324428269E+02 -0.79925771897E+01 -0.69728822579E+03  0.69985365535E+03  0.10000000000E+01 0.  0.
<mgrwt>
<rscale>  0 0.12500022E+03</rscale>
<asrwt>0</asrwt>
<pdfrwt beam="1">  1        4 0.30664392E-03 0.12500022E+03</pdfrwt>
<pdfrwt beam="2">  1       -4 0.30150915E+00 0.12500022E+03</pdfrwt>
<totfact> 0.10368092E+03</totfact>
</mgrwt>
</event>
<event>
 5    1  0.3209683E-002  0.1250207E+03  0.7818608E-02  0.1235037E+00
         -4   -1    0    0    0  501 -0.00000000000E+00  0.00000000000E+00  0.14846866850E+02  0.14901085708E+02  0.12700000000E+01 0.  1.
          4   -1    0    0  501    0  0.00000000000E+00 -0.00000000000E+00 -0.26265430031E+03  0.26265737067E+03  0.12700000000E+01 0.  1.
         25    2    1    2    0    0  0.00000000000E+00  0.00000000000E+00 -0.24780743346E+03  0.27755845638E+03  0.12502068882E+03 0.  0.
    9000005    1    3    3    0    0  0.33810150676E+02  0.44322746986E+02 -0.61152555323E+02  0.82754257967E+02  0.10000000000E+01 0.  0.
    9000005    1    3    3    0    0 -0.33810150676E+02 -0.44322746986E+02 -0.18665487813E+03  0.19480419841E+03  0.10000000000E+01 0.  0.
<mgrwt>
<rscale>  0 0.12502069E+03</rscale>
<asrwt>0</asrwt>
<pdfrwt beam="2">  1        4 0.40412757E-01 0.12502069E+03</pdfrwt>
<pdfrwt beam="1">  1       -4 0.22885404E-02 0.12502069E+03</pdfrwt>
<totfact> 0.78466858E+03</totfact>
</mgrwt>
</event>
<event>
 5    1  0.3209683E-002  0.1249689E+03  0.7818608E-02  0.1235118E+00
          4   -1    0    0  501    0  0.00000000000E+00  0.00000000000E+00  0.18972175872E+02  0.19014635345E+02  0.12700000000E+01 0. -1.
         -4   -1    0    0    0  501 -0.00000000000E+00 -0.00000000000E+00 -0.20551664625E+03  0.20552057023E+03  0.12700000000E+01 0. -1.
         25    2    1    2    0    0  0.00000000000E+00  0.00000000000E+00 -0.18654447038E+03  0.22453520557E+03  0.12496887257E+03 0.  0.
    9000005    1    3    3    0    0  0.50658814755E+02 -0.10134418329E+02 -0.15639557038E+03  0.16471064441E+03  0.10000000000E+01 0.  0.
    9000005    1    3    3    0    0 -0.50658814755E+02  0.10134418329E+02 -0.30148900002E+02  0.59824561165E+02  0.10000000000E+01 0.  0.
<mgrwt>
<rscale>  0 0.12496887E+03</rscale>
<asrwt>0</asrwt>
<pdfrwt beam="1">  1        4 0.29223644E-02 0.12496887E+03</pdfrwt>
<pdfrwt beam="2">  1       -4 0.31621512E-01 0.12496887E+03</pdfrwt>
<totfact> 0.86215668E+03</totfact>
</mgrwt>
</event>
<event>
 5    1  0.3209683E-002  0.1249986E+03  0.7818608E-02  0.1235071E+00
         -4   -1    0    0    0  501 -0.00000000000E+00  0.00000000000E+00  0.13609663694E+03  0.13610256238E+03  0.12700000000E+01 0. -1.
          4   -1    0    0  501    0  0.00000000000E+00 -0.00000000000E+00 -0.28680796766E+02  0.28708901113E+02  0.12700000000E+01 0. -1.
         25    2    1    2    0    0  0.00000000000E+00  0.00000000000E+00  0.10741584017E+03  0.16481146349E+03  0.12499862311E+03 0.  0.
    9000005    1    3    3    0    0  0.61673569740E+02  0.19021141923E+00  0.40424432126E+02  0.73748220979E+02  0.10000000000E+01 0.  0.
    9000005    1    3    3    0    0 -0.61673569740E+02 -0.19021141923E+00  0.66991408046E+02  0.91063242512E+02  0.10000000000E+01 0.  0.
<mgrwt>
<rscale>  0 0.12499862E+03</rscale>
<asrwt>0</asrwt>
<pdfrwt beam="2">  1        4 0.44150479E-02 0.12499862E+03</pdfrwt>
<pdfrwt beam="1">  1       -4 0.20940562E-01 0.12499862E+03</pdfrwt>
<totfact> 0.96426092E+03</totfact>
</mgrwt>
</event>
<event>
 5    1  0.3209683E-002  0.1249997E+03  0.7818608E-02  0.1235070E+00
          4   -1    0    0  501    0  0.00000000000E+00  0.00000000000E+00  0.72603634892E+02  0.72614741613E+02  0.12700000000E+01 0.  1.
         -4   -1    0    0    0  501 -0.00000000000E+00 -0.00000000000E+00 -0.53779410790E+02  0.53794404215E+02  0.12700000000E+01 0.  1.
         25    2    1    2    0    0  0.00000000000E+00  0.00000000000E+00  0.18824224102E+02  0.12640914583E+03  0.12499968294E+03 0.  0.
    9000005    1    3    3    0    0  0.24442084276E+02 -0.47177012818E+02 -0.23854773622E+02  0.58250633015E+02  0.10000000000E+01 0.  0.
    9000005    1    3    3    0    0 -0.24442084276E+02  0.47177012818E+02  0.42678997723E+02  0.68158512813E+02  0.10000000000E+01 0.  0.
<mgrwt>
<rscale>  0 0.12499968E+03</rscale>
<asrwt>0</asrwt>
<pdfrwt beam="1">  1        4 0.11171798E-01 0.12499968E+03</pdfrwt>
<pdfrwt beam="2">  1       -4 0.82757632E-02 0.12499968E+03</pdfrwt>
<totfact> 0.10422085E+04</totfact>
</mgrwt>
</event>
<event>
 5    1  0.3209683E-002  0.1250012E+03  0.7818608E-02  0.1235067E+00
          4   -1    0    0  501    0  0.00000000000E+00  0.00000000000E+00  0.10990915019E+03  0.10991648737E+03  0.12700000000E+01 0.  1.
         -4   -1    0    0    0  501 -0.00000000000E+00 -0.00000000000E+00 -0.35521546499E+02  0.35544242370E+02  0.12700000000E+01 0.  1.
         25    2    1    2    0    0  0.00000000000E+00  0.00000000000E+00  0.74387603693E+02  0.14546072974E+03  0.12500123325E+03 0.  0.
    9000005    1    3    3    0    0  0.86421968289E+01  0.59437035938E+02  0.57277832547E+02  0.83001198235E+02  0.10000000000E+01 0.  0.
    9000005    1    3    3    0    0 -0.86421968289E+01 -0.59437035938E+02  0.17109771145E+02  0.62459531505E+02  0.10000000000E+01 0.  0.
<mgrwt>
<rscale>  0 0.12500123E+03</rscale>
<asrwt>0</asrwt>
<pdfrwt beam="1">  1        4 0.16911410E-01 0.12500123E+03</pdfrwt>
<pdfrwt beam="2">  1       -4 0.54671636E-02 0.12500123E+03</pdfrwt>
<totfact> 0.10021358E+04</totfact>
</mgrwt>
</event>
<event>
 5    1  0.3209683E-002  0.1249954E+03  0.7818608E-02  0.1235077E+00
         -4   -1    0    0    0  501 -0.00000000000E+00  0.00000000000E+00  0.26492762678E+03  0.26493067080E+03  0.12700000000E+01 0. -1.
          4   -1    0    0  501    0  0.00000000000E+00 -0.00000000000E+00 -0.14713014287E+02  0.14767724585E+02  0.12700000000E+01 0. -1.
         25    2    1    2    0    0  0.00000000000E+00  0.00000000000E+00  0.25021461249E+03  0.27969839538E+03  0.12499536022E+03 0.  0.
    9000005    1    3    3    0    0 -0.39508994117E+02 -0.27831711163E+02  0.36460672129E+02  0.60547050915E+02  0.10000000000E+01 0.  0.
    9000005    1    3    3    0    0  0.39508994117E+02  0.27831711163E+02  0.21375394036E+03  0.21915134447E+03  0.10000000000E+01 0.  0.
<mgrwt>
<rscale>  0 0.12499536E+03</rscale>
<asrwt>0</asrwt>
<pdfrwt beam="2">  1        4 0.22679834E-02 0.12499536E+03</pdfrwt>
<pdfrwt beam="1">  1       -4 0.40762537E-01 0.12499536E+03</pdfrwt>
<totfact> 0.78226181E+03</totfact>
</mgrwt>
</event>
<event>
 5    1  0.3209683E-002  0.1250026E+03  0.7818608E-02  0.1235065E+00
         -4   -1    0    0    0  501 -0.00000000000E+00  0.00000000000E+00  0.39903764719E+02  0.39923969476E+02  0.12700000000E+01 0. -1.
          4   -1    0    0  501    0  0.00000000000E+00 -0.00000000000E+00 -0.97846680667E+02  0.97854922296E+02  0.12700000000E+01 0. -1.
         25    2    1    2    0    0  0.00000000000E+00  0.00000000000E+00 -0.57942915948E+02  0.13777889177E+03  0.12500256601E+03 0.  0.
    9000005    1    3    3    0    0 -0.59669365711E+02 -0.18330554224E+02 -0.32272191500E+02  0.70277569442E+02  0.10000000000E+01 0.  0.
    9000005    1    3    3    0    0  0.59669365711E+02  0.18330554224E+02 -0.25670724448E+02  0.67501322330E+02  0.10000000000E+01 0.  0.
<mgrwt>
<rscale>  0 0.12500257E+03</rscale>
<asrwt>0</asrwt>
<pdfrwt beam="2">  1        4 0.15055524E-01 0.12500257E+03</pdfrwt>
<pdfrwt beam="1">  1       -4 0.61412290E-02 0.12500257E+03</pdfrwt>
<totfact> 0.10179236E+04</totfact>
</mgrwt>
</event>
<event>
 5    1  0.3209683E-002  0.1250013E+03  0.7818608E-02  0.1235067E+00
          4   -1    0    0  501    0  0.00000000000E+00  0.00000000000E+00  0.10090036588E+03  0.10090835810E+03  0.12700000000E+01 0.  1.
         -4   -1    0    0    0  501 -0.00000000000E+00 -0.00000000000E+00 -0.38694768599E+02  0.38715604308E+02  0.12700000000E+01 0.  1.
         25    2    1    2    0    0  0.00000000000E+00  0.00000000000E+00  0.62205597281E+02  0.13962396241E+03  0.12500125818E+03 0.  0.
    9000005    1    3    3    0    0  0.55535583803E+02 -0.82691725406E+01  0.61748564670E+02  0.83465355218E+02  0.10000000000E+01 0.  0.
    9000005    1    3    3    0    0 -0.55535583803E+02  0.82691725406E+01  0.45703261130E+00  0.56158607191E+02  0.10000000000E+01 0.  0.
<mgrwt>
<rscale>  0 0.12500126E+03</rscale>
<asrwt>0</asrwt>
<pdfrwt beam="1">  1        4 0.15525351E-01 0.12500126E+03</pdfrwt>
<pdfrwt beam="2">  1       -4 0.59552588E-02 0.12500126E+03</pdfrwt>
<totfact> 0.10141098E+04</totfact>
</mgrwt>
</event>
<event>
 5    1  0.3209683E-002  0.1249980E+03  0.7818608E-02  0.1235072E+00
          4   -1    0    0  501    0  0.00000000000E+00  0.00000000000E+00  0.75518094770E+01  0.76578539015E+01  0.12700000000E+01 0.  1.
         -4   -1    0    0    0  501 -0.00000000000E+00 -0.00000000000E+00 -0.51353068713E+03  0.51353225753E+03  0.12700000000E+01 0.  1.
         25    2    1    2    0    0  0.00000000000E+00  0.00000000000E+00 -0.50597887766E+03  0.52119011143E+03  0.12499803048E+03 0.  0.
    9000005    1    3    3    0    0 -0.87091760365E+01  0.44453004842E+02 -0.73493335924E+02  0.86337650026E+02  0.10000000000E+01 0.  0.
    9000005    1    3    3    0    0  0.87091760365E+01 -0.44453004842E+02 -0.43248554173E+03  0.43485246141E+03  0.10000000000E+01 0.  0.
<mgrwt>
<rscale>  0 0.12499803E+03</rscale>
<asrwt>0</asrwt>
<pdfrwt beam="1">  1        4 0.11700953E-02 0.12499803E+03</pdfrwt>
<pdfrwt beam="2">  1       -4 0.79012972E-01 0.12499803E+03</pdfrwt>
<totfact> 0.54259318E+03</totfact>
</mgrwt>
</event>
<event>
 5    1  0.3209683E-002  0.1250032E+03  0.7818608E-02  0.1235064E+00
          4   -1    0    0  501    0  0.00000000000E+00  0.00000000000E+00  0.83072266370E+01  0.84037440703E+01  0.12700000000E+01 0.  1.
         -4   -1    0    0    0  501 -0.00000000000E+00 -0.00000000000E+00 -0.46743380525E+03  0.46743553051E+03  0.12700000000E+01 0.  1.
         25    2    1    2    0    0  0.00000000000E+00  0.00000000000E+00 -0.45912657861E+03  0.47583927458E+03  0.12500320017E+03 0.  0.
    9000005    1    3    3    0    0 -0.35611466556E+02 -0.33632870917E+02 -0.81834017871E+02  0.95378996836E+02  0.10000000000E+01 0.  0.
    9000005    1    3    3    0    0  0.35611466556E+02  0.33632870917E+02 -0.37729256074E+03  0.38046027775E+03  0.10000000000E+01 0.  0.
<mgrwt>
<rscale>  0 0.12500320E+03</rscale>
<asrwt>0</asrwt>
<pdfrwt beam="1">  1        4 0.12855924E-02 0.12500320E+03</pdfrwt>
<pdfrwt beam="2">  1       -4 0.71920430E-01 0.12500320E+03</pdfrwt>
<totfact> 0.57784851E+03</totfact>
</mgrwt>
</event>
<event>
 5    1  0.3209683E-002  0.1249981E+03  0.7818608E-02  0.1235072E+00
         -4   -1    0    0    0  501 -0.00000000000E+00  0.00000000000E+00  0.49363970490E+03  0.49364133858E+03  0.12700000000E+01 0. -1.
          4   -1    0    0  501    0  0.00000000000E+00 -0.00000000000E+00 -0.78603074195E+01  0.79622442018E+01  0.12700000000E+01 0. -1.
         25    2    1    2    0    0  0.00000000000E+00  0.00000000000E+00  0.48577939748E+03  0.50160358278E+03  0.12499812495E+03 0.  0.
    9000005    1    3    3    0    0  0.49925725358E+02  0.33149827957E+02  0.17182148644E+03  0.18197558174E+03  0.10000000000E+01 0.  0.
    9000005    1    3    3    0    0 -0.49925725358E+02 -0.33149827957E+02  0.31395791104E+03  0.31962800104E+03  0.10000000000E+01 0.  0.
<mgrwt>
<rscale>  0 0.12499812E+03</rscale>
<asrwt>0</asrwt>
<pdfrwt beam="2">  1        4 0.12172447E-02 0.12499812E+03</pdfrwt>
<pdfrwt beam="1">  1       -4 0.75952554E-01 0.12499812E+03</pdfrwt>
<totfact> 0.55742451E+03</totfact>
</mgrwt>
</event>
<event>
 5    1  0.3209683E-002  0.1250012E+03  0.7818608E-02  0.1235067E+00
         -4   -1    0    0    0  501 -0.00000000000E+00  0.00000000000E+00  0.41934911337E+02  0.41954137923E+02  0.12700000000E+01 0.  1.
          4   -1    0    0  501    0  0.00000000000E+00 -0.00000000000E+00 -0.93107160879E+02  0.93115822001E+02  0.12700000000E+01 0.  1.
         25    2    1    2    0    0  0.00000000000E+00  0.00000000000E+00 -0.51172249541E+02  0.13506995992E+03  0.12500117980E+03 0.  0.
    9000005    1    3    3    0    0 -0.17950389619E+02  0.59656327829E+02 -0.20267252326E+02  0.65519885946E+02  0.10000000000E+01 0.  0.
    9000005    1    3    3    0    0  0.17950389619E+02 -0.59656327829E+02 -0.30904997216E+02  0.69550073978E+02  0.10000000000E+01 0.  0.
<mgrwt>
<rscale>  0 0.12500118E+03</rscale>
<asrwt>0</asrwt>
<pdfrwt beam="2">  1        4 0.14326324E-01 0.12500118E+03</pdfrwt>
<pdfrwt beam="1">  1       -4 0.64536701E-02 0.12500118E+03</pdfrwt>
<totfact> 0.10236324E+04</totfact>
</mgrwt>
</event>
<event>
 5    1  0.3209683E-002  0.1250026E+03  0.7818608E-02  0.1235065E+00
          4   -1    0    0  501    0  0.00000000000E+00  0.00000000000E+00  0.55988607571E+03  0.55988751609E+03  0.12700000000E+01 0.  1.
         -4   -1    0    0    0  501 -0.00000000000E+00 -0.00000000000E+00 -0.69179017613E+01  0.70335101322E+01  0.12700000000E+01 0.  1.
         25    2    1    2    0    0  0.00000000000E+00  0.00000000000E+00  0.55296817394E+03  0.56692102622E+03  0.12500259427E+03 0.  0.
    9000005    1    3    3    0    0 -0.20398663065E+02 -0.59069393429E+02  0.27801166254E+03  0.28495049254E+03  0.10000000000E+01 0.  0.
    9000005    1    3    3    0    0  0.20398663065E+02  0.59069393429E+02  0.27495651141E+03  0.28197053367E+03  0.10000000000E+01 0.  0.
<mgrwt>
<rscale>  0 0.12500259E+03</rscale>
<asrwt>0</asrwt>
<pdfrwt beam="1">  1        4 0.86145303E-01 0.12500259E+03</pdfrwt>
<pdfrwt beam="2">  1       -4 0.10732966E-02 0.12500259E+03</pdfrwt>
<totfact> 0.51021621E+03</totfact>
</mgrwt>
</event>
<event>
 5    1  0.3209683E-002  0.1250006E+03  0.7818608E-02  0.1235068E+00
         -4   -1    0    0    0  501 -0.00000000000E+00  0.00000000000E+00  0.38922070563E+01  0.40941636227E+01  0.12700000000E+01 0. -1.
          4   -1    0    0  501    0  0.00000000000E+00 -0.00000000000E+00 -0.97803566152E+03  0.97803648608E+03  0.12700000000E+01 0. -1.
         25    2    1    2    0    0  0.00000000000E+00  0.00000000000E+00 -0.97414345446E+03  0.98213064970E+03  0.12500057285E+03 0.  0.
    9000005    1    3    3    0    0 -0.34234345523E+02  0.47988435262E+01 -0.78034101431E+02  0.85354204927E+02  0.10000000000E+01 0.  0.
    9000005    1    3    3    0    0  0.34234345523E+02 -0.47988435262E+01 -0.89610935303E+03  0.89677644478E+03  0.10000000000E+01 0.  0.
<mgrwt>
<rscale>  0 0.12500057E+03</rscale>
<asrwt>0</asrwt>
<pdfrwt beam="2">  1        4 0.15048243E+00 0.12500057E+03</pdfrwt>
<pdfrwt beam="1">  1       -4 0.61440041E-03 0.12500057E+03</pdfrwt>
<totfact> 0.31201611E+03</totfact>
</mgrwt>
</event>
<event>
 5    1  0.3209683E-002  0.1249962E+03  0.7818608E-02  0.1235075E+00
         -4   -1    0    0    0  501 -0.00000000000E+00  0.00000000000E+00  0.11490196694E+03  0.11490898532E+03  0.12700000000E+01 0.  1.
          4   -1    0    0  501    0  0.00000000000E+00 -0.00000000000E+00 -0.33974396341E+02  0.33998125047E+02  0.12700000000E+01 0.  1.
         25    2    1    2    0    0  0.00000000000E+00  0.00000000000E+00  0.80927570603E+02  0.14890711037E+03  0.12499622328E+03 0.  0.
    9000005    1    3    3    0    0  0.27286920273E+02 -0.39278648290E+02 -0.74496784365E+01  0.48413695772E+02  0.10000000000E+01 0.  0.
    9000005    1    3    3    0    0 -0.27286920273E+02  0.39278648290E+02  0.88377249039E+02  0.10049341460E+03  0.10000000000E+01 0.  0.
<mgrwt>
<rscale>  0 0.12499622E+03</rscale>
<asrwt>0</asrwt>
<pdfrwt beam="2">  1        4 0.52291954E-02 0.12499622E+03</pdfrwt>
<pdfrwt beam="1">  1       -4 0.17679591E-01 0.12499622E+03</pdfrwt>
<totfact> 0.99530457E+03</totfact>
</mgrwt>
</event>
<event>
 5    1  0.3209683E-002  0.1250003E+03  0.7818608E-02  0.1235069E+00
         -4   -1    0    0    0  501 -0.00000000000E+00  0.00000000000E+00  0.20139828312E+03  0.20140228734E+03  0.12700000000E+01 0. -1.
          4   -1    0    0  501    0  0.00000000000E+00 -0.00000000000E+00 -0.19370734104E+02  0.19412321853E+02  0.12700000000E+01 0. -1.
         25    2    1    2    0    0  0.00000000000E+00  0.00000000000E+00  0.18202754902E+03  0.22081460919E+03  0.12500025212E+03 0.  0.
    9000005    1    3    3    0    0 -0.34602263247E+01 -0.55062475713E+02  0.39166793634E+02  0.67667474620E+02  0.10000000000E+01 0.  0.
    9000005    1    3    3    0    0  0.34602263247E+01  0.55062475713E+02  0.14286075538E+03  0.15314713457E+03  0.10000000000E+01 0.  0.
<mgrwt>
<rscale>  0 0.12500025E+03</rscale>
<asrwt>0</asrwt>
<pdfrwt beam="2">  1        4 0.29836200E-02 0.12500025E+03</pdfrwt>
<pdfrwt beam="1">  1       -4 0.30987859E-01 0.12500025E+03</pdfrwt>
<totfact> 0.86739123E+03</totfact>
</mgrwt>
</event>
<event>
 5    1  0.3209683E-002  0.1249874E+03  0.7818608E-02  0.1235089E+00
         -4   -1    0    0    0  501 -0.00000000000E+00  0.00000000000E+00  0.13798298123E+03  0.13798882567E+03  0.12700000000E+01 0.  1.
          4   -1    0    0  501    0  0.00000000000E+00 -0.00000000000E+00 -0.28283239358E+02  0.28311738353E+02  0.12700000000E+01 0.  1.
         25    2    1    2    0    0  0.00000000000E+00  0.00000000000E+00  0.10969974187E+03  0.16630056402E+03  0.12498737627E+03 0.  0.
    9000005    1    3    3    0    0 -0.19345974149E+02  0.55285372214E+02  0.83809255586E+02  0.10225326605E+03  0.10000000000E+01 0.  0.
    9000005    1    3    3    0    0  0.19345974149E+02 -0.55285372214E+02  0.25890486285E+02  0.64047297966E+02  0.10000000000E+01 0.  0.
<mgrwt>
<rscale>  0 0.12498738E+03</rscale>
<asrwt>0</asrwt>
<pdfrwt beam="2">  1        4 0.43539094E-02 0.12498738E+03</pdfrwt>
<pdfrwt beam="1">  1       -4 0.21230793E-01 0.12498738E+03</pdfrwt>
<totfact> 0.96168917E+03</totfact>
</mgrwt>
</event>
<event>
 5    1  0.3209683E-002  0.1250026E+03  0.7818608E-02  0.1235065E+00
          4   -1    0    0  501    0  0.00000000000E+00  0.00000000000E+00  0.75896256028E+02  0.75906880973E+02  0.12700000000E+01 0.  1.
         -4   -1    0    0    0  501 -0.00000000000E+00 -0.00000000000E+00 -0.51448393066E+02  0.51464065609E+02  0.12700000000E+01 0.  1.
         25    2    1    2    0    0  0.00000000000E+00  0.00000000000E+00  0.24447862963E+02  0.12737094658E+03  0.12500264009E+03 0.  0.
    9000005    1    3    3    0    0  0.22193499234E+02  0.54165952025E+02 -0.10074772020E+02  0.59405410513E+02  0.10000000000E+01 0.  0.
    9000005    1    3    3    0    0 -0.22193499234E+02 -0.54165952025E+02  0.34522634983E+02  0.67965536069E+02  0.10000000000E+01 0.  0.
<mgrwt>
<rscale>  0 0.12500264E+03</rscale>
<asrwt>0</asrwt>
<pdfrwt beam="1">  1        4 0.11678370E-01 0.12500264E+03</pdfrwt>
<pdfrwt beam="2">  1       -4 0.79171603E-02 0.12500264E+03</pdfrwt>
<totfact> 0.10400477E+04</totfact>
</mgrwt>
</event>
<event>
 5    1  0.3209683E-002  0.1250006E+03  0.7818608E-02  0.1235068E+00
          4   -1    0    0  501    0  0.00000000000E+00  0.00000000000E+00  0.69280873543E+03  0.69280989946E+03  0.12700000000E+01 0.  1.
         -4   -1    0    0    0  501 -0.00000000000E+00 -0.00000000000E+00 -0.55656360999E+01  0.57086955774E+01  0.12700000000E+01 0.  1.
         25    2    1    2    0    0  0.00000000000E+00  0.00000000000E+00  0.68724309933E+03  0.69851859503E+03  0.12500060014E+03 0.  0.
    9000005    1    3    3    0    0  0.25804590842E+01  0.58938722016E+02  0.45880408735E+03  0.46258255727E+03  0.10000000000E+01 0.  0.
    9000005    1    3    3    0    0 -0.25804590842E+01 -0.58938722016E+02  0.22843901198E+03  0.23593603776E+03  0.10000000000E+01 0.  0.
<mgrwt>
<rscale>  0 0.12500060E+03</rscale>
<asrwt>0</asrwt>
<pdfrwt beam="1">  1        4 0.10659702E+00 0.12500060E+03</pdfrwt>
<pdfrwt beam="2">  1       -4 0.86734607E-03 0.12500060E+03</pdfrwt>
<totfact> 0.43164448E+03</totfact>
</mgrwt>
</event>
<event>
 5    1  0.3209683E-002  0.1249939E+03  0.7818608E-02  0.1235079E+00
         -4   -1    0    0    0  501 -0.00000000000E+00  0.00000000000E+00  0.72136788732E+02  0.72147967322E+02  0.12700000000E+01 0.  1.
          4   -1    0    0  501    0  0.00000000000E+00 -0.00000000000E+00 -0.54122494408E+02  0.54137392816E+02  0.12700000000E+01 0.  1.
         25    2    1    2    0    0  0.00000000000E+00  0.00000000000E+00  0.18014294325E+02  0.12628536014E+03  0.12499390939E+03 0.  0.
    9000005    1    3    3    0    0 -0.46833421661E+02  0.22317644226E+02 -0.26186981416E+02  0.58122324661E+02  0.10000000000E+01 0.  0.
    9000005    1    3    3    0    0  0.46833421661E+02 -0.22317644226E+02  0.44201275741E+02  0.68163035477E+02  0.10000000000E+01 0.  0.
<mgrwt>
<rscale>  0 0.12499391E+03</rscale>
<asrwt>0</asrwt>
<pdfrwt beam="2">  1        4 0.83285435E-02 0.12499391E+03</pdfrwt>
<pdfrwt beam="1">  1       -4 0.11099973E-01 0.12499391E+03</pdfrwt>
<totfact> 0.10426146E+04</totfact>
</mgrwt>
</event>
<event>
 5    1  0.3209683E-002  0.1250094E+03  0.7818608E-02  0.1235055E+00
         -4   -1    0    0    0  501 -0.00000000000E+00  0.00000000000E+00  0.49440755770E+01  0.51045845385E+01  0.12700000000E+01 0.  1.
          4   -1    0    0  501    0  0.00000000000E+00 -0.00000000000E+00 -0.77742329701E+03  0.77742433435E+03  0.12700000000E+01 0.  1.
         25    2    1    2    0    0  0.00000000000E+00  0.00000000000E+00 -0.77247922143E+03  0.78252891889E+03  0.12500944502E+03 0.  0.
    9000005    1    3    3    0    0 -0.34822140440E+02  0.43356505273E+02 -0.20770231205E+03  0.21502004196E+03  0.10000000000E+01 0.  0.
    9000005    1    3    3    0    0  0.34822140440E+02 -0.43356505273E+02 -0.56477690938E+03  0.56750887692E+03  0.10000000000E+01 0.  0.
<mgrwt>
<rscale>  0 0.12500945E+03</rscale>
<asrwt>0</asrwt>
<pdfrwt beam="2">  1        4 0.11961592E+00 0.12500945E+03</pdfrwt>
<pdfrwt beam="1">  1       -4 0.77305427E-03 0.12500945E+03</pdfrwt>
<totfact> 0.39048649E+03</totfact>
</mgrwt>
</event>
<event>
 5    1  0.3209683E-002  0.1250004E+03  0.7818608E-02  0.1235069E+00
         -4   -1    0    0    0  501 -0.00000000000E+00  0.00000000000E+00  0.14178354277E+02  0.14235119599E+02  0.12700000000E+01 0. -1.
          4   -1    0    0  501    0  0.00000000000E+00 -0.00000000000E+00 -0.27490121737E+03  0.27490415095E+03  0.12700000000E+01 0. -1.
         25    2    1    2    0    0  0.00000000000E+00  0.00000000000E+00 -0.26072286309E+03  0.28913927055E+03  0.12500042574E+03 0.  0.
    9000005    1    3    3    0    0 -0.15926194416E+02  0.24587143604E+02 -0.25804626691E+03  0.25970569336E+03  0.10000000000E+01 0.  0.
    9000005    1    3    3    0    0  0.15926194416E+02 -0.24587143604E+02 -0.26765961852E+01  0.29433577192E+02  0.10000000000E+01 0.  0.
<mgrwt>
<rscale>  0 0.12500043E+03</rscale>
<asrwt>0</asrwt>
<pdfrwt beam="2">  1        4 0.42297083E-01 0.12500043E+03</pdfrwt>
<pdfrwt beam="1">  1       -4 0.21858777E-02 0.12500043E+03</pdfrwt>
<totfact> 0.76980976E+03</totfact>
</mgrwt>
</event>
<event>
 5    1  0.3209683E-002  0.1250249E+03  0.7818608E-02  0.1235030E+00
          4   -1    0    0  501    0  0.00000000000E+00  0.00000000000E+00  0.73982787587E+02  0.73993687292E+02  0.12700000000E+01 0.  1.
         -4   -1    0    0    0  501 -0.00000000000E+00 -0.00000000000E+00 -0.52798074161E+02  0.52813346184E+02  0.12700000000E+01 0.  1.
         25    2    1    2    0    0  0.00000000000E+00  0.00000000000E+00  0.21184713425E+02  0.12680703348E+03  0.12502492414E+03 0.  0.
    9000005    1    3    3    0    0  0.54320580645E+02 -0.25571525240E+02  0.28223450810E+02  0.66349013258E+02  0.10000000000E+01 0.  0.
    9000005    1    3    3    0    0 -0.54320580645E+02  0.25571525240E+02 -0.70387373845E+01  0.60458020218E+02  0.10000000000E+01 0.  0.
<mgrwt>
<rscale>  0 0.12502492E+03</rscale>
<asrwt>0</asrwt>
<pdfrwt beam="1">  1        4 0.11383980E-01 0.12502492E+03</pdfrwt>
<pdfrwt beam="2">  1       -4 0.81247939E-02 0.12502492E+03</pdfrwt>
<totfact> 0.10407484E+04</totfact>
</mgrwt>
</event>
<event>
 5    1  0.3209683E-002  0.1249989E+03  0.7818608E-02  0.1235071E+00
         -4   -1    0    0    0  501 -0.00000000000E+00  0.00000000000E+00  0.14393214665E+03  0.14393774953E+03  0.12700000000E+01 0.  1.
          4   -1    0    0  501    0  0.00000000000E+00 -0.00000000000E+00 -0.27118049852E+02  0.27147772059E+02  0.12700000000E+01 0.  1.
         25    2    1    2    0    0  0.00000000000E+00  0.00000000000E+00  0.11681409680E+03  0.17108552159E+03  0.12499888994E+03 0.  0.
    9000005    1    3    3    0    0 -0.61387281332E+02 -0.11348148629E+02  0.62278750175E+02  0.88186288674E+02  0.10000000000E+01 0.  0.
    9000005    1    3    3    0    0  0.61387281332E+02  0.11348148629E+02  0.54535346627E+02  0.82899232918E+02  0.10000000000E+01 0.  0.
<mgrwt>
<rscale>  0 0.12499889E+03</rscale>
<asrwt>0</asrwt>
<pdfrwt beam="2">  1        4 0.41747250E-02 0.12499889E+03</pdfrwt>
<pdfrwt beam="1">  1       -4 0.22146124E-01 0.12499889E+03</pdfrwt>
<totfact> 0.95249069E+03</totfact>
</mgrwt>
</event>
<event>
 5    1  0.3209683E-002  0.1249988E+03  0.7818608E-02  0.1235071E+00
         -4   -1    0    0    0  501 -0.00000000000E+00  0.00000000000E+00  0.42466526330E+02  0.42485512337E+02  0.12700000000E+01 0.  1.
          4   -1    0    0  501    0  0.00000000000E+00 -0.00000000000E+00 -0.91938574928E+02  0.91947346127E+02  0.12700000000E+01 0.  1.
         25    2    1    2    0    0  0.00000000000E+00  0.00000000000E+00 -0.49472048598E+02  0.13443285846E+03  0.12499883936E+03 0.  0.
    9000005    1    3    3    0    0 -0.50118656156E+02 -0.22439149128E+02 -0.56816540405E+02  0.79022239731E+02  0.10000000000E+01 0.  0.
    9000005    1    3    3    0    0  0.50118656156E+02  0.22439149128E+02  0.73444918074E+01  0.55410618733E+02  0.10000000000E+01 0.  0.
<mgrwt>
<rscale>  0 0.12499884E+03</rscale>
<asrwt>0</asrwt>
<pdfrwt beam="2">  1        4 0.14146531E-01 0.12499884E+03</pdfrwt>
<pdfrwt beam="1">  1       -4 0.65354469E-02 0.12499884E+03</pdfrwt>
<totfact> 0.10250307E+04</totfact>
</mgrwt>
</event>
<event>
 5    1  0.3209683E-002  0.1250072E+03  0.7818608E-02  0.1235058E+00
         -4   -1    0    0    0  501 -0.00000000000E+00  0.00000000000E+00  0.72426839787E+02  0.72437973616E+02  0.12700000000E+01 0.  1.
          4   -1    0    0  501    0  0.00000000000E+00 -0.00000000000E+00 -0.53917195915E+02  0.53932151036E+02  0.12700000000E+01 0.  1.
         25    2    1    2    0    0  0.00000000000E+00  0.00000000000E+00  0.18509643872E+02  0.12637012465E+03  0.12500720574E+03 0.  0.
    9000005    1    3    3    0    0  0.53935864006E+02 -0.45859963424E+00 -0.22655337835E+02  0.58511127763E+02  0.10000000000E+01 0.  0.
    9000005    1    3    3    0    0 -0.53935864006E+02  0.45859963424E+00  0.41164981707E+02  0.67858996888E+02  0.10000000000E+01 0.  0.
<mgrwt>
<rscale>  0 0.12500721E+03</rscale>
<asrwt>0</asrwt>
<pdfrwt beam="2">  1        4 0.82969601E-02 0.12500721E+03</pdfrwt>
<pdfrwt beam="1">  1       -4 0.11144598E-01 0.12500721E+03</pdfrwt>
<totfact> 0.10421167E+04</totfact>
</mgrwt>
</event>
<event>
 5    1  0.3209683E-002  0.1250012E+03  0.7818608E-02  0.1235067E+00
          4   -1    0    0  501    0  0.00000000000E+00  0.00000000000E+00  0.77779909119E+03  0.77780012803E+03  0.12700000000E+01 0. -1.
         -4   -1    0    0    0  501 -0.00000000000E+00 -0.00000000000E+00 -0.49409322564E+01  0.51015401167E+01  0.12700000000E+01 0. -1.
         25    2    1    2    0    0  0.00000000000E+00  0.00000000000E+00  0.77285815894E+03  0.78290166814E+03  0.12500115259E+03 0.  0.
    9000005    1    3    3    0    0 -0.11884423359E+02 -0.16049163371E+02  0.15551527033E+02  0.25331110448E+02  0.10000000000E+01 0.  0.
    9000005    1    3    3    0    0  0.11884423359E+02  0.16049163371E+02  0.75730663190E+03  0.75757055770E+03  0.10000000000E+01 0.  0.
<mgrwt>
<rscale>  0 0.12500115E+03</rscale>
<asrwt>0</asrwt>
<pdfrwt beam="1">  1        4 0.11967386E+00 0.12500115E+03</pdfrwt>
<pdfrwt beam="2">  1       -4 0.77257746E-03 0.12500115E+03</pdfrwt>
<totfact> 0.39038540E+03</totfact>
</mgrwt>
</event>
<event>
 5    1  0.3209683E-002  0.1250317E+03  0.7818608E-02  0.1235020E+00
         -4   -1    0    0    0  501 -0.00000000000E+00  0.00000000000E+00  0.35828211291E+02  0.35850713024E+02  0.12700000000E+01 0. -1.
          4   -1    0    0  501    0  0.00000000000E+00 -0.00000000000E+00 -0.10902215660E+03  0.10902955347E+03  0.12700000000E+01 0. -1.
         25    2    1    2    0    0  0.00000000000E+00  0.00000000000E+00 -0.73193945308E+02  0.14488026649E+03  0.12503174792E+03 0.  0.
    9000005    1    3    3    0    0 -0.11759135720E+01 -0.60573863602E+02 -0.18771123068E+02  0.63434460553E+02  0.10000000000E+01 0.  0.
    9000005    1    3    3    0    0  0.11759135720E+01  0.60573863602E+02 -0.54422822240E+02  0.81445805939E+02  0.10000000000E+01 0.  0.
<mgrwt>
<rscale>  0 0.12503175E+03</rscale>
<asrwt>0</asrwt>
<pdfrwt beam="2">  1        4 0.16774939E-01 0.12503175E+03</pdfrwt>
<pdfrwt beam="1">  1       -4 0.55143324E-02 0.12503175E+03</pdfrwt>
<totfact> 0.10026252E+04</totfact>
</mgrwt>
</event>
<event>
 5    1  0.3209683E-002  0.1249998E+03  0.7818608E-02  0.1235070E+00
          4   -1    0    0  501    0  0.00000000000E+00  0.00000000000E+00  0.79661257512E+02  0.79671380360E+02  0.12700000000E+01 0. -1.
         -4   -1    0    0    0  501 -0.00000000000E+00 -0.00000000000E+00 -0.49014103123E+02  0.49030553790E+02  0.12700000000E+01 0. -1.
         25    2    1    2    0    0  0.00000000000E+00  0.00000000000E+00  0.30647154389E+02  0.12870193415E+03  0.12499975913E+03 0.  0.
    9000005    1    3    3    0    0  0.10833343410E+02 -0.54662468193E+02 -0.13796367042E+02  0.57416778924E+02  0.10000000000E+01 0.  0.
    9000005    1    3    3    0    0 -0.10833343410E+02  0.54662468193E+02  0.44443521431E+02  0.71285155226E+02  0.10000000000E+01 0.  0.
<mgrwt>
<rscale>  0 0.12499976E+03</rscale>
<asrwt>0</asrwt>
<pdfrwt beam="1">  1        4 0.12257622E-01 0.12499976E+03</pdfrwt>
<pdfrwt beam="2">  1       -4 0.75426753E-02 0.12499976E+03</pdfrwt>
<totfact> 0.10372413E+04</totfact>
</mgrwt>
</event>
<event>
 5    1  0.3209683E-002  0.1249882E+03  0.7818608E-02  0.1235088E+00
         -4   -1    0    0    0  501 -0.00000000000E+00  0.00000000000E+00  0.24261922126E+03  0.24262254517E+03  0.12700000000E+01 0. -1.
          4   -1    0    0  501    0  0.00000000000E+00 -0.00000000000E+00 -0.16068803606E+02  0.16118912783E+02  0.12700000000E+01 0. -1.
         25    2    1    2    0    0  0.00000000000E+00  0.00000000000E+00  0.22655041765E+03  0.25874145795E+03  0.12498820074E+03 0.  0.
    9000005    1    3    3    0    0 -0.61483938749E+02 -0.10934979788E+02  0.11774595202E+03  0.13328524946E+03  0.10000000000E+01 0.  0.
    9000005    1    3    3    0    0  0.61483938749E+02  0.10934979788E+02  0.10880446563E+03  0.12545620849E+03  0.10000000000E+01 0.  0.
<mgrwt>
<rscale>  0 0.12498820E+03</rscale>
<asrwt>0</asrwt>
<pdfrwt beam="2">  1        4 0.24762340E-02 0.12498820E+03</pdfrwt>
<pdfrwt beam="1">  1       -4 0.37330142E-01 0.12498820E+03</pdfrwt>
<totfact> 0.81104307E+03</totfact>
</mgrwt>
</event>
<event>
 5    1  0.3209683E-002  0.1250062E+03  0.7818608E-02  0.1235060E+00
          4   -1    0    0  501    0  0.00000000000E+00  0.00000000000E+00  0.70072363171E+01  0.71213945828E+01  0.12700000000E+01 0. -1.
         -4   -1    0    0    0  501 -0.00000000000E+00 -0.00000000000E+00 -0.55289483721E+03  0.55289629580E+03  0.12700000000E+01 0. -1.
         25    2    1    2    0    0  0.00000000000E+00  0.00000000000E+00 -0.54588760089E+03  0.56001769038E+03  0.12500616280E+03 0.  0.
    9000005    1    3    3    0    0  0.66383011470E+01  0.38710010944E+02 -0.55166973584E+02  0.67726855559E+02  0.10000000000E+01 0.  0.
    9000005    1    3    3    0    0 -0.66383011470E+01 -0.38710010944E+02 -0.49072062730E+03  0.49229083482E+03  0.10000000000E+01 0.  0.
<mgrwt>
<rscale>  0 0.12500616E+03</rscale>
<asrwt>0</asrwt>
<pdfrwt beam="1">  1        4 0.10869304E-02 0.12500616E+03</pdfrwt>
<pdfrwt beam="2">  1       -4 0.85069604E-01 0.12500616E+03</pdfrwt>
<totfact> 0.51485800E+03</totfact>
</mgrwt>
</event>
<event>
 5    1  0.3209683E-002  0.1249994E+03  0.7818608E-02  0.1235070E+00
         -4   -1    0    0    0  501 -0.00000000000E+00  0.00000000000E+00  0.15455867862E+03  0.15456389629E+03  0.12700000000E+01 0. -1.
          4   -1    0    0  501    0  0.00000000000E+00 -0.00000000000E+00 -0.25251741662E+02  0.25283657903E+02  0.12700000000E+01 0. -1.
         25    2    1    2    0    0  0.00000000000E+00  0.00000000000E+00  0.12930693696E+03  0.17984755419E+03  0.12499943522E+03 0.  0.
    9000005    1    3    3    0    0 -0.39699043821E+01 -0.59396535295E+02  0.92009577980E+02  0.10959229437E+03  0.10000000000E+01 0.  0.
    9000005    1    3    3    0    0  0.39699043821E+01  0.59396535295E+02  0.37297358977E+02  0.70255259821E+02  0.10000000000E+01 0.  0.
<mgrwt>
<rscale>  0 0.12499944E+03</rscale>
<asrwt>0</asrwt>
<pdfrwt beam="2">  1        4 0.38877398E-02 0.12499944E+03</pdfrwt>
<pdfrwt beam="1">  1       -4 0.23781115E-01 0.12499944E+03</pdfrwt>
<totfact> 0.93645637E+03</totfact>
</mgrwt>
</event>
<event>
 5    1  0.3209683E-002  0.1250024E+03  0.7818608E-02  0.1235065E+00
          4   -1    0    0  501    0  0.00000000000E+00  0.00000000000E+00  0.18477685077E+03  0.18478121517E+03  0.12700000000E+01 0.  1.
         -4   -1    0    0    0  501 -0.00000000000E+00 -0.00000000000E+00 -0.21117492379E+02  0.21155646631E+02  0.12700000000E+01 0.  1.
         25    2    1    2    0    0  0.00000000000E+00  0.00000000000E+00  0.16365935839E+03  0.20593686180E+03  0.12500242182E+03 0.  0.
    9000005    1    3    3    0    0  0.78991372806E+01 -0.91256961440E+01  0.18284652400E+03  0.18324717198E+03  0.10000000000E+01 0.  0.
    9000005    1    3    3    0    0 -0.78991372806E+01  0.91256961440E+01 -0.19187165613E+02  0.22689689820E+02  0.10000000000E+01 0.  0.
<mgrwt>
<rscale>  0 0.12500242E+03</rscale>
<asrwt>0</asrwt>
<pdfrwt beam="1">  1        4 0.28430477E-01 0.12500242E+03</pdfrwt>
<pdfrwt beam="2">  1       -4 0.32521158E-02 0.12500242E+03</pdfrwt>
<totfact> 0.89138946E+03</totfact>
</mgrwt>
</event>
<event>
 5    1  0.3209683E-002  0.1250035E+03  0.7818608E-02  0.1235064E+00
          4   -1    0    0  501    0  0.00000000000E+00  0.00000000000E+00  0.10059303971E+02  0.10139156591E+02  0.12700000000E+01 0.  1.
         -4   -1    0    0    0  501 -0.00000000000E+00 -0.00000000000E+00 -0.38672795595E+03  0.38673004126E+03  0.12700000000E+01 0.  1.
         25    2    1    2    0    0  0.00000000000E+00  0.00000000000E+00 -0.37666865198E+03  0.39686919785E+03  0.12500354723E+03 0.  0.
    9000005    1    3    3    0    0 -0.60152574156E+02  0.94132382567E+01 -0.14360023212E+03  0.15597745958E+03  0.10000000000E+01 0.  0.
    9000005    1    3    3    0    0  0.60152574156E+02 -0.94132382567E+01 -0.23306841986E+03  0.24089173827E+03  0.10000000000E+01 0.  0.
<mgrwt>
<rscale>  0 0.12500355E+03</rscale>
<asrwt>0</asrwt>
<pdfrwt beam="1">  1        4 0.15538884E-02 0.12500355E+03</pdfrwt>
<pdfrwt beam="2">  1       -4 0.59502900E-01 0.12500355E+03</pdfrwt>
<totfact> 0.64853356E+03</totfact>
</mgrwt>
</event>
<event>
 5    1  0.3209683E-002  0.1250008E+03  0.7818608E-02  0.1235068E+00
          4   -1    0    0  501    0  0.00000000000E+00  0.00000000000E+00  0.44403878915E+03  0.44404060532E+03  0.12700000000E+01 0. -1.
         -4   -1    0    0    0  501 -0.00000000000E+00 -0.00000000000E+00 -0.87495293282E+01  0.88412195689E+01  0.12700000000E+01 0. -1.
         25    2    1    2    0    0  0.00000000000E+00  0.00000000000E+00  0.43528925982E+03  0.45288182488E+03  0.12500083038E+03 0.  0.
    9000005    1    3    3    0    0  0.18513548493E+02  0.18587084378E+02  0.42314012116E+03  0.42395376318E+03  0.10000000000E+01 0.  0.
    9000005    1    3    3    0    0 -0.18513548493E+02 -0.18587084378E+02  0.12149138661E+02  0.28928061699E+02  0.10000000000E+01 0.  0.
<mgrwt>
<rscale>  0 0.12500083E+03</rscale>
<asrwt>0</asrwt>
<pdfrwt beam="1">  1        4 0.68320856E-01 0.12500083E+03</pdfrwt>
<pdfrwt beam="2">  1       -4 0.13532742E-02 0.12500083E+03</pdfrwt>
<totfact> 0.59713857E+03</totfact>
</mgrwt>
</event>
<event>
 5    1  0.3209683E-002  0.1250006E+03  0.7818608E-02  0.1235068E+00
          4   -1    0    0  501    0  0.00000000000E+00  0.00000000000E+00  0.36089974822E+02  0.36112313449E+02  0.12700000000E+01 0. -1.
         -4   -1    0    0    0  501 -0.00000000000E+00 -0.00000000000E+00 -0.10817794941E+03  0.10818540400E+03  0.12700000000E+01 0. -1.
         25    2    1    2    0    0  0.00000000000E+00  0.00000000000E+00 -0.72087974585E+02  0.14429771745E+03  0.12500062072E+03 0.  0.
    9000005    1    3    3    0    0 -0.59324513234E+02  0.18197213991E+02 -0.44585771288E+02  0.76416146650E+02  0.10000000000E+01 0.  0.
    9000005    1    3    3    0    0  0.59324513234E+02 -0.18197213991E+02 -0.27502203297E+02  0.67881570795E+02  0.10000000000E+01 0.  0.
<mgrwt>
<rscale>  0 0.12500062E+03</rscale>
<asrwt>0</asrwt>
<pdfrwt beam="1">  1        4 0.55545956E-02 0.12500062E+03</pdfrwt>
<pdfrwt beam="2">  1       -4 0.16645053E-01 0.12500062E+03</pdfrwt>
<totfact> 0.10045136E+04</totfact>
</mgrwt>
</event>
<event>
 5    1  0.3209683E-002  0.1249941E+03  0.7818608E-02  0.1235079E+00
         -4   -1    0    0    0  501 -0.00000000000E+00  0.00000000000E+00  0.62858259477E+02  0.62871087827E+02  0.12700000000E+01 0. -1.
          4   -1    0    0  501    0  0.00000000000E+00 -0.00000000000E+00 -0.62112215625E+02  0.62125198026E+02  0.12700000000E+01 0. -1.
         25    2    1    2    0    0  0.00000000000E+00  0.00000000000E+00  0.74604385268E+00  0.12499628585E+03  0.12499405944E+03 0.  0.
    9000005    1    3    3    0    0  0.23260475397E+02 -0.53317091813E+02  0.23201409810E+02  0.62634394802E+02  0.10000000000E+01 0.  0.
    9000005    1    3    3    0    0 -0.23260475397E+02  0.53317091813E+02 -0.22455365958E+02  0.62361891050E+02  0.10000000000E+01 0.  0.
<mgrwt>
<rscale>  0 0.12499406E+03</rscale>
<asrwt>0</asrwt>
<pdfrwt beam="2">  1        4 0.95577109E-02 0.12499406E+03</pdfrwt>
<pdfrwt beam="1">  1       -4 0.96724869E-02 0.12499406E+03</pdfrwt>
<totfact> 0.10454347E+04</totfact>
</mgrwt>
</event>
<event>
 5    1  0.3209683E-002  0.1249978E+03  0.7818608E-02  0.1235073E+00
          4   -1    0    0  501    0  0.00000000000E+00  0.00000000000E+00  0.77306919791E+03  0.77307024109E+03  0.12700000000E+01 0. -1.
         -4   -1    0    0    0  501 -0.00000000000E+00 -0.00000000000E+00 -0.49718699264E+01  0.51315095795E+01  0.12700000000E+01 0. -1.
         25    2    1    2    0    0  0.00000000000E+00  0.00000000000E+00  0.76809732799E+03  0.77820175067E+03  0.12499783793E+03 0.  0.
    9000005    1    3    3    0    0 -0.25985702848E+02 -0.12914068823E+02  0.39485201661E+02  0.49011336202E+02  0.10000000000E+01 0.  0.
    9000005    1    3    3    0    0  0.25985702848E+02  0.12914068823E+02  0.72861212633E+03  0.72919041447E+03  0.10000000000E+01 0.  0.
<mgrwt>
<rscale>  0 0.12499784E+03</rscale>
<asrwt>0</asrwt>
<pdfrwt beam="1">  1        4 0.11894602E+00 0.12499784E+03</pdfrwt>
<pdfrwt beam="2">  1       -4 0.77726369E-03 0.12499784E+03</pdfrwt>
<totfact> 0.39258440E+03</totfact>
</mgrwt>
</event>
<event>
 5    1  0.3209683E-002  0.1250001E+03  0.7818608E-02  0.1235069E+00
         -4   -1    0    0    0  501 -0.00000000000E+00  0.00000000000E+00  0.43510882300E+02  0.43529412797E+02  0.12700000000E+01 0. -1.
          4   -1    0    0  501    0  0.00000000000E+00 -0.00000000000E+00 -0.89734456253E+02  0.89743442875E+02  0.12700000000E+01 0. -1.
         25    2    1    2    0    0  0.00000000000E+00  0.00000000000E+00 -0.46223573953E+02  0.13327285567E+03  0.12500014108E+03 0.  0.
    9000005    1    3    3    0    0  0.61874527305E+02 -0.62878409378E+01 -0.16603296483E+02  0.64379061247E+02  0.10000000000E+01 0.  0.
    9000005    1    3    3    0    0 -0.61874527305E+02  0.62878409378E+01 -0.29620277470E+02  0.68893794425E+02  0.10000000000E+01 0.  0.
<mgrwt>
<rscale>  0 0.12500014E+03</rscale>
<asrwt>0</asrwt>
<pdfrwt beam="2">  1        4 0.13807418E-01 0.12500014E+03</pdfrwt>
<pdfrwt beam="1">  1       -4 0.66960986E-02 0.12500014E+03</pdfrwt>
<totfact> 0.10274572E+04</totfact>
</mgrwt>
</event>
<event>
 5    1  0.3209683E-002  0.1250020E+03  0.7818608E-02  0.1235066E+00
         -4   -1    0    0    0  501 -0.00000000000E+00  0.00000000000E+00  0.49302671057E+01  0.50912114210E+01  0.12700000000E+01 0.  1.
          4   -1    0    0  501    0  0.00000000000E+00 -0.00000000000E+00 -0.77943851993E+03  0.77943955458E+03  0.12700000000E+01 0.  1.
         25    2    1    2    0    0  0.00000000000E+00  0.00000000000E+00 -0.77450825282E+03  0.78453076600E+03  0.12500195645E+03 0.  0.
    9000005    1    3    3    0    0  0.48161139619E+02  0.36801245099E+01 -0.13838815604E+03  0.14657871748E+03  0.10000000000E+01 0.  0.
    9000005    1    3    3    0    0 -0.48161139619E+02 -0.36801245099E+01 -0.63612009678E+03  0.63795204852E+03  0.10000000000E+01 0.  0.
<mgrwt>
<rscale>  0 0.12500196E+03</rscale>
<asrwt>0</asrwt>
<pdfrwt beam="2">  1        4 0.11992598E+00 0.12500196E+03</pdfrwt>
<pdfrwt beam="1">  1       -4 0.77096317E-03 0.12500196E+03</pdfrwt>
<totfact> 0.38963075E+03</totfact>
</mgrwt>
</event>
<event>
 5    1  0.3209683E-002  0.1249964E+03  0.7818608E-02  0.1235075E+00
         -4   -1    0    0    0  501 -0.00000000000E+00  0.00000000000E+00  0.53410284729E+01  0.54899440023E+01  0.12700000000E+01 0. -1.
          4   -1    0    0  501    0  0.00000000000E+00 -0.00000000000E+00 -0.72111951841E+03  0.72112063674E+03  0.12700000000E+01 0. -1.
         25    2    1    2    0    0  0.00000000000E+00  0.00000000000E+00 -0.71577848994E+03  0.72661058075E+03  0.12499635751E+03 0.  0.
    9000005    1    3    3    0    0  0.34131457294E+02  0.46024495061E+02 -0.50284446132E+03  0.50609955820E+03  0.10000000000E+01 0.  0.
    9000005    1    3    3    0    0 -0.34131457294E+02 -0.46024495061E+02 -0.21293402862E+03  0.22051102255E+03  0.10000000000E+01 0.  0.
<mgrwt>
<rscale>  0 0.12499636E+03</rscale>
<asrwt>0</asrwt>
<pdfrwt beam="2">  1        4 0.11095293E+00 0.12499636E+03</pdfrwt>
<pdfrwt beam="1">  1       -4 0.83323832E-03 0.12499636E+03</pdfrwt>
<totfact> 0.41721950E+03</totfact>
</mgrwt>
</event>
<event>
 5    1  0.3209683E-002  0.1249973E+03  0.7818608E-02  0.1235074E+00
          4   -1    0    0  501    0  0.00000000000E+00  0.00000000000E+00  0.70018526292E+01  0.71160972619E+01  0.12700000000E+01 0.  1.
         -4   -1    0    0    0  501 -0.00000000000E+00 -0.00000000000E+00 -0.55323440316E+03  0.55323586086E+03  0.12700000000E+01 0.  1.
         25    2    1    2    0    0  0.00000000000E+00  0.00000000000E+00 -0.54623255053E+03  0.56035195812E+03  0.12499727081E+03 0.  0.
    9000005    1    3    3    0    0  0.67304932638E+01 -0.61448624843E+02 -0.23206727781E+03  0.24016130925E+03  0.10000000000E+01 0.  0.
    9000005    1    3    3    0    0 -0.67304932638E+01  0.61448624843E+02 -0.31416527272E+03  0.32019064886E+03  0.10000000000E+01 0.  0.
<mgrwt>
<rscale>  0 0.12499727E+03</rscale>
<asrwt>0</asrwt>
<pdfrwt beam="1">  1        4 0.10861087E-02 0.12499727E+03</pdfrwt>
<pdfrwt beam="2">  1       -4 0.85121851E-01 0.12499727E+03</pdfrwt>
<totfact> 0.51473025E+03</totfact>
</mgrwt>
</event>
<event>
 5    1  0.3209683E-002  0.1250025E+03  0.7818608E-02  0.1235065E+00
         -4   -1    0    0    0  501 -0.00000000000E+00  0.00000000000E+00  0.39342945853E+02  0.39363438473E+02  0.12700000000E+01 0. -1.
          4   -1    0    0  501    0  0.00000000000E+00 -0.00000000000E+00 -0.99240692756E+02  0.99248818626E+02  0.12700000000E+01 0. -1.
         25    2    1    2    0    0  0.00000000000E+00  0.00000000000E+00 -0.59897746903E+02  0.13861225710E+03  0.12500247091E+03 0.  0.
    9000005    1    3    3    0    0 -0.20044451944E+02 -0.46875497986E+02  0.10129169579E+02  0.51987425802E+02  0.10000000000E+01 0.  0.
    9000005    1    3    3    0    0  0.20044451944E+02  0.46875497986E+02 -0.70026916482E+02  0.86624831296E+02  0.10000000000E+01 0.  0.
<mgrwt>
<rscale>  0 0.12500247E+03</rscale>
<asrwt>0</asrwt>
<pdfrwt beam="2">  1        4 0.15270000E-01 0.12500247E+03</pdfrwt>
<pdfrwt beam="1">  1       -4 0.60549624E-02 0.12500247E+03</pdfrwt>
<totfact> 0.10161863E+04</totfact>
</mgrwt>
</event>
<event>
 5    1  0.3209683E-002  0.1250046E+03  0.7818608E-02  0.1235062E+00
         -4   -1    0    0    0  501 -0.00000000000E+00  0.00000000000E+00  0.35623167531E+03  0.35623393914E+03  0.12700000000E+01 0. -1.
          4   -1    0    0  501    0  0.00000000000E+00 -0.00000000000E+00 -0.10927212443E+02  0.11000766872E+02  0.12700000000E+01 0. -1.
         25    2    1    2    0    0  0.00000000000E+00  0.00000000000E+00  0.34530446286E+03  0.36723470601E+03  0.12500462881E+03 0.  0.
    9000005    1    3    3    0    0 -0.58458136676E+02  0.11910164344E+02  0.11798023868E+03  0.13221022078E+03  0.10000000000E+01 0.  0.
    9000005    1    3    3    0    0  0.58458136676E+02 -0.11910164344E+02  0.22732422418E+03  0.23502448523E+03  0.10000000000E+01 0.  0.
<mgrwt>
<rscale>  0 0.12500463E+03</rscale>
<asrwt>0</asrwt>
<pdfrwt beam="2">  1        4 0.16869415E-02 0.12500463E+03</pdfrwt>
<pdfrwt beam="1">  1       -4 0.54810714E-01 0.12500463E+03</pdfrwt>
<totfact> 0.67862280E+03</totfact>
</mgrwt>
</event>
<event>
 5    1  0.3209683E-002  0.1250245E+03  0.7818608E-02  0.1235031E+00
         -4   -1    0    0    0  501 -0.00000000000E+00  0.00000000000E+00  0.27280933248E+02  0.27310478189E+02  0.12700000000E+01 0.  1.
          4   -1    0    0  501    0  0.00000000000E+00 -0.00000000000E+00 -0.14313231426E+03  0.14313794844E+03  0.12700000000E+01 0.  1.
         25    2    1    2    0    0  0.00000000000E+00  0.00000000000E+00 -0.11585138101E+03  0.17044842663E+03  0.12502449224E+03 0.  0.
    9000005    1    3    3    0    0  0.55730732091E+02 -0.20988475479E+02 -0.83805456720E+02  0.10281432380E+03  0.10000000000E+01 0.  0.
    9000005    1    3    3    0    0 -0.55730732091E+02  0.20988475479E+02 -0.32045924289E+02  0.67634102832E+02  0.10000000000E+01 0.  0.
<mgrwt>
<rscale>  0 0.12502449E+03</rscale>
<asrwt>0</asrwt>
<pdfrwt beam="2">  1        4 0.22023062E-01 0.12502449E+03</pdfrwt>
<pdfrwt beam="1">  1       -4 0.41997728E-02 0.12502449E+03</pdfrwt>
<totfact> 0.95312718E+03</totfact>
</mgrwt>
</event>
<event>
 5    1  0.3209683E-002  0.1249918E+03  0.7818608E-02  0.1235082E+00
          4   -1    0    0  501    0  0.00000000000E+00  0.00000000000E+00  0.19198248826E+02  0.19240209406E+02  0.12700000000E+01 0.  1.
         -4   -1    0    0    0  501 -0.00000000000E+00 -0.00000000000E+00 -0.20317635741E+03  0.20318032658E+03  0.12700000000E+01 0.  1.
         25    2    1    2    0    0  0.00000000000E+00  0.00000000000E+00 -0.18397810858E+03  0.22242053599E+03  0.12499180130E+03 0.  0.
    9000005    1    3    3    0    0 -0.49850876789E+02  0.10068640553E+02 -0.27380165412E+02  0.57768165084E+02  0.10000000000E+01 0.  0.
    9000005    1    3    3    0    0  0.49850876789E+02 -0.10068640553E+02 -0.15659794317E+03  0.16465237090E+03  0.10000000000E+01 0.  0.
<mgrwt>
<rscale>  0 0.12499180E+03</rscale>
<asrwt>0</asrwt>
<pdfrwt beam="1">  1        4 0.29571099E-02 0.12499180E+03</pdfrwt>
<pdfrwt beam="2">  1       -4 0.31261433E-01 0.12499180E+03</pdfrwt>
<totfact> 0.86502612E+03</totfact>
</mgrwt>
</event>
<event>
 5    1  0.3209683E-002  0.1249993E+03  0.7818608E-02  0.1235070E+00
          4   -1    0    0  501    0  0.00000000000E+00  0.00000000000E+00  0.42437775344E+02  0.42456774208E+02  0.12700000000E+01 0.  1.
         -4   -1    0    0    0  501 -0.00000000000E+00 -0.00000000000E+00 -0.92001465099E+02  0.92010230303E+02  0.12700000000E+01 0.  1.
         25    2    1    2    0    0  0.00000000000E+00  0.00000000000E+00 -0.49563689755E+02  0.13446700451E+03  0.12499926384E+03 0.  0.
    9000005    1    3    3    0    0  0.60975551364E+02  0.59956671576E+01 -0.11552483404E+02  0.62357243056E+02  0.10000000000E+01 0.  0.
    9000005    1    3    3    0    0 -0.60975551364E+02 -0.59956671576E+01 -0.38011206351E+02  0.72109761454E+02  0.10000000000E+01 0.  0.
<mgrwt>
<rscale>  0 0.12499926E+03</rscale>
<asrwt>0</asrwt>
<pdfrwt beam="1">  1        4 0.65310242E-02 0.12499926E+03</pdfrwt>
<pdfrwt beam="2">  1       -4 0.14156207E-01 0.12499926E+03</pdfrwt>
<totfact> 0.10249487E+04</totfact>
</mgrwt>
</event>
<event>
 5    1  0.3209683E-002  0.1250016E+03  0.7818608E-02  0.1235067E+00
         -4   -1    0    0    0  501 -0.00000000000E+00  0.00000000000E+00  0.15108844633E+03  0.15109378384E+03  0.12700000000E+01 0. -1.
          4   -1    0    0  501    0  0.00000000000E+00 -0.00000000000E+00 -0.25833344511E+02  0.25864543078E+02  0.12700000000E+01 0. -1.
         25    2    1    2    0    0  0.00000000000E+00  0.00000000000E+00  0.12525510182E+03  0.17695832692E+03  0.12500163572E+03 0.  0.
    9000005    1    3    3    0    0  0.28864476870E+02 -0.39431780428E+02  0.11777115818E+03  0.12751105454E+03  0.10000000000E+01 0.  0.
    9000005    1    3    3    0    0 -0.28864476870E+02  0.39431780428E+02  0.74839436429E+01  0.49447272373E+02  0.10000000000E+01 0.  0.
<mgrwt>
<rscale>  0 0.12500164E+03</rscale>
<asrwt>0</asrwt>
<pdfrwt beam="2">  1        4 0.39771712E-02 0.12500164E+03</pdfrwt>
<pdfrwt beam="1">  1       -4 0.23247187E-01 0.12500164E+03</pdfrwt>
<totfact> 0.94163942E+03</totfact>
</mgrwt>
</event>
<event>
 5    1  0.3209683E-002  0.1249941E+03  0.7818608E-02  0.1235078E+00
         -4   -1    0    0    0  501 -0.00000000000E+00  0.00000000000E+00  0.42088793800E+01  0.43963127318E+01  0.12700000000E+01 0.  1.
          4   -1    0    0  501    0  0.00000000000E+00 -0.00000000000E+00 -0.90760922906E+03  0.90761011760E+03  0.12700000000E+01 0.  1.
         25    2    1    2    0    0  0.00000000000E+00  0.00000000000E+00 -0.90340034968E+03  0.91200643033E+03  0.12499414854E+03 0.  0.
    9000005    1    3    3    0    0  0.25401234687E+01  0.62108460277E+02 -0.49840348943E+03  0.50226581741E+03  0.10000000000E+01 0.  0.
    9000005    1    3    3    0    0 -0.25401234687E+01 -0.62108460277E+02 -0.40499686025E+03  0.40974061292E+03  0.10000000000E+01 0.  0.
<mgrwt>
<rscale>  0 0.12499415E+03</rscale>
<asrwt>0</asrwt>
<pdfrwt beam="2">  1        4 0.13964652E+00 0.12499415E+03</pdfrwt>
<pdfrwt beam="1">  1       -4 0.66200692E-03 0.12499415E+03</pdfrwt>
<totfact> 0.33708675E+03</totfact>
</mgrwt>
</event>
<event>
 5    1  0.3209683E-002  0.1250233E+03  0.7818608E-02  0.1235033E+00
          4   -1    0    0  501    0  0.00000000000E+00  0.00000000000E+00  0.23084635817E+02  0.23119543915E+02  0.12700000000E+01 0. -1.
         -4   -1    0    0    0  501 -0.00000000000E+00 -0.00000000000E+00 -0.16911219390E+03  0.16911696257E+03  0.12700000000E+01 0. -1.
         25    2    1    2    0    0  0.00000000000E+00  0.00000000000E+00 -0.14602755809E+03  0.19223650648E+03  0.12502330464E+03 0.  0.
    9000005    1    3    3    0    0 -0.48190073638E+02 -0.10321356017E+02 -0.13903038480E+02  0.51216287119E+02  0.10000000000E+01 0.  0.
    9000005    1    3    3    0    0  0.48190073638E+02  0.10321356017E+02 -0.13212451961E+03  0.14102021936E+03  0.10000000000E+01 0.  0.
<mgrwt>
<rscale>  0 0.12502330E+03</rscale>
<asrwt>0</asrwt>
<pdfrwt beam="1">  1        4 0.35545346E-02 0.12502330E+03</pdfrwt>
<pdfrwt beam="2">  1       -4 0.26020312E-01 0.12502330E+03</pdfrwt>
<totfact> 0.91411903E+03</totfact>
</mgrwt>
</event>
<event>
 5    1  0.3209683E-002  0.1249788E+03  0.7818608E-02  0.1235102E+00
          4   -1    0    0  501    0  0.00000000000E+00  0.00000000000E+00  0.55730251471E+01  0.57158996921E+01  0.12700000000E+01 0.  1.
         -4   -1    0    0    0  501 -0.00000000000E+00 -0.00000000000E+00 -0.69167133156E+03  0.69167249751E+03  0.12700000000E+01 0.  1.
         25    2    1    2    0    0  0.00000000000E+00  0.00000000000E+00 -0.68609830642E+03  0.69738839720E+03  0.12497876011E+03 0.  0.
    9000005    1    3    3    0    0 -0.34804695438E+02  0.48739697982E+02 -0.24369946293E+03  0.25095289043E+03  0.10000000000E+01 0.  0.
    9000005    1    3    3    0    0  0.34804695438E+02 -0.48739697982E+02 -0.44239884348E+03  0.44643550676E+03  0.10000000000E+01 0.  0.
<mgrwt>
<rscale>  0 0.12497876E+03</rscale>
<asrwt>0</asrwt>
<pdfrwt beam="1">  1        4 0.86846907E-03 0.12497876E+03</pdfrwt>
<pdfrwt beam="2">  1       -4 0.10642199E+00 0.12497876E+03</pdfrwt>
<totfact> 0.43245026E+03</totfact>
</mgrwt>
</event>
<event>
 5    1  0.3209683E-002  0.1250046E+03  0.7818608E-02  0.1235062E+00
          4   -1    0    0  501    0  0.00000000000E+00  0.00000000000E+00  0.20399992438E+02  0.20439486087E+02  0.12700000000E+01 0. -1.
         -4   -1    0    0    0  501 -0.00000000000E+00 -0.00000000000E+00 -0.19127033793E+03  0.19127455417E+03  0.12700000000E+01 0. -1.
         25    2    1    2    0    0  0.00000000000E+00  0.00000000000E+00 -0.17087034549E+03  0.21171404026E+03  0.12500463940E+03 0.  0.
    9000005    1    3    3    0    0 -0.48289285853E+02  0.38150173773E+02 -0.10385232234E+03  0.12072114869E+03  0.10000000000E+01 0.  0.
    9000005    1    3    3    0    0  0.48289285853E+02 -0.38150173773E+02 -0.67018023158E+02  0.90992891564E+02  0.10000000000E+01 0.  0.
<mgrwt>
<rscale>  0 0.12500464E+03</rscale>
<asrwt>0</asrwt>
<pdfrwt beam="1">  1        4 0.31418228E-02 0.12500464E+03</pdfrwt>
<pdfrwt beam="2">  1       -4 0.29429567E-01 0.12500464E+03</pdfrwt>
<totfact> 0.88187573E+03</totfact>
</mgrwt>
</event>
<event>
 5    1  0.3209683E-002  0.1249954E+03  0.7818608E-02  0.1235077E+00
         -4   -1    0    0    0  501 -0.00000000000E+00  0.00000000000E+00  0.51797782409E+01  0.53331981610E+01  0.12700000000E+01 0. -1.
          4   -1    0    0  501    0  0.00000000000E+00 -0.00000000000E+00 -0.74291999712E+03  0.74292108263E+03  0.12700000000E+01 0. -1.
         25    2    1    2    0    0  0.00000000000E+00  0.00000000000E+00 -0.73774021888E+03  0.74825428079E+03  0.12499535261E+03 0.  0.
    9000005    1    3    3    0    0 -0.35721979813E+02 -0.50954130391E+02 -0.33470315969E+03  0.34044028603E+03  0.10000000000E+01 0.  0.
    9000005    1    3    3    0    0  0.35721979813E+02  0.50954130391E+02 -0.40303705919E+03  0.40781399476E+03  0.10000000000E+01 0.  0.
<mgrwt>
<rscale>  0 0.12499535E+03</rscale>
<asrwt>0</asrwt>
<pdfrwt beam="2">  1        4 0.11430719E+00 0.12499535E+03</pdfrwt>
<pdfrwt beam="1">  1       -4 0.80877458E-03 0.12499535E+03</pdfrwt>
<totfact> 0.40661928E+03</totfact>
</mgrwt>
</event>
<event>
 5    1  0.3209683E-002  0.1250012E+03  0.7818608E-02  0.1235067E+00
          4   -1    0    0  501    0  0.00000000000E+00  0.00000000000E+00  0.19320329157E+03  0.19320746563E+03  0.12700000000E+01 0.  1.
         -4   -1    0    0    0  501 -0.00000000000E+00 -0.00000000000E+00 -0.20194387696E+02  0.20234282652E+02  0.12700000000E+01 0.  1.
         25    2    1    2    0    0  0.00000000000E+00  0.00000000000E+00  0.17300890387E+03  0.21344174828E+03  0.12500119635E+03 0.  0.
    9000005    1    3    3    0    0  0.19259222519E+02  0.33917421936E+02  0.31325426566E+01  0.39142329852E+02  0.10000000000E+01 0.  0.
    9000005    1    3    3    0    0 -0.19259222519E+02 -0.33917421936E+02  0.16987636122E+03  0.17429941842E+03  0.10000000000E+01 0.  0.
<mgrwt>
<rscale>  0 0.12500120E+03</rscale>
<asrwt>0</asrwt>
<pdfrwt beam="1">  1        4 0.29726972E-01 0.12500120E+03</pdfrwt>
<pdfrwt beam="2">  1       -4 0.31102190E-02 0.12500120E+03</pdfrwt>
<totfact> 0.87914515E+03</totfact>
</mgrwt>
</event>
<event>
 5    1  0.3209683E-002  0.1249737E+03  0.7818608E-02  0.1235110E+00
          4   -1    0    0  501    0  0.00000000000E+00  0.00000000000E+00  0.38841529919E+02  0.38862286943E+02  0.12700000000E+01 0.  1.
         -4   -1    0    0    0  501 -0.00000000000E+00 -0.00000000000E+00 -0.10047488227E+03  0.10048290833E+03  0.12700000000E+01 0.  1.
         25    2    1    2    0    0  0.00000000000E+00  0.00000000000E+00 -0.61633352348E+02  0.13934519527E+03  0.12497365052E+03 0.  0.
    9000005    1    3    3    0    0  0.41889480634E+02  0.17037063307E+02 -0.78886004442E+02  0.90933997002E+02  0.10000000000E+01 0.  0.
    9000005    1    3    3    0    0 -0.41889480634E+02 -0.17037063307E+02  0.17252652094E+02  0.48411198273E+02  0.10000000000E+01 0.  0.
<mgrwt>
<rscale>  0 0.12497365E+03</rscale>
<asrwt>0</asrwt>
<pdfrwt beam="1">  1        4 0.59778341E-02 0.12497365E+03</pdfrwt>
<pdfrwt beam="2">  1       -4 0.15459888E-01 0.12497365E+03</pdfrwt>
<totfact> 0.10153201E+04</totfact>
</mgrwt>
</event>
<event>
 5    1  0.3209683E-002  0.1249966E+03  0.7818608E-02  0.1235075E+00
         -4   -1    0    0    0  501 -0.00000000000E+00  0.00000000000E+00  0.36538028472E+02  0.36560093334E+02  0.12700000000E+01 0.  1.
          4   -1    0    0  501    0  0.00000000000E+00 -0.00000000000E+00 -0.10684528160E+03  0.10685282916E+03  0.12700000000E+01 0.  1.
         25    2    1    2    0    0  0.00000000000E+00  0.00000000000E+00 -0.70307253125E+02  0.14341292249E+03  0.12499662594E+03 0.  0.
    9000005    1    3    3    0    0 -0.48571353877E+02 -0.38192424045E+02 -0.45867631811E+02  0.76958932684E+02  0.10000000000E+01 0.  0.
    9000005    1    3    3    0    0  0.48571353877E+02  0.38192424045E+02 -0.24439621314E+02  0.66453989811E+02  0.10000000000E+01 0.  0.
<mgrwt>
<rscale>  0 0.12499663E+03</rscale>
<asrwt>0</asrwt>
<pdfrwt beam="2">  1        4 0.16440013E-01 0.12499663E+03</pdfrwt>
<pdfrwt beam="1">  1       -4 0.56235131E-02 0.12499663E+03</pdfrwt>
<totfact> 0.10064099E+04</totfact>
</mgrwt>
</event>
<event>
 5    1  0.3209683E-002  0.1250021E+03  0.7818608E-02  0.1235066E+00
          4   -1    0    0  501    0  0.00000000000E+00  0.00000000000E+00  0.31897256251E+02  0.31922528977E+02  0.12700000000E+01 0. -1.
         -4   -1    0    0    0  501 -0.00000000000E+00 -0.00000000000E+00 -0.12239064807E+03  0.12239723704E+03  0.12700000000E+01 0. -1.
         25    2    1    2    0    0  0.00000000000E+00  0.00000000000E+00 -0.90493391822E+02  0.15431976602E+03  0.12500214487E+03 0.  0.
    9000005    1    3    3    0    0 -0.16868152585E+02 -0.44685521880E+02 -0.94997977526E+02  0.10633412515E+03  0.10000000000E+01 0.  0.
    9000005    1    3    3    0    0  0.16868152585E+02  0.44685521880E+02  0.45045857041E+01  0.47985640870E+02  0.10000000000E+01 0.  0.
<mgrwt>
<rscale>  0 0.12500214E+03</rscale>
<asrwt>0</asrwt>
<pdfrwt beam="1">  1        4 0.49097212E-02 0.12500214E+03</pdfrwt>
<pdfrwt beam="2">  1       -4 0.18831781E-01 0.12500214E+03</pdfrwt>
<totfact> 0.98444454E+03</totfact>
</mgrwt>
</event>
<event>
 5    1  0.3209683E-002  0.1249967E+03  0.7818608E-02  0.1235074E+00
          4   -1    0    0  501    0  0.00000000000E+00  0.00000000000E+00  0.17586904194E+02  0.17632699712E+02  0.12700000000E+01 0. -1.
         -4   -1    0    0    0  501 -0.00000000000E+00 -0.00000000000E+00 -0.22176320509E+03  0.22176684159E+03  0.12700000000E+01 0. -1.
         25    2    1    2    0    0  0.00000000000E+00  0.00000000000E+00 -0.20417630089E+03  0.23939954131E+03  0.12499671408E+03 0.  0.
    9000005    1    3    3    0    0 -0.50723370528E+02 -0.10144008710E+01 -0.32210373306E+02  0.60103223503E+02  0.10000000000E+01 0.  0.
    9000005    1    3    3    0    0  0.50723370528E+02  0.10144008710E+01 -0.17196592759E+03  0.17929631780E+03  0.10000000000E+01 0.  0.
<mgrwt>
<rscale>  0 0.12499671E+03</rscale>
<asrwt>0</asrwt>
<pdfrwt beam="1">  1        4 0.27094802E-02 0.12499671E+03</pdfrwt>
<pdfrwt beam="2">  1       -4 0.34121217E-01 0.12499671E+03</pdfrwt>
<totfact> 0.83893023E+03</totfact>
</mgrwt>
</event>
<event>
 5    1  0.3209683E-002  0.1250131E+03  0.7818608E-02  0.1235049E+00
          4   -1    0    0  501    0  0.00000000000E+00  0.00000000000E+00  0.53669760374E+02  0.53684784424E+02  0.12700000000E+01 0. -1.
         -4   -1    0    0    0  501 -0.00000000000E+00 -0.00000000000E+00 -0.72767587410E+02  0.72778669110E+02  0.12700000000E+01 0. -1.
         25    2    1    2    0    0  0.00000000000E+00  0.00000000000E+00 -0.19097827036E+02  0.12646345353E+03  0.12501311164E+03 0.  0.
    9000005    1    3    3    0    0 -0.35718134855E+02 -0.50623282472E+02 -0.12335961254E+01  0.61975992491E+02  0.10000000000E+01 0.  0.
    9000005    1    3    3    0    0  0.35718134855E+02  0.50623282472E+02 -0.17864230910E+02  0.64487461043E+02  0.10000000000E+01 0.  0.
<mgrwt>
<rscale>  0 0.12501311E+03</rscale>
<asrwt>0</asrwt>
<pdfrwt beam="1">  1        4 0.82588943E-02 0.12501311E+03</pdfrwt>
<pdfrwt beam="2">  1       -4 0.11197022E-01 0.12501311E+03</pdfrwt>
<totfact> 0.10417742E+04</totfact>
</mgrwt>
</event>
<event>
 4    1  0.3209683E-002  0.1250877E+03  0.7818608E-02  0.1234932E+00
         -4   -1    0    0    0  501 -0.00000000000E+00  0.00000000000E+00  0.71550508462E+02  0.71561778634E+02  0.12700000000E+01 0. -1.
          4   -1    0    0  501    0  0.00000000000E+00 -0.00000000000E+00 -0.54647996471E+02  0.54662751653E+02  0.12700000000E+01 0. -1.
    9000005    1    1    2    0    0 -0.40619497589E+02  0.83917660216E+01  0.55677970441E+02  0.69436314086E+02  0.10000000000E+01 0.  0.
    9000005    1    1    2    0    0  0.40619497589E+02 -0.83917660216E+01 -0.38775458449E+02  0.56788216201E+02  0.10000000000E+01 0.  0.
<mgrwt>
<rscale>  0 0.12508772E+03</rscale>
<asrwt>0</asrwt>
<pdfrwt beam="2">  1        4 0.84093860E-02 0.12508772E+03</pdfrwt>
<pdfrwt beam="1">  1       -4 0.11009773E-01 0.12508772E+03</pdfrwt>
<totfact> 0.10405429E+04</totfact>
</mgrwt>
</event>
<event>
 4    1  0.3209683E-002  0.1250770E+03  0.7818608E-02  0.1234949E+00
         -4   -1    0    0    0  501 -0.00000000000E+00  0.00000000000E+00  0.54955123833E+02  0.54969796575E+02  0.12700000000E+01 0. -1.
          4   -1    0    0  501    0  0.00000000000E+00 -0.00000000000E+00 -0.71138526439E+02  0.71149861869E+02  0.12700000000E+01 0. -1.
    9000005    1    1    2    0    0 -0.59156806471E+02 -0.87899267555E+01  0.10316320816E+02  0.60697751519E+02  0.10000000000E+01 0.  0.
    9000005    1    1    2    0    0  0.59156806471E+02  0.87899267555E+01 -0.26499723422E+02  0.65421906925E+02  0.10000000000E+01 0.  0.
<mgrwt>
<rscale>  0 0.12507704E+03</rscale>
<asrwt>0</asrwt>
<pdfrwt beam="2">  1        4 0.10946389E-01 0.12507704E+03</pdfrwt>
<pdfrwt beam="1">  1       -4 0.84566351E-02 0.12507704E+03</pdfrwt>
<totfact> 0.10410227E+04</totfact>
</mgrwt>
</event>
<event>
 5    1  0.3209683E-002  0.1250016E+03  0.7818608E-02  0.1235067E+00
         -4   -1    0    0    0  501 -0.00000000000E+00  0.00000000000E+00  0.58372973546E+02  0.58386787380E+02  0.12700000000E+01 0. -1.
          4   -1    0    0  501    0  0.00000000000E+00 -0.00000000000E+00 -0.66892798264E+02  0.66904853035E+02  0.12700000000E+01 0. -1.
         25    2    1    2    0    0  0.00000000000E+00  0.00000000000E+00 -0.85198247186E+01  0.12529164041E+03  0.12500163097E+03 0.  0.
    9000005    1    3    3    0    0 -0.31934432330E+02  0.48235908137E+02  0.19434754037E+02  0.61034584184E+02  0.10000000000E+01 0.  0.
    9000005    1    3    3    0    0  0.31934432330E+02 -0.48235908137E+02 -0.27954578756E+02  0.64257056231E+02  0.10000000000E+01 0.  0.
<mgrwt>
<rscale>  0 0.12500163E+03</rscale>
<asrwt>0</asrwt>
<pdfrwt beam="2">  1        4 0.10293190E-01 0.12500163E+03</pdfrwt>
<pdfrwt beam="1">  1       -4 0.89824474E-02 0.12500163E+03</pdfrwt>
<totfact> 0.10446146E+04</totfact>
</mgrwt>
</event>
<event>
 5    1  0.3209683E-002  0.1249953E+03  0.7818608E-02  0.1235077E+00
         -4   -1    0    0    0  501 -0.00000000000E+00  0.00000000000E+00  0.13333549912E+02  0.13393896119E+02  0.12700000000E+01 0. -1.
          4   -1    0    0  501    0  0.00000000000E+00 -0.00000000000E+00 -0.29221860096E+03  0.29222136070E+03  0.12700000000E+01 0. -1.
         25    2    1    2    0    0  0.00000000000E+00  0.00000000000E+00 -0.27888505105E+03  0.30561525681E+03  0.12499525391E+03 0.  0.
    9000005    1    3    3    0    0  0.55952870929E+02 -0.26185179408E+02 -0.16245243959E+03  0.17380501292E+03  0.10000000000E+01 0.  0.
    9000005    1    3    3    0    0 -0.55952870929E+02  0.26185179408E+02 -0.11643261145E+03  0.13181024390E+03  0.10000000000E+01 0.  0.
<mgrwt>
<rscale>  0 0.12499525E+03</rscale>
<asrwt>0</asrwt>
<pdfrwt beam="2">  1        4 0.44961558E-01 0.12499525E+03</pdfrwt>
<pdfrwt beam="1">  1       -4 0.20561699E-02 0.12499525E+03</pdfrwt>
<totfact> 0.74907718E+03</totfact>
</mgrwt>
</event>
<event>
 5    1  0.3209683E-002  0.1250025E+03  0.7818608E-02  0.1235065E+00
          4   -1    0    0  501    0  0.00000000000E+00  0.00000000000E+00  0.34588807680E+02  0.34612115173E+02  0.12700000000E+01 0.  1.
         -4   -1    0    0    0  501 -0.00000000000E+00 -0.00000000000E+00 -0.11287352938E+03  0.11288067387E+03  0.12700000000E+01 0.  1.
         25    2    1    2    0    0  0.00000000000E+00  0.00000000000E+00 -0.78284721699E+02  0.14749278905E+03  0.12500250065E+03 0.  0.
    9000005    1    3    3    0    0 -0.52902776950E+02  0.30324546869E+02 -0.23001851773E+02  0.65179499361E+02  0.10000000000E+01 0.  0.
    9000005    1    3    3    0    0  0.52902776950E+02 -0.30324546869E+02 -0.55282869925E+02  0.82313289687E+02  0.10000000000E+01 0.  0.
<mgrwt>
<rscale>  0 0.12500250E+03</rscale>
<asrwt>0</asrwt>
<pdfrwt beam="1">  1        4 0.53236976E-02 0.12500250E+03</pdfrwt>
<pdfrwt beam="2">  1       -4 0.17367501E-01 0.12500250E+03</pdfrwt>
<totfact> 0.99800223E+03</totfact>
</mgrwt>
</event>
<event>
 5    1  0.3209683E-002  0.1249987E+03  0.7818608E-02  0.1235071E+00
          4   -1    0    0  501    0  0.00000000000E+00  0.00000000000E+00  0.29271253136E+02  0.29298791104E+02  0.12700000000E+01 0.  1.
         -4   -1    0    0    0  501 -0.00000000000E+00 -0.00000000000E+00 -0.13335405376E+03  0.13336010106E+03  0.12700000000E+01 0.  1.
         25    2    1    2    0    0  0.00000000000E+00  0.00000000000E+00 -0.10408280063E+03  0.16265889216E+03  0.12499874325E+03 0.  0.
    9000005    1    3    3    0    0 -0.47842806535E+02  0.21771115023E+02 -0.80615383227E+01  0.53187442001E+02  0.10000000000E+01 0.  0.
    9000005    1    3    3    0    0  0.47842806535E+02 -0.21771115023E+02 -0.96021262303E+02  0.10947145016E+03  0.10000000000E+01 0.  0.
<mgrwt>
<rscale>  0 0.12499874E+03</rscale>
<asrwt>0</asrwt>
<pdfrwt beam="1">  1        4 0.45058533E-02 0.12499874E+03</pdfrwt>
<pdfrwt beam="2">  1       -4 0.20518591E-01 0.12499874E+03</pdfrwt>
<totfact> 0.96835342E+03</totfact>
</mgrwt>
</event>
<event>
 5    1  0.3209683E-002  0.1249994E+03  0.7818608E-02  0.1235070E+00
          4   -1    0    0  501    0  0.00000000000E+00  0.00000000000E+00  0.92836118971E+01  0.93700773666E+01  0.12700000000E+01 0. -1.
         -4   -1    0    0    0  501 -0.00000000000E+00 -0.00000000000E+00 -0.41872638881E+03  0.41872831476E+03  0.12700000000E+01 0. -1.
         25    2    1    2    0    0  0.00000000000E+00  0.00000000000E+00 -0.40944277691E+03  0.42809839213E+03  0.12499938312E+03 0.  0.
    9000005    1    3    3    0    0  0.25804147233E+02  0.51418844001E+02 -0.12114915834E+03  0.13411886556E+03  0.10000000000E+01 0.  0.
    9000005    1    3    3    0    0 -0.25804147233E+02 -0.51418844001E+02 -0.28829361857E+03  0.29397952657E+03  0.10000000000E+01 0.  0.
<mgrwt>
<rscale>  0 0.12499938E+03</rscale>
<asrwt>0</asrwt>
<pdfrwt beam="1">  1        4 0.14350476E-02 0.12499938E+03</pdfrwt>
<pdfrwt beam="2">  1       -4 0.64426229E-01 0.12499938E+03</pdfrwt>
<totfact> 0.61909588E+03</totfact>
</mgrwt>
</event>
<event>
 5    1  0.3209683E-002  0.1249972E+03  0.7818608E-02  0.1235074E+00
         -4   -1    0    0    0  501 -0.00000000000E+00  0.00000000000E+00  0.35048600732E+03  0.35048830826E+03  0.12700000000E+01 0. -1.
          4   -1    0    0  501    0  0.00000000000E+00 -0.00000000000E+00 -0.11106211550E+02  0.11178588238E+02  0.12700000000E+01 0. -1.
         25    2    1    2    0    0  0.00000000000E+00  0.00000000000E+00  0.33937979577E+03  0.36166689650E+03  0.12499719295E+03 0.  0.
    9000005    1    3    3    0    0  0.31133948169E+02  0.29740308574E+02  0.38645192974E+02  0.57864147990E+02  0.10000000000E+01 0.  0.
    9000005    1    3    3    0    0 -0.31133948169E+02 -0.29740308574E+02  0.30073460280E+03  0.30380274851E+03  0.10000000000E+01 0.  0.
<mgrwt>
<rscale>  0 0.12499719E+03</rscale>
<asrwt>0</asrwt>
<pdfrwt beam="2">  1        4 0.17143924E-02 0.12499719E+03</pdfrwt>
<pdfrwt beam="1">  1       -4 0.53926666E-01 0.12499719E+03</pdfrwt>
<totfact> 0.68464091E+03</totfact>
</mgrwt>
</event>
<event>
 5    1  0.3209683E-002  0.1249970E+03  0.7818608E-02  0.1235074E+00
         -4   -1    0    0    0  501 -0.00000000000E+00  0.00000000000E+00  0.90088152216E+02  0.90097103559E+02  0.12700000000E+01 0. -1.
          4   -1    0    0  501    0  0.00000000000E+00 -0.00000000000E+00 -0.43337836238E+02  0.43356440696E+02  0.12700000000E+01 0. -1.
         25    2    1    2    0    0  0.00000000000E+00  0.00000000000E+00  0.46750315977E+02  0.13345354425E+03  0.12499702569E+03 0.  0.
    9000005    1    3    3    0    0  0.48472892466E+02  0.90808211811E+01 -0.17600796420E+02  0.52372422629E+02  0.10000000000E+01 0.  0.
    9000005    1    3    3    0    0 -0.48472892466E+02 -0.90808211811E+01  0.64351112397E+02  0.81081121626E+02  0.10000000000E+01 0.  0.
<mgrwt>
<rscale>  0 0.12499703E+03</rscale>
<asrwt>0</asrwt>
<pdfrwt beam="2">  1        4 0.66694792E-02 0.12499703E+03</pdfrwt>
<pdfrwt beam="1">  1       -4 0.13861835E-01 0.12499703E+03</pdfrwt>
<totfact> 0.10271459E+04</totfact>
</mgrwt>
</event>
<event>
 5    1  0.3209683E-002  0.1249978E+03  0.7818608E-02  0.1235073E+00
          4   -1    0    0  501    0  0.00000000000E+00  0.00000000000E+00  0.74418611425E+01  0.75494501299E+01  0.12700000000E+01 0.  1.
         -4   -1    0    0    0  501 -0.00000000000E+00 -0.00000000000E+00 -0.52100882253E+03  0.52101037039E+03  0.12700000000E+01 0.  1.
         25    2    1    2    0    0  0.00000000000E+00  0.00000000000E+00 -0.51356696139E+03  0.52855982052E+03  0.12499784014E+03 0.  0.
    9000005    1    3    3    0    0  0.45945503563E+02 -0.41065715440E+02 -0.30067346902E+03  0.30692493749E+03  0.10000000000E+01 0.  0.
    9000005    1    3    3    0    0 -0.45945503563E+02  0.41065715440E+02 -0.21289349237E+03  0.22163488303E+03  0.10000000000E+01 0.  0.
<mgrwt>
<rscale>  0 0.12499784E+03</rscale>
<asrwt>0</asrwt>
<pdfrwt beam="1">  1        4 0.11532973E-02 0.12499784E+03</pdfrwt>
<pdfrwt beam="2">  1       -4 0.80163570E-01 0.12499784E+03</pdfrwt>
<totfact> 0.53717183E+03</totfact>
</mgrwt>
</event>
<event>
 5    1  0.3209683E-002  0.1250000E+03  0.7818608E-02  0.1235069E+00
         -4   -1    0    0    0  501 -0.00000000000E+00  0.00000000000E+00  0.35470703772E+03  0.35470931128E+03  0.12700000000E+01 0. -1.
          4   -1    0    0  501    0  0.00000000000E+00 -0.00000000000E+00 -0.10973670397E+02  0.11046915497E+02  0.12700000000E+01 0. -1.
         25    2    1    2    0    0  0.00000000000E+00  0.00000000000E+00  0.34373336732E+03  0.36575622677E+03  0.12499995846E+03 0.  0.
    9000005    1    3    3    0    0  0.40489145387E+02 -0.44387842756E+02  0.12155937536E+03  0.13559990124E+03  0.10000000000E+01 0.  0.
    9000005    1    3    3    0    0 -0.40489145387E+02  0.44387842756E+02  0.22217399197E+03  0.23015632554E+03  0.10000000000E+01 0.  0.
<mgrwt>
<rscale>  0 0.12499996E+03</rscale>
<asrwt>0</asrwt>
<pdfrwt beam="2">  1        4 0.16940658E-02 0.12499996E+03</pdfrwt>
<pdfrwt beam="1">  1       -4 0.54576134E-01 0.12499996E+03</pdfrwt>
<totfact> 0.68025317E+03</totfact>
</mgrwt>
</event>
<event>
 5    1  0.3209683E-002  0.1250000E+03  0.7818608E-02  0.1235069E+00
         -4   -1    0    0    0  501 -0.00000000000E+00  0.00000000000E+00  0.76025192568E+01  0.77078660503E+01  0.12700000000E+01 0.  1.
          4   -1    0    0  501    0  0.00000000000E+00 -0.00000000000E+00 -0.51016811044E+03  0.51016969120E+03  0.12700000000E+01 0.  1.
         25    2    1    2    0    0  0.00000000000E+00  0.00000000000E+00 -0.50256559119E+03  0.51787755725E+03  0.12499996341E+03 0.  0.
    9000005    1    3    3    0    0 -0.22064111869E+02  0.33453466718E+02 -0.52621202200E+02  0.66150966652E+02  0.10000000000E+01 0.  0.
    9000005    1    3    3    0    0  0.22064111869E+02 -0.33453466718E+02 -0.44994438899E+03  0.45172659059E+03  0.10000000000E+01 0.  0.
<mgrwt>
<rscale>  0 0.12499996E+03</rscale>
<asrwt>0</asrwt>
<pdfrwt beam="2">  1        4 0.78495600E-01 0.12499996E+03</pdfrwt>
<pdfrwt beam="1">  1       -4 0.11778439E-02 0.12499996E+03</pdfrwt>
<totfact> 0.54503541E+03</totfact>
</mgrwt>
</event>
<event>
 5    1  0.3209683E-002  0.1249994E+03  0.7818608E-02  0.1235070E+00
          4   -1    0    0  501    0  0.00000000000E+00  0.00000000000E+00  0.11427284493E+03  0.11427990195E+03  0.12700000000E+01 0. -1.
         -4   -1    0    0    0  501 -0.00000000000E+00 -0.00000000000E+00 -0.34163308979E+02  0.34186906563E+02  0.12700000000E+01 0. -1.
         25    2    1    2    0    0  0.00000000000E+00  0.00000000000E+00  0.80109535954E+02  0.14846680851E+03  0.12499942191E+03 0.  0.
    9000005    1    3    3    0    0  0.71295375986E+01 -0.19956273906E+02  0.10988065268E+03  0.11190996831E+03  0.10000000000E+01 0.  0.
    9000005    1    3    3    0    0 -0.71295375986E+01  0.19956273906E+02 -0.29771116722E+02  0.36556840201E+02  0.10000000000E+01 0.  0.
<mgrwt>
<rscale>  0 0.12499942E+03</rscale>
<asrwt>0</asrwt>
<pdfrwt beam="1">  1        4 0.17582796E-01 0.12499942E+03</pdfrwt>
<pdfrwt beam="2">  1       -4 0.52582517E-02 0.12499942E+03</pdfrwt>
<totfact> 0.99611495E+03</totfact>
</mgrwt>
</event>
<event>
 5    1  0.3209683E-002  0.1250013E+03  0.7818608E-02  0.1235067E+00
         -4   -1    0    0    0  501 -0.00000000000E+00  0.00000000000E+00  0.90538977248E+02  0.90547884023E+02  0.12700000000E+01 0. -1.
          4   -1    0    0  501    0  0.00000000000E+00 -0.00000000000E+00 -0.43124888405E+02  0.43143584691E+02  0.12700000000E+01 0. -1.
         25    2    1    2    0    0  0.00000000000E+00  0.00000000000E+00  0.47414088842E+02  0.13369146871E+03  0.12500125194E+03 0.  0.
    9000005    1    3    3    0    0 -0.51048854154E+02 -0.31151229095E+02  0.43104737939E+02  0.73725185773E+02  0.10000000000E+01 0.  0.
    9000005    1    3    3    0    0  0.51048854154E+02  0.31151229095E+02  0.43093509036E+01  0.59966282941E+02  0.10000000000E+01 0.  0.
<mgrwt>
<rscale>  0 0.12500125E+03</rscale>
<asrwt>0</asrwt>
<pdfrwt beam="2">  1        4 0.66367217E-02 0.12500125E+03</pdfrwt>
<pdfrwt beam="1">  1       -4 0.13931196E-01 0.12500125E+03</pdfrwt>
<totfact> 0.10265436E+04</totfact>
</mgrwt>
</event>
<event>
 5    1  0.3209683E-002  0.1250005E+03  0.7818608E-02  0.1235069E+00
         -4   -1    0    0    0  501 -0.00000000000E+00  0.00000000000E+00  0.33939644247E+02  0.33963397233E+02  0.12700000000E+01 0. -1.
          4   -1    0    0  501    0  0.00000000000E+00 -0.00000000000E+00 -0.11502733360E+03  0.11503434433E+03  0.12700000000E+01 0. -1.
         25    2    1    2    0    0  0.00000000000E+00  0.00000000000E+00 -0.81087689351E+02  0.14899774156E+03  0.12500045450E+03 0.  0.
    9000005    1    3    3    0    0  0.25104531995E+02 -0.29972018489E+02  0.17566976339E+02  0.42873745774E+02  0.10000000000E+01 0.  0.
    9000005    1    3    3    0    0 -0.25104531995E+02  0.29972018489E+02 -0.98654665690E+02  0.10612399578E+03  0.10000000000E+01 0.  0.
<mgrwt>
<rscale>  0 0.12500045E+03</rscale>
<asrwt>0</asrwt>
<pdfrwt beam="2">  1        4 0.17698879E-01 0.12500045E+03</pdfrwt>
<pdfrwt beam="1">  1       -4 0.52238502E-02 0.12500045E+03</pdfrwt>
<totfact> 0.99502841E+03</totfact>
</mgrwt>
</event>
<event>
 5    1  0.3209683E-002  0.1250019E+03  0.7818608E-02  0.1235066E+00
          4   -1    0    0  501    0  0.00000000000E+00  0.00000000000E+00  0.42711760967E+03  0.42711949779E+03  0.12700000000E+01 0.  1.
         -4   -1    0    0    0  501 -0.00000000000E+00 -0.00000000000E+00 -0.90998764544E+01  0.91880711516E+01  0.12700000000E+01 0.  1.
         25    2    1    2    0    0  0.00000000000E+00  0.00000000000E+00  0.41801773322E+03  0.43630756894E+03  0.12500187771E+03 0.  0.
    9000005    1    3    3    0    0  0.36275153185E+02  0.39380437988E+02  0.96519033132E+02  0.11037947903E+03  0.10000000000E+01 0.  0.
    9000005    1    3    3    0    0 -0.36275153185E+02 -0.39380437988E+02  0.32149870009E+03  0.32592808991E+03  0.10000000000E+01 0.  0.
<mgrwt>
<rscale>  0 0.12500188E+03</rscale>
<asrwt>0</asrwt>
<pdfrwt beam="1">  1        4 0.65717319E-01 0.12500188E+03</pdfrwt>
<pdfrwt beam="2">  1       -4 0.14069107E-02 0.12500188E+03</pdfrwt>
<totfact> 0.61165854E+03</totfact>
</mgrwt>
</event>
<event>
 5    1  0.3209683E-002  0.1249988E+03  0.7818608E-02  0.1235071E+00
         -4   -1    0    0    0  501 -0.00000000000E+00  0.00000000000E+00  0.41453891239E+03  0.41454085780E+03  0.12700000000E+01 0. -1.
          4   -1    0    0  501    0  0.00000000000E+00 -0.00000000000E+00 -0.93781778058E+01  0.94637793168E+01  0.12700000000E+01 0. -1.
         25    2    1    2    0    0  0.00000000000E+00  0.00000000000E+00  0.40516073459E+03  0.42400463712E+03  0.12499884579E+03 0.  0.
    9000005    1    3    3    0    0 -0.55923250540E+02  0.27311097541E+02  0.22173034718E+03  0.23030122201E+03  0.10000000000E+01 0.  0.
    9000005    1    3    3    0    0  0.55923250540E+02 -0.27311097541E+02  0.18343038741E+03  0.19370341511E+03  0.10000000000E+01 0.  0.
<mgrwt>
<rscale>  0 0.12499885E+03</rscale>
<asrwt>0</asrwt>
<pdfrwt beam="2">  1        4 0.14495313E-02 0.12499885E+03</pdfrwt>
<pdfrwt beam="1">  1       -4 0.63781937E-01 0.12499885E+03</pdfrwt>
<totfact> 0.62284811E+03</totfact>
</mgrwt>
</event>
<event>
 5    1  0.3209683E-002  0.1249988E+03  0.7818608E-02  0.1235071E+00
         -4   -1    0    0    0  501 -0.00000000000E+00  0.00000000000E+00  0.48425714732E+02  0.48442365212E+02  0.12700000000E+01 0. -1.
          4   -1    0    0  501    0  0.00000000000E+00 -0.00000000000E+00 -0.80627698591E+02  0.80637700117E+02  0.12700000000E+01 0. -1.
         25    2    1    2    0    0  0.00000000000E+00  0.00000000000E+00 -0.32201983859E+02  0.12908006533E+03  0.12499878200E+03 0.  0.
    9000005    1    3    3    0    0 -0.48751582001E+02  0.24209968377E+02  0.15598766641E+02  0.56631800582E+02  0.10000000000E+01 0.  0.
    9000005    1    3    3    0    0  0.48751582001E+02 -0.24209968377E+02 -0.47800750501E+02  0.72448264747E+02  0.10000000000E+01 0.  0.
<mgrwt>
<rscale>  0 0.12499878E+03</rscale>
<asrwt>0</asrwt>
<pdfrwt beam="2">  1        4 0.12406311E-01 0.12499878E+03</pdfrwt>
<pdfrwt beam="1">  1       -4 0.74521601E-02 0.12499878E+03</pdfrwt>
<totfact> 0.10364512E+04</totfact>
</mgrwt>
</event>
<event>
 5    1  0.3209683E-002  0.1250017E+03  0.7818608E-02  0.1235067E+00
          4   -1    0    0  501    0  0.00000000000E+00  0.00000000000E+00  0.74377119801E+01  0.75453601305E+01  0.12700000000E+01 0.  1.
         -4   -1    0    0    0  501 -0.00000000000E+00 -0.00000000000E+00 -0.52132737226E+03  0.52132891918E+03  0.12700000000E+01 0.  1.
         25    2    1    2    0    0  0.00000000000E+00  0.00000000000E+00 -0.51388966028E+03  0.52887427931E+03  0.12500168146E+03 0.  0.
    9000005    1    3    3    0    0  0.52676922806E+02  0.20392714632E+02 -0.14384070237E+03  0.15453759628E+03  0.10000000000E+01 0.  0.
    9000005    1    3    3    0    0 -0.52676922806E+02 -0.20392714632E+02 -0.37004895791E+03  0.37433668303E+03  0.10000000000E+01 0.  0.
<mgrwt>
<rscale>  0 0.12500168E+03</rscale>
<asrwt>0</asrwt>
<pdfrwt beam="1">  1        4 0.11526634E-02 0.12500168E+03</pdfrwt>
<pdfrwt beam="2">  1       -4 0.80212583E-01 0.12500168E+03</pdfrwt>
<totfact> 0.53689696E+03</totfact>
</mgrwt>
</event>
<event>
 5    1  0.3209683E-002  0.1250000E+03  0.7818608E-02  0.1235069E+00
          4   -1    0    0  501    0  0.00000000000E+00  0.00000000000E+00  0.18274693827E+04  0.18274698239E+04  0.12700000000E+01 0.  1.
         -4   -1    0    0    0  501 -0.00000000000E+00 -0.00000000000E+00 -0.19483952919E+01  0.23257566970E+01  0.12700000000E+01 0.  1.
         25    2    1    2    0    0  0.00000000000E+00  0.00000000000E+00  0.18255209874E+04  0.18297955806E+04  0.12499996658E+03 0.  0.
    9000005    1    3    3    0    0 -0.43257397914E+02 -0.39701114738E+02  0.12259897461E+04  0.12273953066E+04  0.10000000000E+01 0.  0.
    9000005    1    3    3    0    0  0.43257397914E+02  0.39701114738E+02  0.59953124125E+03  0.60240027408E+03  0.10000000000E+01 0.  0.
<mgrwt>
<rscale>  0 0.12499997E+03</rscale>
<asrwt>0</asrwt>
<pdfrwt beam="1">  1        4 0.28117948E+00 0.12499997E+03</pdfrwt>
<pdfrwt beam="2">  1       -4 0.32881337E-03 0.12499997E+03</pdfrwt>
<totfact> 0.12249906E+03</totfact>
</mgrwt>
</event>
<event>
 5    1  0.3209683E-002  0.1249998E+03  0.7818608E-02  0.1235070E+00
          4   -1    0    0  501    0  0.00000000000E+00  0.00000000000E+00  0.18465344403E+02  0.18508966581E+02  0.12700000000E+01 0.  1.
         -4   -1    0    0    0  501 -0.00000000000E+00 -0.00000000000E+00 -0.21124925675E+03  0.21125307424E+03  0.12700000000E+01 0.  1.
         25    2    1    2    0    0  0.00000000000E+00  0.00000000000E+00 -0.19278391235E+03  0.22976204082E+03  0.12499983418E+03 0.  0.
    9000005    1    3    3    0    0  0.31460568297E+02 -0.19861947235E+02 -0.18868163639E+03  0.19231750887E+03  0.10000000000E+01 0.  0.
    9000005    1    3    3    0    0 -0.31460568297E+02  0.19861947235E+02 -0.41022759567E+01  0.37444531959E+02  0.10000000000E+01 0.  0.
<mgrwt>
<rscale>  0 0.12499983E+03</rscale>
<asrwt>0</asrwt>
<pdfrwt beam="1">  1        4 0.28444716E-02 0.12499983E+03</pdfrwt>
<pdfrwt beam="2">  1       -4 0.32503533E-01 0.12499983E+03</pdfrwt>
<totfact> 0.85346466E+03</totfact>
</mgrwt>
</event>
<event>
 5    1  0.3209683E-002  0.1250048E+03  0.7818608E-02  0.1235062E+00
         -4   -1    0    0    0  501 -0.00000000000E+00  0.00000000000E+00  0.14987120893E+02  0.15040834175E+02  0.12700000000E+01 0. -1.
          4   -1    0    0  501    0  0.00000000000E+00 -0.00000000000E+00 -0.26013913044E+03  0.26014223049E+03  0.12700000000E+01 0. -1.
         25    2    1    2    0    0  0.00000000000E+00  0.00000000000E+00 -0.24515200955E+03  0.27518306467E+03  0.12500484509E+03 0.  0.
    9000005    1    3    3    0    0  0.11466730470E+02  0.28492041682E+02 -0.27621028393E+01  0.30853064013E+02  0.10000000000E+01 0.  0.
    9000005    1    3    3    0    0 -0.11466730470E+02 -0.28492041682E+02 -0.24238990671E+03  0.24433000065E+03  0.10000000000E+01 0.  0.
<mgrwt>
<rscale>  0 0.12500485E+03</rscale>
<asrwt>0</asrwt>
<pdfrwt beam="2">  1        4 0.40025772E-01 0.12500485E+03</pdfrwt>
<pdfrwt beam="1">  1       -4 0.23100814E-02 0.12500485E+03</pdfrwt>
<totfact> 0.78812672E+03</totfact>
</mgrwt>
</event>
<event>
 5    1  0.3209683E-002  0.1250004E+03  0.7818608E-02  0.1235069E+00
          4   -1    0    0  501    0  0.00000000000E+00  0.00000000000E+00  0.10791251522E+03  0.10791998815E+03  0.12700000000E+01 0. -1.
         -4   -1    0    0    0  501 -0.00000000000E+00 -0.00000000000E+00 -0.36178640511E+02  0.36200924425E+02  0.12700000000E+01 0. -1.
         25    2    1    2    0    0  0.00000000000E+00  0.00000000000E+00  0.71733874711E+02  0.14412091257E+03  0.12500035464E+03 0.  0.
    9000005    1    3    3    0    0 -0.59123039759E+02  0.16473879315E+02  0.22305529837E+02  0.65310483013E+02  0.10000000000E+01 0.  0.
    9000005    1    3    3    0    0  0.59123039759E+02 -0.16473879315E+02  0.49428344874E+02  0.78810429558E+02  0.10000000000E+01 0.  0.
<mgrwt>
<rscale>  0 0.12500035E+03</rscale>
<asrwt>0</asrwt>
<pdfrwt beam="1">  1        4 0.16604214E-01 0.12500035E+03</pdfrwt>
<pdfrwt beam="2">  1       -4 0.55682337E-02 0.12500035E+03</pdfrwt>
<totfact> 0.10048800E+04</totfact>
</mgrwt>
</event>
<event>
 5    1  0.3209683E-002  0.1249990E+03  0.7818608E-02  0.1235071E+00
         -4   -1    0    0    0  501 -0.00000000000E+00  0.00000000000E+00  0.43226496453E+03  0.43226683017E+03  0.12700000000E+01 0.  1.
          4   -1    0    0  501    0  0.00000000000E+00 -0.00000000000E+00 -0.89900387670E+01  0.90793004704E+01  0.12700000000E+01 0.  1.
         25    2    1    2    0    0  0.00000000000E+00  0.00000000000E+00  0.42327492576E+03  0.44134613064E+03  0.12499897698E+03 0.  0.
    9000005    1    3    3    0    0  0.54502817081E+02  0.16964063098E+02  0.30143708448E+03  0.30679578290E+03  0.10000000000E+01 0.  0.
    9000005    1    3    3    0    0 -0.54502817081E+02 -0.16964063098E+02  0.12183784128E+03  0.13455034773E+03  0.10000000000E+01 0.  0.
<mgrwt>
<rscale>  0 0.12499898E+03</rscale>
<asrwt>0</asrwt>
<pdfrwt beam="2">  1        4 0.13900927E-02 0.12499898E+03</pdfrwt>
<pdfrwt beam="1">  1       -4 0.66509311E-01 0.12499898E+03</pdfrwt>
<totfact> 0.60722196E+03</totfact>
</mgrwt>
</event>
<event>
 5    1  0.3209683E-002  0.1249956E+03  0.7818608E-02  0.1235076E+00
          4   -1    0    0  501    0  0.00000000000E+00  0.00000000000E+00  0.12872999430E+02  0.12935494360E+02  0.12700000000E+01 0. -1.
         -4   -1    0    0    0  501 -0.00000000000E+00 -0.00000000000E+00 -0.30262534385E+03  0.30262800869E+03  0.12700000000E+01 0. -1.
         25    2    1    2    0    0  0.00000000000E+00  0.00000000000E+00 -0.28975234442E+03  0.31556350305E+03  0.12499561335E+03 0.  0.
    9000005    1    3    3    0    0  0.46748458753E+02  0.40042397674E+02 -0.11766623989E+03  0.13279742474E+03  0.10000000000E+01 0.  0.
    9000005    1    3    3    0    0 -0.46748458753E+02 -0.40042397674E+02 -0.17208610453E+03  0.18276607830E+03  0.10000000000E+01 0.  0.
<mgrwt>
<rscale>  0 0.12499561E+03</rscale>
<asrwt>0</asrwt>
<pdfrwt beam="1">  1        4 0.19854740E-02 0.12499561E+03</pdfrwt>
<pdfrwt beam="2">  1       -4 0.46562752E-01 0.12499561E+03</pdfrwt>
<totfact> 0.73694083E+03</totfact>
</mgrwt>
</event>
<event>
 5    1  0.3209683E-002  0.1249991E+03  0.7818608E-02  0.1235071E+00
         -4   -1    0    0    0  501 -0.00000000000E+00  0.00000000000E+00  0.13774741285E+02  0.13833162960E+02  0.12700000000E+01 0.  1.
          4   -1    0    0  501    0  0.00000000000E+00 -0.00000000000E+00 -0.28291677076E+03  0.28291962123E+03  0.12700000000E+01 0.  1.
         25    2    1    2    0    0  0.00000000000E+00  0.00000000000E+00 -0.26914202947E+03  0.29675278419E+03  0.12499913158E+03 0.  0.
    9000005    1    3    3    0    0  0.31812985699E+02  0.44920110520E+02 -0.64333428390E+02  0.84673918043E+02  0.10000000000E+01 0.  0.
    9000005    1    3    3    0    0 -0.31812985699E+02 -0.44920110520E+02 -0.20480860108E+03  0.21207886615E+03  0.10000000000E+01 0.  0.
<mgrwt>
<rscale>  0 0.12499913E+03</rscale>
<asrwt>0</asrwt>
<pdfrwt beam="2">  1        4 0.43530366E-01 0.12499913E+03</pdfrwt>
<pdfrwt beam="1">  1       -4 0.21239044E-02 0.12499913E+03</pdfrwt>
<totfact> 0.76009445E+03</totfact>
</mgrwt>
</event>
<event>
 5    1  0.3209683E-002  0.1249981E+03  0.7818608E-02  0.1235072E+00
         -4   -1    0    0    0  501 -0.00000000000E+00  0.00000000000E+00  0.38045336773E+02  0.38066527950E+02  0.12700000000E+01 0. -1.
          4   -1    0    0  501    0  0.00000000000E+00 -0.00000000000E+00 -0.10261672078E+03  0.10262457933E+03  0.12700000000E+01 0. -1.
         25    2    1    2    0    0  0.00000000000E+00  0.00000000000E+00 -0.64571384004E+02  0.14069110728E+03  0.12499809613E+03 0.  0.
    9000005    1    3    3    0    0 -0.13773606854E+02  0.14343040136E+02 -0.98966061466E+02  0.10094907809E+03  0.10000000000E+01 0.  0.
    9000005    1    3    3    0    0  0.13773606854E+02 -0.14343040136E+02  0.34394677462E+02  0.39742029186E+02  0.10000000000E+01 0.  0.
<mgrwt>
<rscale>  0 0.12499810E+03</rscale>
<asrwt>0</asrwt>
<pdfrwt beam="2">  1        4 0.15789422E-01 0.12499810E+03</pdfrwt>
<pdfrwt beam="1">  1       -4 0.58553634E-02 0.12499810E+03</pdfrwt>
<totfact> 0.10119716E+04</totfact>
</mgrwt>
</event>
<event>
 5    1  0.3209683E-002  0.1250009E+03  0.7818608E-02  0.1235068E+00
          4   -1    0    0  501    0  0.00000000000E+00  0.00000000000E+00  0.57677266042E+02  0.57691246460E+02  0.12700000000E+01 0. -1.
         -4   -1    0    0    0  501 -0.00000000000E+00 -0.00000000000E+00 -0.67698873061E+02  0.67710784323E+02  0.12700000000E+01 0. -1.
         25    2    1    2    0    0  0.00000000000E+00  0.00000000000E+00 -0.10021607018E+02  0.12540203078E+03  0.12500094687E+03 0.  0.
    9000005    1    3    3    0    0 -0.19356635825E+01 -0.61997528708E+02 -0.12642368029E+02  0.63310898183E+02  0.10000000000E+01 0.  0.
    9000005    1    3    3    0    0  0.19356635825E+01  0.61997528708E+02  0.26207610108E+01  0.62091132601E+02  0.10000000000E+01 0.  0.
<mgrwt>
<rscale>  0 0.12500095E+03</rscale>
<asrwt>0</asrwt>
<pdfrwt beam="1">  1        4 0.88754172E-02 0.12500095E+03</pdfrwt>
<pdfrwt beam="2">  1       -4 0.10417203E-01 0.12500095E+03</pdfrwt>
<totfact> 0.10443899E+04</totfact>
</mgrwt>
</event>
<event>
 5    1  0.3209683E-002  0.1249939E+03  0.7818608E-02  0.1235079E+00
         -4   -1    0    0    0  501 -0.00000000000E+00  0.00000000000E+00  0.26472493844E+02  0.26502940031E+02  0.12700000000E+01 0. -1.
          4   -1    0    0  501    0  0.00000000000E+00 -0.00000000000E+00 -0.14742632343E+03  0.14743179351E+03  0.12700000000E+01 0. -1.
         25    2    1    2    0    0  0.00000000000E+00  0.00000000000E+00 -0.12095382958E+03  0.17393473355E+03  0.12499385042E+03 0.  0.
    9000005    1    3    3    0    0 -0.28976547093E+02  0.26272868354E+02  0.73381187564E+01  0.39808942210E+02  0.10000000000E+01 0.  0.
    9000005    1    3    3    0    0  0.28976547093E+02 -0.26272868354E+02 -0.12829194834E+03  0.13412579134E+03  0.10000000000E+01 0.  0.
<mgrwt>
<rscale>  0 0.12499385E+03</rscale>
<asrwt>0</asrwt>
<pdfrwt beam="2">  1        4 0.22683735E-01 0.12499385E+03</pdfrwt>
<pdfrwt beam="1">  1       -4 0.40754542E-02 0.12499385E+03</pdfrwt>
<totfact> 0.94733374E+03</totfact>
</mgrwt>
</event>
<event>
 5    1  0.3209683E-002  0.1250000E+03  0.7818608E-02  0.1235069E+00
         -4   -1    0    0    0  501 -0.00000000000E+00  0.00000000000E+00  0.63773471118E+02  0.63786115405E+02  0.12700000000E+01 0.  1.
          4   -1    0    0  501    0  0.00000000000E+00 -0.00000000000E+00 -0.61226648443E+02  0.61239818578E+02  0.12700000000E+01 0.  1.
         25    2    1    2    0    0  0.00000000000E+00  0.00000000000E+00  0.25468226758E+01  0.12502593398E+03  0.12499999145E+03 0.  0.
    9000005    1    3    3    0    0 -0.44608917194E+02  0.30487665860E+01 -0.42393397796E+02  0.61623458582E+02  0.10000000000E+01 0.  0.
    9000005    1    3    3    0    0  0.44608917194E+02 -0.30487665860E+01  0.44940220472E+02  0.63402475401E+02  0.10000000000E+01 0.  0.
<mgrwt>
<rscale>  0 0.12499999E+03</rscale>
<asrwt>0</asrwt>
<pdfrwt beam="2">  1        4 0.94214701E-02 0.12499999E+03</pdfrwt>
<pdfrwt beam="1">  1       -4 0.98132889E-02 0.12499999E+03</pdfrwt>
<totfact> 0.10452301E+04</totfact>
</mgrwt>
</event>
<event>
 4    1  0.3209683E-002  0.1248006E+03  0.7818608E-02  0.1235381E+00
         -4   -1    0    0    0  501 -0.00000000000E+00  0.00000000000E+00  0.33961176261E+02  0.33984914198E+02  0.12700000000E+01 0.  1.
          4   -1    0    0  501    0  0.00000000000E+00 -0.00000000000E+00 -0.11458712809E+03  0.11459416575E+03  0.12700000000E+01 0.  1.
    9000005    1    1    2    0    0  0.26355372951E+02  0.48669405644E+02 -0.74601169623E+02  0.92895916155E+02  0.10000000000E+01 0.  0.
    9000005    1    1    2    0    0 -0.26355372951E+02 -0.48669405644E+02 -0.60247822035E+01  0.55683163790E+02  0.10000000000E+01 0.  0.
<mgrwt>
<rscale>  0 0.12480064E+03</rscale>
<asrwt>0</asrwt>
<pdfrwt beam="2">  1        4 0.17631156E-01 0.12480064E+03</pdfrwt>
<pdfrwt beam="1">  1       -4 0.52271638E-02 0.12480064E+03</pdfrwt>
<totfact> 0.10003591E+04</totfact>
</mgrwt>
</event>
<event>
 5    1  0.3209683E-002  0.1249998E+03  0.7818608E-02  0.1235070E+00
         -4   -1    0    0    0  501 -0.00000000000E+00  0.00000000000E+00  0.51391047094E+02  0.51406737121E+02  0.12700000000E+01 0.  1.
          4   -1    0    0  501    0  0.00000000000E+00 -0.00000000000E+00 -0.75977505048E+02  0.75988118633E+02  0.12700000000E+01 0.  1.
         25    2    1    2    0    0  0.00000000000E+00  0.00000000000E+00 -0.24586457954E+02  0.12739485575E+03  0.12499982143E+03 0.  0.
    9000005    1    3    3    0    0 -0.22769916645E+02  0.38149091467E+02  0.32496710302E+02  0.55053233005E+02  0.10000000000E+01 0.  0.
    9000005    1    3    3    0    0  0.22769916645E+02 -0.38149091467E+02 -0.57083168256E+02  0.72341622749E+02  0.10000000000E+01 0.  0.
<mgrwt>
<rscale>  0 0.12499982E+03</rscale>
<asrwt>0</asrwt>
<pdfrwt beam="2">  1        4 0.11690870E-01 0.12499982E+03</pdfrwt>
<pdfrwt beam="1">  1       -4 0.79083383E-02 0.12499982E+03</pdfrwt>
<totfact> 0.10400620E+04</totfact>
</mgrwt>
</event>
<event>
 5    1  0.3209683E-002  0.1249993E+03  0.7818608E-02  0.1235070E+00
         -4   -1    0    0    0  501 -0.00000000000E+00  0.00000000000E+00  0.33103262951E+02  0.33127615640E+02  0.12700000000E+01 0. -1.
          4   -1    0    0  501    0  0.00000000000E+00 -0.00000000000E+00 -0.11792954272E+03  0.11793638093E+03  0.12700000000E+01 0. -1.
         25    2    1    2    0    0  0.00000000000E+00  0.00000000000E+00 -0.84826279773E+02  0.15106399657E+03  0.12499933328E+03 0.  0.
    9000005    1    3    3    0    0  0.53357381647E+02  0.19959835928E+02 -0.11370371062E+02  0.58100693322E+02  0.10000000000E+01 0.  0.
    9000005    1    3    3    0    0 -0.53357381647E+02 -0.19959835928E+02 -0.73455908711E+02  0.92963303250E+02  0.10000000000E+01 0.  0.
<mgrwt>
<rscale>  0 0.12499933E+03</rscale>
<asrwt>0</asrwt>
<pdfrwt beam="2">  1        4 0.18145406E-01 0.12499933E+03</pdfrwt>
<pdfrwt beam="1">  1       -4 0.50952090E-02 0.12499933E+03</pdfrwt>
<totfact> 0.99093515E+03</totfact>
</mgrwt>
</event>
<event>
 5    1  0.3209683E-002  0.1249983E+03  0.7818608E-02  0.1235072E+00
          4   -1    0    0  501    0  0.00000000000E+00  0.00000000000E+00  0.10348544653E+04  0.10348552446E+04  0.12700000000E+01 0.  1.
         -4   -1    0    0    0  501 -0.00000000000E+00 -0.00000000000E+00 -0.36669528452E+01  0.38806498385E+01  0.12700000000E+01 0.  1.
         25    2    1    2    0    0  0.00000000000E+00  0.00000000000E+00  0.10311875125E+04  0.10387358945E+04  0.12499829010E+03 0.  0.
    9000005    1    3    3    0    0 -0.64886465461E+01  0.51586981697E+02  0.80367931505E+03  0.80536001928E+03  0.10000000000E+01 0.  0.
    9000005    1    3    3    0    0  0.64886465461E+01 -0.51586981697E+02  0.22750819744E+03  0.23337587518E+03  0.10000000000E+01 0.  0.
<mgrwt>
<rscale>  0 0.12499829E+03</rscale>
<asrwt>0</asrwt>
<pdfrwt beam="1">  1        4 0.15922494E+00 0.12499829E+03</pdfrwt>
<pdfrwt beam="2">  1       -4 0.58064453E-03 0.12499829E+03</pdfrwt>
<totfact> 0.29350180E+03</totfact>
</mgrwt>
</event>
<event>
 5    1  0.3209683E-002  0.1249993E+03  0.7818608E-02  0.1235070E+00
          4   -1    0    0  501    0  0.00000000000E+00  0.00000000000E+00  0.45421152002E+03  0.45421329551E+03  0.12700000000E+01 0.  1.
         -4   -1    0    0    0  501 -0.00000000000E+00 -0.00000000000E+00 -0.85512762100E+01  0.86450693935E+01  0.12700000000E+01 0.  1.
         25    2    1    2    0    0  0.00000000000E+00  0.00000000000E+00  0.44566024381E+03  0.46285836490E+03  0.12499925219E+03 0.  0.
    9000005    1    3    3    0    0  0.81761197556E+01  0.10520038831E+02  0.44890910705E+03  0.44910790078E+03  0.10000000000E+01 0.  0.
    9000005    1    3    3    0    0 -0.81761197556E+01 -0.10520038831E+02 -0.32488632400E+01  0.13750464124E+02  0.10000000000E+01 0.  0.
<mgrwt>
<rscale>  0 0.12499925E+03</rscale>
<asrwt>0</asrwt>
<pdfrwt beam="1">  1        4 0.69886058E-01 0.12499925E+03</pdfrwt>
<pdfrwt beam="2">  1       -4 0.13229322E-02 0.12499925E+03</pdfrwt>
<totfact> 0.58866801E+03</totfact>
</mgrwt>
</event>
<event>
 5    1  0.3209683E-002  0.1250002E+03  0.7818608E-02  0.1235069E+00
          4   -1    0    0  501    0  0.00000000000E+00  0.00000000000E+00  0.60381981302E+02  0.60395335631E+02  0.12700000000E+01 0.  1.
         -4   -1    0    0    0  501 -0.00000000000E+00 -0.00000000000E+00 -0.64665802487E+02  0.64678272328E+02  0.12700000000E+01 0.  1.
         25    2    1    2    0    0  0.00000000000E+00  0.00000000000E+00 -0.42838211851E+01  0.12507360796E+03  0.12500022513E+03 0.  0.
    9000005    1    3    3    0    0 -0.33764977181E+02 -0.20402849034E+02  0.46352139166E+02  0.60875863345E+02  0.10000000000E+01 0.  0.
    9000005    1    3    3    0    0  0.33764977181E+02  0.20402849034E+02 -0.50635960351E+02  0.64197744613E+02  0.10000000000E+01 0.  0.
<mgrwt>
<rscale>  0 0.12500023E+03</rscale>
<asrwt>0</asrwt>
<pdfrwt beam="1">  1        4 0.92915221E-02 0.12500023E+03</pdfrwt>
<pdfrwt beam="2">  1       -4 0.99505714E-02 0.12500023E+03</pdfrwt>
<totfact> 0.10451211E+04</totfact>
</mgrwt>
</event>
<event>
 5    1  0.3209683E-002  0.1250066E+03  0.7818608E-02  0.1235059E+00
          4   -1    0    0  501    0  0.00000000000E+00  0.00000000000E+00  0.30084649036E+02  0.30111443134E+02  0.12700000000E+01 0.  1.
         -4   -1    0    0    0  501 -0.00000000000E+00 -0.00000000000E+00 -0.12976788800E+03  0.12977410240E+03  0.12700000000E+01 0.  1.
         25    2    1    2    0    0  0.00000000000E+00  0.00000000000E+00 -0.99683238959E+02  0.15988554554E+03  0.12500655800E+03 0.  0.
    9000005    1    3    3    0    0  0.37454674157E+01 -0.48273654738E+02  0.69632633279E+00  0.48434070016E+02  0.10000000000E+01 0.  0.
    9000005    1    3    3    0    0 -0.37454674157E+01  0.48273654738E+02 -0.10037956529E+03  0.11145147552E+03  0.10000000000E+01 0.  0.
<mgrwt>
<rscale>  0 0.12500656E+03</rscale>
<asrwt>0</asrwt>
<pdfrwt beam="1">  1        4 0.46309467E-02 0.12500656E+03</pdfrwt>
<pdfrwt beam="2">  1       -4 0.19966829E-01 0.12500656E+03</pdfrwt>
<totfact> 0.97350504E+03</totfact>
</mgrwt>
</event>
<event>
 5    1  0.3209683E-002  0.1249841E+03  0.7818608E-02  0.1235094E+00
          4   -1    0    0  501    0  0.00000000000E+00  0.00000000000E+00  0.48330518034E+02  0.48347201299E+02  0.12700000000E+01 0.  1.
         -4   -1    0    0    0  501 -0.00000000000E+00 -0.00000000000E+00 -0.80767495163E+02  0.80777479380E+02  0.12700000000E+01 0.  1.
         25    2    1    2    0    0  0.00000000000E+00  0.00000000000E+00 -0.32436977129E+02  0.12912468068E+03  0.12498410169E+03 0.  0.
    9000005    1    3    3    0    0 -0.10207975376E+02  0.55910787502E+02  0.10603842367E+02  0.57824392719E+02  0.10000000000E+01 0.  0.
    9000005    1    3    3    0    0  0.10207975376E+02 -0.55910787502E+02 -0.43040819496E+02  0.71300287961E+02  0.10000000000E+01 0.  0.
<mgrwt>
<rscale>  0 0.12498410E+03</rscale>
<asrwt>0</asrwt>
<pdfrwt beam="1">  1        4 0.74375157E-02 0.12498410E+03</pdfrwt>
<pdfrwt beam="2">  1       -4 0.12427820E-01 0.12498410E+03</pdfrwt>
<totfact> 0.10366989E+04</totfact>
</mgrwt>
</event>
<event>
 5    1  0.3209683E-002  0.1250025E+03  0.7818608E-02  0.1235065E+00
          4   -1    0    0  501    0  0.00000000000E+00  0.00000000000E+00  0.21309007491E+03  0.21309385943E+03  0.12700000000E+01 0.  1.
         -4   -1    0    0    0  501 -0.00000000000E+00 -0.00000000000E+00 -0.18306231028E+02  0.18350231455E+02  0.12700000000E+01 0.  1.
         25    2    1    2    0    0  0.00000000000E+00  0.00000000000E+00  0.19478384389E+03  0.23144409088E+03  0.12500248544E+03 0.  0.
    9000005    1    3    3    0    0 -0.79705453566E+01  0.52134560576E+02  0.35321570888E+02  0.63483504706E+02  0.10000000000E+01 0.  0.
    9000005    1    3    3    0    0  0.79705453566E+01 -0.52134560576E+02  0.15946227300E+03  0.16796058618E+03  0.10000000000E+01 0.  0.
<mgrwt>
<rscale>  0 0.12500249E+03</rscale>
<asrwt>0</asrwt>
<pdfrwt beam="1">  1        4 0.32786766E-01 0.12500249E+03</pdfrwt>
<pdfrwt beam="2">  1       -4 0.28200189E-02 0.12500249E+03</pdfrwt>
<totfact> 0.85083628E+03</totfact>
</mgrwt>
</event>
<event>
 5    1  0.3209683E-002  0.1249984E+03  0.7818608E-02  0.1235072E+00
         -4   -1    0    0    0  501 -0.00000000000E+00  0.00000000000E+00  0.82770281485E+02  0.82780024143E+02  0.12700000000E+01 0. -1.
          4   -1    0    0  501    0  0.00000000000E+00 -0.00000000000E+00 -0.47171600142E+02  0.47188693137E+02  0.12700000000E+01 0. -1.
         25    2    1    2    0    0  0.00000000000E+00  0.00000000000E+00  0.35598681343E+02  0.12996871728E+03  0.12499840542E+03 0.  0.
    9000005    1    3    3    0    0  0.61147224029E+02  0.96697748028E+01  0.89361439363E+01  0.62556712027E+02  0.10000000000E+01 0.  0.
    9000005    1    3    3    0    0 -0.61147224029E+02 -0.96697748028E+01  0.26662537407E+02  0.67412005252E+02  0.10000000000E+01 0.  0.
<mgrwt>
<rscale>  0 0.12499841E+03</rscale>
<asrwt>0</asrwt>
<pdfrwt beam="2">  1        4 0.72592336E-02 0.12499841E+03</pdfrwt>
<pdfrwt beam="1">  1       -4 0.12735954E-01 0.12499841E+03</pdfrwt>
<totfact> 0.10345549E+04</totfact>
</mgrwt>
</event>
<event>
 5    1  0.3209683E-002  0.1250029E+03  0.7818608E-02  0.1235065E+00
         -4   -1    0    0    0  501 -0.00000000000E+00  0.00000000000E+00  0.10050316783E+02  0.10130240246E+02  0.12700000000E+01 0.  1.
          4   -1    0    0  501    0  0.00000000000E+00 -0.00000000000E+00 -0.38706712759E+03  0.38706921107E+03  0.12700000000E+01 0.  1.
         25    2    1    2    0    0  0.00000000000E+00  0.00000000000E+00 -0.37701681080E+03  0.39719945131E+03  0.12500291396E+03 0.  0.
    9000005    1    3    3    0    0  0.40507579529E+02 -0.35324504111E+02 -0.28982837874E+03  0.29477139229E+03  0.10000000000E+01 0.  0.
    9000005    1    3    3    0    0 -0.40507579529E+02  0.35324504111E+02 -0.87188432062E+02  0.10242805902E+03  0.10000000000E+01 0.  0.
<mgrwt>
<rscale>  0 0.12500291E+03</rscale>
<asrwt>0</asrwt>
<pdfrwt beam="2">  1        4 0.59555086E-01 0.12500291E+03</pdfrwt>
<pdfrwt beam="1">  1       -4 0.15525111E-02 0.12500291E+03</pdfrwt>
<totfact> 0.64821916E+03</totfact>
</mgrwt>
</event>
<event>
 5    1  0.3209683E-002  0.1249997E+03  0.7818608E-02  0.1235070E+00
         -4   -1    0    0    0  501 -0.00000000000E+00  0.00000000000E+00  0.18599029630E+02  0.18642338994E+02  0.12700000000E+01 0.  1.
          4   -1    0    0  501    0  0.00000000000E+00 -0.00000000000E+00 -0.20973387875E+03  0.20973772382E+03  0.12700000000E+01 0.  1.
         25    2    1    2    0    0  0.00000000000E+00  0.00000000000E+00 -0.19113484912E+03  0.22838006281E+03  0.12499969018E+03 0.  0.
    9000005    1    3    3    0    0 -0.11419590064E+02  0.31515581319E+02 -0.19192723677E+03  0.19483506645E+03  0.10000000000E+01 0.  0.
    9000005    1    3    3    0    0  0.11419590064E+02 -0.31515581319E+02  0.79238765486E+00  0.33544996368E+02  0.10000000000E+01 0.  0.
<mgrwt>
<rscale>  0 0.12499969E+03</rscale>
<asrwt>0</asrwt>
<pdfrwt beam="2">  1        4 0.32270376E-01 0.12499969E+03</pdfrwt>
<pdfrwt beam="1">  1       -4 0.28650166E-02 0.12499969E+03</pdfrwt>
<totfact> 0.85559554E+03</totfact>
</mgrwt>
</event>
<event>
 5    1  0.3209683E-002  0.1249991E+03  0.7818608E-02  0.1235071E+00
         -4   -1    0    0    0  501 -0.00000000000E+00  0.00000000000E+00  0.14697944456E+03  0.14698493128E+03  0.12700000000E+01 0. -1.
          4   -1    0    0  501    0  0.00000000000E+00 -0.00000000000E+00 -0.26555318897E+02  0.26585670233E+02  0.12700000000E+01 0. -1.
         25    2    1    2    0    0  0.00000000000E+00  0.00000000000E+00  0.12042412566E+03  0.17357060151E+03  0.12499913467E+03 0.  0.
    9000005    1    3    3    0    0  0.61608388784E+02  0.19468698336E+01  0.74495631206E+02  0.96695309812E+02  0.10000000000E+01 0.  0.
    9000005    1    3    3    0    0 -0.61608388784E+02 -0.19468698336E+01  0.45928494453E+02  0.76875291697E+02  0.10000000000E+01 0.  0.
<mgrwt>
<rscale>  0 0.12499913E+03</rscale>
<asrwt>0</asrwt>
<pdfrwt beam="2">  1        4 0.40881905E-02 0.12499913E+03</pdfrwt>
<pdfrwt beam="1">  1       -4 0.22614979E-01 0.12499913E+03</pdfrwt>
<totfact> 0.94789126E+03</totfact>
</mgrwt>
</event>
<event>
 5    1  0.3209683E-002  0.1250040E+03  0.7818608E-02  0.1235063E+00
         -4   -1    0    0    0  501 -0.00000000000E+00  0.00000000000E+00  0.66619564778E+01  0.67819292323E+01  0.12700000000E+01 0.  1.
          4   -1    0    0  501    0  0.00000000000E+00 -0.00000000000E+00 -0.58103591944E+03  0.58103730739E+03  0.12700000000E+01 0.  1.
         25    2    1    2    0    0  0.00000000000E+00  0.00000000000E+00 -0.57437396296E+03  0.58781923662E+03  0.12500402239E+03 0.  0.
    9000005    1    3    3    0    0 -0.28019810141E+02  0.54078761333E+02 -0.35300032957E+03  0.35821760825E+03  0.10000000000E+01 0.  0.
    9000005    1    3    3    0    0  0.28019810141E+02 -0.54078761333E+02 -0.22137363339E+03  0.22960162837E+03  0.10000000000E+01 0.  0.
<mgrwt>
<rscale>  0 0.12500402E+03</rscale>
<asrwt>0</asrwt>
<pdfrwt beam="2">  1        4 0.89399437E-01 0.12500402E+03</pdfrwt>
<pdfrwt beam="1">  1       -4 0.10342523E-02 0.12500402E+03</pdfrwt>
<totfact> 0.49641270E+03</totfact>
</mgrwt>
</event>
<event>
 5    1  0.3209683E-002  0.1249884E+03  0.7818608E-02  0.1235087E+00
         -4   -1    0    0    0  501 -0.00000000000E+00  0.00000000000E+00  0.52938824862E+03  0.52938977198E+03  0.12700000000E+01 0. -1.
          4   -1    0    0  501    0  0.00000000000E+00 -0.00000000000E+00 -0.73212263468E+01  0.74305622412E+01  0.12700000000E+01 0. -1.
         25    2    1    2    0    0  0.00000000000E+00  0.00000000000E+00  0.52206702227E+03  0.53682033422E+03  0.12498838141E+03 0.  0.
    9000005    1    3    3    0    0  0.16891843802E+02 -0.15738881150E+02  0.11649031669E+02  0.25879464942E+02  0.10000000000E+01 0.  0.
    9000005    1    3    3    0    0 -0.16891843802E+02  0.15738881150E+02  0.51041799060E+03  0.51094086928E+03  0.10000000000E+01 0.  0.
<mgrwt>
<rscale>  0 0.12498838E+03</rscale>
<asrwt>0</asrwt>
<pdfrwt beam="2">  1        4 0.11348697E-02 0.12498838E+03</pdfrwt>
<pdfrwt beam="1">  1       -4 0.81452904E-01 0.12498838E+03</pdfrwt>
<totfact> 0.53130150E+03</totfact>
</mgrwt>
</event>
<event>
 5    1  0.3209683E-002  0.1249968E+03  0.7818608E-02  0.1235074E+00
          4   -1    0    0  501    0  0.00000000000E+00  0.00000000000E+00  0.16172399608E+02  0.16222188789E+02  0.12700000000E+01 0. -1.
         -4   -1    0    0    0  501 -0.00000000000E+00 -0.00000000000E+00 -0.24110300256E+03  0.24110634737E+03  0.12700000000E+01 0. -1.
         25    2    1    2    0    0  0.00000000000E+00  0.00000000000E+00 -0.22493060295E+03  0.25732853616E+03  0.12499679747E+03 0.  0.
    9000005    1    3    3    0    0  0.30293649330E+02  0.23212621471E+02 -0.10596595346E+02  0.39620939138E+02  0.10000000000E+01 0.  0.
    9000005    1    3    3    0    0 -0.30293649330E+02 -0.23212621471E+02 -0.21433400761E+03  0.21770759702E+03  0.10000000000E+01 0.  0.
<mgrwt>
<rscale>  0 0.12499680E+03</rscale>
<asrwt>0</asrwt>
<pdfrwt beam="1">  1        4 0.24921489E-02 0.12499680E+03</pdfrwt>
<pdfrwt beam="2">  1       -4 0.37096854E-01 0.12499680E+03</pdfrwt>
<totfact> 0.81288227E+03</totfact>
</mgrwt>
</event>
<event>
 5    1  0.3209683E-002  0.1250013E+03  0.7818608E-02  0.1235067E+00
         -4   -1    0    0    0  501 -0.00000000000E+00  0.00000000000E+00  0.32560217245E+03  0.32560464924E+03  0.12700000000E+01 0.  1.
          4   -1    0    0  501    0  0.00000000000E+00 -0.00000000000E+00 -0.11961113807E+02  0.12028347497E+02  0.12700000000E+01 0.  1.
         25    2    1    2    0    0  0.00000000000E+00  0.00000000000E+00  0.31364105864E+03  0.33763299673E+03  0.12500130726E+03 0.  0.
    9000005    1    3    3    0    0 -0.33176840274E+02  0.41981170672E+02  0.69622231869E+02  0.87814444097E+02  0.10000000000E+01 0.  0.
    9000005    1    3    3    0    0  0.33176840274E+02 -0.41981170672E+02  0.24401882677E+03  0.24981855264E+03  0.10000000000E+01 0.  0.
<mgrwt>
<rscale>  0 0.12500131E+03</rscale>
<asrwt>0</asrwt>
<pdfrwt beam="2">  1        4 0.18455339E-02 0.12500131E+03</pdfrwt>
<pdfrwt beam="1">  1       -4 0.50098000E-01 0.12500131E+03</pdfrwt>
<totfact> 0.71104796E+03</totfact>
</mgrwt>
</event>
<event>
 5    1  0.3209683E-002  0.1249986E+03  0.7818608E-02  0.1235072E+00
         -4   -1    0    0    0  501 -0.00000000000E+00  0.00000000000E+00  0.12136157875E+03  0.12136822359E+03  0.12700000000E+01 0.  1.
          4   -1    0    0  501    0  0.00000000000E+00 -0.00000000000E+00 -0.32166076997E+02  0.32191138678E+02  0.12700000000E+01 0.  1.
         25    2    1    2    0    0  0.00000000000E+00  0.00000000000E+00  0.89195501752E+02  0.15355936226E+03  0.12499856082E+03 0.  0.
    9000005    1    3    3    0    0 -0.50346842775E+02 -0.30833676548E+02  0.69763488028E+02  0.91397289067E+02  0.10000000000E+01 0.  0.
    9000005    1    3    3    0    0  0.50346842775E+02  0.30833676548E+02  0.19432013724E+02  0.62162073198E+02  0.10000000000E+01 0.  0.
<mgrwt>
<rscale>  0 0.12499856E+03</rscale>
<asrwt>0</asrwt>
<pdfrwt beam="2">  1        4 0.49510662E-02 0.12499856E+03</pdfrwt>
<pdfrwt beam="1">  1       -4 0.18673451E-01 0.12499856E+03</pdfrwt>
<totfact> 0.98602058E+03</totfact>
</mgrwt>
</event>
<event>
 5    1  0.3209683E-002  0.1250005E+03  0.7818608E-02  0.1235069E+00
          4   -1    0    0  501    0  0.00000000000E+00  0.00000000000E+00  0.93363244528E+02  0.93371881896E+02  0.12700000000E+01 0. -1.
         -4   -1    0    0    0  501 -0.00000000000E+00 -0.00000000000E+00 -0.41819371320E+02  0.41838651002E+02  0.12700000000E+01 0. -1.
         25    2    1    2    0    0  0.00000000000E+00  0.00000000000E+00  0.51543873207E+02  0.13521053290E+03  0.12500046936E+03 0.  0.
    9000005    1    3    3    0    0 -0.37800322422E+02 -0.27328866432E+02  0.70756674345E+02  0.84753986809E+02  0.10000000000E+01 0.  0.
    9000005    1    3    3    0    0  0.37800322422E+02  0.27328866432E+02 -0.19212801138E+02  0.50456546089E+02  0.10000000000E+01 0.  0.
<mgrwt>
<rscale>  0 0.12500047E+03</rscale>
<asrwt>0</asrwt>
<pdfrwt beam="1">  1        4 0.14365723E-01 0.12500047E+03</pdfrwt>
<pdfrwt beam="2">  1       -4 0.64358970E-02 0.12500047E+03</pdfrwt>
<totfact> 0.10233527E+04</totfact>
</mgrwt>
</event>
<event>
 5    1  0.3209683E-002  0.1250027E+03  0.7818608E-02  0.1235065E+00
          4   -1    0    0  501    0  0.00000000000E+00  0.00000000000E+00  0.26661594079E+02  0.26691824569E+02  0.12700000000E+01 0. -1.
         -4   -1    0    0    0  501 -0.00000000000E+00 -0.00000000000E+00 -0.14640249739E+03  0.14640800573E+03  0.12700000000E+01 0. -1.
         25    2    1    2    0    0  0.00000000000E+00  0.00000000000E+00 -0.11974090331E+03  0.17309983030E+03  0.12500266927E+03 0.  0.
    9000005    1    3    3    0    0 -0.12046894006E+02 -0.51636158489E+02 -0.14068362873E+02  0.54866559512E+02  0.10000000000E+01 0.  0.
    9000005    1    3    3    0    0  0.12046894006E+02  0.51636158489E+02 -0.10567254044E+03  0.11823327079E+03  0.10000000000E+01 0.  0.
<mgrwt>
<rscale>  0 0.12500267E+03</rscale>
<asrwt>0</asrwt>
<pdfrwt beam="1">  1        4 0.41045329E-02 0.12500267E+03</pdfrwt>
<pdfrwt beam="2">  1       -4 0.22526210E-01 0.12500267E+03</pdfrwt>
<totfact> 0.94868327E+03</totfact>
</mgrwt>
</event>
<event>
 5    1  0.3209683E-002  0.1250025E+03  0.7818608E-02  0.1235065E+00
          4   -1    0    0  501    0  0.00000000000E+00  0.00000000000E+00  0.30055241066E+02  0.30082061358E+02  0.12700000000E+01 0.  1.
         -4   -1    0    0    0  501 -0.00000000000E+00 -0.00000000000E+00 -0.12988628989E+03  0.12989249864E+03  0.12700000000E+01 0.  1.
         25    2    1    2    0    0  0.00000000000E+00  0.00000000000E+00 -0.99831048827E+02  0.15997456000E+03  0.12500248612E+03 0.  0.
    9000005    1    3    3    0    0 -0.12139464533E+02  0.34582451431E+02  0.14862799224E+02  0.39562802567E+02  0.10000000000E+01 0.  0.
    9000005    1    3    3    0    0  0.12139464533E+02 -0.34582451431E+02 -0.11469384805E+03  0.12041175743E+03  0.10000000000E+01 0.  0.
<mgrwt>
<rscale>  0 0.12500249E+03</rscale>
<asrwt>0</asrwt>
<pdfrwt beam="1">  1        4 0.46264240E-02 0.12500249E+03</pdfrwt>
<pdfrwt beam="2">  1       -4 0.19985047E-01 0.12500249E+03</pdfrwt>
<totfact> 0.97342250E+03</totfact>
</mgrwt>
</event>
<event>
 5    1  0.3209683E-002  0.1250032E+03  0.7818608E-02  0.1235064E+00
         -4   -1    0    0    0  501 -0.00000000000E+00  0.00000000000E+00  0.16623845051E+02  0.16672286115E+02  0.12700000000E+01 0.  1.
          4   -1    0    0  501    0  0.00000000000E+00 -0.00000000000E+00 -0.23459868001E+03  0.23460211755E+03  0.12700000000E+01 0.  1.
         25    2    1    2    0    0  0.00000000000E+00  0.00000000000E+00 -0.21797483495E+03  0.25127440367E+03  0.12500318902E+03 0.  0.
    9000005    1    3    3    0    0  0.25771360865E+02  0.56754510470E+02 -0.11802453301E+03  0.13347669419E+03  0.10000000000E+01 0.  0.
    9000005    1    3    3    0    0 -0.25771360865E+02 -0.56754510470E+02 -0.99950301939E+02  0.11779770947E+03  0.10000000000E+01 0.  0.
<mgrwt>
<rscale>  0 0.12500319E+03</rscale>
<asrwt>0</asrwt>
<pdfrwt beam="2">  1        4 0.36096093E-01 0.12500319E+03</pdfrwt>
<pdfrwt beam="1">  1       -4 0.25615055E-02 0.12500319E+03</pdfrwt>
<totfact> 0.82140551E+03</totfact>
</mgrwt>
</event>
<event>
 5    1  0.3209683E-002  0.1249998E+03  0.7818608E-02  0.1235070E+00
          4   -1    0    0  501    0  0.00000000000E+00  0.00000000000E+00  0.39067524802E+03  0.39067731226E+03  0.12700000000E+01 0.  1.
         -4   -1    0    0    0  501 -0.00000000000E+00 -0.00000000000E+00 -0.99562472737E+01  0.10036919835E+02  0.12700000000E+01 0.  1.
         25    2    1    2    0    0  0.00000000000E+00  0.00000000000E+00  0.38071900074E+03  0.40071423209E+03  0.12499975310E+03 0.  0.
    9000005    1    3    3    0    0 -0.17476264199E+02 -0.42283738773E+02  0.32681553542E+03  0.33000413417E+03  0.10000000000E+01 0.  0.
    9000005    1    3    3    0    0  0.17476264199E+02  0.42283738773E+02  0.53903465322E+02  0.70710097926E+02  0.10000000000E+01 0.  0.
<mgrwt>
<rscale>  0 0.12499975E+03</rscale>
<asrwt>0</asrwt>
<pdfrwt beam="1">  1        4 0.60110254E-01 0.12499975E+03</pdfrwt>
<pdfrwt beam="2">  1       -4 0.15380946E-02 0.12499975E+03</pdfrwt>
<totfact> 0.64483730E+03</totfact>
</mgrwt>
</event>
<event>
 5    1  0.3209683E-002  0.1249974E+03  0.7818608E-02  0.1235073E+00
          4   -1    0    0  501    0  0.00000000000E+00  0.00000000000E+00  0.80551653622E+02  0.80561664589E+02  0.12700000000E+01 0. -1.
         -4   -1    0    0    0  501 -0.00000000000E+00 -0.00000000000E+00 -0.48470339622E+02  0.48486974778E+02  0.12700000000E+01 0. -1.
         25    2    1    2    0    0  0.00000000000E+00  0.00000000000E+00  0.32081314000E+02  0.12904863937E+03  0.12499736243E+03 0.  0.
    9000005    1    3    3    0    0  0.12286102034E+02 -0.12195191170E+02 -0.45950559801E+02  0.49113388571E+02  0.10000000000E+01 0.  0.
    9000005    1    3    3    0    0 -0.12286102034E+02  0.12195191170E+02  0.78031873801E+02  0.79935250796E+02  0.10000000000E+01 0.  0.
<mgrwt>
<rscale>  0 0.12499736E+03</rscale>
<asrwt>0</asrwt>
<pdfrwt beam="1">  1        4 0.12394612E-01 0.12499736E+03</pdfrwt>
<pdfrwt beam="2">  1       -4 0.74590249E-02 0.12499736E+03</pdfrwt>
<totfact> 0.10365519E+04</totfact>
</mgrwt>
</event>
<event>
 5    1  0.3209683E-002  0.1249977E+03  0.7818608E-02  0.1235073E+00
          4   -1    0    0  501    0  0.00000000000E+00  0.00000000000E+00  0.12083159277E+03  0.12083826675E+03  0.12700000000E+01 0. -1.
         -4   -1    0    0    0  501 -0.00000000000E+00 -0.00000000000E+00 -0.32306810612E+02  0.32331763205E+02  0.12700000000E+01 0. -1.
         25    2    1    2    0    0  0.00000000000E+00  0.00000000000E+00  0.88524782155E+02  0.15317002995E+03  0.12499768406E+03 0.  0.
    9000005    1    3    3    0    0  0.91355876377E+01  0.57622180757E+02  0.16825561338E+02  0.60727869969E+02  0.10000000000E+01 0.  0.
    9000005    1    3    3    0    0 -0.91355876377E+01 -0.57622180757E+02  0.71699220817E+02  0.92442159984E+02  0.10000000000E+01 0.  0.
<mgrwt>
<rscale>  0 0.12499768E+03</rscale>
<asrwt>0</asrwt>
<pdfrwt beam="1">  1        4 0.18591908E-01 0.12499768E+03</pdfrwt>
<pdfrwt beam="2">  1       -4 0.49727115E-02 0.12499768E+03</pdfrwt>
<totfact> 0.98680654E+03</totfact>
</mgrwt>
</event>
<event>
 5    1  0.3209683E-002  0.1249883E+03  0.7818608E-02  0.1235088E+00
          4   -1    0    0  501    0  0.00000000000E+00  0.00000000000E+00  0.92677560262E+02  0.92686261528E+02  0.12700000000E+01 0.  1.
         -4   -1    0    0    0  501 -0.00000000000E+00 -0.00000000000E+00 -0.42120677093E+02  0.42139818921E+02  0.12700000000E+01 0.  1.
         25    2    1    2    0    0  0.00000000000E+00  0.00000000000E+00  0.50556883169E+02  0.13482608045E+03  0.12498829359E+03 0.  0.
    9000005    1    3    3    0    0 -0.12537546791E+02 -0.28751736101E+02 -0.33018465764E+02  0.45552952591E+02  0.10000000000E+01 0.  0.
    9000005    1    3    3    0    0  0.12537546791E+02  0.28751736101E+02  0.83575348933E+02  0.89273127858E+02  0.10000000000E+01 0.  0.
<mgrwt>
<rscale>  0 0.12498829E+03</rscale>
<asrwt>0</asrwt>
<pdfrwt beam="1">  1        4 0.14260228E-01 0.12498829E+03</pdfrwt>
<pdfrwt beam="2">  1       -4 0.64822460E-02 0.12498829E+03</pdfrwt>
<totfact> 0.10244442E+04</totfact>
</mgrwt>
</event>
<event>
 5    1  0.3209683E-002  0.1250056E+03  0.7818608E-02  0.1235061E+00
         -4   -1    0    0    0  501 -0.00000000000E+00  0.00000000000E+00  0.11296616536E+03  0.11297330400E+03  0.12700000000E+01 0.  1.
          4   -1    0    0  501    0  0.00000000000E+00 -0.00000000000E+00 -0.34562118682E+02  0.34585444161E+02  0.12700000000E+01 0.  1.
         25    2    1    2    0    0  0.00000000000E+00  0.00000000000E+00  0.78404046681E+02  0.14755874816E+03  0.12500555837E+03 0.  0.
    9000005    1    3    3    0    0 -0.82307614206E+01  0.28733444007E+02 -0.25583878349E+02  0.39355953418E+02  0.10000000000E+01 0.  0.
    9000005    1    3    3    0    0  0.82307614206E+01 -0.28733444007E+02  0.10398792503E+03  0.10820279474E+03  0.10000000000E+01 0.  0.
<mgrwt>
<rscale>  0 0.12500556E+03</rscale>
<asrwt>0</asrwt>
<pdfrwt beam="2">  1        4 0.53195924E-02 0.12500556E+03</pdfrwt>
<pdfrwt beam="1">  1       -4 0.17381753E-01 0.12500556E+03</pdfrwt>
<totfact> 0.99780084E+03</totfact>
</mgrwt>
</event>
<event>
 5    1  0.3209683E-002  0.1250003E+03  0.7818608E-02  0.1235069E+00
          4   -1    0    0  501    0  0.00000000000E+00  0.00000000000E+00  0.10182713847E+03  0.10183505796E+03  0.12700000000E+01 0. -1.
         -4   -1    0    0    0  501 -0.00000000000E+00 -0.00000000000E+00 -0.38341860337E+02  0.38362887719E+02  0.12700000000E+01 0. -1.
         25    2    1    2    0    0  0.00000000000E+00  0.00000000000E+00  0.63485278135E+02  0.14019794568E+03  0.12500033373E+03 0.  0.
    9000005    1    3    3    0    0 -0.16800570385E+01  0.91401841812E+01  0.10105328112E+03  0.10148463521E+03  0.10000000000E+01 0.  0.
    9000005    1    3    3    0    0  0.16800570385E+01 -0.91401841812E+01 -0.37568002989E+02  0.38713310464E+02  0.10000000000E+01 0.  0.
<mgrwt>
<rscale>  0 0.12500033E+03</rscale>
<asrwt>0</asrwt>
<pdfrwt beam="1">  1        4 0.15667940E-01 0.12500033E+03</pdfrwt>
<pdfrwt beam="2">  1       -4 0.59009745E-02 0.12500033E+03</pdfrwt>
<totfact> 0.10129409E+04</totfact>
</mgrwt>
</event>
<event>
 5    1  0.3209683E-002  0.1250008E+03  0.7818608E-02  0.1235068E+00
          4   -1    0    0  501    0  0.00000000000E+00  0.00000000000E+00  0.54255099204E+02  0.54269961209E+02  0.12700000000E+01 0.  1.
         -4   -1    0    0    0  501 -0.00000000000E+00 -0.00000000000E+00 -0.71968401605E+02  0.71979606345E+02  0.12700000000E+01 0.  1.
         25    2    1    2    0    0  0.00000000000E+00  0.00000000000E+00 -0.17713302401E+02  0.12624956755E+03  0.12500076890E+03 0.  0.
    9000005    1    3    3    0    0  0.14169427320E+02 -0.60805510177E+02 -0.11569620944E+02  0.63505423920E+02  0.10000000000E+01 0.  0.
    9000005    1    3    3    0    0 -0.14169427320E+02  0.60805510177E+02 -0.61436814565E+01  0.62744143634E+02  0.10000000000E+01 0.  0.
<mgrwt>
<rscale>  0 0.12500077E+03</rscale>
<asrwt>0</asrwt>
<pdfrwt beam="1">  1        4 0.83489434E-02 0.12500077E+03</pdfrwt>
<pdfrwt beam="2">  1       -4 0.11074067E-01 0.12500077E+03</pdfrwt>
<totfact> 0.10425314E+04</totfact>
</mgrwt>
</event>
<event>
 5    1  0.3209683E-002  0.1250020E+03  0.7818608E-02  0.1235066E+00
         -4   -1    0    0    0  501 -0.00000000000E+00  0.00000000000E+00  0.46220847796E+02  0.46238292258E+02  0.12700000000E+01 0. -1.
          4   -1    0    0  501    0  0.00000000000E+00 -0.00000000000E+00 -0.84477209569E+02  0.84486755392E+02  0.12700000000E+01 0. -1.
         25    2    1    2    0    0  0.00000000000E+00  0.00000000000E+00 -0.38256361774E+02  0.13072504765E+03  0.12500195545E+03 0.  0.
    9000005    1    3    3    0    0  0.89926569600E+01  0.31569238752E+00  0.45544955377E+02  0.46436090502E+02  0.10000000000E+01 0.  0.
    9000005    1    3    3    0    0 -0.89926569600E+01 -0.31569238752E+00 -0.83801317150E+02  0.84288957147E+02  0.10000000000E+01 0.  0.
<mgrwt>
<rscale>  0 0.12500196E+03</rscale>
<asrwt>0</asrwt>
<pdfrwt beam="2">  1        4 0.12998570E-01 0.12500196E+03</pdfrwt>
<pdfrwt beam="1">  1       -4 0.71129759E-02 0.12500196E+03</pdfrwt>
<totfact> 0.10328532E+04</totfact>
</mgrwt>
</event>
<event>
 5    1  0.3209683E-002  0.1250092E+03  0.7818608E-02  0.1235055E+00
          4   -1    0    0  501    0  0.00000000000E+00  0.00000000000E+00  0.89921996513E+01  0.90814401154E+01  0.12700000000E+01 0. -1.
         -4   -1    0    0    0  501 -0.00000000000E+00 -0.00000000000E+00 -0.43223282602E+03  0.43223469179E+03  0.12700000000E+01 0. -1.
         25    2    1    2    0    0  0.00000000000E+00  0.00000000000E+00 -0.42324062637E+03  0.44131613191E+03  0.12500920156E+03 0.  0.
    9000005    1    3    3    0    0 -0.19400080323E+02  0.59140797066E+02 -0.23153682802E+03  0.23975883659E+03  0.10000000000E+01 0.  0.
    9000005    1    3    3    0    0  0.19400080323E+02 -0.59140797066E+02 -0.19170379835E+03  0.20155729532E+03  0.10000000000E+01 0.  0.
<mgrwt>
<rscale>  0 0.12500920E+03</rscale>
<asrwt>0</asrwt>
<pdfrwt beam="1">  1        4 0.13904238E-02 0.12500920E+03</pdfrwt>
<pdfrwt beam="2">  1       -4 0.66504350E-01 0.12500920E+03</pdfrwt>
<totfact> 0.60711172E+03</totfact>
</mgrwt>
</event>
<event>
 5    1  0.3209683E-002  0.1249979E+03  0.7818608E-02  0.1235073E+00
         -4   -1    0    0    0  501 -0.00000000000E+00  0.00000000000E+00  0.30867708138E+03  0.30867969397E+03  0.12700000000E+01 0. -1.
          4   -1    0    0  501    0  0.00000000000E+00 -0.00000000000E+00 -0.12619852440E+02  0.12683594743E+02  0.12700000000E+01 0. -1.
         25    2    1    2    0    0  0.00000000000E+00  0.00000000000E+00  0.29605722894E+03  0.32136328871E+03  0.12499792208E+03 0.  0.
    9000005    1    3    3    0    0 -0.42581296648E+02  0.38947751355E+02  0.86378029780E+02  0.10388579397E+03  0.10000000000E+01 0.  0.
    9000005    1    3    3    0    0  0.42581296648E+02 -0.38947751355E+02  0.20967919916E+03  0.21747749474E+03  0.10000000000E+01 0.  0.
<mgrwt>
<rscale>  0 0.12499792E+03</rscale>
<asrwt>0</asrwt>
<pdfrwt beam="2">  1        4 0.19466200E-02 0.12499792E+03</pdfrwt>
<pdfrwt beam="1">  1       -4 0.47493885E-01 0.12499792E+03</pdfrwt>
<totfact> 0.72997634E+03</totfact>
</mgrwt>
</event>
<event>
 5    1  0.3209683E-002  0.1249968E+03  0.7818608E-02  0.1235074E+00
          4   -1    0    0  501    0  0.00000000000E+00  0.00000000000E+00  0.41568368111E+03  0.41568562116E+03  0.12700000000E+01 0. -1.
         -4   -1    0    0    0  501 -0.00000000000E+00 -0.00000000000E+00 -0.93517984607E+01  0.94376392413E+01  0.12700000000E+01 0. -1.
         25    2    1    2    0    0  0.00000000000E+00  0.00000000000E+00  0.40633188265E+03  0.42512326040E+03  0.12499675067E+03 0.  0.
    9000005    1    3    3    0    0  0.13808733424E+02 -0.14819347479E+02  0.40422533631E+03  0.40473376026E+03  0.10000000000E+01 0.  0.
    9000005    1    3    3    0    0 -0.13808733424E+02  0.14819347479E+02  0.21065463346E+01  0.20389500140E+02  0.10000000000E+01 0.  0.
<mgrwt>
<rscale>  0 0.12499675E+03</rscale>
<asrwt>0</asrwt>
<pdfrwt beam="1">  1        4 0.63958088E-01 0.12499675E+03</pdfrwt>
<pdfrwt beam="2">  1       -4 0.14454906E-02 0.12499675E+03</pdfrwt>
<totfact> 0.62184993E+03</totfact>
</mgrwt>
</event>
<event>
 5    1  0.3209683E-002  0.1250019E+03  0.7818608E-02  0.1235066E+00
          4   -1    0    0  501    0  0.00000000000E+00  0.00000000000E+00  0.15205981625E+03  0.15206511967E+03  0.12700000000E+01 0.  1.
         -4   -1    0    0    0  501 -0.00000000000E+00 -0.00000000000E+00 -0.25668241848E+02  0.25699640845E+02  0.12700000000E+01 0.  1.
         25    2    1    2    0    0  0.00000000000E+00  0.00000000000E+00  0.12639157441E+03  0.17776476051E+03  0.12500191998E+03 0.  0.
    9000005    1    3    3    0    0 -0.31273178229E+02  0.59539654675E+01 -0.13279527215E+02  0.34508074771E+02  0.10000000000E+01 0.  0.
    9000005    1    3    3    0    0  0.31273178229E+02 -0.59539654675E+01  0.13967110162E+03  0.14325668574E+03  0.10000000000E+01 0.  0.
<mgrwt>
<rscale>  0 0.12500192E+03</rscale>
<asrwt>0</asrwt>
<pdfrwt beam="1">  1        4 0.23396641E-01 0.12500192E+03</pdfrwt>
<pdfrwt beam="2">  1       -4 0.39517836E-02 0.12500192E+03</pdfrwt>
<totfact> 0.94016859E+03</totfact>
</mgrwt>
</event>
<event>
 5    1  0.3209683E-002  0.1250016E+03  0.7818608E-02  0.1235067E+00
          4   -1    0    0  501    0  0.00000000000E+00  0.00000000000E+00  0.44363161513E+02  0.44381336161E+02  0.12700000000E+01 0.  1.
         -4   -1    0    0    0  501 -0.00000000000E+00 -0.00000000000E+00 -0.88013155473E+02  0.88022317831E+02  0.12700000000E+01 0.  1.
         25    2    1    2    0    0  0.00000000000E+00  0.00000000000E+00 -0.43649993960E+02  0.13240365399E+03  0.12500162246E+03 0.  0.
    9000005    1    3    3    0    0  0.41711065668E+02 -0.44867225548E+02 -0.87459168658E+01  0.61889999106E+02  0.10000000000E+01 0.  0.
    9000005    1    3    3    0    0 -0.41711065668E+02  0.44867225548E+02 -0.34904077094E+02  0.70513654886E+02  0.10000000000E+01 0.  0.
<mgrwt>
<rscale>  0 0.12500162E+03</rscale>
<asrwt>0</asrwt>
<pdfrwt beam="1">  1        4 0.68272046E-02 0.12500162E+03</pdfrwt>
<pdfrwt beam="2">  1       -4 0.13542588E-01 0.12500162E+03</pdfrwt>
<totfact> 0.10292713E+04</totfact>
</mgrwt>
</event>
<event>
 5    1  0.3209683E-002  0.1250047E+03  0.7818608E-02  0.1235062E+00
         -4   -1    0    0    0  501 -0.00000000000E+00  0.00000000000E+00  0.36972304288E+02  0.36994110131E+02  0.12700000000E+01 0.  1.
          4   -1    0    0  501    0  0.00000000000E+00 -0.00000000000E+00 -0.10560453533E+03  0.10561217157E+03  0.12700000000E+01 0.  1.
         25    2    1    2    0    0  0.00000000000E+00  0.00000000000E+00 -0.68632231044E+02  0.14260628170E+03  0.12500467368E+03 0.  0.
    9000005    1    3    3    0    0 -0.54259116924E+01 -0.55635280401E+02 -0.66193823082E+02  0.86644948827E+02  0.10000000000E+01 0.  0.
    9000005    1    3    3    0    0  0.54259116924E+01  0.55635280401E+02 -0.24384079615E+01  0.55961332869E+02  0.10000000000E+01 0.  0.
<mgrwt>
<rscale>  0 0.12500467E+03</rscale>
<asrwt>0</asrwt>
<pdfrwt beam="2">  1        4 0.16249116E-01 0.12500467E+03</pdfrwt>
<pdfrwt beam="1">  1       -4 0.56903116E-02 0.12500467E+03</pdfrwt>
<totfact> 0.10078791E+04</totfact>
</mgrwt>
</event>
<event>
 5    1  0.3209683E-002  0.1250003E+03  0.7818608E-02  0.1235069E+00
          4   -1    0    0  501    0  0.00000000000E+00  0.00000000000E+00  0.12375516268E+03  0.12376167901E+03  0.12700000000E+01 0.  1.
         -4   -1    0    0    0  501 -0.00000000000E+00 -0.00000000000E+00 -0.31544378566E+02  0.31569933784E+02  0.12700000000E+01 0.  1.
         25    2    1    2    0    0  0.00000000000E+00  0.00000000000E+00  0.92210784118E+02  0.15533161279E+03  0.12500032490E+03 0.  0.
    9000005    1    3    3    0    0 -0.57856235733E+02 -0.15838650364E+02  0.24330161070E+02  0.64739196753E+02  0.10000000000E+01 0.  0.
    9000005    1    3    3    0    0  0.57856235733E+02  0.15838650364E+02  0.67880623048E+02  0.90592416040E+02  0.10000000000E+01 0.  0.
<mgrwt>
<rscale>  0 0.12500032E+03</rscale>
<asrwt>0</asrwt>
<pdfrwt beam="1">  1        4 0.19041723E-01 0.12500032E+03</pdfrwt>
<pdfrwt beam="2">  1       -4 0.48554483E-02 0.12500032E+03</pdfrwt>
<totfact> 0.98249720E+03</totfact>
</mgrwt>
</event>
<event>
 5    1  0.3209683E-002  0.1249989E+03  0.7818608E-02  0.1235071E+00
          4   -1    0    0  501    0  0.00000000000E+00  0.00000000000E+00  0.47531319487E+03  0.47531489154E+03  0.12700000000E+01 0.  1.
         -4   -1    0    0    0  501 -0.00000000000E+00 -0.00000000000E+00 -0.81673315545E+01  0.82654827276E+01  0.12700000000E+01 0.  1.
         25    2    1    2    0    0  0.00000000000E+00  0.00000000000E+00  0.46714586332E+03  0.48358037427E+03  0.12499888304E+03 0.  0.
    9000005    1    3    3    0    0 -0.49601227997E+02 -0.37542839275E+02  0.25660166854E+03  0.26403629088E+03  0.10000000000E+01 0.  0.
    9000005    1    3    3    0    0  0.49601227997E+02  0.37542839275E+02  0.21054419477E+03  0.21954408339E+03  0.10000000000E+01 0.  0.
<mgrwt>
<rscale>  0 0.12499888E+03</rscale>
<asrwt>0</asrwt>
<pdfrwt beam="1">  1        4 0.73132801E-01 0.12499888E+03</pdfrwt>
<pdfrwt beam="2">  1       -4 0.12641929E-02 0.12499888E+03</pdfrwt>
<totfact> 0.57162615E+03</totfact>
</mgrwt>
</event>
<event>
 5    1  0.3209683E-002  0.1249953E+03  0.7818608E-02  0.1235077E+00
          4   -1    0    0  501    0  0.00000000000E+00  0.00000000000E+00  0.29667541441E+02  0.29694711906E+02  0.12700000000E+01 0. -1.
         -4   -1    0    0    0  501 -0.00000000000E+00 -0.00000000000E+00 -0.13156702096E+03  0.13157315040E+03  0.12700000000E+01 0. -1.
         25    2    1    2    0    0  0.00000000000E+00  0.00000000000E+00 -0.10189947952E+03  0.16126786230E+03  0.12499527785E+03 0.  0.
    9000005    1    3    3    0    0 -0.56891710409E+02  0.25311539425E+02 -0.44169892586E+02  0.76349984626E+02  0.10000000000E+01 0.  0.
    9000005    1    3    3    0    0  0.56891710409E+02 -0.25311539425E+02 -0.57729586936E+02  0.84917877676E+02  0.10000000000E+01 0.  0.
<mgrwt>
<rscale>  0 0.12499528E+03</rscale>
<asrwt>0</asrwt>
<pdfrwt beam="1">  1        4 0.45667988E-02 0.12499528E+03</pdfrwt>
<pdfrwt beam="2">  1       -4 0.20243641E-01 0.12499528E+03</pdfrwt>
<totfact> 0.97109212E+03</totfact>
</mgrwt>
</event>
<event>
 5    1  0.3209683E-002  0.1250008E+03  0.7818608E-02  0.1235068E+00
         -4   -1    0    0    0  501 -0.00000000000E+00  0.00000000000E+00  0.16552654815E+03  0.16553142011E+03  0.12700000000E+01 0. -1.
          4   -1    0    0  501    0  0.00000000000E+00 -0.00000000000E+00 -0.23576926197E+02  0.23611106474E+02  0.12700000000E+01 0. -1.
         25    2    1    2    0    0  0.00000000000E+00  0.00000000000E+00  0.14194962195E+03  0.18914252658E+03  0.12500080075E+03 0.  0.
    9000005    1    3    3    0    0  0.19646316471E+02  0.16090012466E+02  0.15737487892E+03  0.15941367183E+03  0.10000000000E+01 0.  0.
    9000005    1    3    3    0    0 -0.19646316471E+02 -0.16090012466E+02 -0.15425256968E+02  0.29728854747E+02  0.10000000000E+01 0.  0.
<mgrwt>
<rscale>  0 0.12500080E+03</rscale>
<asrwt>0</asrwt>
<pdfrwt beam="2">  1        4 0.36302234E-02 0.12500080E+03</pdfrwt>
<pdfrwt beam="1">  1       -4 0.25468627E-01 0.12500080E+03</pdfrwt>
<totfact> 0.91995076E+03</totfact>
</mgrwt>
</event>
<event>
 5    1  0.3209683E-002  0.1249949E+03  0.7818608E-02  0.1235077E+00
         -4   -1    0    0    0  501 -0.00000000000E+00  0.00000000000E+00  0.18055749135E+03  0.18056195774E+03  0.12700000000E+01 0. -1.
          4   -1    0    0  501    0  0.00000000000E+00 -0.00000000000E+00 -0.21609233787E+02  0.21646521311E+02  0.12700000000E+01 0. -1.
         25    2    1    2    0    0  0.00000000000E+00  0.00000000000E+00  0.15894825756E+03  0.20220847905E+03  0.12499488157E+03 0.  0.
    9000005    1    3    3    0    0 -0.49719537897E+02  0.35231036781E+02  0.10187093715E+03  0.11870950357E+03  0.10000000000E+01 0.  0.
    9000005    1    3    3    0    0  0.49719537897E+02 -0.35231036781E+02  0.57077320412E+02  0.83498975483E+02  0.10000000000E+01 0.  0.
<mgrwt>
<rscale>  0 0.12499488E+03</rscale>
<asrwt>0</asrwt>
<pdfrwt beam="2">  1        4 0.33277093E-02 0.12499488E+03</pdfrwt>
<pdfrwt beam="1">  1       -4 0.27781288E-01 0.12499488E+03</pdfrwt>
<totfact> 0.89774640E+03</totfact>
</mgrwt>
</event>
<event>
 5    1  0.3209683E-002  0.1250005E+03  0.7818608E-02  0.1235069E+00
          4   -1    0    0  501    0  0.00000000000E+00  0.00000000000E+00  0.42901901739E+01  0.44742185606E+01  0.12700000000E+01 0. -1.
         -4   -1    0    0    0  501 -0.00000000000E+00 -0.00000000000E+00 -0.89121139610E+03  0.89121230099E+03  0.12700000000E+01 0. -1.
         25    2    1    2    0    0  0.00000000000E+00  0.00000000000E+00 -0.88692120593E+03  0.89568651955E+03  0.12500046314E+03 0.  0.
    9000005    1    3    3    0    0  0.31578860520E+02  0.45834873813E+02 -0.23987828014E+03  0.24625322206E+03  0.10000000000E+01 0.  0.
    9000005    1    3    3    0    0 -0.31578860520E+02 -0.45834873813E+02 -0.64704292578E+03  0.64943329750E+03  0.10000000000E+01 0.  0.
<mgrwt>
<rscale>  0 0.12500046E+03</rscale>
<asrwt>0</asrwt>
<pdfrwt beam="1">  1        4 0.67425560E-03 0.12500046E+03</pdfrwt>
<pdfrwt beam="2">  1       -4 0.13712353E+00 0.12500046E+03</pdfrwt>
<totfact> 0.34325311E+03</totfact>
</mgrwt>
</event>
<event>
 5    1  0.3209683E-002  0.1250018E+03  0.7818608E-02  0.1235066E+00
          4   -1    0    0  501    0  0.00000000000E+00  0.00000000000E+00  0.62440428417E+03  0.62440557572E+03  0.12700000000E+01 0. -1.
         -4   -1    0    0    0  501 -0.00000000000E+00 -0.00000000000E+00 -0.61903820603E+01  0.63193140492E+01  0.12700000000E+01 0. -1.
         25    2    1    2    0    0  0.00000000000E+00  0.00000000000E+00  0.61821390211E+03  0.63072488977E+03  0.12500183124E+03 0.  0.
    9000005    1    3    3    0    0 -0.37765878962E+01  0.29797812065E+02  0.58561970031E+03  0.58639031848E+03  0.10000000000E+01 0.  0.
    9000005    1    3    3    0    0  0.37765878962E+01 -0.29797812065E+02  0.32594201796E+02  0.44334571281E+02  0.10000000000E+01 0.  0.
<mgrwt>
<rscale>  0 0.12500183E+03</rscale>
<asrwt>0</asrwt>
<pdfrwt beam="1">  1        4 0.96072202E-01 0.12500183E+03</pdfrwt>
<pdfrwt beam="2">  1       -4 0.96238380E-03 0.12500183E+03</pdfrwt>
<totfact> 0.46981998E+03</totfact>
</mgrwt>
</event>
<event>
 5    1  0.3209683E-002  0.1250037E+03  0.7818608E-02  0.1235063E+00
          4   -1    0    0  501    0  0.00000000000E+00  0.00000000000E+00  0.12043058389E+02  0.12109837132E+02  0.12700000000E+01 0.  1.
         -4   -1    0    0    0  501 -0.00000000000E+00 -0.00000000000E+00 -0.32341136563E+03  0.32341385919E+03  0.12700000000E+01 0.  1.
         25    2    1    2    0    0  0.00000000000E+00  0.00000000000E+00 -0.31136830724E+03  0.33552369632E+03  0.12500371211E+03 0.  0.
    9000005    1    3    3    0    0 -0.57890512138E+02 -0.23391135912E+02 -0.14856980629E+03  0.16115968471E+03  0.10000000000E+01 0.  0.
    9000005    1    3    3    0    0  0.57890512138E+02  0.23391135912E+02 -0.16279850095E+03  0.17436401161E+03  0.10000000000E+01 0.  0.
<mgrwt>
<rscale>  0 0.12500371E+03</rscale>
<asrwt>0</asrwt>
<pdfrwt beam="1">  1        4 0.18581071E-02 0.12500371E+03</pdfrwt>
<pdfrwt beam="2">  1       -4 0.49760917E-01 0.12500371E+03</pdfrwt>
<totfact> 0.71341185E+03</totfact>
</mgrwt>
</event>
<event>
 5    1  0.3209683E-002  0.1249963E+03  0.7818608E-02  0.1235075E+00
         -4   -1    0    0    0  501 -0.00000000000E+00  0.00000000000E+00  0.50748715252E+03  0.50748874162E+03  0.12700000000E+01 0. -1.
          4   -1    0    0  501    0  0.00000000000E+00 -0.00000000000E+00 -0.76427871669E+01  0.77475864421E+01  0.12700000000E+01 0. -1.
         25    2    1    2    0    0  0.00000000000E+00  0.00000000000E+00  0.49984436535E+03  0.51523632806E+03  0.12499633667E+03 0.  0.
    9000005    1    3    3    0    0  0.27557981317E+02 -0.35879387487E+02  0.42761139383E+03  0.42999915920E+03  0.10000000000E+01 0.  0.
    9000005    1    3    3    0    0 -0.27557981317E+02  0.35879387487E+02  0.72232971527E+02  0.85237168867E+02  0.10000000000E+01 0.  0.
<mgrwt>
<rscale>  0 0.12499634E+03</rscale>
<asrwt>0</asrwt>
<pdfrwt beam="2">  1        4 0.11839974E-02 0.12499634E+03</pdfrwt>
<pdfrwt beam="1">  1       -4 0.78083114E-01 0.12499634E+03</pdfrwt>
<totfact> 0.54705705E+03</totfact>
</mgrwt>
</event>
<event>
 5    1  0.3209683E-002  0.1250009E+03  0.7818608E-02  0.1235068E+00
         -4   -1    0    0    0  501 -0.00000000000E+00  0.00000000000E+00  0.11117570735E+01  0.16878696012E+01  0.12700000000E+01 0. -1.
          4   -1    0    0  501    0  0.00000000000E+00 -0.00000000000E+00 -0.27900126608E+04  0.27900129499E+04  0.12700000000E+01 0. -1.
         25    2    1    2    0    0  0.00000000000E+00  0.00000000000E+00 -0.27889009037E+04  0.27917008195E+04  0.12500085804E+03 0.  0.
    9000005    1    3    3    0    0  0.50860495637E+02 -0.29117701831E+02 -0.90992616991E+03  0.91181207782E+03  0.10000000000E+01 0.  0.
    9000005    1    3    3    0    0 -0.50860495637E+02  0.29117701831E+02 -0.18789747338E+04  0.18798887416E+04  0.10000000000E+01 0.  0.
<mgrwt>
<rscale>  0 0.12500086E+03</rscale>
<asrwt>0</asrwt>
<pdfrwt beam="2">  1        4 0.42927261E+00 0.12500086E+03</pdfrwt>
<pdfrwt beam="1">  1       -4 0.21538037E-03 0.12500086E+03</pdfrwt>
<totfact> 0.27615905E+02</totfact>
</mgrwt>
</event>
<event>
 5    1  0.3209683E-002  0.1250008E+03  0.7818608E-02  0.1235068E+00
         -4   -1    0    0    0  501 -0.00000000000E+00  0.00000000000E+00  0.16345746941E+02  0.16395009700E+02  0.12700000000E+01 0. -1.
          4   -1    0    0  501    0  0.00000000000E+00 -0.00000000000E+00 -0.23856907868E+03  0.23857245902E+03  0.12700000000E+01 0. -1.
         25    2    1    2    0    0  0.00000000000E+00  0.00000000000E+00 -0.22222333174E+03  0.25496746872E+03  0.12500080374E+03 0.  0.
    9000005    1    3    3    0    0  0.42331084606E+02 -0.26018774129E+02 -0.18841711434E+03  0.19486124886E+03  0.10000000000E+01 0.  0.
    9000005    1    3    3    0    0 -0.42331084606E+02  0.26018774129E+02 -0.33806217401E+02  0.60106219861E+02  0.10000000000E+01 0.  0.
<mgrwt>
<rscale>  0 0.12500080E+03</rscale>
<asrwt>0</asrwt>
<pdfrwt beam="2">  1        4 0.36706982E-01 0.12500080E+03</pdfrwt>
<pdfrwt beam="1">  1       -4 0.25187799E-02 0.12500080E+03</pdfrwt>
<totfact> 0.81616074E+03</totfact>
</mgrwt>
</event>
<event>
 5    1  0.3209683E-002  0.1250238E+03  0.7818608E-02  0.1235032E+00
          4   -1    0    0  501    0  0.00000000000E+00  0.00000000000E+00  0.10106848460E+02  0.10186328376E+02  0.12700000000E+01 0. -1.
         -4   -1    0    0    0  501 -0.00000000000E+00 -0.00000000000E+00 -0.38504777781E+03  0.38504987222E+03  0.12700000000E+01 0. -1.
         25    2    1    2    0    0  0.00000000000E+00  0.00000000000E+00 -0.37494092935E+03  0.39523620059E+03  0.12502381277E+03 0.  0.
    9000005    1    3    3    0    0  0.38385506378E+02 -0.49195443672E+02 -0.19891225592E+03  0.20847235868E+03  0.10000000000E+01 0.  0.
    9000005    1    3    3    0    0 -0.38385506378E+02  0.49195443672E+02 -0.17602867343E+03  0.18676384191E+03  0.10000000000E+01 0.  0.
<mgrwt>
<rscale>  0 0.12502381E+03</rscale>
<asrwt>0</asrwt>
<pdfrwt beam="1">  1        4 0.15611750E-02 0.12502381E+03</pdfrwt>
<pdfrwt beam="2">  1       -4 0.59244383E-01 0.12502381E+03</pdfrwt>
<totfact> 0.64984591E+03</totfact>
</mgrwt>
</event>
<event>
 5    1  0.3209683E-002  0.1250002E+03  0.7818608E-02  0.1235069E+00
         -4   -1    0    0    0  501 -0.00000000000E+00  0.00000000000E+00  0.15702291668E+04  0.15702296804E+04  0.12700000000E+01 0. -1.
          4   -1    0    0  501    0  0.00000000000E+00 -0.00000000000E+00 -0.23250659001E+01  0.26493077284E+01  0.12700000000E+01 0. -1.
         25    2    1    2    0    0  0.00000000000E+00  0.00000000000E+00  0.15679041009E+04  0.15728789882E+04  0.12500016655E+03 0.  0.
    9000005    1    3    3    0    0 -0.71193427835E+01 -0.59430628475E+02  0.10099479650E+04  0.10117206021E+04  0.10000000000E+01 0.  0.
    9000005    1    3    3    0    0  0.71193427835E+01  0.59430628475E+02  0.55795613590E+03  0.56115838604E+03  0.10000000000E+01 0.  0.
<mgrwt>
<rscale>  0 0.12500017E+03</rscale>
<asrwt>0</asrwt>
<pdfrwt beam="2">  1        4 0.38268295E-03 0.12500017E+03</pdfrwt>
<pdfrwt beam="1">  1       -4 0.24159913E+00 0.12500017E+03</pdfrwt>
<totfact> 0.16541369E+03</totfact>
</mgrwt>
</event>
<event>
 5    1  0.3209683E-002  0.1249990E+03  0.7818608E-02  0.1235071E+00
          4   -1    0    0  501    0  0.00000000000E+00  0.00000000000E+00  0.51240180224E+03  0.51240337610E+03  0.12700000000E+01 0.  1.
         -4   -1    0    0    0  501 -0.00000000000E+00 -0.00000000000E+00 -0.75688049173E+01  0.76746145100E+01  0.12700000000E+01 0.  1.
         25    2    1    2    0    0  0.00000000000E+00  0.00000000000E+00  0.50483299732E+03  0.52007799061E+03  0.12499904452E+03 0.  0.
    9000005    1    3    3    0    0  0.39846333318E+02 -0.25695276206E+02  0.42179212697E+03  0.42444973304E+03  0.10000000000E+01 0.  0.
    9000005    1    3    3    0    0 -0.39846333318E+02  0.25695276206E+02  0.83040870352E+02  0.95628257576E+02  0.10000000000E+01 0.  0.
<mgrwt>
<rscale>  0 0.12499904E+03</rscale>
<asrwt>0</asrwt>
<pdfrwt beam="1">  1        4 0.78839345E-01 0.12499904E+03</pdfrwt>
<pdfrwt beam="2">  1       -4 0.11726912E-02 0.12499904E+03</pdfrwt>
<totfact> 0.54340654E+03</totfact>
</mgrwt>
</event>
<event>
 5    1  0.3209683E-002  0.1249936E+03  0.7818608E-02  0.1235079E+00
          4   -1    0    0  501    0  0.00000000000E+00  0.00000000000E+00  0.19971686187E+03  0.19972089979E+03  0.12700000000E+01 0. -1.
         -4   -1    0    0    0  501 -0.00000000000E+00 -0.00000000000E+00 -0.19532071018E+02  0.19573315975E+02  0.12700000000E+01 0. -1.
         25    2    1    2    0    0  0.00000000000E+00  0.00000000000E+00  0.18018479085E+03  0.21929421577E+03  0.12499357670E+03 0.  0.
    9000005    1    3    3    0    0 -0.44028404664E+02 -0.29498401598E+02  0.32004869101E+02  0.61919041984E+02  0.10000000000E+01 0.  0.
    9000005    1    3    3    0    0  0.44028404664E+02  0.29498401598E+02  0.14817992175E+03  0.15737517378E+03  0.10000000000E+01 0.  0.
<mgrwt>
<rscale>  0 0.12499358E+03</rscale>
<asrwt>0</asrwt>
<pdfrwt beam="1">  1        4 0.30729156E-01 0.12499358E+03</pdfrwt>
<pdfrwt beam="2">  1       -4 0.30084172E-02 0.12499358E+03</pdfrwt>
<totfact> 0.86992634E+03</totfact>
</mgrwt>
</event>
<event>
 5    1  0.3209683E-002  0.1249965E+03  0.7818608E-02  0.1235075E+00
          4   -1    0    0  501    0  0.00000000000E+00  0.00000000000E+00  0.60895492113E+02  0.60908733854E+02  0.12700000000E+01 0.  1.
         -4   -1    0    0    0  501 -0.00000000000E+00 -0.00000000000E+00 -0.64116728764E+02  0.64129305371E+02  0.12700000000E+01 0.  1.
         25    2    1    2    0    0  0.00000000000E+00  0.00000000000E+00 -0.32212366506E+01  0.12503803922E+03  0.12499653950E+03 0.  0.
    9000005    1    3    3    0    0 -0.47685270892E+02  0.34973741707E+02 -0.21815989054E+02  0.63039551453E+02  0.10000000000E+01 0.  0.
    9000005    1    3    3    0    0  0.47685270892E+02 -0.34973741707E+02  0.18594752404E+02  0.61998487772E+02  0.10000000000E+01 0.  0.
<mgrwt>
<rscale>  0 0.12499654E+03</rscale>
<asrwt>0</asrwt>
<pdfrwt beam="1">  1        4 0.93705233E-02 0.12499654E+03</pdfrwt>
<pdfrwt beam="2">  1       -4 0.98660981E-02 0.12499654E+03</pdfrwt>
<totfact> 0.10452854E+04</totfact>
</mgrwt>
</event>
<event>
 5    1  0.3209683E-002  0.1250003E+03  0.7818608E-02  0.1235069E+00
         -4   -1    0    0    0  501 -0.00000000000E+00  0.00000000000E+00  0.41367760972E+02  0.41387251031E+02  0.12700000000E+01 0.  1.
          4   -1    0    0  501    0  0.00000000000E+00 -0.00000000000E+00 -0.94381888933E+02  0.94390433088E+02  0.12700000000E+01 0.  1.
         25    2    1    2    0    0  0.00000000000E+00  0.00000000000E+00 -0.53014127960E+02  0.13577768412E+03  0.12500032696E+03 0.  0.
    9000005    1    3    3    0    0 -0.57147099070E+02 -0.25283545204E+02 -0.25995450297E+02  0.67689083510E+02  0.10000000000E+01 0.  0.
    9000005    1    3    3    0    0  0.57147099070E+02  0.25283545204E+02 -0.27018677663E+02  0.68088600609E+02  0.10000000000E+01 0.  0.
<mgrwt>
<rscale>  0 0.12500033E+03</rscale>
<asrwt>0</asrwt>
<pdfrwt beam="2">  1        4 0.14522447E-01 0.12500033E+03</pdfrwt>
<pdfrwt beam="1">  1       -4 0.63664274E-02 0.12500033E+03</pdfrwt>
<totfact> 0.10221630E+04</totfact>
</mgrwt>
</event>
<event>
 5    1  0.3209683E-002  0.1249997E+03  0.7818608E-02  0.1235070E+00
         -4   -1    0    0    0  501 -0.00000000000E+00  0.00000000000E+00  0.14179110989E+03  0.14179679737E+03  0.12700000000E+01 0. -1.
          4   -1    0    0  501    0  0.00000000000E+00 -0.00000000000E+00 -0.27528307741E+02  0.27557587469E+02  0.12700000000E+01 0. -1.
         25    2    1    2    0    0  0.00000000000E+00  0.00000000000E+00  0.11426280215E+03  0.16935438484E+03  0.12499967883E+03 0.  0.
    9000005    1    3    3    0    0 -0.53618603032E+01 -0.49883657538E+02  0.66538709765E+01  0.50620182084E+02  0.10000000000E+01 0.  0.
    9000005    1    3    3    0    0  0.53618603032E+01  0.49883657538E+02  0.10760893117E+03  0.11873420275E+03  0.10000000000E+01 0.  0.
<mgrwt>
<rscale>  0 0.12499968E+03</rscale>
<asrwt>0</asrwt>
<pdfrwt beam="2">  1        4 0.42378141E-02 0.12499968E+03</pdfrwt>
<pdfrwt beam="1">  1       -4 0.21816707E-01 0.12499968E+03</pdfrwt>
<totfact> 0.95569726E+03</totfact>
</mgrwt>
</event>
<event>
 5    1  0.3209683E-002  0.1250196E+03  0.7818608E-02  0.1235039E+00
          4   -1    0    0  501    0  0.00000000000E+00  0.00000000000E+00  0.71165014520E+02  0.71176345731E+02  0.12700000000E+01 0.  1.
         -4   -1    0    0    0  501 -0.00000000000E+00 -0.00000000000E+00 -0.54884175953E+02  0.54898867657E+02  0.12700000000E+01 0.  1.
         25    2    1    2    0    0  0.00000000000E+00  0.00000000000E+00  0.16280838567E+02  0.12607521339E+03  0.12501957337E+03 0.  0.
    9000005    1    3    3    0    0 -0.37018356126E+02  0.98407623238E+01 -0.41665619795E+02  0.56605858057E+02  0.10000000000E+01 0.  0.
    9000005    1    3    3    0    0  0.37018356126E+02 -0.98407623238E+01  0.57946458362E+02  0.69469355331E+02  0.10000000000E+01 0.  0.
<mgrwt>
<rscale>  0 0.12501957E+03</rscale>
<asrwt>0</asrwt>
<pdfrwt beam="1">  1        4 0.10950466E-01 0.12501957E+03</pdfrwt>
<pdfrwt beam="2">  1       -4 0.84457212E-02 0.12501957E+03</pdfrwt>
<totfact> 0.10424704E+04</totfact>
</mgrwt>
</event>
<event>
 5    1  0.3209683E-002  0.1249980E+03  0.7818608E-02  0.1235072E+00
         -4   -1    0    0    0  501 -0.00000000000E+00  0.00000000000E+00  0.36778260781E+02  0.36800181603E+02  0.12700000000E+01 0.  1.
          4   -1    0    0  501    0  0.00000000000E+00 -0.00000000000E+00 -0.10615009413E+03  0.10615769112E+03  0.12700000000E+01 0.  1.
         25    2    1    2    0    0  0.00000000000E+00  0.00000000000E+00 -0.69371833347E+02  0.14295787272E+03  0.12499800843E+03 0.  0.
    9000005    1    3    3    0    0  0.53514750203E+02  0.32251661817E+02 -0.35900239226E+02  0.72068199338E+02  0.10000000000E+01 0.  0.
    9000005    1    3    3    0    0 -0.53514750203E+02 -0.32251661817E+02 -0.33471594121E+02  0.70889673382E+02  0.10000000000E+01 0.  0.
<mgrwt>
<rscale>  0 0.12499801E+03</rscale>
<asrwt>0</asrwt>
<pdfrwt beam="2">  1        4 0.16333054E-01 0.12499801E+03</pdfrwt>
<pdfrwt beam="1">  1       -4 0.56604646E-02 0.12499801E+03</pdfrwt>
<totfact> 0.10073098E+04</totfact>
</mgrwt>
</event>
<event>
 5    1  0.3209683E-002  0.1249970E+03  0.7818608E-02  0.1235074E+00
         -4   -1    0    0    0  501 -0.00000000000E+00  0.00000000000E+00  0.15624514753E+03  0.15625030889E+03  0.12700000000E+01 0. -1.
          4   -1    0    0  501    0  0.00000000000E+00 -0.00000000000E+00 -0.24977849290E+02  0.25010115057E+02  0.12700000000E+01 0. -1.
         25    2    1    2    0    0  0.00000000000E+00  0.00000000000E+00  0.13126729824E+03  0.18126042394E+03  0.12499695076E+03 0.  0.
    9000005    1    3    3    0    0 -0.14666133619E+02  0.12717361558E+02 -0.20501851237E+02  0.28251595787E+02  0.10000000000E+01 0.  0.
    9000005    1    3    3    0    0  0.14666133619E+02 -0.12717361558E+02  0.15176914948E+03  0.15300882816E+03  0.10000000000E+01 0.  0.
<mgrwt>
<rscale>  0 0.12499695E+03</rscale>
<asrwt>0</asrwt>
<pdfrwt beam="2">  1        4 0.38456250E-02 0.12499695E+03</pdfrwt>
<pdfrwt beam="1">  1       -4 0.24040594E-01 0.12499695E+03</pdfrwt>
<totfact> 0.93396998E+03</totfact>
</mgrwt>
</event>
<event>
 5    1  0.3209683E-002  0.1249899E+03  0.7818608E-02  0.1235085E+00
         -4   -1    0    0    0  501 -0.00000000000E+00  0.00000000000E+00  0.45654825922E+02  0.45672486575E+02  0.12700000000E+01 0. -1.
          4   -1    0    0  501    0  0.00000000000E+00 -0.00000000000E+00 -0.85507784250E+02  0.85517215035E+02  0.12700000000E+01 0. -1.
         25    2    1    2    0    0  0.00000000000E+00  0.00000000000E+00 -0.39852958328E+02  0.13118970161E+03  0.12498991768E+03 0.  0.
    9000005    1    3    3    0    0 -0.10634883745E+00 -0.46531628780E+02 -0.63701514386E+02  0.78892881314E+02  0.10000000000E+01 0.  0.
    9000005    1    3    3    0    0  0.10634883745E+00  0.46531628780E+02  0.23848556058E+02  0.52296820296E+02  0.10000000000E+01 0.  0.
<mgrwt>
<rscale>  0 0.12498992E+03</rscale>
<asrwt>0</asrwt>
<pdfrwt beam="2">  1        4 0.13157128E-01 0.12498992E+03</pdfrwt>
<pdfrwt beam="1">  1       -4 0.70259033E-02 0.12498992E+03</pdfrwt>
<totfact> 0.10321372E+04</totfact>
</mgrwt>
</event>
<event>
 5    1  0.3209683E-002  0.1250022E+03  0.7818608E-02  0.1235066E+00
          4   -1    0    0  501    0  0.00000000000E+00  0.00000000000E+00  0.19437901403E+02  0.19479345752E+02  0.12700000000E+01 0. -1.
         -4   -1    0    0    0  501 -0.00000000000E+00 -0.00000000000E+00 -0.20071005981E+03  0.20071407776E+03  0.12700000000E+01 0. -1.
         25    2    1    2    0    0  0.00000000000E+00  0.00000000000E+00 -0.18127215841E+03  0.22019342351E+03  0.12500219335E+03 0.  0.
    9000005    1    3    3    0    0  0.52065813814E+02 -0.24127200741E+02 -0.13422840912E+03  0.14598368607E+03  0.10000000000E+01 0.  0.
    9000005    1    3    3    0    0 -0.52065813814E+02  0.24127200741E+02 -0.47043749292E+02  0.74209737442E+02  0.10000000000E+01 0.  0.
<mgrwt>
<rscale>  0 0.12500219E+03</rscale>
<asrwt>0</asrwt>
<pdfrwt beam="1">  1        4 0.29939436E-02 0.12500219E+03</pdfrwt>
<pdfrwt beam="2">  1       -4 0.30881966E-01 0.12500219E+03</pdfrwt>
<totfact> 0.86833499E+03</totfact>
</mgrwt>
</event>
<event>
 5    1  0.3209683E-002  0.1249999E+03  0.7818608E-02  0.1235069E+00
         -4   -1    0    0    0  501 -0.00000000000E+00  0.00000000000E+00  0.19052662972E+03  0.19053086241E+03  0.12700000000E+01 0.  1.
          4   -1    0    0  501    0  0.00000000000E+00 -0.00000000000E+00 -0.20478229994E+02  0.20517573046E+02  0.12700000000E+01 0.  1.
         25    2    1    2    0    0  0.00000000000E+00  0.00000000000E+00  0.17004839972E+03  0.21104843546E+03  0.12499993544E+03 0.  0.
    9000005    1    3    3    0    0 -0.60171973438E+02 -0.53511865881E+01  0.11203547876E+03  0.12728805948E+03  0.10000000000E+01 0.  0.
    9000005    1    3    3    0    0  0.60171973438E+02  0.53511865881E+01  0.58012920965E+02  0.83760375979E+02  0.10000000000E+01 0.  0.
<mgrwt>
<rscale>  0 0.12499994E+03</rscale>
<asrwt>0</asrwt>
<pdfrwt beam="2">  1        4 0.31538490E-02 0.12499994E+03</pdfrwt>
<pdfrwt beam="1">  1       -4 0.29315140E-01 0.12499994E+03</pdfrwt>
<totfact> 0.88305071E+03</totfact>
</mgrwt>
</event>
<event>
 5    1  0.3209683E-002  0.1249987E+03  0.7818608E-02  0.1235071E+00
         -4   -1    0    0    0  501 -0.00000000000E+00  0.00000000000E+00  0.13720341168E+02  0.13778993496E+02  0.12700000000E+01 0. -1.
          4   -1    0    0  501    0  0.00000000000E+00 -0.00000000000E+00 -0.28403168903E+03  0.28403452831E+03  0.12700000000E+01 0. -1.
         25    2    1    2    0    0  0.00000000000E+00  0.00000000000E+00 -0.27031134786E+03  0.29781352181E+03  0.12499867595E+03 0.  0.
    9000005    1    3    3    0    0 -0.13153335773E+02 -0.51630949886E+01  0.98758386949E+01  0.17268467846E+02  0.10000000000E+01 0.  0.
    9000005    1    3    3    0    0  0.13153335773E+02  0.51630949886E+01 -0.28018718656E+03  0.28054505396E+03  0.10000000000E+01 0.  0.
<mgrwt>
<rscale>  0 0.12499868E+03</rscale>
<asrwt>0</asrwt>
<pdfrwt beam="2">  1        4 0.43701909E-01 0.12499868E+03</pdfrwt>
<pdfrwt beam="1">  1       -4 0.21155521E-02 0.12499868E+03</pdfrwt>
<totfact> 0.75876160E+03</totfact>
</mgrwt>
</event>
<event>
 5    1  0.3209683E-002  0.1250017E+03  0.7818608E-02  0.1235067E+00
          4   -1    0    0  501    0  0.00000000000E+00  0.00000000000E+00  0.20743650254E+03  0.20744039020E+03  0.12700000000E+01 0.  1.
         -4   -1    0    0    0  501 -0.00000000000E+00 -0.00000000000E+00 -0.18806101822E+02  0.18848935400E+02  0.12700000000E+01 0.  1.
         25    2    1    2    0    0  0.00000000000E+00  0.00000000000E+00  0.18863040072E+03  0.22628932560E+03  0.12500172321E+03 0.  0.
    9000005    1    3    3    0    0  0.38087734903E+02 -0.43406463903E+02  0.51073862158E+02  0.77099520455E+02  0.10000000000E+01 0.  0.
    9000005    1    3    3    0    0 -0.38087734903E+02  0.43406463903E+02  0.13755653856E+03  0.14918980515E+03  0.10000000000E+01 0.  0.
<mgrwt>
<rscale>  0 0.12500172E+03</rscale>
<asrwt>0</asrwt>
<pdfrwt beam="1">  1        4 0.31916901E-01 0.12500172E+03</pdfrwt>
<pdfrwt beam="2">  1       -4 0.28968404E-02 0.12500172E+03</pdfrwt>
<totfact> 0.85879347E+03</totfact>
</mgrwt>
</event>
<event>
 5    1  0.3209683E-002  0.1249980E+03  0.7818608E-02  0.1235072E+00
          4   -1    0    0  501    0  0.00000000000E+00  0.00000000000E+00  0.79992275467E+02  0.80002356430E+02  0.12700000000E+01 0.  1.
         -4   -1    0    0    0  501 -0.00000000000E+00 -0.00000000000E+00 -0.48809893754E+02  0.48826413223E+02  0.12700000000E+01 0.  1.
         25    2    1    2    0    0  0.00000000000E+00  0.00000000000E+00  0.31182381713E+02  0.12882876965E+03  0.12499804383E+03 0.  0.
    9000005    1    3    3    0    0 -0.23398011279E+02 -0.53127735499E+02 -0.82500555386E+01  0.58643726242E+02  0.10000000000E+01 0.  0.
    9000005    1    3    3    0    0  0.23398011279E+02  0.53127735499E+02  0.39432437251E+02  0.70185043412E+02  0.10000000000E+01 0.  0.
<mgrwt>
<rscale>  0 0.12499804E+03</rscale>
<asrwt>0</asrwt>
<pdfrwt beam="1">  1        4 0.12308550E-01 0.12499804E+03</pdfrwt>
<pdfrwt beam="2">  1       -4 0.75112607E-02 0.12499804E+03</pdfrwt>
<totfact> 0.10370086E+04</totfact>
</mgrwt>
</event>
<event>
 5    1  0.3209683E-002  0.1250003E+03  0.7818608E-02  0.1235069E+00
          4   -1    0    0  501    0  0.00000000000E+00  0.00000000000E+00  0.28977788012E+03  0.28978066310E+03  0.12700000000E+01 0.  1.
         -4   -1    0    0    0  501 -0.00000000000E+00 -0.00000000000E+00 -0.13447447918E+02  0.13507285275E+02  0.12700000000E+01 0.  1.
         25    2    1    2    0    0  0.00000000000E+00  0.00000000000E+00  0.27633043220E+03  0.30328794838E+03  0.12500028747E+03 0.  0.
    9000005    1    3    3    0    0 -0.28772568941E+02  0.16143214463E+02  0.26693751409E+03  0.26897044545E+03  0.10000000000E+01 0.  0.
    9000005    1    3    3    0    0  0.28772568941E+02 -0.16143214463E+02  0.93929181175E+01  0.34317502931E+02  0.10000000000E+01 0.  0.
<mgrwt>
<rscale>  0 0.12500029E+03</rscale>
<asrwt>0</asrwt>
<pdfrwt beam="1">  1        4 0.44586027E-01 0.12500029E+03</pdfrwt>
<pdfrwt beam="2">  1       -4 0.20736552E-02 0.12500029E+03</pdfrwt>
<totfact> 0.75187767E+03</totfact>
</mgrwt>
</event>
<event>
 5    1  0.3209683E-002  0.1250020E+03  0.7818608E-02  0.1235066E+00
         -4   -1    0    0    0  501 -0.00000000000E+00  0.00000000000E+00  0.60232781707E+02  0.60246169107E+02  0.12700000000E+01 0. -1.
          4   -1    0    0  501    0  0.00000000000E+00 -0.00000000000E+00 -0.64827856772E+02  0.64840295447E+02  0.12700000000E+01 0. -1.
         25    2    1    2    0    0  0.00000000000E+00  0.00000000000E+00 -0.45950750651E+01  0.12508646455E+03  0.12500203558E+03 0.  0.
    9000005    1    3    3    0    0  0.56771400756E+02 -0.17100842035E+02 -0.22057937746E+02  0.63269134337E+02  0.10000000000E+01 0.  0.
    9000005    1    3    3    0    0 -0.56771400756E+02  0.17100842035E+02  0.17462862680E+02  0.61817330217E+02  0.10000000000E+01 0.  0.
<mgrwt>
<rscale>  0 0.12500204E+03</rscale>
<asrwt>0</asrwt>
<pdfrwt beam="2">  1        4 0.99755030E-02 0.12500204E+03</pdfrwt>
<pdfrwt beam="1">  1       -4 0.92685685E-02 0.12500204E+03</pdfrwt>
<totfact> 0.10450504E+04</totfact>
</mgrwt>
</event>
<event>
 5    1  0.3209683E-002  0.1250000E+03  0.7818608E-02  0.1235069E+00
         -4   -1    0    0    0  501 -0.00000000000E+00  0.00000000000E+00  0.51061879939E+02  0.51077671079E+02  0.12700000000E+01 0. -1.
          4   -1    0    0  501    0  0.00000000000E+00 -0.00000000000E+00 -0.76467473105E+02  0.76478018692E+02  0.12700000000E+01 0. -1.
         25    2    1    2    0    0  0.00000000000E+00  0.00000000000E+00 -0.25405593166E+02  0.12755568977E+03  0.12500003932E+03 0.  0.
    9000005    1    3    3    0    0 -0.34820783899E+02 -0.27005120439E+02  0.32514429375E+02  0.54771814274E+02  0.10000000000E+01 0.  0.
    9000005    1    3    3    0    0  0.34820783899E+02  0.27005120439E+02 -0.57920022541E+02  0.72783875497E+02  0.10000000000E+01 0.  0.
<mgrwt>
<rscale>  0 0.12500004E+03</rscale>
<asrwt>0</asrwt>
<pdfrwt beam="2">  1        4 0.11766253E-01 0.12500004E+03</pdfrwt>
<pdfrwt beam="1">  1       -4 0.78576997E-02 0.12500004E+03</pdfrwt>
<totfact> 0.10397085E+04</totfact>
</mgrwt>
</event>
<event>
 5    1  0.3209683E-002  0.1250015E+03  0.7818608E-02  0.1235067E+00
          4   -1    0    0  501    0  0.00000000000E+00  0.00000000000E+00  0.15843697673E+02  0.15894516537E+02  0.12700000000E+01 0.  1.
         -4   -1    0    0    0  501 -0.00000000000E+00 -0.00000000000E+00 -0.24610791206E+03  0.24611118885E+03  0.12700000000E+01 0.  1.
         25    2    1    2    0    0  0.00000000000E+00  0.00000000000E+00 -0.23026421438E+03  0.26200570539E+03  0.12500152491E+03 0.  0.
    9000005    1    3    3    0    0 -0.39210341474E+02  0.22114657327E+02 -0.24278972642E+02  0.51156401942E+02  0.10000000000E+01 0.  0.
    9000005    1    3    3    0    0  0.39210341474E+02 -0.22114657327E+02 -0.20598524174E+03  0.21084930344E+03  0.10000000000E+01 0.  0.
<mgrwt>
<rscale>  0 0.12500152E+03</rscale>
<asrwt>0</asrwt>
<pdfrwt beam="1">  1        4 0.24416533E-02 0.12500152E+03</pdfrwt>
<pdfrwt beam="2">  1       -4 0.37866914E-01 0.12500152E+03</pdfrwt>
<totfact> 0.80622675E+03</totfact>
</mgrwt>
</event>
<event>
 5    1  0.3209683E-002  0.1249584E+03  0.7818608E-02  0.1235134E+00
         -4   -1    0    0    0  501 -0.00000000000E+00  0.00000000000E+00  0.49841680511E+02  0.49857858119E+02  0.12700000000E+01 0.  1.
          4   -1    0    0  501    0  0.00000000000E+00 -0.00000000000E+00 -0.78286948855E+02  0.78297249384E+02  0.12700000000E+01 0.  1.
         25    2    1    2    0    0  0.00000000000E+00  0.00000000000E+00 -0.28445268344E+02  0.12815510750E+03  0.12495838622E+03 0.  0.
    9000005    1    3    3    0    0  0.55242444904E+02 -0.84765642313E+01  0.14403234309E+02  0.57723764765E+02  0.10000000000E+01 0.  0.
    9000005    1    3    3    0    0 -0.55242444904E+02  0.84765642313E+01 -0.42848502653E+02  0.70431342737E+02  0.10000000000E+01 0.  0.
<mgrwt>
<rscale>  0 0.12495839E+03</rscale>
<asrwt>0</asrwt>
<pdfrwt beam="2">  1        4 0.12046183E-01 0.12495839E+03</pdfrwt>
<pdfrwt beam="1">  1       -4 0.76699876E-02 0.12495839E+03</pdfrwt>
<totfact> 0.10393900E+04</totfact>
</mgrwt>
</event>
<event>
 5    1  0.3209683E-002  0.1250028E+03  0.7818608E-02  0.1235065E+00
         -4   -1    0    0    0  501 -0.00000000000E+00  0.00000000000E+00  0.40606035434E+02  0.40625890928E+02  0.12700000000E+01 0. -1.
          4   -1    0    0  501    0  0.00000000000E+00 -0.00000000000E+00 -0.96155488980E+02  0.96163875551E+02  0.12700000000E+01 0. -1.
         25    2    1    2    0    0  0.00000000000E+00  0.00000000000E+00 -0.55549453546E+02  0.13678976648E+03  0.12500279367E+03 0.  0.
    9000005    1    3    3    0    0  0.20585658712E+02  0.23048584547E+02 -0.87214297515E+02  0.92532914605E+02  0.10000000000E+01 0.  0.
    9000005    1    3    3    0    0 -0.20585658712E+02 -0.23048584547E+02  0.31664843969E+02  0.44256851874E+02  0.10000000000E+01 0.  0.
<mgrwt>
<rscale>  0 0.12500279E+03</rscale>
<asrwt>0</asrwt>
<pdfrwt beam="2">  1        4 0.14795325E-01 0.12500279E+03</pdfrwt>
<pdfrwt beam="1">  1       -4 0.62492549E-02 0.12500279E+03</pdfrwt>
<totfact> 0.10199841E+04</totfact>
</mgrwt>
</event>
<event>
 5    1  0.3209683E-002  0.1250008E+03  0.7818608E-02  0.1235068E+00
         -4   -1    0    0    0  501 -0.00000000000E+00  0.00000000000E+00  0.13029085060E+03  0.13029704007E+03  0.12700000000E+01 0.  1.
          4   -1    0    0  501    0  0.00000000000E+00 -0.00000000000E+00 -0.29961012428E+02  0.29987916995E+02  0.12700000000E+01 0.  1.
         25    2    1    2    0    0  0.00000000000E+00  0.00000000000E+00  0.10032983817E+03  0.16028495706E+03  0.12500076413E+03 0.  0.
    9000005    1    3    3    0    0  0.97663254001E+01  0.61654189529E+02  0.53942196708E+02  0.82506852952E+02  0.10000000000E+01 0.  0.
    9000005    1    3    3    0    0 -0.97663254001E+01 -0.61654189529E+02  0.46387641464E+02  0.77778104110E+02  0.10000000000E+01 0.  0.
<mgrwt>
<rscale>  0 0.12500076E+03</rscale>
<asrwt>0</asrwt>
<pdfrwt beam="2">  1        4 0.46119322E-02 0.12500076E+03</pdfrwt>
<pdfrwt beam="1">  1       -4 0.20047292E-01 0.12500076E+03</pdfrwt>
<totfact> 0.97286204E+03</totfact>
</mgrwt>
</event>
<event>
 5    1  0.3209683E-002  0.1249998E+03  0.7818608E-02  0.1235070E+00
         -4   -1    0    0    0  501 -0.00000000000E+00  0.00000000000E+00  0.13455942652E+02  0.13515742401E+02  0.12700000000E+01 0.  1.
          4   -1    0    0  501    0  0.00000000000E+00 -0.00000000000E+00 -0.28959328754E+03  0.28959607229E+03  0.12700000000E+01 0.  1.
         25    2    1    2    0    0  0.00000000000E+00  0.00000000000E+00 -0.27613734488E+03  0.30311181469E+03  0.12499975587E+03 0.  0.
    9000005    1    3    3    0    0  0.15428659758E+02 -0.59866084631E+02 -0.16019288641E+03  0.17171124741E+03  0.10000000000E+01 0.  0.
    9000005    1    3    3    0    0 -0.15428659758E+02  0.59866084631E+02 -0.11594445847E+03  0.13140056728E+03  0.10000000000E+01 0.  0.
<mgrwt>
<rscale>  0 0.12499976E+03</rscale>
<asrwt>0</asrwt>
<pdfrwt beam="2">  1        4 0.44557623E-01 0.12499976E+03</pdfrwt>
<pdfrwt beam="1">  1       -4 0.20749594E-02 0.12499976E+03</pdfrwt>
<totfact> 0.75210559E+03</totfact>
</mgrwt>
</event>
<event>
 5    1  0.3209683E-002  0.1250225E+03  0.7818608E-02  0.1235034E+00
          4   -1    0    0  501    0  0.00000000000E+00  0.00000000000E+00  0.38604609456E+02  0.38625493799E+02  0.12700000000E+01 0.  1.
         -4   -1    0    0    0  501 -0.00000000000E+00 -0.00000000000E+00 -0.10117022528E+03  0.10117819618E+03  0.12700000000E+01 0.  1.
         25    2    1    2    0    0  0.00000000000E+00  0.00000000000E+00 -0.62565615824E+02  0.13980368998E+03  0.12502245978E+03 0.  0.
    9000005    1    3    3    0    0  0.10071479517E+02  0.12660475263E+01 -0.10024784026E+03  0.10076540603E+03  0.10000000000E+01 0.  0.
    9000005    1    3    3    0    0 -0.10071479517E+02 -0.12660475263E+01  0.37682224432E+02  0.39038283955E+02  0.10000000000E+01 0.  0.
<mgrwt>
<rscale>  0 0.12502246E+03</rscale>
<asrwt>0</asrwt>
<pdfrwt beam="1">  1        4 0.59413904E-02 0.12502246E+03</pdfrwt>
<pdfrwt beam="2">  1       -4 0.15566870E-01 0.12502246E+03</pdfrwt>
<totfact> 0.10132528E+04</totfact>
</mgrwt>
</event>
<event>
 5    1  0.3209683E-002  0.1249971E+03  0.7818608E-02  0.1235074E+00
         -4   -1    0    0    0  501 -0.00000000000E+00  0.00000000000E+00  0.10879514915E+04  0.10879522327E+04  0.12700000000E+01 0.  1.
          4   -1    0    0  501    0  0.00000000000E+00 -0.00000000000E+00 -0.34772192432E+01  0.37018851502E+01  0.12700000000E+01 0.  1.
         25    2    1    2    0    0  0.00000000000E+00  0.00000000000E+00  0.10844742722E+04  0.10916541179E+04  0.12499706378E+03 0.  0.
    9000005    1    3    3    0    0  0.31855391742E+02 -0.47119384725E+02  0.31616688468E+03  0.32124367911E+03  0.10000000000E+01 0.  0.
    9000005    1    3    3    0    0 -0.31855391742E+02  0.47119384725E+02  0.76830738754E+03  0.77041043876E+03  0.10000000000E+01 0.  0.
<mgrwt>
<rscale>  0 0.12499706E+03</rscale>
<asrwt>0</asrwt>
<pdfrwt beam="2">  1        4 0.55229625E-03 0.12499706E+03</pdfrwt>
<pdfrwt beam="1">  1       -4 0.16739436E+00 0.12499706E+03</pdfrwt>
<totfact> 0.27730738E+03</totfact>
</mgrwt>
</event>
<event>
 5    1  0.3209683E-002  0.1249972E+03  0.7818608E-02  0.1235074E+00
         -4   -1    0    0    0  501 -0.00000000000E+00  0.00000000000E+00  0.40120325120E+03  0.40120526128E+03  0.12700000000E+01 0. -1.
          4   -1    0    0  501    0  0.00000000000E+00 -0.00000000000E+00 -0.96924343584E+01  0.97752843331E+01  0.12700000000E+01 0. -1.
         25    2    1    2    0    0  0.00000000000E+00  0.00000000000E+00  0.39151081684E+03  0.41098054561E+03  0.12499715662E+03 0.  0.
    9000005    1    3    3    0    0  0.52897755283E+02  0.33069775986E+02  0.20774152795E+03  0.21690856376E+03  0.10000000000E+01 0.  0.
    9000005    1    3    3    0    0 -0.52897755283E+02 -0.33069775986E+02  0.18376928890E+03  0.19407198185E+03  0.10000000000E+01 0.  0.
<mgrwt>
<rscale>  0 0.12499716E+03</rscale>
<asrwt>0</asrwt>
<pdfrwt beam="2">  1        4 0.14976718E-02 0.12499716E+03</pdfrwt>
<pdfrwt beam="1">  1       -4 0.61730092E-01 0.12499716E+03</pdfrwt>
<totfact> 0.63502654E+03</totfact>
</mgrwt>
</event>
<event>
 5    1  0.3209683E-002  0.1250083E+03  0.7818608E-02  0.1235056E+00
         -4   -1    0    0    0  501 -0.00000000000E+00  0.00000000000E+00  0.61448337686E+02  0.61461460317E+02  0.12700000000E+01 0.  1.
          4   -1    0    0  501    0  0.00000000000E+00 -0.00000000000E+00 -0.63551823806E+02  0.63564512183E+02  0.12700000000E+01 0.  1.
         25    2    1    2    0    0  0.00000000000E+00  0.00000000000E+00 -0.21034861206E+01  0.12502597250E+03  0.12500827631E+03 0.  0.
    9000005    1    3    3    0    0  0.54276468926E+02 -0.30824058779E+02 -0.41682085264E+01  0.62565418891E+02  0.10000000000E+01 0.  0.
    9000005    1    3    3    0    0 -0.54276468926E+02  0.30824058779E+02  0.20647224059E+01  0.62460553610E+02  0.10000000000E+01 0.  0.
<mgrwt>
<rscale>  0 0.12500828E+03</rscale>
<asrwt>0</asrwt>
<pdfrwt beam="2">  1        4 0.97791891E-02 0.12500828E+03</pdfrwt>
<pdfrwt beam="1">  1       -4 0.94555759E-02 0.12500828E+03</pdfrwt>
<totfact> 0.10450344E+04</totfact>
</mgrwt>
</event>
<event>
 5    1  0.3209683E-002  0.1249996E+03  0.7818608E-02  0.1235070E+00
         -4   -1    0    0    0  501 -0.00000000000E+00  0.00000000000E+00  0.60861615076E+03  0.60861747581E+03  0.12700000000E+01 0.  1.
          4   -1    0    0  501    0  0.00000000000E+00 -0.00000000000E+00 -0.63540408685E+01  0.64797172283E+01  0.12700000000E+01 0.  1.
         25    2    1    2    0    0  0.00000000000E+00  0.00000000000E+00  0.60226210989E+03  0.61509719304E+03  0.12499963151E+03 0.  0.
    9000005    1    3    3    0    0 -0.22457126957E+02 -0.54047635688E+02  0.19334913975E+03  0.20201574027E+03  0.10000000000E+01 0.  0.
    9000005    1    3    3    0    0  0.22457126957E+02  0.54047635688E+02  0.40891297014E+03  0.41308145277E+03  0.10000000000E+01 0.  0.
<mgrwt>
<rscale>  0 0.12499963E+03</rscale>
<asrwt>0</asrwt>
<pdfrwt beam="2">  1        4 0.98731406E-03 0.12499963E+03</pdfrwt>
<pdfrwt beam="1">  1       -4 0.93643026E-01 0.12499963E+03</pdfrwt>
<totfact> 0.47928677E+03</totfact>
</mgrwt>
</event>
<event>
 5    1  0.3209683E-002  0.1249987E+03  0.7818608E-02  0.1235071E+00
         -4   -1    0    0    0  501 -0.00000000000E+00  0.00000000000E+00  0.14745427759E+03  0.14745974665E+03  0.12700000000E+01 0. -1.
          4   -1    0    0  501    0  0.00000000000E+00 -0.00000000000E+00 -0.26469517488E+02  0.26499967096E+02  0.12700000000E+01 0. -1.
         25    2    1    2    0    0  0.00000000000E+00  0.00000000000E+00  0.12098476011E+03  0.17395971374E+03  0.12499867930E+03 0.  0.
    9000005    1    3    3    0    0  0.44154975679E+02 -0.44156099609E+02  0.63827929395E+02  0.89299650507E+02  0.10000000000E+01 0.  0.
    9000005    1    3    3    0    0 -0.44154975679E+02  0.44156099609E+02  0.57156830711E+02  0.84660063234E+02  0.10000000000E+01 0.  0.
<mgrwt>
<rscale>  0 0.12499868E+03</rscale>
<asrwt>0</asrwt>
<pdfrwt beam="2">  1        4 0.40749965E-02 0.12499868E+03</pdfrwt>
<pdfrwt beam="1">  1       -4 0.22688036E-01 0.12499868E+03</pdfrwt>
<totfact> 0.94718519E+03</totfact>
</mgrwt>
</event>
<event>
 5    1  0.3209683E-002  0.1249976E+03  0.7818608E-02  0.1235073E+00
          4   -1    0    0  501    0  0.00000000000E+00  0.00000000000E+00  0.98631959284E+01  0.99446233675E+01  0.12700000000E+01 0. -1.
         -4   -1    0    0    0  501 -0.00000000000E+00 -0.00000000000E+00 -0.39431749699E+03  0.39431954216E+03  0.12700000000E+01 0. -1.
         25    2    1    2    0    0  0.00000000000E+00  0.00000000000E+00 -0.38445430106E+03  0.40426416553E+03  0.12499762369E+03 0.  0.
    9000005    1    3    3    0    0 -0.89748676842E+01 -0.40733636391E+01 -0.39180380232E+03  0.39192902426E+03  0.10000000000E+01 0.  0.
    9000005    1    3    3    0    0  0.89748676842E+01  0.40733636391E+01  0.73495012654E+01  0.12335141269E+02  0.10000000000E+01 0.  0.
<mgrwt>
<rscale>  0 0.12499762E+03</rscale>
<asrwt>0</asrwt>
<pdfrwt beam="1">  1        4 0.15238360E-02 0.12499762E+03</pdfrwt>
<pdfrwt beam="2">  1       -4 0.60670639E-01 0.12499762E+03</pdfrwt>
<totfact> 0.64143534E+03</totfact>
</mgrwt>
</event>
<event>
 5    1  0.3209683E-002  0.1249992E+03  0.7818608E-02  0.1235071E+00
         -4   -1    0    0    0  501 -0.00000000000E+00  0.00000000000E+00  0.25585361724E+02  0.25616862309E+02  0.12700000000E+01 0.  1.
          4   -1    0    0  501    0  0.00000000000E+00 -0.00000000000E+00 -0.15254521208E+03  0.15255049862E+03  0.12700000000E+01 0.  1.
         25    2    1    2    0    0  0.00000000000E+00  0.00000000000E+00 -0.12695985035E+03  0.17816736092E+03  0.12499921959E+03 0.  0.
    9000005    1    3    3    0    0  0.21673509372E+02  0.18764818848E+02 -0.14262641894E+03  0.14548248971E+03  0.10000000000E+01 0.  0.
    9000005    1    3    3    0    0 -0.21673509372E+02 -0.18764818848E+02  0.15666568582E+02  0.32684871210E+02  0.10000000000E+01 0.  0.
<mgrwt>
<rscale>  0 0.12499922E+03</rscale>
<asrwt>0</asrwt>
<pdfrwt beam="2">  1        4 0.23471323E-01 0.12499922E+03</pdfrwt>
<pdfrwt beam="1">  1       -4 0.39390394E-02 0.12499922E+03</pdfrwt>
<totfact> 0.93949573E+03</totfact>
</mgrwt>
</event>
<event>
 5    1  0.3209683E-002  0.1250019E+03  0.7818608E-02  0.1235066E+00
          4   -1    0    0  501    0  0.00000000000E+00  0.00000000000E+00  0.26954756699E+03  0.26955055884E+03  0.12700000000E+01 0. -1.
         -4   -1    0    0    0  501 -0.00000000000E+00 -0.00000000000E+00 -0.14461403953E+02  0.14517062523E+02  0.12700000000E+01 0. -1.
         25    2    1    2    0    0  0.00000000000E+00  0.00000000000E+00  0.25508616304E+03  0.28406762136E+03  0.12500185172E+03 0.  0.
    9000005    1    3    3    0    0 -0.43547143470E+02 -0.44495244452E+02  0.13981993289E+03  0.15305813966E+03  0.10000000000E+01 0.  0.
    9000005    1    3    3    0    0  0.43547143470E+02  0.44495244452E+02  0.11526623015E+03  0.13100948170E+03  0.10000000000E+01 0.  0.
<mgrwt>
<rscale>  0 0.12500185E+03</rscale>
<asrwt>0</asrwt>
<pdfrwt beam="1">  1        4 0.41473368E-01 0.12500185E+03</pdfrwt>
<pdfrwt beam="2">  1       -4 0.22293429E-02 0.12500185E+03</pdfrwt>
<totfact> 0.77638645E+03</totfact>
</mgrwt>
</event>
<event>
 5    1  0.3209683E-002  0.1250012E+03  0.7818608E-02  0.1235067E+00
         -4   -1    0    0    0  501 -0.00000000000E+00  0.00000000000E+00  0.23555477591E+03  0.23555819950E+03  0.12700000000E+01 0. -1.
          4   -1    0    0  501    0  0.00000000000E+00 -0.00000000000E+00 -0.16555654300E+02  0.16604294303E+02  0.12700000000E+01 0. -1.
         25    2    1    2    0    0  0.00000000000E+00  0.00000000000E+00  0.21899912161E+03  0.25216249381E+03  0.12500123206E+03 0.  0.
    9000005    1    3    3    0    0 -0.91029398419E+01 -0.40897235732E+02  0.15964751184E+02  0.44847750051E+02  0.10000000000E+01 0.  0.
    9000005    1    3    3    0    0  0.91029398419E+01  0.40897235732E+02  0.20303437043E+03  0.20731474376E+03  0.10000000000E+01 0.  0.
<mgrwt>
<rscale>  0 0.12500123E+03</rscale>
<asrwt>0</asrwt>
<pdfrwt beam="2">  1        4 0.25510287E-02 0.12500123E+03</pdfrwt>
<pdfrwt beam="1">  1       -4 0.36243201E-01 0.12500123E+03</pdfrwt>
<totfact> 0.82016430E+03</totfact>
</mgrwt>
</event>
<event>
 5    1  0.3209683E-002  0.1249979E+03  0.7818608E-02  0.1235073E+00
         -4   -1    0    0    0  501 -0.00000000000E+00  0.00000000000E+00  0.42686190866E+01  0.44535389194E+01  0.12700000000E+01 0.  1.
          4   -1    0    0  501    0  0.00000000000E+00 -0.00000000000E+00 -0.89549136425E+03  0.89549226481E+03  0.12700000000E+01 0.  1.
         25    2    1    2    0    0  0.00000000000E+00  0.00000000000E+00 -0.89122274516E+03  0.89994580373E+03  0.12499787264E+03 0.  0.
    9000005    1    3    3    0    0  0.36507047143E+02 -0.45287749475E+02 -0.28121671101E+03  0.28717169654E+03  0.10000000000E+01 0.  0.
    9000005    1    3    3    0    0 -0.36507047143E+02  0.45287749475E+02 -0.61000603415E+03  0.61277410719E+03  0.10000000000E+01 0.  0.
<mgrwt>
<rscale>  0 0.12499787E+03</rscale>
<asrwt>0</asrwt>
<pdfrwt beam="2">  1        4 0.13778205E+00 0.12499787E+03</pdfrwt>
<pdfrwt beam="1">  1       -4 0.67100522E-03 0.12499787E+03</pdfrwt>
<totfact> 0.34163613E+03</totfact>
</mgrwt>
</event>
<event>
 5    1  0.3209683E-002  0.1249900E+03  0.7818608E-02  0.1235085E+00
         -4   -1    0    0    0  501 -0.00000000000E+00  0.00000000000E+00  0.11813104011E+03  0.11813786665E+03  0.12700000000E+01 0.  1.
          4   -1    0    0  501    0  0.00000000000E+00 -0.00000000000E+00 -0.33041833586E+02  0.33066231517E+02  0.12700000000E+01 0.  1.
         25    2    1    2    0    0  0.00000000000E+00  0.00000000000E+00  0.85089206519E+02  0.15120409817E+03  0.12499002455E+03 0.  0.
    9000005    1    3    3    0    0 -0.11640393475E+02  0.26879261172E+02  0.10931720342E+03  0.11317793250E+03  0.10000000000E+01 0.  0.
    9000005    1    3    3    0    0  0.11640393475E+02 -0.26879261172E+02 -0.24227996901E+02  0.38026165666E+02  0.10000000000E+01 0.  0.
<mgrwt>
<rscale>  0 0.12499002E+03</rscale>
<asrwt>0</asrwt>
<pdfrwt beam="2">  1        4 0.50857609E-02 0.12499002E+03</pdfrwt>
<pdfrwt beam="1">  1       -4 0.18176408E-01 0.12499002E+03</pdfrwt>
<totfact> 0.99086459E+03</totfact>
</mgrwt>
</event>
<event>
 5    1  0.3209683E-002  0.1249987E+03  0.7818608E-02  0.1235071E+00
         -4   -1    0    0    0  501 -0.00000000000E+00  0.00000000000E+00  0.96022100061E+03  0.96022184047E+03  0.12700000000E+01 0. -1.
          4   -1    0    0  501    0  0.00000000000E+00 -0.00000000000E+00 -0.39680075198E+01  0.41662913577E+01  0.12700000000E+01 0. -1.
         25    2    1    2    0    0  0.00000000000E+00  0.00000000000E+00  0.95625299309E+03  0.96438813182E+03  0.12499872805E+03 0.  0.
    9000005    1    3    3    0    0 -0.18357080448E+02 -0.31457088381E+02  0.86347098201E+02  0.93719540011E+02  0.10000000000E+01 0.  0.
    9000005    1    3    3    0    0  0.18357080448E+02  0.31457088381E+02  0.86990589489E+03  0.87066859181E+03  0.10000000000E+01 0.  0.
<mgrwt>
<rscale>  0 0.12499873E+03</rscale>
<asrwt>0</asrwt>
<pdfrwt beam="2">  1        4 0.62577972E-03 0.12499873E+03</pdfrwt>
<pdfrwt beam="1">  1       -4 0.14774167E+00 0.12499873E+03</pdfrwt>
<totfact> 0.31811453E+03</totfact>
</mgrwt>
</event>
<event>
 5    1  0.3209683E-002  0.1250085E+03  0.7818608E-02  0.1235056E+00
          4   -1    0    0  501    0  0.00000000000E+00  0.00000000000E+00  0.24997509892E+03  0.24997832502E+03  0.12700000000E+01 0. -1.
         -4   -1    0    0    0  501 -0.00000000000E+00 -0.00000000000E+00 -0.15599536344E+02  0.15651148014E+02  0.12700000000E+01 0. -1.
         25    2    1    2    0    0  0.00000000000E+00  0.00000000000E+00  0.23437556257E+03  0.26562947303E+03  0.12500845016E+03 0.  0.
    9000005    1    3    3    0    0  0.16515390240E+02 -0.11211372169E+02 -0.86540141485E+01  0.21779461462E+02  0.10000000000E+01 0.  0.
    9000005    1    3    3    0    0 -0.16515390240E+02  0.11211372169E+02  0.24302957672E+03  0.24385001157E+03  0.10000000000E+01 0.  0.
<mgrwt>
<rscale>  0 0.12500845E+03</rscale>
<asrwt>0</asrwt>
<pdfrwt beam="1">  1        4 0.38461925E-01 0.12500845E+03</pdfrwt>
<pdfrwt beam="2">  1       -4 0.24041470E-02 0.12500845E+03</pdfrwt>
<totfact> 0.80107414E+03</totfact>
</mgrwt>
</event>
<event>
 5    1  0.3209683E-002  0.1250010E+03  0.7818608E-02  0.1235068E+00
          4   -1    0    0  501    0  0.00000000000E+00  0.00000000000E+00  0.37373136900E+02  0.37394709007E+02  0.12700000000E+01 0.  1.
         -4   -1    0    0    0  501 -0.00000000000E+00 -0.00000000000E+00 -0.10446632729E+03  0.10447404672E+03  0.12700000000E+01 0.  1.
         25    2    1    2    0    0  0.00000000000E+00  0.00000000000E+00 -0.67093190392E+02  0.14186875573E+03  0.12500099061E+03 0.  0.
    9000005    1    3    3    0    0  0.20039135563E+02  0.27705953168E+02 -0.92913072782E+02  0.99010231233E+02  0.10000000000E+01 0.  0.
    9000005    1    3    3    0    0 -0.20039135563E+02 -0.27705953168E+02  0.25819882390E+02  0.42858524493E+02  0.10000000000E+01 0.  0.
<mgrwt>
<rscale>  0 0.12500099E+03</rscale>
<asrwt>0</asrwt>
<pdfrwt beam="1">  1        4 0.57519666E-02 0.12500099E+03</pdfrwt>
<pdfrwt beam="2">  1       -4 0.16073996E-01 0.12500099E+03</pdfrwt>
<totfact> 0.10094775E+04</totfact>
</mgrwt>
</event>
<event>
 5    1  0.3209683E-002  0.1250005E+03  0.7818608E-02  0.1235069E+00
         -4   -1    0    0    0  501 -0.00000000000E+00  0.00000000000E+00  0.27816047131E+03  0.27816337052E+03  0.12700000000E+01 0.  1.
          4   -1    0    0  501    0  0.00000000000E+00 -0.00000000000E+00 -0.14011570145E+02  0.14069008420E+02  0.12700000000E+01 0.  1.
         25    2    1    2    0    0  0.00000000000E+00  0.00000000000E+00  0.26414890117E+03  0.29223237894E+03  0.12500048526E+03 0.  0.
    9000005    1    3    3    0    0  0.55397038634E+02  0.21957511553E+02  0.88068430385E+02  0.10633913971E+03  0.10000000000E+01 0.  0.
    9000005    1    3    3    0    0 -0.55397038634E+02 -0.21957511553E+02  0.17608047078E+03  0.18589323924E+03  0.10000000000E+01 0.  0.
<mgrwt>
<rscale>  0 0.12500049E+03</rscale>
<asrwt>0</asrwt>
<pdfrwt beam="2">  1        4 0.21602676E-02 0.12500049E+03</pdfrwt>
<pdfrwt beam="1">  1       -4 0.42798558E-01 0.12500049E+03</pdfrwt>
<totfact> 0.76582816E+03</totfact>
</mgrwt>
</event>
<event>
 5    1  0.3209683E-002  0.1249989E+03  0.7818608E-02  0.1235071E+00
          4   -1    0    0  501    0  0.00000000000E+00  0.00000000000E+00  0.67681386303E+01  0.68862617231E+01  0.12700000000E+01 0. -1.
         -4   -1    0    0    0  501 -0.00000000000E+00 -0.00000000000E+00 -0.57203108835E+03  0.57203249815E+03  0.12700000000E+01 0. -1.
         25    2    1    2    0    0  0.00000000000E+00  0.00000000000E+00 -0.56526294972E+03  0.57891875987E+03  0.12499891282E+03 0.  0.
    9000005    1    3    3    0    0  0.62410496176E+02  0.30547450213E+01 -0.28672325388E+03  0.29345464013E+03  0.10000000000E+01 0.  0.
    9000005    1    3    3    0    0 -0.62410496176E+02 -0.30547450213E+01 -0.27853969584E+03  0.28546411974E+03  0.10000000000E+01 0.  0.
<mgrwt>
<rscale>  0 0.12499891E+03</rscale>
<asrwt>0</asrwt>
<pdfrwt beam="1">  1        4 0.10504474E-02 0.12499891E+03</pdfrwt>
<pdfrwt beam="2">  1       -4 0.88013940E-01 0.12499891E+03</pdfrwt>
<totfact> 0.50227157E+03</totfact>
</mgrwt>
</event>
<event>
 5    1  0.3209683E-002  0.1249988E+03  0.7818608E-02  0.1235071E+00
          4   -1    0    0  501    0  0.00000000000E+00  0.00000000000E+00  0.28050671376E+02  0.28079406416E+02  0.12700000000E+01 0.  1.
         -4   -1    0    0    0  501 -0.00000000000E+00 -0.00000000000E+00 -0.13915124700E+03  0.13915704238E+03  0.12700000000E+01 0.  1.
         25    2    1    2    0    0  0.00000000000E+00  0.00000000000E+00 -0.11110057563E+03  0.16723644879E+03  0.12499876759E+03 0.  0.
    9000005    1    3    3    0    0 -0.52022523102E+02 -0.34506636526E+02 -0.59363222692E+02  0.86151280215E+02  0.10000000000E+01 0.  0.
    9000005    1    3    3    0    0  0.52022523102E+02  0.34506636526E+02 -0.51737352936E+02  0.81085168576E+02  0.10000000000E+01 0.  0.
<mgrwt>
<rscale>  0 0.12499877E+03</rscale>
<asrwt>0</asrwt>
<pdfrwt beam="1">  1        4 0.43181442E-02 0.12499877E+03</pdfrwt>
<pdfrwt beam="2">  1       -4 0.21410540E-01 0.12499877E+03</pdfrwt>
<totfact> 0.95968170E+03</totfact>
</mgrwt>
</event>
<event>
 5    1  0.3209683E-002  0.1249965E+03  0.7818608E-02  0.1235075E+00
         -4   -1    0    0    0  501 -0.00000000000E+00  0.00000000000E+00  0.10051691029E+03  0.10052493300E+03  0.12700000000E+01 0.  1.
          4   -1    0    0  501    0  0.00000000000E+00 -0.00000000000E+00 -0.38839498134E+02  0.38860256244E+02  0.12700000000E+01 0.  1.
         25    2    1    2    0    0  0.00000000000E+00  0.00000000000E+00  0.61677412159E+02  0.13938518924E+03  0.12499651119E+03 0.  0.
    9000005    1    3    3    0    0 -0.22358889041E+02 -0.23864524863E+02 -0.28541397710E+02  0.43417126222E+02  0.10000000000E+01 0.  0.
    9000005    1    3    3    0    0  0.22358889041E+02  0.23864524863E+02  0.90218809869E+02  0.95968063023E+02  0.10000000000E+01 0.  0.
<mgrwt>
<rscale>  0 0.12499651E+03</rscale>
<asrwt>0</asrwt>
<pdfrwt beam="2">  1        4 0.59775214E-02 0.12499651E+03</pdfrwt>
<pdfrwt beam="1">  1       -4 0.15466354E-01 0.12499651E+03</pdfrwt>
<totfact> 0.10147141E+04</totfact>
</mgrwt>
</event>
<event>
 5    1  0.3209683E-002  0.1250022E+03  0.7818608E-02  0.1235066E+00
         -4   -1    0    0    0  501 -0.00000000000E+00  0.00000000000E+00  0.38284191965E+02  0.38305251003E+02  0.12700000000E+01 0. -1.
          4   -1    0    0  501    0  0.00000000000E+00 -0.00000000000E+00 -0.10198350269E+03  0.10199141003E+03  0.12700000000E+01 0. -1.
         25    2    1    2    0    0  0.00000000000E+00  0.00000000000E+00 -0.63699310723E+02  0.14029666103E+03  0.12500220362E+03 0.  0.
    9000005    1    3    3    0    0 -0.20566164348E+02 -0.58764339570E+02 -0.25787594931E+02  0.67395955172E+02  0.10000000000E+01 0.  0.
    9000005    1    3    3    0    0  0.20566164348E+02  0.58764339570E+02 -0.37911715791E+02  0.72900705863E+02  0.10000000000E+01 0.  0.
<mgrwt>
<rscale>  0 0.12500220E+03</rscale>
<asrwt>0</asrwt>
<pdfrwt beam="2">  1        4 0.15691998E-01 0.12500220E+03</pdfrwt>
<pdfrwt beam="1">  1       -4 0.58921039E-02 0.12500220E+03</pdfrwt>
<totfact> 0.10126938E+04</totfact>
</mgrwt>
</event>
<event>
 5    1  0.3209683E-002  0.1250008E+03  0.7818608E-02  0.1235068E+00
         -4   -1    0    0    0  501 -0.00000000000E+00  0.00000000000E+00  0.59511600643E+03  0.59511736155E+03  0.12700000000E+01 0. -1.
          4   -1    0    0  501    0  0.00000000000E+00 -0.00000000000E+00 -0.65011246843E+01  0.66240110327E+01  0.12700000000E+01 0. -1.
         25    2    1    2    0    0  0.00000000000E+00  0.00000000000E+00  0.58861488175E+03  0.60174137258E+03  0.12500080182E+03 0.  0.
    9000005    1    3    3    0    0  0.21839537384E+02  0.16749413243E+02  0.56439220063E+03  0.56506377018E+03  0.10000000000E+01 0.  0.
    9000005    1    3    3    0    0 -0.21839537384E+02 -0.16749413243E+02  0.24222681117E+02  0.36677602398E+02  0.10000000000E+01 0.  0.
<mgrwt>
<rscale>  0 0.12500080E+03</rscale>
<asrwt>0</asrwt>
<pdfrwt beam="2">  1        4 0.10097301E-02 0.12500080E+03</pdfrwt>
<pdfrwt beam="1">  1       -4 0.91565861E-01 0.12500080E+03</pdfrwt>
<totfact> 0.48757018E+03</totfact>
</mgrwt>
</event>
<event>
 5    1  0.3209683E-002  0.1250020E+03  0.7818608E-02  0.1235066E+00
         -4   -1    0    0    0  501 -0.00000000000E+00  0.00000000000E+00  0.13961713713E+03  0.13962291316E+03  0.12700000000E+01 0.  1.
          4   -1    0    0  501    0  0.00000000000E+00 -0.00000000000E+00 -0.27958413616E+02  0.27987243379E+02  0.12700000000E+01 0.  1.
         25    2    1    2    0    0  0.00000000000E+00  0.00000000000E+00  0.11165872351E+03  0.16761015654E+03  0.12500197614E+03 0.  0.
    9000005    1    3    3    0    0  0.44177149369E+02  0.13783156454E+02  0.11214193355E+03  0.12131945099E+03  0.10000000000E+01 0.  0.
    9000005    1    3    3    0    0 -0.44177149369E+02 -0.13783156454E+02 -0.48321004148E+00  0.46290705548E+02  0.10000000000E+01 0.  0.
<mgrwt>
<rscale>  0 0.12500198E+03</rscale>
<asrwt>0</asrwt>
<pdfrwt beam="2">  1        4 0.43039563E-02 0.12500198E+03</pdfrwt>
<pdfrwt beam="1">  1       -4 0.21482222E-01 0.12500198E+03</pdfrwt>
<totfact> 0.95891085E+03</totfact>
</mgrwt>
</event>
<event>
 5    1  0.3209683E-002  0.1250006E+03  0.7818608E-02  0.1235068E+00
         -4   -1    0    0    0  501 -0.00000000000E+00  0.00000000000E+00  0.24347735437E+03  0.24348066657E+03  0.12700000000E+01 0. -1.
          4   -1    0    0  501    0  0.00000000000E+00 -0.00000000000E+00 -0.16015184487E+02  0.16065460907E+02  0.12700000000E+01 0. -1.
         25    2    1    2    0    0  0.00000000000E+00  0.00000000000E+00  0.22746216989E+03  0.25954612748E+03  0.12500061423E+03 0.  0.
    9000005    1    3    3    0    0 -0.12285503497E+01 -0.38047981066E+02  0.21663409960E+03  0.21995565760E+03  0.10000000000E+01 0.  0.
    9000005    1    3    3    0    0  0.12285503497E+01  0.38047981066E+02  0.10828070287E+02  0.39590469879E+02  0.10000000000E+01 0.  0.
<mgrwt>
<rscale>  0 0.12500061E+03</rscale>
<asrwt>0</asrwt>
<pdfrwt beam="2">  1        4 0.24679969E-02 0.12500061E+03</pdfrwt>
<pdfrwt beam="1">  1       -4 0.37462175E-01 0.12500061E+03</pdfrwt>
<totfact> 0.80968691E+03</totfact>
</mgrwt>
</event>
<event>
 5    1  0.3209683E-002  0.1249988E+03  0.7818608E-02  0.1235071E+00
         -4   -1    0    0    0  501 -0.00000000000E+00  0.00000000000E+00  0.26197438134E+02  0.26228203613E+02  0.12700000000E+01 0.  1.
          4   -1    0    0  501    0  0.00000000000E+00 -0.00000000000E+00 -0.14898413517E+03  0.14898954807E+03  0.12700000000E+01 0.  1.
         25    2    1    2    0    0  0.00000000000E+00  0.00000000000E+00 -0.12278669704E+03  0.17521775168E+03  0.12499875013E+03 0.  0.
    9000005    1    3    3    0    0 -0.29273340566E+02 -0.48265787860E+02 -0.98971317586E+02  0.11394225051E+03  0.10000000000E+01 0.  0.
    9000005    1    3    3    0    0  0.29273340566E+02  0.48265787860E+02 -0.23815379451E+02  0.61275501173E+02  0.10000000000E+01 0.  0.
<mgrwt>
<rscale>  0 0.12499875E+03</rscale>
<asrwt>0</asrwt>
<pdfrwt beam="2">  1        4 0.22923419E-01 0.12499875E+03</pdfrwt>
<pdfrwt beam="1">  1       -4 0.40331581E-02 0.12499875E+03</pdfrwt>
<totfact> 0.94487624E+03</totfact>
</mgrwt>
</event>
<event>
 5    1  0.3209683E-002  0.1249916E+03  0.7818608E-02  0.1235082E+00
          4   -1    0    0  501    0  0.00000000000E+00  0.00000000000E+00  0.12707347348E+02  0.12770652944E+02  0.12700000000E+01 0. -1.
         -4   -1    0    0    0  501 -0.00000000000E+00 -0.00000000000E+00 -0.30653114706E+03  0.30653377794E+03  0.12700000000E+01 0. -1.
         25    2    1    2    0    0  0.00000000000E+00  0.00000000000E+00 -0.29382379972E+03  0.31930443089E+03  0.12499157694E+03 0.  0.
    9000005    1    3    3    0    0 -0.58502924895E+02  0.21957413675E+02 -0.14676426770E+03  0.15951636439E+03  0.10000000000E+01 0.  0.
    9000005    1    3    3    0    0  0.58502924895E+02 -0.21957413675E+02 -0.14705953202E+03  0.15978806650E+03  0.10000000000E+01 0.  0.
<mgrwt>
<rscale>  0 0.12499158E+03</rscale>
<asrwt>0</asrwt>
<pdfrwt beam="1">  1        4 0.19600488E-02 0.12499158E+03</pdfrwt>
<pdfrwt beam="2">  1       -4 0.47163705E-01 0.12499158E+03</pdfrwt>
<totfact> 0.73252610E+03</totfact>
</mgrwt>
</event>
<event>
 5    1  0.3209683E-002  0.1249981E+03  0.7818608E-02  0.1235072E+00
          4   -1    0    0  501    0  0.00000000000E+00  0.00000000000E+00  0.89240008796E+02  0.89249045205E+02  0.12700000000E+01 0.  1.
         -4   -1    0    0    0  501 -0.00000000000E+00 -0.00000000000E+00 -0.43750589227E+02  0.43769018240E+02  0.12700000000E+01 0.  1.
         25    2    1    2    0    0  0.00000000000E+00  0.00000000000E+00  0.45489419570E+02  0.13301806344E+03  0.12499807162E+03 0.  0.
    9000005    1    3    3    0    0 -0.14470583666E+02  0.28255402318E+02  0.80025477758E+02  0.86097866653E+02  0.10000000000E+01 0.  0.
    9000005    1    3    3    0    0  0.14470583666E+02 -0.28255402318E+02 -0.34536058189E+02  0.46920196792E+02  0.10000000000E+01 0.  0.
<mgrwt>
<rscale>  0 0.12499807E+03</rscale>
<asrwt>0</asrwt>
<pdfrwt beam="1">  1        4 0.13731345E-01 0.12499807E+03</pdfrwt>
<pdfrwt beam="2">  1       -4 0.67329727E-02 0.12499807E+03</pdfrwt>
<totfact> 0.10280463E+04</totfact>
</mgrwt>
</event>
<event>
 5    1  0.3209683E-002  0.1250022E+03  0.7818608E-02  0.1235066E+00
          4   -1    0    0  501    0  0.00000000000E+00  0.00000000000E+00  0.37076744753E+02  0.37098489208E+02  0.12700000000E+01 0. -1.
         -4   -1    0    0    0  501 -0.00000000000E+00 -0.00000000000E+00 -0.10530302644E+03  0.10531068454E+03  0.12700000000E+01 0. -1.
         25    2    1    2    0    0  0.00000000000E+00  0.00000000000E+00 -0.68226281686E+02  0.14240917374E+03  0.12500218899E+03 0.  0.
    9000005    1    3    3    0    0 -0.62266972936E+02 -0.21740055103E+01 -0.28592215383E+02  0.68559587215E+02  0.10000000000E+01 0.  0.
    9000005    1    3    3    0    0  0.62266972936E+02  0.21740055103E+01 -0.39634066303E+02  0.73849586528E+02  0.10000000000E+01 0.  0.
<mgrwt>
<rscale>  0 0.12500219E+03</rscale>
<asrwt>0</asrwt>
<pdfrwt beam="1">  1        4 0.57063764E-02 0.12500219E+03</pdfrwt>
<pdfrwt beam="2">  1       -4 0.16202727E-01 0.12500219E+03</pdfrwt>
<totfact> 0.10083399E+04</totfact>
</mgrwt>
</event>
<event>
 5    1  0.3209683E-002  0.1249993E+03  0.7818608E-02  0.1235070E+00
          4   -1    0    0  501    0  0.00000000000E+00  0.00000000000E+00  0.38287855249E+02  0.38308912274E+02  0.12700000000E+01 0.  1.
         -4   -1    0    0    0  501 -0.00000000000E+00 -0.00000000000E+00 -0.10196904778E+03  0.10197695625E+03  0.12700000000E+01 0.  1.
         25    2    1    2    0    0  0.00000000000E+00  0.00000000000E+00 -0.63681192533E+02  0.14028586852E+03  0.12499932250E+03 0.  0.
    9000005    1    3    3    0    0 -0.55565684461E+02 -0.17914155447E+01  0.18810525801E+00  0.55603865359E+02  0.10000000000E+01 0.  0.
    9000005    1    3    3    0    0  0.55565684461E+02  0.17914155447E+01 -0.63869297791E+02  0.84682003163E+02  0.10000000000E+01 0.  0.
<mgrwt>
<rscale>  0 0.12499932E+03</rscale>
<asrwt>0</asrwt>
<pdfrwt beam="1">  1        4 0.58926674E-02 0.12499932E+03</pdfrwt>
<pdfrwt beam="2">  1       -4 0.15689774E-01 0.12499932E+03</pdfrwt>
<totfact> 0.10127819E+04</totfact>
</mgrwt>
</event>
<event>
 5    1  0.3209683E-002  0.1250183E+03  0.7818608E-02  0.1235041E+00
          4   -1    0    0  501    0  0.00000000000E+00  0.00000000000E+00  0.87710438886E+01  0.88625115456E+01  0.12700000000E+01 0. -1.
         -4   -1    0    0    0  501 -0.00000000000E+00 -0.00000000000E+00 -0.44308487937E+03  0.44308669945E+03  0.12700000000E+01 0. -1.
         25    2    1    2    0    0  0.00000000000E+00  0.00000000000E+00 -0.43431383548E+03  0.45194921099E+03  0.12501832516E+03 0.  0.
    9000005    1    3    3    0    0  0.54227476968E+02  0.16082829646E+02 -0.12102621233E+03  0.13359498770E+03  0.10000000000E+01 0.  0.
    9000005    1    3    3    0    0 -0.54227476968E+02 -0.16082829646E+02 -0.31328762316E+03  0.31835422330E+03  0.10000000000E+01 0.  0.
<mgrwt>
<rscale>  0 0.12501833E+03</rscale>
<asrwt>0</asrwt>
<pdfrwt beam="1">  1        4 0.13565677E-02 0.12501833E+03</pdfrwt>
<pdfrwt beam="2">  1       -4 0.68174063E-01 0.12501833E+03</pdfrwt>
<totfact> 0.59771185E+03</totfact>
</mgrwt>
</event>
<event>
 5    1  0.3209683E-002  0.1250001E+03  0.7818608E-02  0.1235069E+00
          4   -1    0    0  501    0  0.00000000000E+00  0.00000000000E+00  0.29381012833E+01  0.32008341336E+01  0.12700000000E+01 0.  1.
         -4   -1    0    0    0  501 -0.00000000000E+00 -0.00000000000E+00 -0.12723546067E+04  0.12723552405E+04  0.12700000000E+01 0.  1.
         25    2    1    2    0    0  0.00000000000E+00  0.00000000000E+00 -0.12694165054E+04  0.12755560746E+04  0.12500014149E+03 0.  0.
    9000005    1    3    3    0    0 -0.16546088767E+02 -0.56200666854E+02 -0.41278325122E+03  0.41692121617E+03  0.10000000000E+01 0.  0.
    9000005    1    3    3    0    0  0.16546088767E+02  0.56200666854E+02 -0.85663325416E+03  0.85863485845E+03  0.10000000000E+01 0.  0.
<mgrwt>
<rscale>  0 0.12500014E+03</rscale>
<asrwt>0</asrwt>
<pdfrwt beam="1">  1        4 0.47227557E-03 0.12500014E+03</pdfrwt>
<pdfrwt beam="2">  1       -4 0.19576670E+00 0.12500014E+03</pdfrwt>
<totfact> 0.22812885E+03</totfact>
</mgrwt>
</event>
<event>
 5    1  0.3209683E-002  0.1250025E+03  0.7818608E-02  0.1235065E+00
          4   -1    0    0  501    0  0.00000000000E+00  0.00000000000E+00  0.23469007744E+03  0.23469351365E+03  0.12700000000E+01 0. -1.
         -4   -1    0    0    0  501 -0.00000000000E+00 -0.00000000000E+00 -0.16617168946E+02  0.16665629414E+02  0.12700000000E+01 0. -1.
         25    2    1    2    0    0  0.00000000000E+00  0.00000000000E+00  0.21807290850E+03  0.25135914307E+03  0.12500250150E+03 0.  0.
    9000005    1    3    3    0    0  0.26109497803E+02  0.23066910818E+02  0.47128212323E+01  0.35170995638E+02  0.10000000000E+01 0.  0.
    9000005    1    3    3    0    0 -0.26109497803E+02 -0.23066910818E+02  0.21336008727E+03  0.21618814743E+03  0.10000000000E+01 0.  0.
<mgrwt>
<rscale>  0 0.12500250E+03</rscale>
<asrwt>0</asrwt>
<pdfrwt beam="1">  1        4 0.36110159E-01 0.12500250E+03</pdfrwt>
<pdfrwt beam="2">  1       -4 0.25604795E-02 0.12500250E+03</pdfrwt>
<totfact> 0.82129607E+03</totfact>
</mgrwt>
</event>
<event>
 5    1  0.3209683E-002  0.1249982E+03  0.7818608E-02  0.1235072E+00
          4   -1    0    0  501    0  0.00000000000E+00  0.00000000000E+00  0.19433380958E+02  0.19474834928E+02  0.12700000000E+01 0. -1.
         -4   -1    0    0    0  501 -0.00000000000E+00 -0.00000000000E+00 -0.20074376840E+03  0.20074778567E+03  0.12700000000E+01 0. -1.
         25    2    1    2    0    0  0.00000000000E+00  0.00000000000E+00 -0.18131038745E+03  0.22022262060E+03  0.12499818410E+03 0.  0.
    9000005    1    3    3    0    0  0.41871576889E+02  0.32110607986E+02 -0.31672383164E+02  0.61550466706E+02  0.10000000000E+01 0.  0.
    9000005    1    3    3    0    0 -0.41871576889E+02 -0.32110607986E+02 -0.14963800428E+03  0.15867215390E+03  0.10000000000E+01 0.  0.
<mgrwt>
<rscale>  0 0.12499818E+03</rscale>
<asrwt>0</asrwt>
<pdfrwt beam="1">  1        4 0.29932488E-02 0.12499818E+03</pdfrwt>
<pdfrwt beam="2">  1       -4 0.30887153E-01 0.12499818E+03</pdfrwt>
<totfact> 0.86836658E+03</totfact>
</mgrwt>
</event>
<event>
 5    1  0.3209683E-002  0.1249806E+03  0.7818608E-02  0.1235100E+00
          4   -1    0    0  501    0  0.00000000000E+00  0.00000000000E+00  0.14989751047E+02  0.15043454938E+02  0.12700000000E+01 0. -1.
         -4   -1    0    0    0  501 -0.00000000000E+00 -0.00000000000E+00 -0.25999255202E+03  0.25999565382E+03  0.12700000000E+01 0. -1.
         25    2    1    2    0    0  0.00000000000E+00  0.00000000000E+00 -0.24500280097E+03  0.27503910875E+03  0.12498055394E+03 0.  0.
    9000005    1    3    3    0    0 -0.15661489482E+02  0.38104502104E+02 -0.19122137016E+02  0.45430072170E+02  0.10000000000E+01 0.  0.
    9000005    1    3    3    0    0  0.15661489482E+02 -0.38104502104E+02 -0.22588066395E+03  0.22960903658E+03  0.10000000000E+01 0.  0.
<mgrwt>
<rscale>  0 0.12498055E+03</rscale>
<asrwt>0</asrwt>
<pdfrwt beam="1">  1        4 0.23104854E-02 0.12498055E+03</pdfrwt>
<pdfrwt beam="2">  1       -4 0.40003220E-01 0.12498055E+03</pdfrwt>
<totfact> 0.78874617E+03</totfact>
</mgrwt>
</event>
<event>
 5    1  0.3209683E-002  0.1250018E+03  0.7818608E-02  0.1235067E+00
         -4   -1    0    0    0  501 -0.00000000000E+00  0.00000000000E+00  0.19554292175E+03  0.19554704587E+03  0.12700000000E+01 0.  1.
          4   -1    0    0  501    0  0.00000000000E+00 -0.00000000000E+00 -0.19952477368E+02  0.19992855051E+02  0.12700000000E+01 0.  1.
         25    2    1    2    0    0  0.00000000000E+00  0.00000000000E+00  0.17559044438E+03  0.21553990092E+03  0.12500177890E+03 0.  0.
    9000005    1    3    3    0    0  0.31821283406E+02 -0.48114746369E+02  0.12924069132E+03  0.14153366804E+03  0.10000000000E+01 0.  0.
    9000005    1    3    3    0    0 -0.31821283406E+02  0.48114746369E+02  0.46349753062E+02  0.74006232877E+02  0.10000000000E+01 0.  0.
<mgrwt>
<rscale>  0 0.12500178E+03</rscale>
<asrwt>0</asrwt>
<pdfrwt beam="2">  1        4 0.30730351E-02 0.12500178E+03</pdfrwt>
<pdfrwt beam="1">  1       -4 0.30086950E-01 0.12500178E+03</pdfrwt>
<totfact> 0.87575577E+03</totfact>
</mgrwt>
</event>
<event>
 5    1  0.3209683E-002  0.1249998E+03  0.7818608E-02  0.1235070E+00
         -4   -1    0    0    0  501 -0.00000000000E+00  0.00000000000E+00  0.25886051853E+03  0.25886363389E+03  0.12700000000E+01 0.  1.
          4   -1    0    0  501    0  0.00000000000E+00 -0.00000000000E+00 -0.15060195028E+02  0.15113648610E+02  0.12700000000E+01 0.  1.
         25    2    1    2    0    0  0.00000000000E+00  0.00000000000E+00  0.24380032350E+03  0.27397728250E+03  0.12499981436E+03 0.  0.
    9000005    1    3    3    0    0  0.52976588454E+02  0.12123103818E+02  0.54281497256E+02  0.76817768223E+02  0.10000000000E+01 0.  0.
    9000005    1    3    3    0    0 -0.52976588454E+02 -0.12123103818E+02  0.18951882624E+03  0.19715951428E+03  0.10000000000E+01 0.  0.
<mgrwt>
<rscale>  0 0.12499981E+03</rscale>
<asrwt>0</asrwt>
<pdfrwt beam="2">  1        4 0.23213045E-02 0.12499981E+03</pdfrwt>
<pdfrwt beam="1">  1       -4 0.39829048E-01 0.12499981E+03</pdfrwt>
<totfact> 0.78983835E+03</totfact>
</mgrwt>
</event>
<event>
 5    1  0.3209683E-002  0.1250027E+03  0.7818608E-02  0.1235065E+00
          4   -1    0    0  501    0  0.00000000000E+00  0.00000000000E+00  0.91413299115E+02  0.91422120710E+02  0.12700000000E+01 0.  1.
         -4   -1    0    0    0  501 -0.00000000000E+00 -0.00000000000E+00 -0.42713289958E+02  0.42732166328E+02  0.12700000000E+01 0.  1.
         25    2    1    2    0    0  0.00000000000E+00  0.00000000000E+00  0.48700009157E+02  0.13415428704E+03  0.12500272733E+03 0.  0.
    9000005    1    3    3    0    0 -0.12819201168E+02  0.20933020025E+02 -0.37328324003E+02  0.44686989368E+02  0.10000000000E+01 0.  0.
    9000005    1    3    3    0    0  0.12819201168E+02 -0.20933020025E+02  0.86028333160E+02  0.89467297669E+02  0.10000000000E+01 0.  0.
<mgrwt>
<rscale>  0 0.12500273E+03</rscale>
<asrwt>0</asrwt>
<pdfrwt beam="1">  1        4 0.14065715E-01 0.12500273E+03</pdfrwt>
<pdfrwt beam="2">  1       -4 0.65734060E-02 0.12500273E+03</pdfrwt>
<totfact> 0.10255296E+04</totfact>
</mgrwt>
</event>
<event>
 5    1  0.3209683E-002  0.1249980E+03  0.7818608E-02  0.1235072E+00
          4   -1    0    0  501    0  0.00000000000E+00  0.00000000000E+00  0.11277862214E+03  0.11278577265E+03  0.12700000000E+01 0. -1.
         -4   -1    0    0    0  501 -0.00000000000E+00 -0.00000000000E+00 -0.34615448404E+02  0.34638737971E+02  0.12700000000E+01 0. -1.
         25    2    1    2    0    0  0.00000000000E+00  0.00000000000E+00  0.78163173741E+02  0.14742451062E+03  0.12499801840E+03 0.  0.
    9000005    1    3    3    0    0 -0.31627056632E+02  0.20509003577E+02  0.97866111516E+02  0.10487929120E+03  0.10000000000E+01 0.  0.
    9000005    1    3    3    0    0  0.31627056632E+02 -0.20509003577E+02 -0.19702937775E+02  0.42545219425E+02  0.10000000000E+01 0.  0.
<mgrwt>
<rscale>  0 0.12499802E+03</rscale>
<asrwt>0</asrwt>
<pdfrwt beam="1">  1        4 0.17352899E-01 0.12499802E+03</pdfrwt>
<pdfrwt beam="2">  1       -4 0.53277951E-02 0.12499802E+03</pdfrwt>
<totfact> 0.99824036E+03</totfact>
</mgrwt>
</event>
<event>
 5    1  0.3209683E-002  0.1249938E+03  0.7818608E-02  0.1235079E+00
         -4   -1    0    0    0  501 -0.00000000000E+00  0.00000000000E+00  0.23273925103E+03  0.23274271604E+03  0.12700000000E+01 0.  1.
          4   -1    0    0  501    0  0.00000000000E+00 -0.00000000000E+00 -0.16754530178E+02  0.16802594487E+02  0.12700000000E+01 0.  1.
         25    2    1    2    0    0  0.00000000000E+00  0.00000000000E+00  0.21598472085E+03  0.24954531052E+03  0.12499384931E+03 0.  0.
    9000005    1    3    3    0    0  0.61231665676E+02  0.60886597735E+01  0.86261462599E+02  0.10596427978E+03  0.10000000000E+01 0.  0.
    9000005    1    3    3    0    0 -0.61231665676E+02 -0.60886597735E+01  0.12972325825E+03  0.14358103075E+03  0.10000000000E+01 0.  0.
<mgrwt>
<rscale>  0 0.12499385E+03</rscale>
<asrwt>0</asrwt>
<pdfrwt beam="2">  1        4 0.25815840E-02 0.12499385E+03</pdfrwt>
<pdfrwt beam="1">  1       -4 0.35810000E-01 0.12499385E+03</pdfrwt>
<totfact> 0.82407281E+03</totfact>
</mgrwt>
</event>
<event>
 5    1  0.3209683E-002  0.1250011E+03  0.7818608E-02  0.1235068E+00
         -4   -1    0    0    0  501 -0.00000000000E+00  0.00000000000E+00  0.23490293255E+01  0.26703630413E+01  0.12700000000E+01 0.  1.
          4   -1    0    0  501    0  0.00000000000E+00 -0.00000000000E+00 -0.15561679451E+04  0.15561684634E+04  0.12700000000E+01 0.  1.
         25    2    1    2    0    0  0.00000000000E+00  0.00000000000E+00 -0.15538189158E+04  0.15588388264E+04  0.12500105431E+03 0.  0.
    9000005    1    3    3    0    0 -0.61891791137E+02 -0.65140473894E+01 -0.70604692708E+03  0.70878508016E+03  0.10000000000E+01 0.  0.
    9000005    1    3    3    0    0  0.61891791137E+02  0.65140473894E+01 -0.84777198874E+03  0.85005374625E+03  0.10000000000E+01 0.  0.
<mgrwt>
<rscale>  0 0.12500105E+03</rscale>
<asrwt>0</asrwt>
<pdfrwt beam="2">  1        4 0.23943444E+00 0.12500105E+03</pdfrwt>
<pdfrwt beam="1">  1       -4 0.38614821E-03 0.12500105E+03</pdfrwt>
<totfact> 0.16802089E+03</totfact>
</mgrwt>
</event>
<event>
 5    1  0.3209683E-002  0.1250183E+03  0.7818608E-02  0.1235041E+00
         -4   -1    0    0    0  501 -0.00000000000E+00  0.00000000000E+00  0.62065381698E+03  0.62065511634E+03  0.12700000000E+01 0. -1.
          4   -1    0    0  501    0  0.00000000000E+00 -0.00000000000E+00 -0.62302457709E+01  0.63583694738E+01  0.12700000000E+01 0. -1.
         25    2    1    2    0    0  0.00000000000E+00  0.00000000000E+00  0.61442357121E+03  0.62701348581E+03  0.12501834476E+03 0.  0.
    9000005    1    3    3    0    0 -0.31230999556E+02  0.50110237766E+01  0.36850634347E+02  0.48574220985E+02  0.10000000000E+01 0.  0.
    9000005    1    3    3    0    0  0.31230999556E+02 -0.50110237766E+01  0.57757293686E+03  0.57843926482E+03  0.10000000000E+01 0.  0.
<mgrwt>
<rscale>  0 0.12501834E+03</rscale>
<asrwt>0</asrwt>
<pdfrwt beam="2">  1        4 0.96845446E-03 0.12501834E+03</pdfrwt>
<pdfrwt beam="1">  1       -4 0.95495209E-01 0.12501834E+03</pdfrwt>
<totfact> 0.47186672E+03</totfact>
</mgrwt>
</event>
<event>
 5    1  0.3209683E-002  0.1249995E+03  0.7818608E-02  0.1235070E+00
          4   -1    0    0  501    0  0.00000000000E+00  0.00000000000E+00  0.38226294305E+02  0.38247385222E+02  0.12700000000E+01 0.  1.
         -4   -1    0    0    0  501 -0.00000000000E+00 -0.00000000000E+00 -0.10213339900E+03  0.10214129474E+03  0.12700000000E+01 0.  1.
         25    2    1    2    0    0  0.00000000000E+00  0.00000000000E+00 -0.63907104692E+02  0.14038867996E+03  0.12499945372E+03 0.  0.
    9000005    1    3    3    0    0  0.33774505996E+02 -0.49539131570E+02 -0.51739915439E+02  0.79201399367E+02  0.10000000000E+01 0.  0.
    9000005    1    3    3    0    0 -0.33774505996E+02  0.49539131570E+02 -0.12167189253E+02  0.61187280593E+02  0.10000000000E+01 0.  0.
<mgrwt>
<rscale>  0 0.12499945E+03</rscale>
<asrwt>0</asrwt>
<pdfrwt beam="1">  1        4 0.58831981E-02 0.12499945E+03</pdfrwt>
<pdfrwt beam="2">  1       -4 0.15715060E-01 0.12499945E+03</pdfrwt>
<totfact> 0.10125661E+04</totfact>
</mgrwt>
</event>
<event>
 5    1  0.3209683E-002  0.1249943E+03  0.7818608E-02  0.1235078E+00
          4   -1    0    0  501    0  0.00000000000E+00  0.00000000000E+00  0.18870102616E+03  0.18870529981E+03  0.12700000000E+01 0.  1.
         -4   -1    0    0    0  501 -0.00000000000E+00 -0.00000000000E+00 -0.20674857346E+02  0.20713826935E+02  0.12700000000E+01 0.  1.
         25    2    1    2    0    0  0.00000000000E+00  0.00000000000E+00  0.16802616882E+03  0.20941912674E+03  0.12499430882E+03 0.  0.
    9000005    1    3    3    0    0  0.67264238925E+01 -0.61915683400E+02  0.75454004976E+02  0.97842237792E+02  0.10000000000E+01 0.  0.
    9000005    1    3    3    0    0 -0.67264238925E+01  0.61915683400E+02  0.92572163842E+02  0.11157688895E+03  0.10000000000E+01 0.  0.
<mgrwt>
<rscale>  0 0.12499431E+03</rscale>
<asrwt>0</asrwt>
<pdfrwt beam="1">  1        4 0.29034254E-01 0.12499431E+03</pdfrwt>
<pdfrwt beam="2">  1       -4 0.31840736E-02 0.12499431E+03</pdfrwt>
<totfact> 0.88582103E+03</totfact>
</mgrwt>
</event>
<event>
 5    1  0.3209683E-002  0.1249985E+03  0.7818608E-02  0.1235072E+00
          4   -1    0    0  501    0  0.00000000000E+00  0.00000000000E+00  0.11680491623E+03  0.11681182028E+03  0.12700000000E+01 0. -1.
         -4   -1    0    0    0  501 -0.00000000000E+00 -0.00000000000E+00 -0.33421782067E+02  0.33445902836E+02  0.12700000000E+01 0. -1.
         25    2    1    2    0    0  0.00000000000E+00  0.00000000000E+00  0.83383134168E+02  0.15025772311E+03  0.12499854516E+03 0.  0.
    9000005    1    3    3    0    0  0.48867583420E+02  0.40933244029E+01 -0.48702613844E+01  0.49290115236E+02  0.10000000000E+01 0.  0.
    9000005    1    3    3    0    0 -0.48867583420E+02 -0.40933244029E+01  0.88253395552E+02  0.10096760788E+03  0.10000000000E+01 0.  0.
<mgrwt>
<rscale>  0 0.12499855E+03</rscale>
<asrwt>0</asrwt>
<pdfrwt beam="1">  1        4 0.17972373E-01 0.12499855E+03</pdfrwt>
<pdfrwt beam="2">  1       -4 0.51441992E-02 0.12499855E+03</pdfrwt>
<totfact> 0.99255599E+03</totfact>
</mgrwt>
</event>
<event>
 5    1  0.3209683E-002  0.1250008E+03  0.7818608E-02  0.1235068E+00
         -4   -1    0    0    0  501 -0.00000000000E+00  0.00000000000E+00  0.18028975173E+02  0.18073650594E+02  0.12700000000E+01 0.  1.
          4   -1    0    0  501    0  0.00000000000E+00 -0.00000000000E+00 -0.21635316340E+03  0.21635689083E+03  0.12700000000E+01 0.  1.
         25    2    1    2    0    0  0.00000000000E+00  0.00000000000E+00 -0.19832418822E+03  0.23443054143E+03  0.12500078048E+03 0.  0.
    9000005    1    3    3    0    0  0.25963381237E+02 -0.19017388775E+02 -0.19962544235E+03  0.20220552780E+03  0.10000000000E+01 0.  0.
    9000005    1    3    3    0    0 -0.25963381237E+02  0.19017388775E+02  0.13012541231E+01  0.32225013629E+02  0.10000000000E+01 0.  0.
<mgrwt>
<rscale>  0 0.12500078E+03</rscale>
<asrwt>0</asrwt>
<pdfrwt beam="2">  1        4 0.33288824E-01 0.12500078E+03</pdfrwt>
<pdfrwt beam="1">  1       -4 0.27774119E-02 0.12500078E+03</pdfrwt>
<totfact> 0.84632422E+03</totfact>
</mgrwt>
</event>
<event>
 5    1  0.3209683E-002  0.1250013E+03  0.7818608E-02  0.1235067E+00
          4   -1    0    0  501    0  0.00000000000E+00  0.00000000000E+00  0.28090728225E+02  0.28119422331E+02  0.12700000000E+01 0. -1.
         -4   -1    0    0    0  501 -0.00000000000E+00 -0.00000000000E+00 -0.13895860726E+03  0.13896441066E+03  0.12700000000E+01 0. -1.
         25    2    1    2    0    0  0.00000000000E+00  0.00000000000E+00 -0.11086787903E+03  0.16708383300E+03  0.12500128258E+03 0.  0.
    9000005    1    3    3    0    0  0.25279360241E+02 -0.39490378938E+02 -0.21214389143E+00  0.46899691767E+02  0.10000000000E+01 0.  0.
    9000005    1    3    3    0    0 -0.25279360241E+02  0.39490378938E+02 -0.11065573514E+03  0.12018414123E+03  0.10000000000E+01 0.  0.
<mgrwt>
<rscale>  0 0.12500128E+03</rscale>
<asrwt>0</asrwt>
<pdfrwt beam="1">  1        4 0.43243042E-02 0.12500128E+03</pdfrwt>
<pdfrwt beam="2">  1       -4 0.21380900E-01 0.12500128E+03</pdfrwt>
<totfact> 0.95991432E+03</totfact>
</mgrwt>
</event>
<event>
 5    1  0.3209683E-002  0.1249988E+03  0.7818608E-02  0.1235071E+00
         -4   -1    0    0    0  501 -0.00000000000E+00  0.00000000000E+00  0.36570607253E+03  0.36570827771E+03  0.12700000000E+01 0. -1.
          4   -1    0    0  501    0  0.00000000000E+00 -0.00000000000E+00 -0.10641184282E+02  0.10716702054E+02  0.12700000000E+01 0. -1.
         25    2    1    2    0    0  0.00000000000E+00  0.00000000000E+00  0.35506488825E+03  0.37642497976E+03  0.12499876209E+03 0.  0.
    9000005    1    3    3    0    0 -0.21513535668E+02  0.49300701270E+02  0.81743355534E+02  0.97858916490E+02  0.10000000000E+01 0.  0.
    9000005    1    3    3    0    0  0.21513535668E+02 -0.49300701270E+02  0.27332153271E+03  0.27856606327E+03  0.10000000000E+01 0.  0.
<mgrwt>
<rscale>  0 0.12499876E+03</rscale>
<asrwt>0</asrwt>
<pdfrwt beam="2">  1        4 0.16430842E-02 0.12499876E+03</pdfrwt>
<pdfrwt beam="1">  1       -4 0.56268443E-01 0.12499876E+03</pdfrwt>
<totfact> 0.66913912E+03</totfact>
</mgrwt>
</event>
<event>
 5    1  0.3209683E-002  0.1250005E+03  0.7818608E-02  0.1235068E+00
          4   -1    0    0  501    0  0.00000000000E+00  0.00000000000E+00  0.12278039054E+03  0.12278695860E+03  0.12700000000E+01 0. -1.
         -4   -1    0    0    0  501 -0.00000000000E+00 -0.00000000000E+00 -0.31795116407E+02  0.31820470256E+02  0.12700000000E+01 0. -1.
         25    2    1    2    0    0  0.00000000000E+00  0.00000000000E+00  0.90985274136E+02  0.15460742886E+03  0.12500054779E+03 0.  0.
    9000005    1    3    3    0    0 -0.42915693277E+02 -0.28062125812E+02  0.13100269012E+01  0.51302590627E+02  0.10000000000E+01 0.  0.
    9000005    1    3    3    0    0  0.42915693277E+02  0.28062125812E+02  0.89675247235E+02  0.10330483823E+03  0.10000000000E+01 0.  0.
<mgrwt>
<rscale>  0 0.12500055E+03</rscale>
<asrwt>0</asrwt>
<pdfrwt beam="1">  1        4 0.18891746E-01 0.12500055E+03</pdfrwt>
<pdfrwt beam="2">  1       -4 0.48940119E-02 0.12500055E+03</pdfrwt>
<totfact> 0.98391408E+03</totfact>
</mgrwt>
</event>
<event>
 5    1  0.3209683E-002  0.1250012E+03  0.7818608E-02  0.1235067E+00
         -4   -1    0    0    0  501 -0.00000000000E+00  0.00000000000E+00  0.12207831520E+03  0.12208492102E+03  0.12700000000E+01 0. -1.
          4   -1    0    0  501    0  0.00000000000E+00 -0.00000000000E+00 -0.31978445165E+02  0.32003653779E+02  0.12700000000E+01 0. -1.
         25    2    1    2    0    0  0.00000000000E+00  0.00000000000E+00  0.90099870031E+02  0.15408857480E+03  0.12500120921E+03 0.  0.
    9000005    1    3    3    0    0  0.36384460313E+02 -0.11759355864E+02 -0.15880880888E+02  0.41416346778E+02  0.10000000000E+01 0.  0.
    9000005    1    3    3    0    0 -0.36384460313E+02  0.11759355864E+02  0.10598075092E+03  0.11267222802E+03  0.10000000000E+01 0.  0.
<mgrwt>
<rscale>  0 0.12500121E+03</rscale>
<asrwt>0</asrwt>
<pdfrwt beam="2">  1        4 0.49222081E-02 0.12500121E+03</pdfrwt>
<pdfrwt beam="1">  1       -4 0.18783726E-01 0.12500121E+03</pdfrwt>
<totfact> 0.98492042E+03</totfact>
</mgrwt>
</event>
<event>
 4    1  0.3209683E-002  0.1249357E+03  0.7818608E-02  0.1235170E+00
         -4   -1    0    0    0  501 -0.00000000000E+00  0.00000000000E+00  0.12464418003E+02  0.12528951120E+02  0.12700000000E+01 0.  1.
          4   -1    0    0  501    0  0.00000000000E+00 -0.00000000000E+00 -0.31219557072E+03  0.31219815387E+03  0.12700000000E+01 0.  1.
    9000005    1    1    2    0    0  0.23772630568E+02  0.43829558486E+02 -0.24763882337E+03  0.25261067871E+03  0.10000000000E+01 0.  0.
    9000005    1    1    2    0    0 -0.23772630568E+02 -0.43829558486E+02 -0.52092329350E+02  0.72116426272E+02  0.10000000000E+01 0.  0.
<mgrwt>
<rscale>  0 0.12493570E+03</rscale>
<asrwt>0</asrwt>
<pdfrwt beam="2">  1        4 0.48035245E-01 0.12493570E+03</pdfrwt>
<pdfrwt beam="1">  1       -4 0.19227658E-02 0.12493570E+03</pdfrwt>
<totfact> 0.72700954E+03</totfact>
</mgrwt>
</event>
<event>
 5    1  0.3209683E-002  0.1250012E+03  0.7818608E-02  0.1235067E+00
         -4   -1    0    0    0  501 -0.00000000000E+00  0.00000000000E+00  0.50139949100E+02  0.50156030502E+02  0.12700000000E+01 0. -1.
          4   -1    0    0  501    0  0.00000000000E+00 -0.00000000000E+00 -0.77874660152E+02  0.77885015207E+02  0.12700000000E+01 0. -1.
         25    2    1    2    0    0  0.00000000000E+00  0.00000000000E+00 -0.27734711052E+02  0.12804104571E+03  0.12500118075E+03 0.  0.
    9000005    1    3    3    0    0  0.36254717082E+02  0.39327712662E+02 -0.46968072593E+02  0.71190402001E+02  0.10000000000E+01 0.  0.
    9000005    1    3    3    0    0 -0.36254717082E+02 -0.39327712662E+02  0.19233361541E+02  0.56850643708E+02  0.10000000000E+01 0.  0.
<mgrwt>
<rscale>  0 0.12500118E+03</rscale>
<asrwt>0</asrwt>
<pdfrwt beam="2">  1        4 0.11982751E-01 0.12500118E+03</pdfrwt>
<pdfrwt beam="1">  1       -4 0.77158719E-02 0.12500118E+03</pdfrwt>
<totfact> 0.10386324E+04</totfact>
</mgrwt>
</event>
<event>
 5    1  0.3209683E-002  0.1250001E+03  0.7818608E-02  0.1235069E+00
         -4   -1    0    0    0  501 -0.00000000000E+00  0.00000000000E+00  0.42335039621E+02  0.42354084570E+02  0.12700000000E+01 0.  1.
          4   -1    0    0  501    0  0.00000000000E+00 -0.00000000000E+00 -0.92225856058E+02  0.92234599937E+02  0.12700000000E+01 0.  1.
         25    2    1    2    0    0  0.00000000000E+00  0.00000000000E+00 -0.49890816437E+02  0.13458868451E+03  0.12500008173E+03 0.  0.
    9000005    1    3    3    0    0  0.13883401557E+02 -0.53815517594E+02 -0.55709831255E+02  0.78698437539E+02  0.10000000000E+01 0.  0.
    9000005    1    3    3    0    0 -0.13883401557E+02  0.53815517594E+02  0.58190148180E+01  0.55890246968E+02  0.10000000000E+01 0.  0.
<mgrwt>
<rscale>  0 0.12500008E+03</rscale>
<asrwt>0</asrwt>
<pdfrwt beam="2">  1        4 0.14190731E-01 0.12500008E+03</pdfrwt>
<pdfrwt beam="1">  1       -4 0.65152206E-02 0.12500008E+03</pdfrwt>
<totfact> 0.10246729E+04</totfact>
</mgrwt>
</event>
<event>
 4    1  0.3209683E-002  0.1251345E+03  0.7818608E-02  0.1234859E+00
         -4   -1    0    0    0  501 -0.00000000000E+00  0.00000000000E+00  0.13483069459E+03  0.13483667566E+03  0.12700000000E+01 0.  1.
          4   -1    0    0  501    0  0.00000000000E+00 -0.00000000000E+00 -0.29013371138E+02  0.29041153641E+02  0.12700000000E+01 0.  1.
    9000005    1    1    2    0    0 -0.39778872209E+02 -0.44137897104E+02  0.78543213042E+02  0.98491364849E+02  0.10000000000E+01 0.  0.
    9000005    1    1    2    0    0  0.39778872209E+02  0.44137897104E+02  0.27274110408E+02  0.65386464452E+02  0.10000000000E+01 0.  0.
<mgrwt>
<rscale>  0 0.12513448E+03</rscale>
<asrwt>0</asrwt>
<pdfrwt beam="2">  1        4 0.44661929E-02 0.12513448E+03</pdfrwt>
<pdfrwt beam="1">  1       -4 0.20745780E-01 0.12513448E+03</pdfrwt>
<totfact> 0.96309052E+03</totfact>
</mgrwt>
</event>
<event>
 5    1  0.3209683E-002  0.1249966E+03  0.7818608E-02  0.1235075E+00
          4   -1    0    0  501    0  0.00000000000E+00  0.00000000000E+00  0.82435481511E+01  0.83408024866E+01  0.12700000000E+01 0. -1.
         -4   -1    0    0    0  501 -0.00000000000E+00 -0.00000000000E+00 -0.47095269061E+03  0.47095440298E+03  0.12700000000E+01 0. -1.
         25    2    1    2    0    0  0.00000000000E+00  0.00000000000E+00 -0.46270914246E+03  0.47929520547E+03  0.12499657385E+03 0.  0.
    9000005    1    3    3    0    0  0.31887981823E+02  0.29612932587E+01 -0.25596098717E+02  0.41009424673E+02  0.10000000000E+01 0.  0.
    9000005    1    3    3    0    0 -0.31887981823E+02 -0.29612932587E+01 -0.43711304374E+03  0.43828578080E+03  0.10000000000E+01 0.  0.
<mgrwt>
<rscale>  0 0.12499657E+03</rscale>
<asrwt>0</asrwt>
<pdfrwt beam="1">  1        4 0.12758514E-02 0.12499657E+03</pdfrwt>
<pdfrwt beam="2">  1       -4 0.72461852E-01 0.12499657E+03</pdfrwt>
<totfact> 0.57511712E+03</totfact>
</mgrwt>
</event>
<event>
 5    1  0.3209683E-002  0.1249867E+03  0.7818608E-02  0.1235090E+00
         -4   -1    0    0    0  501 -0.00000000000E+00  0.00000000000E+00  0.37386959435E+02  0.37408523571E+02  0.12700000000E+01 0. -1.
          4   -1    0    0  501    0  0.00000000000E+00 -0.00000000000E+00 -0.10440390063E+03  0.10441162467E+03  0.12700000000E+01 0. -1.
         25    2    1    2    0    0  0.00000000000E+00  0.00000000000E+00 -0.67016941191E+02  0.14182014824E+03  0.12498673546E+03 0.  0.
    9000005    1    3    3    0    0 -0.86149191692E+00 -0.40993800228E+02 -0.87009486084E+02  0.96191914910E+02  0.10000000000E+01 0.  0.
    9000005    1    3    3    0    0  0.86149191692E+00  0.40993800228E+02  0.19992544893E+02  0.45628233329E+02  0.10000000000E+01 0.  0.
<mgrwt>
<rscale>  0 0.12498674E+03</rscale>
<asrwt>0</asrwt>
<pdfrwt beam="2">  1        4 0.16064391E-01 0.12498674E+03</pdfrwt>
<pdfrwt beam="1">  1       -4 0.57540929E-02 0.12498674E+03</pdfrwt>
<totfact> 0.10099018E+04</totfact>
</mgrwt>
</event>
<event>
 5    1  0.3209683E-002  0.1249961E+03  0.7818608E-02  0.1235075E+00
          4   -1    0    0  501    0  0.00000000000E+00  0.00000000000E+00  0.35051736872E+01  0.37281553854E+01  0.12700000000E+01 0. -1.
         -4   -1    0    0    0  501 -0.00000000000E+00 -0.00000000000E+00 -0.10797784813E+04  0.10797792282E+04  0.12700000000E+01 0. -1.
         25    2    1    2    0    0  0.00000000000E+00  0.00000000000E+00 -0.10762733076E+04  0.10835073835E+04  0.12499607006E+03 0.  0.
    9000005    1    3    3    0    0  0.15588883527E+01 -0.54216130407E+02 -0.26911299566E+03  0.27452617974E+03  0.10000000000E+01 0.  0.
    9000005    1    3    3    0    0 -0.15588883527E+01  0.54216130407E+02 -0.80716031194E+03  0.80898120380E+03  0.10000000000E+01 0.  0.
<mgrwt>
<rscale>  0 0.12499607E+03</rscale>
<asrwt>0</asrwt>
<pdfrwt beam="1">  1        4 0.55646824E-03 0.12499607E+03</pdfrwt>
<pdfrwt beam="2">  1       -4 0.16613672E+00 0.12499607E+03</pdfrwt>
<totfact> 0.27973608E+03</totfact>
</mgrwt>
</event>
<event>
 5    1  0.3209683E-002  0.1250004E+03  0.7818608E-02  0.1235069E+00
          4   -1    0    0  501    0  0.00000000000E+00  0.00000000000E+00  0.15449062922E+02  0.15501175606E+02  0.12700000000E+01 0.  1.
         -4   -1    0    0    0  501 -0.00000000000E+00 -0.00000000000E+00 -0.25236931859E+03  0.25237251408E+03  0.12700000000E+01 0.  1.
         25    2    1    2    0    0  0.00000000000E+00  0.00000000000E+00 -0.23692025567E+03  0.26787368969E+03  0.12500042433E+03 0.  0.
    9000005    1    3    3    0    0 -0.56262481254E+02  0.26297427895E+02 -0.10357372467E+03  0.12077060053E+03  0.10000000000E+01 0.  0.
    9000005    1    3    3    0    0  0.56262481254E+02 -0.26297427895E+02 -0.13334653100E+03  0.14710308916E+03  0.10000000000E+01 0.  0.
<mgrwt>
<rscale>  0 0.12500042E+03</rscale>
<asrwt>0</asrwt>
<pdfrwt beam="1">  1        4 0.23810336E-02 0.12500042E+03</pdfrwt>
<pdfrwt beam="2">  1       -4 0.38830300E-01 0.12500042E+03</pdfrwt>
<totfact> 0.79812891E+03</totfact>
</mgrwt>
</event>
<event>
 5    1  0.3209683E-002  0.1250020E+03  0.7818608E-02  0.1235066E+00
         -4   -1    0    0    0  501 -0.00000000000E+00  0.00000000000E+00  0.13129291996E+03  0.13129906219E+03  0.12700000000E+01 0. -1.
          4   -1    0    0  501    0  0.00000000000E+00 -0.00000000000E+00 -0.29732723391E+02  0.29759834345E+02  0.12700000000E+01 0. -1.
         25    2    1    2    0    0  0.00000000000E+00  0.00000000000E+00  0.10156019657E+03  0.16105889654E+03  0.12500197849E+03 0.  0.
    9000005    1    3    3    0    0 -0.60532749776E+02 -0.11634034577E+02  0.37526636091E+02  0.72172106608E+02  0.10000000000E+01 0.  0.
    9000005    1    3    3    0    0  0.60532749776E+02  0.11634034577E+02  0.64033560480E+02  0.88886789928E+02  0.10000000000E+01 0.  0.
<mgrwt>
<rscale>  0 0.12500198E+03</rscale>
<asrwt>0</asrwt>
<pdfrwt beam="2">  1        4 0.45768233E-02 0.12500198E+03</pdfrwt>
<pdfrwt beam="1">  1       -4 0.20201468E-01 0.12500198E+03</pdfrwt>
<totfact> 0.97134707E+03</totfact>
</mgrwt>
</event>
<event>
 5    1  0.3209683E-002  0.1250009E+03  0.7818608E-02  0.1235068E+00
          4   -1    0    0  501    0  0.00000000000E+00  0.00000000000E+00  0.98099709875E+01  0.98918365724E+01  0.12700000000E+01 0. -1.
         -4   -1    0    0    0  501 -0.00000000000E+00 -0.00000000000E+00 -0.39645972632E+03  0.39646176044E+03  0.12700000000E+01 0. -1.
         25    2    1    2    0    0  0.00000000000E+00  0.00000000000E+00 -0.38664975533E+03  0.40635359701E+03  0.12500085003E+03 0.  0.
    9000005    1    3    3    0    0  0.42874631736E+02 -0.43192191154E+02 -0.14717902671E+03  0.15926853213E+03  0.10000000000E+01 0.  0.
    9000005    1    3    3    0    0 -0.42874631736E+02  0.43192191154E+02 -0.23947072862E+03  0.24708506488E+03  0.10000000000E+01 0.  0.
<mgrwt>
<rscale>  0 0.12500085E+03</rscale>
<asrwt>0</asrwt>
<pdfrwt beam="1">  1        4 0.15156804E-02 0.12500085E+03</pdfrwt>
<pdfrwt beam="2">  1       -4 0.61000246E-01 0.12500085E+03</pdfrwt>
<totfact> 0.63938308E+03</totfact>
</mgrwt>
</event>
<event>
 5    1  0.3209683E-002  0.1249989E+03  0.7818608E-02  0.1235071E+00
          4   -1    0    0  501    0  0.00000000000E+00  0.00000000000E+00  0.13485207472E+02  0.13544878020E+02  0.12700000000E+01 0.  1.
         -4   -1    0    0    0  501 -0.00000000000E+00 -0.00000000000E+00 -0.28896383674E+03  0.28896662756E+03  0.12700000000E+01 0.  1.
         25    2    1    2    0    0  0.00000000000E+00  0.00000000000E+00 -0.27547862927E+03  0.30251150558E+03  0.12499894330E+03 0.  0.
    9000005    1    3    3    0    0 -0.59207080577E+01  0.61966604615E+02 -0.12442449766E+03  0.13913076759E+03  0.10000000000E+01 0.  0.
    9000005    1    3    3    0    0  0.59207080577E+01 -0.61966604615E+02 -0.15105413161E+03  0.16338073799E+03  0.10000000000E+01 0.  0.
<mgrwt>
<rscale>  0 0.12499894E+03</rscale>
<asrwt>0</asrwt>
<pdfrwt beam="1">  1        4 0.20794522E-02 0.12499894E+03</pdfrwt>
<pdfrwt beam="2">  1       -4 0.44460775E-01 0.12499894E+03</pdfrwt>
<totfact> 0.75286644E+03</totfact>
</mgrwt>
</event>
<event>
 5    1  0.3209683E-002  0.1250008E+03  0.7818608E-02  0.1235068E+00
         -4   -1    0    0    0  501 -0.00000000000E+00  0.00000000000E+00  0.70792701978E+02  0.70804092772E+02  0.12700000000E+01 0. -1.
          4   -1    0    0  501    0  0.00000000000E+00 -0.00000000000E+00 -0.55156284213E+02  0.55170903456E+02  0.12700000000E+01 0. -1.
         25    2    1    2    0    0  0.00000000000E+00  0.00000000000E+00  0.15636417765E+02  0.12597499623E+03  0.12500080845E+03 0.  0.
    9000005    1    3    3    0    0 -0.50733889165E+02 -0.32967087615E+02  0.23577989724E+02  0.64943652307E+02  0.10000000000E+01 0.  0.
    9000005    1    3    3    0    0  0.50733889165E+02  0.32967087615E+02 -0.79415719588E+01  0.61031343921E+02  0.10000000000E+01 0.  0.
<mgrwt>
<rscale>  0 0.12500081E+03</rscale>
<asrwt>0</asrwt>
<pdfrwt beam="2">  1        4 0.84875829E-02 0.12500081E+03</pdfrwt>
<pdfrwt beam="1">  1       -4 0.10893186E-01 0.12500081E+03</pdfrwt>
<totfact> 0.10431315E+04</totfact>
</mgrwt>
</event>
<event>
 5    1  0.3209683E-002  0.1249973E+03  0.7818608E-02  0.1235073E+00
         -4   -1    0    0    0  501 -0.00000000000E+00  0.00000000000E+00  0.21234664206E+02  0.21272608301E+02  0.12700000000E+01 0.  1.
          4   -1    0    0  501    0  0.00000000000E+00 -0.00000000000E+00 -0.18374404691E+03  0.18374843585E+03  0.12700000000E+01 0.  1.
         25    2    1    2    0    0  0.00000000000E+00  0.00000000000E+00 -0.16250938271E+03  0.20502104415E+03  0.12499731627E+03 0.  0.
    9000005    1    3    3    0    0 -0.39200181861E+02  0.38177005972E+02 -0.31750309042E+02  0.63271005739E+02  0.10000000000E+01 0.  0.
    9000005    1    3    3    0    0  0.39200181861E+02 -0.38177005972E+02 -0.13075907366E+03  0.14175003841E+03  0.10000000000E+01 0.  0.
<mgrwt>
<rscale>  0 0.12499732E+03</rscale>
<asrwt>0</asrwt>
<pdfrwt beam="2">  1        4 0.28271570E-01 0.12499732E+03</pdfrwt>
<pdfrwt beam="1">  1       -4 0.32701279E-02 0.12499732E+03</pdfrwt>
<totfact> 0.89300881E+03</totfact>
</mgrwt>
</event>
<event>
 5    1  0.3209683E-002  0.1249987E+03  0.7818608E-02  0.1235071E+00
         -4   -1    0    0    0  501 -0.00000000000E+00  0.00000000000E+00  0.68531370497E+02  0.68543137091E+02  0.12700000000E+01 0.  1.
          4   -1    0    0  501    0  0.00000000000E+00 -0.00000000000E+00 -0.56974505418E+02  0.56988658237E+02  0.12700000000E+01 0.  1.
         25    2    1    2    0    0  0.00000000000E+00  0.00000000000E+00  0.11556865079E+02  0.12553179533E+03  0.12499868202E+03 0.  0.
    9000005    1    3    3    0    0 -0.23013961576E+02  0.56894142139E+02  0.17600716572E+02  0.63854295556E+02  0.10000000000E+01 0.  0.
    9000005    1    3    3    0    0  0.23013961576E+02 -0.56894142139E+02 -0.60438514930E+01  0.61677499771E+02  0.10000000000E+01 0.  0.
<mgrwt>
<rscale>  0 0.12499868E+03</rscale>
<asrwt>0</asrwt>
<pdfrwt beam="2">  1        4 0.87673023E-02 0.12499868E+03</pdfrwt>
<pdfrwt beam="1">  1       -4 0.10545282E-01 0.12499868E+03</pdfrwt>
<totfact> 0.10441562E+04</totfact>
</mgrwt>
</event>
<event>
 5    1  0.3209683E-002  0.1249973E+03  0.7818608E-02  0.1235074E+00
         -4   -1    0    0    0  501 -0.00000000000E+00  0.00000000000E+00  0.27674536644E+02  0.27703661825E+02  0.12700000000E+01 0.  1.
          4   -1    0    0  501    0  0.00000000000E+00 -0.00000000000E+00 -0.14103721929E+03  0.14104293717E+03  0.12700000000E+01 0.  1.
         25    2    1    2    0    0  0.00000000000E+00  0.00000000000E+00 -0.11336268265E+03  0.16874659900E+03  0.12499726739E+03 0.  0.
    9000005    1    3    3    0    0 -0.43542967267E+02 -0.32385527062E+02 -0.14847236667E+02  0.56269465949E+02  0.10000000000E+01 0.  0.
    9000005    1    3    3    0    0  0.43542967267E+02  0.32385527062E+02 -0.98515445981E+02  0.11247713305E+03  0.10000000000E+01 0.  0.
<mgrwt>
<rscale>  0 0.12499727E+03</rscale>
<asrwt>0</asrwt>
<pdfrwt beam="2">  1        4 0.21700714E-01 0.12499727E+03</pdfrwt>
<pdfrwt beam="1">  1       -4 0.42603013E-02 0.12499727E+03</pdfrwt>
<totfact> 0.95688385E+03</totfact>
</mgrwt>
</event>
<event>
 5    1  0.3209683E-002  0.1250009E+03  0.7818608E-02  0.1235068E+00
          4   -1    0    0  501    0  0.00000000000E+00  0.00000000000E+00  0.21559853156E+02  0.21597225935E+02  0.12700000000E+01 0. -1.
         -4   -1    0    0    0  501 -0.00000000000E+00 -0.00000000000E+00 -0.18098776729E+03  0.18099222306E+03  0.12700000000E+01 0. -1.
         25    2    1    2    0    0  0.00000000000E+00  0.00000000000E+00 -0.15942791413E+03  0.20258944899E+03  0.12500090015E+03 0.  0.
    9000005    1    3    3    0    0 -0.10185624674E+02  0.33599208112E+02  0.40727133350E+01  0.35358743327E+02  0.10000000000E+01 0.  0.
    9000005    1    3    3    0    0  0.10185624674E+02 -0.33599208112E+02 -0.16350062747E+03  0.16723070567E+03  0.10000000000E+01 0.  0.
<mgrwt>
<rscale>  0 0.12500090E+03</rscale>
<asrwt>0</asrwt>
<pdfrwt beam="1">  1        4 0.33201182E-02 0.12500090E+03</pdfrwt>
<pdfrwt beam="2">  1       -4 0.27847488E-01 0.12500090E+03</pdfrwt>
<totfact> 0.89698799E+03</totfact>
</mgrwt>
</event>
<event>
 5    1  0.3209683E-002  0.1250000E+03  0.7818608E-02  0.1235069E+00
          4   -1    0    0  501    0  0.00000000000E+00  0.00000000000E+00  0.98244739408E+01  0.99062196732E+01  0.12700000000E+01 0. -1.
         -4   -1    0    0    0  501 -0.00000000000E+00 -0.00000000000E+00 -0.39587384356E+03  0.39587588070E+03  0.12700000000E+01 0. -1.
         25    2    1    2    0    0  0.00000000000E+00  0.00000000000E+00 -0.38604936962E+03  0.40578210037E+03  0.12499998878E+03 0.  0.
    9000005    1    3    3    0    0 -0.25010382155E+02 -0.56453043757E+02 -0.16175530251E+03  0.17314226305E+03  0.10000000000E+01 0.  0.
    9000005    1    3    3    0    0  0.25010382155E+02  0.56453043757E+02 -0.22429406712E+03  0.23263983732E+03  0.10000000000E+01 0.  0.
<mgrwt>
<rscale>  0 0.12499999E+03</rscale>
<asrwt>0</asrwt>
<pdfrwt beam="1">  1        4 0.15179027E-02 0.12499999E+03</pdfrwt>
<pdfrwt beam="2">  1       -4 0.60910101E-01 0.12499999E+03</pdfrwt>
<totfact> 0.63994309E+03</totfact>
</mgrwt>
</event>
<event>
 5    1  0.3209683E-002  0.1249984E+03  0.7818608E-02  0.1235072E+00
          4   -1    0    0  501    0  0.00000000000E+00  0.00000000000E+00  0.33496748383E+01  0.35823486043E+01  0.12700000000E+01 0.  1.
         -4   -1    0    0    0  501 -0.00000000000E+00 -0.00000000000E+00 -0.11267543503E+04  0.11267550660E+04  0.12700000000E+01 0.  1.
         25    2    1    2    0    0  0.00000000000E+00  0.00000000000E+00 -0.11234046754E+04  0.11303374146E+04  0.12499842426E+03 0.  0.
    9000005    1    3    3    0    0 -0.43117304039E+02 -0.34839975504E+02 -0.82257233321E+03  0.82443869946E+03  0.10000000000E+01 0.  0.
    9000005    1    3    3    0    0  0.43117304039E+02  0.34839975504E+02 -0.30083234222E+03  0.30589871515E+03  0.10000000000E+01 0.  0.
<mgrwt>
<rscale>  0 0.12499842E+03</rscale>
<asrwt>0</asrwt>
<pdfrwt beam="1">  1        4 0.53328853E-03 0.12499842E+03</pdfrwt>
<pdfrwt beam="2">  1       -4 0.17336448E+00 0.12499842E+03</pdfrwt>
<totfact> 0.26612985E+03</totfact>
</mgrwt>
</event>
<event>
 5    1  0.3209683E-002  0.1249987E+03  0.7818608E-02  0.1235071E+00
         -4   -1    0    0    0  501 -0.00000000000E+00  0.00000000000E+00  0.80597030005E+02  0.80607035336E+02  0.12700000000E+01 0.  1.
          4   -1    0    0  501    0  0.00000000000E+00 -0.00000000000E+00 -0.48444094420E+02  0.48460738585E+02  0.12700000000E+01 0.  1.
         25    2    1    2    0    0  0.00000000000E+00  0.00000000000E+00  0.32152935585E+02  0.12906777392E+03  0.12499871599E+03 0.  0.
    9000005    1    3    3    0    0  0.30029137417E+02  0.54206059138E+02  0.24409099029E+02  0.66609684406E+02  0.10000000000E+01 0.  0.
    9000005    1    3    3    0    0 -0.30029137417E+02 -0.54206059138E+02  0.77438365567E+01  0.62458089515E+02  0.10000000000E+01 0.  0.
<mgrwt>
<rscale>  0 0.12499872E+03</rscale>
<asrwt>0</asrwt>
<pdfrwt beam="2">  1        4 0.74549876E-02 0.12499872E+03</pdfrwt>
<pdfrwt beam="1">  1       -4 0.12401593E-01 0.12499872E+03</pdfrwt>
<totfact> 0.10364791E+04</totfact>
</mgrwt>
</event>
<event>
 5    1  0.3209683E-002  0.1249997E+03  0.7818608E-02  0.1235070E+00
         -4   -1    0    0    0  501 -0.00000000000E+00  0.00000000000E+00  0.76449726349E+02  0.76460274384E+02  0.12700000000E+01 0.  1.
          4   -1    0    0  501    0  0.00000000000E+00 -0.00000000000E+00 -0.51073463410E+02  0.51089250970E+02  0.12700000000E+01 0.  1.
         25    2    1    2    0    0  0.00000000000E+00  0.00000000000E+00  0.25376262939E+02  0.12754952535E+03  0.12499970679E+03 0.  0.
    9000005    1    3    3    0    0  0.67847104485E+01 -0.21852933019E+02  0.72026294433E+02  0.75580222725E+02  0.10000000000E+01 0.  0.
    9000005    1    3    3    0    0 -0.67847104485E+01  0.21852933019E+02 -0.46650031494E+02  0.51969302629E+02  0.10000000000E+01 0.  0.
<mgrwt>
<rscale>  0 0.12499971E+03</rscale>
<asrwt>0</asrwt>
<pdfrwt beam="2">  1        4 0.78594818E-02 0.12499971E+03</pdfrwt>
<pdfrwt beam="1">  1       -4 0.11763522E-01 0.12499971E+03</pdfrwt>
<totfact> 0.10397297E+04</totfact>
</mgrwt>
</event>
<event>
 5    1  0.3209683E-002  0.1249975E+03  0.7818608E-02  0.1235073E+00
          4   -1    0    0  501    0  0.00000000000E+00  0.00000000000E+00  0.17792199272E+03  0.17792652526E+03  0.12700000000E+01 0.  1.
         -4   -1    0    0    0  501 -0.00000000000E+00 -0.00000000000E+00 -0.21930789424E+02  0.21967531148E+02  0.12700000000E+01 0.  1.
         25    2    1    2    0    0  0.00000000000E+00  0.00000000000E+00  0.15599120329E+03  0.19989405641E+03  0.12499751311E+03 0.  0.
    9000005    1    3    3    0    0  0.27838228605E+02 -0.51465552196E+02  0.11308392519E+03  0.12732888192E+03  0.10000000000E+01 0.  0.
    9000005    1    3    3    0    0 -0.27838228605E+02  0.51465552196E+02  0.42907278104E+02  0.72565174492E+02  0.10000000000E+01 0.  0.
<mgrwt>
<rscale>  0 0.12499751E+03</rscale>
<asrwt>0</asrwt>
<pdfrwt beam="1">  1        4 0.27375791E-01 0.12499751E+03</pdfrwt>
<pdfrwt beam="2">  1       -4 0.33771424E-02 0.12499751E+03</pdfrwt>
<totfact> 0.90158393E+03</totfact>
</mgrwt>
</event>
<event>
 5    1  0.3209683E-002  0.1249863E+03  0.7818608E-02  0.1235091E+00
         -4   -1    0    0    0  501 -0.00000000000E+00  0.00000000000E+00  0.32095112699E+02  0.32120229749E+02  0.12700000000E+01 0.  1.
          4   -1    0    0  501    0  0.00000000000E+00 -0.00000000000E+00 -0.12160594099E+03  0.12161257248E+03  0.12700000000E+01 0.  1.
         25    2    1    2    0    0  0.00000000000E+00  0.00000000000E+00 -0.89510828292E+02  0.15373280223E+03  0.12498634365E+03 0.  0.
    9000005    1    3    3    0    0 -0.27347688080E+02 -0.33282243607E+02 -0.10042948702E+03  0.10928259535E+03  0.10000000000E+01 0.  0.
    9000005    1    3    3    0    0  0.27347688080E+02  0.33282243607E+02  0.10918658731E+02  0.44450206875E+02  0.10000000000E+01 0.  0.
<mgrwt>
<rscale>  0 0.12498634E+03</rscale>
<asrwt>0</asrwt>
<pdfrwt beam="2">  1        4 0.18711048E-01 0.12498634E+03</pdfrwt>
<pdfrwt beam="1">  1       -4 0.49401519E-02 0.12498634E+03</pdfrwt>
<totfact> 0.98595043E+03</totfact>
</mgrwt>
</event>
<event>
 5    1  0.3209683E-002  0.1250016E+03  0.7818608E-02  0.1235067E+00
          4   -1    0    0  501    0  0.00000000000E+00  0.00000000000E+00  0.23465212697E+03  0.23465556373E+03  0.12700000000E+01 0.  1.
         -4   -1    0    0    0  501 -0.00000000000E+00 -0.00000000000E+00 -0.16619613828E+02  0.16668067188E+02  0.12700000000E+01 0.  1.
         25    2    1    2    0    0  0.00000000000E+00  0.00000000000E+00  0.21803251314E+03  0.25132363092E+03  0.12500156268E+03 0.  0.
    9000005    1    3    3    0    0  0.28819442500E+02  0.46178831901E+02  0.17073444128E+03  0.17920461551E+03  0.10000000000E+01 0.  0.
    9000005    1    3    3    0    0 -0.28819442500E+02 -0.46178831901E+02  0.47298071859E+02  0.72119015407E+02  0.10000000000E+01 0.  0.
<mgrwt>
<rscale>  0 0.12500156E+03</rscale>
<asrwt>0</asrwt>
<pdfrwt beam="1">  1        4 0.36104318E-01 0.12500156E+03</pdfrwt>
<pdfrwt beam="2">  1       -4 0.25608553E-02 0.12500156E+03</pdfrwt>
<totfact> 0.82136438E+03</totfact>
</mgrwt>
</event>
<event>
 5    1  0.3209683E-002  0.1249982E+03  0.7818608E-02  0.1235072E+00
         -4   -1    0    0    0  501 -0.00000000000E+00  0.00000000000E+00  0.58414241027E+01  0.59778872144E+01  0.12700000000E+01 0. -1.
          4   -1    0    0  501    0  0.00000000000E+00 -0.00000000000E+00 -0.66083821485E+03  0.66083943519E+03  0.12700000000E+01 0. -1.
         25    2    1    2    0    0  0.00000000000E+00  0.00000000000E+00 -0.65499679075E+03  0.66681732241E+03  0.12499818228E+03 0.  0.
    9000005    1    3    3    0    0  0.22156187294E+02  0.15773580699E+02 -0.27361213136E+02  0.38591948224E+02  0.10000000000E+01 0.  0.
    9000005    1    3    3    0    0 -0.22156187294E+02 -0.15773580699E+02 -0.62763557761E+03  0.62822537418E+03  0.10000000000E+01 0.  0.
<mgrwt>
<rscale>  0 0.12499818E+03</rscale>
<asrwt>0</asrwt>
<pdfrwt beam="2">  1        4 0.10167795E+00 0.12499818E+03</pdfrwt>
<pdfrwt beam="1">  1       -4 0.90927219E-03 0.12499818E+03</pdfrwt>
<totfact> 0.44898959E+03</totfact>
</mgrwt>
</event>
<event>
 5    1  0.3209683E-002  0.1250010E+03  0.7818608E-02  0.1235068E+00
         -4   -1    0    0    0  501 -0.00000000000E+00  0.00000000000E+00  0.41408446398E+03  0.41408641152E+03  0.12700000000E+01 0. -1.
          4   -1    0    0  501    0  0.00000000000E+00 -0.00000000000E+00 -0.93888850861E+01  0.94743898569E+01  0.12700000000E+01 0. -1.
         25    2    1    2    0    0  0.00000000000E+00  0.00000000000E+00  0.40469557889E+03  0.42356080138E+03  0.12500096356E+03 0.  0.
    9000005    1    3    3    0    0 -0.61983153338E+02  0.67776737087E+01  0.21650736349E+03  0.22530931317E+03  0.10000000000E+01 0.  0.
    9000005    1    3    3    0    0  0.61983153338E+02 -0.67776737087E+01  0.18818821540E+03  0.19825148820E+03  0.10000000000E+01 0.  0.
<mgrwt>
<rscale>  0 0.12500096E+03</rscale>
<asrwt>0</asrwt>
<pdfrwt beam="2">  1        4 0.14511713E-02 0.12500096E+03</pdfrwt>
<pdfrwt beam="1">  1       -4 0.63712016E-01 0.12500096E+03</pdfrwt>
<totfact> 0.62322715E+03</totfact>
</mgrwt>
</event>
<event>
 5    1  0.3209683E-002  0.1249966E+03  0.7818608E-02  0.1235075E+00
          4   -1    0    0  501    0  0.00000000000E+00  0.00000000000E+00  0.56930635739E+02  0.56944799461E+02  0.12700000000E+01 0. -1.
         -4   -1    0    0    0  501 -0.00000000000E+00 -0.00000000000E+00 -0.68581888668E+02  0.68593646596E+02  0.12700000000E+01 0. -1.
         25    2    1    2    0    0  0.00000000000E+00  0.00000000000E+00 -0.11651252929E+02  0.12553844606E+03  0.12499659893E+03 0.  0.
    9000005    1    3    3    0    0 -0.58412099171E+01 -0.61625227256E+02  0.27700409723E+01  0.61971457097E+02  0.10000000000E+01 0.  0.
    9000005    1    3    3    0    0  0.58412099171E+01  0.61625227256E+02 -0.14421293902E+02  0.63566988960E+02  0.10000000000E+01 0.  0.
<mgrwt>
<rscale>  0 0.12499660E+03</rscale>
<asrwt>0</asrwt>
<pdfrwt beam="1">  1        4 0.87605532E-02 0.12499660E+03</pdfrwt>
<pdfrwt beam="2">  1       -4 0.10553054E-01 0.12499660E+03</pdfrwt>
<totfact> 0.10441906E+04</totfact>
</mgrwt>
</event>
<event>
 5    1  0.3209683E-002  0.1250001E+03  0.7818608E-02  0.1235069E+00
          4   -1    0    0  501    0  0.00000000000E+00  0.00000000000E+00  0.17853968672E+02  0.17899080908E+02  0.12700000000E+01 0.  1.
         -4   -1    0    0    0  501 -0.00000000000E+00 -0.00000000000E+00 -0.21846633578E+03  0.21847002717E+03  0.12700000000E+01 0.  1.
         25    2    1    2    0    0  0.00000000000E+00  0.00000000000E+00 -0.20061236711E+03  0.23636910808E+03  0.12500013366E+03 0.  0.
    9000005    1    3    3    0    0 -0.40564731774E+02 -0.16091257363E+02 -0.15722696257E+02  0.46396435262E+02  0.10000000000E+01 0.  0.
    9000005    1    3    3    0    0  0.40564731774E+02  0.16091257363E+02 -0.18488967085E+03  0.18997267281E+03  0.10000000000E+01 0.  0.
<mgrwt>
<rscale>  0 0.12500013E+03</rscale>
<asrwt>0</asrwt>
<pdfrwt beam="1">  1        4 0.27505187E-02 0.12500013E+03</pdfrwt>
<pdfrwt beam="2">  1       -4 0.33613958E-01 0.12500013E+03</pdfrwt>
<totfact> 0.84340863E+03</totfact>
</mgrwt>
</event>
<event>
 5    1  0.3209683E-002  0.1249993E+03  0.7818608E-02  0.1235070E+00
          4   -1    0    0  501    0  0.00000000000E+00  0.00000000000E+00  0.52698779473E+03  0.52698932503E+03  0.12700000000E+01 0.  1.
         -4   -1    0    0    0  501 -0.00000000000E+00 -0.00000000000E+00 -0.73563707811E+01  0.74651919647E+01  0.12700000000E+01 0.  1.
         25    2    1    2    0    0  0.00000000000E+00  0.00000000000E+00  0.51963142395E+03  0.53445451700E+03  0.12499925592E+03 0.  0.
    9000005    1    3    3    0    0  0.71345943327E+01 -0.24816344267E+02  0.16499005095E+02  0.30658939124E+02  0.10000000000E+01 0.  0.
    9000005    1    3    3    0    0 -0.71345943327E+01  0.24816344267E+02  0.50313241886E+03  0.50379557787E+03  0.10000000000E+01 0.  0.
<mgrwt>
<rscale>  0 0.12499926E+03</rscale>
<asrwt>0</asrwt>
<pdfrwt beam="1">  1        4 0.81083565E-01 0.12499926E+03</pdfrwt>
<pdfrwt beam="2">  1       -4 0.11402375E-02 0.12499926E+03</pdfrwt>
<totfact> 0.53287682E+03</totfact>
</mgrwt>
</event>
<event>
 5    1  0.3209683E-002  0.1249776E+03  0.7818608E-02  0.1235104E+00
          4   -1    0    0  501    0  0.00000000000E+00  0.00000000000E+00  0.36936070903E+02  0.36957898124E+02  0.12700000000E+01 0. -1.
         -4   -1    0    0    0  501 -0.00000000000E+00 -0.00000000000E+00 -0.10566227598E+03  0.10566990804E+03  0.12700000000E+01 0. -1.
         25    2    1    2    0    0  0.00000000000E+00  0.00000000000E+00 -0.68726205080E+02  0.14262780617E+03  0.12497759730E+03 0.  0.
    9000005    1    3    3    0    0 -0.33214740742E+02  0.35965006539E+02 -0.78667839578E+02  0.92662450225E+02  0.10000000000E+01 0.  0.
    9000005    1    3    3    0    0  0.33214740742E+02 -0.35965006539E+02  0.99416344981E+01  0.49965355942E+02  0.10000000000E+01 0.  0.
<mgrwt>
<rscale>  0 0.12497760E+03</rscale>
<asrwt>0</asrwt>
<pdfrwt beam="1">  1        4 0.56847386E-02 0.12497760E+03</pdfrwt>
<pdfrwt beam="2">  1       -4 0.16258001E-01 0.12497760E+03</pdfrwt>
<totfact> 0.10084498E+04</totfact>
</mgrwt>
</event>
<event>
 5    1  0.3209683E-002  0.1250034E+03  0.7818608E-02  0.1235064E+00
          4   -1    0    0  501    0  0.00000000000E+00  0.00000000000E+00  0.31928223468E+02  0.31953471703E+02  0.12700000000E+01 0.  1.
         -4   -1    0    0    0  501 -0.00000000000E+00 -0.00000000000E+00 -0.12227440426E+03  0.12228099949E+03  0.12700000000E+01 0.  1.
         25    2    1    2    0    0  0.00000000000E+00  0.00000000000E+00 -0.90346180791E+02  0.15423447120E+03  0.12500335884E+03 0.  0.
    9000005    1    3    3    0    0 -0.44761508001E+02 -0.38733692527E+02 -0.69898274187E+02  0.91600547321E+02  0.10000000000E+01 0.  0.
    9000005    1    3    3    0    0  0.44761508001E+02  0.38733692527E+02 -0.20447906604E+02  0.62633923874E+02  0.10000000000E+01 0.  0.
<mgrwt>
<rscale>  0 0.12500336E+03</rscale>
<asrwt>0</asrwt>
<pdfrwt beam="1">  1        4 0.49144839E-02 0.12500336E+03</pdfrwt>
<pdfrwt beam="2">  1       -4 0.18813896E-01 0.12500336E+03</pdfrwt>
<totfact> 0.98458553E+03</totfact>
</mgrwt>
</event>
<event>
 5    1  0.3209683E-002  0.1250022E+03  0.7818608E-02  0.1235066E+00
          4   -1    0    0  501    0  0.00000000000E+00  0.00000000000E+00  0.47084099782E+02  0.47101224531E+02  0.12700000000E+01 0. -1.
         -4   -1    0    0    0  501 -0.00000000000E+00 -0.00000000000E+00 -0.82929141619E+02  0.82938865616E+02  0.12700000000E+01 0. -1.
         25    2    1    2    0    0  0.00000000000E+00  0.00000000000E+00 -0.35845041836E+02  0.13004009015E+03  0.12500223206E+03 0.  0.
    9000005    1    3    3    0    0 -0.17278744207E+02 -0.59988976102E+02 -0.14951324360E+02  0.64201046372E+02  0.10000000000E+01 0.  0.
    9000005    1    3    3    0    0  0.17278744207E+02  0.59988976102E+02 -0.20893717477E+02  0.65839043775E+02  0.10000000000E+01 0.  0.
<mgrwt>
<rscale>  0 0.12500223E+03</rscale>
<asrwt>0</asrwt>
<pdfrwt beam="1">  1        4 0.72457729E-02 0.12500223E+03</pdfrwt>
<pdfrwt beam="2">  1       -4 0.12760395E-01 0.12500223E+03</pdfrwt>
<totfact> 0.10343129E+04</totfact>
</mgrwt>
</event>
<event>
 5    1  0.3209683E-002  0.1250030E+03  0.7818608E-02  0.1235065E+00
          4   -1    0    0  501    0  0.00000000000E+00  0.00000000000E+00  0.46943390679E+02  0.46960566739E+02  0.12700000000E+01 0.  1.
         -4   -1    0    0    0  501 -0.00000000000E+00 -0.00000000000E+00 -0.83178696443E+02  0.83188391269E+02  0.12700000000E+01 0.  1.
         25    2    1    2    0    0  0.00000000000E+00  0.00000000000E+00 -0.36235305764E+02  0.13014895801E+03  0.12500301551E+03 0.  0.
    9000005    1    3    3    0    0 -0.25917037513E+01 -0.47632642284E+02  0.23915736862E+02  0.53371790385E+02  0.10000000000E+01 0.  0.
    9000005    1    3    3    0    0  0.25917037513E+01  0.47632642284E+02 -0.60151042626E+02  0.76777167623E+02  0.10000000000E+01 0.  0.
<mgrwt>
<rscale>  0 0.12500302E+03</rscale>
<asrwt>0</asrwt>
<pdfrwt beam="1">  1        4 0.72241271E-02 0.12500302E+03</pdfrwt>
<pdfrwt beam="2">  1       -4 0.12798790E-01 0.12500302E+03</pdfrwt>
<totfact> 0.10340618E+04</totfact>
</mgrwt>
</event>
<event>
 5    1  0.3209683E-002  0.1249918E+03  0.7818608E-02  0.1235082E+00
          4   -1    0    0  501    0  0.00000000000E+00  0.00000000000E+00  0.69142285337E+03  0.69142401973E+03  0.12700000000E+01 0.  1.
         -4   -1    0    0    0  501 -0.00000000000E+00 -0.00000000000E+00 -0.55762738535E+01  0.57190672394E+01  0.12700000000E+01 0.  1.
         25    2    1    2    0    0  0.00000000000E+00  0.00000000000E+00  0.68584657951E+03  0.69714308697E+03  0.12499181204E+03 0.  0.
    9000005    1    3    3    0    0 -0.52559823636E+02  0.27212783996E+02  0.23114080491E+03  0.23860038217E+03  0.10000000000E+01 0.  0.
    9000005    1    3    3    0    0  0.52559823636E+02 -0.27212783996E+02  0.45470577460E+03  0.45854270480E+03  0.10000000000E+01 0.  0.
<mgrwt>
<rscale>  0 0.12499181E+03</rscale>
<asrwt>0</asrwt>
<pdfrwt beam="1">  1        4 0.10638378E+00 0.12499181E+03</pdfrwt>
<pdfrwt beam="2">  1       -4 0.86896241E-03 0.12499181E+03</pdfrwt>
<totfact> 0.43245689E+03</totfact>
</mgrwt>
</event>
<event>
 5    1  0.3209683E-002  0.1250000E+03  0.7818608E-02  0.1235069E+00
          4   -1    0    0  501    0  0.00000000000E+00  0.00000000000E+00  0.10336630322E+02  0.10414356745E+02  0.12700000000E+01 0. -1.
         -4   -1    0    0    0  501 -0.00000000000E+00 -0.00000000000E+00 -0.37640921949E+03  0.37641136196E+03  0.12700000000E+01 0. -1.
         25    2    1    2    0    0  0.00000000000E+00  0.00000000000E+00 -0.36607258916E+03  0.38682571871E+03  0.12499998446E+03 0.  0.
    9000005    1    3    3    0    0 -0.40914166791E+02 -0.23825924390E+01 -0.37044228640E+02  0.55253241230E+02  0.10000000000E+01 0.  0.
    9000005    1    3    3    0    0  0.40914166791E+02  0.23825924390E+01 -0.32902836052E+03  0.33157247748E+03  0.10000000000E+01 0.  0.
<mgrwt>
<rscale>  0 0.12499998E+03</rscale>
<asrwt>0</asrwt>
<pdfrwt beam="1">  1        4 0.15963949E-02 0.12499998E+03</pdfrwt>
<pdfrwt beam="2">  1       -4 0.57915244E-01 0.12499998E+03</pdfrwt>
<totfact> 0.65854622E+03</totfact>
</mgrwt>
</event>
<event>
 5    1  0.3209683E-002  0.1249984E+03  0.7818608E-02  0.1235072E+00
          4   -1    0    0  501    0  0.00000000000E+00  0.00000000000E+00  0.26335218968E+03  0.26335525191E+03  0.12700000000E+01 0. -1.
         -4   -1    0    0    0  501 -0.00000000000E+00 -0.00000000000E+00 -0.14802087703E+02  0.14856469983E+02  0.12700000000E+01 0. -1.
         25    2    1    2    0    0  0.00000000000E+00  0.00000000000E+00  0.24855010198E+03  0.27821172190E+03  0.12499843602E+03 0.  0.
    9000005    1    3    3    0    0 -0.55058750211E+02 -0.24351902942E+02  0.86986999183E+02  0.10579328513E+03  0.10000000000E+01 0.  0.
    9000005    1    3    3    0    0  0.55058750211E+02  0.24351902942E+02  0.16156310280E+03  0.17241843677E+03  0.10000000000E+01 0.  0.
<mgrwt>
<rscale>  0 0.12499844E+03</rscale>
<asrwt>0</asrwt>
<pdfrwt beam="1">  1        4 0.40520138E-01 0.12499844E+03</pdfrwt>
<pdfrwt beam="2">  1       -4 0.22816632E-02 0.12499844E+03</pdfrwt>
<totfact> 0.78418544E+03</totfact>
</mgrwt>
</event>
<event>
 5    1  0.3209683E-002  0.1250013E+03  0.7818608E-02  0.1235067E+00
          4   -1    0    0  501    0  0.00000000000E+00  0.00000000000E+00  0.18620137051E+03  0.18620570153E+03  0.12700000000E+01 0.  1.
         -4   -1    0    0    0  501 -0.00000000000E+00 -0.00000000000E+00 -0.20955254306E+02  0.20993703414E+02  0.12700000000E+01 0.  1.
         25    2    1    2    0    0  0.00000000000E+00  0.00000000000E+00  0.16524611621E+03  0.20719940494E+03  0.12500125794E+03 0.  0.
    9000005    1    3    3    0    0  0.41842068777E+01  0.13672122770E+02 -0.18215690836E+02  0.23178565980E+02  0.10000000000E+01 0.  0.
    9000005    1    3    3    0    0 -0.41842068777E+01 -0.13672122770E+02  0.18346180704E+03  0.18402083896E+03  0.10000000000E+01 0.  0.
<mgrwt>
<rscale>  0 0.12500126E+03</rscale>
<asrwt>0</asrwt>
<pdfrwt beam="1">  1        4 0.28649655E-01 0.12500126E+03</pdfrwt>
<pdfrwt beam="2">  1       -4 0.32271761E-02 0.12500126E+03</pdfrwt>
<totfact> 0.88932805E+03</totfact>
</mgrwt>
</event>
<event>
 5    1  0.3209683E-002  0.1250031E+03  0.7818608E-02  0.1235064E+00
         -4   -1    0    0    0  501 -0.00000000000E+00  0.00000000000E+00  0.88201118331E+03  0.88201209764E+03  0.12700000000E+01 0. -1.
          4   -1    0    0  501    0  0.00000000000E+00 -0.00000000000E+00 -0.43370421568E+01  0.45191630497E+01  0.12700000000E+01 0. -1.
         25    2    1    2    0    0  0.00000000000E+00  0.00000000000E+00  0.87767414116E+03  0.88653126069E+03  0.12500311249E+03 0.  0.
    9000005    1    3    3    0    0 -0.26231100548E+02 -0.39223859773E+02  0.72942717458E+03  0.73095251886E+03  0.10000000000E+01 0.  0.
    9000005    1    3    3    0    0  0.26231100548E+02  0.39223859773E+02  0.14824696658E+03  0.15557874184E+03  0.10000000000E+01 0.  0.
<mgrwt>
<rscale>  0 0.12500311E+03</rscale>
<asrwt>0</asrwt>
<pdfrwt beam="2">  1        4 0.68131760E-03 0.12500311E+03</pdfrwt>
<pdfrwt beam="1">  1       -4 0.13570797E+00 0.12500311E+03</pdfrwt>
<totfact> 0.34674899E+03</totfact>
</mgrwt>
</event>
<event>
 5    1  0.3209683E-002  0.1250124E+03  0.7818608E-02  0.1235050E+00
          4   -1    0    0  501    0  0.00000000000E+00  0.00000000000E+00  0.30772551194E+02  0.30798746841E+02  0.12700000000E+01 0.  1.
         -4   -1    0    0    0  501 -0.00000000000E+00 -0.00000000000E+00 -0.12688113207E+03  0.12688748786E+03  0.12700000000E+01 0.  1.
         25    2    1    2    0    0  0.00000000000E+00  0.00000000000E+00 -0.96108580880E+02  0.15768623471E+03  0.12501235658E+03 0.  0.
    9000005    1    3    3    0    0  0.28348806772E+02 -0.50994860052E+02 -0.19796001624E+02  0.61619901634E+02  0.10000000000E+01 0.  0.
    9000005    1    3    3    0    0 -0.28348806772E+02  0.50994860052E+02 -0.76312579256E+02  0.96066333071E+02  0.10000000000E+01 0.  0.
<mgrwt>
<rscale>  0 0.12501236E+03</rscale>
<asrwt>0</asrwt>
<pdfrwt beam="1">  1        4 0.47367427E-02 0.12501236E+03</pdfrwt>
<pdfrwt beam="2">  1       -4 0.19522678E-01 0.12501236E+03</pdfrwt>
<totfact> 0.97763561E+03</totfact>
</mgrwt>
</event>
<event>
 5    1  0.3209683E-002  0.1250076E+03  0.7818608E-02  0.1235057E+00
          4   -1    0    0  501    0  0.00000000000E+00  0.00000000000E+00  0.27750776408E+02  0.27779821656E+02  0.12700000000E+01 0.  1.
         -4   -1    0    0    0  501 -0.00000000000E+00 -0.00000000000E+00 -0.14067341676E+03  0.14067914943E+03  0.12700000000E+01 0.  1.
         25    2    1    2    0    0  0.00000000000E+00  0.00000000000E+00 -0.11292264036E+03  0.16845897109E+03  0.12500760871E+03 0.  0.
    9000005    1    3    3    0    0  0.60520714651E+02 -0.98260979739E+01 -0.72767515510E+02  0.95159972766E+02  0.10000000000E+01 0.  0.
    9000005    1    3    3    0    0 -0.60520714651E+02  0.98260979739E+01 -0.40155124846E+02  0.73298998320E+02  0.10000000000E+01 0.  0.
<mgrwt>
<rscale>  0 0.12500761E+03</rscale>
<asrwt>0</asrwt>
<pdfrwt beam="1">  1        4 0.42720255E-02 0.12500761E+03</pdfrwt>
<pdfrwt beam="2">  1       -4 0.21644739E-01 0.12500761E+03</pdfrwt>
<totfact> 0.95719943E+03</totfact>
</mgrwt>
</event>
<event>
 5    1  0.3209683E-002  0.1249981E+03  0.7818608E-02  0.1235072E+00
          4   -1    0    0  501    0  0.00000000000E+00  0.00000000000E+00  0.56934844456E+03  0.56934986101E+03  0.12700000000E+01 0.  1.
         -4   -1    0    0    0  501 -0.00000000000E+00 -0.00000000000E+00 -0.68004922818E+01  0.69180629713E+01  0.12700000000E+01 0.  1.
         25    2    1    2    0    0  0.00000000000E+00  0.00000000000E+00  0.56254795228E+03  0.57626792398E+03  0.12499808634E+03 0.  0.
    9000005    1    3    3    0    0  0.16508455681E+02  0.56492671762E+02  0.37810815153E+03  0.38266267825E+03  0.10000000000E+01 0.  0.
    9000005    1    3    3    0    0 -0.16508455681E+02 -0.56492671762E+02  0.18443980075E+03  0.19360524573E+03  0.10000000000E+01 0.  0.
<mgrwt>
<rscale>  0 0.12499809E+03</rscale>
<asrwt>0</asrwt>
<pdfrwt beam="1">  1        4 0.87601201E-01 0.12499809E+03</pdfrwt>
<pdfrwt beam="2">  1       -4 0.10553827E-02 0.12499809E+03</pdfrwt>
<totfact> 0.50402876E+03</totfact>
</mgrwt>
</event>
<event>
 5    1  0.3209683E-002  0.1249947E+03  0.7818608E-02  0.1235078E+00
          4   -1    0    0  501    0  0.00000000000E+00  0.00000000000E+00  0.25487082740E+02  0.25518704642E+02  0.12700000000E+01 0. -1.
         -4   -1    0    0    0  501 -0.00000000000E+00 -0.00000000000E+00 -0.15312163719E+03  0.15312690383E+03  0.12700000000E+01 0. -1.
         25    2    1    2    0    0  0.00000000000E+00  0.00000000000E+00 -0.12763455445E+03  0.17864560847E+03  0.12499469563E+03 0.  0.
    9000005    1    3    3    0    0  0.17601776256E+02 -0.11443326878E+02  0.20302646320E+02  0.29222760051E+02  0.10000000000E+01 0.  0.
    9000005    1    3    3    0    0 -0.17601776256E+02  0.11443326878E+02 -0.14793720077E+03  0.14942284842E+03  0.10000000000E+01 0.  0.
<mgrwt>
<rscale>  0 0.12499470E+03</rscale>
<asrwt>0</asrwt>
<pdfrwt beam="1">  1        4 0.39239273E-02 0.12499470E+03</pdfrwt>
<pdfrwt beam="2">  1       -4 0.23560012E-01 0.12499470E+03</pdfrwt>
<totfact> 0.93872534E+03</totfact>
</mgrwt>
</event>
<event>
 5    1  0.3209683E-002  0.1250039E+03  0.7818608E-02  0.1235063E+00
          4   -1    0    0  501    0  0.00000000000E+00  0.00000000000E+00  0.61306246240E+02  0.61319399280E+02  0.12700000000E+01 0.  1.
         -4   -1    0    0    0  501 -0.00000000000E+00 -0.00000000000E+00 -0.63694623915E+02  0.63707283851E+02  0.12700000000E+01 0.  1.
         25    2    1    2    0    0  0.00000000000E+00  0.00000000000E+00 -0.23883776756E+01  0.12502668313E+03  0.12500386853E+03 0.  0.
    9000005    1    3    3    0    0 -0.51451944527E+02  0.13147989268E+02 -0.34144390224E+02  0.63142787404E+02  0.10000000000E+01 0.  0.
    9000005    1    3    3    0    0  0.51451944527E+02 -0.13147989268E+02  0.31756012549E+02  0.61883895727E+02  0.10000000000E+01 0.  0.
<mgrwt>
<rscale>  0 0.12500387E+03</rscale>
<asrwt>0</asrwt>
<pdfrwt beam="1">  1        4 0.94337157E-02 0.12500387E+03</pdfrwt>
<pdfrwt beam="2">  1       -4 0.98011586E-02 0.12500387E+03</pdfrwt>
<totfact> 0.10451369E+04</totfact>
</mgrwt>
</event>
<event>
 5    1  0.3209683E-002  0.1250019E+03  0.7818608E-02  0.1235066E+00
         -4   -1    0    0    0  501 -0.00000000000E+00  0.00000000000E+00  0.55612016142E+03  0.55612161155E+03  0.12700000000E+01 0.  1.
          4   -1    0    0  501    0  0.00000000000E+00 -0.00000000000E+00 -0.69654484307E+01  0.70802804917E+01  0.12700000000E+01 0.  1.
         25    2    1    2    0    0  0.00000000000E+00  0.00000000000E+00  0.54915471298E+03  0.56320189204E+03  0.12500188961E+03 0.  0.
    9000005    1    3    3    0    0 -0.49872379792E+02 -0.22380324538E+01  0.44394667911E+03  0.44674591990E+03  0.10000000000E+01 0.  0.
    9000005    1    3    3    0    0  0.49872379792E+02  0.22380324538E+01  0.10520803387E+03  0.11645597214E+03  0.10000000000E+01 0.  0.
<mgrwt>
<rscale>  0 0.12500189E+03</rscale>
<asrwt>0</asrwt>
<pdfrwt beam="2">  1        4 0.10805520E-02 0.12500189E+03</pdfrwt>
<pdfrwt beam="1">  1       -4 0.85565912E-01 0.12500189E+03</pdfrwt>
<totfact> 0.51273833E+03</totfact>
</mgrwt>
</event>
<event>
 5    1  0.3209683E-002  0.1249981E+03  0.7818608E-02  0.1235072E+00
          4   -1    0    0  501    0  0.00000000000E+00  0.00000000000E+00  0.46638741222E+02  0.46656029436E+02  0.12700000000E+01 0. -1.
         -4   -1    0    0    0  501 -0.00000000000E+00 -0.00000000000E+00 -0.83715321976E+02  0.83724954664E+02  0.12700000000E+01 0. -1.
         25    2    1    2    0    0  0.00000000000E+00  0.00000000000E+00 -0.37076580754E+02  0.13038098410E+03  0.12499811268E+03 0.  0.
    9000005    1    3    3    0    0 -0.41530179677E+02 -0.39910215943E+02 -0.43821577731E+02  0.72380327683E+02  0.10000000000E+01 0.  0.
    9000005    1    3    3    0    0  0.41530179677E+02  0.39910215943E+02  0.67449969764E+01  0.58000656418E+02  0.10000000000E+01 0.  0.
<mgrwt>
<rscale>  0 0.12499811E+03</rscale>
<asrwt>0</asrwt>
<pdfrwt beam="1">  1        4 0.71772618E-02 0.12499811E+03</pdfrwt>
<pdfrwt beam="2">  1       -4 0.12881351E-01 0.12499811E+03</pdfrwt>
<totfact> 0.10336805E+04</totfact>
</mgrwt>
</event>
<event>
 5    1  0.3209683E-002  0.1250023E+03  0.7818608E-02  0.1235066E+00
         -4   -1    0    0    0  501 -0.00000000000E+00  0.00000000000E+00  0.67154994490E+01  0.68345323797E+01  0.12700000000E+01 0.  1.
          4   -1    0    0  501    0  0.00000000000E+00 -0.00000000000E+00 -0.57646825652E+03  0.57646965547E+03  0.12700000000E+01 0.  1.
         25    2    1    2    0    0  0.00000000000E+00  0.00000000000E+00 -0.56975275708E+03  0.58330418785E+03  0.12500228546E+03 0.  0.
    9000005    1    3    3    0    0  0.11389889566E+02 -0.50158325976E+02 -0.11925022837E+03  0.12987380112E+03  0.10000000000E+01 0.  0.
    9000005    1    3    3    0    0 -0.11389889566E+02  0.50158325976E+02 -0.45050252870E+03  0.45343038674E+03  0.10000000000E+01 0.  0.
<mgrwt>
<rscale>  0 0.12500229E+03</rscale>
<asrwt>0</asrwt>
<pdfrwt beam="2">  1        4 0.88696650E-01 0.12500229E+03</pdfrwt>
<pdfrwt beam="1">  1       -4 0.10424182E-02 0.12500229E+03</pdfrwt>
<totfact> 0.49936259E+03</totfact>
</mgrwt>
</event>
<event>
 5    1  0.3209683E-002  0.1249628E+03  0.7818608E-02  0.1235127E+00
          4   -1    0    0  501    0  0.00000000000E+00  0.00000000000E+00  0.98565409287E+02  0.98573590824E+02  0.12700000000E+01 0.  1.
         -4   -1    0    0    0  501 -0.00000000000E+00 -0.00000000000E+00 -0.39587474384E+02  0.39607840488E+02  0.12700000000E+01 0.  1.
         25    2    1    2    0    0  0.00000000000E+00  0.00000000000E+00  0.58977934903E+02  0.13818143131E+03  0.12496283909E+03 0.  0.
    9000005    1    3    3    0    0 -0.87185230099E+01  0.56726864816E+02  0.22011005356E+01  0.57443839347E+02  0.10000000000E+01 0.  0.
    9000005    1    3    3    0    0  0.87185230099E+01 -0.56726864816E+02  0.56776834367E+02  0.80737591964E+02  0.10000000000E+01 0.  0.
<mgrwt>
<rscale>  0 0.12496284E+03</rscale>
<asrwt>0</asrwt>
<pdfrwt beam="1">  1        4 0.15166105E-01 0.12496284E+03</pdfrwt>
<pdfrwt beam="2">  1       -4 0.60925766E-02 0.12496284E+03</pdfrwt>
<totfact> 0.10179938E+04</totfact>
</mgrwt>
</event>
<event>
 5    1  0.3209683E-002  0.1250006E+03  0.7818608E-02  0.1235068E+00
         -4   -1    0    0    0  501 -0.00000000000E+00  0.00000000000E+00  0.22030997139E+02  0.22067572022E+02  0.12700000000E+01 0. -1.
          4   -1    0    0  501    0  0.00000000000E+00 -0.00000000000E+00 -0.17712274173E+03  0.17712729473E+03  0.12700000000E+01 0. -1.
         25    2    1    2    0    0  0.00000000000E+00  0.00000000000E+00 -0.15509174459E+03  0.19919486675E+03  0.12500058280E+03 0.  0.
    9000005    1    3    3    0    0  0.37095565671E+02  0.89263702614E+01  0.13232619311E+01  0.38190471333E+02  0.10000000000E+01 0.  0.
    9000005    1    3    3    0    0 -0.37095565671E+02 -0.89263702614E+01 -0.15641500652E+03  0.16100439542E+03  0.10000000000E+01 0.  0.
<mgrwt>
<rscale>  0 0.12500058E+03</rscale>
<asrwt>0</asrwt>
<pdfrwt beam="2">  1        4 0.27252815E-01 0.12500058E+03</pdfrwt>
<pdfrwt beam="1">  1       -4 0.33925480E-02 0.12500058E+03</pdfrwt>
<totfact> 0.90270299E+03</totfact>
</mgrwt>
</event>
<event>
 5    1  0.3209683E-002  0.1250022E+03  0.7818608E-02  0.1235066E+00
          4   -1    0    0  501    0  0.00000000000E+00  0.00000000000E+00  0.23279864124E+02  0.23314479914E+02  0.12700000000E+01 0.  1.
         -4   -1    0    0    0  501 -0.00000000000E+00 -0.00000000000E+00 -0.16763939340E+03  0.16764420395E+03  0.12700000000E+01 0.  1.
         25    2    1    2    0    0  0.00000000000E+00  0.00000000000E+00 -0.14435952927E+03  0.19095868386E+03  0.12500218099E+03 0.  0.
    9000005    1    3    3    0    0  0.17631203817E+02 -0.58909947475E+02 -0.89200821872E+02  0.10834679452E+03  0.10000000000E+01 0.  0.
    9000005    1    3    3    0    0 -0.17631203817E+02  0.58909947475E+02 -0.55158707399E+02  0.82611889347E+02  0.10000000000E+01 0.  0.
<mgrwt>
<rscale>  0 0.12500218E+03</rscale>
<asrwt>0</asrwt>
<pdfrwt beam="1">  1        4 0.35845505E-02 0.12500218E+03</pdfrwt>
<pdfrwt beam="2">  1       -4 0.25793708E-01 0.12500218E+03</pdfrwt>
<totfact> 0.91676296E+03</totfact>
</mgrwt>
</event>
<event>
 5    1  0.3209683E-002  0.1250167E+03  0.7818608E-02  0.1235043E+00
          4   -1    0    0  501    0  0.00000000000E+00  0.00000000000E+00  0.30995354304E+03  0.30995614487E+03  0.12700000000E+01 0. -1.
         -4   -1    0    0    0  501 -0.00000000000E+00 -0.00000000000E+00 -0.12571423469E+02  0.12635410086E+02  0.12700000000E+01 0. -1.
         25    2    1    2    0    0  0.00000000000E+00  0.00000000000E+00  0.29738211957E+03  0.32259155496E+03  0.12501674403E+03 0.  0.
    9000005    1    3    3    0    0  0.41246277614E+02  0.42120258643E+00  0.26985564171E+03  0.27299175846E+03  0.10000000000E+01 0.  0.
    9000005    1    3    3    0    0 -0.41246277614E+02 -0.42120258643E+00  0.27526477869E+02  0.49599796497E+02  0.10000000000E+01 0.  0.
<mgrwt>
<rscale>  0 0.12501674E+03</rscale>
<asrwt>0</asrwt>
<pdfrwt beam="1">  1        4 0.47690287E-01 0.12501674E+03</pdfrwt>
<pdfrwt beam="2">  1       -4 0.19391872E-02 0.12501674E+03</pdfrwt>
<totfact> 0.72821917E+03</totfact>
</mgrwt>
</event>
<event>
 5    1  0.3209683E-002  0.1249984E+03  0.7818608E-02  0.1235072E+00
         -4   -1    0    0    0  501 -0.00000000000E+00  0.00000000000E+00  0.19781243267E+02  0.19821969761E+02  0.12700000000E+01 0. -1.
          4   -1    0    0  501    0  0.00000000000E+00 -0.00000000000E+00 -0.19722152481E+03  0.19722561382E+03  0.12700000000E+01 0. -1.
         25    2    1    2    0    0  0.00000000000E+00  0.00000000000E+00 -0.17744028154E+03  0.21704758358E+03  0.12499840009E+03 0.  0.
    9000005    1    3    3    0    0 -0.48359341844E+02  0.27603788755E+02 -0.13797264822E+03  0.14878859753E+03  0.10000000000E+01 0.  0.
    9000005    1    3    3    0    0  0.48359341844E+02 -0.27603788755E+02 -0.39467633315E+02  0.68258986051E+02  0.10000000000E+01 0.  0.
<mgrwt>
<rscale>  0 0.12499840E+03</rscale>
<asrwt>0</asrwt>
<pdfrwt beam="2">  1        4 0.30345219E-01 0.12499840E+03</pdfrwt>
<pdfrwt beam="1">  1       -4 0.30467157E-02 0.12499840E+03</pdfrwt>
<totfact> 0.87340820E+03</totfact>
</mgrwt>
</event>
<event>
 5    1  0.3209683E-002  0.1250454E+03  0.7818608E-02  0.1234998E+00
          4   -1    0    0  501    0  0.00000000000E+00  0.00000000000E+00  0.34671076539E+03  0.34671309139E+03  0.12700000000E+01 0.  1.
         -4   -1    0    0    0  501 -0.00000000000E+00 -0.00000000000E+00 -0.11236643105E+02  0.11308185012E+02  0.12700000000E+01 0.  1.
         25    2    1    2    0    0  0.00000000000E+00  0.00000000000E+00  0.33547412229E+03  0.35802127640E+03  0.12504538228E+03 0.  0.
    9000005    1    3    3    0    0 -0.40252950049E+01  0.62267367807E+02  0.17869908121E+03  0.18928230166E+03  0.10000000000E+01 0.  0.
    9000005    1    3    3    0    0  0.40252950049E+01 -0.62267367807E+02  0.15677504108E+03  0.16873897474E+03  0.10000000000E+01 0.  0.
<mgrwt>
<rscale>  0 0.12504538E+03</rscale>
<asrwt>0</asrwt>
<pdfrwt beam="1">  1        4 0.53345799E-01 0.12504538E+03</pdfrwt>
<pdfrwt beam="2">  1       -4 0.17343965E-02 0.12504538E+03</pdfrwt>
<totfact> 0.68781964E+03</totfact>
</mgrwt>
</event>
<event>
 5    1  0.3209683E-002  0.1250012E+03  0.7818608E-02  0.1235067E+00
          4   -1    0    0  501    0  0.00000000000E+00  0.00000000000E+00  0.42127896470E+03  0.42128087898E+03  0.12700000000E+01 0.  1.
         -4   -1    0    0    0  501 -0.00000000000E+00 -0.00000000000E+00 -0.92271034735E+01  0.93140935421E+01  0.12700000000E+01 0.  1.
         25    2    1    2    0    0  0.00000000000E+00  0.00000000000E+00  0.41205186123E+03  0.43059497253E+03  0.12500117610E+03 0.  0.
    9000005    1    3    3    0    0  0.27989159625E+02  0.48483806713E+01  0.39777146374E+03  0.39878570337E+03  0.10000000000E+01 0.  0.
    9000005    1    3    3    0    0 -0.27989159625E+02 -0.48483806713E+01  0.14280397490E+02  0.31809269154E+02  0.10000000000E+01 0.  0.
<mgrwt>
<rscale>  0 0.12500118E+03</rscale>
<asrwt>0</asrwt>
<pdfrwt beam="1">  1        4 0.64818966E-01 0.12500118E+03</pdfrwt>
<pdfrwt beam="2">  1       -4 0.14263936E-02 0.12500118E+03</pdfrwt>
<totfact> 0.61680509E+03</totfact>
</mgrwt>
</event>
<event>
 5    1  0.3209683E-002  0.1249997E+03  0.7818608E-02  0.1235070E+00
          4   -1    0    0  501    0  0.00000000000E+00  0.00000000000E+00  0.11360011182E+02  0.11430780990E+02  0.12700000000E+01 0.  1.
         -4   -1    0    0    0  501 -0.00000000000E+00 -0.00000000000E+00 -0.34271855188E+03  0.34272090497E+03  0.12700000000E+01 0.  1.
         25    2    1    2    0    0  0.00000000000E+00  0.00000000000E+00 -0.33135854070E+03  0.35415168596E+03  0.12499973670E+03 0.  0.
    9000005    1    3    3    0    0  0.58409636737E+01 -0.58372004685E+02 -0.10466131568E+03  0.11998499401E+03  0.10000000000E+01 0.  0.
    9000005    1    3    3    0    0 -0.58409636737E+01  0.58372004685E+02 -0.22669722502E+03  0.23416669195E+03  0.10000000000E+01 0.  0.
<mgrwt>
<rscale>  0 0.12499974E+03</rscale>
<asrwt>0</asrwt>
<pdfrwt beam="1">  1        4 0.17533191E-02 0.12499974E+03</pdfrwt>
<pdfrwt beam="2">  1       -4 0.52731548E-01 0.12499974E+03</pdfrwt>
<totfact> 0.69270629E+03</totfact>
</mgrwt>
</event>
<event>
 5    1  0.3209683E-002  0.1249969E+03  0.7818608E-02  0.1235074E+00
          4   -1    0    0  501    0  0.00000000000E+00  0.00000000000E+00  0.18200566533E+03  0.18201009619E+03  0.12700000000E+01 0.  1.
         -4   -1    0    0    0  501 -0.00000000000E+00 -0.00000000000E+00 -0.21437679996E+02  0.21475265391E+02  0.12700000000E+01 0.  1.
         25    2    1    2    0    0  0.00000000000E+00  0.00000000000E+00  0.16056798534E+03  0.20348536158E+03  0.12499685780E+03 0.  0.
    9000005    1    3    3    0    0 -0.53403391668E+02 -0.31774705563E+02  0.91020820983E+02  0.11021498994E+03  0.10000000000E+01 0.  0.
    9000005    1    3    3    0    0  0.53403391668E+02  0.31774705563E+02  0.69547164356E+02  0.93270371636E+02  0.10000000000E+01 0.  0.
<mgrwt>
<rscale>  0 0.12499686E+03</rscale>
<asrwt>0</asrwt>
<pdfrwt beam="1">  1        4 0.28004103E-01 0.12499686E+03</pdfrwt>
<pdfrwt beam="2">  1       -4 0.33013367E-02 0.12499686E+03</pdfrwt>
<totfact> 0.89557278E+03</totfact>
</mgrwt>
</event>
<event>
 5    1  0.3209683E-002  0.1249981E+03  0.7818608E-02  0.1235072E+00
          4   -1    0    0  501    0  0.00000000000E+00  0.00000000000E+00  0.26648289633E+02  0.26678535199E+02  0.12700000000E+01 0.  1.
         -4   -1    0    0    0  501 -0.00000000000E+00 -0.00000000000E+00 -0.14646489131E+03  0.14647039730E+03  0.12700000000E+01 0.  1.
         25    2    1    2    0    0  0.00000000000E+00  0.00000000000E+00 -0.11981660168E+03  0.17314893250E+03  0.12499813915E+03 0.  0.
    9000005    1    3    3    0    0 -0.61351365143E+02  0.77057643764E+01 -0.72433934151E+02  0.95242026575E+02  0.10000000000E+01 0.  0.
    9000005    1    3    3    0    0  0.61351365143E+02 -0.77057643764E+01 -0.47382667525E+02  0.77906905928E+02  0.10000000000E+01 0.  0.
<mgrwt>
<rscale>  0 0.12499814E+03</rscale>
<asrwt>0</asrwt>
<pdfrwt beam="1">  1        4 0.41024871E-02 0.12499814E+03</pdfrwt>
<pdfrwt beam="2">  1       -4 0.22535810E-01 0.12499814E+03</pdfrwt>
<totfact> 0.94868918E+03</totfact>
</mgrwt>
</event>
<event>
 5    1  0.3209683E-002  0.1249981E+03  0.7818608E-02  0.1235072E+00
          4   -1    0    0  501    0  0.00000000000E+00  0.00000000000E+00  0.29052981129E+03  0.29053258706E+03  0.12700000000E+01 0.  1.
         -4   -1    0    0    0  501 -0.00000000000E+00 -0.00000000000E+00 -0.13412013883E+02  0.13472008626E+02  0.12700000000E+01 0.  1.
         25    2    1    2    0    0  0.00000000000E+00  0.00000000000E+00  0.27711779740E+03  0.30400459569E+03  0.12499808224E+03 0.  0.
    9000005    1    3    3    0    0 -0.59228284815E+02 -0.16357502354E+02  0.11087461588E+03  0.12676647053E+03  0.10000000000E+01 0.  0.
    9000005    1    3    3    0    0  0.59228284815E+02  0.16357502354E+02  0.16624318153E+03  0.17723812516E+03  0.10000000000E+01 0.  0.
<mgrwt>
<rscale>  0 0.12499808E+03</rscale>
<asrwt>0</asrwt>
<pdfrwt beam="1">  1        4 0.44701722E-01 0.12499808E+03</pdfrwt>
<pdfrwt beam="2">  1       -4 0.20682153E-02 0.12499808E+03</pdfrwt>
<totfact> 0.75102435E+03</totfact>
</mgrwt>
</event>
<event>
 5    1  0.3209683E-002  0.1249903E+03  0.7818608E-02  0.1235084E+00
          4   -1    0    0  501    0  0.00000000000E+00  0.00000000000E+00  0.89881960777E+02  0.89890932653E+02  0.12700000000E+01 0. -1.
         -4   -1    0    0    0  501 -0.00000000000E+00 -0.00000000000E+00 -0.43432612932E+02  0.43451176809E+02  0.12700000000E+01 0. -1.
         25    2    1    2    0    0  0.00000000000E+00  0.00000000000E+00  0.46449347845E+02  0.13334210946E+03  0.12499030459E+03 0.  0.
    9000005    1    3    3    0    0  0.47849786110E+02  0.26022954456E+02 -0.94459323142E+01  0.55290341170E+02  0.10000000000E+01 0.  0.
    9000005    1    3    3    0    0 -0.47849786110E+02 -0.26022954456E+02  0.55895280160E+02  0.78051768292E+02  0.10000000000E+01 0.  0.
<mgrwt>
<rscale>  0 0.12499030E+03</rscale>
<asrwt>0</asrwt>
<pdfrwt beam="1">  1        4 0.13830112E-01 0.12499030E+03</pdfrwt>
<pdfrwt beam="2">  1       -4 0.66840586E-02 0.12499030E+03</pdfrwt>
<totfact> 0.10275381E+04</totfact>
</mgrwt>
</event>
<event>
 5    1  0.3209683E-002  0.1249767E+03  0.7818608E-02  0.1235106E+00
          4   -1    0    0  501    0  0.00000000000E+00  0.00000000000E+00  0.16901699420E+02  0.16949346397E+02  0.12700000000E+01 0.  1.
         -4   -1    0    0    0  501 -0.00000000000E+00 -0.00000000000E+00 -0.23065520860E+03  0.23065870491E+03  0.12700000000E+01 0.  1.
         25    2    1    2    0    0  0.00000000000E+00  0.00000000000E+00 -0.21375350918E+03  0.24760805131E+03  0.12497673539E+03 0.  0.
    9000005    1    3    3    0    0  0.22349742910E+02  0.29533935787E+02 -0.71824937307E+01  0.37740596013E+02  0.10000000000E+01 0.  0.
    9000005    1    3    3    0    0 -0.22349742910E+02 -0.29533935787E+02 -0.20657101545E+03  0.20986745530E+03  0.10000000000E+01 0.  0.
<mgrwt>
<rscale>  0 0.12497674E+03</rscale>
<asrwt>0</asrwt>
<pdfrwt beam="1">  1        4 0.26041957E-02 0.12497674E+03</pdfrwt>
<pdfrwt beam="2">  1       -4 0.35489348E-01 0.12497674E+03</pdfrwt>
<totfact> 0.82720043E+03</totfact>
</mgrwt>
</event>
<event>
 5    1  0.3209683E-002  0.1250026E+03  0.7818608E-02  0.1235065E+00
          4   -1    0    0  501    0  0.00000000000E+00  0.00000000000E+00  0.26756321963E+01  0.29617406453E+01  0.12700000000E+01 0.  1.
         -4   -1    0    0    0  501 -0.00000000000E+00 -0.00000000000E+00 -0.13856119786E+04  0.13856125606E+04  0.12700000000E+01 0.  1.
         25    2    1    2    0    0  0.00000000000E+00  0.00000000000E+00 -0.13829363464E+04  0.13885743013E+04  0.12500260766E+03 0.  0.
    9000005    1    3    3    0    0  0.49519017928E+02  0.34683698701E+02 -0.86721949347E+03  0.86932487711E+03  0.10000000000E+01 0.  0.
    9000005    1    3    3    0    0 -0.49519017928E+02 -0.34683698701E+02 -0.51571685293E+03  0.51924942415E+03  0.10000000000E+01 0.  0.
<mgrwt>
<rscale>  0 0.12500261E+03</rscale>
<asrwt>0</asrwt>
<pdfrwt beam="1">  1        4 0.43368994E-03 0.12500261E+03</pdfrwt>
<pdfrwt beam="2">  1       -4 0.21319258E+00 0.12500261E+03</pdfrwt>
<totfact> 0.20226372E+03</totfact>
</mgrwt>
</event>
<event>
 5    1  0.3209683E-002  0.1249986E+03  0.7818608E-02  0.1235072E+00
         -4   -1    0    0    0  501 -0.00000000000E+00  0.00000000000E+00  0.82604832582E+02  0.82614594751E+02  0.12700000000E+01 0. -1.
          4   -1    0    0  501    0  0.00000000000E+00 -0.00000000000E+00 -0.47266219918E+02  0.47283278707E+02  0.12700000000E+01 0. -1.
         25    2    1    2    0    0  0.00000000000E+00  0.00000000000E+00  0.35338612664E+02  0.12989787346E+03  0.12499855993E+03 0.  0.
    9000005    1    3    3    0    0  0.57038146561E+00 -0.44932672361E+02  0.62798249806E+02  0.77226229736E+02  0.10000000000E+01 0.  0.
    9000005    1    3    3    0    0 -0.57038146561E+00  0.44932672361E+02 -0.27459637142E+02  0.52671643723E+02  0.10000000000E+01 0.  0.
<mgrwt>
<rscale>  0 0.12499856E+03</rscale>
<asrwt>0</asrwt>
<pdfrwt beam="2">  1        4 0.72737893E-02 0.12499856E+03</pdfrwt>
<pdfrwt beam="1">  1       -4 0.12710499E-01 0.12499856E+03</pdfrwt>
<totfact> 0.10347029E+04</totfact>
</mgrwt>
</event>
<event>
 5    1  0.3209683E-002  0.1250001E+03  0.7818608E-02  0.1235069E+00
          4   -1    0    0  501    0  0.00000000000E+00  0.00000000000E+00  0.55240189646E+02  0.55254786690E+02  0.12700000000E+01 0.  1.
         -4   -1    0    0    0  501 -0.00000000000E+00 -0.00000000000E+00 -0.70684344252E+02  0.70695752506E+02  0.12700000000E+01 0.  1.
         25    2    1    2    0    0  0.00000000000E+00  0.00000000000E+00 -0.15444154606E+02  0.12595053920E+03  0.12500006565E+03 0.  0.
    9000005    1    3    3    0    0 -0.57984816430E+02 -0.21338588904E+01  0.15659146797E+02  0.60108245430E+02  0.10000000000E+01 0.  0.
    9000005    1    3    3    0    0  0.57984816430E+02  0.21338588904E+01 -0.31103301403E+02  0.65842293766E+02  0.10000000000E+01 0.  0.
<mgrwt>
<rscale>  0 0.12500007E+03</rscale>
<asrwt>0</asrwt>
<pdfrwt beam="1">  1        4 0.85004911E-02 0.12500007E+03</pdfrwt>
<pdfrwt beam="2">  1       -4 0.10876515E-01 0.12500007E+03</pdfrwt>
<totfact> 0.10432026E+04</totfact>
</mgrwt>
</event>
<event>
 5    1  0.3209683E-002  0.1249990E+03  0.7818608E-02  0.1235071E+00
         -4   -1    0    0    0  501 -0.00000000000E+00  0.00000000000E+00  0.15522333988E+03  0.15522853521E+03  0.12700000000E+01 0. -1.
          4   -1    0    0  501    0  0.00000000000E+00 -0.00000000000E+00 -0.25143306100E+02  0.25175359811E+02  0.12700000000E+01 0. -1.
         25    2    1    2    0    0  0.00000000000E+00  0.00000000000E+00  0.13008003378E+03  0.18040389502E+03  0.12499900060E+03 0.  0.
    9000005    1    3    3    0    0 -0.41057956858E+02  0.44100470544E+02  0.41124818449E+02  0.72957919488E+02  0.10000000000E+01 0.  0.
    9000005    1    3    3    0    0  0.41057956858E+02 -0.44100470544E+02  0.88955215327E+02  0.10744597553E+03  0.10000000000E+01 0.  0.
<mgrwt>
<rscale>  0 0.12499900E+03</rscale>
<asrwt>0</asrwt>
<pdfrwt beam="2">  1        4 0.38710662E-02 0.12499900E+03</pdfrwt>
<pdfrwt beam="1">  1       -4 0.23883379E-01 0.12499900E+03</pdfrwt>
<totfact> 0.93546447E+03</totfact>
</mgrwt>
</event>
<event>
 5    1  0.3209683E-002  0.1250012E+03  0.7818608E-02  0.1235067E+00
          4   -1    0    0  501    0  0.00000000000E+00  0.00000000000E+00  0.75104420180E+02  0.75115157130E+02  0.12700000000E+01 0. -1.
         -4   -1    0    0    0  501 -0.00000000000E+00 -0.00000000000E+00 -0.51989701995E+02  0.52005211407E+02  0.12700000000E+01 0. -1.
         25    2    1    2    0    0  0.00000000000E+00  0.00000000000E+00  0.23114718186E+02  0.12712036854E+03  0.12500119159E+03 0.  0.
    9000005    1    3    3    0    0 -0.97274866155E+01 -0.26485517982E+02  0.68263039264E+02  0.73871166149E+02  0.10000000000E+01 0.  0.
    9000005    1    3    3    0    0  0.97274866155E+01  0.26485517982E+02 -0.45148321079E+02  0.53249202387E+02  0.10000000000E+01 0.  0.
<mgrwt>
<rscale>  0 0.12500119E+03</rscale>
<asrwt>0</asrwt>
<pdfrwt beam="1">  1        4 0.11556545E-01 0.12500119E+03</pdfrwt>
<pdfrwt beam="2">  1       -4 0.80004346E-02 0.12500119E+03</pdfrwt>
<totfact> 0.10406252E+04</totfact>
</mgrwt>
</event>
<event>
 5    1  0.3209683E-002  0.1249957E+03  0.7818608E-02  0.1235076E+00
          4   -1    0    0  501    0  0.00000000000E+00  0.00000000000E+00  0.11251292624E+03  0.11252009364E+03  0.12700000000E+01 0.  1.
         -4   -1    0    0    0  501 -0.00000000000E+00 -0.00000000000E+00 -0.34695934189E+02  0.34719169766E+02  0.12700000000E+01 0.  1.
         25    2    1    2    0    0  0.00000000000E+00  0.00000000000E+00  0.77816992053E+02  0.14723926340E+03  0.12499566566E+03 0.  0.
    9000005    1    3    3    0    0  0.14378268290E+02 -0.20889981708E+02  0.10618460827E+03  0.10917553283E+03  0.10000000000E+01 0.  0.
    9000005    1    3    3    0    0 -0.14378268290E+02  0.20889981708E+02 -0.28367616221E+02  0.38063730569E+02  0.10000000000E+01 0.  0.
<mgrwt>
<rscale>  0 0.12499567E+03</rscale>
<asrwt>0</asrwt>
<pdfrwt beam="1">  1        4 0.17312019E-01 0.12499567E+03</pdfrwt>
<pdfrwt beam="2">  1       -4 0.53401748E-02 0.12499567E+03</pdfrwt>
<totfact> 0.99866628E+03</totfact>
</mgrwt>
</event>
<event>
 5    1  0.3209683E-002  0.1249978E+03  0.7818608E-02  0.1235073E+00
          4   -1    0    0  501    0  0.00000000000E+00  0.00000000000E+00  0.21186597116E+03  0.21186977754E+03  0.12700000000E+01 0. -1.
         -4   -1    0    0    0  501 -0.00000000000E+00 -0.00000000000E+00 -0.18410863669E+02  0.18454614627E+02  0.12700000000E+01 0. -1.
         25    2    1    2    0    0  0.00000000000E+00  0.00000000000E+00  0.19345510749E+03  0.23032439217E+03  0.12499778803E+03 0.  0.
    9000005    1    3    3    0    0  0.60384813872E+02  0.10343630161E+02  0.11942969387E+03  0.13423028052E+03  0.10000000000E+01 0.  0.
    9000005    1    3    3    0    0 -0.60384813872E+02 -0.10343630161E+02  0.74025413622E+02  0.96094111647E+02  0.10000000000E+01 0.  0.
<mgrwt>
<rscale>  0 0.12499779E+03</rscale>
<asrwt>0</asrwt>
<pdfrwt beam="1">  1        4 0.32598421E-01 0.12499779E+03</pdfrwt>
<pdfrwt beam="2">  1       -4 0.28360990E-02 0.12499779E+03</pdfrwt>
<totfact> 0.85264020E+03</totfact>
</mgrwt>
</event>
<event>
 5    1  0.3209683E-002  0.1250095E+03  0.7818608E-02  0.1235054E+00
          4   -1    0    0  501    0  0.00000000000E+00  0.00000000000E+00  0.14626857487E+03  0.14627408825E+03  0.12700000000E+01 0. -1.
         -4   -1    0    0    0  501 -0.00000000000E+00 -0.00000000000E+00 -0.26688945799E+02  0.26719145343E+02  0.12700000000E+01 0. -1.
         25    2    1    2    0    0  0.00000000000E+00  0.00000000000E+00  0.11957962907E+03  0.17299323359E+03  0.12500948437E+03 0.  0.
    9000005    1    3    3    0    0 -0.30861384595E+02 -0.25377810569E+02  0.12629174814E+03  0.13246533122E+03  0.10000000000E+01 0.  0.
    9000005    1    3    3    0    0  0.30861384595E+02  0.25377810569E+02 -0.67121190674E+01  0.40527902373E+02  0.10000000000E+01 0.  0.
<mgrwt>
<rscale>  0 0.12500948E+03</rscale>
<asrwt>0</asrwt>
<pdfrwt beam="1">  1        4 0.22505605E-01 0.12500948E+03</pdfrwt>
<pdfrwt beam="2">  1       -4 0.41087388E-02 0.12500948E+03</pdfrwt>
<totfact> 0.94873473E+03</totfact>
</mgrwt>
</event>
<event>
 5    1  0.3209683E-002  0.1250035E+03  0.7818608E-02  0.1235064E+00
          4   -1    0    0  501    0  0.00000000000E+00  0.00000000000E+00  0.32801950662E+04  0.32801953121E+04  0.12700000000E+01 0. -1.
         -4   -1    0    0    0  501 -0.00000000000E+00 -0.00000000000E+00 -0.85202825946E+00  0.15293306232E+01  0.12700000000E+01 0. -1.
         25    2    1    2    0    0  0.00000000000E+00  0.00000000000E+00  0.32793430380E+04  0.32817246427E+04  0.12500347942E+03 0.  0.
    9000005    1    3    3    0    0  0.25577197673E+02  0.56447398015E+02  0.18512746269E+04  0.18523118652E+04  0.10000000000E+01 0.  0.
    9000005    1    3    3    0    0 -0.25577197673E+02 -0.56447398015E+02  0.14280684111E+04  0.14294127775E+04  0.10000000000E+01 0.  0.
<mgrwt>
<rscale>  0 0.12500348E+03</rscale>
<asrwt>0</asrwt>
<pdfrwt beam="1">  1        4 0.50470208E+00 0.12500348E+03</pdfrwt>
<pdfrwt beam="2">  1       -4 0.18319871E-03 0.12500348E+03</pdfrwt>
<totfact> 0.97571551E+01</totfact>
</mgrwt>
</event>
<event>
 5    1  0.3209683E-002  0.1249864E+03  0.7818608E-02  0.1235091E+00
          4   -1    0    0  501    0  0.00000000000E+00  0.00000000000E+00  0.15889443599E+03  0.15889951129E+03  0.12700000000E+01 0.  1.
         -4   -1    0    0    0  501 -0.00000000000E+00 -0.00000000000E+00 -0.24556687477E+02  0.24589505889E+02  0.12700000000E+01 0.  1.
         25    2    1    2    0    0  0.00000000000E+00  0.00000000000E+00  0.13433774851E+03  0.18348901718E+03  0.12498635426E+03 0.  0.
    9000005    1    3    3    0    0  0.21765095267E+02  0.11749925297E+00  0.15315662076E+03  0.15469868668E+03  0.10000000000E+01 0.  0.
    9000005    1    3    3    0    0 -0.21765095267E+02 -0.11749925297E+00 -0.18818872242E+02  0.28790330504E+02  0.10000000000E+01 0.  0.
<mgrwt>
<rscale>  0 0.12498635E+03</rscale>
<asrwt>0</asrwt>
<pdfrwt beam="1">  1        4 0.24448212E-01 0.12498635E+03</pdfrwt>
<pdfrwt beam="2">  1       -4 0.37808669E-02 0.12498635E+03</pdfrwt>
<totfact> 0.93021161E+03</totfact>
</mgrwt>
</event>
<event>
 5    1  0.3209683E-002  0.1249978E+03  0.7818608E-02  0.1235073E+00
         -4   -1    0    0    0  501 -0.00000000000E+00  0.00000000000E+00  0.15258343582E+02  0.15311105409E+02  0.12700000000E+01 0.  1.
          4   -1    0    0  501    0  0.00000000000E+00 -0.00000000000E+00 -0.25550245809E+03  0.25550561440E+03  0.12700000000E+01 0.  1.
         25    2    1    2    0    0  0.00000000000E+00  0.00000000000E+00 -0.24024411451E+03  0.27081671981E+03  0.12499784467E+03 0.  0.
    9000005    1    3    3    0    0 -0.59490940580E+02  0.18569028248E+02 -0.11016184371E+03  0.12657255876E+03  0.10000000000E+01 0.  0.
    9000005    1    3    3    0    0  0.59490940580E+02 -0.18569028248E+02 -0.13008227080E+03  0.14424416105E+03  0.10000000000E+01 0.  0.
<mgrwt>
<rscale>  0 0.12499784E+03</rscale>
<asrwt>0</asrwt>
<pdfrwt beam="2">  1        4 0.39312369E-01 0.12499784E+03</pdfrwt>
<pdfrwt beam="1">  1       -4 0.23517390E-02 0.12499784E+03</pdfrwt>
<totfact> 0.79415459E+03</totfact>
</mgrwt>
</event>
<event>
 5    1  0.3209683E-002  0.1249976E+03  0.7818608E-02  0.1235073E+00
         -4   -1    0    0    0  501 -0.00000000000E+00  0.00000000000E+00  0.24654098871E+02  0.24686787785E+02  0.12700000000E+01 0. -1.
          4   -1    0    0  501    0  0.00000000000E+00 -0.00000000000E+00 -0.15829601224E+03  0.15830110673E+03  0.12700000000E+01 0. -1.
         25    2    1    2    0    0  0.00000000000E+00  0.00000000000E+00 -0.13364191337E+03  0.18298789451E+03  0.12499763409E+03 0.  0.
    9000005    1    3    3    0    0 -0.50013944543E+02 -0.29731446862E+02 -0.10019564441E+03  0.11586854940E+03  0.10000000000E+01 0.  0.
    9000005    1    3    3    0    0  0.50013944543E+02  0.29731446862E+02 -0.33446268962E+02  0.67119345116E+02  0.10000000000E+01 0.  0.
<mgrwt>
<rscale>  0 0.12499763E+03</rscale>
<asrwt>0</asrwt>
<pdfrwt beam="2">  1        4 0.24356138E-01 0.12499763E+03</pdfrwt>
<pdfrwt beam="1">  1       -4 0.37958448E-02 0.12499763E+03</pdfrwt>
<totfact> 0.93086857E+03</totfact>
</mgrwt>
</event>
<event>
 5    1  0.3209683E-002  0.1249978E+03  0.7818608E-02  0.1235073E+00
         -4   -1    0    0    0  501 -0.00000000000E+00  0.00000000000E+00  0.60788698081E+02  0.60801963080E+02  0.12700000000E+01 0.  1.
          4   -1    0    0  501    0  0.00000000000E+00 -0.00000000000E+00 -0.64230613420E+02  0.64243167732E+02  0.12700000000E+01 0.  1.
         25    2    1    2    0    0  0.00000000000E+00  0.00000000000E+00 -0.34419153386E+01  0.12504513081E+03  0.12499775181E+03 0.  0.
    9000005    1    3    3    0    0 -0.44656102047E+02 -0.40034862297E+02  0.15839950274E+02  0.62039194658E+02  0.10000000000E+01 0.  0.
    9000005    1    3    3    0    0  0.44656102047E+02  0.40034862297E+02 -0.19281865613E+02  0.63005936154E+02  0.10000000000E+01 0.  0.
<mgrwt>
<rscale>  0 0.12499775E+03</rscale>
<asrwt>0</asrwt>
<pdfrwt beam="2">  1        4 0.98836189E-02 0.12499775E+03</pdfrwt>
<pdfrwt beam="1">  1       -4 0.93540935E-02 0.12499775E+03</pdfrwt>
<totfact> 0.10452413E+04</totfact>
</mgrwt>
</event>
<event>
 5    1  0.3209683E-002  0.1249990E+03  0.7818608E-02  0.1235071E+00
          4   -1    0    0  501    0  0.00000000000E+00  0.00000000000E+00  0.38751447566E+01  0.40779464054E+01  0.12700000000E+01 0.  1.
         -4   -1    0    0    0  501 -0.00000000000E+00 -0.00000000000E+00 -0.98210284368E+03  0.98210366483E+03  0.12700000000E+01 0.  1.
         25    2    1    2    0    0  0.00000000000E+00  0.00000000000E+00 -0.97822769892E+03  0.98618161123E+03  0.12499895755E+03 0.  0.
    9000005    1    3    3    0    0  0.12213705692E+02 -0.61112673771E+02 -0.45274381421E+03  0.45701410788E+03  0.10000000000E+01 0.  0.
    9000005    1    3    3    0    0 -0.12213705692E+02  0.61112673771E+02 -0.52548388472E+03  0.52916750335E+03  0.10000000000E+01 0.  0.
<mgrwt>
<rscale>  0 0.12499896E+03</rscale>
<asrwt>0</asrwt>
<pdfrwt beam="1">  1        4 0.61184019E-03 0.12499896E+03</pdfrwt>
<pdfrwt beam="2">  1       -4 0.15110822E+00 0.12499896E+03</pdfrwt>
<totfact> 0.31065929E+03</totfact>
</mgrwt>
</event>
<event>
 5    1  0.3209683E-002  0.1249997E+03  0.7818608E-02  0.1235070E+00
          4   -1    0    0  501    0  0.00000000000E+00  0.00000000000E+00  0.31286093662E+03  0.31286351427E+03  0.12700000000E+01 0.  1.
         -4   -1    0    0    0  501 -0.00000000000E+00 -0.00000000000E+00 -0.12450595613E+02  0.12515200003E+02  0.12700000000E+01 0.  1.
         25    2    1    2    0    0  0.00000000000E+00  0.00000000000E+00  0.30041034100E+03  0.32537871427E+03  0.12499973888E+03 0.  0.
    9000005    1    3    3    0    0 -0.37955510113E+02  0.11824547078E+02  0.27571339310E+03  0.27856653746E+03  0.10000000000E+01 0.  0.
    9000005    1    3    3    0    0  0.37955510113E+02 -0.11824547078E+02  0.24696947907E+02  0.46812176807E+02  0.10000000000E+01 0.  0.
<mgrwt>
<rscale>  0 0.12499974E+03</rscale>
<asrwt>0</asrwt>
<pdfrwt beam="1">  1        4 0.48137620E-01 0.12499974E+03</pdfrwt>
<pdfrwt beam="2">  1       -4 0.19206441E-02 0.12499974E+03</pdfrwt>
<totfact> 0.72521350E+03</totfact>
</mgrwt>
</event>
<event>
 5    1  0.3209683E-002  0.1250010E+03  0.7818608E-02  0.1235068E+00
          4   -1    0    0  501    0  0.00000000000E+00  0.00000000000E+00  0.76911972787E+02  0.76922457436E+02  0.12700000000E+01 0.  1.
         -4   -1    0    0    0  501 -0.00000000000E+00 -0.00000000000E+00 -0.50767535424E+02  0.50783418091E+02  0.12700000000E+01 0.  1.
         25    2    1    2    0    0  0.00000000000E+00  0.00000000000E+00  0.26144437363E+02  0.12770587553E+03  0.12500103615E+03 0.  0.
    9000005    1    3    3    0    0 -0.21051385486E+02 -0.57895763539E+02  0.23798668876E+02  0.66048897848E+02  0.10000000000E+01 0.  0.
    9000005    1    3    3    0    0  0.21051385486E+02  0.57895763539E+02  0.23457684864E+01  0.61656977679E+02  0.10000000000E+01 0.  0.
<mgrwt>
<rscale>  0 0.12500104E+03</rscale>
<asrwt>0</asrwt>
<pdfrwt beam="1">  1        4 0.11834639E-01 0.12500104E+03</pdfrwt>
<pdfrwt beam="2">  1       -4 0.78124183E-02 0.12500104E+03</pdfrwt>
<totfact> 0.10393601E+04</totfact>
</mgrwt>
</event>
<event>
 5    1  0.3209683E-002  0.1250009E+03  0.7818608E-02  0.1235068E+00
         -4   -1    0    0    0  501 -0.00000000000E+00  0.00000000000E+00  0.34455975285E+01  0.36721985687E+01  0.12700000000E+01 0. -1.
          4   -1    0    0  501    0  0.00000000000E+00 -0.00000000000E+00 -0.10973890178E+04  0.10973897526E+04  0.12700000000E+01 0. -1.
         25    2    1    2    0    0  0.00000000000E+00  0.00000000000E+00 -0.10939434202E+04  0.11010619512E+04  0.12500085493E+03 0.  0.
    9000005    1    3    3    0    0  0.20021375430E+02 -0.10392025980E+02 -0.10603194151E+04  0.10605598105E+04  0.10000000000E+01 0.  0.
    9000005    1    3    3    0    0 -0.20021375430E+02  0.10392025980E+02 -0.33624005114E+02  0.40502140659E+02  0.10000000000E+01 0.  0.
<mgrwt>
<rscale>  0 0.12500085E+03</rscale>
<asrwt>0</asrwt>
<pdfrwt beam="2">  1        4 0.16884630E+00 0.12500085E+03</pdfrwt>
<pdfrwt beam="1">  1       -4 0.54758018E-03 0.12500085E+03</pdfrwt>
<totfact> 0.27451868E+03</totfact>
</mgrwt>
</event>
<event>
 5    1  0.3209683E-002  0.1250006E+03  0.7818608E-02  0.1235068E+00
          4   -1    0    0  501    0  0.00000000000E+00  0.00000000000E+00  0.23670243464E+04  0.23670246871E+04  0.12700000000E+01 0. -1.
         -4   -1    0    0    0  501 -0.00000000000E+00 -0.00000000000E+00 -0.14055678191E+01  0.18943391708E+01  0.12700000000E+01 0. -1.
         25    2    1    2    0    0  0.00000000000E+00  0.00000000000E+00  0.23656187786E+04  0.23689190263E+04  0.12500058985E+03 0.  0.
    9000005    1    3    3    0    0 -0.52577507872E+02  0.90043195839E+01  0.56585489022E+03  0.56836452114E+03  0.10000000000E+01 0.  0.
    9000005    1    3    3    0    0  0.52577507872E+02 -0.90043195839E+01  0.17997638884E+04  0.18005545051E+04  0.10000000000E+01 0.  0.
<mgrwt>
<rscale>  0 0.12500059E+03</rscale>
<asrwt>0</asrwt>
<pdfrwt beam="1">  1        4 0.36419652E+00 0.12500059E+03</pdfrwt>
<pdfrwt beam="2">  1       -4 0.25386430E-03 0.12500059E+03</pdfrwt>
<totfact> 0.57823458E+02</totfact>
</mgrwt>
</event>
<event>
 5    1  0.3209683E-002  0.1250114E+03  0.7818608E-02  0.1235051E+00
         -4   -1    0    0    0  501 -0.00000000000E+00  0.00000000000E+00  0.89634993036E+02  0.89643989629E+02  0.12700000000E+01 0. -1.
          4   -1    0    0  501    0  0.00000000000E+00 -0.00000000000E+00 -0.43567050869E+02  0.43585557487E+02  0.12700000000E+01 0. -1.
         25    2    1    2    0    0  0.00000000000E+00  0.00000000000E+00  0.46067942167E+02  0.13322954712E+03  0.12501142719E+03 0.  0.
    9000005    1    3    3    0    0  0.31711883957E+02  0.15617424496E+02 -0.31894680670E+02  0.47621614705E+02  0.10000000000E+01 0.  0.
    9000005    1    3    3    0    0 -0.31711883957E+02 -0.15617424496E+02  0.77962622837E+02  0.85607932411E+02  0.10000000000E+01 0.  0.
<mgrwt>
<rscale>  0 0.12501143E+03</rscale>
<asrwt>0</asrwt>
<pdfrwt beam="2">  1        4 0.67047389E-02 0.12501143E+03</pdfrwt>
<pdfrwt beam="1">  1       -4 0.13792114E-01 0.12501143E+03</pdfrwt>
<totfact> 0.10272876E+04</totfact>
</mgrwt>
</event>
<event>
 5    1  0.3209683E-002  0.1249978E+03  0.7818608E-02  0.1235073E+00
         -4   -1    0    0    0  501 -0.00000000000E+00  0.00000000000E+00  0.56718589463E+02  0.56732806124E+02  0.12700000000E+01 0.  1.
          4   -1    0    0  501    0  0.00000000000E+00 -0.00000000000E+00 -0.68839547703E+02  0.68851261630E+02  0.12700000000E+01 0.  1.
         25    2    1    2    0    0  0.00000000000E+00  0.00000000000E+00 -0.12120958241E+02  0.12558406775E+03  0.12499776176E+03 0.  0.
    9000005    1    3    3    0    0  0.58157541093E+02  0.22221397609E+02 -0.11472769815E+02  0.63314410247E+02  0.10000000000E+01 0.  0.
    9000005    1    3    3    0    0 -0.58157541093E+02 -0.22221397609E+02 -0.64818842564E+00  0.62269657506E+02  0.10000000000E+01 0.  0.
<mgrwt>
<rscale>  0 0.12499776E+03</rscale>
<asrwt>0</asrwt>
<pdfrwt beam="2">  1        4 0.10592694E-01 0.12499776E+03</pdfrwt>
<pdfrwt beam="1">  1       -4 0.87279315E-02 0.12499776E+03</pdfrwt>
<totfact> 0.10440625E+04</totfact>
</mgrwt>
</event>
<event>
 5    1  0.3209683E-002  0.1250012E+03  0.7818608E-02  0.1235067E+00
         -4   -1    0    0    0  501 -0.00000000000E+00  0.00000000000E+00  0.18432664987E+02  0.18476364321E+02  0.12700000000E+01 0. -1.
          4   -1    0    0  501    0  0.00000000000E+00 -0.00000000000E+00 -0.21162754463E+03  0.21163135530E+03  0.12700000000E+01 0. -1.
         25    2    1    2    0    0  0.00000000000E+00  0.00000000000E+00 -0.19319487965E+03  0.23010771963E+03  0.12500120443E+03 0.  0.
    9000005    1    3    3    0    0  0.42524948591E+02 -0.42924552614E+02 -0.67233997995E+02  0.90400768559E+02  0.10000000000E+01 0.  0.
    9000005    1    3    3    0    0 -0.42524948591E+02  0.42924552614E+02 -0.12596088165E+03  0.13970695107E+03  0.10000000000E+01 0.  0.
<mgrwt>
<rscale>  0 0.12500120E+03</rscale>
<asrwt>0</asrwt>
<pdfrwt beam="2">  1        4 0.32561737E-01 0.12500120E+03</pdfrwt>
<pdfrwt beam="1">  1       -4 0.28394494E-02 0.12500120E+03</pdfrwt>
<totfact> 0.85290768E+03</totfact>
</mgrwt>
</event>
<event>
 5    1  0.3209683E-002  0.1249946E+03  0.7818608E-02  0.1235078E+00
         -4   -1    0    0    0  501 -0.00000000000E+00  0.00000000000E+00  0.14181032388E+02  0.14237787033E+02  0.12700000000E+01 0.  1.
          4   -1    0    0  501    0  0.00000000000E+00 -0.00000000000E+00 -0.27482377716E+03  0.27482671157E+03  0.12700000000E+01 0.  1.
         25    2    1    2    0    0  0.00000000000E+00  0.00000000000E+00 -0.26064274477E+03  0.28906449860E+03  0.12499457568E+03 0.  0.
    9000005    1    3    3    0    0 -0.30736106074E+02  0.21130915265E+02 -0.14374455044E+02  0.39985606839E+02  0.10000000000E+01 0.  0.
    9000005    1    3    3    0    0  0.30736106074E+02 -0.21130915265E+02 -0.24626828973E+03  0.24907889176E+03  0.10000000000E+01 0.  0.
<mgrwt>
<rscale>  0 0.12499458E+03</rscale>
<asrwt>0</asrwt>
<pdfrwt beam="2">  1        4 0.42285169E-01 0.12499458E+03</pdfrwt>
<pdfrwt beam="1">  1       -4 0.21862890E-02 0.12499458E+03</pdfrwt>
<totfact> 0.77000647E+03</totfact>
</mgrwt>
</event>
<event>
 5    1  0.3209683E-002  0.1250003E+03  0.7818608E-02  0.1235069E+00
         -4   -1    0    0    0  501 -0.00000000000E+00  0.00000000000E+00  0.86623538254E+01  0.87549570984E+01  0.12700000000E+01 0. -1.
          4   -1    0    0  501    0  0.00000000000E+00 -0.00000000000E+00 -0.44845656304E+03  0.44845836132E+03  0.12700000000E+01 0. -1.
         25    2    1    2    0    0  0.00000000000E+00  0.00000000000E+00 -0.43979420922E+03  0.45721331842E+03  0.12500028831E+03 0.  0.
    9000005    1    3    3    0    0 -0.82863308210E+01 -0.55980841718E+02 -0.31686061198E+03  0.32187600927E+03  0.10000000000E+01 0.  0.
    9000005    1    3    3    0    0  0.82863308210E+01  0.55980841718E+02 -0.12293359724E+03  0.13533730915E+03  0.10000000000E+01 0.  0.
<mgrwt>
<rscale>  0 0.12500029E+03</rscale>
<asrwt>0</asrwt>
<pdfrwt beam="2">  1        4 0.69000561E-01 0.12500029E+03</pdfrwt>
<pdfrwt beam="1">  1       -4 0.13399318E-02 0.12500029E+03</pdfrwt>
<totfact> 0.59343591E+03</totfact>
</mgrwt>
</event>
<event>
 5    1  0.3209683E-002  0.1250088E+03  0.7818608E-02  0.1235056E+00
          4   -1    0    0  501    0  0.00000000000E+00  0.00000000000E+00  0.12482321978E+02  0.12546763007E+02  0.12700000000E+01 0. -1.
         -4   -1    0    0    0  501 -0.00000000000E+00 -0.00000000000E+00 -0.31211510416E+03  0.31211768797E+03  0.12700000000E+01 0. -1.
         25    2    1    2    0    0  0.00000000000E+00  0.00000000000E+00 -0.29963278218E+03  0.32466445097E+03  0.12500880597E+03 0.  0.
    9000005    1    3    3    0    0  0.39362933791E+02 -0.47806393590E+02 -0.12794665769E+03  0.14214865120E+03  0.10000000000E+01 0.  0.
    9000005    1    3    3    0    0 -0.39362933791E+02  0.47806393590E+02 -0.17168612449E+03  0.18251579977E+03  0.10000000000E+01 0.  0.
<mgrwt>
<rscale>  0 0.12500881E+03</rscale>
<asrwt>0</asrwt>
<pdfrwt beam="1">  1        4 0.19255132E-02 0.12500881E+03</pdfrwt>
<pdfrwt beam="2">  1       -4 0.48022858E-01 0.12500881E+03</pdfrwt>
<totfact> 0.72590599E+03</totfact>
</mgrwt>
</event>
<event>
 5    1  0.3209683E-002  0.1249984E+03  0.7818608E-02  0.1235072E+00
          4   -1    0    0  501    0  0.00000000000E+00  0.00000000000E+00  0.37288419619E+01  0.39391829581E+01  0.12700000000E+01 0. -1.
         -4   -1    0    0    0  501 -0.00000000000E+00 -0.00000000000E+00 -0.10186036399E+04  0.10186044316E+04  0.12700000000E+01 0. -1.
         25    2    1    2    0    0  0.00000000000E+00  0.00000000000E+00 -0.10148747979E+04  0.10225436146E+04  0.12499835289E+03 0.  0.
    9000005    1    3    3    0    0 -0.13243651830E+02  0.57142578123E+02 -0.68374066696E+03  0.68625284568E+03  0.10000000000E+01 0.  0.
    9000005    1    3    3    0    0  0.13243651830E+02 -0.57142578123E+02 -0.33113413098E+03  0.33629076890E+03  0.10000000000E+01 0.  0.
<mgrwt>
<rscale>  0 0.12499835E+03</rscale>
<asrwt>0</asrwt>
<pdfrwt beam="1">  1        4 0.58990978E-03 0.12499835E+03</pdfrwt>
<pdfrwt beam="2">  1       -4 0.15672428E+00 0.12499835E+03</pdfrwt>
<totfact> 0.29868893E+03</totfact>
</mgrwt>
</event>
<event>
 5    1  0.3209683E-002  0.1249960E+03  0.7818608E-02  0.1235076E+00
         -4   -1    0    0    0  501 -0.00000000000E+00  0.00000000000E+00  0.34274269270E+02  0.34297790511E+02  0.12700000000E+01 0. -1.
          4   -1    0    0  501    0  0.00000000000E+00 -0.00000000000E+00 -0.11389681003E+03  0.11390389034E+03  0.12700000000E+01 0. -1.
         25    2    1    2    0    0  0.00000000000E+00  0.00000000000E+00 -0.79622540762E+02  0.14820168085E+03  0.12499595678E+03 0.  0.
    9000005    1    3    3    0    0  0.35487071894E+02  0.39400248495E+02 -0.60785102717E+00  0.53038489194E+02  0.10000000000E+01 0.  0.
    9000005    1    3    3    0    0 -0.35487071894E+02 -0.39400248495E+02 -0.79014689734E+02  0.95163191660E+02  0.10000000000E+01 0.  0.
<mgrwt>
<rscale>  0 0.12499596E+03</rscale>
<asrwt>0</asrwt>
<pdfrwt beam="2">  1        4 0.17524940E-01 0.12499596E+03</pdfrwt>
<pdfrwt beam="1">  1       -4 0.52753185E-02 0.12499596E+03</pdfrwt>
<totfact> 0.99672452E+03</totfact>
</mgrwt>
</event>
<event>
 5    1  0.3209683E-002  0.1250052E+03  0.7818608E-02  0.1235061E+00
          4   -1    0    0  501    0  0.00000000000E+00  0.00000000000E+00  0.29537473548E+01  0.32152019277E+01  0.12700000000E+01 0.  1.
         -4   -1    0    0    0  501 -0.00000000000E+00 -0.00000000000E+00 -0.12662665646E+04  0.12662672015E+04  0.12700000000E+01 0.  1.
         25    2    1    2    0    0  0.00000000000E+00  0.00000000000E+00 -0.12633128172E+04  0.12694824034E+04  0.12500519319E+03 0.  0.
    9000005    1    3    3    0    0  0.10626336343E+01 -0.35617564668E+02 -0.11530404055E+04  0.11535913127E+04  0.10000000000E+01 0.  0.
    9000005    1    3    3    0    0 -0.10626336343E+01  0.35617564668E+02 -0.11027241174E+03  0.11589109066E+03  0.10000000000E+01 0.  0.
<mgrwt>
<rscale>  0 0.12500519E+03</rscale>
<asrwt>0</asrwt>
<pdfrwt beam="1">  1        4 0.47458456E-03 0.12500519E+03</pdfrwt>
<pdfrwt beam="2">  1       -4 0.19482999E+00 0.12500519E+03</pdfrwt>
<totfact> 0.22957905E+03</totfact>
</mgrwt>
</event>
<event>
 5    1  0.3209683E-002  0.1250006E+03  0.7818608E-02  0.1235068E+00
         -4   -1    0    0    0  501 -0.00000000000E+00  0.00000000000E+00  0.15949478970E+02  0.15999961857E+02  0.12700000000E+01 0.  1.
          4   -1    0    0  501    0  0.00000000000E+00 -0.00000000000E+00 -0.24447701461E+03  0.24448031326E+03  0.12700000000E+01 0.  1.
         25    2    1    2    0    0  0.00000000000E+00  0.00000000000E+00 -0.22852753564E+03  0.26048027512E+03  0.12500055672E+03 0.  0.
    9000005    1    3    3    0    0 -0.58865060507E+02 -0.20911616420E+02 -0.11780857848E+03  0.13335011141E+03  0.10000000000E+01 0.  0.
    9000005    1    3    3    0    0  0.58865060507E+02  0.20911616420E+02 -0.11071895715E+03  0.12713016370E+03  0.10000000000E+01 0.  0.
<mgrwt>
<rscale>  0 0.12500056E+03</rscale>
<asrwt>0</asrwt>
<pdfrwt beam="2">  1        4 0.37615983E-01 0.12500056E+03</pdfrwt>
<pdfrwt beam="1">  1       -4 0.24579032E-02 0.12500056E+03</pdfrwt>
<totfact> 0.80837708E+03</totfact>
</mgrwt>
</event>
<event>
 5    1  0.3209683E-002  0.1250002E+03  0.7818608E-02  0.1235069E+00
         -4   -1    0    0    0  501 -0.00000000000E+00  0.00000000000E+00  0.19616416842E+03  0.19616827948E+03  0.12700000000E+01 0. -1.
          4   -1    0    0  501    0  0.00000000000E+00 -0.00000000000E+00 -0.19888659290E+02  0.19929166274E+02  0.12700000000E+01 0. -1.
         25    2    1    2    0    0  0.00000000000E+00  0.00000000000E+00  0.17627550913E+03  0.21609744575E+03  0.12500020376E+03 0.  0.
    9000005    1    3    3    0    0 -0.30741841558E+02  0.41023673423E+02  0.26353389095E+02  0.57649837123E+02  0.10000000000E+01 0.  0.
    9000005    1    3    3    0    0  0.30741841558E+02 -0.41023673423E+02  0.14992212004E+03  0.15844760863E+03  0.10000000000E+01 0.  0.
<mgrwt>
<rscale>  0 0.12500020E+03</rscale>
<asrwt>0</asrwt>
<pdfrwt beam="2">  1        4 0.30632257E-02 0.12500020E+03</pdfrwt>
<pdfrwt beam="1">  1       -4 0.30182536E-01 0.12500020E+03</pdfrwt>
<totfact> 0.87489269E+03</totfact>
</mgrwt>
</event>
<event>
 5    1  0.3209683E-002  0.1249984E+03  0.7818608E-02  0.1235072E+00
          4   -1    0    0  501    0  0.00000000000E+00  0.00000000000E+00  0.34347935512E+03  0.34348170300E+03  0.12700000000E+01 0.  1.
         -4   -1    0    0    0  501 -0.00000000000E+00 -0.00000000000E+00 -0.11334452347E+02  0.11405380748E+02  0.12700000000E+01 0.  1.
         25    2    1    2    0    0  0.00000000000E+00  0.00000000000E+00  0.33214490278E+03  0.35488708375E+03  0.12499842307E+03 0.  0.
    9000005    1    3    3    0    0  0.13773845776E+02 -0.16539086475E+02 -0.49273312853E+00  0.21552331540E+02  0.10000000000E+01 0.  0.
    9000005    1    3    3    0    0 -0.13773845776E+02  0.16539086475E+02  0.33263763590E+03  0.33333475221E+03  0.10000000000E+01 0.  0.
<mgrwt>
<rscale>  0 0.12499842E+03</rscale>
<asrwt>0</asrwt>
<pdfrwt beam="1">  1        4 0.52848612E-01 0.12499842E+03</pdfrwt>
<pdfrwt beam="2">  1       -4 0.17493986E-02 0.12499842E+03</pdfrwt>
<totfact> 0.69192656E+03</totfact>
</mgrwt>
</event>
<event>
 5    1  0.3209683E-002  0.1250308E+03  0.7818608E-02  0.1235021E+00
          4   -1    0    0  501    0  0.00000000000E+00  0.00000000000E+00  0.28177153306E+03  0.28177439512E+03  0.12700000000E+01 0. -1.
         -4   -1    0    0    0  501 -0.00000000000E+00 -0.00000000000E+00 -0.13837997643E+02  0.13896153380E+02  0.12700000000E+01 0. -1.
         25    2    1    2    0    0  0.00000000000E+00  0.00000000000E+00  0.26793353542E+03  0.29567054850E+03  0.12503077160E+03 0.  0.
    9000005    1    3    3    0    0  0.55217006919E+01  0.59654541307E+02  0.91795334414E+02  0.10961996578E+03  0.10000000000E+01 0.  0.
    9000005    1    3    3    0    0 -0.55217006919E+01 -0.59654541307E+02  0.17613820100E+03  0.18605058272E+03  0.10000000000E+01 0.  0.
<mgrwt>
<rscale>  0 0.12503077E+03</rscale>
<asrwt>0</asrwt>
<pdfrwt beam="1">  1        4 0.43354159E-01 0.12503077E+03</pdfrwt>
<pdfrwt beam="2">  1       -4 0.21336165E-02 0.12503077E+03</pdfrwt>
<totfact> 0.76093140E+03</totfact>
</mgrwt>
</event>
<event>
 5    1  0.3209683E-002  0.1249996E+03  0.7818608E-02  0.1235070E+00
          4   -1    0    0  501    0  0.00000000000E+00  0.00000000000E+00  0.19335682544E+03  0.19336099618E+03  0.12700000000E+01 0.  1.
         -4   -1    0    0    0  501 -0.00000000000E+00 -0.00000000000E+00 -0.20177810809E+02  0.20217738475E+02  0.12700000000E+01 0.  1.
         25    2    1    2    0    0  0.00000000000E+00  0.00000000000E+00  0.17317901463E+03  0.21357873466E+03  0.12499961916E+03 0.  0.
    9000005    1    3    3    0    0 -0.11129965510E+01 -0.58097088364E+02  0.47301459720E+02  0.74932893507E+02  0.10000000000E+01 0.  0.
    9000005    1    3    3    0    0  0.11129965510E+01  0.58097088364E+02  0.12587755491E+03  0.13864584115E+03  0.10000000000E+01 0.  0.
<mgrwt>
<rscale>  0 0.12499962E+03</rscale>
<asrwt>0</asrwt>
<pdfrwt beam="1">  1        4 0.29750597E-01 0.12499962E+03</pdfrwt>
<pdfrwt beam="2">  1       -4 0.31076706E-02 0.12499962E+03</pdfrwt>
<totfact> 0.87895488E+03</totfact>
</mgrwt>
</event>
<event>
 5    1  0.3209683E-002  0.1250012E+03  0.7818608E-02  0.1235067E+00
          4   -1    0    0  501    0  0.00000000000E+00  0.00000000000E+00  0.10692881408E+03  0.10693635574E+03  0.12700000000E+01 0.  1.
         -4   -1    0    0    0  501 -0.00000000000E+00 -0.00000000000E+00 -0.36512134189E+02  0.36534214691E+02  0.12700000000E+01 0.  1.
         25    2    1    2    0    0  0.00000000000E+00  0.00000000000E+00  0.70416679886E+02  0.14347057043E+03  0.12500118309E+03 0.  0.
    9000005    1    3    3    0    0 -0.46495482051E+02  0.16971315767E+02  0.78995836070E+02  0.93226592378E+02  0.10000000000E+01 0.  0.
    9000005    1    3    3    0    0  0.46495482051E+02 -0.16971315767E+02 -0.85791561836E+01  0.50243978056E+02  0.10000000000E+01 0.  0.
<mgrwt>
<rscale>  0 0.12500118E+03</rscale>
<asrwt>0</asrwt>
<pdfrwt beam="1">  1        4 0.16452865E-01 0.12500118E+03</pdfrwt>
<pdfrwt beam="2">  1       -4 0.56195302E-02 0.12500118E+03</pdfrwt>
<totfact> 0.10061888E+04</totfact>
</mgrwt>
</event>
<event>
 5    1  0.3209683E-002  0.1249963E+03  0.7818608E-02  0.1235075E+00
         -4   -1    0    0    0  501 -0.00000000000E+00  0.00000000000E+00  0.14812712165E+04  0.14812717609E+04  0.12700000000E+01 0. -1.
          4   -1    0    0  501    0  0.00000000000E+00 -0.00000000000E+00 -0.24834468597E+01  0.27893383275E+01  0.12700000000E+01 0. -1.
         25    2    1    2    0    0  0.00000000000E+00  0.00000000000E+00  0.14787877696E+04  0.14840610993E+04  0.12499631472E+03 0.  0.
    9000005    1    3    3    0    0 -0.48665674790E+02 -0.39238543948E+01  0.12024764777E+04  0.12034676663E+04  0.10000000000E+01 0.  0.
    9000005    1    3    3    0    0  0.48665674790E+02  0.39238543948E+01  0.27631129198E+03  0.28059343294E+03  0.10000000000E+01 0.  0.
<mgrwt>
<rscale>  0 0.12499631E+03</rscale>
<asrwt>0</asrwt>
<pdfrwt beam="2">  1        4 0.40564162E-03 0.12499631E+03</pdfrwt>
<pdfrwt beam="1">  1       -4 0.22791096E+00 0.12499631E+03</pdfrwt>
<totfact> 0.18247237E+03</totfact>
</mgrwt>
</event>
<event>
 5    1  0.3209683E-002  0.1250000E+03  0.7818608E-02  0.1235069E+00
          4   -1    0    0  501    0  0.00000000000E+00  0.00000000000E+00  0.30886837063E+03  0.30887098160E+03  0.12700000000E+01 0. -1.
         -4   -1    0    0    0  501 -0.00000000000E+00 -0.00000000000E+00 -0.12612415997E+02  0.12676195695E+02  0.12700000000E+01 0. -1.
         25    2    1    2    0    0  0.00000000000E+00  0.00000000000E+00  0.29625595463E+03  0.32154717729E+03  0.12499998629E+03 0.  0.
    9000005    1    3    3    0    0  0.32125248777E+02  0.26361853697E+02  0.28070113548E+02  0.50158849807E+02  0.10000000000E+01 0.  0.
    9000005    1    3    3    0    0 -0.32125248777E+02 -0.26361853697E+02  0.26818584108E+03  0.27138832749E+03  0.10000000000E+01 0.  0.
<mgrwt>
<rscale>  0 0.12499999E+03</rscale>
<asrwt>0</asrwt>
<pdfrwt beam="1">  1        4 0.47523316E-01 0.12499999E+03</pdfrwt>
<pdfrwt beam="2">  1       -4 0.19454787E-02 0.12499999E+03</pdfrwt>
<totfact> 0.72972508E+03</totfact>
</mgrwt>
</event>
<event>
 5    1  0.3209683E-002  0.1249955E+03  0.7818608E-02  0.1235076E+00
         -4   -1    0    0    0  501 -0.00000000000E+00  0.00000000000E+00  0.22689059645E+03  0.22689415078E+03  0.12700000000E+01 0.  1.
          4   -1    0    0  501    0  0.00000000000E+00 -0.00000000000E+00 -0.17188101110E+02  0.17234956332E+02  0.12700000000E+01 0.  1.
         25    2    1    2    0    0  0.00000000000E+00  0.00000000000E+00  0.20970249534E+03  0.24412910711E+03  0.12499553747E+03 0.  0.
    9000005    1    3    3    0    0  0.31858599818E+02  0.45957779903E+02  0.50378128363E+02  0.75273127564E+02  0.10000000000E+01 0.  0.
    9000005    1    3    3    0    0 -0.31858599818E+02 -0.45957779903E+02  0.15932436698E+03  0.16885597955E+03  0.10000000000E+01 0.  0.
<mgrwt>
<rscale>  0 0.12499554E+03</rscale>
<asrwt>0</asrwt>
<pdfrwt beam="2">  1        4 0.26482010E-02 0.12499554E+03</pdfrwt>
<pdfrwt beam="1">  1       -4 0.34910122E-01 0.12499554E+03</pdfrwt>
<totfact> 0.83194502E+03</totfact>
</mgrwt>
</event>
<event>
 5    1  0.3209683E-002  0.1249964E+03  0.7818608E-02  0.1235075E+00
          4   -1    0    0  501    0  0.00000000000E+00  0.00000000000E+00  0.33059973505E+02  0.33084358059E+02  0.12700000000E+01 0.  1.
         -4   -1    0    0    0  501 -0.00000000000E+00 -0.00000000000E+00 -0.11807826839E+03  0.11808509799E+03  0.12700000000E+01 0.  1.
         25    2    1    2    0    0  0.00000000000E+00  0.00000000000E+00 -0.85018294887E+02  0.15116945605E+03  0.12499637585E+03 0.  0.
    9000005    1    3    3    0    0 -0.23674935033E+02  0.94898867026E+01  0.26484054053E+02  0.36782680946E+02  0.10000000000E+01 0.  0.
    9000005    1    3    3    0    0  0.23674935033E+02 -0.94898867026E+01 -0.11150234894E+03  0.11438677510E+03  0.10000000000E+01 0.  0.
<mgrwt>
<rscale>  0 0.12499638E+03</rscale>
<asrwt>0</asrwt>
<pdfrwt beam="1">  1        4 0.50885509E-02 0.12499638E+03</pdfrwt>
<pdfrwt beam="2">  1       -4 0.18168288E-01 0.12499638E+03</pdfrwt>
<totfact> 0.99079174E+03</totfact>
</mgrwt>
</event>
<event>
 5    1  0.3209683E-002  0.1250009E+03  0.7818608E-02  0.1235068E+00
         -4   -1    0    0    0  501 -0.00000000000E+00  0.00000000000E+00  0.22774787064E+02  0.22810169350E+02  0.12700000000E+01 0. -1.
          4   -1    0    0  501    0  0.00000000000E+00 -0.00000000000E+00 -0.17134789455E+03  0.17135260099E+03  0.12700000000E+01 0. -1.
         25    2    1    2    0    0  0.00000000000E+00  0.00000000000E+00 -0.14857310749E+03  0.19416277034E+03  0.12500085247E+03 0.  0.
    9000005    1    3    3    0    0  0.54102716458E+02 -0.27444153442E+02 -0.97586848549E+02  0.11491074143E+03  0.10000000000E+01 0.  0.
    9000005    1    3    3    0    0 -0.54102716458E+02  0.27444153442E+02 -0.50986258938E+02  0.79252028913E+02  0.10000000000E+01 0.  0.
<mgrwt>
<rscale>  0 0.12500085E+03</rscale>
<asrwt>0</asrwt>
<pdfrwt beam="2">  1        4 0.26364297E-01 0.12500085E+03</pdfrwt>
<pdfrwt beam="1">  1       -4 0.35068973E-02 0.12500085E+03</pdfrwt>
<totfact> 0.91126270E+03</totfact>
</mgrwt>
</event>
<event>
 5    1  0.3209683E-002  0.1249975E+03  0.7818608E-02  0.1235073E+00
          4   -1    0    0  501    0  0.00000000000E+00  0.00000000000E+00  0.31973545983E+02  0.31998758456E+02  0.12700000000E+01 0. -1.
         -4   -1    0    0    0  501 -0.00000000000E+00 -0.00000000000E+00 -0.12208980797E+03  0.12209641318E+03  0.12700000000E+01 0. -1.
         25    2    1    2    0    0  0.00000000000E+00  0.00000000000E+00 -0.90116261987E+02  0.15409517163E+03  0.12499752496E+03 0.  0.
    9000005    1    3    3    0    0 -0.51948632613E+02  0.34486676345E+02 -0.50156566316E+02  0.80029197299E+02  0.10000000000E+01 0.  0.
    9000005    1    3    3    0    0  0.51948632613E+02 -0.34486676345E+02 -0.39959695671E+02  0.74065974333E+02  0.10000000000E+01 0.  0.
<mgrwt>
<rscale>  0 0.12499752E+03</rscale>
<asrwt>0</asrwt>
<pdfrwt beam="1">  1        4 0.49214547E-02 0.12499752E+03</pdfrwt>
<pdfrwt beam="2">  1       -4 0.18785495E-01 0.12499752E+03</pdfrwt>
<totfact> 0.98498905E+03</totfact>
</mgrwt>
</event>
<event>
 5    1  0.3209683E-002  0.1249979E+03  0.7818608E-02  0.1235073E+00
          4   -1    0    0  501    0  0.00000000000E+00  0.00000000000E+00  0.13766411548E+03  0.13766997346E+03  0.12700000000E+01 0.  1.
         -4   -1    0    0    0  501 -0.00000000000E+00 -0.00000000000E+00 -0.28353601364E+02  0.28382029708E+02  0.12700000000E+01 0.  1.
         25    2    1    2    0    0  0.00000000000E+00  0.00000000000E+00  0.10931051412E+03  0.16605200317E+03  0.12499791702E+03 0.  0.
    9000005    1    3    3    0    0  0.55998206042E+02  0.93802285007E+01  0.89330598953E+02  0.10585246183E+03  0.10000000000E+01 0.  0.
    9000005    1    3    3    0    0 -0.55998206042E+02 -0.93802285007E+01  0.19979915166E+02  0.60199541333E+02  0.10000000000E+01 0.  0.
<mgrwt>
<rscale>  0 0.12499792E+03</rscale>
<asrwt>0</asrwt>
<pdfrwt beam="1">  1        4 0.21181732E-01 0.12499792E+03</pdfrwt>
<pdfrwt beam="2">  1       -4 0.43647299E-02 0.12499792E+03</pdfrwt>
<totfact> 0.96193030E+03</totfact>
</mgrwt>
</event>
<event>
 5    1  0.3209683E-002  0.1250030E+03  0.7818608E-02  0.1235065E+00
         -4   -1    0    0    0  501 -0.00000000000E+00  0.00000000000E+00  0.18120368055E+02  0.18164818701E+02  0.12700000000E+01 0. -1.
          4   -1    0    0  501    0  0.00000000000E+00 -0.00000000000E+00 -0.21527241434E+03  0.21527616049E+03  0.12700000000E+01 0. -1.
         25    2    1    2    0    0  0.00000000000E+00  0.00000000000E+00 -0.19715204628E+03  0.23344097919E+03  0.12500304561E+03 0.  0.
    9000005    1    3    3    0    0  0.16041299062E+02 -0.60171988047E+02 -0.88791960480E+02  0.10845738180E+03  0.10000000000E+01 0.  0.
    9000005    1    3    3    0    0 -0.16041299062E+02  0.60171988047E+02 -0.10836008580E+03  0.12498359739E+03  0.10000000000E+01 0.  0.
<mgrwt>
<rscale>  0 0.12500305E+03</rscale>
<asrwt>0</asrwt>
<pdfrwt beam="2">  1        4 0.33122539E-01 0.12500305E+03</pdfrwt>
<pdfrwt beam="1">  1       -4 0.27914565E-02 0.12500305E+03</pdfrwt>
<totfact> 0.84778258E+03</totfact>
</mgrwt>
</event>
<event>
 5    1  0.3209683E-002  0.1249970E+03  0.7818608E-02  0.1235074E+00
         -4   -1    0    0    0  501 -0.00000000000E+00  0.00000000000E+00  0.41918745332E+03  0.41918937716E+03  0.12700000000E+01 0. -1.
          4   -1    0    0  501    0  0.00000000000E+00 -0.00000000000E+00 -0.92729544849E+01  0.93595184107E+01  0.12700000000E+01 0. -1.
         25    2    1    2    0    0  0.00000000000E+00  0.00000000000E+00  0.40991449883E+03  0.42854889557E+03  0.12499703811E+03 0.  0.
    9000005    1    3    3    0    0  0.26600599032E+02 -0.32379322905E+02  0.46020558443E+02  0.62248728662E+02  0.10000000000E+01 0.  0.
    9000005    1    3    3    0    0 -0.26600599032E+02  0.32379322905E+02  0.36389394039E+03  0.36630016691E+03  0.10000000000E+01 0.  0.
<mgrwt>
<rscale>  0 0.12499704E+03</rscale>
<asrwt>0</asrwt>
<pdfrwt beam="2">  1        4 0.14334154E-02 0.12499704E+03</pdfrwt>
<pdfrwt beam="1">  1       -4 0.64497172E-01 0.12499704E+03</pdfrwt>
<totfact> 0.61871791E+03</totfact>
</mgrwt>
</event>
<event>
 5    1  0.3209683E-002  0.1250094E+03  0.7818608E-02  0.1235055E+00
         -4   -1    0    0    0  501 -0.00000000000E+00  0.00000000000E+00  0.55896911074E+02  0.55911336664E+02  0.12700000000E+01 0.  1.
          4   -1    0    0  501    0  0.00000000000E+00 -0.00000000000E+00 -0.69864434602E+02  0.69875976718E+02  0.12700000000E+01 0.  1.
         25    2    1    2    0    0  0.00000000000E+00  0.00000000000E+00 -0.13967523528E+02  0.12578731338E+03  0.12500942562E+03 0.  0.
    9000005    1    3    3    0    0 -0.27423774179E+02 -0.28912532184E+02  0.41459783888E+02  0.57514446773E+02  0.10000000000E+01 0.  0.
    9000005    1    3    3    0    0  0.27423774179E+02  0.28912532184E+02 -0.55427307417E+02  0.68272866609E+02  0.10000000000E+01 0.  0.
<mgrwt>
<rscale>  0 0.12500943E+03</rscale>
<asrwt>0</asrwt>
<pdfrwt beam="2">  1        4 0.10750372E-01 0.12500943E+03</pdfrwt>
<pdfrwt beam="1">  1       -4 0.86015223E-02 0.12500943E+03</pdfrwt>
<totfact> 0.10433405E+04</totfact>
</mgrwt>
</event>
<event>
 5    1  0.3209683E-002  0.1249945E+03  0.7818608E-02  0.1235078E+00
          4   -1    0    0  501    0  0.00000000000E+00  0.00000000000E+00  0.57326704205E+02  0.57340770094E+02  0.12700000000E+01 0. -1.
         -4   -1    0    0    0  501 -0.00000000000E+00 -0.00000000000E+00 -0.68105758536E+02  0.68117598649E+02  0.12700000000E+01 0. -1.
         25    2    1    2    0    0  0.00000000000E+00  0.00000000000E+00 -0.10779054331E+02  0.12545836874E+03  0.12499445698E+03 0.  0.
    9000005    1    3    3    0    0  0.12489132397E+01 -0.51608957739E+02  0.29952794739E+02  0.59692664673E+02  0.10000000000E+01 0.  0.
    9000005    1    3    3    0    0 -0.12489132397E+01  0.51608957739E+02 -0.40731849070E+02  0.65765704070E+02  0.10000000000E+01 0.  0.
<mgrwt>
<rscale>  0 0.12499446E+03</rscale>
<asrwt>0</asrwt>
<pdfrwt beam="1">  1        4 0.88214857E-02 0.12499446E+03</pdfrwt>
<pdfrwt beam="2">  1       -4 0.10479802E-01 0.12499446E+03</pdfrwt>
<totfact> 0.10444180E+04</totfact>
</mgrwt>
</event>
<event>
 5    1  0.3209683E-002  0.1249992E+03  0.7818608E-02  0.1235071E+00
         -4   -1    0    0    0  501 -0.00000000000E+00  0.00000000000E+00  0.24186422329E+02  0.24219742465E+02  0.12700000000E+01 0. -1.
          4   -1    0    0  501    0  0.00000000000E+00 -0.00000000000E+00 -0.16135688582E+03  0.16136188367E+03  0.12700000000E+01 0. -1.
         25    2    1    2    0    0  0.00000000000E+00  0.00000000000E+00 -0.13717046349E+03  0.18558162613E+03  0.12499921561E+03 0.  0.
    9000005    1    3    3    0    0 -0.16893612353E+02  0.27182154423E+02  0.11103073883E+02  0.33890144690E+02  0.10000000000E+01 0.  0.
    9000005    1    3    3    0    0  0.16893612353E+02 -0.27182154423E+02 -0.14827353737E+03  0.15169148144E+03  0.10000000000E+01 0.  0.
<mgrwt>
<rscale>  0 0.12499922E+03</rscale>
<asrwt>0</asrwt>
<pdfrwt beam="2">  1        4 0.24827083E-01 0.12499922E+03</pdfrwt>
<pdfrwt beam="1">  1       -4 0.37239357E-02 0.12499922E+03</pdfrwt>
<totfact> 0.92623460E+03</totfact>
</mgrwt>
</event>
<event>
 5    1  0.3209683E-002  0.1249983E+03  0.7818608E-02  0.1235072E+00
         -4   -1    0    0    0  501 -0.00000000000E+00  0.00000000000E+00  0.72810935958E+02  0.72822011062E+02  0.12700000000E+01 0.  1.
          4   -1    0    0  501    0  0.00000000000E+00 -0.00000000000E+00 -0.53625102884E+02  0.53640139442E+02  0.12700000000E+01 0.  1.
         25    2    1    2    0    0  0.00000000000E+00  0.00000000000E+00  0.19185833074E+02  0.12646215050E+03  0.12499831727E+03 0.  0.
    9000005    1    3    3    0    0 -0.26268762880E+02 -0.30356138606E+02  0.58045328853E+02  0.70581890425E+02  0.10000000000E+01 0.  0.
    9000005    1    3    3    0    0  0.26268762880E+02  0.30356138606E+02 -0.38859495779E+02  0.55880260079E+02  0.10000000000E+01 0.  0.
<mgrwt>
<rscale>  0 0.12499832E+03</rscale>
<asrwt>0</asrwt>
<pdfrwt beam="2">  1        4 0.82520245E-02 0.12499832E+03</pdfrwt>
<pdfrwt beam="1">  1       -4 0.11203691E-01 0.12499832E+03</pdfrwt>
<totfact> 0.10421249E+04</totfact>
</mgrwt>
</event>
<event>
 5    1  0.3209683E-002  0.1249773E+03  0.7818608E-02  0.1235105E+00
          4   -1    0    0  501    0  0.00000000000E+00  0.00000000000E+00  0.24795242743E+02  0.24827745823E+02  0.12700000000E+01 0.  1.
         -4   -1    0    0    0  501 -0.00000000000E+00 -0.00000000000E+00 -0.15734487733E+03  0.15735000261E+03  0.12700000000E+01 0.  1.
         25    2    1    2    0    0  0.00000000000E+00  0.00000000000E+00 -0.13254963458E+03  0.18217774843E+03  0.12497730352E+03 0.  0.
    9000005    1    3    3    0    0 -0.12817557773E+02  0.27656055991E+01 -0.15532376371E+03  0.15587947246E+03  0.10000000000E+01 0.  0.
    9000005    1    3    3    0    0  0.12817557773E+02 -0.27656055991E+01  0.22774129126E+02  0.26298275971E+02  0.10000000000E+01 0.  0.
<mgrwt>
<rscale>  0 0.12497730E+03</rscale>
<asrwt>0</asrwt>
<pdfrwt beam="1">  1        4 0.38175473E-02 0.12497730E+03</pdfrwt>
<pdfrwt beam="2">  1       -4 0.24209798E-01 0.12497730E+03</pdfrwt>
<totfact> 0.93273912E+03</totfact>
</mgrwt>
</event>
<event>
 5    1  0.3209683E-002  0.1250215E+03  0.7818608E-02  0.1235036E+00
          4   -1    0    0  501    0  0.00000000000E+00  0.00000000000E+00  0.20218574010E+02  0.20258421335E+02  0.12700000000E+01 0. -1.
         -4   -1    0    0    0  501 -0.00000000000E+00 -0.00000000000E+00 -0.19303519268E+03  0.19303937037E+03  0.12700000000E+01 0. -1.
         25    2    1    2    0    0  0.00000000000E+00  0.00000000000E+00 -0.17281661867E+03  0.21329779171E+03  0.12502145519E+03 0.  0.
    9000005    1    3    3    0    0  0.23011611955E+02 -0.36360972087E+02 -0.16374774727E+03  0.16931030480E+03  0.10000000000E+01 0.  0.
    9000005    1    3    3    0    0 -0.23011611955E+02  0.36360972087E+02 -0.90688714027E+01  0.43987486907E+02  0.10000000000E+01 0.  0.
<mgrwt>
<rscale>  0 0.12502146E+03</rscale>
<asrwt>0</asrwt>
<pdfrwt beam="1">  1        4 0.31139365E-02 0.12502146E+03</pdfrwt>
<pdfrwt beam="2">  1       -4 0.29701107E-01 0.12502146E+03</pdfrwt>
<totfact> 0.87897969E+03</totfact>
</mgrwt>
</event>
<event>
 5    1  0.3209683E-002  0.1250043E+03  0.7818608E-02  0.1235063E+00
         -4   -1    0    0    0  501 -0.00000000000E+00  0.00000000000E+00  0.83121832719E+02  0.83131534177E+02  0.12700000000E+01 0. -1.
          4   -1    0    0  501    0  0.00000000000E+00 -0.00000000000E+00 -0.46976454913E+02  0.46993618888E+02  0.12700000000E+01 0. -1.
         25    2    1    2    0    0  0.00000000000E+00  0.00000000000E+00  0.36145377806E+02  0.13012515307E+03  0.12500426842E+03 0.  0.
    9000005    1    3    3    0    0 -0.48837294722E+02  0.30401547914E+02 -0.73443871803E+01  0.58002374903E+02  0.10000000000E+01 0.  0.
    9000005    1    3    3    0    0  0.48837294722E+02 -0.30401547914E+02  0.43489764986E+02  0.72122778163E+02  0.10000000000E+01 0.  0.
<mgrwt>
<rscale>  0 0.12500427E+03</rscale>
<asrwt>0</asrwt>
<pdfrwt beam="2">  1        4 0.72292135E-02 0.12500427E+03</pdfrwt>
<pdfrwt beam="1">  1       -4 0.12790041E-01 0.12500427E+03</pdfrwt>
<totfact> 0.10340835E+04</totfact>
</mgrwt>
</event>
<event>
 5    1  0.3209683E-002  0.1249953E+03  0.7818608E-02  0.1235077E+00
         -4   -1    0    0    0  501 -0.00000000000E+00  0.00000000000E+00  0.21812907901E+03  0.21813277610E+03  0.12700000000E+01 0.  1.
          4   -1    0    0  501    0  0.00000000000E+00 -0.00000000000E+00 -0.17880253975E+02  0.17925300059E+02  0.12700000000E+01 0.  1.
         25    2    1    2    0    0  0.00000000000E+00  0.00000000000E+00  0.20024882503E+03  0.23605807616E+03  0.12499529348E+03 0.  0.
    9000005    1    3    3    0    0 -0.49396679909E+02 -0.32601745088E+02  0.62257030690E+02  0.85906016316E+02  0.10000000000E+01 0.  0.
    9000005    1    3    3    0    0  0.49396679909E+02  0.32601745088E+02  0.13799179434E+03  0.15015205984E+03  0.10000000000E+01 0.  0.
<mgrwt>
<rscale>  0 0.12499529E+03</rscale>
<asrwt>0</asrwt>
<pdfrwt beam="2">  1        4 0.27545581E-02 0.12499529E+03</pdfrwt>
<pdfrwt beam="1">  1       -4 0.33562066E-01 0.12499529E+03</pdfrwt>
<totfact> 0.84396832E+03</totfact>
</mgrwt>
</event>
<event>
 5    1  0.3209683E-002  0.1249975E+03  0.7818608E-02  0.1235073E+00
          4   -1    0    0  501    0  0.00000000000E+00  0.00000000000E+00  0.10317986967E+02  0.10395852781E+02  0.12700000000E+01 0.  1.
         -4   -1    0    0    0  501 -0.00000000000E+00 -0.00000000000E+00 -0.37706905744E+03  0.37707119617E+03  0.12700000000E+01 0.  1.
         25    2    1    2    0    0  0.00000000000E+00  0.00000000000E+00 -0.36675107048E+03  0.38746704895E+03  0.12499746528E+03 0.  0.
    9000005    1    3    3    0    0 -0.10684728427E+01 -0.60541474110E+02 -0.13548590805E+03  0.14840432272E+03  0.10000000000E+01 0.  0.
    9000005    1    3    3    0    0  0.10684728427E+01  0.60541474110E+02 -0.23126516242E+03  0.23906272623E+03  0.10000000000E+01 0.  0.
<mgrwt>
<rscale>  0 0.12499747E+03</rscale>
<asrwt>0</asrwt>
<pdfrwt beam="1">  1        4 0.15935371E-02 0.12499747E+03</pdfrwt>
<pdfrwt beam="2">  1       -4 0.58016768E-01 0.12499747E+03</pdfrwt>
<totfact> 0.65793947E+03</totfact>
</mgrwt>
</event>
<event>
 5    1  0.3209683E-002  0.1250055E+03  0.7818608E-02  0.1235061E+00
          4   -1    0    0  501    0  0.00000000000E+00  0.00000000000E+00  0.23373945209E+03  0.23374290227E+03  0.12700000000E+01 0. -1.
         -4   -1    0    0    0  501 -0.00000000000E+00 -0.00000000000E+00 -0.16685739458E+02  0.16734001353E+02  0.12700000000E+01 0. -1.
         25    2    1    2    0    0  0.00000000000E+00  0.00000000000E+00  0.21705371263E+03  0.25047690363E+03  0.12500546021E+03 0.  0.
    9000005    1    3    3    0    0 -0.20639945923E+02  0.16298746743E+02  0.22212133710E+03  0.22367508781E+03  0.10000000000E+01 0.  0.
    9000005    1    3    3    0    0  0.20639945923E+02 -0.16298746743E+02 -0.50676244684E+01  0.26801815813E+02  0.10000000000E+01 0.  0.
<mgrwt>
<rscale>  0 0.12500546E+03</rscale>
<asrwt>0</asrwt>
<pdfrwt beam="1">  1        4 0.35963894E-01 0.12500546E+03</pdfrwt>
<pdfrwt beam="2">  1       -4 0.25710146E-02 0.12500546E+03</pdfrwt>
<totfact> 0.82251343E+03</totfact>
</mgrwt>
</event>
<event>
 5    1  0.3209683E-002  0.1249990E+03  0.7818608E-02  0.1235071E+00
          4   -1    0    0  501    0  0.00000000000E+00  0.00000000000E+00  0.50462716935E+02  0.50478695511E+02  0.12700000000E+01 0. -1.
         -4   -1    0    0    0  501 -0.00000000000E+00 -0.00000000000E+00 -0.77373935156E+02  0.77384357215E+02  0.12700000000E+01 0. -1.
         25    2    1    2    0    0  0.00000000000E+00  0.00000000000E+00 -0.26911218222E+02  0.12786305273E+03  0.12499898634E+03 0.  0.
    9000005    1    3    3    0    0 -0.38981341966E+02  0.47438024675E+02 -0.15583188990E+01  0.61427514717E+02  0.10000000000E+01 0.  0.
    9000005    1    3    3    0    0  0.38981341966E+02 -0.47438024675E+02 -0.25352899323E+02  0.66435538009E+02  0.10000000000E+01 0.  0.
<mgrwt>
<rscale>  0 0.12499899E+03</rscale>
<asrwt>0</asrwt>
<pdfrwt beam="1">  1        4 0.77655257E-02 0.12499899E+03</pdfrwt>
<pdfrwt beam="2">  1       -4 0.11905713E-01 0.12499899E+03</pdfrwt>
<totfact> 0.10390684E+04</totfact>
</mgrwt>
</event>
<event>
 5    1  0.3209683E-002  0.1250002E+03  0.7818608E-02  0.1235069E+00
          4   -1    0    0  501    0  0.00000000000E+00  0.00000000000E+00  0.52882432776E+02  0.52897680443E+02  0.12700000000E+01 0.  1.
         -4   -1    0    0    0  501 -0.00000000000E+00 -0.00000000000E+00 -0.73835524996E+02  0.73846446437E+02  0.12700000000E+01 0.  1.
         25    2    1    2    0    0  0.00000000000E+00  0.00000000000E+00 -0.20953092220E+02  0.12674412688E+03  0.12500016650E+03 0.  0.
    9000005    1    3    3    0    0 -0.26490975059E+02  0.39873851237E+02 -0.51206173381E+02  0.70105406099E+02  0.10000000000E+01 0.  0.
    9000005    1    3    3    0    0  0.26490975059E+02 -0.39873851237E+02  0.30253081161E+02  0.56638720781E+02  0.10000000000E+01 0.  0.
<mgrwt>
<rscale>  0 0.12500017E+03</rscale>
<asrwt>0</asrwt>
<pdfrwt beam="1">  1        4 0.81377719E-02 0.12500017E+03</pdfrwt>
<pdfrwt beam="2">  1       -4 0.11361325E-01 0.12500017E+03</pdfrwt>
<totfact> 0.10414670E+04</totfact>
</mgrwt>
</event>
<event>
 5    1  0.3209683E-002  0.1249980E+03  0.7818608E-02  0.1235072E+00
         -4   -1    0    0    0  501 -0.00000000000E+00  0.00000000000E+00  0.20229087885E+02  0.20268914541E+02  0.12700000000E+01 0. -1.
          4   -1    0    0  501    0  0.00000000000E+00 -0.00000000000E+00 -0.19286258859E+03  0.19286677002E+03  0.12700000000E+01 0. -1.
         25    2    1    2    0    0  0.00000000000E+00  0.00000000000E+00 -0.17263350070E+03  0.21313568456E+03  0.12499797785E+03 0.  0.
    9000005    1    3    3    0    0 -0.51752311977E+02 -0.24447952804E+02 -0.12908482786E+03  0.14120870007E+03  0.10000000000E+01 0.  0.
    9000005    1    3    3    0    0  0.51752311977E+02  0.24447952804E+02 -0.43548672839E+02  0.71926984486E+02  0.10000000000E+01 0.  0.
<mgrwt>
<rscale>  0 0.12499798E+03</rscale>
<asrwt>0</asrwt>
<pdfrwt beam="2">  1        4 0.29674552E-01 0.12499798E+03</pdfrwt>
<pdfrwt beam="1">  1       -4 0.31155527E-02 0.12499798E+03</pdfrwt>
<totfact> 0.87970306E+03</totfact>
</mgrwt>
</event>
<event>
 5    1  0.3209683E-002  0.1249961E+03  0.7818608E-02  0.1235075E+00
          4   -1    0    0  501    0  0.00000000000E+00  0.00000000000E+00  0.17863396507E+03  0.17863847955E+03  0.12700000000E+01 0. -1.
         -4   -1    0    0    0  501 -0.00000000000E+00 -0.00000000000E+00 -0.21842755718E+02  0.21879645275E+02  0.12700000000E+01 0. -1.
         25    2    1    2    0    0  0.00000000000E+00  0.00000000000E+00  0.15679120935E+03  0.20051812483E+03  0.12499614016E+03 0.  0.
    9000005    1    3    3    0    0 -0.20947777174E+02  0.46408731480E+02  0.20279707387E+02  0.54816477977E+02  0.10000000000E+01 0.  0.
    9000005    1    3    3    0    0  0.20947777174E+02 -0.46408731480E+02  0.13651150197E+03  0.14570164685E+03  0.10000000000E+01 0.  0.
<mgrwt>
<rscale>  0 0.12499614E+03</rscale>
<asrwt>0</asrwt>
<pdfrwt beam="1">  1        4 0.27485334E-01 0.12499614E+03</pdfrwt>
<pdfrwt beam="2">  1       -4 0.33636088E-02 0.12499614E+03</pdfrwt>
<totfact> 0.90055971E+03</totfact>
</mgrwt>
</event>
<event>
 4    1  0.3209683E-002  0.1248950E+03  0.7818608E-02  0.1235234E+00
          4   -1    0    0  501    0  0.00000000000E+00  0.00000000000E+00  0.81805885847E+01  0.82785825835E+01  0.12700000000E+01 0.  1.
         -4   -1    0    0    0  501 -0.00000000000E+00 -0.00000000000E+00 -0.47376319370E+03  0.47376489592E+03  0.12700000000E+01 0.  1.
    9000005    1    1    2    0    0  0.10916962317E+02  0.61283949818E+02 -0.21396786236E+03  0.22284108395E+03  0.10000000000E+01 0.  0.
    9000005    1    1    2    0    0 -0.10916962317E+02 -0.61283949818E+02 -0.25161474276E+03  0.25920239456E+03  0.10000000000E+01 0.  0.
<mgrwt>
<rscale>  0 0.12489497E+03</rscale>
<asrwt>0</asrwt>
<pdfrwt beam="1">  1        4 0.12662214E-02 0.12489497E+03</pdfrwt>
<pdfrwt beam="2">  1       -4 0.72894293E-01 0.12489497E+03</pdfrwt>
<totfact> 0.57417583E+03</totfact>
</mgrwt>
</event>
<event>
 5    1  0.3209683E-002  0.1249997E+03  0.7818608E-02  0.1235070E+00
         -4   -1    0    0    0  501 -0.00000000000E+00  0.00000000000E+00  0.12533382891E+02  0.12597562728E+02  0.12700000000E+01 0.  1.
          4   -1    0    0  501    0  0.00000000000E+00 -0.00000000000E+00 -0.31080485242E+03  0.31080744713E+03  0.12700000000E+01 0.  1.
         25    2    1    2    0    0  0.00000000000E+00  0.00000000000E+00 -0.29827146953E+03  0.32340500985E+03  0.12499972345E+03 0.  0.
    9000005    1    3    3    0    0  0.25274324016E+02 -0.39934287935E+02 -0.25491878144E+03  0.25926458288E+03  0.10000000000E+01 0.  0.
    9000005    1    3    3    0    0 -0.25274324016E+02  0.39934287935E+02 -0.43352688094E+02  0.64140426973E+02  0.10000000000E+01 0.  0.
<mgrwt>
<rscale>  0 0.12499972E+03</rscale>
<asrwt>0</asrwt>
<pdfrwt beam="2">  1        4 0.47821262E-01 0.12499972E+03</pdfrwt>
<pdfrwt beam="1">  1       -4 0.19333495E-02 0.12499972E+03</pdfrwt>
<totfact> 0.72753415E+03</totfact>
</mgrwt>
</event>
<event>
 5    1  0.3209683E-002  0.1250050E+03  0.7818608E-02  0.1235061E+00
          4   -1    0    0  501    0  0.00000000000E+00  0.00000000000E+00  0.36292689753E+03  0.36292911960E+03  0.12700000000E+01 0. -1.
         -4   -1    0    0    0  501 -0.00000000000E+00 -0.00000000000E+00 -0.10724325001E+02  0.10799261398E+02  0.12700000000E+01 0. -1.
         25    2    1    2    0    0  0.00000000000E+00  0.00000000000E+00  0.35220257253E+03  0.37372838099E+03  0.12500500256E+03 0.  0.
    9000005    1    3    3    0    0 -0.28780243953E+02  0.38766692757E+02  0.57473412912E+02  0.75068982283E+02  0.10000000000E+01 0.  0.
    9000005    1    3    3    0    0  0.28780243953E+02 -0.38766692757E+02  0.29472915962E+03  0.29865939871E+03  0.10000000000E+01 0.  0.
<mgrwt>
<rscale>  0 0.12500500E+03</rscale>
<asrwt>0</asrwt>
<pdfrwt beam="1">  1        4 0.55840836E-01 0.12500500E+03</pdfrwt>
<pdfrwt beam="2">  1       -4 0.16558316E-02 0.12500500E+03</pdfrwt>
<totfact> 0.67183247E+03</totfact>
</mgrwt>
</event>
<event>
 5    1  0.3209683E-002  0.1249994E+03  0.7818608E-02  0.1235070E+00
          4   -1    0    0  501    0  0.00000000000E+00  0.00000000000E+00  0.35964062232E+02  0.35986479020E+02  0.12700000000E+01 0. -1.
         -4   -1    0    0    0  501 -0.00000000000E+00 -0.00000000000E+00 -0.10855443228E+03  0.10856186102E+03  0.12700000000E+01 0. -1.
         25    2    1    2    0    0  0.00000000000E+00  0.00000000000E+00 -0.72590370049E+02  0.14454834004E+03  0.12499944314E+03 0.  0.
    9000005    1    3    3    0    0 -0.10400536383E+02 -0.28571906414E+02 -0.99429206040E+02  0.10397928643E+03  0.10000000000E+01 0.  0.
    9000005    1    3    3    0    0  0.10400536383E+02  0.28571906414E+02  0.26838835991E+02  0.40569053607E+02  0.10000000000E+01 0.  0.
<mgrwt>
<rscale>  0 0.12499944E+03</rscale>
<asrwt>0</asrwt>
<pdfrwt beam="1">  1        4 0.55352285E-02 0.12499944E+03</pdfrwt>
<pdfrwt beam="2">  1       -4 0.16702978E-01 0.12499944E+03</pdfrwt>
<totfact> 0.10040299E+04</totfact>
</mgrwt>
</event>
<event>
 5    1  0.3209683E-002  0.1250028E+03  0.7818608E-02  0.1235065E+00
         -4   -1    0    0    0  501 -0.00000000000E+00  0.00000000000E+00  0.29665646030E+02  0.29692818229E+02  0.12700000000E+01 0.  1.
          4   -1    0    0  501    0  0.00000000000E+00 -0.00000000000E+00 -0.13159134343E+03  0.13159747173E+03  0.12700000000E+01 0.  1.
         25    2    1    2    0    0  0.00000000000E+00  0.00000000000E+00 -0.10192569740E+03  0.16129028996E+03  0.12500283934E+03 0.  0.
    9000005    1    3    3    0    0  0.45486763560E+02  0.19838291631E+02 -0.19516841557E+01  0.49673056530E+02  0.10000000000E+01 0.  0.
    9000005    1    3    3    0    0 -0.45486763560E+02 -0.19838291631E+02 -0.99974013243E+02  0.11161723343E+03  0.10000000000E+01 0.  0.
<mgrwt>
<rscale>  0 0.12500284E+03</rscale>
<asrwt>0</asrwt>
<pdfrwt beam="2">  1        4 0.20247383E-01 0.12500284E+03</pdfrwt>
<pdfrwt beam="1">  1       -4 0.45665072E-02 0.12500284E+03</pdfrwt>
<totfact> 0.97088407E+03</totfact>
</mgrwt>
</event>
<event>
 5    1  0.3209683E-002  0.1249985E+03  0.7818608E-02  0.1235072E+00
          4   -1    0    0  501    0  0.00000000000E+00  0.00000000000E+00  0.54468769681E+02  0.54483573401E+02  0.12700000000E+01 0.  1.
         -4   -1    0    0    0  501 -0.00000000000E+00 -0.00000000000E+00 -0.71683559012E+02  0.71694808268E+02  0.12700000000E+01 0.  1.
         25    2    1    2    0    0  0.00000000000E+00  0.00000000000E+00 -0.17214789331E+02  0.12617838167E+03  0.12499854011E+03 0.  0.
    9000005    1    3    3    0    0  0.90438433489E+01 -0.57797981486E+02  0.13571816571E+02  0.60063233108E+02  0.10000000000E+01 0.  0.
    9000005    1    3    3    0    0 -0.90438433489E+01  0.57797981486E+02 -0.30786605901E+02  0.66115148561E+02  0.10000000000E+01 0.  0.
<mgrwt>
<rscale>  0 0.12499854E+03</rscale>
<asrwt>0</asrwt>
<pdfrwt beam="1">  1        4 0.83818148E-02 0.12499854E+03</pdfrwt>
<pdfrwt beam="2">  1       -4 0.11030244E-01 0.12499854E+03</pdfrwt>
<totfact> 0.10427395E+04</totfact>
</mgrwt>
</event>
<event>
 5    1  0.3209683E-002  0.1250023E+03  0.7818608E-02  0.1235066E+00
         -4   -1    0    0    0  501 -0.00000000000E+00  0.00000000000E+00  0.53170265538E+02  0.53185430687E+02  0.12700000000E+01 0. -1.
          4   -1    0    0  501    0  0.00000000000E+00 -0.00000000000E+00 -0.73438442621E+02  0.73449423106E+02  0.12700000000E+01 0. -1.
         25    2    1    2    0    0  0.00000000000E+00  0.00000000000E+00 -0.20268177083E+02  0.12663485379E+03  0.12500234875E+03 0.  0.
    9000005    1    3    3    0    0  0.39469907230E+02  0.47617978478E+02 -0.10700988565E+01  0.61866716113E+02  0.10000000000E+01 0.  0.
    9000005    1    3    3    0    0 -0.39469907230E+02 -0.47617978478E+02 -0.19198078227E+02  0.64768137681E+02  0.10000000000E+01 0.  0.
<mgrwt>
<rscale>  0 0.12500235E+03</rscale>
<asrwt>0</asrwt>
<pdfrwt beam="2">  1        4 0.11300233E-01 0.12500235E+03</pdfrwt>
<pdfrwt beam="1">  1       -4 0.81820521E-02 0.12500235E+03</pdfrwt>
<totfact> 0.10416537E+04</totfact>
</mgrwt>
</event>
<event>
 5    1  0.3209683E-002  0.1250020E+03  0.7818608E-02  0.1235066E+00
         -4   -1    0    0    0  501 -0.00000000000E+00  0.00000000000E+00  0.30888748169E+02  0.30914845357E+02  0.12700000000E+01 0. -1.
          4   -1    0    0  501    0  0.00000000000E+00 -0.00000000000E+00 -0.12638318774E+03  0.12638956857E+03  0.12700000000E+01 0. -1.
         25    2    1    2    0    0  0.00000000000E+00  0.00000000000E+00 -0.95494439566E+02  0.15730441392E+03  0.12500196259E+03 0.  0.
    9000005    1    3    3    0    0 -0.26530528116E+01 -0.50886875603E+02 -0.93274389525E+02  0.10629028431E+03  0.10000000000E+01 0.  0.
    9000005    1    3    3    0    0  0.26530528116E+01  0.50886875603E+02 -0.22200500413E+01  0.51014129611E+02  0.10000000000E+01 0.  0.
<mgrwt>
<rscale>  0 0.12500196E+03</rscale>
<asrwt>0</asrwt>
<pdfrwt beam="2">  1        4 0.19446065E-01 0.12500196E+03</pdfrwt>
<pdfrwt beam="1">  1       -4 0.47546135E-02 0.12500196E+03</pdfrwt>
<totfact> 0.97860686E+03</totfact>
</mgrwt>
</event>
<event>
 5    1  0.3209683E-002  0.1250030E+03  0.7818608E-02  0.1235065E+00
          4   -1    0    0  501    0  0.00000000000E+00  0.00000000000E+00  0.34692361480E+02  0.34715599448E+02  0.12700000000E+01 0. -1.
         -4   -1    0    0    0  501 -0.00000000000E+00 -0.00000000000E+00 -0.11253773978E+03  0.11254490560E+03  0.12700000000E+01 0. -1.
         25    2    1    2    0    0  0.00000000000E+00  0.00000000000E+00 -0.77845378305E+02  0.14726050505E+03  0.12500301365E+03 0.  0.
    9000005    1    3    3    0    0 -0.61818794340E+02  0.37389398609E+01 -0.29073738839E+02  0.68423864952E+02  0.10000000000E+01 0.  0.
    9000005    1    3    3    0    0  0.61818794340E+02 -0.37389398609E+01 -0.48771639466E+02  0.78836640093E+02  0.10000000000E+01 0.  0.
<mgrwt>
<rscale>  0 0.12500301E+03</rscale>
<asrwt>0</asrwt>
<pdfrwt beam="1">  1        4 0.53396252E-02 0.12500301E+03</pdfrwt>
<pdfrwt beam="2">  1       -4 0.17315837E-01 0.12500301E+03</pdfrwt>
<totfact> 0.99845831E+03</totfact>
</mgrwt>
</event>
<event>
 5    1  0.3209683E-002  0.1250018E+03  0.7818608E-02  0.1235066E+00
         -4   -1    0    0    0  501 -0.00000000000E+00  0.00000000000E+00  0.16519205151E+02  0.16567952162E+02  0.12700000000E+01 0.  1.
          4   -1    0    0  501    0  0.00000000000E+00 -0.00000000000E+00 -0.23607526452E+03  0.23607868056E+03  0.12700000000E+01 0.  1.
         25    2    1    2    0    0  0.00000000000E+00  0.00000000000E+00 -0.21955605937E+03  0.25264663273E+03  0.12500183128E+03 0.  0.
    9000005    1    3    3    0    0 -0.26897926824E+02 -0.49322539588E+02 -0.16509806168E+03  0.17439776762E+03  0.10000000000E+01 0.  0.
    9000005    1    3    3    0    0  0.26897926824E+02  0.49322539588E+02 -0.54457997682E+02  0.78248865107E+02  0.10000000000E+01 0.  0.
<mgrwt>
<rscale>  0 0.12500183E+03</rscale>
<asrwt>0</asrwt>
<pdfrwt beam="2">  1        4 0.36323282E-01 0.12500183E+03</pdfrwt>
<pdfrwt beam="1">  1       -4 0.25454289E-02 0.12500183E+03</pdfrwt>
<totfact> 0.81945864E+03</totfact>
</mgrwt>
</event>
<event>
 5    1  0.3209683E-002  0.1249989E+03  0.7818608E-02  0.1235071E+00
          4   -1    0    0  501    0  0.00000000000E+00  0.00000000000E+00  0.53047733099E+02  0.53062933268E+02  0.12700000000E+01 0.  1.
         -4   -1    0    0    0  501 -0.00000000000E+00 -0.00000000000E+00 -0.73603964550E+02  0.73614920346E+02  0.12700000000E+01 0.  1.
         25    2    1    2    0    0  0.00000000000E+00  0.00000000000E+00 -0.20556231451E+02  0.12667785361E+03  0.12499887977E+03 0.  0.
    9000005    1    3    3    0    0 -0.58956111181E+02  0.20040498116E+02 -0.49409387580E+01  0.62472853994E+02  0.10000000000E+01 0.  0.
    9000005    1    3    3    0    0  0.58956111181E+02 -0.20040498116E+02 -0.15615292693E+02  0.64204999620E+02  0.10000000000E+01 0.  0.
<mgrwt>
<rscale>  0 0.12499888E+03</rscale>
<asrwt>0</asrwt>
<pdfrwt beam="1">  1        4 0.81632017E-02 0.12499888E+03</pdfrwt>
<pdfrwt beam="2">  1       -4 0.11325699E-01 0.12499888E+03</pdfrwt>
<totfact> 0.10416416E+04</totfact>
</mgrwt>
</event>
<event>
 5    1  0.3209683E-002  0.1249837E+03  0.7818608E-02  0.1235095E+00
         -4   -1    0    0    0  501 -0.00000000000E+00  0.00000000000E+00  0.15322106819E+04  0.15322112082E+04  0.12700000000E+01 0. -1.
          4   -1    0    0  501    0  0.00000000000E+00 -0.00000000000E+00 -0.23899910379E+01  0.27064658064E+01  0.12700000000E+01 0. -1.
         25    2    1    2    0    0  0.00000000000E+00  0.00000000000E+00  0.15298206908E+04  0.15349176740E+04  0.12498367846E+03 0.  0.
    9000005    1    3    3    0    0 -0.40456782838E+02 -0.47497180204E+02  0.80655083650E+03  0.80896105300E+03  0.10000000000E+01 0.  0.
    9000005    1    3    3    0    0  0.40456782838E+02  0.47497180204E+02  0.72326985431E+03  0.72595662099E+03  0.10000000000E+01 0.  0.
<mgrwt>
<rscale>  0 0.12498368E+03</rscale>
<asrwt>0</asrwt>
<pdfrwt beam="2">  1        4 0.39207611E-03 0.12498368E+03</pdfrwt>
<pdfrwt beam="1">  1       -4 0.23574882E+00 0.12498368E+03</pdfrwt>
<totfact> 0.17260332E+03</totfact>
</mgrwt>
</event>
<event>
 5    1  0.3209683E-002  0.1249744E+03  0.7818608E-02  0.1235109E+00
          4   -1    0    0  501    0  0.00000000000E+00  0.00000000000E+00  0.69231681994E+01  0.70386900711E+01  0.12700000000E+01 0. -1.
         -4   -1    0    0    0  501 -0.00000000000E+00 -0.00000000000E+00 -0.55921492907E+03  0.55921637118E+03  0.12700000000E+01 0. -1.
         25    2    1    2    0    0  0.00000000000E+00  0.00000000000E+00 -0.55229176087E+03  0.56625506125E+03  0.12497441845E+03 0.  0.
    9000005    1    3    3    0    0  0.93076830064E+01 -0.33517434243E+02 -0.51130266890E+03  0.51248558086E+03  0.10000000000E+01 0.  0.
    9000005    1    3    3    0    0 -0.93076830064E+01  0.33517434243E+02 -0.40989091967E+02  0.53769480391E+02  0.10000000000E+01 0.  0.
<mgrwt>
<rscale>  0 0.12497442E+03</rscale>
<asrwt>0</asrwt>
<pdfrwt beam="1">  1        4 0.10741005E-02 0.12497442E+03</pdfrwt>
<pdfrwt beam="2">  1       -4 0.86042028E-01 0.12497442E+03</pdfrwt>
<totfact> 0.51098102E+03</totfact>
</mgrwt>
</event>
<event>
 4    1  0.3209683E-002  0.1251077E+03  0.7818608E-02  0.1234901E+00
         -4   -1    0    0    0  501 -0.00000000000E+00  0.00000000000E+00  0.91862947327E+00  0.15674119143E+01  0.12700000000E+01 0. -1.
          4   -1    0    0  501    0  0.00000000000E+00 -0.00000000000E+00 -0.31473150736E+04  0.31473153298E+04  0.12700000000E+01 0. -1.
    9000005    1    1    2    0    0 -0.49313200527E+02  0.31038485712E+02 -0.21453823663E+04  0.21461737295E+04  0.10000000000E+01 0.  0.
    9000005    1    1    2    0    0  0.49313200527E+02 -0.31038485712E+02 -0.10010140778E+04  0.10027090123E+04  0.10000000000E+01 0.  0.
<mgrwt>
<rscale>  0 0.12510770E+03</rscale>
<asrwt>0</asrwt>
<pdfrwt beam="2">  1        4 0.48424587E+00 0.12510770E+03</pdfrwt>
<pdfrwt beam="1">  1       -4 0.19125618E-03 0.12510770E+03</pdfrwt>
<totfact> 0.13158001E+02</totfact>
</mgrwt>
</event>
<event>
 5    1  0.3209683E-002  0.1249962E+03  0.7818608E-02  0.1235075E+00
         -4   -1    0    0    0  501 -0.00000000000E+00  0.00000000000E+00  0.18493985183E+02  0.18537539965E+02  0.12700000000E+01 0.  1.
          4   -1    0    0  501    0  0.00000000000E+00 -0.00000000000E+00 -0.21091053782E+03  0.21091436145E+03  0.12700000000E+01 0.  1.
         25    2    1    2    0    0  0.00000000000E+00  0.00000000000E+00 -0.19241655264E+03  0.22945190141E+03  0.12499618127E+03 0.  0.
    9000005    1    3    3    0    0 -0.94011399579E+00  0.33196507632E+02  0.96307317980E+00  0.33238824336E+02  0.10000000000E+01 0.  0.
    9000005    1    3    3    0    0  0.94011399579E+00 -0.33196507632E+02 -0.19337962582E+03  0.19621307708E+03  0.10000000000E+01 0.  0.
<mgrwt>
<rscale>  0 0.12499618E+03</rscale>
<asrwt>0</asrwt>
<pdfrwt beam="2">  1        4 0.32451418E-01 0.12499618E+03</pdfrwt>
<pdfrwt beam="1">  1       -4 0.28488731E-02 0.12499618E+03</pdfrwt>
<totfact> 0.85401106E+03</totfact>
</mgrwt>
</event>
<event>
 5    1  0.3209683E-002  0.1250020E+03  0.7818608E-02  0.1235066E+00
         -4   -1    0    0    0  501 -0.00000000000E+00  0.00000000000E+00  0.19408964926E+03  0.19409380425E+03  0.12700000000E+01 0.  1.
          4   -1    0    0  501    0  0.00000000000E+00 -0.00000000000E+00 -0.20102234619E+02  0.20142312099E+02  0.12700000000E+01 0.  1.
         25    2    1    2    0    0  0.00000000000E+00  0.00000000000E+00  0.17398741464E+03  0.21423611635E+03  0.12500197237E+03 0.  0.
    9000005    1    3    3    0    0 -0.32000255396E+02 -0.43851028027E+02  0.33934683715E+02  0.64027273589E+02  0.10000000000E+01 0.  0.
    9000005    1    3    3    0    0  0.32000255396E+02  0.43851028027E+02  0.14005273093E+03  0.15020884276E+03  0.10000000000E+01 0.  0.
<mgrwt>
<rscale>  0 0.12500197E+03</rscale>
<asrwt>0</asrwt>
<pdfrwt beam="2">  1        4 0.30960539E-02 0.12500197E+03</pdfrwt>
<pdfrwt beam="1">  1       -4 0.29863349E-01 0.12500197E+03</pdfrwt>
<totfact> 0.87784837E+03</totfact>
</mgrwt>
</event>
<event>
 5    1  0.3209683E-002  0.1250030E+03  0.7818608E-02  0.1235065E+00
         -4   -1    0    0    0  501 -0.00000000000E+00  0.00000000000E+00  0.68486286010E+02  0.68498060348E+02  0.12700000000E+01 0.  1.
          4   -1    0    0  501    0  0.00000000000E+00 -0.00000000000E+00 -0.57015986716E+02  0.57030129241E+02  0.12700000000E+01 0.  1.
         25    2    1    2    0    0  0.00000000000E+00  0.00000000000E+00  0.11470299294E+02  0.12552818959E+03  0.12500303443E+03 0.  0.
    9000005    1    3    3    0    0  0.58722614810E+02  0.21346080463E+02  0.69397778346E+01  0.62874169240E+02  0.10000000000E+01 0.  0.
    9000005    1    3    3    0    0 -0.58722614810E+02 -0.21346080463E+02  0.45305214592E+01  0.62654020349E+02  0.10000000000E+01 0.  0.
<mgrwt>
<rscale>  0 0.12500303E+03</rscale>
<asrwt>0</asrwt>
<pdfrwt beam="2">  1        4 0.87736838E-02 0.12500303E+03</pdfrwt>
<pdfrwt beam="1">  1       -4 0.10538345E-01 0.12500303E+03</pdfrwt>
<totfact> 0.10440617E+04</totfact>
</mgrwt>
</event>
<event>
 5    1  0.3209683E-002  0.1250008E+03  0.7818608E-02  0.1235068E+00
          4   -1    0    0  501    0  0.00000000000E+00  0.00000000000E+00  0.57563822454E+01  0.58948143784E+01  0.12700000000E+01 0.  1.
         -4   -1    0    0    0  501 -0.00000000000E+00 -0.00000000000E+00 -0.67040144447E+03  0.67040264740E+03  0.12700000000E+01 0.  1.
         25    2    1    2    0    0  0.00000000000E+00  0.00000000000E+00 -0.66464506222E+03  0.67629746178E+03  0.12500079230E+03 0.  0.
    9000005    1    3    3    0    0  0.44972541193E+01 -0.56318878125E+02 -0.18782900960E+03  0.19614478880E+03  0.10000000000E+01 0.  0.
    9000005    1    3    3    0    0 -0.44972541193E+01  0.56318878125E+02 -0.47681605262E+03  0.48015267298E+03  0.10000000000E+01 0.  0.
<mgrwt>
<rscale>  0 0.12500079E+03</rscale>
<asrwt>0</asrwt>
<pdfrwt beam="1">  1        4 0.89633896E-03 0.12500079E+03</pdfrwt>
<pdfrwt beam="2">  1       -4 0.10314936E+00 0.12500079E+03</pdfrwt>
<totfact> 0.44367056E+03</totfact>
</mgrwt>
</event>
<event>
 5    1  0.3209683E-002  0.1249916E+03  0.7818608E-02  0.1235082E+00
          4   -1    0    0  501    0  0.00000000000E+00  0.00000000000E+00  0.31272099699E+02  0.31297877238E+02  0.12700000000E+01 0.  1.
         -4   -1    0    0    0  501 -0.00000000000E+00 -0.00000000000E+00 -0.12481446628E+03  0.12482092731E+03  0.12700000000E+01 0.  1.
         25    2    1    2    0    0  0.00000000000E+00  0.00000000000E+00 -0.93542366584E+02  0.15611880454E+03  0.12499162686E+03 0.  0.
    9000005    1    3    3    0    0  0.78136861314E+00 -0.48652426975E+02  0.21976046633E+01  0.48718565801E+02  0.10000000000E+01 0.  0.
    9000005    1    3    3    0    0 -0.78136861314E+00  0.48652426975E+02 -0.95739971247E+02  0.10740023874E+03  0.10000000000E+01 0.  0.
<mgrwt>
<rscale>  0 0.12499163E+03</rscale>
<asrwt>0</asrwt>
<pdfrwt beam="1">  1        4 0.48135722E-02 0.12499163E+03</pdfrwt>
<pdfrwt beam="2">  1       -4 0.19204705E-01 0.12499163E+03</pdfrwt>
<totfact> 0.98114783E+03</totfact>
</mgrwt>
</event>
<event>
 5    1  0.3209683E-002  0.1249988E+03  0.7818608E-02  0.1235071E+00
         -4   -1    0    0    0  501 -0.00000000000E+00  0.00000000000E+00  0.48447692350E+03  0.48447858808E+03  0.12700000000E+01 0.  1.
          4   -1    0    0  501    0  0.00000000000E+00 -0.00000000000E+00 -0.80109703656E+01  0.81110138822E+01  0.12700000000E+01 0.  1.
         25    2    1    2    0    0  0.00000000000E+00  0.00000000000E+00  0.47646595314E+03  0.49258960196E+03  0.12499884584E+03 0.  0.
    9000005    1    3    3    0    0  0.42981531887E+02 -0.27177145203E+02  0.95103401068E+02  0.10785020259E+03  0.10000000000E+01 0.  0.
    9000005    1    3    3    0    0 -0.42981531887E+02  0.27177145203E+02  0.38136255207E+03  0.38473939937E+03  0.10000000000E+01 0.  0.
<mgrwt>
<rscale>  0 0.12499885E+03</rscale>
<asrwt>0</asrwt>
<pdfrwt beam="2">  1        4 0.12402807E-02 0.12499885E+03</pdfrwt>
<pdfrwt beam="1">  1       -4 0.74542736E-01 0.12499885E+03</pdfrwt>
<totfact> 0.56445372E+03</totfact>
</mgrwt>
</event>
<event>
 5    1  0.3209683E-002  0.1250011E+03  0.7818608E-02  0.1235068E+00
         -4   -1    0    0    0  501 -0.00000000000E+00  0.00000000000E+00  0.22572906141E+01  0.25900310648E+01  0.12700000000E+01 0. -1.
          4   -1    0    0  501    0  0.00000000000E+00 -0.00000000000E+00 -0.16114096176E+04  0.16114101181E+04  0.12700000000E+01 0. -1.
         25    2    1    2    0    0  0.00000000000E+00  0.00000000000E+00 -0.16091523270E+04  0.16140001491E+04  0.12500107975E+03 0.  0.
    9000005    1    3    3    0    0 -0.42283099747E+02  0.23179067592E+02 -0.29130820175E+03  0.29527376806E+03  0.10000000000E+01 0.  0.
    9000005    1    3    3    0    0  0.42283099747E+02 -0.23179067592E+02 -0.13178441252E+04  0.13187263811E+04  0.10000000000E+01 0.  0.
<mgrwt>
<rscale>  0 0.12500108E+03</rscale>
<asrwt>0</asrwt>
<pdfrwt beam="2">  1        4 0.24793395E+00 0.12500108E+03</pdfrwt>
<pdfrwt beam="1">  1       -4 0.37291068E-03 0.12500108E+03</pdfrwt>
<totfact> 0.15794157E+03</totfact>
</mgrwt>
</event>
<event>
 5    1  0.3209683E-002  0.1249994E+03  0.7818608E-02  0.1235070E+00
         -4   -1    0    0    0  501 -0.00000000000E+00  0.00000000000E+00  0.79637950310E+01  0.80644238043E+01  0.12700000000E+01 0. -1.
          4   -1    0    0  501    0  0.00000000000E+00 -0.00000000000E+00 -0.48731564852E+03  0.48731730340E+03  0.12700000000E+01 0. -1.
         25    2    1    2    0    0  0.00000000000E+00  0.00000000000E+00 -0.47935185349E+03  0.49538172720E+03  0.12499942481E+03 0.  0.
    9000005    1    3    3    0    0 -0.50398689305E+02 -0.47684399724E+01 -0.94471208513E+02  0.10718477103E+03  0.10000000000E+01 0.  0.
    9000005    1    3    3    0    0  0.50398689305E+02  0.47684399724E+01 -0.38488064498E+03  0.38819695617E+03  0.10000000000E+01 0.  0.
<mgrwt>
<rscale>  0 0.12499942E+03</rscale>
<asrwt>0</asrwt>
<pdfrwt beam="2">  1        4 0.74979483E-01 0.12499942E+03</pdfrwt>
<pdfrwt beam="1">  1       -4 0.12330676E-02 0.12499942E+03</pdfrwt>
<totfact> 0.56225198E+03</totfact>
</mgrwt>
</event>
<event>
 5    1  0.3209683E-002  0.1249998E+03  0.7818608E-02  0.1235070E+00
         -4   -1    0    0    0  501 -0.00000000000E+00  0.00000000000E+00  0.36032308493E+02  0.36054682849E+02  0.12700000000E+01 0.  1.
          4   -1    0    0  501    0  0.00000000000E+00 -0.00000000000E+00 -0.10834962457E+03  0.10835706735E+03  0.12700000000E+01 0.  1.
         25    2    1    2    0    0  0.00000000000E+00  0.00000000000E+00 -0.72317316078E+02  0.14441175020E+03  0.12499983756E+03 0.  0.
    9000005    1    3    3    0    0  0.27389754551E+02 -0.56152216515E+02 -0.37780099453E+02  0.73017847055E+02  0.10000000000E+01 0.  0.
    9000005    1    3    3    0    0 -0.27389754551E+02  0.56152216515E+02 -0.34537216626E+02  0.71393903144E+02  0.10000000000E+01 0.  0.
<mgrwt>
<rscale>  0 0.12499984E+03</rscale>
<asrwt>0</asrwt>
<pdfrwt beam="2">  1        4 0.16671467E-01 0.12499984E+03</pdfrwt>
<pdfrwt beam="1">  1       -4 0.55457257E-02 0.12499984E+03</pdfrwt>
<totfact> 0.10042991E+04</totfact>
</mgrwt>
</event>
<event>
 5    1  0.3209683E-002  0.1249924E+03  0.7818608E-02  0.1235081E+00
          4   -1    0    0  501    0  0.00000000000E+00  0.00000000000E+00  0.98868350018E+02  0.98876506488E+02  0.12700000000E+01 0.  1.
         -4   -1    0    0    0  501 -0.00000000000E+00 -0.00000000000E+00 -0.39484793371E+02  0.39505212409E+02  0.12700000000E+01 0.  1.
         25    2    1    2    0    0  0.00000000000E+00  0.00000000000E+00  0.59383556648E+02  0.13838171890E+03  0.12499237307E+03 0.  0.
    9000005    1    3    3    0    0  0.20787642322E+02  0.58606171710E+02  0.36513289450E+02  0.72118165134E+02  0.10000000000E+01 0.  0.
    9000005    1    3    3    0    0 -0.20787642322E+02 -0.58606171710E+02  0.22870267198E+02  0.66263553764E+02  0.10000000000E+01 0.  0.
<mgrwt>
<rscale>  0 0.12499237E+03</rscale>
<asrwt>0</asrwt>
<pdfrwt beam="1">  1        4 0.15212714E-01 0.12499237E+03</pdfrwt>
<pdfrwt beam="2">  1       -4 0.60767817E-02 0.12499237E+03</pdfrwt>
<totfact> 0.10168984E+04</totfact>
</mgrwt>
</event>
<event>
 5    1  0.3209683E-002  0.1250132E+03  0.7818608E-02  0.1235049E+00
         -4   -1    0    0    0  501 -0.00000000000E+00  0.00000000000E+00  0.67036340405E+02  0.67048369368E+02  0.12700000000E+01 0.  1.
          4   -1    0    0  501    0  0.00000000000E+00 -0.00000000000E+00 -0.58258720461E+02  0.58272561380E+02  0.12700000000E+01 0.  1.
         25    2    1    2    0    0  0.00000000000E+00  0.00000000000E+00  0.87776199444E+01  0.12532093075E+03  0.12501315559E+03 0.  0.
    9000005    1    3    3    0    0  0.23681630777E+02 -0.29191268757E+02 -0.45665294930E+02  0.59154619169E+02  0.10000000000E+01 0.  0.
    9000005    1    3    3    0    0 -0.23681630777E+02  0.29191268757E+02  0.54442914874E+02  0.66166311579E+02  0.10000000000E+01 0.  0.
<mgrwt>
<rscale>  0 0.12501316E+03</rscale>
<asrwt>0</asrwt>
<pdfrwt beam="2">  1        4 0.89648701E-02 0.12501316E+03</pdfrwt>
<pdfrwt beam="1">  1       -4 0.10315273E-01 0.12501316E+03</pdfrwt>
<totfact> 0.10442791E+04</totfact>
</mgrwt>
</event>
<event>
 5    1  0.3209683E-002  0.1249819E+03  0.7818608E-02  0.1235098E+00
          4   -1    0    0  501    0  0.00000000000E+00  0.00000000000E+00  0.15904766344E+03  0.15905273386E+03  0.12700000000E+01 0. -1.
         -4   -1    0    0    0  501 -0.00000000000E+00 -0.00000000000E+00 -0.24531251182E+02  0.24564103577E+02  0.12700000000E+01 0. -1.
         25    2    1    2    0    0  0.00000000000E+00  0.00000000000E+00  0.13451641226E+03  0.18361683743E+03  0.12498190998E+03 0.  0.
    9000005    1    3    3    0    0 -0.20194823994E+02 -0.47207422728E+02  0.11956785138E+03  0.13013009936E+03  0.10000000000E+01 0.  0.
    9000005    1    3    3    0    0  0.20194823994E+02  0.47207422728E+02  0.14948560881E+02  0.53486738068E+02  0.10000000000E+01 0.  0.
<mgrwt>
<rscale>  0 0.12498191E+03</rscale>
<asrwt>0</asrwt>
<pdfrwt beam="1">  1        4 0.24471788E-01 0.12498191E+03</pdfrwt>
<pdfrwt beam="2">  1       -4 0.37769558E-02 0.12498191E+03</pdfrwt>
<totfact> 0.93007689E+03</totfact>
</mgrwt>
</event>
<event>
 5    1  0.3209683E-002  0.1250027E+03  0.7818608E-02  0.1235065E+00
          4   -1    0    0  501    0  0.00000000000E+00  0.00000000000E+00  0.32676108595E+02  0.32700779393E+02  0.12700000000E+01 0. -1.
         -4   -1    0    0    0  501 -0.00000000000E+00 -0.00000000000E+00 -0.11947646456E+03  0.11948321424E+03  0.12700000000E+01 0. -1.
         25    2    1    2    0    0  0.00000000000E+00  0.00000000000E+00 -0.86800355970E+02  0.15218399363E+03  0.12500266446E+03 0.  0.
    9000005    1    3    3    0    0  0.25265636521E+02 -0.51324610285E+02 -0.74026834731E+02  0.93560356295E+02  0.10000000000E+01 0.  0.
    9000005    1    3    3    0    0 -0.25265636521E+02  0.51324610285E+02 -0.12773521239E+02  0.58623637337E+02  0.10000000000E+01 0.  0.
<mgrwt>
<rscale>  0 0.12500266E+03</rscale>
<asrwt>0</asrwt>
<pdfrwt beam="1">  1        4 0.50295106E-02 0.12500266E+03</pdfrwt>
<pdfrwt beam="2">  1       -4 0.18383411E-01 0.12500266E+03</pdfrwt>
<totfact> 0.98864193E+03</totfact>
</mgrwt>
</event>
<event>
 5    1  0.3209683E-002  0.1250019E+03  0.7818608E-02  0.1235066E+00
          4   -1    0    0  501    0  0.00000000000E+00  0.00000000000E+00  0.82501455425E+01  0.83473230124E+01  0.12700000000E+01 0.  1.
         -4   -1    0    0    0  501 -0.00000000000E+00 -0.00000000000E+00 -0.47062091910E+03  0.47062263269E+03  0.12700000000E+01 0.  1.
         25    2    1    2    0    0  0.00000000000E+00  0.00000000000E+00 -0.46237077356E+03  0.47896995570E+03  0.12500194486E+03 0.  0.
    9000005    1    3    3    0    0  0.51113474786E+02 -0.35817646761E+02 -0.24322962791E+03  0.25111181378E+03  0.10000000000E+01 0.  0.
    9000005    1    3    3    0    0 -0.51113474786E+02  0.35817646761E+02 -0.21914114565E+03  0.22785814192E+03  0.10000000000E+01 0.  0.
<mgrwt>
<rscale>  0 0.12500194E+03</rscale>
<asrwt>0</asrwt>
<pdfrwt beam="1">  1        4 0.12768605E-02 0.12500194E+03</pdfrwt>
<pdfrwt beam="2">  1       -4 0.72410804E-01 0.12500194E+03</pdfrwt>
<totfact> 0.57531320E+03</totfact>
</mgrwt>
</event>
<event>
 5    1  0.3209683E-002  0.1249960E+03  0.7818608E-02  0.1235076E+00
          4   -1    0    0  501    0  0.00000000000E+00  0.00000000000E+00  0.75163424506E+02  0.75174153028E+02  0.12700000000E+01 0.  1.
         -4   -1    0    0    0  501 -0.00000000000E+00 -0.00000000000E+00 -0.51944550340E+02  0.51960073229E+02  0.12700000000E+01 0.  1.
         25    2    1    2    0    0  0.00000000000E+00  0.00000000000E+00  0.23218874166E+02  0.12713422626E+03  0.12499598141E+03 0.  0.
    9000005    1    3    3    0    0  0.38312148893E+02 -0.96811910327E+01  0.60846770338E+02  0.72559463015E+02  0.10000000000E+01 0.  0.
    9000005    1    3    3    0    0 -0.38312148893E+02  0.96811910327E+01 -0.37627896171E+02  0.54574763241E+02  0.10000000000E+01 0.  0.
<mgrwt>
<rscale>  0 0.12499598E+03</rscale>
<asrwt>0</asrwt>
<pdfrwt beam="1">  1        4 0.11565623E-01 0.12499598E+03</pdfrwt>
<pdfrwt beam="2">  1       -4 0.79934887E-02 0.12499598E+03</pdfrwt>
<totfact> 0.10407175E+04</totfact>
</mgrwt>
</event>
<event>
 5    1  0.3209683E-002  0.1250029E+03  0.7818608E-02  0.1235065E+00
         -4   -1    0    0    0  501 -0.00000000000E+00  0.00000000000E+00  0.17305842053E+03  0.17306308045E+03  0.12700000000E+01 0.  1.
          4   -1    0    0  501    0  0.00000000000E+00 -0.00000000000E+00 -0.22550089506E+02  0.22585823800E+02  0.12700000000E+01 0.  1.
         25    2    1    2    0    0  0.00000000000E+00  0.00000000000E+00  0.15050833102E+03  0.19564890425E+03  0.12500294408E+03 0.  0.
    9000005    1    3    3    0    0  0.10117675726E+02  0.48349427876E+02  0.15339216619E+02  0.51733220512E+02  0.10000000000E+01 0.  0.
    9000005    1    3    3    0    0 -0.10117675726E+02 -0.48349427876E+02  0.13516911440E+03  0.14391568374E+03  0.10000000000E+01 0.  0.
<mgrwt>
<rscale>  0 0.12500294E+03</rscale>
<asrwt>0</asrwt>
<pdfrwt beam="2">  1        4 0.34723518E-02 0.12500294E+03</pdfrwt>
<pdfrwt beam="1">  1       -4 0.26627480E-01 0.12500294E+03</pdfrwt>
<totfact> 0.90867618E+03</totfact>
</mgrwt>
</event>
<event>
 5    1  0.3209683E-002  0.1250001E+03  0.7818608E-02  0.1235069E+00
         -4   -1    0    0    0  501 -0.00000000000E+00  0.00000000000E+00  0.25217916655E+03  0.25218236446E+03  0.12700000000E+01 0. -1.
          4   -1    0    0  501    0  0.00000000000E+00 -0.00000000000E+00 -0.15460674337E+02  0.15512748014E+02  0.12700000000E+01 0. -1.
         25    2    1    2    0    0  0.00000000000E+00  0.00000000000E+00  0.23671849222E+03  0.26769511247E+03  0.12500011474E+03 0.  0.
    9000005    1    3    3    0    0 -0.51446610341E+02  0.21458558011E+02  0.17885719601E+03  0.18734492251E+03  0.10000000000E+01 0.  0.
    9000005    1    3    3    0    0  0.51446610341E+02 -0.21458558011E+02  0.57861296207E+02  0.80350189958E+02  0.10000000000E+01 0.  0.
<mgrwt>
<rscale>  0 0.12500011E+03</rscale>
<asrwt>0</asrwt>
<pdfrwt beam="2">  1        4 0.23828171E-02 0.12500011E+03</pdfrwt>
<pdfrwt beam="1">  1       -4 0.38801044E-01 0.12500011E+03</pdfrwt>
<totfact> 0.79837942E+03</totfact>
</mgrwt>
</event>
<event>
 5    1  0.3209683E-002  0.1249999E+03  0.7818608E-02  0.1235069E+00
         -4   -1    0    0    0  501 -0.00000000000E+00  0.00000000000E+00  0.16050544005E+02  0.16100710011E+02  0.12700000000E+01 0. -1.
          4   -1    0    0  501    0  0.00000000000E+00 -0.00000000000E+00 -0.24293974840E+03  0.24294306792E+03  0.12700000000E+01 0. -1.
         25    2    1    2    0    0  0.00000000000E+00  0.00000000000E+00 -0.22688920439E+03  0.25904377793E+03  0.12499987127E+03 0.  0.
    9000005    1    3    3    0    0  0.50361821350E+02 -0.10697477539E+02 -0.40044325058E+02  0.65232637880E+02  0.10000000000E+01 0.  0.
    9000005    1    3    3    0    0 -0.50361821350E+02  0.10697477539E+02 -0.18684487933E+03  0.19381114005E+03  0.10000000000E+01 0.  0.
<mgrwt>
<rscale>  0 0.12499987E+03</rscale>
<asrwt>0</asrwt>
<pdfrwt beam="2">  1        4 0.37379457E-01 0.12499987E+03</pdfrwt>
<pdfrwt beam="1">  1       -4 0.24734289E-02 0.12499987E+03</pdfrwt>
<totfact> 0.81040674E+03</totfact>
</mgrwt>
</event>
<event>
 5    1  0.3209683E-002  0.1249962E+03  0.7818608E-02  0.1235075E+00
         -4   -1    0    0    0  501 -0.00000000000E+00  0.00000000000E+00  0.24739904222E+02  0.24772479911E+02  0.12700000000E+01 0.  1.
          4   -1    0    0  501    0  0.00000000000E+00 -0.00000000000E+00 -0.15774408633E+03  0.15774919864E+03  0.12700000000E+01 0.  1.
         25    2    1    2    0    0  0.00000000000E+00  0.00000000000E+00 -0.13300418211E+03  0.18252167855E+03  0.12499620268E+03 0.  0.
    9000005    1    3    3    0    0 -0.51465352914E+02 -0.27933768878E+02 -0.34642739697E+02  0.68044819112E+02  0.10000000000E+01 0.  0.
    9000005    1    3    3    0    0  0.51465352914E+02  0.27933768878E+02 -0.98361442408E+02  0.11447685944E+03  0.10000000000E+01 0.  0.
<mgrwt>
<rscale>  0 0.12499620E+03</rscale>
<asrwt>0</asrwt>
<pdfrwt beam="2">  1        4 0.24271219E-01 0.12499620E+03</pdfrwt>
<pdfrwt beam="1">  1       -4 0.38090383E-02 0.12499620E+03</pdfrwt>
<totfact> 0.93172983E+03</totfact>
</mgrwt>
</event>
<event>
 5    1  0.3209683E-002  0.1249995E+03  0.7818608E-02  0.1235070E+00
         -4   -1    0    0    0  501 -0.00000000000E+00  0.00000000000E+00  0.13126954568E+04  0.13126960712E+04  0.12700000000E+01 0.  1.
          4   -1    0    0  501    0  0.00000000000E+00 -0.00000000000E+00 -0.28395755423E+01  0.31106412941E+01  0.12700000000E+01 0.  1.
         25    2    1    2    0    0  0.00000000000E+00  0.00000000000E+00  0.13098558813E+04  0.13158067124E+04  0.12499949935E+03 0.  0.
    9000005    1    3    3    0    0 -0.44334287177E+02  0.44036544865E+02  0.64769288791E+03  0.65070102455E+03  0.10000000000E+01 0.  0.
    9000005    1    3    3    0    0  0.44334287177E+02 -0.44036544865E+02  0.66216299336E+03  0.66510568790E+03  0.10000000000E+01 0.  0.
<mgrwt>
<rscale>  0 0.12499950E+03</rscale>
<asrwt>0</asrwt>
<pdfrwt beam="2">  1        4 0.45775522E-03 0.12499950E+03</pdfrwt>
<pdfrwt beam="1">  1       -4 0.20197450E+00 0.12499950E+03</pdfrwt>
<totfact> 0.21858670E+03</totfact>
</mgrwt>
</event>
<event>
 5    1  0.3209683E-002  0.1250004E+03  0.7818608E-02  0.1235069E+00
          4   -1    0    0  501    0  0.00000000000E+00  0.00000000000E+00  0.34493267231E+03  0.34493501030E+03  0.12700000000E+01 0. -1.
         -4   -1    0    0    0  501 -0.00000000000E+00 -0.00000000000E+00 -0.11286757555E+02  0.11357983804E+02  0.12700000000E+01 0. -1.
         25    2    1    2    0    0  0.00000000000E+00  0.00000000000E+00  0.33364591476E+03  0.35629299410E+03  0.12500040484E+03 0.  0.
    9000005    1    3    3    0    0 -0.11720699909E+02 -0.94285084903E+01  0.33970941542E+03  0.34004375969E+03  0.10000000000E+01 0.  0.
    9000005    1    3    3    0    0  0.11720699909E+02  0.94285084903E+01 -0.60635006618E+01  0.16249234412E+02  0.10000000000E+01 0.  0.
<mgrwt>
<rscale>  0 0.12500040E+03</rscale>
<asrwt>0</asrwt>
<pdfrwt beam="1">  1        4 0.53072214E-01 0.12500040E+03</pdfrwt>
<pdfrwt beam="2">  1       -4 0.17420833E-02 0.12500040E+03</pdfrwt>
<totfact> 0.69037139E+03</totfact>
</mgrwt>
</event>
<event>
 5    1  0.3209683E-002  0.1249996E+03  0.7818608E-02  0.1235070E+00
          4   -1    0    0  501    0  0.00000000000E+00  0.00000000000E+00  0.37138489732E+03  0.37138706878E+03  0.12700000000E+01 0.  1.
         -4   -1    0    0    0  501 -0.00000000000E+00 -0.00000000000E+00 -0.10477446720E+02  0.10554136145E+02  0.12700000000E+01 0.  1.
         25    2    1    2    0    0  0.00000000000E+00  0.00000000000E+00  0.36090745060E+03  0.38194120493E+03  0.12499958448E+03 0.  0.
    9000005    1    3    3    0    0 -0.42402631387E+02 -0.38835511252E+02  0.10566824507E+03  0.12030360800E+03  0.10000000000E+01 0.  0.
    9000005    1    3    3    0    0  0.42402631387E+02  0.38835511252E+02  0.25523920554E+03  0.26163759693E+03  0.10000000000E+01 0.  0.
<mgrwt>
<rscale>  0 0.12499958E+03</rscale>
<asrwt>0</asrwt>
<pdfrwt beam="1">  1        4 0.57142198E-01 0.12499958E+03</pdfrwt>
<pdfrwt beam="2">  1       -4 0.16179813E-02 0.12499958E+03</pdfrwt>
<totfact> 0.66348505E+03</totfact>
</mgrwt>
</event>
<event>
 5    1  0.3209683E-002  0.1249993E+03  0.7818608E-02  0.1235070E+00
         -4   -1    0    0    0  501 -0.00000000000E+00  0.00000000000E+00  0.32243591650E+03  0.32243841761E+03  0.12700000000E+01 0.  1.
          4   -1    0    0  501    0  0.00000000000E+00 -0.00000000000E+00 -0.12078835935E+02  0.12145417965E+02  0.12700000000E+01 0.  1.
         25    2    1    2    0    0  0.00000000000E+00  0.00000000000E+00  0.31035708057E+03  0.33458383558E+03  0.12499930228E+03 0.  0.
    9000005    1    3    3    0    0  0.32113198639E+02  0.44616191657E+02  0.75624475620E+02  0.93498253447E+02  0.10000000000E+01 0.  0.
    9000005    1    3    3    0    0 -0.32113198639E+02 -0.44616191657E+02  0.23473260495E+03  0.24108558213E+03  0.10000000000E+01 0.  0.
<mgrwt>
<rscale>  0 0.12499930E+03</rscale>
<asrwt>0</asrwt>
<pdfrwt beam="2">  1        4 0.18635962E-02 0.12499930E+03</pdfrwt>
<pdfrwt beam="1">  1       -4 0.49610848E-01 0.12499930E+03</pdfrwt>
<totfact> 0.71455594E+03</totfact>
</mgrwt>
</event>
<event>
 5    1  0.3209683E-002  0.1249999E+03  0.7818608E-02  0.1235069E+00
         -4   -1    0    0    0  501 -0.00000000000E+00  0.00000000000E+00  0.56862416625E+03  0.56862558450E+03  0.12700000000E+01 0.  1.
          4   -1    0    0  501    0  0.00000000000E+00 -0.00000000000E+00 -0.68095094032E+01  0.69269270469E+01  0.12700000000E+01 0.  1.
         25    2    1    2    0    0  0.00000000000E+00  0.00000000000E+00  0.56181465685E+03  0.57555251155E+03  0.12499993958E+03 0.  0.
    9000005    1    3    3    0    0  0.18061352829E+02 -0.80410972035E+00  0.55634213059E+03  0.55663670857E+03  0.10000000000E+01 0.  0.
    9000005    1    3    3    0    0 -0.18061352829E+02  0.80410972035E+00  0.54725262558E+01  0.18915802972E+02  0.10000000000E+01 0.  0.
<mgrwt>
<rscale>  0 0.12499994E+03</rscale>
<asrwt>0</asrwt>
<pdfrwt beam="2">  1        4 0.10567575E-02 0.12499994E+03</pdfrwt>
<pdfrwt beam="1">  1       -4 0.87489828E-01 0.12499994E+03</pdfrwt>
<totfact> 0.50448134E+03</totfact>
</mgrwt>
</event>
<event>
 5    1  0.3209683E-002  0.1249939E+03  0.7818608E-02  0.1235079E+00
         -4   -1    0    0    0  501 -0.00000000000E+00  0.00000000000E+00  0.76472265288E+01  0.77519657883E+01  0.12700000000E+01 0.  1.
          4   -1    0    0  501    0  0.00000000000E+00 -0.00000000000E+00 -0.50717634464E+03  0.50717793472E+03  0.12700000000E+01 0.  1.
         25    2    1    2    0    0  0.00000000000E+00  0.00000000000E+00 -0.49952911811E+03  0.51492990051E+03  0.12499385022E+03 0.  0.
    9000005    1    3    3    0    0 -0.32417206267E+02 -0.47406465720E+02 -0.14829941079E+03  0.15903447267E+03  0.10000000000E+01 0.  0.
    9000005    1    3    3    0    0  0.32417206267E+02  0.47406465720E+02 -0.35122970732E+03  0.35589542784E+03  0.10000000000E+01 0.  0.
<mgrwt>
<rscale>  0 0.12499385E+03</rscale>
<asrwt>0</asrwt>
<pdfrwt beam="2">  1        4 0.78035283E-01 0.12499385E+03</pdfrwt>
<pdfrwt beam="1">  1       -4 0.11846760E-02 0.12499385E+03</pdfrwt>
<totfact> 0.54731724E+03</totfact>
</mgrwt>
</event>
<event>
 5    1  0.3209683E-002  0.1249990E+03  0.7818608E-02  0.1235071E+00
          4   -1    0    0  501    0  0.00000000000E+00  0.00000000000E+00  0.37251641525E+03  0.37251858012E+03  0.12700000000E+01 0.  1.
         -4   -1    0    0    0  501 -0.00000000000E+00 -0.00000000000E+00 -0.10445283064E+02  0.10522206911E+02  0.12700000000E+01 0.  1.
         25    2    1    2    0    0  0.00000000000E+00  0.00000000000E+00  0.36207113219E+03  0.38304078703E+03  0.12499895905E+03 0.  0.
    9000005    1    3    3    0    0 -0.47659891777E+02  0.60211747355E-01  0.57176754118E+02  0.74442260317E+02  0.10000000000E+01 0.  0.
    9000005    1    3    3    0    0  0.47659891777E+02 -0.60211747355E-01  0.30489437807E+03  0.30859852671E+03  0.10000000000E+01 0.  0.
<mgrwt>
<rscale>  0 0.12499896E+03</rscale>
<asrwt>0</asrwt>
<pdfrwt beam="1">  1        4 0.57316299E-01 0.12499896E+03</pdfrwt>
<pdfrwt beam="2">  1       -4 0.16130504E-02 0.12499896E+03</pdfrwt>
<totfact> 0.66237858E+03</totfact>
</mgrwt>
</event>
<event>
 5    1  0.3209683E-002  0.1250042E+03  0.7818608E-02  0.1235063E+00
         -4   -1    0    0    0  501 -0.00000000000E+00  0.00000000000E+00  0.79446013487E+01  0.80454701907E+01  0.12700000000E+01 0. -1.
          4   -1    0    0  501    0  0.00000000000E+00 -0.00000000000E+00 -0.48851541566E+03  0.48851706647E+03  0.12700000000E+01 0. -1.
         25    2    1    2    0    0  0.00000000000E+00  0.00000000000E+00 -0.48057081431E+03  0.49656253666E+03  0.12500418094E+03 0.  0.
    9000005    1    3    3    0    0 -0.10538841945E+01 -0.60541678953E+02 -0.17886051215E+03  0.18883455290E+03  0.10000000000E+01 0.  0.
    9000005    1    3    3    0    0  0.10538841945E+01  0.60541678953E+02 -0.30171030216E+03  0.30772798376E+03  0.10000000000E+01 0.  0.
<mgrwt>
<rscale>  0 0.12500418E+03</rscale>
<asrwt>0</asrwt>
<pdfrwt beam="2">  1        4 0.75164081E-01 0.12500418E+03</pdfrwt>
<pdfrwt beam="1">  1       -4 0.12301329E-02 0.12500418E+03</pdfrwt>
<totfact> 0.56126910E+03</totfact>
</mgrwt>
</event>
<event>
 5    1  0.3209683E-002  0.1250015E+03  0.7818608E-02  0.1235067E+00
          4   -1    0    0  501    0  0.00000000000E+00  0.00000000000E+00  0.67798905503E+03  0.67799024450E+03  0.12700000000E+01 0.  1.
         -4   -1    0    0    0  501 -0.00000000000E+00 -0.00000000000E+00 -0.56904724081E+01  0.58304696404E+01  0.12700000000E+01 0.  1.
         25    2    1    2    0    0  0.00000000000E+00  0.00000000000E+00  0.67229858262E+03  0.68382071414E+03  0.12500153957E+03 0.  0.
    9000005    1    3    3    0    0 -0.36977416642E+01  0.61811503590E+02  0.29005049719E+03  0.29658831095E+03  0.10000000000E+01 0.  0.
    9000005    1    3    3    0    0  0.36977416642E+01 -0.61811503590E+02  0.38224808543E+03  0.38723240320E+03  0.10000000000E+01 0.  0.
<mgrwt>
<rscale>  0 0.12500154E+03</rscale>
<asrwt>0</asrwt>
<pdfrwt beam="1">  1        4 0.10431691E+00 0.12500154E+03</pdfrwt>
<pdfrwt beam="2">  1       -4 0.88631742E-03 0.12500154E+03</pdfrwt>
<totfact> 0.43953153E+03</totfact>
</mgrwt>
</event>
<event>
 5    1  0.3209683E-002  0.1249897E+03  0.7818608E-02  0.1235085E+00
          4   -1    0    0  501    0  0.00000000000E+00  0.00000000000E+00  0.76855903937E+02  0.76866396234E+02  0.12700000000E+01 0.  1.
         -4   -1    0    0    0  501 -0.00000000000E+00 -0.00000000000E+00 -0.50795375251E+02  0.50811249216E+02  0.12700000000E+01 0.  1.
         25    2    1    2    0    0  0.00000000000E+00  0.00000000000E+00  0.26060528686E+02  0.12767764545E+03  0.12498971955E+03 0.  0.
    9000005    1    3    3    0    0  0.52402364625E+01  0.61975725155E+02  0.68878906679E+01  0.62585091073E+02  0.10000000000E+01 0.  0.
    9000005    1    3    3    0    0 -0.52402364625E+01 -0.61975725155E+02  0.19172638018E+02  0.65092554377E+02  0.10000000000E+01 0.  0.
<mgrwt>
<rscale>  0 0.12498972E+03</rscale>
<asrwt>0</asrwt>
<pdfrwt beam="1">  1        4 0.11826013E-01 0.12498972E+03</pdfrwt>
<pdfrwt beam="2">  1       -4 0.78167013E-02 0.12498972E+03</pdfrwt>
<totfact> 0.10396868E+04</totfact>
</mgrwt>
</event>
<event>
 5    1  0.3209683E-002  0.1250015E+03  0.7818608E-02  0.1235067E+00
          4   -1    0    0  501    0  0.00000000000E+00  0.00000000000E+00  0.22538714222E+02  0.22574466523E+02  0.12700000000E+01 0.  1.
         -4   -1    0    0    0  501 -0.00000000000E+00 -0.00000000000E+00 -0.17314150573E+03  0.17314616342E+03  0.12700000000E+01 0.  1.
         25    2    1    2    0    0  0.00000000000E+00  0.00000000000E+00 -0.15060279151E+03  0.19572062994E+03  0.12500145669E+03 0.  0.
    9000005    1    3    3    0    0 -0.38612385372E+02 -0.36888403395E+02 -0.24476800599E+02  0.58751888282E+02  0.10000000000E+01 0.  0.
    9000005    1    3    3    0    0  0.38612385372E+02  0.36888403395E+02 -0.12612599091E+03  0.13696874166E+03  0.10000000000E+01 0.  0.
<mgrwt>
<rscale>  0 0.12500146E+03</rscale>
<asrwt>0</asrwt>
<pdfrwt beam="1">  1        4 0.34706031E-02 0.12500146E+03</pdfrwt>
<pdfrwt beam="2">  1       -4 0.26640262E-01 0.12500146E+03</pdfrwt>
<totfact> 0.90858398E+03</totfact>
</mgrwt>
</event>
<event>
 5    1  0.3209683E-002  0.1249990E+03  0.7818608E-02  0.1235071E+00
         -4   -1    0    0    0  501 -0.00000000000E+00  0.00000000000E+00  0.59374318655E+01  0.60717375732E+01  0.12700000000E+01 0. -1.
          4   -1    0    0  501    0  0.00000000000E+00 -0.00000000000E+00 -0.65039894261E+03  0.65040018254E+03  0.12700000000E+01 0. -1.
         25    2    1    2    0    0  0.00000000000E+00  0.00000000000E+00 -0.64446151075E+03  0.65647192011E+03  0.12499897226E+03 0.  0.
    9000005    1    3    3    0    0 -0.51165105459E+02 -0.16313750872E+02 -0.49005732192E+03  0.49299207423E+03  0.10000000000E+01 0.  0.
    9000005    1    3    3    0    0  0.51165105459E+02  0.16313750872E+02 -0.15440418882E+03  0.16347984588E+03  0.10000000000E+01 0.  0.
<mgrwt>
<rscale>  0 0.12499897E+03</rscale>
<asrwt>0</asrwt>
<pdfrwt beam="2">  1        4 0.10007175E+00 0.12499897E+03</pdfrwt>
<pdfrwt beam="1">  1       -4 0.92387816E-03 0.12499897E+03</pdfrwt>
<totfact> 0.45487008E+03</totfact>
</mgrwt>
</event>
<event>
 5    1  0.3209683E-002  0.1249998E+03  0.7818608E-02  0.1235070E+00
         -4   -1    0    0    0  501 -0.00000000000E+00  0.00000000000E+00  0.38040699146E+02  0.38061892905E+02  0.12700000000E+01 0.  1.
          4   -1    0    0  501    0  0.00000000000E+00 -0.00000000000E+00 -0.10263199026E+03  0.10263984764E+03  0.12700000000E+01 0.  1.
         25    2    1    2    0    0  0.00000000000E+00  0.00000000000E+00 -0.64591291110E+02  0.14070174055E+03  0.12499977962E+03 0.  0.
    9000005    1    3    3    0    0 -0.30160402686E+02 -0.54666912445E+02 -0.29293178277E+02  0.68972541638E+02  0.10000000000E+01 0.  0.
    9000005    1    3    3    0    0  0.30160402686E+02  0.54666912445E+02 -0.35298112833E+02  0.71729198908E+02  0.10000000000E+01 0.  0.
<mgrwt>
<rscale>  0 0.12499978E+03</rscale>
<asrwt>0</asrwt>
<pdfrwt beam="2">  1        4 0.15791772E-01 0.12499978E+03</pdfrwt>
<pdfrwt beam="1">  1       -4 0.58546500E-02 0.12499978E+03</pdfrwt>
<totfact> 0.10119113E+04</totfact>
</mgrwt>
</event>
<event>
 5    1  0.3209683E-002  0.1249994E+03  0.7818608E-02  0.1235070E+00
         -4   -1    0    0    0  501 -0.00000000000E+00  0.00000000000E+00  0.27291557770E+02  0.27321091221E+02  0.12700000000E+01 0. -1.
          4   -1    0    0  501    0  0.00000000000E+00 -0.00000000000E+00 -0.14301922610E+03  0.14302486474E+03  0.12700000000E+01 0. -1.
         25    2    1    2    0    0  0.00000000000E+00  0.00000000000E+00 -0.11572766833E+03  0.17034595596E+03  0.12499940598E+03 0.  0.
    9000005    1    3    3    0    0 -0.41072359638E+02  0.13514991601E+02  0.36215856255E+01  0.43401723544E+02  0.10000000000E+01 0.  0.
    9000005    1    3    3    0    0  0.41072359638E+02 -0.13514991601E+02 -0.11934925395E+03  0.12694423242E+03  0.10000000000E+01 0.  0.
<mgrwt>
<rscale>  0 0.12499941E+03</rscale>
<asrwt>0</asrwt>
<pdfrwt beam="2">  1        4 0.22005663E-01 0.12499941E+03</pdfrwt>
<pdfrwt beam="1">  1       -4 0.42014068E-02 0.12499941E+03</pdfrwt>
<totfact> 0.95385466E+03</totfact>
</mgrwt>
</event>
<event>
 5    1  0.3209683E-002  0.1250028E+03  0.7818608E-02  0.1235065E+00
         -4   -1    0    0    0  501 -0.00000000000E+00  0.00000000000E+00  0.27186026249E+01  0.30006166420E+01  0.12700000000E+01 0.  1.
          4   -1    0    0  501    0  0.00000000000E+00 -0.00000000000E+00 -0.13657861232E+04  0.13657867136E+04  0.12700000000E+01 0.  1.
         25    2    1    2    0    0  0.00000000000E+00  0.00000000000E+00 -0.13630675206E+04  0.13687873303E+04  0.12500275982E+03 0.  0.
    9000005    1    3    3    0    0 -0.56049801737E+02  0.86442775127E+01 -0.96898447126E+03  0.97064319363E+03  0.10000000000E+01 0.  0.
    9000005    1    3    3    0    0  0.56049801737E+02 -0.86442775127E+01 -0.39408304930E+03  0.39814413665E+03  0.10000000000E+01 0.  0.
<mgrwt>
<rscale>  0 0.12500276E+03</rscale>
<asrwt>0</asrwt>
<pdfrwt beam="2">  1        4 0.21014216E+00 0.12500276E+03</pdfrwt>
<pdfrwt beam="1">  1       -4 0.43998645E-03 0.12500276E+03</pdfrwt>
<totfact> 0.20659563E+03</totfact>
</mgrwt>
</event>
<event>
 5    1  0.3209683E-002  0.1249929E+03  0.7818608E-02  0.1235080E+00
          4   -1    0    0  501    0  0.00000000000E+00  0.00000000000E+00  0.73404027207E+02  0.73415012839E+02  0.12700000000E+01 0.  1.
         -4   -1    0    0    0  501 -0.00000000000E+00 -0.00000000000E+00 -0.53187123087E+02  0.53202283431E+02  0.12700000000E+01 0.  1.
         25    2    1    2    0    0  0.00000000000E+00  0.00000000000E+00  0.20216904120E+02  0.12661729627E+03  0.12499286581E+03 0.  0.
    9000005    1    3    3    0    0  0.48095378379E+02  0.14107746525E+02  0.47911132466E+02  0.69344578358E+02  0.10000000000E+01 0.  0.
    9000005    1    3    3    0    0 -0.48095378379E+02 -0.14107746525E+02 -0.27694228346E+02  0.57272717913E+02  0.10000000000E+01 0.  0.
<mgrwt>
<rscale>  0 0.12499287E+03</rscale>
<asrwt>0</asrwt>
<pdfrwt beam="1">  1        4 0.11294939E-01 0.12499287E+03</pdfrwt>
<pdfrwt beam="2">  1       -4 0.81846455E-02 0.12499287E+03</pdfrwt>
<totfact> 0.10419149E+04</totfact>
</mgrwt>
</event>
<event>
 5    1  0.3209683E-002  0.1249992E+03  0.7818608E-02  0.1235071E+00
          4   -1    0    0  501    0  0.00000000000E+00  0.00000000000E+00  0.99681552332E+02  0.99689642267E+02  0.12700000000E+01 0. -1.
         -4   -1    0    0    0  501 -0.00000000000E+00 -0.00000000000E+00 -0.39166810860E+02  0.39187395588E+02  0.12700000000E+01 0. -1.
         25    2    1    2    0    0  0.00000000000E+00  0.00000000000E+00  0.60514741472E+02  0.13887703786E+03  0.12499919083E+03 0.  0.
    9000005    1    3    3    0    0  0.43348080372E+02  0.28473638939E+02  0.68990448590E+02  0.86316198845E+02  0.10000000000E+01 0.  0.
    9000005    1    3    3    0    0 -0.43348080372E+02 -0.28473638939E+02 -0.84757071178E+01  0.52560839010E+02  0.10000000000E+01 0.  0.
<mgrwt>
<rscale>  0 0.12499919E+03</rscale>
<asrwt>0</asrwt>
<pdfrwt beam="1">  1        4 0.15337829E-01 0.12499919E+03</pdfrwt>
<pdfrwt beam="2">  1       -4 0.60278690E-02 0.12499919E+03</pdfrwt>
<totfact> 0.10157098E+04</totfact>
</mgrwt>
</event>
<event>
 5    1  0.3209683E-002  0.1250204E+03  0.7818608E-02  0.1235037E+00
         -4   -1    0    0    0  501 -0.00000000000E+00  0.00000000000E+00  0.80040422943E+03  0.80040523698E+03  0.12700000000E+01 0.  1.
          4   -1    0    0  501    0  0.00000000000E+00 -0.00000000000E+00 -0.47983201639E+01  0.49635447409E+01  0.12700000000E+01 0.  1.
         25    2    1    2    0    0  0.00000000000E+00  0.00000000000E+00  0.79560590927E+03  0.80536878173E+03  0.12502044519E+03 0.  0.
    9000005    1    3    3    0    0  0.46067215416E+02 -0.30464556318E+02  0.58630416540E+03  0.58890054499E+03  0.10000000000E+01 0.  0.
    9000005    1    3    3    0    0 -0.46067215416E+02  0.30464556318E+02  0.20930174387E+03  0.21646823673E+03  0.10000000000E+01 0.  0.
<mgrwt>
<rscale>  0 0.12502045E+03</rscale>
<asrwt>0</asrwt>
<pdfrwt beam="2">  1        4 0.75098990E-03 0.12502045E+03</pdfrwt>
<pdfrwt beam="1">  1       -4 0.12315195E+00 0.12502045E+03</pdfrwt>
<totfact> 0.38009176E+03</totfact>
</mgrwt>
</event>
<event>
 5    1  0.3209683E-002  0.1250008E+03  0.7818608E-02  0.1235068E+00
         -4   -1    0    0    0  501 -0.00000000000E+00  0.00000000000E+00  0.10662150506E+03  0.10662906847E+03  0.12700000000E+01 0. -1.
          4   -1    0    0  501    0  0.00000000000E+00 -0.00000000000E+00 -0.36617212042E+02  0.36639229218E+02  0.12700000000E+01 0. -1.
         25    2    1    2    0    0  0.00000000000E+00  0.00000000000E+00  0.70004293023E+02  0.14326829769E+03  0.12500081632E+03 0.  0.
    9000005    1    3    3    0    0 -0.58879035005E+02 -0.20870500458E+02  0.36981507958E+02  0.72601311857E+02  0.10000000000E+01 0.  0.
    9000005    1    3    3    0    0  0.58879035005E+02  0.20870500458E+02  0.33022785065E+02  0.70666985828E+02  0.10000000000E+01 0.  0.
<mgrwt>
<rscale>  0 0.12500082E+03</rscale>
<asrwt>0</asrwt>
<pdfrwt beam="2">  1        4 0.56356926E-02 0.12500082E+03</pdfrwt>
<pdfrwt beam="1">  1       -4 0.16405584E-01 0.12500082E+03</pdfrwt>
<totfact> 0.10066107E+04</totfact>
</mgrwt>
</event>
<event>
 5    1  0.3209683E-002  0.1250463E+03  0.7818608E-02  0.1234997E+00
          4   -1    0    0  501    0  0.00000000000E+00  0.00000000000E+00  0.16626937256E+02  0.16675369336E+02  0.12700000000E+01 0.  1.
         -4   -1    0    0    0  501 -0.00000000000E+00 -0.00000000000E+00 -0.23471693161E+03  0.23472036742E+03  0.12700000000E+01 0.  1.
         25    2    1    2    0    0  0.00000000000E+00  0.00000000000E+00 -0.21808999435E+03  0.25139573676E+03  0.12504627473E+03 0.  0.
    9000005    1    3    3    0    0  0.46454706626E+01 -0.34281989628E+02 -0.21372808819E+03  0.21651219571E+03  0.10000000000E+01 0.  0.
    9000005    1    3    3    0    0 -0.46454706626E+01  0.34281989628E+02 -0.43619061597E+01  0.34883541045E+02  0.10000000000E+01 0.  0.
<mgrwt>
<rscale>  0 0.12504627E+03</rscale>
<asrwt>0</asrwt>
<pdfrwt beam="1">  1        4 0.25619804E-02 0.12504627E+03</pdfrwt>
<pdfrwt beam="2">  1       -4 0.36114285E-01 0.12504627E+03</pdfrwt>
<totfact> 0.82044324E+03</totfact>
</mgrwt>
</event>
<event>
 5    1  0.3209683E-002  0.1249995E+03  0.7818608E-02  0.1235070E+00
          4   -1    0    0  501    0  0.00000000000E+00  0.00000000000E+00  0.50270642539E+02  0.50286682147E+02  0.12700000000E+01 0.  1.
         -4   -1    0    0    0  501 -0.00000000000E+00 -0.00000000000E+00 -0.77670132655E+02  0.77680514974E+02  0.12700000000E+01 0.  1.
         25    2    1    2    0    0  0.00000000000E+00  0.00000000000E+00 -0.27399490115E+02  0.12796719712E+03  0.12499948592E+03 0.  0.
    9000005    1    3    3    0    0 -0.63321325099E+01  0.39799410768E+02 -0.62594845351E+02  0.74452694136E+02  0.10000000000E+01 0.  0.
    9000005    1    3    3    0    0  0.63321325099E+01 -0.39799410768E+02  0.35195355235E+02  0.53514502985E+02  0.10000000000E+01 0.  0.
<mgrwt>
<rscale>  0 0.12499949E+03</rscale>
<asrwt>0</asrwt>
<pdfrwt beam="1">  1        4 0.77359775E-02 0.12499949E+03</pdfrwt>
<pdfrwt beam="2">  1       -4 0.11951284E-01 0.12499949E+03</pdfrwt>
<totfact> 0.10388317E+04</totfact>
</mgrwt>
</event>
<event>
 5    1  0.3209683E-002  0.1249980E+03  0.7818608E-02  0.1235072E+00
         -4   -1    0    0    0  501 -0.00000000000E+00  0.00000000000E+00  0.13680050952E+03  0.13680640448E+03  0.12700000000E+01 0.  1.
          4   -1    0    0  501    0  0.00000000000E+00 -0.00000000000E+00 -0.28532781198E+02  0.28561031195E+02  0.12700000000E+01 0.  1.
         25    2    1    2    0    0  0.00000000000E+00  0.00000000000E+00  0.10826772833E+03  0.16536743567E+03  0.12499795112E+03 0.  0.
    9000005    1    3    3    0    0  0.18548817237E+01 -0.45573421379E+02 -0.23791073888E+01  0.45684105270E+02  0.10000000000E+01 0.  0.
    9000005    1    3    3    0    0 -0.18548817237E+01  0.45573421379E+02  0.11064683571E+03  0.11968333040E+03  0.10000000000E+01 0.  0.
<mgrwt>
<rscale>  0 0.12499795E+03</rscale>
<asrwt>0</asrwt>
<pdfrwt beam="2">  1        4 0.43922852E-02 0.12499795E+03</pdfrwt>
<pdfrwt beam="1">  1       -4 0.21048858E-01 0.12499795E+03</pdfrwt>
<totfact> 0.96322284E+03</totfact>
</mgrwt>
</event>
<event>
 5    1  0.3209683E-002  0.1249977E+03  0.7818608E-02  0.1235073E+00
          4   -1    0    0  501    0  0.00000000000E+00  0.00000000000E+00  0.11709597267E+02  0.11778266772E+02  0.12700000000E+01 0. -1.
         -4   -1    0    0    0  501 -0.00000000000E+00 -0.00000000000E+00 -0.33253649077E+03  0.33253891591E+03  0.12700000000E+01 0. -1.
         25    2    1    2    0    0  0.00000000000E+00  0.00000000000E+00 -0.32082689350E+03  0.34431718268E+03  0.12499770676E+03 0.  0.
    9000005    1    3    3    0    0  0.48047898895E+02 -0.32002288671E+02 -0.94512578201E+02  0.11075366588E+03  0.10000000000E+01 0.  0.
    9000005    1    3    3    0    0 -0.48047898895E+02  0.32002288671E+02 -0.22631431530E+03  0.23356351680E+03  0.10000000000E+01 0.  0.
<mgrwt>
<rscale>  0 0.12499771E+03</rscale>
<asrwt>0</asrwt>
<pdfrwt beam="1">  1        4 0.18069456E-02 0.12499771E+03</pdfrwt>
<pdfrwt beam="2">  1       -4 0.51164922E-01 0.12499771E+03</pdfrwt>
<totfact> 0.70357868E+03</totfact>
</mgrwt>
</event>
<event>
 5    1  0.3209683E-002  0.1249985E+03  0.7818608E-02  0.1235072E+00
         -4   -1    0    0    0  501 -0.00000000000E+00  0.00000000000E+00  0.11128383588E+03  0.11129108243E+03  0.12700000000E+01 0.  1.
          4   -1    0    0  501    0  0.00000000000E+00 -0.00000000000E+00 -0.35080954352E+02  0.35103935082E+02  0.12700000000E+01 0.  1.
         25    2    1    2    0    0  0.00000000000E+00  0.00000000000E+00  0.76202881525E+02  0.14639501751E+03  0.12499848799E+03 0.  0.
    9000005    1    3    3    0    0 -0.25956511744E+02 -0.20309561725E+00 -0.28474165899E+02  0.38542961399E+02  0.10000000000E+01 0.  0.
    9000005    1    3    3    0    0  0.25956511744E+02  0.20309561725E+00  0.10467704742E+03  0.10785205611E+03  0.10000000000E+01 0.  0.
<mgrwt>
<rscale>  0 0.12499849E+03</rscale>
<asrwt>0</asrwt>
<pdfrwt beam="2">  1        4 0.53993951E-02 0.12499849E+03</pdfrwt>
<pdfrwt beam="1">  1       -4 0.17122915E-01 0.12499849E+03</pdfrwt>
<totfact> 0.10003062E+04</totfact>
</mgrwt>
</event>
<event>
 5    1  0.3209683E-002  0.1249996E+03  0.7818608E-02  0.1235070E+00
         -4   -1    0    0    0  501 -0.00000000000E+00  0.00000000000E+00  0.32882849115E+03  0.32883094364E+03  0.12700000000E+01 0.  1.
          4   -1    0    0  501    0  0.00000000000E+00 -0.00000000000E+00 -0.11842762456E+02  0.11910664238E+02  0.12700000000E+01 0.  1.
         25    2    1    2    0    0  0.00000000000E+00  0.00000000000E+00  0.31698572870E+03  0.34074160788E+03  0.12499956456E+03 0.  0.
    9000005    1    3    3    0    0 -0.37044442144E+02 -0.28837721721E+02  0.27092990426E+03  0.27496893990E+03  0.10000000000E+01 0.  0.
    9000005    1    3    3    0    0  0.37044442144E+02  0.28837721721E+02  0.46055824434E+02  0.65772667972E+02  0.10000000000E+01 0.  0.
<mgrwt>
<rscale>  0 0.12499956E+03</rscale>
<asrwt>0</asrwt>
<pdfrwt beam="2">  1        4 0.18273752E-02 0.12499956E+03</pdfrwt>
<pdfrwt beam="1">  1       -4 0.50594414E-01 0.12499956E+03</pdfrwt>
<totfact> 0.70755925E+03</totfact>
</mgrwt>
</event>
<event>
 5    1  0.3209683E-002  0.1249867E+03  0.7818608E-02  0.1235090E+00
         -4   -1    0    0    0  501 -0.00000000000E+00  0.00000000000E+00  0.12903642024E+02  0.12965989260E+02  0.12700000000E+01 0. -1.
          4   -1    0    0  501    0  0.00000000000E+00 -0.00000000000E+00 -0.30186686749E+03  0.30186953902E+03  0.12700000000E+01 0. -1.
         25    2    1    2    0    0  0.00000000000E+00  0.00000000000E+00 -0.28896322546E+03  0.31483552828E+03  0.12498665607E+03 0.  0.
    9000005    1    3    3    0    0 -0.37952381234E+02  0.48290305538E+02 -0.17343086153E+03  0.18398804467E+03  0.10000000000E+01 0.  0.
    9000005    1    3    3    0    0  0.37952381234E+02 -0.48290305538E+02 -0.11553236393E+03  0.13084748361E+03  0.10000000000E+01 0.  0.
<mgrwt>
<rscale>  0 0.12498666E+03</rscale>
<asrwt>0</asrwt>
<pdfrwt beam="2">  1        4 0.46446052E-01 0.12498666E+03</pdfrwt>
<pdfrwt beam="1">  1       -4 0.19901774E-02 0.12498666E+03</pdfrwt>
<totfact> 0.73796446E+03</totfact>
</mgrwt>
</event>
<event>
 5    1  0.3209683E-002  0.1250027E+03  0.7818608E-02  0.1235065E+00
          4   -1    0    0  501    0  0.00000000000E+00  0.00000000000E+00  0.73576859897E+01  0.74664880046E+01  0.12700000000E+01 0.  1.
         -4   -1    0    0    0  501 -0.00000000000E+00 -0.00000000000E+00 -0.52692362083E+03  0.52692515132E+03  0.12700000000E+01 0.  1.
         25    2    1    2    0    0  0.00000000000E+00  0.00000000000E+00 -0.51956593484E+03  0.53439163932E+03  0.12500265409E+03 0.  0.
    9000005    1    3    3    0    0  0.54047777188E+02  0.14162488173E+02 -0.14010639697E+03  0.15083945360E+03  0.10000000000E+01 0.  0.
    9000005    1    3    3    0    0 -0.54047777188E+02 -0.14162488173E+02 -0.37945953787E+03  0.38355218572E+03  0.10000000000E+01 0.  0.
<mgrwt>
<rscale>  0 0.12500265E+03</rscale>
<asrwt>0</asrwt>
<pdfrwt beam="1">  1        4 0.11404392E-02 0.12500265E+03</pdfrwt>
<pdfrwt beam="2">  1       -4 0.81073630E-01 0.12500265E+03</pdfrwt>
<totfact> 0.53288269E+03</totfact>
</mgrwt>
</event>
<event>
 5    1  0.3209683E-002  0.1249981E+03  0.7818608E-02  0.1235072E+00
         -4   -1    0    0    0  501 -0.00000000000E+00  0.00000000000E+00  0.39404486968E+03  0.39404691627E+03  0.12700000000E+01 0. -1.
          4   -1    0    0  501    0  0.00000000000E+00 -0.00000000000E+00 -0.98701483519E+01  0.99515189036E+01  0.12700000000E+01 0. -1.
         25    2    1    2    0    0  0.00000000000E+00  0.00000000000E+00  0.38417472133E+03  0.40399843517E+03  0.12499807644E+03 0.  0.
    9000005    1    3    3    0    0  0.60560787161E+02  0.29634278386E+01  0.14320564977E+03  0.15551607303E+03  0.10000000000E+01 0.  0.
    9000005    1    3    3    0    0 -0.60560787161E+02 -0.29634278386E+01  0.24096907156E+03  0.24848236214E+03  0.10000000000E+01 0.  0.
<mgrwt>
<rscale>  0 0.12499808E+03</rscale>
<asrwt>0</asrwt>
<pdfrwt beam="2">  1        4 0.15249011E-02 0.12499808E+03</pdfrwt>
<pdfrwt beam="1">  1       -4 0.60628703E-01 0.12499808E+03</pdfrwt>
<totfact> 0.64168479E+03</totfact>
</mgrwt>
</event>
<event>
 5    1  0.3209683E-002  0.1249900E+03  0.7818608E-02  0.1235085E+00
         -4   -1    0    0    0  501 -0.00000000000E+00  0.00000000000E+00  0.79264840745E+01  0.80275805684E+01  0.12700000000E+01 0. -1.
          4   -1    0    0  501    0  0.00000000000E+00 -0.00000000000E+00 -0.48950652824E+03  0.48950817571E+03  0.12700000000E+01 0. -1.
         25    2    1    2    0    0  0.00000000000E+00  0.00000000000E+00 -0.48158004417E+03  0.49753575628E+03  0.12498995896E+03 0.  0.
    9000005    1    3    3    0    0  0.47650002967E+02  0.33500054407E+02 -0.33084730553E+03  0.33593707150E+03  0.10000000000E+01 0.  0.
    9000005    1    3    3    0    0 -0.47650002967E+02 -0.33500054407E+02 -0.15073273863E+03  0.16159868478E+03  0.10000000000E+01 0.  0.
<mgrwt>
<rscale>  0 0.12498996E+03</rscale>
<asrwt>0</asrwt>
<pdfrwt beam="2">  1        4 0.75316576E-01 0.12498996E+03</pdfrwt>
<pdfrwt beam="1">  1       -4 0.12273629E-02 0.12498996E+03</pdfrwt>
<totfact> 0.56068459E+03</totfact>
</mgrwt>
</event>
<event>
 5    1  0.3209683E-002  0.1250067E+03  0.7818608E-02  0.1235059E+00
          4   -1    0    0  501    0  0.00000000000E+00  0.00000000000E+00  0.30097173836E+03  0.30097441784E+03  0.12700000000E+01 0.  1.
         -4   -1    0    0    0  501 -0.00000000000E+00 -0.00000000000E+00 -0.12946365725E+02  0.13008508196E+02  0.12700000000E+01 0.  1.
         25    2    1    2    0    0  0.00000000000E+00  0.00000000000E+00  0.28802537264E+03  0.31398292603E+03  0.12500665005E+03 0.  0.
    9000005    1    3    3    0    0  0.56087617297E+02 -0.20310265583E+02  0.97201567008E+02  0.11405030614E+03  0.10000000000E+01 0.  0.
    9000005    1    3    3    0    0 -0.56087617297E+02  0.20310265583E+02  0.19082380563E+03  0.19993261989E+03  0.10000000000E+01 0.  0.
<mgrwt>
<rscale>  0 0.12500665E+03</rscale>
<asrwt>0</asrwt>
<pdfrwt beam="1">  1        4 0.46308336E-01 0.12500665E+03</pdfrwt>
<pdfrwt beam="2">  1       -4 0.19967346E-02 0.12500665E+03</pdfrwt>
<totfact> 0.73866639E+03</totfact>
</mgrwt>
</event>
<event>
 5    1  0.3209683E-002  0.1249991E+03  0.7818608E-02  0.1235071E+00
         -4   -1    0    0    0  501 -0.00000000000E+00  0.00000000000E+00  0.28755916064E+02  0.28783947065E+02  0.12700000000E+01 0. -1.
          4   -1    0    0  501    0  0.00000000000E+00 -0.00000000000E+00 -0.13574258160E+03  0.13574852250E+03  0.12700000000E+01 0. -1.
         25    2    1    2    0    0  0.00000000000E+00  0.00000000000E+00 -0.10698666554E+03  0.16453246956E+03  0.12499914775E+03 0.  0.
    9000005    1    3    3    0    0  0.30267598587E+02 -0.54470434213E+02 -0.47313733998E+02  0.78247972193E+02  0.10000000000E+01 0.  0.
    9000005    1    3    3    0    0 -0.30267598587E+02  0.54470434213E+02 -0.59672931541E+02  0.86284497369E+02  0.10000000000E+01 0.  0.
<mgrwt>
<rscale>  0 0.12499915E+03</rscale>
<asrwt>0</asrwt>
<pdfrwt beam="2">  1        4 0.20886087E-01 0.12499915E+03</pdfrwt>
<pdfrwt beam="1">  1       -4 0.44266004E-02 0.12499915E+03</pdfrwt>
<totfact> 0.96477856E+03</totfact>
</mgrwt>
</event>
<event>
 5    1  0.3209683E-002  0.1250004E+03  0.7818608E-02  0.1235069E+00
          4   -1    0    0  501    0  0.00000000000E+00  0.00000000000E+00  0.18121926848E+01  0.22129035963E+01  0.12700000000E+01 0.  1.
         -4   -1    0    0    0  501 -0.00000000000E+00 -0.00000000000E+00 -0.19405579869E+04  0.19405584025E+04  0.12700000000E+01 0.  1.
         25    2    1    2    0    0  0.00000000000E+00  0.00000000000E+00 -0.19387457942E+04  0.19427713060E+04  0.12500037245E+03 0.  0.
    9000005    1    3    3    0    0  0.27260459627E+02  0.15397227753E+02 -0.18099512626E+04  0.18102223013E+04  0.10000000000E+01 0.  0.
    9000005    1    3    3    0    0 -0.27260459627E+02 -0.15397227753E+02 -0.12879453161E+03  0.13254900473E+03  0.10000000000E+01 0.  0.
<mgrwt>
<rscale>  0 0.12500037E+03</rscale>
<asrwt>0</asrwt>
<pdfrwt beam="1">  1        4 0.30965631E-03 0.12500037E+03</pdfrwt>
<pdfrwt beam="2">  1       -4 0.29857674E+00 0.12500037E+03</pdfrwt>
<totfact> 0.10626812E+03</totfact>
</mgrwt>
</event>
