<event>
 6    4  0.3189516E-003  0.1362893E+03  0.7818608E-02  0.1218411E+00
          4   -1    0    0  502    0 -0.00000000000E+00  0.00000000000E+00  0.41763988128E+03  0.41764181224E+03  0.12700000000E+01 0.  1.
         21   -1    0    0  501  502  0.00000000000E+00 -0.00000000000E+00 -0.22045110576E+02  0.22045110576E+02  0.00000000000E+00 0.  1.
         25    2    1    2    0    0  0.49838404672E+02 -0.21526739523E+02  0.30496436984E+03  0.33403300877E+03  0.12501006751E+03 0.  0.
    9000005    1    3    3    0    0  0.80784318193E+01 -0.66252459945E+02  0.10083362116E+03  0.12092588087E+03  0.10000000000E+01 0.  0.
    9000005    1    3    3    0    0  0.41759972853E+02  0.44725720423E+02  0.20413074869E+03  0.21310712789E+03  0.10000000000E+01 0.  0.
          4    1    1    2  501    0 -0.49838404672E+02  0.21526739523E+02  0.90630400859E+02  0.10565391405E+03  0.12700000000E+01 0. -1.
<mgrwt>
<rscale>  1 0.13628934E+03</rscale>
<asrwt>0</asrwt>
<pdfrwt beam="2">  1       21 0.33915558E-02 0.13628934E+03</pdfrwt>
<pdfrwt beam="1">  1        4 0.64255246E-01 0.13628934E+03</pdfrwt>
<totfact> 0.47840393E+04</totfact>
</mgrwt>
</event>
<event>
 6    4  0.3189516E-003  0.1374960E+03  0.7818608E-02  0.1216739E+00
         21   -1    0    0  501  502  0.00000000000E+00  0.00000000000E+00  0.25419101704E+03  0.25419101704E+03  0.00000000000E+00 0.  1.
          4   -1    0    0  502    0 -0.00000000000E+00 -0.00000000000E+00 -0.68156264621E+02  0.68168095962E+02  0.12700000000E+01 0.  1.
         25    2    1    2    0    0 -0.46771791783E+02 -0.33040749139E+02  0.10707203611E+02  0.13791222666E+03  0.12500338573E+03 0.  0.
    9000005    1    3    3    0    0  0.38255406701E+02 -0.35057076747E+02  0.99943187156E+01  0.52852258027E+02  0.10000000000E+01 0.  0.
    9000005    1    3    3    0    0 -0.85027198484E+02  0.20163276084E+01  0.71288489556E+00  0.85059968634E+02  0.10000000000E+01 0.  0.
          4    1    1    2  501    0  0.46771791783E+02  0.33040749139E+02  0.17532754881E+03  0.18444688634E+03  0.12700000000E+01 0. -1.
<mgrwt>
<rscale>  1 0.13749596E+03</rscale>
<asrwt>0</asrwt>
<pdfrwt beam="1">  1       21 0.39106310E-01 0.13749596E+03</pdfrwt>
<pdfrwt beam="2">  1        4 0.10486733E-01 0.13749596E+03</pdfrwt>
<totfact> 0.18091210E+04</totfact>
</mgrwt>
</event>
<event>
 6    4  0.3189516E-003  0.1266267E+03  0.7818608E-02  0.1232549E+00
         21   -1    0    0  501  502  0.00000000000E+00  0.00000000000E+00  0.13243297481E+03  0.13243297481E+03  0.00000000000E+00 0.  1.
          4   -1    0    0  502    0 -0.00000000000E+00 -0.00000000000E+00 -0.46619809420E+02  0.46637104652E+02  0.12700000000E+01 0. -1.
         25    2    1    2    0    0  0.16375530416E+02  0.11885213759E+02  0.46605845865E+02  0.13493117251E+03  0.12499960058E+03 0.  0.
    9000005    1    3    3    0    0 -0.14316323203E+02 -0.38150867274E+01 -0.39487090417E+02  0.42186992147E+02  0.10000000000E+01 0.  0.
    9000005    1    3    3    0    0  0.30691853619E+02  0.15700300486E+02  0.86092936282E+02  0.92744180365E+02  0.10000000000E+01 0.  0.
          4    1    1    2  501    0 -0.16375530416E+02 -0.11885213759E+02  0.39207319527E+02  0.44138906953E+02  0.12700000000E+01 0.  1.
<mgrwt>
<rscale>  1 0.12662668E+03</rscale>
<asrwt>0</asrwt>
<pdfrwt beam="1">  1       21 0.20374304E-01 0.12662668E+03</pdfrwt>
<pdfrwt beam="2">  1        4 0.71740772E-02 0.12662668E+03</pdfrwt>
<totfact> 0.11786531E+05</totfact>
</mgrwt>
</event>
<event>
 6    4  0.3189516E-003  0.1272287E+03  0.7818608E-02  0.1231627E+00
         21   -1    0    0  501  502  0.00000000000E+00  0.00000000000E+00  0.29045269067E+03  0.29045269067E+03  0.00000000000E+00 0.  1.
         -4   -1    0    0    0  501 -0.00000000000E+00 -0.00000000000E+00 -0.49744738744E+02  0.49760947868E+02  0.12700000000E+01 0. -1.
         25    2    1    2    0    0 -0.11567357742E+02 -0.20748153555E+02  0.33392548288E+02  0.13153786341E+03  0.12499143006E+03 0.  0.
    9000005    1    3    3    0    0 -0.36182822818E+02 -0.59098531053E+01  0.73524957633E+02  0.82164727382E+02  0.10000000000E+01 0.  0.
    9000005    1    3    3    0    0  0.24615465076E+02 -0.14838300450E+02 -0.40132409345E+02  0.49373136025E+02  0.10000000000E+01 0.  0.
         -4    1    1    2    0  502  0.11567357742E+02  0.20748153555E+02  0.20731540363E+03  0.20867577513E+03  0.12700000000E+01 0.  1.
<mgrwt>
<rscale>  1 0.12722872E+03</rscale>
<asrwt>0</asrwt>
<pdfrwt beam="1">  1       21 0.44685028E-01 0.12722872E+03</pdfrwt>
<pdfrwt beam="2">  1       -4 0.76544973E-02 0.12722872E+03</pdfrwt>
<totfact> 0.23234486E+04</totfact>
</mgrwt>
</event>
<event>
 6    4  0.3189516E-003  0.1307885E+03  0.7818608E-02  0.1226290E+00
          4   -1    0    0  502    0 -0.00000000000E+00  0.00000000000E+00  0.87101956297E+03  0.87102048884E+03  0.12700000000E+01 0. -1.
         21   -1    0    0  501  502  0.00000000000E+00 -0.00000000000E+00 -0.10104659794E+02  0.10104659794E+02  0.00000000000E+00 0.  1.
         25    2    1    2    0    0 -0.23559375980E+02  0.30422187510E+02  0.78691356308E+03  0.79770833423E+03  0.12500030819E+03 0.  0.
    9000005    1    3    3    0    0 -0.30486634390E+02  0.77187129747E+02  0.53421998133E+03  0.54062859370E+03  0.10000000000E+01 0.  0.
    9000005    1    3    3    0    0  0.69272584102E+01 -0.46764942238E+02  0.25269358175E+03  0.25707974053E+03  0.10000000000E+01 0.  0.
          4    1    1    2  501    0  0.23559375980E+02 -0.30422187510E+02  0.74001340093E+02  0.83416814402E+02  0.12700000000E+01 0.  1.
<mgrwt>
<rscale>  1 0.13078850E+03</rscale>
<asrwt>0</asrwt>
<pdfrwt beam="2">  1       21 0.15545637E-02 0.13078850E+03</pdfrwt>
<pdfrwt beam="1">  1        4 0.13400916E+00 0.13078850E+03</pdfrwt>
<totfact> 0.31597194E+04</totfact>
</mgrwt>
</event>
<event>
 6    4  0.3189516E-003  0.1276559E+03  0.7818608E-02  0.1230976E+00
         21   -1    0    0  501  502  0.00000000000E+00  0.00000000000E+00  0.45520847934E+02  0.45520847934E+02  0.00000000000E+00 0. -1.
          4   -1    0    0  502    0 -0.00000000000E+00 -0.00000000000E+00 -0.21946568141E+03  0.21946935598E+03  0.12700000000E+01 0.  1.
         25    2    1    2    0    0 -0.22831368620E+02  0.12225732977E+02 -0.19398407208E+03  0.23221942541E+03  0.12500120551E+03 0.  0.
    9000005    1    3    3    0    0 -0.66520954721E+02  0.41859379866E+01 -0.55367737049E+02  0.86655327590E+02  0.10000000000E+01 0.  0.
    9000005    1    3    3    0    0  0.43689586100E+02  0.80397949904E+01 -0.13861633503E+03  0.14556409782E+03  0.10000000000E+01 0.  0.
          4    1    1    2  501    0  0.22831368620E+02 -0.12225732977E+02  0.20039238607E+02  0.32770778506E+02  0.12700000000E+01 0. -1.
<mgrwt>
<rscale>  1 0.12765595E+03</rscale>
<asrwt>0</asrwt>
<pdfrwt beam="1">  1       21 0.70032073E-02 0.12765595E+03</pdfrwt>
<pdfrwt beam="2">  1        4 0.33765597E-01 0.12765595E+03</pdfrwt>
<totfact> 0.51368594E+04</totfact>
</mgrwt>
</event>
<event>
 6    4  0.3189516E-003  0.1405720E+03  0.7818608E-02  0.1212561E+00
         21   -1    0    0  501  502  0.00000000000E+00  0.00000000000E+00  0.26082164631E+03  0.26082164631E+03  0.00000000000E+00 0.  1.
          4   -1    0    0  502    0 -0.00000000000E+00 -0.00000000000E+00 -0.49190609850E+02  0.49207001508E+02  0.12700000000E+01 0. -1.
         25    2    1    2    0    0 -0.24633036594E+02  0.59403004313E+02  0.75725741378E+02  0.15967118859E+03  0.12499998858E+03 0.  0.
    9000005    1    3    3    0    0 -0.72375978827E+01 -0.24643334091E+02 -0.18908657020E+02  0.31909466441E+02  0.10000000000E+01 0.  0.
    9000005    1    3    3    0    0 -0.17395438711E+02  0.84046338403E+02  0.94634398398E+02  0.12776172215E+03  0.10000000000E+01 0.  0.
          4    1    1    2  501    0  0.24633036594E+02 -0.59403004313E+02  0.13590529508E+03  0.15035745922E+03  0.12700000000E+01 0.  1.
<mgrwt>
<rscale>  1 0.14057205E+03</rscale>
<asrwt>0</asrwt>
<pdfrwt beam="1">  1       21 0.40126406E-01 0.14057205E+03</pdfrwt>
<pdfrwt beam="2">  1        4 0.75692850E-02 0.14057205E+03</pdfrwt>
<totfact> 0.29686476E+04</totfact>
</mgrwt>
</event>
<event>
 6    4  0.3189516E-003  0.1289692E+03  0.7818608E-02  0.1228993E+00
          4   -1    0    0  502    0 -0.00000000000E+00  0.00000000000E+00  0.28722962082E+03  0.28723242849E+03  0.12700000000E+01 0.  1.
         21   -1    0    0  501  502  0.00000000000E+00 -0.00000000000E+00 -0.22546120170E+02  0.22546120170E+02  0.00000000000E+00 0.  1.
         25    2    1    2    0    0  0.31751795165E+02  0.10346859864E+01  0.20617990581E+03  0.24319378629E+03  0.12499526814E+03 0.  0.
    9000005    1    3    3    0    0  0.78990773237E+02 -0.92848979819E+01  0.11267361337E+03  0.13792061027E+03  0.10000000000E+01 0.  0.
    9000005    1    3    3    0    0 -0.47238978072E+02  0.10319583968E+02  0.93506292441E+02  0.10527317602E+03  0.10000000000E+01 0.  0.
          4    1    1    2  501    0 -0.31751795165E+02 -0.10346859864E+01  0.58503594831E+02  0.66584762367E+02  0.12700000000E+01 0. -1.
<mgrwt>
<rscale>  1 0.12896924E+03</rscale>
<asrwt>0</asrwt>
<pdfrwt beam="2">  1       21 0.34686341E-02 0.12896924E+03</pdfrwt>
<pdfrwt beam="1">  1        4 0.44192137E-01 0.12896924E+03</pdfrwt>
<totfact> 0.98859031E+04</totfact>
</mgrwt>
</event>
<event>
 6    4  0.3189516E-003  0.1267813E+03  0.7818608E-02  0.1232311E+00
         21   -1    0    0  501  502  0.00000000000E+00  0.00000000000E+00  0.47407045582E+02  0.47407045582E+02  0.00000000000E+00 0.  1.
         -4   -1    0    0    0  501 -0.00000000000E+00 -0.00000000000E+00 -0.23269612301E+03  0.23269958867E+03  0.12700000000E+01 0. -1.
         25    2    1    2    0    0 -0.43560788884E+01 -0.20740114497E+02 -0.21137014862E+03  0.24647684169E+03  0.12499746394E+03 0.  0.
    9000005    1    3    3    0    0 -0.15757974519E+02  0.36694745964E+02 -0.17036100951E+03  0.17498197537E+03  0.10000000000E+01 0.  0.
    9000005    1    3    3    0    0  0.11401895631E+02 -0.57434860462E+02 -0.41009139111E+02  0.71494866325E+02  0.10000000000E+01 0.  0.
         -4    1    1    2    0  502  0.43560788884E+01  0.20740114497E+02  0.26081071192E+02  0.33629792553E+02  0.12700000000E+01 0.  1.
<mgrwt>
<rscale>  1 0.12678128E+03</rscale>
<asrwt>0</asrwt>
<pdfrwt beam="1">  1       21 0.72933917E-02 0.12678128E+03</pdfrwt>
<pdfrwt beam="2">  1       -4 0.35800978E-01 0.12678128E+03</pdfrwt>
<totfact> 0.42773292E+04</totfact>
</mgrwt>
</event>
<event>
 6    4  0.3189516E-003  0.1444309E+03  0.7818608E-02  0.1207488E+00
         21   -1    0    0  501  502  0.00000000000E+00  0.00000000000E+00  0.68758036188E+02  0.68758036188E+02  0.00000000000E+00 0. -1.
          4   -1    0    0  502    0 -0.00000000000E+00 -0.00000000000E+00 -0.26964836293E+03  0.26965135366E+03  0.12700000000E+01 0. -1.
         25    2    1    2    0    0 -0.70190141742E+02 -0.17567741839E+02 -0.22854372761E+02  0.14622797722E+03  0.12500006966E+03 0.  0.
    9000005    1    3    3    0    0  0.48064946156E+00 -0.24530507939E+02 -0.60896505950E+02  0.65660957049E+02  0.10000000000E+01 0.  0.
    9000005    1    3    3    0    0 -0.70670791204E+02  0.69627661000E+01  0.38042133190E+02  0.80567020168E+02  0.10000000000E+01 0.  0.
          4    1    1    2  501    0  0.70190141742E+02  0.17567741839E+02 -0.17803595398E+03  0.19218141263E+03  0.12700000000E+01 0.  1.
<mgrwt>
<rscale>  1 0.14443095E+03</rscale>
<asrwt>0</asrwt>
<pdfrwt beam="1">  1       21 0.10578159E-01 0.14443095E+03</pdfrwt>
<pdfrwt beam="2">  1        4 0.41485496E-01 0.14443095E+03</pdfrwt>
<totfact> 0.17049167E+04</totfact>
</mgrwt>
</event>
<event>
 6    4  0.3189516E-003  0.1271517E+03  0.7818608E-02  0.1231744E+00
         -4   -1    0    0    0  501 -0.00000000000E+00  0.00000000000E+00  0.63238465558E+03  0.63238593084E+03  0.12700000000E+01 0. -1.
         21   -1    0    0  501  502  0.00000000000E+00 -0.00000000000E+00 -0.50099944302E+02  0.50099944302E+02  0.00000000000E+00 0.  1.
         25    2    1    2    0    0  0.11963278143E+02 -0.19984393783E+02  0.62284780594E+03  0.63569406424E+03  0.12500023170E+03 0.  0.
    9000005    1    3    3    0    0 -0.26786375417E+02  0.22257215564E+02  0.48699097909E+03  0.48823570872E+03  0.10000000000E+01 0.  0.
    9000005    1    3    3    0    0  0.38749653560E+02 -0.42241609347E+02  0.13585682685E+03  0.14745835552E+03  0.10000000000E+01 0.  0.
         -4    1    1    2    0  502 -0.11963278143E+02  0.19984393783E+02 -0.40563094658E+02  0.46791810897E+02  0.12700000000E+01 0.  1.
<mgrwt>
<rscale>  1 0.12715170E+03</rscale>
<asrwt>0</asrwt>
<pdfrwt beam="2">  1       21 0.77076842E-02 0.12715170E+03</pdfrwt>
<pdfrwt beam="1">  1       -4 0.97291278E-01 0.12715170E+03</pdfrwt>
<totfact> 0.47774969E+03</totfact>
</mgrwt>
</event>
<event>
 6    4  0.3189516E-003  0.1322414E+03  0.7818608E-02  0.1224167E+00
         -4   -1    0    0    0  501 -0.00000000000E+00  0.00000000000E+00  0.24375215578E+02  0.24408277990E+02  0.12700000000E+01 0. -1.
         21   -1    0    0  501  502  0.00000000000E+00 -0.00000000000E+00 -0.37866346878E+03  0.37866346878E+03  0.00000000000E+00 0. -1.
         25    2    1    2    0    0 -0.27988177465E+02  0.32854255811E+02 -0.17904069090E+03  0.22258335048E+03  0.12500015484E+03 0.  0.
    9000005    1    3    3    0    0  0.25926181241E+02 -0.35498165915E+02 -0.46414251998E+02  0.63934102368E+02  0.10000000000E+01 0.  0.
    9000005    1    3    3    0    0 -0.53914358706E+02  0.68352421726E+02 -0.13262643890E+03  0.15864924811E+03  0.10000000000E+01 0.  0.
         -4    1    1    2    0  502  0.27988177465E+02 -0.32854255811E+02 -0.17524756231E+03  0.18048839629E+03  0.12700000000E+01 0.  1.
<mgrwt>
<rscale>  1 0.13224137E+03</rscale>
<asrwt>0</asrwt>
<pdfrwt beam="2">  1       21 0.58255918E-01 0.13224137E+03</pdfrwt>
<pdfrwt beam="1">  1       -4 0.37527403E-02 0.13224137E+03</pdfrwt>
<totfact> 0.42552284E+04</totfact>
</mgrwt>
</event>
<event>
 6    4  0.3189516E-003  0.1316722E+03  0.7818608E-02  0.1224995E+00
         -4   -1    0    0    0  501 -0.00000000000E+00  0.00000000000E+00  0.33975771950E+02  0.33999499696E+02  0.12700000000E+01 0. -1.
         21   -1    0    0  501  502  0.00000000000E+00 -0.00000000000E+00 -0.24150188040E+03  0.24150188040E+03  0.00000000000E+00 0. -1.
         25    2    1    2    0    0  0.94617717623E+01  0.40449409833E+02 -0.18814580250E+03  0.22964411198E+03  0.12494757015E+03 0.  0.
    9000005    1    3    3    0    0  0.42057271405E+02  0.50853795676E+01 -0.17459962361E+03  0.17966831587E+03  0.10000000000E+01 0.  0.
    9000005    1    3    3    0    0 -0.32595499643E+02  0.35364030266E+02 -0.13546178886E+02  0.49975796102E+02  0.10000000000E+01 0.  0.
         -4    1    1    2    0  502 -0.94617717623E+01 -0.40449409833E+02 -0.19380305953E+02  0.45857268122E+02  0.12700000000E+01 0.  1.
<mgrwt>
<rscale>  1 0.13167223E+03</rscale>
<asrwt>0</asrwt>
<pdfrwt beam="2">  1       21 0.37154134E-01 0.13167223E+03</pdfrwt>
<pdfrwt beam="1">  1       -4 0.52291241E-02 0.13167223E+03</pdfrwt>
<totfact> 0.62813391E+04</totfact>
</mgrwt>
</event>
<event>
 6    4  0.3189516E-003  0.1498771E+03  0.7818608E-02  0.1200624E+00
          4   -1    0    0  502    0 -0.00000000000E+00  0.00000000000E+00  0.75355288104E+03  0.75355395123E+03  0.12700000000E+01 0.  1.
         21   -1    0    0  501  502  0.00000000000E+00 -0.00000000000E+00 -0.73849692560E+02  0.73849692560E+02  0.00000000000E+00 0. -1.
         25    2    1    2    0    0 -0.75573281395E+02 -0.33576918715E+02  0.71997791043E+03  0.73541235910E+03  0.12499766430E+03 0.  0.
    9000005    1    3    3    0    0 -0.20147266696E+02 -0.61522126098E+02  0.16949398833E+03  0.18143896063E+03  0.10000000000E+01 0.  0.
    9000005    1    3    3    0    0 -0.55426014700E+02  0.27945207383E+02  0.55048392210E+03  0.55397339847E+03  0.10000000000E+01 0.  0.
          4    1    1    2  501    0  0.75573281395E+02  0.33576918715E+02 -0.40274721953E+02  0.91991284694E+02  0.12700000000E+01 0. -1.
<mgrwt>
<rscale>  1 0.14987710E+03</rscale>
<asrwt>0</asrwt>
<pdfrwt beam="2">  1       21 0.11361492E-01 0.14987710E+03</pdfrwt>
<pdfrwt beam="1">  1        4 0.11593213E+00 0.14987710E+03</pdfrwt>
<totfact> 0.16258033E+03</totfact>
</mgrwt>
</event>
<event>
 6    4  0.3189516E-003  0.1387902E+03  0.7818608E-02  0.1214966E+00
         -4   -1    0    0    0  501 -0.00000000000E+00  0.00000000000E+00  0.14823597660E+03  0.14824141681E+03  0.12700000000E+01 0. -1.
         21   -1    0    0  501  502  0.00000000000E+00 -0.00000000000E+00 -0.21634798471E+03  0.21634798471E+03  0.00000000000E+00 0.  1.
         25    2    1    2    0    0  0.59277823531E+02  0.11100823828E+02  0.10964576581E+03  0.17687544961E+03  0.12500256822E+03 0.  0.
    9000005    1    3    3    0    0 -0.38560026039E+02 -0.72168929465E+01  0.31684457310E+02  0.50436732517E+02  0.10000000000E+01 0.  0.
    9000005    1    3    3    0    0  0.97837849570E+02  0.18317716775E+02  0.77961308502E+02  0.12643871709E+03  0.10000000000E+01 0.  0.
         -4    1    1    2    0  502 -0.59277823531E+02 -0.11100823828E+02 -0.17775777392E+03  0.18771395191E+03  0.12700000000E+01 0.  1.
<mgrwt>
<rscale>  1 0.13879024E+03</rscale>
<asrwt>0</asrwt>
<pdfrwt beam="2">  1       21 0.33284305E-01 0.13879024E+03</pdfrwt>
<pdfrwt beam="1">  1       -4 0.22806240E-01 0.13879024E+03</pdfrwt>
<totfact> 0.63700469E+03</totfact>
</mgrwt>
</event>
<event>
 6    4  0.3189516E-003  0.1334954E+03  0.7818608E-02  0.1222359E+00
         21   -1    0    0  501  502  0.00000000000E+00  0.00000000000E+00  0.12791379737E+03  0.12791379737E+03  0.00000000000E+00 0. -1.
          4   -1    0    0  502    0 -0.00000000000E+00 -0.00000000000E+00 -0.96273642024E+02  0.96282018303E+02  0.12700000000E+01 0.  1.
         25    2    1    2    0    0 -0.46463014787E+02 -0.61228175930E+01 -0.39303496046E+02  0.13916102743E+03  0.12499890446E+03 0.  0.
    9000005    1    3    3    0    0 -0.79992718073E+02  0.61112395200E+01 -0.57861977985E+02  0.98920122773E+02  0.10000000000E+01 0.  0.
    9000005    1    3    3    0    0  0.33529703286E+02 -0.12234057113E+02  0.18558481939E+02  0.40240904659E+02  0.10000000000E+01 0.  0.
          4    1    1    2  501    0  0.46463014787E+02  0.61228175930E+01  0.70943651395E+02  0.85034788243E+02  0.12700000000E+01 0. -1.
<mgrwt>
<rscale>  1 0.13349542E+03</rscale>
<asrwt>0</asrwt>
<pdfrwt beam="1">  1       21 0.19679046E-01 0.13349542E+03</pdfrwt>
<pdfrwt beam="2">  1        4 0.14812459E-01 0.13349542E+03</pdfrwt>
<totfact> 0.37184092E+04</totfact>
</mgrwt>
</event>
<event>
 6    4  0.3189516E-003  0.1314949E+03  0.7818608E-02  0.1225254E+00
          4   -1    0    0  502    0 -0.00000000000E+00  0.00000000000E+00  0.64444870604E+03  0.64444995742E+03  0.12700000000E+01 0. -1.
         21   -1    0    0  501  502  0.00000000000E+00 -0.00000000000E+00 -0.13041876403E+02  0.13041876403E+02  0.00000000000E+00 0. -1.
         25    2    1    2    0    0  0.37365249470E+02 -0.16442768258E+02  0.55998496767E+03  0.57521655344E+03  0.12499757131E+03 0.  0.
    9000005    1    3    3    0    0  0.80457061085E+02  0.84681896683E+01  0.37669642161E+03  0.38528722139E+03  0.10000000000E+01 0.  0.
    9000005    1    3    3    0    0 -0.43091811615E+02 -0.24910957926E+02  0.18328854606E+03  0.18992933204E+03  0.10000000000E+01 0.  0.
          4    1    1    2  501    0 -0.37365249470E+02  0.16442768258E+02  0.71421861961E+02  0.82275280382E+02  0.12700000000E+01 0.  1.
<mgrwt>
<rscale>  1 0.13149494E+03</rscale>
<asrwt>0</asrwt>
<pdfrwt beam="2">  1       21 0.20064430E-02 0.13149494E+03</pdfrwt>
<pdfrwt beam="1">  1        4 0.99150783E-01 0.13149494E+03</pdfrwt>
<totfact> 0.43003244E+04</totfact>
</mgrwt>
</event>
<event>
 6    4  0.3189516E-003  0.1270902E+03  0.7818608E-02  0.1231838E+00
         21   -1    0    0  501  502  0.00000000000E+00  0.00000000000E+00  0.38433248143E+01  0.38433248143E+01  0.00000000000E+00 0. -1.
         -4   -1    0    0    0  501 -0.00000000000E+00 -0.00000000000E+00 -0.17904811474E+04  0.17904815978E+04  0.12700000000E+01 0. -1.
         25    2    1    2    0    0 -0.61239192110E+01 -0.22103355613E+02 -0.16983201229E+04  0.17030687465E+04  0.12500341795E+03 0.  0.
    9000005    1    3    3    0    0 -0.35087536854E+02  0.43100423866E+02 -0.78498980756E+03  0.78695538612E+03  0.10000000000E+01 0.  0.
    9000005    1    3    3    0    0  0.28963617643E+02 -0.65203779479E+02 -0.91333031537E+03  0.91611336034E+03  0.10000000000E+01 0.  0.
         -4    1    1    2    0  502  0.61239192110E+01  0.22103355613E+02 -0.88317699652E+02  0.91256176161E+02  0.12700000000E+01 0.  1.
<mgrwt>
<rscale>  1 0.12709019E+03</rscale>
<asrwt>0</asrwt>
<pdfrwt beam="1">  1       21 0.59128124E-03 0.12709019E+03</pdfrwt>
<pdfrwt beam="2">  1       -4 0.27547458E+00 0.12709019E+03</pdfrwt>
<totfact> 0.18154260E+04</totfact>
</mgrwt>
</event>
<event>
 6    4  0.3189516E-003  0.1634001E+03  0.7818608E-02  0.1184911E+00
         -4   -1    0    0    0  501 -0.00000000000E+00  0.00000000000E+00  0.44537080115E+03  0.44537261188E+03  0.12700000000E+01 0.  1.
         21   -1    0    0  501  502  0.00000000000E+00 -0.00000000000E+00 -0.15713585018E+03  0.15713585018E+03  0.00000000000E+00 0. -1.
         25    2    1    2    0    0  0.15056725637E+02  0.10414235195E+03  0.41012489596E+03  0.44147707988E+03  0.12500898893E+03 0.  0.
    9000005    1    3    3    0    0  0.60051257733E+01 -0.46412926726E+01 -0.69580028822E+01  0.10344899097E+02  0.10000000000E+01 0.  0.
    9000005    1    3    3    0    0  0.90515998633E+01  0.10878364462E+03  0.41708289884E+03  0.43113218078E+03  0.10000000000E+01 0.  0.
         -4    1    1    2    0  502 -0.15056725637E+02 -0.10414235195E+03 -0.12188994500E+03  0.16103138218E+03  0.12700000000E+01 0. -1.
<mgrwt>
<rscale>  1 0.16340007E+03</rscale>
<asrwt>0</asrwt>
<pdfrwt beam="2">  1       21 0.24174746E-01 0.16340007E+03</pdfrwt>
<pdfrwt beam="1">  1       -4 0.68519118E-01 0.16340007E+03</pdfrwt>
<totfact> 0.13509157E+03</totfact>
</mgrwt>
</event>
<event>
 6    4  0.3189516E-003  0.1374514E+03  0.7818608E-02  0.1216800E+00
          4   -1    0    0  502    0 -0.00000000000E+00  0.00000000000E+00  0.17038519289E+03  0.17038992592E+03  0.12700000000E+01 0.  1.
         21   -1    0    0  501  502  0.00000000000E+00 -0.00000000000E+00 -0.56647547334E+02  0.56647547334E+02  0.00000000000E+00 0.  1.
         25    2    1    2    0    0 -0.39812414339E+02  0.41020993618E+02  0.65643132017E+02  0.15232170929E+03  0.12500052834E+03 0.  0.
    9000005    1    3    3    0    0 -0.14693311002E+02  0.71636531469E+02 -0.28584007763E+01  0.73190549144E+02  0.10000000000E+01 0.  0.
    9000005    1    3    3    0    0 -0.25119103337E+02 -0.30615537851E+02  0.68501532793E+02  0.79131160142E+02  0.10000000000E+01 0.  0.
          4    1    1    2  501    0  0.39812414339E+02 -0.41020993618E+02  0.48094513535E+02  0.74715763966E+02  0.12700000000E+01 0. -1.
<mgrwt>
<rscale>  1 0.13745138E+03</rscale>
<asrwt>0</asrwt>
<pdfrwt beam="2">  1       21 0.87150074E-02 0.13745138E+03</pdfrwt>
<pdfrwt beam="1">  1        4 0.26214566E-01 0.13745138E+03</pdfrwt>
<totfact> 0.57361237E+04</totfact>
</mgrwt>
</event>
<event>
 6    4  0.3189516E-003  0.1301541E+03  0.7818608E-02  0.1227227E+00
          4   -1    0    0  502    0 -0.00000000000E+00  0.00000000000E+00  0.64693460961E+02  0.64705925471E+02  0.12700000000E+01 0.  1.
         21   -1    0    0  501  502  0.00000000000E+00 -0.00000000000E+00 -0.11943179686E+03  0.11943179686E+03  0.00000000000E+00 0.  1.
         25    2    1    2    0    0  0.86143337113E+01 -0.35217593621E+02 -0.66292316320E+02  0.14606420123E+03  0.12500237610E+03 0.  0.
    9000005    1    3    3    0    0 -0.18635221071E+02 -0.68792214211E+02 -0.55478192333E+01  0.71494185068E+02  0.10000000000E+01 0.  0.
    9000005    1    3    3    0    0  0.27249554782E+02  0.33574620589E+02 -0.60744497086E+02  0.74570016158E+02  0.10000000000E+01 0.  0.
          4    1    1    2  501    0 -0.86143337113E+01  0.35217593621E+02  0.11553980420E+02  0.38073521105E+02  0.12700000000E+01 0. -1.
<mgrwt>
<rscale>  1 0.13015406E+03</rscale>
<asrwt>0</asrwt>
<pdfrwt beam="2">  1       21 0.18374122E-01 0.13015406E+03</pdfrwt>
<pdfrwt beam="1">  1        4 0.99543185E-02 0.13015406E+03</pdfrwt>
<totfact> 0.83055112E+04</totfact>
</mgrwt>
</event>
<event>
 6    4  0.3189516E-003  0.1274044E+03  0.7818608E-02  0.1231359E+00
          4   -1    0    0  502    0 -0.00000000000E+00  0.00000000000E+00  0.24272043027E+03  0.24272375279E+03  0.12700000000E+01 0.  1.
         21   -1    0    0  501  502  0.00000000000E+00 -0.00000000000E+00 -0.25063529387E+02  0.25063529387E+02  0.00000000000E+00 0.  1.
         25    2    1    2    0    0 -0.12328440838E+02  0.21373077323E+02  0.20104758288E+03  0.23801680633E+03  0.12499228227E+03 0.  0.
    9000005    1    3    3    0    0 -0.81671145243E+01  0.55880710172E+02  0.19462645288E+03  0.20265688167E+03  0.10000000000E+01 0.  0.
    9000005    1    3    3    0    0 -0.41613263136E+01 -0.34507632848E+02  0.64211300025E+01  0.35359924661E+02  0.10000000000E+01 0.  0.
          4    1    1    2  501    0  0.12328440838E+02 -0.21373077323E+02  0.16609318002E+02  0.29770475848E+02  0.12700000000E+01 0. -1.
<mgrwt>
<rscale>  1 0.12740435E+03</rscale>
<asrwt>0</asrwt>
<pdfrwt beam="2">  1       21 0.38559278E-02 0.12740435E+03</pdfrwt>
<pdfrwt beam="1">  1        4 0.37344334E-01 0.12740435E+03</pdfrwt>
<totfact> 0.11540716E+05</totfact>
</mgrwt>
</event>
<event>
 6    4  0.3189516E-003  0.1332265E+03  0.7818608E-02  0.1222745E+00
         21   -1    0    0  501  502  0.00000000000E+00  0.00000000000E+00  0.83572318741E+03  0.83572318741E+03  0.00000000000E+00 0.  1.
          4   -1    0    0  502    0 -0.00000000000E+00 -0.00000000000E+00 -0.25350701531E+02  0.25382493339E+02  0.12700000000E+01 0. -1.
         25    2    1    2    0    0 -0.45889924956E+02 -0.47548847650E+01  0.15616644670E+03  0.20527365291E+03  0.12498327633E+03 0.  0.
    9000005    1    3    3    0    0  0.20416746324E+01 -0.88302348330E+01 -0.20359415462E+02  0.22308009334E+02  0.10000000000E+01 0.  0.
    9000005    1    3    3    0    0 -0.47931599588E+02  0.40753500681E+01  0.17652586216E+03  0.18296564358E+03  0.10000000000E+01 0.  0.
          4    1    1    2  501    0  0.45889924956E+02  0.47548847650E+01  0.65420603917E+03  0.65583202783E+03  0.12700000000E+01 0.  1.
<mgrwt>
<rscale>  1 0.13322655E+03</rscale>
<asrwt>0</asrwt>
<pdfrwt beam="1">  1       21 0.12857278E+00 0.13322655E+03</pdfrwt>
<pdfrwt beam="2">  1        4 0.39026283E-02 0.13322655E+03</pdfrwt>
<totfact> 0.65767201E+03</totfact>
</mgrwt>
</event>
<event>
 6    4  0.3189516E-003  0.1337833E+03  0.7818608E-02  0.1221948E+00
         -4   -1    0    0    0  501 -0.00000000000E+00  0.00000000000E+00  0.29474177629E+03  0.29474451240E+03  0.12700000000E+01 0. -1.
         21   -1    0    0  501  502  0.00000000000E+00 -0.00000000000E+00 -0.90591138570E+02  0.90591138570E+02  0.00000000000E+00 0.  1.
         25    2    1    2    0    0 -0.45139121661E+02  0.15430594962E+02  0.27157108869E+03  0.30273556819E+03  0.12498929741E+03 0.  0.
    9000005    1    3    3    0    0 -0.89281950030E+00  0.59535737309E+02  0.71053654318E+02  0.92708807217E+02  0.10000000000E+01 0.  0.
    9000005    1    3    3    0    0 -0.44246302160E+02 -0.44105142348E+02  0.20051743437E+03  0.21002676097E+03  0.10000000000E+01 0.  0.
         -4    1    1    2    0  502  0.45139121661E+02 -0.15430594962E+02 -0.67420450977E+02  0.82600082779E+02  0.12700000000E+01 0.  1.
<mgrwt>
<rscale>  1 0.13378329E+03</rscale>
<asrwt>0</asrwt>
<pdfrwt beam="2">  1       21 0.13937098E-01 0.13378329E+03</pdfrwt>
<pdfrwt beam="1">  1       -4 0.45345783E-01 0.13378329E+03</pdfrwt>
<totfact> 0.86890377E+03</totfact>
</mgrwt>
</event>
<event>
 6    4  0.3189516E-003  0.1312335E+03  0.7818608E-02  0.1225637E+00
         21   -1    0    0  501  502  0.00000000000E+00  0.00000000000E+00  0.12769736848E+03  0.12769736848E+03  0.00000000000E+00 0.  1.
         -4   -1    0    0    0  501 -0.00000000000E+00 -0.00000000000E+00 -0.57866737318E+02  0.57880671972E+02  0.12700000000E+01 0. -1.
         25    2    1    2    0    0 -0.39954034636E+02 -0.96660219082E+00  0.46181549902E+02  0.13912213504E+03  0.12499989481E+03 0.  0.
    9000005    1    3    3    0    0  0.23082929713E+02  0.42607879806E+02  0.38881554438E+02  0.62137173586E+02  0.10000000000E+01 0.  0.
    9000005    1    3    3    0    0 -0.63036964349E+02 -0.43574481997E+02  0.72999954635E+01  0.76984961450E+02  0.10000000000E+01 0.  0.
         -4    1    1    2    0  502  0.39954034636E+02  0.96660219082E+00  0.23649081258E+02  0.46455905414E+02  0.12700000000E+01 0.  1.
<mgrwt>
<rscale>  1 0.13123351E+03</rscale>
<asrwt>0</asrwt>
<pdfrwt beam="1">  1       21 0.19645749E-01 0.13123351E+03</pdfrwt>
<pdfrwt beam="2">  1       -4 0.89041327E-02 0.13123351E+03</pdfrwt>
<totfact> 0.88612264E+04</totfact>
</mgrwt>
</event>
<event>
 6    4  0.3189516E-003  0.1354926E+03  0.7818608E-02  0.1219526E+00
          4   -1    0    0  502    0 -0.00000000000E+00  0.00000000000E+00  0.23979034161E+03  0.23979370474E+03  0.12700000000E+01 0. -1.
         21   -1    0    0  501  502  0.00000000000E+00 -0.00000000000E+00 -0.47217332361E+02  0.47217332361E+02  0.00000000000E+00 0.  1.
         25    2    1    2    0    0 -0.11907064856E+02  0.50891932850E+02  0.19166612495E+03  0.23472143620E+03  0.12500592841E+03 0.  0.
    9000005    1    3    3    0    0 -0.80325845533E+01  0.35220969223E+02 -0.57934400969E+01  0.36600587916E+02  0.10000000000E+01 0.  0.
    9000005    1    3    3    0    0 -0.38744803030E+01  0.15670963627E+02  0.19745956504E+03  0.19812084829E+03  0.10000000000E+01 0.  0.
          4    1    1    2  501    0  0.11907064856E+02 -0.50891932850E+02  0.90688430732E+00  0.52289600896E+02  0.12700000000E+01 0.  1.
<mgrwt>
<rscale>  1 0.13549262E+03</rscale>
<asrwt>0</asrwt>
<pdfrwt beam="2">  1       21 0.72642051E-02 0.13549262E+03</pdfrwt>
<pdfrwt beam="1">  1        4 0.36892394E-01 0.13549262E+03</pdfrwt>
<totfact> 0.40967938E+04</totfact>
</mgrwt>
</event>
<event>
 6    4  0.3189516E-003  0.1333366E+03  0.7818608E-02  0.1222587E+00
         -4   -1    0    0    0  501 -0.00000000000E+00  0.00000000000E+00  0.24488580496E+02  0.24521490059E+02  0.12700000000E+01 0.  1.
         21   -1    0    0  501  502  0.00000000000E+00 -0.00000000000E+00 -0.36116855387E+03  0.36116855387E+03  0.00000000000E+00 0.  1.
         25    2    1    2    0    0  0.45991464405E+02  0.61946324044E+01 -0.19210180674E+03  0.23384127892E+03  0.12500020522E+03 0.  0.
    9000005    1    3    3    0    0  0.71455520026E+02 -0.32642798370E+02 -0.15719840700E+03  0.17573782402E+03  0.10000000000E+01 0.  0.
    9000005    1    3    3    0    0 -0.25464055621E+02  0.38837430774E+02 -0.34903399744E+02  0.58103454901E+02  0.10000000000E+01 0.  0.
         -4    1    1    2    0  502 -0.45991464405E+02 -0.61946324044E+01 -0.14457816663E+03  0.15184876501E+03  0.12700000000E+01 0. -1.
<mgrwt>
<rscale>  1 0.13333657E+03</rscale>
<asrwt>0</asrwt>
<pdfrwt beam="2">  1       21 0.55564392E-01 0.13333657E+03</pdfrwt>
<pdfrwt beam="1">  1       -4 0.37701772E-02 0.13333657E+03</pdfrwt>
<totfact> 0.46706813E+04</totfact>
</mgrwt>
</event>
<event>
 6    4  0.3189516E-003  0.1296549E+03  0.7818608E-02  0.1227969E+00
          4   -1    0    0  502    0 -0.00000000000E+00  0.00000000000E+00  0.42635548525E+03  0.42635737674E+03  0.12700000000E+01 0. -1.
         21   -1    0    0  501  502  0.00000000000E+00 -0.00000000000E+00 -0.18696623341E+02  0.18696623341E+02  0.00000000000E+00 0. -1.
         25    2    1    2    0    0 -0.33381906690E+02 -0.84394317171E+01  0.22948125588E+03  0.26357549477E+03  0.12499927576E+03 0.  0.
    9000005    1    3    3    0    0  0.28427878107E+02 -0.19201601814E+02  0.18114918564E+03  0.18437156295E+03  0.10000000000E+01 0.  0.
    9000005    1    3    3    0    0 -0.61809784797E+02  0.10762170097E+02  0.48332070239E+02  0.79203931818E+02  0.10000000000E+01 0.  0.
          4    1    1    2  501    0  0.33381906690E+02  0.84394317171E+01  0.17817760603E+03  0.18147850532E+03  0.12700000000E+01 0.  1.
<mgrwt>
<rscale>  1 0.12965491E+03</rscale>
<asrwt>0</asrwt>
<pdfrwt beam="2">  1       21 0.28764039E-02 0.12965491E+03</pdfrwt>
<pdfrwt beam="1">  1        4 0.65596607E-01 0.12965491E+03</pdfrwt>
<totfact> 0.59635132E+04</totfact>
</mgrwt>
</event>
<event>
 6    4  0.3189516E-003  0.1268847E+03  0.7818608E-02  0.1232153E+00
         -4   -1    0    0    0  501 -0.00000000000E+00  0.00000000000E+00  0.20359259496E+03  0.20359655602E+03  0.12700000000E+01 0.  1.
         21   -1    0    0  501  502  0.00000000000E+00 -0.00000000000E+00 -0.11820795405E+03  0.11820795405E+03  0.00000000000E+00 0. -1.
         25    2    1    2    0    0  0.18121255631E+02 -0.12089231083E+02  0.18249630733E+03  0.22227151018E+03  0.12500077054E+03 0.  0.
    9000005    1    3    3    0    0  0.51984607380E+02 -0.52569558600E+02  0.10094644703E+03  0.12512850620E+03  0.10000000000E+01 0.  0.
    9000005    1    3    3    0    0 -0.33863351748E+02  0.40480327518E+02  0.81549860291E+02  0.97143003974E+02  0.10000000000E+01 0.  0.
         -4    1    1    2    0  502 -0.18121255631E+02  0.12089231083E+02 -0.97111666417E+02  0.99532999895E+02  0.12700000000E+01 0. -1.
<mgrwt>
<rscale>  1 0.12688468E+03</rscale>
<asrwt>0</asrwt>
<pdfrwt beam="2">  1       21 0.18185839E-01 0.12688468E+03</pdfrwt>
<pdfrwt beam="1">  1       -4 0.31322767E-01 0.12688468E+03</pdfrwt>
<totfact> 0.10985352E+04</totfact>
</mgrwt>
</event>
<event>
 6    4  0.3189516E-003  0.1269980E+03  0.7818608E-02  0.1231979E+00
         -4   -1    0    0    0  501 -0.00000000000E+00  0.00000000000E+00  0.11808958188E+02  0.11877053233E+02  0.12700000000E+01 0. -1.
         21   -1    0    0  501  502  0.00000000000E+00 -0.00000000000E+00 -0.12129320202E+04  0.12129320202E+04  0.00000000000E+00 0.  1.
         25    2    1    2    0    0 -0.17372741631E+02 -0.14215851285E+02 -0.33300368426E+03  0.35639858898E+03  0.12499839166E+03 0.  0.
    9000005    1    3    3    0    0 -0.13852333245E+02 -0.44420309606E+02 -0.31990612312E+03  0.32327384467E+03  0.10000000000E+01 0.  0.
    9000005    1    3    3    0    0 -0.35204083859E+01  0.30204458321E+02 -0.13097561146E+02  0.33124744310E+02  0.10000000000E+01 0.  0.
         -4    1    1    2    0  502  0.17372741631E+02  0.14215851285E+02 -0.86811937776E+03  0.86841048446E+03  0.12700000000E+01 0.  1.
<mgrwt>
<rscale>  1 0.12699803E+03</rscale>
<asrwt>0</asrwt>
<pdfrwt beam="2">  1       21 0.18660485E+00 0.12699803E+03</pdfrwt>
<pdfrwt beam="1">  1       -4 0.18220528E-02 0.12699803E+03</pdfrwt>
<totfact> 0.80801068E+03</totfact>
</mgrwt>
</event>
<event>
 6    4  0.3189516E-003  0.1275417E+03  0.7818608E-02  0.1231150E+00
         21   -1    0    0  501  502  0.00000000000E+00  0.00000000000E+00  0.65154420048E+02  0.65154420048E+02  0.00000000000E+00 0. -1.
         -4   -1    0    0    0  501 -0.00000000000E+00 -0.00000000000E+00 -0.15040956192E+03  0.15041492352E+03  0.12700000000E+01 0.  1.
         25    2    1    2    0    0 -0.14295904833E+02  0.20882130123E+02 -0.11827881944E+03  0.17394468220E+03  0.12500574821E+03 0.  0.
    9000005    1    3    3    0    0 -0.60718361634E+02 -0.25408652348E+01 -0.22225461469E+02  0.64715891195E+02  0.10000000000E+01 0.  0.
    9000005    1    3    3    0    0  0.46422456801E+02  0.23422995358E+02 -0.96053357974E+02  0.10922879101E+03  0.10000000000E+01 0.  0.
         -4    1    1    2    0  502  0.14295904833E+02 -0.20882130123E+02  0.33023677570E+02  0.41624661364E+02  0.12700000000E+01 0. -1.
<mgrwt>
<rscale>  1 0.12754165E+03</rscale>
<asrwt>0</asrwt>
<pdfrwt beam="1">  1       21 0.10023757E-01 0.12754165E+03</pdfrwt>
<pdfrwt beam="2">  1       -4 0.23141297E-01 0.12754165E+03</pdfrwt>
<totfact> 0.56020811E+04</totfact>
</mgrwt>
</event>
<event>
 6    4  0.3189516E-003  0.1270455E+03  0.7818608E-02  0.1231907E+00
         21   -1    0    0  501  502  0.00000000000E+00  0.00000000000E+00  0.33477091785E+03  0.33477091785E+03  0.00000000000E+00 0. -1.
          4   -1    0    0  502    0 -0.00000000000E+00 -0.00000000000E+00 -0.22521170411E+02  0.22556950519E+02  0.12700000000E+01 0. -1.
         25    2    1    2    0    0 -0.19465731168E+02  0.11721955651E+02  0.16456289718E+03  0.20789782596E+03  0.12499695987E+03 0.  0.
    9000005    1    3    3    0    0 -0.25182160235E+02 -0.47417043503E+02  0.12624729278E+03  0.13719291579E+03  0.10000000000E+01 0.  0.
    9000005    1    3    3    0    0  0.57164290670E+01  0.59138999154E+02  0.38315604404E+02  0.70704910176E+02  0.10000000000E+01 0.  0.
          4    1    1    2  501    0  0.19465731168E+02 -0.11721955651E+02  0.14768685026E+03  0.14943004241E+03  0.12700000000E+01 0.  1.
<mgrwt>
<rscale>  1 0.12704550E+03</rscale>
<asrwt>0</asrwt>
<pdfrwt beam="1">  1       21 0.51503214E-01 0.12704550E+03</pdfrwt>
<pdfrwt beam="2">  1        4 0.34677333E-02 0.12704550E+03</pdfrwt>
<totfact> 0.62102620E+04</totfact>
</mgrwt>
</event>
<event>
 6    4  0.3189516E-003  0.1606058E+03  0.7818608E-02  0.1188014E+00
          4   -1    0    0  502    0 -0.00000000000E+00  0.00000000000E+00  0.91753502652E+03  0.91753590545E+03  0.12700000000E+01 0. -1.
         21   -1    0    0  501  502  0.00000000000E+00 -0.00000000000E+00 -0.21344431619E+02  0.21344431619E+02  0.00000000000E+00 0.  1.
         25    2    1    2    0    0  0.81096138192E+02  0.59940671621E+02  0.70114007083E+03  0.71929940077E+03  0.12499904514E+03 0.  0.
    9000005    1    3    3    0    0  0.67239207958E+02  0.57239734625E+02  0.69949921648E+03  0.70505152447E+03  0.10000000000E+01 0.  0.
    9000005    1    3    3    0    0  0.13856930234E+02  0.27009369961E+01  0.16408543537E+01  0.14247876304E+02  0.10000000000E+01 0.  0.
          4    1    1    2  501    0 -0.81096138192E+02 -0.59940671621E+02  0.19505052407E+03  0.21958093630E+03  0.12700000000E+01 0.  1.
<mgrwt>
<rscale>  1 0.16060582E+03</rscale>
<asrwt>0</asrwt>
<pdfrwt beam="2">  1       21 0.32837594E-02 0.16060582E+03</pdfrwt>
<pdfrwt beam="1">  1        4 0.14116218E+00 0.16060582E+03</pdfrwt>
<totfact> 0.83937917E+03</totfact>
</mgrwt>
</event>
<event>
 6    4  0.3189516E-003  0.1539312E+03  0.7818608E-02  0.1195724E+00
         -4   -1    0    0    0  501 -0.00000000000E+00  0.00000000000E+00  0.16379338107E+03  0.16379830457E+03  0.12700000000E+01 0. -1.
         21   -1    0    0  501  502  0.00000000000E+00 -0.00000000000E+00 -0.12273986436E+03  0.12273986436E+03  0.00000000000E+00 0.  1.
         25    2    1    2    0    0  0.80775987727E+01  0.89481929872E+02  0.95810932895E+02  0.18131340520E+03  0.12499021028E+03 0.  0.
    9000005    1    3    3    0    0  0.52191054722E+02  0.24468612862E+01  0.54018891188E+02  0.75159390154E+02  0.10000000000E+01 0.  0.
    9000005    1    3    3    0    0 -0.44113455949E+02  0.87035068586E+02  0.41792041707E+02  0.10615401504E+03  0.10000000000E+01 0.  0.
         -4    1    1    2    0  502 -0.80775987727E+01 -0.89481929872E+02 -0.54757416186E+02  0.10522476373E+03  0.12700000000E+01 0.  1.
<mgrwt>
<rscale>  1 0.15393121E+03</rscale>
<asrwt>0</asrwt>
<pdfrwt beam="2">  1       21 0.18883056E-01 0.15393121E+03</pdfrwt>
<pdfrwt beam="1">  1       -4 0.25199866E-01 0.15393121E+03</pdfrwt>
<totfact> 0.15676107E+04</totfact>
</mgrwt>
</event>
<event>
 6    4  0.3189516E-003  0.2569851E+03  0.7818608E-02  0.1108968E+00
         21   -1    0    0  501  502  0.00000000000E+00  0.00000000000E+00  0.75868803004E+02  0.75868803004E+02  0.00000000000E+00 0.  1.
          4   -1    0    0  502    0 -0.00000000000E+00 -0.00000000000E+00 -0.94376160138E+03  0.94376245589E+03  0.12700000000E+01 0. -1.
         25    2    1    2    0    0  0.15540759767E+03  0.16206468910E+03 -0.67968872533E+03  0.72664854459E+03  0.12499943661E+03 0.  0.
    9000005    1    3    3    0    0 -0.10049341531E+02  0.59939751234E+02 -0.12803495856E+03  0.14173113157E+03  0.10000000000E+01 0.  0.
    9000005    1    3    3    0    0  0.16545693920E+03  0.10212493787E+03 -0.55165376677E+03  0.58491741302E+03  0.10000000000E+01 0.  0.
          4    1    1    2  501    0 -0.15540759767E+03 -0.16206468910E+03 -0.18820407305E+03  0.29298271430E+03  0.12700000000E+01 0.  1.
<mgrwt>
<rscale>  1 0.25698510E+03</rscale>
<asrwt>0</asrwt>
<pdfrwt beam="1">  1       21 0.11672125E-01 0.25698510E+03</pdfrwt>
<pdfrwt beam="2">  1        4 0.14519496E+00 0.25698510E+03</pdfrwt>
<totfact> 0.89505892E+02</totfact>
</mgrwt>
</event>
<event>
 6    4  0.3189516E-003  0.1269156E+03  0.7818608E-02  0.1232106E+00
         21   -1    0    0  501  502  0.00000000000E+00  0.00000000000E+00  0.26601317734E+03  0.26601317734E+03  0.00000000000E+00 0. -1.
         -4   -1    0    0    0  501 -0.00000000000E+00 -0.00000000000E+00 -0.26801980518E+02  0.26832052842E+02  0.12700000000E+01 0.  1.
         25    2    1    2    0    0  0.21603746321E+02 -0.40260164542E+01  0.13091942687E+03  0.18233889098E+03  0.12499857667E+03 0.  0.
    9000005    1    3    3    0    0  0.18103684648E+02 -0.11030748333E+01 -0.22461264962E+02  0.28887170086E+02  0.10000000000E+01 0.  0.
    9000005    1    3    3    0    0  0.35000616738E+01 -0.29229416210E+01  0.15338069183E+03  0.15345172089E+03  0.10000000000E+01 0.  0.
         -4    1    1    2    0  502 -0.21603746321E+02  0.40260164542E+01  0.10829176996E+03  0.11050633920E+03  0.12700000000E+01 0. -1.
<mgrwt>
<rscale>  1 0.12691562E+03</rscale>
<asrwt>0</asrwt>
<pdfrwt beam="1">  1       21 0.40925102E-01 0.12691562E+03</pdfrwt>
<pdfrwt beam="2">  1       -4 0.41259283E-02 0.12691562E+03</pdfrwt>
<totfact> 0.75351025E+04</totfact>
</mgrwt>
</event>
<event>
 6    4  0.3189516E-003  0.1271900E+03  0.7818608E-02  0.1231686E+00
         21   -1    0    0  501  502  0.00000000000E+00  0.00000000000E+00  0.54867188430E+02  0.54867188430E+02  0.00000000000E+00 0. -1.
          4   -1    0    0  502    0 -0.00000000000E+00 -0.00000000000E+00 -0.24791246655E+03  0.24791571949E+03  0.12700000000E+01 0.  1.
         25    2    1    2    0    0  0.10042401048E+02  0.21243587481E+02 -0.22774615339E+03  0.26085554844E+03  0.12500066775E+03 0.  0.
    9000005    1    3    3    0    0  0.55318651046E+02 -0.12655202960E+02 -0.17323843898E+03  0.18229883174E+03  0.10000000000E+01 0.  0.
    9000005    1    3    3    0    0 -0.45276249998E+02  0.33898790440E+02 -0.54507714413E+02  0.78556716694E+02  0.10000000000E+01 0.  0.
          4    1    1    2  501    0 -0.10042401048E+02 -0.21243587481E+02  0.34700875277E+02  0.41927359478E+02  0.12700000000E+01 0. -1.
<mgrwt>
<rscale>  1 0.12719004E+03</rscale>
<asrwt>0</asrwt>
<pdfrwt beam="1">  1       21 0.84411059E-02 0.12719004E+03</pdfrwt>
<pdfrwt beam="2">  1        4 0.38141760E-01 0.12719004E+03</pdfrwt>
<totfact> 0.29421445E+04</totfact>
</mgrwt>
</event>
<event>
 6    4  0.3189516E-003  0.1273551E+03  0.7818608E-02  0.1231434E+00
         -4   -1    0    0    0  501 -0.00000000000E+00  0.00000000000E+00  0.43936186478E+02  0.43954537675E+02  0.12700000000E+01 0. -1.
         21   -1    0    0  501  502  0.00000000000E+00 -0.00000000000E+00 -0.16179952961E+03  0.16179952961E+03  0.00000000000E+00 0.  1.
         25    2    1    2    0    0  0.85971380190E+01  0.22801299457E+02 -0.55756400960E+02  0.13902554861E+03  0.12500206750E+03 0.  0.
    9000005    1    3    3    0    0  0.18601041918E+02  0.33157712350E+02 -0.92249458772E+02  0.99781738271E+02  0.10000000000E+01 0.  0.
    9000005    1    3    3    0    0 -0.10003903898E+02 -0.10356412893E+02  0.36493057812E+02  0.39243810336E+02  0.10000000000E+01 0.  0.
         -4    1    1    2    0  502 -0.85971380190E+01 -0.22801299457E+02 -0.62106942171E+02  0.66728518677E+02  0.12700000000E+01 0.  1.
<mgrwt>
<rscale>  1 0.12735512E+03</rscale>
<asrwt>0</asrwt>
<pdfrwt beam="2">  1       21 0.24892236E-01 0.12735512E+03</pdfrwt>
<pdfrwt beam="1">  1       -4 0.67612083E-02 0.12735512E+03</pdfrwt>
<totfact> 0.89393792E+04</totfact>
</mgrwt>
</event>
<event>
 6    4  0.3189516E-003  0.1327356E+03  0.7818608E-02  0.1223452E+00
         21   -1    0    0  501  502  0.00000000000E+00  0.00000000000E+00  0.30598788287E+03  0.30598788287E+03  0.00000000000E+00 0.  1.
         -4   -1    0    0    0  501 -0.00000000000E+00 -0.00000000000E+00 -0.53196306841E+02  0.53211464568E+02  0.12700000000E+01 0. -1.
         25    2    1    2    0    0  0.40266908699E+02 -0.19314732367E+02  0.35553659626E+02  0.13741474913E+03  0.12499707094E+03 0.  0.
    9000005    1    3    3    0    0  0.22637784302E+02 -0.23699422188E+02 -0.44524812769E+02  0.55295486636E+02  0.10000000000E+01 0.  0.
    9000005    1    3    3    0    0  0.17629124397E+02  0.43846898213E+01  0.80078472395E+02  0.82119262496E+02  0.10000000000E+01 0.  0.
         -4    1    1    2    0  502 -0.40266908699E+02  0.19314732367E+02  0.21723791640E+03  0.22178459831E+03  0.12700000000E+01 0.  1.
<mgrwt>
<rscale>  1 0.13273564E+03</rscale>
<asrwt>0</asrwt>
<pdfrwt beam="1">  1       21 0.47075058E-01 0.13273564E+03</pdfrwt>
<pdfrwt beam="2">  1       -4 0.81854161E-02 0.13273564E+03</pdfrwt>
<totfact> 0.18774582E+04</totfact>
</mgrwt>
</event>
<event>
 6    4  0.3189516E-003  0.1310543E+03  0.7818608E-02  0.1225900E+00
         21   -1    0    0  501  502  0.00000000000E+00  0.00000000000E+00  0.67495837186E+02  0.67495837186E+02  0.00000000000E+00 0.  1.
         -4   -1    0    0    0  501 -0.00000000000E+00 -0.00000000000E+00 -0.26651168044E+03  0.26651470637E+03  0.12700000000E+01 0. -1.
         25    2    1    2    0    0 -0.67526560297E+01 -0.38792547079E+02 -0.24230650238E+03  0.27547718435E+03  0.12499911172E+03 0.  0.
    9000005    1    3    3    0    0  0.36012443715E+02 -0.44327375008E+02 -0.21924896359E+03  0.22656769476E+03  0.10000000000E+01 0.  0.
    9000005    1    3    3    0    0 -0.42765099745E+02  0.55348279291E+01 -0.23057538796E+02  0.48909489588E+02  0.10000000000E+01 0.  0.
         -4    1    1    2    0  502  0.67526560297E+01  0.38792547079E+02  0.43290659125E+02  0.58533359205E+02  0.12700000000E+01 0.  1.
<mgrwt>
<rscale>  1 0.13105433E+03</rscale>
<asrwt>0</asrwt>
<pdfrwt beam="1">  1       21 0.10383975E-01 0.13105433E+03</pdfrwt>
<pdfrwt beam="2">  1       -4 0.41002948E-01 0.13105433E+03</pdfrwt>
<totfact> 0.17855824E+04</totfact>
</mgrwt>
</event>
<event>
 6    4  0.3189516E-003  0.1275382E+03  0.7818608E-02  0.1231155E+00
         21   -1    0    0  501  502  0.00000000000E+00  0.00000000000E+00  0.11974951606E+02  0.11974951606E+02  0.00000000000E+00 0.  1.
          4   -1    0    0  502    0 -0.00000000000E+00 -0.00000000000E+00 -0.49394383730E+03  0.49394546997E+03  0.12700000000E+01 0.  1.
         25    2    1    2    0    0  0.46997197533E+01  0.24869703546E+02 -0.37920591658E+03  0.40007888795E+03  0.12500159956E+03 0.  0.
    9000005    1    3    3    0    0 -0.47253982205E+02 -0.14790839799E+02 -0.82217094207E+02  0.95981031230E+02  0.10000000000E+01 0.  0.
    9000005    1    3    3    0    0  0.51953701958E+02  0.39660543345E+02 -0.29698882238E+03  0.30409785672E+03  0.10000000000E+01 0.  0.
          4    1    1    2  501    0 -0.46997197533E+01 -0.24869703546E+02 -0.10276296911E+03  0.10584153363E+03  0.12700000000E+01 0. -1.
<mgrwt>
<rscale>  1 0.12753819E+03</rscale>
<asrwt>0</asrwt>
<pdfrwt beam="1">  1       21 0.18423004E-02 0.12753819E+03</pdfrwt>
<pdfrwt beam="2">  1        4 0.75996659E-01 0.12753819E+03</pdfrwt>
<totfact> 0.89210505E+04</totfact>
</mgrwt>
</event>
<event>
 6    4  0.3189516E-003  0.1272623E+03  0.7818608E-02  0.1231575E+00
         21   -1    0    0  501  502  0.00000000000E+00  0.00000000000E+00  0.23708268807E+03  0.23708268807E+03  0.00000000000E+00 0. -1.
          4   -1    0    0  502    0 -0.00000000000E+00 -0.00000000000E+00 -0.68049819805E+02  0.68061669649E+02  0.12700000000E+01 0.  1.
         25    2    1    2    0    0  0.18164058797E+02  0.15478476347E+02 -0.70401659015E+01  0.12745687216E+03  0.12500469617E+03 0.  0.
    9000005    1    3    3    0    0  0.53948999684E+02 -0.26377016179E+02 -0.30772405337E+02  0.67484683297E+02  0.10000000000E+01 0.  0.
    9000005    1    3    3    0    0 -0.35784940888E+02  0.41855492527E+02  0.23732239435E+02  0.59972188868E+02  0.10000000000E+01 0.  0.
          4    1    1    2  501    0 -0.18164058797E+02 -0.15478476347E+02  0.17607303417E+03  0.17768748555E+03  0.12700000000E+01 0. -1.
<mgrwt>
<rscale>  1 0.12726229E+03</rscale>
<asrwt>0</asrwt>
<pdfrwt beam="1">  1       21 0.36474260E-01 0.12726229E+03</pdfrwt>
<pdfrwt beam="2">  1        4 0.10470376E-01 0.12726229E+03</pdfrwt>
<totfact> 0.20682103E+04</totfact>
</mgrwt>
</event>
<event>
 6    4  0.3189516E-003  0.1277839E+03  0.7818608E-02  0.1230782E+00
         21   -1    0    0  501  502  0.00000000000E+00  0.00000000000E+00  0.14030429326E+02  0.14030429326E+02  0.00000000000E+00 0.  1.
          4   -1    0    0  502    0 -0.00000000000E+00 -0.00000000000E+00 -0.44810782314E+03  0.44810962282E+03  0.12700000000E+01 0.  1.
         25    2    1    2    0    0 -0.16097594148E+02  0.21096177548E+02 -0.31101241464E+03  0.33624015840E+03  0.12499816326E+03 0.  0.
    9000005    1    3    3    0    0  0.26357989164E+02  0.54166057984E+02 -0.23815358513E+03  0.24565592918E+03  0.10000000000E+01 0.  0.
    9000005    1    3    3    0    0 -0.42455583312E+02 -0.33069880436E+02 -0.72858829511E+02  0.90584229224E+02  0.10000000000E+01 0.  0.
          4    1    1    2  501    0  0.16097594148E+02 -0.21096177548E+02 -0.12306497918E+03  0.12589989374E+03  0.12700000000E+01 0. -1.
<mgrwt>
<rscale>  1 0.12778389E+03</rscale>
<asrwt>0</asrwt>
<pdfrwt beam="1">  1       21 0.21585274E-02 0.12778389E+03</pdfrwt>
<pdfrwt beam="2">  1        4 0.68944230E-01 0.12778389E+03</pdfrwt>
<totfact> 0.85361513E+04</totfact>
</mgrwt>
</event>
<event>
 6    4  0.3189516E-003  0.1303420E+03  0.7818608E-02  0.1226949E+00
         21   -1    0    0  501  502  0.00000000000E+00  0.00000000000E+00  0.40304543827E+02  0.40304543827E+02  0.00000000000E+00 0. -1.
         -4   -1    0    0    0  501 -0.00000000000E+00 -0.00000000000E+00 -0.48196158759E+03  0.48196326086E+03  0.12700000000E+01 0.  1.
         25    2    1    2    0    0  0.75340146870E+01 -0.36066894566E+02 -0.46208712255E+03  0.48011826993E+03  0.12502584546E+03 0.  0.
    9000005    1    3    3    0    0  0.31780538731E+02 -0.55389187886E+02 -0.43270111787E+03  0.43738909701E+03  0.10000000000E+01 0.  0.
    9000005    1    3    3    0    0 -0.24246524044E+02  0.19322293320E+02 -0.29386004679E+02  0.42729172919E+02  0.10000000000E+01 0.  0.
         -4    1    1    2    0  502 -0.75340146870E+01  0.36066894566E+02  0.20430078782E+02  0.42149534755E+02  0.12700000000E+01 0. -1.
<mgrwt>
<rscale>  1 0.13034203E+03</rscale>
<asrwt>0</asrwt>
<pdfrwt beam="1">  1       21 0.62006989E-02 0.13034203E+03</pdfrwt>
<pdfrwt beam="2">  1       -4 0.74149607E-01 0.13034203E+03</pdfrwt>
<totfact> 0.12739114E+04</totfact>
</mgrwt>
</event>
<event>
 6    4  0.3189516E-003  0.1270715E+03  0.7818608E-02  0.1231867E+00
         21   -1    0    0  501  502  0.00000000000E+00  0.00000000000E+00  0.43903601721E+03  0.43903601721E+03  0.00000000000E+00 0. -1.
          4   -1    0    0  502    0 -0.00000000000E+00 -0.00000000000E+00 -0.42389927199E+02  0.42408947498E+02  0.12700000000E+01 0.  1.
         25    2    1    2    0    0 -0.22763036145E+02 -0.18714619323E+01  0.54054862241E+02  0.13809089028E+03  0.12500203063E+03 0.  0.
    9000005    1    3    3    0    0 -0.24207925434E+02  0.17690778690E+02  0.91235573342E+02  0.96041226291E+02  0.10000000000E+01 0.  0.
    9000005    1    3    3    0    0  0.14448892897E+01 -0.19562240622E+02 -0.37180711101E+02  0.42049663984E+02  0.10000000000E+01 0.  0.
          4    1    1    2  501    0  0.22763036145E+02  0.18714619323E+01  0.34259122777E+03  0.34335407443E+03  0.12700000000E+01 0. -1.
<mgrwt>
<rscale>  1 0.12707150E+03</rscale>
<asrwt>0</asrwt>
<pdfrwt beam="1">  1       21 0.67543999E-01 0.12707150E+03</pdfrwt>
<pdfrwt beam="2">  1        4 0.65231320E-02 0.12707150E+03</pdfrwt>
<totfact> 0.12714414E+04</totfact>
</mgrwt>
</event>
<event>
 6    4  0.3189516E-003  0.1341027E+03  0.7818608E-02  0.1221492E+00
         -4   -1    0    0    0  501 -0.00000000000E+00  0.00000000000E+00  0.54835992371E+03  0.54836139436E+03  0.12700000000E+01 0. -1.
         21   -1    0    0  501  502  0.00000000000E+00 -0.00000000000E+00 -0.17436564826E+02  0.17436564826E+02  0.00000000000E+00 0.  1.
         25    2    1    2    0    0 -0.48436849556E+02 -0.35094342617E+01  0.46472385598E+03  0.48368564825E+03  0.12500039792E+03 0.  0.
    9000005    1    3    3    0    0  0.13730777313E+02 -0.46174646769E+02  0.28080152280E+03  0.28490547109E+03  0.10000000000E+01 0.  0.
    9000005    1    3    3    0    0 -0.62167626869E+02  0.42665212507E+02  0.18392233318E+03  0.19878017716E+03  0.10000000000E+01 0.  0.
         -4    1    1    2    0  502  0.48436849556E+02  0.35094342617E+01  0.66199502902E+02  0.82112310943E+02  0.12700000000E+01 0.  1.
<mgrwt>
<rscale>  1 0.13410274E+03</rscale>
<asrwt>0</asrwt>
<pdfrwt beam="2">  1       21 0.26825489E-02 0.13410274E+03</pdfrwt>
<pdfrwt beam="1">  1       -4 0.84366723E-01 0.13410274E+03</pdfrwt>
<totfact> 0.38785128E+04</totfact>
</mgrwt>
</event>
<event>
 6    4  0.3189516E-003  0.1359013E+03  0.7818608E-02  0.1218953E+00
         -4   -1    0    0    0  501 -0.00000000000E+00  0.00000000000E+00  0.54337624824E+02  0.54352464263E+02  0.12700000000E+01 0. -1.
         21   -1    0    0  501  502  0.00000000000E+00 -0.00000000000E+00 -0.23277848766E+03  0.23277848766E+03  0.00000000000E+00 0.  1.
         25    2    1    2    0    0  0.71912508121E+01 -0.52939525471E+02 -0.44627836068E+02  0.14304123516E+03  0.12495936843E+03 0.  0.
    9000005    1    3    3    0    0  0.21305370668E+02  0.34582155839E+02  0.58040742282E+01  0.41043045689E+02  0.10000000000E+01 0.  0.
    9000005    1    3    3    0    0 -0.14114119856E+02 -0.87521681309E+02 -0.50431910296E+02  0.10199818947E+03  0.10000000000E+01 0.  0.
         -4    1    1    2    0  502 -0.71912508121E+01  0.52939525471E+02 -0.13381302677E+03  0.14408971677E+03  0.12700000000E+01 0.  1.
<mgrwt>
<rscale>  1 0.13590126E+03</rscale>
<asrwt>0</asrwt>
<pdfrwt beam="2">  1       21 0.35812075E-01 0.13590126E+03</pdfrwt>
<pdfrwt beam="1">  1       -4 0.83610425E-02 0.13590126E+03</pdfrwt>
<totfact> 0.31460936E+04</totfact>
</mgrwt>
</event>
<event>
 6    4  0.3189516E-003  0.1340335E+03  0.7818608E-02  0.1221590E+00
         21   -1    0    0  501  502  0.00000000000E+00  0.00000000000E+00  0.28612923703E+03  0.28612923703E+03  0.00000000000E+00 0. -1.
          4   -1    0    0  502    0 -0.00000000000E+00 -0.00000000000E+00 -0.54250127990E+02  0.54264991357E+02  0.12700000000E+01 0.  1.
         25    2    1    2    0    0 -0.45536386431E+02 -0.16328585152E+02  0.36222314047E+02  0.13884180466E+03  0.12499922202E+03 0.  0.
    9000005    1    3    3    0    0  0.41419429089E+02 -0.20794205492E+02  0.63802683922E+01  0.46793973040E+02  0.10000000000E+01 0.  0.
    9000005    1    3    3    0    0 -0.86955815520E+02  0.44656203398E+01  0.29842045655E+02  0.92047831623E+02  0.10000000000E+01 0.  0.
          4    1    1    2  501    0  0.45536386431E+02  0.16328585152E+02  0.19565679499E+03  0.20155242372E+03  0.12700000000E+01 0. -1.
<mgrwt>
<rscale>  1 0.13403354E+03</rscale>
<asrwt>0</asrwt>
<pdfrwt beam="1">  1       21 0.44019882E-01 0.13403354E+03</pdfrwt>
<pdfrwt beam="2">  1        4 0.83475339E-02 0.13403354E+03</pdfrwt>
<totfact> 0.20852931E+04</totfact>
</mgrwt>
</event>
<event>
 6    4  0.3189516E-003  0.1270083E+03  0.7818608E-02  0.1231964E+00
         -4   -1    0    0    0  501 -0.00000000000E+00  0.00000000000E+00  0.26142795277E+02  0.26173624986E+02  0.12700000000E+01 0.  1.
         21   -1    0    0  501  502  0.00000000000E+00 -0.00000000000E+00 -0.34909684557E+03  0.34909684557E+03  0.00000000000E+00 0.  1.
         25    2    1    2    0    0 -0.11388189685E+02 -0.19475280057E+02 -0.13272344416E+03  0.18370253532E+03  0.12498852531E+03 0.  0.
    9000005    1    3    3    0    0 -0.13701850630E+02  0.30402428049E+02  0.80610634318E+01  0.34322428317E+02  0.10000000000E+01 0.  0.
    9000005    1    3    3    0    0  0.23136609450E+01 -0.49877708106E+02 -0.14078450759E+03  0.14938010701E+03  0.10000000000E+01 0.  0.
         -4    1    1    2    0  502  0.11388189685E+02  0.19475280057E+02 -0.19023060613E+03  0.19156793523E+03  0.12700000000E+01 0. -1.
<mgrwt>
<rscale>  1 0.12700830E+03</rscale>
<asrwt>0</asrwt>
<pdfrwt beam="2">  1       21 0.53707207E-01 0.12700830E+03</pdfrwt>
<pdfrwt beam="1">  1       -4 0.40245177E-02 0.12700830E+03</pdfrwt>
<totfact> 0.44985011E+04</totfact>
</mgrwt>
</event>
<event>
 6    4  0.3189516E-003  0.1332674E+03  0.7818608E-02  0.1222686E+00
         -4   -1    0    0    0  501 -0.00000000000E+00  0.00000000000E+00  0.25605932337E+03  0.25606247281E+03  0.12700000000E+01 0.  1.
         21   -1    0    0  501  502  0.00000000000E+00 -0.00000000000E+00 -0.66189966639E+02  0.66189966639E+02  0.00000000000E+00 0. -1.
         25    2    1    2    0    0 -0.14482476349E+02  0.43908879316E+02  0.22680570646E+03  0.26306089753E+03  0.12498990167E+03 0.  0.
    9000005    1    3    3    0    0  0.63253656509E+01  0.30264983693E+00 -0.15084512003E+02  0.16390373696E+02  0.10000000000E+01 0.  0.
    9000005    1    3    3    0    0 -0.20807841999E+02  0.43606229480E+02  0.24189021846E+03  0.24667052383E+03  0.10000000000E+01 0.  0.
         -4    1    1    2    0  502  0.14482476349E+02 -0.43908879316E+02 -0.36936349733E+02  0.59191541926E+02  0.12700000000E+01 0. -1.
<mgrwt>
<rscale>  1 0.13326743E+03</rscale>
<asrwt>0</asrwt>
<pdfrwt beam="2">  1       21 0.10183072E-01 0.13326743E+03</pdfrwt>
<pdfrwt beam="1">  1       -4 0.39394921E-01 0.13326743E+03</pdfrwt>
<totfact> 0.20026996E+04</totfact>
</mgrwt>
</event>
<event>
 6    4  0.3189516E-003  0.1346788E+03  0.7818608E-02  0.1220674E+00
         -4   -1    0    0    0  501 -0.00000000000E+00  0.00000000000E+00  0.76386822034E+03  0.76386927609E+03  0.12700000000E+01 0. -1.
         21   -1    0    0  501  502  0.00000000000E+00 -0.00000000000E+00 -0.33244886795E+02  0.33244886795E+02  0.00000000000E+00 0.  1.
         25    2    1    2    0    0 -0.34637598122E+02  0.36250648764E+02  0.73456085858E+03  0.74680521991E+03  0.12499803515E+03 0.  0.
    9000005    1    3    3    0    0 -0.38451873115E+01 -0.37976419016E+02  0.97749124437E+02  0.10494229460E+03  0.10000000000E+01 0.  0.
    9000005    1    3    3    0    0 -0.30792410810E+02  0.74227067780E+02  0.63681173414E+03  0.64186292531E+03  0.10000000000E+01 0.  0.
         -4    1    1    2    0  502  0.34637598122E+02 -0.36250648764E+02 -0.39375250307E+01  0.50308942971E+02  0.12700000000E+01 0.  1.
<mgrwt>
<rscale>  1 0.13467881E+03</rscale>
<asrwt>0</asrwt>
<pdfrwt beam="2">  1       21 0.51145986E-02 0.13467881E+03</pdfrwt>
<pdfrwt beam="1">  1       -4 0.11752012E+00 0.13467881E+03</pdfrwt>
<totfact> 0.61950172E+03</totfact>
</mgrwt>
</event>
<event>
 6    4  0.3189516E-003  0.1266695E+03  0.7818608E-02  0.1232483E+00
         -4   -1    0    0    0  501 -0.00000000000E+00  0.00000000000E+00  0.10231909121E+03  0.10232697263E+03  0.12700000000E+01 0.  1.
         21   -1    0    0  501  502  0.00000000000E+00 -0.00000000000E+00 -0.55861244785E+02  0.55861244785E+02  0.00000000000E+00 0.  1.
         25    2    1    2    0    0  0.45056170079E+01 -0.20042378431E+02  0.51914868425E+02  0.13689527241E+03  0.12499265789E+03 0.  0.
    9000005    1    3    3    0    0 -0.73962780744E+01  0.52162921535E+02  0.14257634839E+02  0.54588968332E+02  0.10000000000E+01 0.  0.
    9000005    1    3    3    0    0  0.11901895082E+02 -0.72205299966E+02  0.37657233586E+02  0.82306304078E+02  0.10000000000E+01 0.  0.
         -4    1    1    2    0  502 -0.45056170079E+01  0.20042378431E+02 -0.54570219952E+01  0.21292945002E+02  0.12700000000E+01 0. -1.
<mgrwt>
<rscale>  1 0.12666950E+03</rscale>
<asrwt>0</asrwt>
<pdfrwt beam="2">  1       21 0.85940377E-02 0.12666950E+03</pdfrwt>
<pdfrwt beam="1">  1       -4 0.15743115E-01 0.12666950E+03</pdfrwt>
<totfact> 0.14565417E+05</totfact>
</mgrwt>
</event>
<event>
 6    4  0.3189516E-003  0.1334140E+03  0.7818608E-02  0.1222476E+00
         21   -1    0    0  501  502  0.00000000000E+00  0.00000000000E+00  0.61738158462E+03  0.61738158462E+03  0.00000000000E+00 0. -1.
          4   -1    0    0  502    0 -0.00000000000E+00 -0.00000000000E+00 -0.31222731008E+02  0.31248549272E+02  0.12700000000E+01 0.  1.
         25    2    1    2    0    0 -0.30256780588E+02 -0.35483637860E+02  0.11787241535E+03  0.17802588137E+03  0.12499898724E+03 0.  0.
    9000005    1    3    3    0    0 -0.30548063327E+02 -0.33075603828E+02 -0.13197865287E+02  0.46929344655E+02  0.10000000000E+01 0.  0.
    9000005    1    3    3    0    0  0.29128273934E+00 -0.24080340322E+01  0.13107028064E+03  0.13109653672E+03  0.10000000000E+01 0.  0.
          4    1    1    2  501    0  0.30256780588E+02  0.35483637860E+02  0.46828643826E+03  0.47060425252E+03  0.12700000000E+01 0. -1.
<mgrwt>
<rscale>  1 0.13341405E+03</rscale>
<asrwt>0</asrwt>
<pdfrwt beam="1">  1       21 0.94981773E-01 0.13341405E+03</pdfrwt>
<pdfrwt beam="2">  1        4 0.48055840E-02 0.13341405E+03</pdfrwt>
<totfact> 0.97544301E+03</totfact>
</mgrwt>
</event>
<event>
 6    4  0.3189516E-003  0.1294945E+03  0.7818608E-02  0.1228208E+00
         21   -1    0    0  501  502  0.00000000000E+00  0.00000000000E+00  0.67154715920E+02  0.67154715920E+02  0.00000000000E+00 0. -1.
         -4   -1    0    0    0  501 -0.00000000000E+00 -0.00000000000E+00 -0.30028578648E+03  0.30028847207E+03  0.12700000000E+01 0.  1.
         25    2    1    2    0    0  0.23225798930E+02 -0.24635104305E+02 -0.28064874151E+03  0.30908337260E+03  0.12498995562E+03 0.  0.
    9000005    1    3    3    0    0  0.32683447256E+02 -0.60322034154E+02 -0.81492437466E+02  0.10653155820E+03  0.10000000000E+01 0.  0.
    9000005    1    3    3    0    0 -0.94576483252E+01  0.35686929849E+02 -0.19915630404E+03  0.20255181439E+03  0.10000000000E+01 0.  0.
         -4    1    1    2    0  502 -0.23225798930E+02  0.24635104305E+02  0.47517670954E+02  0.58359815395E+02  0.12700000000E+01 0. -1.
<mgrwt>
<rscale>  1 0.12949446E+03</rscale>
<asrwt>0</asrwt>
<pdfrwt beam="1">  1       21 0.10331495E-01 0.12949446E+03</pdfrwt>
<pdfrwt beam="2">  1       -4 0.46198944E-01 0.12949446E+03</pdfrwt>
<totfact> 0.14187677E+04</totfact>
</mgrwt>
</event>
<event>
 6    4  0.3189516E-003  0.1296785E+03  0.7818608E-02  0.1227934E+00
          4   -1    0    0  502    0 -0.00000000000E+00  0.00000000000E+00  0.21347519872E+02  0.21385263727E+02  0.12700000000E+01 0.  1.
         21   -1    0    0  501  502  0.00000000000E+00 -0.00000000000E+00 -0.32301280643E+03  0.32301280643E+03  0.00000000000E+00 0.  1.
         25    2    1    2    0    0  0.34459257326E+02 -0.22952387847E+01 -0.21478378039E+03  0.25089556992E+03  0.12499522451E+03 0.  0.
    9000005    1    3    3    0    0 -0.43082047183E+02 -0.16948457243E+02 -0.11285071731E+03  0.12198195518E+03  0.10000000000E+01 0.  0.
    9000005    1    3    3    0    0  0.77541304509E+02  0.14653218458E+02 -0.10193306308E+03  0.12891361474E+03  0.10000000000E+01 0.  0.
          4    1    1    2  501    0 -0.34459257326E+02  0.22952387847E+01 -0.86881506171E+02  0.93502500240E+02  0.12700000000E+01 0. -1.
<mgrwt>
<rscale>  1 0.12967851E+03</rscale>
<asrwt>0</asrwt>
<pdfrwt beam="2">  1       21 0.49694276E-01 0.12967851E+03</pdfrwt>
<pdfrwt beam="1">  1        4 0.32873294E-02 0.12967851E+03</pdfrwt>
<totfact> 0.72902718E+04</totfact>
</mgrwt>
</event>
<event>
 6    4  0.3189516E-003  0.1269133E+03  0.7818608E-02  0.1232109E+00
         21   -1    0    0  501  502  0.00000000000E+00  0.00000000000E+00  0.81308013533E+02  0.81308013533E+02  0.00000000000E+00 0.  1.
         -4   -1    0    0    0  501 -0.00000000000E+00 -0.00000000000E+00 -0.69604004170E+02  0.69615589465E+02  0.12700000000E+01 0.  1.
         25    2    1    2    0    0 -0.13526504334E+02  0.17289721043E+02  0.21049032715E+01  0.12693076009E+03  0.12500034586E+03 0.  0.
    9000005    1    3    3    0    0 -0.78774295001E+01  0.70002610412E+02 -0.13339174234E+02  0.71703228165E+02  0.10000000000E+01 0.  0.
    9000005    1    3    3    0    0 -0.56490748338E+01 -0.52712889369E+02  0.15444077505E+02  0.55227531921E+02  0.10000000000E+01 0.  0.
         -4    1    1    2    0  502  0.13526504334E+02 -0.17289721043E+02  0.95991060907E+01  0.23992842912E+02  0.12700000000E+01 0. -1.
<mgrwt>
<rscale>  1 0.12691331E+03</rscale>
<asrwt>0</asrwt>
<pdfrwt beam="1">  1       21 0.12508925E-01 0.12691331E+03</pdfrwt>
<pdfrwt beam="2">  1       -4 0.10709962E-01 0.12691331E+03</pdfrwt>
<totfact> 0.14639476E+05</totfact>
</mgrwt>
</event>
<event>
 6    4  0.3189516E-003  0.1267723E+03  0.7818608E-02  0.1232325E+00
          4   -1    0    0  502    0 -0.00000000000E+00  0.00000000000E+00  0.32409352744E+03  0.32409601576E+03  0.12700000000E+01 0. -1.
         21   -1    0    0  501  502  0.00000000000E+00 -0.00000000000E+00 -0.24286378977E+02  0.24286378977E+02  0.00000000000E+00 0. -1.
         25    2    1    2    0    0 -0.23214076103E+01 -0.20981387488E+02  0.30159878811E+03  0.32715904847E+03  0.12500242578E+03 0.  0.
    9000005    1    3    3    0    0  0.46155947929E+02 -0.59626554422E+00  0.42427562693E+02  0.62704267302E+02  0.10000000000E+01 0.  0.
    9000005    1    3    3    0    0 -0.48477355540E+02 -0.20385121944E+02  0.25917122542E+03  0.26445478116E+03  0.10000000000E+01 0.  0.
          4    1    1    2  501    0  0.23214076103E+01  0.20981387488E+02 -0.17916396443E+01  0.21223346269E+02  0.12700000000E+01 0.  1.
<mgrwt>
<rscale>  1 0.12677229E+03</rscale>
<asrwt>0</asrwt>
<pdfrwt beam="2">  1       21 0.37363662E-02 0.12677229E+03</pdfrwt>
<pdfrwt beam="1">  1        4 0.49863285E-01 0.12677229E+03</pdfrwt>
<totfact> 0.68382842E+04</totfact>
</mgrwt>
</event>
<event>
 6    4  0.3189516E-003  0.1290267E+03  0.7818608E-02  0.1228907E+00
         21   -1    0    0  501  502  0.00000000000E+00  0.00000000000E+00  0.51084662142E+02  0.51084662142E+02  0.00000000000E+00 0.  1.
          4   -1    0    0  502    0 -0.00000000000E+00 -0.00000000000E+00 -0.12889243881E+03  0.12889869542E+03  0.12700000000E+01 0.  1.
         25    2    1    2    0    0 -0.14815073646E+02  0.28222699660E+02 -0.71334646866E+02  0.14743306582E+03  0.12502747646E+03 0.  0.
    9000005    1    3    3    0    0 -0.81430747624E+01 -0.39193190001E+02 -0.68834670175E+02  0.79634336986E+02  0.10000000000E+01 0.  0.
    9000005    1    3    3    0    0 -0.66719988834E+01  0.67415889661E+02 -0.24999766908E+01  0.67798728833E+02  0.10000000000E+01 0.  0.
          4    1    1    2  501    0  0.14815073646E+02 -0.28222699660E+02 -0.64731297979E+01  0.32550291744E+02  0.12700000000E+01 0. -1.
<mgrwt>
<rscale>  1 0.12902665E+03</rscale>
<asrwt>0</asrwt>
<pdfrwt beam="1">  1       21 0.78591787E-02 0.12902665E+03</pdfrwt>
<pdfrwt beam="2">  1        4 0.19831302E-01 0.12902665E+03</pdfrwt>
<totfact> 0.11318634E+05</totfact>
</mgrwt>
</event>
<event>
 6    4  0.3189516E-003  0.3384919E+03  0.7818608E-02  0.1067440E+00
         -4   -1    0    0    0  501 -0.00000000000E+00  0.00000000000E+00  0.18467118290E+03  0.18467554980E+03  0.12700000000E+01 0. -1.
         21   -1    0    0  501  502  0.00000000000E+00 -0.00000000000E+00 -0.12353344927E+04  0.12353344927E+04  0.00000000000E+00 0.  1.
         25    2    1    2    0    0 -0.30935922453E+03 -0.56993998593E+02 -0.16313874056E+02  0.33888478897E+03  0.12500124812E+03 0.  0.
    9000005    1    3    3    0    0 -0.88536521532E+02  0.35233943476E+02 -0.27895094300E+02  0.99293920780E+02  0.10000000000E+01 0.  0.
    9000005    1    3    3    0    0 -0.22082270300E+03 -0.92227942069E+02  0.11581220244E+02  0.23959086819E+03  0.10000000000E+01 0.  0.
         -4    1    1    2    0  502  0.30935922453E+03  0.56993998593E+02 -0.10343494358E+04  0.10811252535E+04  0.12700000000E+01 0.  1.
<mgrwt>
<rscale>  1 0.33849189E+03</rscale>
<asrwt>0</asrwt>
<pdfrwt beam="2">  1       21 0.19005146E+00 0.33849189E+03</pdfrwt>
<pdfrwt beam="1">  1       -4 0.28411337E-01 0.33849189E+03</pdfrwt>
<totfact> 0.73207059E+01</totfact>
</mgrwt>
</event>
<event>
 6    4  0.3189516E-003  0.1278675E+03  0.7818608E-02  0.1230655E+00
         -4   -1    0    0    0  501 -0.00000000000E+00  0.00000000000E+00  0.24080242779E+02  0.24113709634E+02  0.12700000000E+01 0.  1.
         21   -1    0    0  501  502  0.00000000000E+00 -0.00000000000E+00 -0.13408233370E+04  0.13408233370E+04  0.00000000000E+00 0. -1.
         25    2    1    2    0    0  0.19350061745E+02 -0.18740406816E+02 -0.14678734962E+03  0.19467054495E+03  0.12499786928E+03 0.  0.
    9000005    1    3    3    0    0 -0.81404310984E+01 -0.51609964639E+01 -0.16069538787E+03  0.16098729822E+03  0.10000000000E+01 0.  0.
    9000005    1    3    3    0    0  0.27490492843E+02 -0.13579410352E+02  0.13908038256E+02  0.33683246732E+02  0.10000000000E+01 0.  0.
         -4    1    1    2    0  502 -0.19350061745E+02  0.18740406816E+02 -0.11699557446E+04  0.11702665017E+04  0.12700000000E+01 0. -1.
<mgrwt>
<rscale>  1 0.12786749E+03</rscale>
<asrwt>0</asrwt>
<pdfrwt beam="2">  1       21 0.20628051E+00 0.12786749E+03</pdfrwt>
<pdfrwt beam="1">  1       -4 0.37072734E-02 0.12786749E+03</pdfrwt>
<totfact> 0.20080417E+03</totfact>
</mgrwt>
</event>
<event>
 6    4  0.3189516E-003  0.1334461E+03  0.7818608E-02  0.1222430E+00
         21   -1    0    0  501  502  0.00000000000E+00  0.00000000000E+00  0.67248230631E+03  0.67248230631E+03  0.00000000000E+00 0.  1.
          4   -1    0    0  502    0 -0.00000000000E+00 -0.00000000000E+00 -0.12030389288E+02  0.12097237967E+02  0.12700000000E+01 0.  1.
         25    2    1    2    0    0 -0.41269024883E+01  0.46410803697E+02  0.47993966323E+03  0.49814649814E+03  0.12504742797E+03 0.  0.
    9000005    1    3    3    0    0 -0.27803288998E+02 -0.36267435252E+02  0.20654539053E+03  0.21154278075E+03  0.10000000000E+01 0.  0.
    9000005    1    3    3    0    0  0.23676386510E+02  0.82678238949E+02  0.27339427270E+03  0.28660371739E+03  0.10000000000E+01 0.  0.
          4    1    1    2  501    0  0.41269024883E+01 -0.46410803697E+02  0.18051225380E+03  0.18643304615E+03  0.12700000000E+01 0. -1.
<mgrwt>
<rscale>  1 0.13344607E+03</rscale>
<asrwt>0</asrwt>
<pdfrwt beam="1">  1       21 0.10345879E+00 0.13344607E+03</pdfrwt>
<pdfrwt beam="2">  1        4 0.18560641E-02 0.13344607E+03</pdfrwt>
<totfact> 0.35457284E+04</totfact>
</mgrwt>
</event>
<event>
 6    4  0.3189516E-003  0.1306118E+03  0.7818608E-02  0.1226551E+00
          4   -1    0    0  502    0 -0.00000000000E+00  0.00000000000E+00  0.10622841997E+03  0.10623601136E+03  0.12700000000E+01 0.  1.
         21   -1    0    0  501  502  0.00000000000E+00 -0.00000000000E+00 -0.80474393797E+02  0.80474393797E+02  0.00000000000E+00 0. -1.
         25    2    1    2    0    0  0.34603337526E+02 -0.15396856662E+02  0.52033072659E+02  0.14059473160E+03  0.12499993497E+03 0.  0.
    9000005    1    3    3    0    0  0.81785740385E+02 -0.31355755792E+01  0.32549732228E+02  0.88086458849E+02  0.10000000000E+01 0.  0.
    9000005    1    3    3    0    0 -0.47182402859E+02 -0.12261281083E+02  0.19483340431E+02  0.52508272755E+02  0.10000000000E+01 0.  0.
          4    1    1    2  501    0 -0.34603337526E+02  0.15396856662E+02 -0.26279046485E+02  0.46115673552E+02  0.12700000000E+01 0. -1.
<mgrwt>
<rscale>  1 0.13061178E+03</rscale>
<asrwt>0</asrwt>
<pdfrwt beam="2">  1       21 0.12380676E-01 0.13061178E+03</pdfrwt>
<pdfrwt beam="1">  1        4 0.16344189E-01 0.13061178E+03</pdfrwt>
<totfact> 0.72229844E+04</totfact>
</mgrwt>
</event>
<event>
 6    4  0.3189516E-003  0.1603383E+03  0.7818608E-02  0.1188315E+00
         -4   -1    0    0    0  501 -0.00000000000E+00  0.00000000000E+00  0.15749847074E+03  0.15750359102E+03  0.12700000000E+01 0.  1.
         21   -1    0    0  501  502  0.00000000000E+00 -0.00000000000E+00 -0.13279135042E+03  0.13279135042E+03  0.00000000000E+00 0. -1.
         25    2    1    2    0    0 -0.79536936457E+02  0.61287701345E+02  0.76109006243E+02  0.17748504217E+03  0.12500421100E+03 0.  0.
    9000005    1    3    3    0    0 -0.21451467259E+02 -0.11842112809E+02  0.80333342155E+02  0.83993136298E+02  0.10000000000E+01 0.  0.
    9000005    1    3    3    0    0 -0.58085469198E+02  0.73129814154E+02 -0.42243359127E+01  0.93491905875E+02  0.10000000000E+01 0.  0.
         -4    1    1    2    0  502  0.79536936457E+02 -0.61287701345E+02 -0.51401885924E+02  0.11280989927E+03  0.12700000000E+01 0. -1.
<mgrwt>
<rscale>  1 0.16033827E+03</rscale>
<asrwt>0</asrwt>
<pdfrwt beam="2">  1       21 0.20429439E-01 0.16033827E+03</pdfrwt>
<pdfrwt beam="1">  1       -4 0.24231395E-01 0.16033827E+03</pdfrwt>
<totfact> 0.14615600E+04</totfact>
</mgrwt>
</event>
<event>
 6    4  0.3189516E-003  0.1276564E+03  0.7818608E-02  0.1230975E+00
          4   -1    0    0  502    0 -0.00000000000E+00  0.00000000000E+00  0.28067641736E+01  0.30807182809E+01  0.12700000000E+01 0.  1.
         21   -1    0    0  501  502  0.00000000000E+00 -0.00000000000E+00 -0.23387260692E+04  0.23387260692E+04  0.00000000000E+00 0. -1.
         25    2    1    2    0    0  0.15435014749E+02 -0.20763829530E+02 -0.14798927989E+04  0.14853884502E+04  0.12500710191E+03 0.  0.
    9000005    1    3    3    0    0 -0.28018015704E+02  0.22675146993E+02 -0.10972915397E+04  0.10978838256E+04  0.10000000000E+01 0.  0.
    9000005    1    3    3    0    0  0.43453030453E+02 -0.43438976523E+02 -0.38260125921E+03  0.38750462460E+03  0.10000000000E+01 0.  0.
          4    1    1    2  501    0 -0.15435014749E+02  0.20763829530E+02 -0.85602650619E+03  0.85641833732E+03  0.12700000000E+01 0. -1.
<mgrwt>
<rscale>  1 0.12765638E+03</rscale>
<asrwt>0</asrwt>
<pdfrwt beam="2">  1       21 0.35980370E+00 0.12765638E+03</pdfrwt>
<pdfrwt beam="1">  1        4 0.45291018E-03 0.12765638E+03</pdfrwt>
<totfact> 0.64309455E+03</totfact>
</mgrwt>
</event>
<event>
 6    4  0.3189516E-003  0.1277792E+03  0.7818608E-02  0.1230789E+00
         -4   -1    0    0    0  501 -0.00000000000E+00  0.00000000000E+00  0.12809574073E+02  0.12872376934E+02  0.12700000000E+01 0. -1.
         21   -1    0    0  501  502  0.00000000000E+00 -0.00000000000E+00 -0.46360240761E+03  0.46360240761E+03  0.00000000000E+00 0. -1.
         25    2    1    2    0    0  0.26413773478E+02  0.22184463637E+01 -0.37245626236E+03  0.39376541254E+03  0.12499969523E+03 0.  0.
    9000005    1    3    3    0    0  0.50542735305E+01 -0.36437798779E+02 -0.33146267715E+03  0.33349927317E+03  0.10000000000E+01 0.  0.
    9000005    1    3    3    0    0  0.21359499948E+02  0.38656245143E+02 -0.40993585217E+02  0.60266139378E+02  0.10000000000E+01 0.  0.
         -4    1    1    2    0  502 -0.26413773478E+02 -0.22184463637E+01 -0.78336571171E+02  0.82709371999E+02  0.12700000000E+01 0.  1.
<mgrwt>
<rscale>  1 0.12777923E+03</rscale>
<asrwt>0</asrwt>
<pdfrwt beam="2">  1       21 0.71323458E-01 0.12777923E+03</pdfrwt>
<pdfrwt beam="1">  1       -4 0.19756682E-02 0.12777923E+03</pdfrwt>
<totfact> 0.74589618E+04</totfact>
</mgrwt>
</event>
<event>
 6    4  0.3189516E-003  0.1375201E+03  0.7818608E-02  0.1216705E+00
          4   -1    0    0  502    0 -0.00000000000E+00  0.00000000000E+00  0.17276193539E+03  0.17276660331E+03  0.12700000000E+01 0.  1.
         21   -1    0    0  501  502  0.00000000000E+00 -0.00000000000E+00 -0.10438551823E+03  0.10438551823E+03  0.00000000000E+00 0. -1.
         25    2    1    2    0    0 -0.50695251277E+02 -0.26774274857E+02  0.13261182503E+03  0.19104363868E+03  0.12499962178E+03 0.  0.
    9000005    1    3    3    0    0 -0.61066776857E+02 -0.70091145166E+02  0.89448142399E+02  0.12901120124E+03  0.10000000000E+01 0.  0.
    9000005    1    3    3    0    0  0.10371525580E+02  0.43316870309E+02  0.43163682631E+02  0.62032437438E+02  0.10000000000E+01 0.  0.
          4    1    1    2  501    0  0.50695251277E+02  0.26774274857E+02 -0.64235407874E+02  0.86108482862E+02  0.12700000000E+01 0. -1.
<mgrwt>
<rscale>  1 0.13752009E+03</rscale>
<asrwt>0</asrwt>
<pdfrwt beam="2">  1       21 0.16059311E-01 0.13752009E+03</pdfrwt>
<pdfrwt beam="1">  1        4 0.26579713E-01 0.13752009E+03</pdfrwt>
<totfact> 0.18904379E+04</totfact>
</mgrwt>
</event>
<event>
 6    4  0.3189516E-003  0.1277653E+03  0.7818608E-02  0.1230810E+00
         -4   -1    0    0    0  501 -0.00000000000E+00  0.00000000000E+00  0.25230754668E+02  0.25262697424E+02  0.12700000000E+01 0. -1.
         21   -1    0    0  501  502  0.00000000000E+00 -0.00000000000E+00 -0.23730858538E+03  0.23730858538E+03  0.00000000000E+00 0. -1.
         25    2    1    2    0    0  0.23207997707E+02 -0.12603061461E+02 -0.16639118099E+03  0.20978557282E+03  0.12500605240E+03 0.  0.
    9000005    1    3    3    0    0 -0.41129160760E+02 -0.34893600332E+01 -0.12757159634E+03  0.13408689604E+03  0.10000000000E+01 0.  0.
    9000005    1    3    3    0    0  0.64337158467E+02 -0.91137014275E+01 -0.38819584656E+02  0.75698676780E+02  0.10000000000E+01 0.  0.
         -4    1    1    2    0  502 -0.23207997707E+02  0.12603061461E+02 -0.45686649716E+02  0.52785709979E+02  0.12700000000E+01 0.  1.
<mgrwt>
<rscale>  1 0.12776526E+03</rscale>
<asrwt>0</asrwt>
<pdfrwt beam="2">  1       21 0.36509012E-01 0.12776526E+03</pdfrwt>
<pdfrwt beam="1">  1       -4 0.38843732E-02 0.12776526E+03</pdfrwt>
<totfact> 0.10414714E+05</totfact>
</mgrwt>
</event>
<event>
 6    4  0.3189516E-003  0.1270994E+03  0.7818608E-02  0.1231824E+00
          4   -1    0    0  502    0 -0.00000000000E+00  0.00000000000E+00  0.12082365357E+03  0.12083032799E+03  0.12700000000E+01 0.  1.
         21   -1    0    0  501  502  0.00000000000E+00 -0.00000000000E+00 -0.50228271346E+02  0.50228271346E+02  0.00000000000E+00 0. -1.
         25    2    1    2    0    0  0.22444575882E+02 -0.50186813975E+01  0.75042252285E+02  0.14759940705E+03  0.12500119673E+03 0.  0.
    9000005    1    3    3    0    0  0.69179051116E+02  0.63499873436E+01  0.70974600426E+02  0.99319974618E+02  0.10000000000E+01 0.  0.
    9000005    1    3    3    0    0 -0.46734475234E+02 -0.11368668741E+02  0.40676518585E+01  0.48279432432E+02  0.10000000000E+01 0.  0.
          4    1    1    2  501    0 -0.22444575882E+02  0.50186813975E+01 -0.44468700572E+01  0.23459192288E+02  0.12700000000E+01 0. -1.
<mgrwt>
<rscale>  1 0.12709935E+03</rscale>
<asrwt>0</asrwt>
<pdfrwt beam="2">  1       21 0.77274264E-02 0.12709935E+03</pdfrwt>
<pdfrwt beam="1">  1        4 0.18590003E-01 0.12709935E+03</pdfrwt>
<totfact> 0.13051771E+05</totfact>
</mgrwt>
</event>
<event>
 6    4  0.3189516E-003  0.1389683E+03  0.7818608E-02  0.1214724E+00
         -4   -1    0    0    0  501 -0.00000000000E+00  0.00000000000E+00  0.42153177605E+03  0.42153368919E+03  0.12700000000E+01 0.  1.
         21   -1    0    0  501  502  0.00000000000E+00 -0.00000000000E+00 -0.42070644322E+02  0.42070644322E+02  0.00000000000E+00 0. -1.
         25    2    1    2    0    0  0.36684246267E+02 -0.48379770318E+02  0.37813368561E+03  0.40286134121E+03  0.12500335976E+03 0.  0.
    9000005    1    3    3    0    0  0.70705507447E+02 -0.33193966700E+02  0.34250841973E+03  0.35130346681E+03  0.10000000000E+01 0.  0.
    9000005    1    3    3    0    0 -0.34021261180E+02 -0.15185803619E+02  0.35625265883E+02  0.51557874404E+02  0.10000000000E+01 0.  0.
         -4    1    1    2    0  502 -0.36684246267E+02  0.48379770318E+02  0.13274461220E+01  0.60742992299E+02  0.12700000000E+01 0. -1.
<mgrwt>
<rscale>  1 0.13896826E+03</rscale>
<asrwt>0</asrwt>
<pdfrwt beam="2">  1       21 0.64724071E-02 0.13896826E+03</pdfrwt>
<pdfrwt beam="1">  1       -4 0.64852661E-01 0.13896826E+03</pdfrwt>
<totfact> 0.15901633E+04</totfact>
</mgrwt>
</event>
<event>
 6    4  0.3189516E-003  0.1277404E+03  0.7818608E-02  0.1230848E+00
          4   -1    0    0  502    0 -0.00000000000E+00  0.00000000000E+00  0.26149566827E+03  0.26149875224E+03  0.12700000000E+01 0.  1.
         21   -1    0    0  501  502  0.00000000000E+00 -0.00000000000E+00 -0.13291991465E+03  0.13291991465E+03  0.00000000000E+00 0. -1.
         25    2    1    2    0    0 -0.17455062746E+01  0.26259629476E+02  0.24432776486E+03  0.27570575295E+03  0.12499996238E+03 0.  0.
    9000005    1    3    3    0    0  0.13059569771E+01  0.11798568663E+02  0.25635071692E+03  0.25662735983E+03  0.10000000000E+01 0.  0.
    9000005    1    3    3    0    0 -0.30514632517E+01  0.14461060813E+02 -0.12022952063E+02  0.19078393122E+02  0.10000000000E+01 0.  0.
          4    1    1    2  501    0  0.17455062746E+01 -0.26259629476E+02 -0.11575201123E+03  0.11871291394E+03  0.12700000000E+01 0. -1.
<mgrwt>
<rscale>  1 0.12774038E+03</rscale>
<asrwt>0</asrwt>
<pdfrwt beam="2">  1       21 0.20449218E-01 0.12774038E+03</pdfrwt>
<pdfrwt beam="1">  1        4 0.40230807E-01 0.12774038E+03</pdfrwt>
<totfact> 0.54607755E+03</totfact>
</mgrwt>
</event>
<event>
 6    4  0.3189516E-003  0.1272151E+03  0.7818608E-02  0.1231648E+00
         -4   -1    0    0    0  501 -0.00000000000E+00  0.00000000000E+00  0.33992935100E+02  0.34016650874E+02  0.12700000000E+01 0.  1.
         21   -1    0    0  501  502  0.00000000000E+00 -0.00000000000E+00 -0.16929410237E+03  0.16929410237E+03  0.00000000000E+00 0.  1.
         25    2    1    2    0    0  0.11098885104E+02  0.20860145346E+02 -0.12151324943E+03  0.17592370352E+03  0.12500139502E+03 0.  0.
    9000005    1    3    3    0    0  0.33058776054E+02  0.35176452210E+02 -0.13713815131E+03  0.14538960764E+03  0.10000000000E+01 0.  0.
    9000005    1    3    3    0    0 -0.21959890951E+02 -0.14316306863E+02  0.15624901873E+02  0.30534095882E+02  0.10000000000E+01 0.  0.
         -4    1    1    2    0  502 -0.11098885104E+02 -0.20860145346E+02 -0.13787917832E+02  0.27387049723E+02  0.12700000000E+01 0. -1.
<mgrwt>
<rscale>  1 0.12721509E+03</rscale>
<asrwt>0</asrwt>
<pdfrwt beam="2">  1       21 0.26045247E-01 0.12721509E+03</pdfrwt>
<pdfrwt beam="1">  1       -4 0.52318730E-02 0.12721509E+03</pdfrwt>
<totfact> 0.12436369E+05</totfact>
</mgrwt>
</event>
<event>
 6    4  0.3189516E-003  0.1287712E+03  0.7818608E-02  0.1229291E+00
          4   -1    0    0  502    0 -0.00000000000E+00  0.00000000000E+00  0.33821702346E+03  0.33821940787E+03  0.12700000000E+01 0. -1.
         21   -1    0    0  501  502  0.00000000000E+00 -0.00000000000E+00 -0.26415533369E+02  0.26415533369E+02  0.00000000000E+00 0.  1.
         25    2    1    2    0    0  0.30607883378E+02  0.46416278114E+01  0.30747431735E+03  0.33335036744E+03  0.12499449753E+03 0.  0.
    9000005    1    3    3    0    0  0.64485493856E+02  0.41742513130E+02  0.15865486361E+03  0.17627586921E+03  0.10000000000E+01 0.  0.
    9000005    1    3    3    0    0 -0.33877610479E+02 -0.37100885319E+02  0.14881945374E+03  0.15707449823E+03  0.10000000000E+01 0.  0.
          4    1    1    2  501    0 -0.30607883378E+02 -0.46416278114E+01  0.43271727469E+01  0.31284573796E+02  0.12700000000E+01 0.  1.
<mgrwt>
<rscale>  1 0.12877116E+03</rscale>
<asrwt>0</asrwt>
<pdfrwt beam="2">  1       21 0.40639285E-02 0.12877116E+03</pdfrwt>
<pdfrwt beam="1">  1        4 0.52035917E-01 0.12877116E+03</pdfrwt>
<totfact> 0.54646027E+04</totfact>
</mgrwt>
</event>
<event>
 6    4  0.3189516E-003  0.1295429E+03  0.7818608E-02  0.1228136E+00
         -4   -1    0    0    0  501 -0.00000000000E+00  0.00000000000E+00  0.17206587102E+02  0.17253392121E+02  0.12700000000E+01 0. -1.
         21   -1    0    0  501  502  0.00000000000E+00 -0.00000000000E+00 -0.40273911016E+03  0.40273911016E+03  0.00000000000E+00 0. -1.
         25    2    1    2    0    0 -0.25772800656E+02  0.22183350356E+02 -0.33396420610E+03  0.35820866539E+03  0.12500007488E+03 0.  0.
    9000005    1    3    3    0    0  0.16109308675E+02  0.30654901981E+02 -0.30409996223E+03  0.30606701860E+03  0.10000000000E+01 0.  0.
    9000005    1    3    3    0    0 -0.41882109332E+02 -0.84715516257E+01 -0.29864243868E+02  0.52141646798E+02  0.10000000000E+01 0.  0.
         -4    1    1    2    0  502  0.25772800656E+02 -0.22183350356E+02 -0.51568316952E+02  0.61783836883E+02  0.12700000000E+01 0.  1.
<mgrwt>
<rscale>  1 0.12954288E+03</rscale>
<asrwt>0</asrwt>
<pdfrwt beam="2">  1       21 0.61959867E-01 0.12954288E+03</pdfrwt>
<pdfrwt beam="1">  1       -4 0.26509215E-02 0.12954288E+03</pdfrwt>
<totfact> 0.64254759E+04</totfact>
</mgrwt>
</event>
<event>
 6    4  0.3189516E-003  0.1280270E+03  0.7818608E-02  0.1230413E+00
          4   -1    0    0  502    0 -0.00000000000E+00  0.00000000000E+00  0.59486316229E+02  0.59499871584E+02  0.12700000000E+01 0. -1.
         21   -1    0    0  501  502  0.00000000000E+00 -0.00000000000E+00 -0.14229498486E+03  0.14229498486E+03  0.00000000000E+00 0. -1.
         25    2    1    2    0    0 -0.31021332116E+00 -0.27593232777E+02 -0.15405351336E+02  0.12895048254E+03  0.12501767623E+03 0.  0.
    9000005    1    3    3    0    0  0.57736008972E+02 -0.54537079203E+01 -0.29745178129E+02  0.65184087660E+02  0.10000000000E+01 0.  0.
    9000005    1    3    3    0    0 -0.58046222293E+02 -0.22139524857E+02  0.14339826793E+02  0.63766394879E+02  0.10000000000E+01 0.  0.
          4    1    1    2  501    0  0.31021332116E+00  0.27593232777E+02 -0.67403317295E+02  0.72844373906E+02  0.12700000000E+01 0.  1.
<mgrwt>
<rscale>  1 0.12802696E+03</rscale>
<asrwt>0</asrwt>
<pdfrwt beam="2">  1       21 0.21891536E-01 0.12802696E+03</pdfrwt>
<pdfrwt beam="1">  1        4 0.91532196E-02 0.12802696E+03</pdfrwt>
<totfact> 0.68999635E+04</totfact>
</mgrwt>
</event>
<event>
 6    4  0.3189516E-003  0.1285753E+03  0.7818608E-02  0.1229585E+00
         -4   -1    0    0    0  501 -0.00000000000E+00  0.00000000000E+00  0.75321341171E+02  0.75332047203E+02  0.12700000000E+01 0.  1.
         21   -1    0    0  501  502  0.00000000000E+00 -0.00000000000E+00 -0.30550381453E+03  0.30550381453E+03  0.00000000000E+00 0. -1.
         25    2    1    2    0    0 -0.26898581077E+02  0.13516031579E+02  0.18883042956E+02  0.12995449317E+03  0.12500153683E+03 0.  0.
    9000005    1    3    3    0    0 -0.25055151809E+02  0.68556800930E+02  0.16398245112E+02  0.74817765462E+02  0.10000000000E+01 0.  0.
    9000005    1    3    3    0    0 -0.18434292673E+01 -0.55040769351E+02  0.24847978447E+01  0.55136727710E+02  0.10000000000E+01 0.  0.
         -4    1    1    2    0  502  0.26898581077E+02 -0.13516031579E+02 -0.24906551631E+03  0.25088136856E+03  0.12700000000E+01 0. -1.
<mgrwt>
<rscale>  1 0.12857527E+03</rscale>
<asrwt>0</asrwt>
<pdfrwt beam="2">  1       21 0.47000586E-01 0.12857527E+03</pdfrwt>
<pdfrwt beam="1">  1       -4 0.11588925E-01 0.12857527E+03</pdfrwt>
<totfact> 0.10473010E+04</totfact>
</mgrwt>
</event>
<event>
 6    4  0.3189516E-003  0.1295297E+03  0.7818608E-02  0.1228155E+00
         21   -1    0    0  501  502  0.00000000000E+00  0.00000000000E+00  0.83252767852E+01  0.83252767852E+01  0.00000000000E+00 0.  1.
          4   -1    0    0  502    0 -0.00000000000E+00 -0.00000000000E+00 -0.80320089447E+03  0.80320189851E+03  0.12700000000E+01 0.  1.
         25    2    1    2    0    0  0.28576495607E+02  0.18355122657E+02 -0.63632914697E+03  0.64937871584E+03  0.12499762667E+03 0.  0.
    9000005    1    3    3    0    0  0.32412221712E+02  0.70179596728E+02 -0.36071808436E+03  0.36890956114E+03  0.10000000000E+01 0.  0.
    9000005    1    3    3    0    0 -0.38357261052E+01 -0.51824474071E+02 -0.27561106261E+03  0.28046915471E+03  0.10000000000E+01 0.  0.
          4    1    1    2  501    0 -0.28576495607E+02 -0.18355122657E+02 -0.15854647071E+03  0.16214845945E+03  0.12700000000E+01 0. -1.
<mgrwt>
<rscale>  1 0.12952966E+03</rscale>
<asrwt>0</asrwt>
<pdfrwt beam="1">  1       21 0.12808111E-02 0.12952966E+03</pdfrwt>
<pdfrwt beam="2">  1        4 0.12357697E+00 0.12952966E+03</pdfrwt>
<totfact> 0.52367956E+04</totfact>
</mgrwt>
</event>
<event>
 6    4  0.3189516E-003  0.1285623E+03  0.7818608E-02  0.1229605E+00
          4   -1    0    0  502    0 -0.00000000000E+00  0.00000000000E+00  0.50554112411E+03  0.50554271932E+03  0.12700000000E+01 0.  1.
         21   -1    0    0  501  502  0.00000000000E+00 -0.00000000000E+00 -0.13605895915E+02  0.13605895915E+02  0.00000000000E+00 0.  1.
         25    2    1    2    0    0 -0.91852224243E+01 -0.28610967784E+02  0.44666097538E+03  0.46479489728E+03  0.12500125528E+03 0.  0.
    9000005    1    3    3    0    0  0.45633300159E+02  0.24858671020E+02  0.18238757076E+03  0.18964856334E+03  0.10000000000E+01 0.  0.
    9000005    1    3    3    0    0 -0.54818522584E+02 -0.53469638804E+02  0.26427340461E+03  0.27514633394E+03  0.10000000000E+01 0.  0.
          4    1    1    2  501    0  0.91852224243E+01  0.28610967784E+02  0.45274252814E+02  0.54353717963E+02  0.12700000000E+01 0. -1.
<mgrwt>
<rscale>  1 0.12856232E+03</rscale>
<asrwt>0</asrwt>
<pdfrwt beam="2">  1       21 0.20932151E-02 0.12856232E+03</pdfrwt>
<pdfrwt beam="1">  1        4 0.77780225E-01 0.12856232E+03</pdfrwt>
<totfact> 0.69094360E+04</totfact>
</mgrwt>
</event>
<event>
 6    4  0.3189516E-003  0.1380328E+03  0.7818608E-02  0.1216001E+00
         21   -1    0    0  501  502  0.00000000000E+00  0.00000000000E+00  0.49885176326E+02  0.49885176326E+02  0.00000000000E+00 0. -1.
          4   -1    0    0  502    0 -0.00000000000E+00 -0.00000000000E+00 -0.20540782680E+03  0.20541175285E+03  0.12700000000E+01 0. -1.
         25    2    1    2    0    0 -0.39044645616E+02  0.43636976826E+02 -0.79365186192E+02  0.15922277884E+03  0.12499756167E+03 0.  0.
    9000005    1    3    3    0    0  0.30888209456E+02  0.31532564584E+02  0.98291043065E+01  0.45232680709E+02  0.10000000000E+01 0.  0.
    9000005    1    3    3    0    0 -0.69932855072E+02  0.12104412242E+02 -0.89194290498E+02  0.11399009813E+03  0.10000000000E+01 0.  0.
          4    1    1    2  501    0  0.39044645616E+02 -0.43636976826E+02 -0.76157464282E+02  0.96074150340E+02  0.12700000000E+01 0.  1.
<mgrwt>
<rscale>  1 0.13803282E+03</rscale>
<asrwt>0</asrwt>
<pdfrwt beam="1">  1       21 0.76746427E-02 0.13803282E+03</pdfrwt>
<pdfrwt beam="2">  1        4 0.31602749E-01 0.13803282E+03</pdfrwt>
<totfact> 0.50310556E+04</totfact>
</mgrwt>
</event>
<event>
 6    4  0.3189516E-003  0.1296868E+03  0.7818608E-02  0.1227921E+00
         -4   -1    0    0    0  501 -0.00000000000E+00  0.00000000000E+00  0.15078256047E+02  0.15131645826E+02  0.12700000000E+01 0.  1.
         21   -1    0    0  501  502  0.00000000000E+00 -0.00000000000E+00 -0.45411376814E+03  0.45411376814E+03  0.00000000000E+00 0.  1.
         25    2    1    2    0    0  0.34547387669E+02 -0.81973150106E+00 -0.31975779226E+03  0.34505611772E+03  0.12499793881E+03 0.  0.
    9000005    1    3    3    0    0 -0.18143729249E+02 -0.31970276337E+02 -0.26123201150E+02  0.45107816600E+02  0.10000000000E+01 0.  0.
    9000005    1    3    3    0    0  0.52691116917E+02  0.31150544836E+02 -0.29363459111E+03  0.29994830112E+03  0.10000000000E+01 0.  0.
         -4    1    1    2    0  502 -0.34547387669E+02  0.81973150106E+00 -0.11927771983E+03  0.12418929625E+03  0.12700000000E+01 0. -1.
<mgrwt>
<rscale>  1 0.12968685E+03</rscale>
<asrwt>0</asrwt>
<pdfrwt beam="2">  1       21 0.69863657E-01 0.12968685E+03</pdfrwt>
<pdfrwt beam="1">  1       -4 0.23239752E-02 0.12968685E+03</pdfrwt>
<totfact> 0.60841607E+04</totfact>
</mgrwt>
</event>
<event>
 6    4  0.3189516E-003  0.1277138E+03  0.7818608E-02  0.1230888E+00
         21   -1    0    0  501  502  0.00000000000E+00  0.00000000000E+00  0.48938843596E+02  0.48938843596E+02  0.00000000000E+00 0. -1.
         -4   -1    0    0    0  501 -0.00000000000E+00 -0.00000000000E+00 -0.12622737666E+03  0.12623376536E+03  0.12700000000E+01 0. -1.
         25    2    1    2    0    0  0.81896853143E+01 -0.24882251293E+02 -0.76627398263E+02  0.14893813976E+03  0.12499845573E+03 0.  0.
    9000005    1    3    3    0    0  0.53993998853E+02 -0.10342221633E+02  0.39355902785E+01  0.55125332936E+02  0.10000000000E+01 0.  0.
    9000005    1    3    3    0    0 -0.45804313538E+02 -0.14540029660E+02 -0.80562988542E+02  0.93812806823E+02  0.10000000000E+01 0.  0.
         -4    1    1    2    0  502 -0.81896853143E+01  0.24882251293E+02 -0.66113479718E+00  0.26234469200E+02  0.12700000000E+01 0.  1.
<mgrwt>
<rscale>  1 0.12771379E+03</rscale>
<asrwt>0</asrwt>
<pdfrwt beam="1">  1       21 0.75290529E-02 0.12771379E+03</pdfrwt>
<pdfrwt beam="2">  1       -4 0.19421355E-01 0.12771379E+03</pdfrwt>
<totfact> 0.12631416E+05</totfact>
</mgrwt>
</event>
<event>
 6    4  0.3189516E-003  0.1371267E+03  0.7818608E-02  0.1217248E+00
         -4   -1    0    0    0  501 -0.00000000000E+00  0.00000000000E+00  0.71132949308E+02  0.71144285626E+02  0.12700000000E+01 0. -1.
         21   -1    0    0  501  502  0.00000000000E+00 -0.00000000000E+00 -0.19650944034E+03  0.19650944034E+03  0.00000000000E+00 0.  1.
         25    2    1    2    0    0  0.35487246008E+02 -0.43809236781E+02 -0.79133205835E+01  0.13735482663E+03  0.12500053559E+03 0.  0.
    9000005    1    3    3    0    0  0.33049876632E+02  0.27833762881E+02 -0.39926993471E+02  0.58840271151E+02  0.10000000000E+01 0.  0.
    9000005    1    3    3    0    0  0.24373693760E+01 -0.71642999662E+02  0.32013672888E+02  0.78514555478E+02  0.10000000000E+01 0.  0.
         -4    1    1    2    0  502 -0.35487246008E+02  0.43809236781E+02 -0.11746317045E+03  0.13029889934E+03  0.12700000000E+01 0.  1.
<mgrwt>
<rscale>  1 0.13712669E+03</rscale>
<asrwt>0</asrwt>
<pdfrwt beam="2">  1       21 0.30232221E-01 0.13712669E+03</pdfrwt>
<pdfrwt beam="1">  1       -4 0.10944719E-01 0.13712669E+03</pdfrwt>
<totfact> 0.27887374E+04</totfact>
</mgrwt>
</event>
<event>
 6    4  0.3189516E-003  0.1401044E+03  0.7818608E-02  0.1213189E+00
         21   -1    0    0  501  502  0.00000000000E+00  0.00000000000E+00  0.30383126093E+03  0.30383126093E+03  0.00000000000E+00 0. -1.
         -4   -1    0    0    0  501 -0.00000000000E+00 -0.00000000000E+00 -0.34049883065E+02  0.34073559203E+02  0.12700000000E+01 0.  1.
         25    2    1    2    0    0 -0.19163769639E+02  0.60308810752E+02  0.18179243771E+03  0.22951630963E+03  0.12499937301E+03 0.  0.
    9000005    1    3    3    0    0  0.44656944049E+01  0.27511436007E+01 -0.18773902022E+02  0.19518468556E+02  0.10000000000E+01 0.  0.
    9000005    1    3    3    0    0 -0.23629464044E+02  0.57557667152E+02  0.20056633974E+03  0.20999784107E+03  0.10000000000E+01 0.  0.
         -4    1    1    2    0  502  0.19163769639E+02 -0.60308810752E+02  0.87988940148E+02  0.10838851051E+03  0.12700000000E+01 0. -1.
<mgrwt>
<rscale>  1 0.14010441E+03</rscale>
<asrwt>0</asrwt>
<pdfrwt beam="1">  1       21 0.46743269E-01 0.14010441E+03</pdfrwt>
<pdfrwt beam="2">  1       -4 0.52404692E-02 0.14010441E+03</pdfrwt>
<totfact> 0.39689320E+04</totfact>
</mgrwt>
</event>
<event>
 6    4  0.3189516E-003  0.1507391E+03  0.7818608E-02  0.1199568E+00
         -4   -1    0    0    0  501 -0.00000000000E+00  0.00000000000E+00  0.12240077421E+04  0.12240084010E+04  0.12700000000E+01 0.  1.
         21   -1    0    0  501  502  0.00000000000E+00 -0.00000000000E+00 -0.19355915268E+02  0.19355915268E+02  0.00000000000E+00 0. -1.
         25    2    1    2    0    0 -0.76826748879E+02  0.34542400081E+02  0.10937759967E+04  0.11041142198E+04  0.12500701047E+03 0.  0.
    9000005    1    3    3    0    0 -0.30114944959E+02  0.79005870002E+02  0.70041510998E+03  0.70550064755E+03  0.10000000000E+01 0.  0.
    9000005    1    3    3    0    0 -0.46711803919E+02 -0.44463469921E+02  0.39336088676E+03  0.39861357229E+03  0.10000000000E+01 0.  0.
         -4    1    1    2    0  502  0.76826748879E+02 -0.34542400081E+02  0.11087583012E+03  0.13925009642E+03  0.12700000000E+01 0. -1.
<mgrwt>
<rscale>  1 0.15073911E+03</rscale>
<asrwt>0</asrwt>
<pdfrwt beam="2">  1       21 0.29778341E-02 0.15073911E+03</pdfrwt>
<pdfrwt beam="1">  1       -4 0.18831208E+00 0.15073911E+03</pdfrwt>
<totfact> 0.45909070E+03</totfact>
</mgrwt>
</event>
<event>
 6    4  0.3189516E-003  0.1286396E+03  0.7818608E-02  0.1229488E+00
         -4   -1    0    0    0  501 -0.00000000000E+00  0.00000000000E+00  0.19511503055E+03  0.19511916371E+03  0.12700000000E+01 0. -1.
         21   -1    0    0  501  502  0.00000000000E+00 -0.00000000000E+00 -0.48349553211E+02  0.48349553211E+02  0.00000000000E+00 0. -1.
         25    2    1    2    0    0 -0.56276478825E+01  0.29854078934E+02  0.16406640547E+03  0.20848484258E+03  0.12500083092E+03 0.  0.
    9000005    1    3    3    0    0 -0.56560992765E+02  0.34028810074E+01  0.12980328618E+03  0.14163551322E+03  0.10000000000E+01 0.  0.
    9000005    1    3    3    0    0  0.50933344882E+02  0.26451197926E+02  0.34263119295E+02  0.66849329364E+02  0.10000000000E+01 0.  0.
         -4    1    1    2    0  502  0.56276478825E+01 -0.29854078934E+02 -0.17300928132E+02  0.34983874341E+02  0.12700000000E+01 0.  1.
<mgrwt>
<rscale>  1 0.12863959E+03</rscale>
<asrwt>0</asrwt>
<pdfrwt beam="2">  1       21 0.74383929E-02 0.12863959E+03</pdfrwt>
<pdfrwt beam="1">  1       -4 0.30019298E-01 0.12863959E+03</pdfrwt>
<totfact> 0.58004309E+04</totfact>
</mgrwt>
</event>
<event>
 6    4  0.3189516E-003  0.1487847E+03  0.7818608E-02  0.1201974E+00
         21   -1    0    0  501  502  0.00000000000E+00  0.00000000000E+00  0.13137331169E+03  0.13137331169E+03  0.00000000000E+00 0.  1.
          4   -1    0    0  502    0 -0.00000000000E+00 -0.00000000000E+00 -0.71197620455E+03  0.71197733724E+03  0.12700000000E+01 0. -1.
         25    2    1    2    0    0 -0.13858461947E+02 -0.79491253047E+02 -0.69086887991E+03  0.70670835285E+03  0.12500388185E+03 0.  0.
    9000005    1    3    3    0    0  0.48786879431E+02 -0.66999657803E+02 -0.33150793762E+03  0.34171278357E+03  0.10000000000E+01 0.  0.
    9000005    1    3    3    0    0 -0.62645341378E+02 -0.12491595244E+02 -0.35936094229E+03  0.36499556927E+03  0.10000000000E+01 0.  0.
          4    1    1    2  501    0  0.13858461947E+02  0.79491253047E+02  0.11026598706E+03  0.13664229609E+03  0.12700000000E+01 0.  1.
<mgrwt>
<rscale>  1 0.14878470E+03</rscale>
<asrwt>0</asrwt>
<pdfrwt beam="1">  1       21 0.20211279E-01 0.14878470E+03</pdfrwt>
<pdfrwt beam="2">  1        4 0.10953536E+00 0.14878470E+03</pdfrwt>
<totfact> 0.65480822E+02</totfact>
</mgrwt>
</event>
<event>
 6    4  0.3189516E-003  0.1287571E+03  0.7818608E-02  0.1229312E+00
         -4   -1    0    0    0  501 -0.00000000000E+00  0.00000000000E+00  0.68015730830E+03  0.68015849398E+03  0.12700000000E+01 0.  1.
         21   -1    0    0  501  502  0.00000000000E+00 -0.00000000000E+00 -0.99261558452E+01  0.99261558452E+01  0.00000000000E+00 0.  1.
         25    2    1    2    0    0 -0.28982236649E+02  0.10691091113E+02  0.59454270365E+03  0.60832510205E+03  0.12499653534E+03 0.  0.
    9000005    1    3    3    0    0  0.35892250639E+02 -0.32290103409E+02  0.17083017037E+03  0.17752422805E+03  0.10000000000E+01 0.  0.
    9000005    1    3    3    0    0 -0.64874487288E+02  0.42981194522E+02  0.42371253328E+03  0.43080087400E+03  0.10000000000E+01 0.  0.
         -4    1    1    2    0  502  0.28982236649E+02 -0.10691091113E+02  0.75688448801E+02  0.81759547774E+02  0.12700000000E+01 0. -1.
<mgrwt>
<rscale>  1 0.12875715E+03</rscale>
<asrwt>0</asrwt>
<pdfrwt beam="2">  1       21 0.15271014E-02 0.12875715E+03</pdfrwt>
<pdfrwt beam="1">  1       -4 0.10464589E+00 0.12875715E+03</pdfrwt>
<totfact> 0.58649085E+04</totfact>
</mgrwt>
</event>
<event>
 6    4  0.3189516E-003  0.1296010E+03  0.7818608E-02  0.1228049E+00
         -4   -1    0    0    0  501 -0.00000000000E+00  0.00000000000E+00  0.54096113026E+03  0.54096262103E+03  0.12700000000E+01 0. -1.
         21   -1    0    0  501  502  0.00000000000E+00 -0.00000000000E+00 -0.13837961934E+02  0.13837961934E+02  0.00000000000E+00 0. -1.
         25    2    1    2    0    0 -0.20818205328E+02  0.27163299205E+02  0.47553853665E+03  0.49288265647E+03  0.12500068282E+03 0.  0.
    9000005    1    3    3    0    0  0.31411668077E+01  0.53160177983E+02  0.43830278910E+03  0.44152712984E+03  0.10000000000E+01 0.  0.
    9000005    1    3    3    0    0 -0.23959372135E+02 -0.25996878778E+02  0.37235747557E+02  0.51355526630E+02  0.10000000000E+01 0.  0.
         -4    1    1    2    0  502  0.20818205328E+02 -0.27163299205E+02  0.51584631668E+02  0.61917926492E+02  0.12700000000E+01 0.  1.
<mgrwt>
<rscale>  1 0.12960098E+03</rscale>
<asrwt>0</asrwt>
<pdfrwt beam="2">  1       21 0.21289176E-02 0.12960098E+03</pdfrwt>
<pdfrwt beam="1">  1       -4 0.83229370E-01 0.12960098E+03</pdfrwt>
<totfact> 0.57948834E+04</totfact>
</mgrwt>
</event>
<event>
 6    4  0.3189516E-003  0.1321851E+03  0.7818608E-02  0.1224249E+00
         21   -1    0    0  501  502  0.00000000000E+00  0.00000000000E+00  0.74239073381E+02  0.74239073381E+02  0.00000000000E+00 0. -1.
         -4   -1    0    0    0  501 -0.00000000000E+00 -0.00000000000E+00 -0.13821366272E+03  0.13821949741E+03  0.12700000000E+01 0. -1.
         25    2    1    2    0    0 -0.29775317472E+02 -0.31145866734E+02 -0.91993331469E+02  0.16104556314E+03  0.12496505842E+03 0.  0.
    9000005    1    3    3    0    0  0.39244063566E+02  0.11911945309E+02 -0.61987672721E+02  0.74333455022E+02  0.10000000000E+01 0.  0.
    9000005    1    3    3    0    0 -0.69019381038E+02 -0.43057812043E+02 -0.30005658748E+02  0.86712108115E+02  0.10000000000E+01 0.  0.
         -4    1    1    2    0  502  0.29775317472E+02  0.31145866734E+02  0.28018742128E+02  0.51413007649E+02  0.12700000000E+01 0.  1.
<mgrwt>
<rscale>  1 0.13218510E+03</rscale>
<asrwt>0</asrwt>
<pdfrwt beam="1">  1       21 0.11421396E-01 0.13218510E+03</pdfrwt>
<pdfrwt beam="2">  1       -4 0.21264925E-01 0.13218510E+03</pdfrwt>
<totfact> 0.52179546E+04</totfact>
</mgrwt>
</event>
<event>
 6    4  0.3189516E-003  0.1288859E+03  0.7818608E-02  0.1229118E+00
         21   -1    0    0  501  502  0.00000000000E+00  0.00000000000E+00  0.74563192903E+03  0.74563192903E+03  0.00000000000E+00 0.  1.
          4   -1    0    0  502    0 -0.00000000000E+00 -0.00000000000E+00 -0.90542736696E+01  0.91429082727E+01  0.12700000000E+01 0.  1.
         25    2    1    2    0    0  0.27909510996E+02  0.14326170073E+02  0.65060473710E+03  0.66324814433E+03  0.12500958788E+03 0.  0.
    9000005    1    3    3    0    0  0.13935201504E+02  0.28486990215E+02  0.34691078345E+02  0.47012438452E+02  0.10000000000E+01 0.  0.
    9000005    1    3    3    0    0  0.13974309492E+02 -0.14160820142E+02  0.61591365875E+03  0.61623570587E+03  0.10000000000E+01 0.  0.
          4    1    1    2  501    0 -0.27909510996E+02 -0.14326170073E+02  0.85972918259E+02  0.91526692975E+02  0.12700000000E+01 0. -1.
<mgrwt>
<rscale>  1 0.12888591E+03</rscale>
<asrwt>0</asrwt>
<pdfrwt beam="1">  1       21 0.11471256E+00 0.12888591E+03</pdfrwt>
<pdfrwt beam="2">  1        4 0.13998670E-02 0.12888591E+03</pdfrwt>
<totfact> 0.42512745E+04</totfact>
</mgrwt>
</event>
<event>
 6    4  0.3189516E-003  0.1320972E+03  0.7818608E-02  0.1224377E+00
         21   -1    0    0  501  502  0.00000000000E+00  0.00000000000E+00  0.44387539663E+02  0.44387539663E+02  0.00000000000E+00 0. -1.
          4   -1    0    0  502    0 -0.00000000000E+00 -0.00000000000E+00 -0.30955681233E+03  0.30955941749E+03  0.12700000000E+01 0. -1.
         25    2    1    2    0    0 -0.61229350193E+00 -0.42707337831E+02 -0.27928146705E+03  0.30894630674E+03  0.12500156399E+03 0.  0.
    9000005    1    3    3    0    0  0.54707340492E+02 -0.51518058632E+02 -0.17771033430E+03  0.19294809247E+03  0.10000000000E+01 0.  0.
    9000005    1    3    3    0    0 -0.55319633994E+02  0.88107208007E+01 -0.10157113274E+03  0.11599821427E+03  0.10000000000E+01 0.  0.
          4    1    1    2  501    0  0.61229350193E+00  0.42707337831E+02  0.14112194383E+02  0.45000650420E+02  0.12700000000E+01 0.  1.
<mgrwt>
<rscale>  1 0.13209725E+03</rscale>
<asrwt>0</asrwt>
<pdfrwt beam="1">  1       21 0.68288519E-02 0.13209725E+03</pdfrwt>
<pdfrwt beam="2">  1        4 0.47625726E-01 0.13209725E+03</pdfrwt>
<totfact> 0.27378295E+04</totfact>
</mgrwt>
</event>
<event>
 6    4  0.3189516E-003  0.1320558E+03  0.7818608E-02  0.1224437E+00
         21   -1    0    0  501  502  0.00000000000E+00  0.00000000000E+00  0.35602041108E+02  0.35602041108E+02  0.00000000000E+00 0. -1.
          4   -1    0    0  502    0 -0.00000000000E+00 -0.00000000000E+00 -0.29119307545E+03  0.29119584490E+03  0.12700000000E+01 0.  1.
         25    2    1    2    0    0  0.42355739769E+02 -0.44026198157E+01 -0.25142068790E+03  0.28399138601E+03  0.12500141309E+03 0.  0.
    9000005    1    3    3    0    0 -0.35238145155E+02 -0.10761655187E+02 -0.15865908612E+03  0.16288414811E+03  0.10000000000E+01 0.  0.
    9000005    1    3    3    0    0  0.77593884924E+02  0.63590353709E+01 -0.92761601774E+02  0.12110723790E+03  0.10000000000E+01 0.  0.
          4    1    1    2  501    0 -0.42355739769E+02  0.44026198157E+01 -0.41703464422E+01  0.42806499998E+02  0.12700000000E+01 0. -1.
<mgrwt>
<rscale>  1 0.13205584E+03</rscale>
<asrwt>0</asrwt>
<pdfrwt beam="1">  1       21 0.54772369E-02 0.13205584E+03</pdfrwt>
<pdfrwt beam="2">  1        4 0.44800892E-01 0.13205584E+03</pdfrwt>
<totfact> 0.45027496E+04</totfact>
</mgrwt>
</event>
<event>
 6    4  0.3189516E-003  0.1301975E+03  0.7818608E-02  0.1227163E+00
         -4   -1    0    0    0  501 -0.00000000000E+00  0.00000000000E+00  0.79665346020E+02  0.79675468348E+02  0.12700000000E+01 0.  1.
         21   -1    0    0  501  502  0.00000000000E+00 -0.00000000000E+00 -0.12623449367E+03  0.12623449367E+03  0.00000000000E+00 0.  1.
         25    2    1    2    0    0  0.15096487619E+02 -0.33090846099E+02  0.18351127186E+02  0.13148440849E+03  0.12501391031E+03 0.  0.
    9000005    1    3    3    0    0 -0.45605803074E+02  0.43742094141E+01  0.35670170670E+02  0.58072231382E+02  0.10000000000E+01 0.  0.
    9000005    1    3    3    0    0  0.60702290693E+02 -0.37465055513E+02 -0.17319043484E+02  0.73412177104E+02  0.10000000000E+01 0.  0.
         -4    1    1    2    0  502 -0.15096487619E+02  0.33090846099E+02 -0.64920274838E+02  0.74425553535E+02  0.12700000000E+01 0. -1.
<mgrwt>
<rscale>  1 0.13019749E+03</rscale>
<asrwt>0</asrwt>
<pdfrwt beam="2">  1       21 0.19420691E-01 0.13019749E+03</pdfrwt>
<pdfrwt beam="1">  1       -4 0.12257477E-01 0.13019749E+03</pdfrwt>
<totfact> 0.52689821E+04</totfact>
</mgrwt>
</event>
<event>
 6    4  0.3189516E-003  0.1305699E+03  0.7818608E-02  0.1226612E+00
         21   -1    0    0  501  502  0.00000000000E+00  0.00000000000E+00  0.34755008281E+02  0.34755008281E+02  0.00000000000E+00 0.  1.
         -4   -1    0    0    0  501 -0.00000000000E+00 -0.00000000000E+00 -0.20379223447E+03  0.20379619165E+03  0.12700000000E+01 0.  1.
         25    2    1    2    0    0 -0.36732020236E+02 -0.86336279177E+01 -0.13118638935E+03  0.18509018992E+03  0.12499891525E+03 0.  0.
    9000005    1    3    3    0    0  0.22233919590E+02 -0.47859368823E+02 -0.27484140765E+02  0.59508355364E+02  0.10000000000E+01 0.  0.
    9000005    1    3    3    0    0 -0.58965939827E+02  0.39225740905E+02 -0.10370224858E+03  0.12558183456E+03  0.10000000000E+01 0.  0.
         -4    1    1    2    0  502  0.36732020236E+02  0.86336279177E+01 -0.37850836839E+02  0.53461010008E+02  0.12700000000E+01 0. -1.
<mgrwt>
<rscale>  1 0.13056994E+03</rscale>
<asrwt>0</asrwt>
<pdfrwt beam="1">  1       21 0.53469244E-02 0.13056994E+03</pdfrwt>
<pdfrwt beam="2">  1       -4 0.31354741E-01 0.13056994E+03</pdfrwt>
<totfact> 0.93847647E+04</totfact>
</mgrwt>
</event>
<event>
 6    4  0.3189516E-003  0.1266493E+03  0.7818608E-02  0.1232514E+00
         -4   -1    0    0    0  501 -0.00000000000E+00  0.00000000000E+00  0.34087751112E+02  0.34111400966E+02  0.12700000000E+01 0. -1.
         21   -1    0    0  501  502  0.00000000000E+00 -0.00000000000E+00 -0.17444075749E+03  0.17444075749E+03  0.00000000000E+00 0.  1.
         25    2    1    2    0    0 -0.87878009936E+01  0.18379364692E+02 -0.93431942531E+02  0.15738355846E+03  0.12500012038E+03 0.  0.
    9000005    1    3    3    0    0 -0.63582429113E+02 -0.18062189995E+01 -0.27502697740E+02  0.69306465081E+02  0.10000000000E+01 0.  0.
    9000005    1    3    3    0    0  0.54794628120E+02  0.20185583691E+02 -0.65929244791E+02  0.88077093381E+02  0.10000000000E+01 0.  0.
         -4    1    1    2    0  502  0.87878009936E+01 -0.18379364692E+02 -0.46921063845E+02  0.51168599992E+02  0.12700000000E+01 0.  1.
<mgrwt>
<rscale>  1 0.12664935E+03</rscale>
<asrwt>0</asrwt>
<pdfrwt beam="2">  1       21 0.26837040E-01 0.12664935E+03</pdfrwt>
<pdfrwt beam="1">  1       -4 0.52464442E-02 0.12664935E+03</pdfrwt>
<totfact> 0.11688805E+05</totfact>
</mgrwt>
</event>
<event>
 6    4  0.3189516E-003  0.1297443E+03  0.7818608E-02  0.1227836E+00
         -4   -1    0    0    0  501 -0.00000000000E+00  0.00000000000E+00  0.77521005022E+03  0.77521109052E+03  0.12700000000E+01 0. -1.
         21   -1    0    0  501  502  0.00000000000E+00 -0.00000000000E+00 -0.95604835940E+01  0.95604835940E+01  0.00000000000E+00 0.  1.
         25    2    1    2    0    0  0.13512462433E+01  0.34748428432E+02  0.68098910150E+03  0.69323859426E+03  0.12499725224E+03 0.  0.
    9000005    1    3    3    0    0  0.48358426143E+02 -0.20844200816E+02  0.37645997539E+03  0.38012646732E+03  0.10000000000E+01 0.  0.
    9000005    1    3    3    0    0 -0.47007179900E+02  0.55592629248E+02  0.30452912611E+03  0.31311212694E+03  0.10000000000E+01 0.  0.
         -4    1    1    2    0  502 -0.13512462433E+01 -0.34748428432E+02  0.84660465130E+02  0.91532979854E+02  0.12700000000E+01 0.  1.
<mgrwt>
<rscale>  1 0.12974433E+03</rscale>
<asrwt>0</asrwt>
<pdfrwt beam="2">  1       21 0.14708442E-02 0.12974433E+03</pdfrwt>
<pdfrwt beam="1">  1       -4 0.11926960E+00 0.12974433E+03</pdfrwt>
<totfact> 0.45778962E+04</totfact>
</mgrwt>
</event>
<event>
 6    4  0.3189516E-003  0.1269197E+03  0.7818608E-02  0.1232099E+00
         21   -1    0    0  501  502  0.00000000000E+00  0.00000000000E+00  0.51577611025E+03  0.51577611025E+03  0.00000000000E+00 0. -1.
         -4   -1    0    0    0  501 -0.00000000000E+00 -0.00000000000E+00 -0.34446947573E+02  0.34470350986E+02  0.12700000000E+01 0.  1.
         25    2    1    2    0    0 -0.21346440244E+02 -0.52642396356E+01  0.83757948688E+02  0.15206576630E+03  0.12500088232E+03 0.  0.
    9000005    1    3    3    0    0 -0.38208461515E+02  0.37740858530E+02 -0.29717111703E+01  0.53796747125E+02  0.10000000000E+01 0.  0.
    9000005    1    3    3    0    0  0.16862021271E+02 -0.43005098166E+02  0.86729659858E+02  0.98269019170E+02  0.10000000000E+01 0.  0.
         -4    1    1    2    0  502  0.21346440244E+02  0.52642396356E+01  0.39757121399E+03  0.39818069494E+03  0.12700000000E+01 0. -1.
<mgrwt>
<rscale>  1 0.12691967E+03</rscale>
<asrwt>0</asrwt>
<pdfrwt beam="1">  1       21 0.79350165E-01 0.12691967E+03</pdfrwt>
<pdfrwt beam="2">  1       -4 0.53014513E-02 0.12691967E+03</pdfrwt>
<totfact> 0.12489216E+04</totfact>
</mgrwt>
</event>
<event>
 6    4  0.3189516E-003  0.1598786E+03  0.7818608E-02  0.1188834E+00
          4   -1    0    0  502    0 -0.00000000000E+00  0.00000000000E+00  0.16396007757E+03  0.16396499607E+03  0.12700000000E+01 0.  1.
         21   -1    0    0  501  502  0.00000000000E+00 -0.00000000000E+00 -0.12445495398E+03  0.12445495398E+03  0.00000000000E+00 0. -1.
         25    2    1    2    0    0 -0.77200870637E+02  0.63173847023E+02  0.82356657701E+02  0.17984381893E+03  0.12494106916E+03 0.  0.
    9000005    1    3    3    0    0  0.27185891973E+02  0.44578839975E+02  0.15436125189E+02  0.54457503218E+02  0.10000000000E+01 0.  0.
    9000005    1    3    3    0    0 -0.10438676261E+03  0.18595007048E+02  0.66920532512E+02  0.12538631571E+03  0.10000000000E+01 0.  0.
          4    1    1    2  501    0  0.77200870637E+02 -0.63173847023E+02 -0.42851534116E+02  0.10857613113E+03  0.12700000000E+01 0. -1.
<mgrwt>
<rscale>  1 0.15987864E+03</rscale>
<asrwt>0</asrwt>
<pdfrwt beam="2">  1       21 0.19146916E-01 0.15987864E+03</pdfrwt>
<pdfrwt beam="1">  1        4 0.25225504E-01 0.15987864E+03</pdfrwt>
<totfact> 0.15301014E+04</totfact>
</mgrwt>
</event>
<event>
 6    4  0.3189516E-003  0.1300580E+03  0.7818608E-02  0.1227370E+00
         21   -1    0    0  501  502  0.00000000000E+00  0.00000000000E+00  0.72922892687E+02  0.72922892687E+02  0.00000000000E+00 0. -1.
          4   -1    0    0  502    0 -0.00000000000E+00 -0.00000000000E+00 -0.10634843093E+03  0.10635601376E+03  0.12700000000E+01 0.  1.
         25    2    1    2    0    0  0.24935132324E+02  0.25812635793E+02 -0.50495374377E+02  0.13951654741E+03  0.12500812444E+03 0.  0.
    9000005    1    3    3    0    0 -0.13811763685E+02  0.26673757025E+01 -0.82807579437E+02  0.83999850722E+02  0.10000000000E+01 0.  0.
    9000005    1    3    3    0    0  0.38746896008E+02  0.23145260091E+02  0.32312205059E+02  0.55516696684E+02  0.10000000000E+01 0.  0.
          4    1    1    2  501    0 -0.24935132324E+02 -0.25812635793E+02  0.17069836131E+02  0.39762359036E+02  0.12700000000E+01 0. -1.
<mgrwt>
<rscale>  1 0.13005800E+03</rscale>
<asrwt>0</asrwt>
<pdfrwt beam="1">  1       21 0.11218907E-01 0.13005800E+03</pdfrwt>
<pdfrwt beam="2">  1        4 0.16362731E-01 0.13005800E+03</pdfrwt>
<totfact> 0.85769076E+04</totfact>
</mgrwt>
</event>
<event>
 6    4  0.3189516E-003  0.1321290E+03  0.7818608E-02  0.1224330E+00
         21   -1    0    0  501  502  0.00000000000E+00  0.00000000000E+00  0.16517026679E+02  0.16517026679E+02  0.00000000000E+00 0.  1.
         -4   -1    0    0    0  501 -0.00000000000E+00 -0.00000000000E+00 -0.48901285057E+03  0.48901449971E+03  0.12700000000E+01 0.  1.
         25    2    1    2    0    0 -0.40716410088E+02 -0.13252821663E+02 -0.40074990995E+03  0.42196985815E+03  0.12499843008E+03 0.  0.
    9000005    1    3    3    0    0  0.19426540684E+02  0.26717543738E+02 -0.27482372487E+03  0.27680371633E+03  0.10000000000E+01 0.  0.
    9000005    1    3    3    0    0 -0.60142950773E+02 -0.39970365402E+02 -0.12592618509E+03  0.14516614181E+03  0.10000000000E+01 0.  0.
         -4    1    1    2    0  502  0.40716410088E+02  0.13252821663E+02 -0.71745913940E+02  0.83561668244E+02  0.12700000000E+01 0. -1.
<mgrwt>
<rscale>  1 0.13212899E+03</rscale>
<asrwt>0</asrwt>
<pdfrwt beam="1">  1       21 0.25410804E-02 0.13212899E+03</pdfrwt>
<pdfrwt beam="2">  1       -4 0.75236646E-01 0.13212899E+03</pdfrwt>
<totfact> 0.54460815E+04</totfact>
</mgrwt>
</event>
<event>
 6    4  0.3189516E-003  0.1271923E+03  0.7818608E-02  0.1231682E+00
         21   -1    0    0  501  502  0.00000000000E+00  0.00000000000E+00  0.17421796208E+02  0.17421796208E+02  0.00000000000E+00 0. -1.
          4   -1    0    0  502    0 -0.00000000000E+00 -0.00000000000E+00 -0.35933261386E+03  0.35933485815E+03  0.12700000000E+01 0. -1.
         25    2    1    2    0    0 -0.22061946839E+02  0.80232378963E+01 -0.32104480495E+03  0.34532251320E+03  0.12500707775E+03 0.  0.
    9000005    1    3    3    0    0 -0.21773056711E+02 -0.52349866669E+02 -0.22366512334E+03  0.23074154792E+03  0.10000000000E+01 0.  0.
    9000005    1    3    3    0    0 -0.28889012832E+00  0.60373104566E+02 -0.97379681618E+02  0.11458096528E+03  0.10000000000E+01 0.  0.
          4    1    1    2  501    0  0.22061946839E+02 -0.80232378963E+01 -0.20866012699E+02  0.31434141162E+02  0.12700000000E+01 0.  1.
<mgrwt>
<rscale>  1 0.12719226E+03</rscale>
<asrwt>0</asrwt>
<pdfrwt beam="1">  1       21 0.26802765E-02 0.12719226E+03</pdfrwt>
<pdfrwt beam="2">  1        4 0.55285671E-01 0.12719226E+03</pdfrwt>
<totfact> 0.95566293E+04</totfact>
</mgrwt>
</event>
<event>
 6    4  0.3189516E-003  0.1271853E+03  0.7818608E-02  0.1231693E+00
         21   -1    0    0  501  502  0.00000000000E+00  0.00000000000E+00  0.13011602601E+04  0.13011602601E+04  0.00000000000E+00 0. -1.
         -4   -1    0    0    0  501 -0.00000000000E+00 -0.00000000000E+00 -0.65558537218E+01  0.66777330002E+01  0.12700000000E+01 0. -1.
         25    2    1    2    0    0  0.34301937617E+01 -0.23222269275E+02  0.62441312636E+03  0.63723452999E+03  0.12500021530E+03 0.  0.
    9000005    1    3    3    0    0  0.38445264706E+02  0.38296457558E+02  0.32975553907E+03  0.33419211928E+03  0.10000000000E+01 0.  0.
    9000005    1    3    3    0    0 -0.35015070945E+02 -0.61518726833E+02  0.29465758729E+03  0.30304241071E+03  0.10000000000E+01 0.  0.
         -4    1    1    2    0  502 -0.34301937617E+01  0.23222269275E+02  0.67019128006E+03  0.67060346315E+03  0.12700000000E+01 0.  1.
<mgrwt>
<rscale>  1 0.12718527E+03</rscale>
<asrwt>0</asrwt>
<pdfrwt beam="1">  1       21 0.20017830E+00 0.12718527E+03</pdfrwt>
<pdfrwt beam="2">  1       -4 0.10180169E-02 0.12718527E+03</pdfrwt>
<totfact> 0.16009962E+04</totfact>
</mgrwt>
</event>
<event>
 6    4  0.3189516E-003  0.1451652E+03  0.7818608E-02  0.1206543E+00
         -4   -1    0    0    0  501 -0.00000000000E+00  0.00000000000E+00  0.30144099646E+02  0.30170840948E+02  0.12700000000E+01 0.  1.
         21   -1    0    0  501  502  0.00000000000E+00 -0.00000000000E+00 -0.71608148556E+03  0.71608148556E+03  0.00000000000E+00 0. -1.
         25    2    1    2    0    0  0.41650485521E+01  0.73691031021E+02 -0.16357643814E+03  0.21870110782E+03  0.12500083105E+03 0.  0.
    9000005    1    3    3    0    0  0.22365901820E+02  0.99497598862E+02 -0.15571917341E+03  0.18614367223E+03  0.10000000000E+01 0.  0.
    9000005    1    3    3    0    0 -0.18200853268E+02 -0.25806567841E+02 -0.78572647383E+01  0.32557435596E+02  0.10000000000E+01 0.  0.
         -4    1    1    2    0  502 -0.41650485521E+01 -0.73691031021E+02 -0.52236094777E+03  0.52755121869E+03  0.12700000000E+01 0. -1.
<mgrwt>
<rscale>  1 0.14516516E+03</rscale>
<asrwt>0</asrwt>
<pdfrwt beam="2">  1       21 0.11016639E+00 0.14516516E+03</pdfrwt>
<pdfrwt beam="1">  1       -4 0.46396973E-02 0.14516516E+03</pdfrwt>
<totfact> 0.73057477E+03</totfact>
</mgrwt>
</event>
<event>
 6    4  0.3189516E-003  0.1268733E+03  0.7818608E-02  0.1232170E+00
         21   -1    0    0  501  502  0.00000000000E+00  0.00000000000E+00  0.79173237554E+02  0.79173237554E+02  0.00000000000E+00 0.  1.
         -4   -1    0    0    0  501 -0.00000000000E+00 -0.00000000000E+00 -0.13587488914E+03  0.13588082425E+03  0.12700000000E+01 0. -1.
         25    2    1    2    0    0  0.19698445234E+02 -0.92012889068E+01 -0.10330592649E+03  0.16361221306E+03  0.12499659737E+03 0.  0.
    9000005    1    3    3    0    0 -0.77606286487E+01  0.53201966237E+02 -0.23611904263E+02  0.58729878183E+02  0.10000000000E+01 0.  0.
    9000005    1    3    3    0    0  0.27459073883E+02 -0.62403255143E+02 -0.79694022226E+02  0.10488233488E+03  0.10000000000E+01 0.  0.
         -4    1    1    2    0  502 -0.19698445234E+02  0.92012889068E+01  0.46604274906E+02  0.51441848739E+02  0.12700000000E+01 0.  1.
<mgrwt>
<rscale>  1 0.12687333E+03</rscale>
<asrwt>0</asrwt>
<pdfrwt beam="1">  1       21 0.12180498E-01 0.12687333E+03</pdfrwt>
<pdfrwt beam="2">  1       -4 0.20905069E-01 0.12687333E+03</pdfrwt>
<totfact> 0.47773859E+04</totfact>
</mgrwt>
</event>
<event>
 6    4  0.3189516E-003  0.1281236E+03  0.7818608E-02  0.1230267E+00
         21   -1    0    0  501  502  0.00000000000E+00  0.00000000000E+00  0.44428775141E+02  0.44428775141E+02  0.00000000000E+00 0.  1.
          4   -1    0    0  502    0 -0.00000000000E+00 -0.00000000000E+00 -0.27217654097E+03  0.27217950392E+03  0.12700000000E+01 0. -1.
         25    2    1    2    0    0 -0.24380920569E+02  0.14035581279E+02 -0.24986575241E+03  0.28079982950E+03  0.12499689271E+03 0.  0.
    9000005    1    3    3    0    0 -0.65498586437E+02 -0.18193834389E+02 -0.91204965525E+02  0.11375599400E+03  0.10000000000E+01 0.  0.
    9000005    1    3    3    0    0  0.41117665868E+02  0.32229415669E+02 -0.15866078689E+03  0.16704383549E+03  0.10000000000E+01 0.  0.
          4    1    1    2  501    0  0.24380920569E+02 -0.14035581279E+02  0.22117986584E+02  0.35808449564E+02  0.12700000000E+01 0.  1.
<mgrwt>
<rscale>  1 0.12812357E+03</rscale>
<asrwt>0</asrwt>
<pdfrwt beam="1">  1       21 0.68351962E-02 0.12812357E+03</pdfrwt>
<pdfrwt beam="2">  1        4 0.41874938E-01 0.12812357E+03</pdfrwt>
<totfact> 0.35224882E+04</totfact>
</mgrwt>
</event>
<event>
 6    4  0.3189516E-003  0.1703376E+03  0.7818608E-02  0.1177496E+00
         -4   -1    0    0    0  501 -0.00000000000E+00  0.00000000000E+00  0.82967180153E+02  0.82976899692E+02  0.12700000000E+01 0.  1.
         21   -1    0    0  501  502  0.00000000000E+00 -0.00000000000E+00 -0.28542664314E+03  0.28542664314E+03  0.00000000000E+00 0. -1.
         25    2    1    2    0    0 -0.54352120520E+02  0.10215241305E+03 -0.51022790699E+02  0.17781511949E+03  0.12500249218E+03 0.  0.
    9000005    1    3    3    0    0 -0.60920027296E+02  0.63345435769E+02  0.25707007770E+02  0.91573709147E+02  0.10000000000E+01 0.  0.
    9000005    1    3    3    0    0  0.65679067761E+01  0.38806977283E+02 -0.76729798470E+02  0.86241410346E+02  0.10000000000E+01 0.  0.
         -4    1    1    2    0  502  0.54352120520E+02 -0.10215241305E+03 -0.15143667229E+03  0.19058842334E+03  0.12700000000E+01 0. -1.
<mgrwt>
<rscale>  1 0.17033758E+03</rscale>
<asrwt>0</asrwt>
<pdfrwt beam="2">  1       21 0.43911790E-01 0.17033758E+03</pdfrwt>
<pdfrwt beam="1">  1       -4 0.12765147E-01 0.17033758E+03</pdfrwt>
<totfact> 0.10394562E+04</totfact>
</mgrwt>
</event>
<event>
 6    4  0.3189516E-003  0.1340338E+03  0.7818608E-02  0.1221590E+00
          4   -1    0    0  502    0 -0.00000000000E+00  0.00000000000E+00  0.45759056073E+02  0.45776676515E+02  0.12700000000E+01 0.  1.
         21   -1    0    0  501  502  0.00000000000E+00 -0.00000000000E+00 -0.30799552820E+03  0.30799552820E+03  0.00000000000E+00 0.  1.
         25    2    1    2    0    0  0.46502877885E+02  0.13303489362E+02 -0.61830128896E+02  0.14760766900E+03  0.12500223449E+03 0.  0.
    9000005    1    3    3    0    0  0.46843661140E+02 -0.47022153306E+02 -0.82045620139E+01  0.66885920255E+02  0.10000000000E+01 0.  0.
    9000005    1    3    3    0    0 -0.34078325502E+00  0.60325642668E+02 -0.53625566882E+02  0.80721748742E+02  0.10000000000E+01 0.  0.
          4    1    1    2  501    0 -0.46502877885E+02 -0.13303489362E+02 -0.20040634323E+03  0.20616453572E+03  0.12700000000E+01 0. -1.
<mgrwt>
<rscale>  1 0.13403380E+03</rscale>
<asrwt>0</asrwt>
<pdfrwt beam="2">  1       21 0.47383925E-01 0.13403380E+03</pdfrwt>
<pdfrwt beam="1">  1        4 0.70414119E-02 0.13403380E+03</pdfrwt>
<totfact> 0.23768725E+04</totfact>
</mgrwt>
</event>
<event>
 6    4  0.3189516E-003  0.1279227E+03  0.7818608E-02  0.1230571E+00
         21   -1    0    0  501  502  0.00000000000E+00  0.00000000000E+00  0.12538167211E+03  0.12538167211E+03  0.00000000000E+00 0.  1.
          4   -1    0    0  502    0 -0.00000000000E+00 -0.00000000000E+00 -0.48052379040E+02  0.48069158838E+02  0.12700000000E+01 0.  1.
         25    2    1    2    0    0  0.14871562172E+02 -0.22712919127E+02  0.60750298505E+02  0.14161506462E+03  0.12500875050E+03 0.  0.
    9000005    1    3    3    0    0 -0.36410008183E+02  0.34593286159E+02  0.16435971415E+02  0.52853810643E+02  0.10000000000E+01 0.  0.
    9000005    1    3    3    0    0  0.51281570355E+02 -0.57306205286E+02  0.44314327090E+02  0.88761253978E+02  0.10000000000E+01 0.  0.
          4    1    1    2  501    0 -0.14871562172E+02  0.22712919127E+02  0.16578994562E+02  0.31835766323E+02  0.12700000000E+01 0. -1.
<mgrwt>
<rscale>  1 0.12792274E+03</rscale>
<asrwt>0</asrwt>
<pdfrwt beam="1">  1       21 0.19289488E-01 0.12792274E+03</pdfrwt>
<pdfrwt beam="2">  1        4 0.73944593E-02 0.12792274E+03</pdfrwt>
<totfact> 0.12425025E+05</totfact>
</mgrwt>
</event>
<event>
 6    4  0.3189516E-003  0.1277545E+03  0.7818608E-02  0.1230826E+00
         -4   -1    0    0    0  501 -0.00000000000E+00  0.00000000000E+00  0.25357904641E+03  0.25358222666E+03  0.12700000000E+01 0.  1.
         21   -1    0    0  501  502  0.00000000000E+00 -0.00000000000E+00 -0.49451808337E+02  0.49451808337E+02  0.00000000000E+00 0. -1.
         25    2    1    2    0    0 -0.26381308548E+02 -0.73645842843E+00  0.23186171709E+03  0.26472829081E+03  0.12499878516E+03 0.  0.
    9000005    1    3    3    0    0 -0.61693628253E+02  0.33009272446E+02  0.18169225684E+03  0.19470180284E+03  0.10000000000E+01 0.  0.
    9000005    1    3    3    0    0  0.35312319705E+02 -0.33745730874E+02  0.50169460255E+02  0.70026487970E+02  0.10000000000E+01 0.  0.
         -4    1    1    2    0  502  0.26381308548E+02  0.73645842843E+00 -0.27734479016E+02  0.38305744191E+02  0.12700000000E+01 0. -1.
<mgrwt>
<rscale>  1 0.12775450E+03</rscale>
<asrwt>0</asrwt>
<pdfrwt beam="2">  1       21 0.76079707E-02 0.12775450E+03</pdfrwt>
<pdfrwt beam="1">  1       -4 0.39013659E-01 0.12775450E+03</pdfrwt>
<totfact> 0.33690153E+04</totfact>
</mgrwt>
</event>
<event>
 6    4  0.3189516E-003  0.1279483E+03  0.7818608E-02  0.1230532E+00
         21   -1    0    0  501  502  0.00000000000E+00  0.00000000000E+00  0.64758344546E+02  0.64758344546E+02  0.00000000000E+00 0. -1.
         -4   -1    0    0    0  501 -0.00000000000E+00 -0.00000000000E+00 -0.13096448706E+03  0.13097064469E+03  0.12700000000E+01 0.  1.
         25    2    1    2    0    0  0.68298890969E+00  0.27306508489E+02 -0.92430174925E+02  0.15784199074E+03  0.12499857968E+03 0.  0.
    9000005    1    3    3    0    0  0.95408036354E+01 -0.19859920750E+02  0.23583672102E+02  0.32289827749E+02  0.10000000000E+01 0.  0.
    9000005    1    3    3    0    0 -0.88578147257E+01  0.47166429239E+02 -0.11601384703E+03  0.12555216299E+03  0.10000000000E+01 0.  0.
         -4    1    1    2    0  502 -0.68298890969E+00 -0.27306508489E+02  0.26224032410E+02  0.37886998503E+02  0.12700000000E+01 0. -1.
<mgrwt>
<rscale>  1 0.12794826E+03</rscale>
<asrwt>0</asrwt>
<pdfrwt beam="1">  1       21 0.99628223E-02 0.12794826E+03</pdfrwt>
<pdfrwt beam="2">  1       -4 0.20149814E-01 0.12794826E+03</pdfrwt>
<totfact> 0.72797572E+04</totfact>
</mgrwt>
</event>
<event>
 6    4  0.3189516E-003  0.1296063E+03  0.7818608E-02  0.1228041E+00
         21   -1    0    0  501  502  0.00000000000E+00  0.00000000000E+00  0.12936694897E+03  0.12936694897E+03  0.00000000000E+00 0.  1.
          4   -1    0    0  502    0 -0.00000000000E+00 -0.00000000000E+00 -0.14575996860E+03  0.14576550122E+03  0.12700000000E+01 0. -1.
         25    2    1    2    0    0 -0.10398094684E+02  0.32649022519E+02 -0.11341924479E+03  0.17222579194E+03  0.12499487700E+03 0.  0.
    9000005    1    3    3    0    0 -0.16204310832E+02 -0.43225177711E+02 -0.72132568362E+02  0.85645216423E+02  0.10000000000E+01 0.  0.
    9000005    1    3    3    0    0  0.58062161481E+01  0.75874200230E+02 -0.41286676426E+02  0.86580575517E+02  0.10000000000E+01 0.  0.
          4    1    1    2  501    0  0.10398094684E+02 -0.32649022519E+02  0.97026225160E+02  0.10290665826E+03  0.12700000000E+01 0.  1.
<mgrwt>
<rscale>  1 0.12960632E+03</rscale>
<asrwt>0</asrwt>
<pdfrwt beam="1">  1       21 0.19902608E-01 0.12960632E+03</pdfrwt>
<pdfrwt beam="2">  1        4 0.22425516E-01 0.12960632E+03</pdfrwt>
<totfact> 0.17348181E+04</totfact>
</mgrwt>
</event>
<event>
 6    4  0.3189516E-003  0.1275966E+03  0.7818608E-02  0.1231066E+00
         -4   -1    0    0    0  501 -0.00000000000E+00  0.00000000000E+00  0.20761813890E+02  0.20800620568E+02  0.12700000000E+01 0. -1.
         21   -1    0    0  501  502  0.00000000000E+00 -0.00000000000E+00 -0.31728756799E+03  0.31728756799E+03  0.00000000000E+00 0. -1.
         25    2    1    2    0    0  0.25479285426E+02 -0.26274283612E+01 -0.19250432482E+03  0.23095197613E+03  0.12499921134E+03 0.  0.
    9000005    1    3    3    0    0  0.81061156390E+01  0.49576345802E+02 -0.15848174318E+03  0.16625578515E+03  0.10000000000E+01 0.  0.
    9000005    1    3    3    0    0  0.17373169787E+02 -0.52203774163E+02 -0.34022581644E+02  0.64696190978E+02  0.10000000000E+01 0.  0.
         -4    1    1    2    0  502 -0.25479285426E+02  0.26274283612E+01 -0.10402142927E+03  0.10713621243E+03  0.12700000000E+01 0.  1.
<mgrwt>
<rscale>  1 0.12759663E+03</rscale>
<asrwt>0</asrwt>
<pdfrwt beam="2">  1       21 0.48813472E-01 0.12759663E+03</pdfrwt>
<pdfrwt beam="1">  1       -4 0.31973059E-02 0.12759663E+03</pdfrwt>
<totfact> 0.78853929E+04</totfact>
</mgrwt>
</event>
<event>
 6    4  0.3189516E-003  0.1273636E+03  0.7818608E-02  0.1231421E+00
         21   -1    0    0  501  502  0.00000000000E+00  0.00000000000E+00  0.49182805159E+02  0.49182805159E+02  0.00000000000E+00 0.  1.
         -4   -1    0    0    0  501 -0.00000000000E+00 -0.00000000000E+00 -0.19164731927E+03  0.19165152721E+03  0.12700000000E+01 0.  1.
         25    2    1    2    0    0  0.23208719853E+01 -0.24187025458E+02 -0.16447623448E+03  0.20802385568E+03  0.12502437433E+03 0.  0.
    9000005    1    3    3    0    0  0.43719478992E+02 -0.54549533583E+02 -0.12511559907E+03  0.14332465799E+03  0.10000000000E+01 0.  0.
    9000005    1    3    3    0    0 -0.41398607007E+02  0.30362508125E+02 -0.39360635409E+02  0.64699197689E+02  0.10000000000E+01 0.  0.
         -4    1    1    2    0  502 -0.23208719853E+01  0.24187025458E+02  0.22011720368E+02  0.32810476694E+02  0.12700000000E+01 0. -1.
<mgrwt>
<rscale>  1 0.12736362E+03</rscale>
<asrwt>0</asrwt>
<pdfrwt beam="1">  1       21 0.75665854E-02 0.12736362E+03</pdfrwt>
<pdfrwt beam="2">  1       -4 0.29485788E-01 0.12736362E+03</pdfrwt>
<totfact> 0.58186502E+04</totfact>
</mgrwt>
</event>
<event>
 6    4  0.3189516E-003  0.1509544E+03  0.7818608E-02  0.1199305E+00
         21   -1    0    0  501  502  0.00000000000E+00  0.00000000000E+00  0.43458697868E+03  0.43458697868E+03  0.00000000000E+00 0.  1.
         -4   -1    0    0    0  501 -0.00000000000E+00 -0.00000000000E+00 -0.61638335115E+02  0.61651417305E+02  0.12700000000E+01 0. -1.
         25    2    1    2    0    0  0.81052513696E+02 -0.24342928116E+02  0.44963642565E+02  0.15750861887E+03  0.12500059095E+03 0.  0.
    9000005    1    3    3    0    0  0.20140790284E+02 -0.12768898383E+02 -0.43416328351E+02  0.49544664361E+02  0.10000000000E+01 0.  0.
    9000005    1    3    3    0    0  0.60911723413E+02 -0.11574029734E+02  0.88379970916E+02  0.10796395451E+03  0.10000000000E+01 0.  0.
         -4    1    1    2    0  502 -0.81052513696E+02  0.24342928116E+02  0.32798500100E+03  0.33872977712E+03  0.12700000000E+01 0.  1.
<mgrwt>
<rscale>  1 0.15095442E+03</rscale>
<asrwt>0</asrwt>
<pdfrwt beam="1">  1       21 0.66859533E-01 0.15095442E+03</pdfrwt>
<pdfrwt beam="2">  1       -4 0.94839702E-02 0.15095442E+03</pdfrwt>
<totfact> 0.70750720E+03</totfact>
</mgrwt>
</event>
<event>
 6    4  0.3189516E-003  0.1268905E+03  0.7818608E-02  0.1232144E+00
         21   -1    0    0  501  502  0.00000000000E+00  0.00000000000E+00  0.12836940338E+02  0.12836940338E+02  0.00000000000E+00 0.  1.
          4   -1    0    0  502    0 -0.00000000000E+00 -0.00000000000E+00 -0.43089030784E+03  0.43089217942E+03  0.12700000000E+01 0.  1.
         25    2    1    2    0    0 -0.21645315533E+02 -0.27459412802E+01 -0.35790492874E+03  0.37973296782E+03  0.12500051582E+03 0.  0.
    9000005    1    3    3    0    0 -0.27464930884E+02  0.36873011588E+02 -0.45232661992E+02  0.64505310812E+02  0.10000000000E+01 0.  0.
    9000005    1    3    3    0    0  0.58196153508E+01 -0.39618952869E+02 -0.31267226675E+03  0.31522765701E+03  0.10000000000E+01 0.  0.
          4    1    1    2  501    0  0.21645315533E+02  0.27459412802E+01 -0.60148438754E+02  0.63996151936E+02  0.12700000000E+01 0. -1.
<mgrwt>
<rscale>  1 0.12689046E+03</rscale>
<asrwt>0</asrwt>
<pdfrwt beam="1">  1       21 0.19749138E-02 0.12689046E+03</pdfrwt>
<pdfrwt beam="2">  1        4 0.66295795E-01 0.12689046E+03</pdfrwt>
<totfact> 0.10705060E+05</totfact>
</mgrwt>
</event>
<event>
 6    4  0.3189516E-003  0.1276044E+03  0.7818608E-02  0.1231054E+00
          4   -1    0    0  502    0 -0.00000000000E+00  0.00000000000E+00  0.14547903012E+02  0.14603231904E+02  0.12700000000E+01 0.  1.
         21   -1    0    0  501  502  0.00000000000E+00 -0.00000000000E+00 -0.40371635914E+03  0.40371635914E+03  0.00000000000E+00 0.  1.
         25    2    1    2    0    0  0.14826671930E+01 -0.25606763144E+02 -0.31707145941E+03  0.34178532122E+03  0.12499996325E+03 0.  0.
    9000005    1    3    3    0    0 -0.53452659142E+02 -0.11707029867E+02 -0.23974945621E+03  0.24591674012E+03  0.10000000000E+01 0.  0.
    9000005    1    3    3    0    0  0.54935326335E+02 -0.13899733277E+02 -0.77322003195E+02  0.95868581103E+02  0.10000000000E+01 0.  0.
          4    1    1    2  501    0 -0.14826671930E+01  0.25606763144E+02 -0.72096996716E+02  0.76534269816E+02  0.12700000000E+01 0. -1.
<mgrwt>
<rscale>  1 0.12760445E+03</rscale>
<asrwt>0</asrwt>
<pdfrwt beam="2">  1       21 0.62110219E-01 0.12760445E+03</pdfrwt>
<pdfrwt beam="1">  1        4 0.22425483E-02 0.12760445E+03</pdfrwt>
<totfact> 0.82713314E+04</totfact>
</mgrwt>
</event>
<event>
 6    4  0.3189516E-003  0.1281898E+03  0.7818608E-02  0.1230167E+00
         -4   -1    0    0    0  501 -0.00000000000E+00  0.00000000000E+00  0.10395155408E+03  0.10395931173E+03  0.12700000000E+01 0. -1.
         21   -1    0    0  501  502  0.00000000000E+00 -0.00000000000E+00 -0.60274790910E+02  0.60274790910E+02  0.00000000000E+00 0. -1.
         25    2    1    2    0    0 -0.26327506250E+02 -0.10632380006E+02  0.44793025866E+02  0.13579040329E+03  0.12500573335E+03 0.  0.
    9000005    1    3    3    0    0 -0.68599983976E+02  0.24374407070E+02  0.31366258137E+02  0.79277434816E+02  0.10000000000E+01 0.  0.
    9000005    1    3    3    0    0  0.42272477726E+02 -0.35006787076E+02  0.13426767729E+02  0.56512968478E+02  0.10000000000E+01 0.  0.
         -4    1    1    2    0  502  0.26327506250E+02  0.10632380006E+02 -0.11162626993E+01  0.28443699343E+02  0.12700000000E+01 0.  1.
<mgrwt>
<rscale>  1 0.12818978E+03</rscale>
<asrwt>0</asrwt>
<pdfrwt beam="2">  1       21 0.92730448E-02 0.12818978E+03</pdfrwt>
<pdfrwt beam="1">  1       -4 0.15994173E-01 0.12818978E+03</pdfrwt>
<totfact> 0.12437605E+05</totfact>
</mgrwt>
</event>
<event>
 6    4  0.3189516E-003  0.1284566E+03  0.7818608E-02  0.1229764E+00
         21   -1    0    0  501  502  0.00000000000E+00  0.00000000000E+00  0.49545493566E+02  0.49545493566E+02  0.00000000000E+00 0. -1.
         -4   -1    0    0    0  501 -0.00000000000E+00 -0.00000000000E+00 -0.12833302411E+03  0.12833930800E+03  0.12700000000E+01 0. -1.
         25    2    1    2    0    0  0.22556307719E+02  0.19270894749E+02 -0.54570783756E+02  0.13956746701E+03  0.12498381098E+03 0.  0.
    9000005    1    3    3    0    0 -0.15541489389E+02 -0.39854664107E+02  0.10153060619E+02  0.43977457674E+02  0.10000000000E+01 0.  0.
    9000005    1    3    3    0    0  0.38097797108E+02  0.59125558856E+02 -0.64723844376E+02  0.95590009338E+02  0.10000000000E+01 0.  0.
         -4    1    1    2    0  502 -0.22556307719E+02 -0.19270894749E+02 -0.24216746792E+02  0.38317334556E+02  0.12700000000E+01 0.  1.
<mgrwt>
<rscale>  1 0.12845664E+03</rscale>
<asrwt>0</asrwt>
<pdfrwt beam="1">  1       21 0.76223838E-02 0.12845664E+03</pdfrwt>
<pdfrwt beam="2">  1       -4 0.19745277E-01 0.12845664E+03</pdfrwt>
<totfact> 0.12015944E+05</totfact>
</mgrwt>
</event>
<event>
 6    4  0.3189516E-003  0.1282428E+03  0.7818608E-02  0.1230087E+00
         -4   -1    0    0    0  501 -0.00000000000E+00  0.00000000000E+00  0.18424562711E+04  0.18424567088E+04  0.12700000000E+01 0. -1.
         21   -1    0    0  501  502  0.00000000000E+00 -0.00000000000E+00 -0.69255138172E+01  0.69255138172E+01  0.00000000000E+00 0.  1.
         25    2    1    2    0    0  0.27834553550E+02 -0.67596213280E+01  0.17958697960E+04  0.18004428764E+04  0.12500308964E+03 0.  0.
    9000005    1    3    3    0    0  0.44796079248E+02  0.41058617603E+02  0.51587496760E+03  0.51944247130E+03  0.10000000000E+01 0.  0.
    9000005    1    3    3    0    0 -0.16961525698E+02 -0.47818238931E+02  0.12799948284E+04  0.12810004051E+04  0.10000000000E+01 0.  0.
         -4    1    1    2    0  502 -0.27834553550E+02  0.67596213280E+01  0.39660961321E+02  0.48939346182E+02  0.12700000000E+01 0.  1.
<mgrwt>
<rscale>  1 0.12824284E+03</rscale>
<asrwt>0</asrwt>
<pdfrwt beam="2">  1       21 0.10654651E-02 0.12824284E+03</pdfrwt>
<pdfrwt beam="1">  1       -4 0.28346341E+00 0.12824284E+03</pdfrwt>
<totfact> 0.65068196E+03</totfact>
</mgrwt>
</event>
<event>
 6    4  0.3189516E-003  0.1267342E+03  0.7818608E-02  0.1232384E+00
         21   -1    0    0  501  502  0.00000000000E+00  0.00000000000E+00  0.45027502175E+02  0.45027502175E+02  0.00000000000E+00 0.  1.
          4   -1    0    0  502    0 -0.00000000000E+00 -0.00000000000E+00 -0.32035470179E+03  0.32035721915E+03  0.12700000000E+01 0. -1.
         25    2    1    2    0    0 -0.13765565790E+02  0.15802471105E+02 -0.30428151453E+03  0.32961917720E+03  0.12498941155E+03 0.  0.
    9000005    1    3    3    0    0  0.16937120235E+02  0.65850990019E+02 -0.16136276398E+03  0.17510614074E+03  0.10000000000E+01 0.  0.
    9000005    1    3    3    0    0 -0.30702686025E+02 -0.50048518915E+02 -0.14291875055E+03  0.15451303645E+03  0.10000000000E+01 0.  0.
          4    1    1    2  501    0  0.13765565790E+02 -0.15802471105E+02  0.28954314911E+02  0.35765544125E+02  0.12700000000E+01 0.  1.
<mgrwt>
<rscale>  1 0.12673422E+03</rscale>
<asrwt>0</asrwt>
<pdfrwt beam="1">  1       21 0.69273081E-02 0.12673422E+03</pdfrwt>
<pdfrwt beam="2">  1        4 0.49286909E-01 0.12673422E+03</pdfrwt>
<totfact> 0.24804249E+04</totfact>
</mgrwt>
</event>
<event>
 6    4  0.3189516E-003  0.1271814E+03  0.7818608E-02  0.1231699E+00
         -4   -1    0    0    0  501 -0.00000000000E+00  0.00000000000E+00  0.69359141793E+01  0.70512272338E+01  0.12700000000E+01 0. -1.
         21   -1    0    0  501  502  0.00000000000E+00 -0.00000000000E+00 -0.11509195297E+04  0.11509195297E+04  0.00000000000E+00 0. -1.
         25    2    1    2    0    0 -0.20488951725E+02  0.11409172499E+02 -0.59291661392E+03  0.60640351759E+03  0.12500059491E+03 0.  0.
    9000005    1    3    3    0    0 -0.29474171176E+02  0.62252260271E+02 -0.23863951200E+03  0.24838254238E+03  0.10000000000E+01 0.  0.
    9000005    1    3    3    0    0  0.89852194506E+01 -0.50843087772E+02 -0.35427710192E+03  0.35802097521E+03  0.10000000000E+01 0.  0.
         -4    1    1    2    0  502  0.20488951725E+02 -0.11409172499E+02 -0.55106700164E+03  0.55156723938E+03  0.12700000000E+01 0.  1.
<mgrwt>
<rscale>  1 0.12718143E+03</rscale>
<asrwt>0</asrwt>
<pdfrwt beam="2">  1       21 0.17706455E+00 0.12718143E+03</pdfrwt>
<pdfrwt beam="1">  1       -4 0.10759878E-02 0.12718143E+03</pdfrwt>
<totfact> 0.20810527E+04</totfact>
</mgrwt>
</event>
<event>
 6    4  0.3189516E-003  0.1281475E+03  0.7818608E-02  0.1230231E+00
         21   -1    0    0  501  502  0.00000000000E+00  0.00000000000E+00  0.45234850350E+03  0.45234850350E+03  0.00000000000E+00 0. -1.
          4   -1    0    0  502    0 -0.00000000000E+00 -0.00000000000E+00 -0.15117941666E+02  0.15171191787E+02  0.12700000000E+01 0. -1.
         25    2    1    2    0    0 -0.27532045228E+02  0.62493617505E+01  0.28218561995E+03  0.30992015551E+03  0.12499884257E+03 0.  0.
    9000005    1    3    3    0    0  0.26744557742E+02  0.37222626071E+02  0.20763769249E+03  0.21263867617E+03  0.10000000000E+01 0.  0.
    9000005    1    3    3    0    0 -0.54276602970E+02 -0.30973264320E+02  0.74547927461E+02  0.97281479334E+02  0.10000000000E+01 0.  0.
          4    1    1    2  501    0  0.27532045228E+02 -0.62493617505E+01  0.15504494188E+03  0.15759953978E+03  0.12700000000E+01 0.  1.
<mgrwt>
<rscale>  1 0.12814749E+03</rscale>
<asrwt>0</asrwt>
<pdfrwt beam="1">  1       21 0.69592067E-01 0.12814749E+03</pdfrwt>
<pdfrwt beam="2">  1        4 0.23300708E-02 0.12814749E+03</pdfrwt>
<totfact> 0.61031985E+04</totfact>
</mgrwt>
</event>
<event>
 6    4  0.3189516E-003  0.1287002E+03  0.7818608E-02  0.1229397E+00
         21   -1    0    0  501  502  0.00000000000E+00  0.00000000000E+00  0.44038837925E+03  0.44038837925E+03  0.00000000000E+00 0.  1.
          4   -1    0    0  502    0 -0.00000000000E+00 -0.00000000000E+00 -0.62661160505E+02  0.62674029198E+02  0.12700000000E+01 0. -1.
         25    2    1    2    0    0  0.21726561708E+02  0.21625868523E+02  0.47108911993E+01  0.12878642045E+03  0.12499611164E+03 0.  0.
    9000005    1    3    3    0    0  0.59194972408E+02  0.26785909699E+02  0.40612739165E+02  0.76628482298E+02  0.10000000000E+01 0.  0.
    9000005    1    3    3    0    0 -0.37468410700E+02 -0.51600411761E+01 -0.35901847965E+02  0.52157938156E+02  0.10000000000E+01 0.  0.
          4    1    1    2  501    0 -0.21726561708E+02 -0.21625868523E+02  0.37301632754E+03  0.37427598799E+03  0.12700000000E+01 0.  1.
<mgrwt>
<rscale>  1 0.12870023E+03</rscale>
<asrwt>0</asrwt>
<pdfrwt beam="1">  1       21 0.67752056E-01 0.12870023E+03</pdfrwt>
<pdfrwt beam="2">  1        4 0.96413096E-02 0.12870023E+03</pdfrwt>
<totfact> 0.66242502E+03</totfact>
</mgrwt>
</event>
<event>
 6    4  0.3189516E-003  0.1277608E+03  0.7818608E-02  0.1230817E+00
         21   -1    0    0  501  502  0.00000000000E+00  0.00000000000E+00  0.28315879527E+02  0.28315879527E+02  0.00000000000E+00 0.  1.
         -4   -1    0    0    0  501 -0.00000000000E+00 -0.00000000000E+00 -0.25025567903E+03  0.25025890151E+03  0.12700000000E+01 0.  1.
         25    2    1    2    0    0 -0.23272545828E+02  0.12517579610E+02 -0.21676944473E+03  0.25161839669E+03  0.12499809678E+03 0.  0.
    9000005    1    3    3    0    0 -0.50264320289E+02  0.25073956241E+02 -0.21451205887E+03  0.22174676678E+03  0.10000000000E+01 0.  0.
    9000005    1    3    3    0    0  0.26991774460E+02 -0.12556376632E+02 -0.22573858548E+01  0.29871629911E+02  0.10000000000E+01 0.  0.
         -4    1    1    2    0  502  0.23272545828E+02 -0.12517579610E+02 -0.51703547751E+01  0.26956384348E+02  0.12700000000E+01 0. -1.
<mgrwt>
<rscale>  1 0.12776081E+03</rscale>
<asrwt>0</asrwt>
<pdfrwt beam="1">  1       21 0.43562889E-02 0.12776081E+03</pdfrwt>
<pdfrwt beam="2">  1       -4 0.38503315E-01 0.12776081E+03</pdfrwt>
<totfact> 0.88805010E+04</totfact>
</mgrwt>
</event>
<event>
 6    4  0.3189516E-003  0.1279369E+03  0.7818608E-02  0.1230550E+00
         21   -1    0    0  501  502  0.00000000000E+00  0.00000000000E+00  0.21454211613E+03  0.21454211613E+03  0.00000000000E+00 0.  1.
          4   -1    0    0  502    0 -0.00000000000E+00 -0.00000000000E+00 -0.89101276650E+02  0.89110327127E+02  0.12700000000E+01 0. -1.
         25    2    1    2    0    0  0.24783196586E+02 -0.11349747288E+02 -0.41497411099E+02  0.13449861976E+03  0.12499927997E+03 0.  0.
    9000005    1    3    3    0    0  0.42606616888E+02 -0.47964339613E+02  0.13983919973E+02  0.65669259894E+02  0.10000000000E+01 0.  0.
    9000005    1    3    3    0    0 -0.17823420302E+02  0.36614592325E+02 -0.55481331072E+02  0.68829359868E+02  0.10000000000E+01 0.  0.
          4    1    1    2  501    0 -0.24783196586E+02  0.11349747288E+02  0.16693825058E+03  0.16915382350E+03  0.12700000000E+01 0.  1.
<mgrwt>
<rscale>  1 0.12793687E+03</rscale>
<asrwt>0</asrwt>
<pdfrwt beam="1">  1       21 0.33006479E-01 0.12793687E+03</pdfrwt>
<pdfrwt beam="2">  1        4 0.13708874E-01 0.12793687E+03</pdfrwt>
<totfact> 0.15884976E+04</totfact>
</mgrwt>
</event>
<event>
 6    4  0.3189516E-003  0.1275146E+03  0.7818608E-02  0.1231191E+00
         -4   -1    0    0    0  501 -0.00000000000E+00  0.00000000000E+00  0.76979341190E+01  0.78019926750E+01  0.12700000000E+01 0. -1.
         21   -1    0    0  501  502  0.00000000000E+00 -0.00000000000E+00 -0.96858667507E+03  0.96858667507E+03  0.00000000000E+00 0. -1.
         25    2    1    2    0    0  0.23868751434E+02  0.80896179587E+01 -0.91650334374E+03  0.92533148804E+03  0.12499929783E+03 0.  0.
    9000005    1    3    3    0    0  0.46101589783E+01 -0.19462288280E+02 -0.20362618683E+02  0.28559945212E+02  0.10000000000E+01 0.  0.
    9000005    1    3    3    0    0  0.19258592456E+02  0.27551906239E+02 -0.89614072506E+03  0.89677154283E+03  0.10000000000E+01 0.  0.
         -4    1    1    2    0  502 -0.23868751434E+02 -0.80896179587E+01 -0.44385397207E+02  0.51057179700E+02  0.12700000000E+01 0.  1.
<mgrwt>
<rscale>  1 0.12751464E+03</rscale>
<asrwt>0</asrwt>
<pdfrwt beam="2">  1       21 0.14901328E+00 0.12751464E+03</pdfrwt>
<pdfrwt beam="1">  1       -4 0.11923665E-02 0.12751464E+03</pdfrwt>
<totfact> 0.28209022E+04</totfact>
</mgrwt>
</event>
<event>
 6    4  0.3189516E-003  0.1280897E+03  0.7818608E-02  0.1230318E+00
         21   -1    0    0  501  502  0.00000000000E+00  0.00000000000E+00  0.31715014723E+02  0.31715014723E+02  0.00000000000E+00 0.  1.
         -4   -1    0    0    0  501 -0.00000000000E+00 -0.00000000000E+00 -0.19297962580E+03  0.19298380469E+03  0.12700000000E+01 0.  1.
         25    2    1    2    0    0  0.18623214463E+01 -0.27891161204E+02 -0.12592101282E+03  0.17961924586E+03  0.12500234757E+03 0.  0.
    9000005    1    3    3    0    0 -0.91355472448E+01 -0.57948401476E+01  0.24701158504E+02  0.26984914809E+02  0.10000000000E+01 0.  0.
    9000005    1    3    3    0    0  0.10997868691E+02 -0.22096321057E+02 -0.15062217133E+03  0.15263433105E+03  0.10000000000E+01 0.  0.
         -4    1    1    2    0  502 -0.18623214463E+01  0.27891161204E+02 -0.35343598253E+02  0.45079573556E+02  0.12700000000E+01 0. -1.
<mgrwt>
<rscale>  1 0.12808970E+03</rscale>
<asrwt>0</asrwt>
<pdfrwt beam="1">  1       21 0.48792332E-02 0.12808970E+03</pdfrwt>
<pdfrwt beam="2">  1       -4 0.29691450E-01 0.12808970E+03</pdfrwt>
<totfact> 0.12100902E+05</totfact>
</mgrwt>
</event>
<event>
 6    4  0.3189516E-003  0.1274956E+03  0.7818608E-02  0.1231220E+00
         -4   -1    0    0    0  501 -0.00000000000E+00  0.00000000000E+00  0.14489654715E+02  0.14545205182E+02  0.12700000000E+01 0.  1.
         21   -1    0    0  501  502  0.00000000000E+00 -0.00000000000E+00 -0.14086620279E+04  0.14086620279E+04  0.00000000000E+00 0. -1.
         25    2    1    2    0    0  0.17314586058E+02 -0.18172892420E+02 -0.26827772562E+03  0.29703210494E+03  0.12500033759E+03 0.  0.
    9000005    1    3    3    0    0 -0.34861807664E+02 -0.48702850509E+02 -0.84606481918E+02  0.10366566483E+03  0.10000000000E+01 0.  0.
    9000005    1    3    3    0    0  0.52176393722E+02  0.30529958089E+02 -0.18367124370E+03  0.19336644012E+03  0.10000000000E+01 0.  0.
         -4    1    1    2    0  502 -0.17314586058E+02  0.18172892420E+02 -0.11258946475E+04  0.11261751281E+04  0.12700000000E+01 0. -1.
<mgrwt>
<rscale>  1 0.12749562E+03</rscale>
<asrwt>0</asrwt>
<pdfrwt beam="2">  1       21 0.21671727E+00 0.12749562E+03</pdfrwt>
<pdfrwt beam="1">  1       -4 0.22334944E-02 0.12749562E+03</pdfrwt>
<totfact> 0.38261996E+03</totfact>
</mgrwt>
</event>
<event>
 6    4  0.3189516E-003  0.1293078E+03  0.7818608E-02  0.1228487E+00
         -4   -1    0    0    0  501 -0.00000000000E+00  0.00000000000E+00  0.83017485201E+02  0.83027198852E+02  0.12700000000E+01 0. -1.
         21   -1    0    0  501  502  0.00000000000E+00 -0.00000000000E+00 -0.10309298255E+03  0.10309298255E+03  0.00000000000E+00 0. -1.
         25    2    1    2    0    0  0.15467280914E+02 -0.29203955735E+02  0.23489949996E+02  0.13142403061E+03  0.12501356031E+03 0.  0.
    9000005    1    3    3    0    0 -0.16302468354E+02  0.39666169062E+02  0.34145727942E+02  0.54827968949E+02  0.10000000000E+01 0.  0.
    9000005    1    3    3    0    0  0.31769749268E+02 -0.68870124796E+02 -0.10655777946E+02  0.76596061659E+02  0.10000000000E+01 0.  0.
         -4    1    1    2    0  502 -0.15467280914E+02  0.29203955735E+02 -0.43565447349E+02  0.54696150798E+02  0.12700000000E+01 0.  1.
<mgrwt>
<rscale>  1 0.12930776E+03</rscale>
<asrwt>0</asrwt>
<pdfrwt beam="2">  1       21 0.15860459E-01 0.12930776E+03</pdfrwt>
<pdfrwt beam="1">  1       -4 0.12773270E-01 0.12930776E+03</pdfrwt>
<totfact> 0.71011758E+04</totfact>
</mgrwt>
</event>
<event>
 6    4  0.3189516E-003  0.1281579E+03  0.7818608E-02  0.1230215E+00
         -4   -1    0    0    0  501 -0.00000000000E+00  0.00000000000E+00  0.13153650523E+02  0.13214818276E+02  0.12700000000E+01 0. -1.
         21   -1    0    0  501  502  0.00000000000E+00 -0.00000000000E+00 -0.92519750106E+03  0.92519750106E+03  0.00000000000E+00 0.  1.
         25    2    1    2    0    0 -0.12898900340E+02  0.25117903057E+02 -0.30657409295E+03  0.33228318216E+03  0.12500859168E+03 0.  0.
    9000005    1    3    3    0    0  0.91578159452E+00  0.75270635718E+02 -0.16218667547E+03  0.17880722849E+03  0.10000000000E+01 0.  0.
    9000005    1    3    3    0    0 -0.13814681935E+02 -0.50152732661E+02 -0.14438741748E+03  0.15347595367E+03  0.10000000000E+01 0.  0.
         -4    1    1    2    0  502  0.12898900340E+02 -0.25117903057E+02 -0.60546975758E+03  0.60612913717E+03  0.12700000000E+01 0.  1.
<mgrwt>
<rscale>  1 0.12815787E+03</rscale>
<asrwt>0</asrwt>
<pdfrwt beam="2">  1       21 0.14233806E+00 0.12815787E+03</pdfrwt>
<pdfrwt beam="1">  1       -4 0.20284110E-02 0.12815787E+03</pdfrwt>
<totfact> 0.14117826E+04</totfact>
</mgrwt>
</event>
<event>
 6    4  0.3189516E-003  0.1288311E+03  0.7818608E-02  0.1229201E+00
          4   -1    0    0  502    0 -0.00000000000E+00  0.00000000000E+00  0.10111949111E+03  0.10112746602E+03  0.12700000000E+01 0.  1.
         21   -1    0    0  501  502  0.00000000000E+00 -0.00000000000E+00 -0.82657871997E+02  0.82657871997E+02  0.00000000000E+00 0.  1.
         25    2    1    2    0    0  0.92134905563E+01  0.29776415331E+02  0.51137870029E+02  0.13860930906E+03  0.12500374190E+03 0.  0.
    9000005    1    3    3    0    0 -0.52073795944E+02  0.41050994930E+02  0.22589583254E+02  0.70058216365E+02  0.10000000000E+01 0.  0.
    9000005    1    3    3    0    0  0.61287286500E+02 -0.11274579599E+02  0.28548286775E+02  0.68551092693E+02  0.10000000000E+01 0.  0.
          4    1    1    2  501    0 -0.92134905563E+01 -0.29776415331E+02 -0.32676250914E+02  0.45176028953E+02  0.12700000000E+01 0. -1.
<mgrwt>
<rscale>  1 0.12883113E+03</rscale>
<asrwt>0</asrwt>
<pdfrwt beam="2">  1       21 0.12716596E-01 0.12883113E+03</pdfrwt>
<pdfrwt beam="1">  1        4 0.15558209E-01 0.12883113E+03</pdfrwt>
<totfact> 0.74956105E+04</totfact>
</mgrwt>
</event>
<event>
 6    4  0.3189516E-003  0.1293626E+03  0.7818608E-02  0.1228405E+00
         21   -1    0    0  501  502  0.00000000000E+00  0.00000000000E+00  0.26448997301E+03  0.26448997301E+03  0.00000000000E+00 0.  1.
         -4   -1    0    0    0  501 -0.00000000000E+00 -0.00000000000E+00 -0.25496143992E+02  0.25527754669E+02  0.12700000000E+01 0.  1.
         25    2    1    2    0    0 -0.32625722905E+02 -0.67448187278E+01  0.17232815448E+03  0.21548011679E+03  0.12499903013E+03 0.  0.
    9000005    1    3    3    0    0 -0.26788279667E+02  0.22364466261E+02 -0.53651646970E+01  0.35320904163E+02  0.10000000000E+01 0.  0.
    9000005    1    3    3    0    0 -0.58374432373E+01 -0.29109284988E+02  0.17769331917E+03  0.18015921263E+03  0.10000000000E+01 0.  0.
         -4    1    1    2    0  502  0.32625722905E+02  0.67448187278E+01  0.66665674546E+02  0.74537610892E+02  0.12700000000E+01 0. -1.
<mgrwt>
<rscale>  1 0.12936262E+03</rscale>
<asrwt>0</asrwt>
<pdfrwt beam="1">  1       21 0.40690763E-01 0.12936262E+03</pdfrwt>
<pdfrwt beam="2">  1       -4 0.39251500E-02 0.12936262E+03</pdfrwt>
<totfact> 0.82697464E+04</totfact>
</mgrwt>
</event>
<event>
 6    4  0.3189516E-003  0.1444154E+03  0.7818608E-02  0.1207508E+00
          4   -1    0    0  502    0 -0.00000000000E+00  0.00000000000E+00  0.16500039386E+04  0.16500044273E+04  0.12700000000E+01 0. -1.
         21   -1    0    0  501  502  0.00000000000E+00 -0.00000000000E+00 -0.71621387654E+01  0.71621387654E+01  0.00000000000E+00 0. -1.
         25    2    1    2    0    0 -0.66358118388E+02 -0.28843425996E+02  0.11526988353E+04  0.11617101284E+04  0.12498189637E+03 0.  0.
    9000005    1    3    3    0    0 -0.61510309502E+02  0.39025276663E+02  0.46776924961E+03  0.47340845079E+03  0.10000000000E+01 0.  0.
    9000005    1    3    3    0    0 -0.48478088861E+01 -0.67868702659E+02  0.68492958565E+03  0.68830167758E+03  0.10000000000E+01 0.  0.
          4    1    1    2  501    0  0.66358118388E+02  0.28843425996E+02  0.49014296454E+03  0.49545643773E+03  0.12700000000E+01 0.  1.
<mgrwt>
<rscale>  1 0.14441543E+03</rscale>
<asrwt>0</asrwt>
<pdfrwt beam="2">  1       21 0.11018688E-02 0.14441543E+03</pdfrwt>
<pdfrwt beam="1">  1        4 0.25385516E+00 0.14441543E+03</pdfrwt>
<totfact> 0.91848412E+03</totfact>
</mgrwt>
</event>
<event>
 6    4  0.3189516E-003  0.1271326E+03  0.7818608E-02  0.1231774E+00
         21   -1    0    0  501  502  0.00000000000E+00  0.00000000000E+00  0.33235290195E+02  0.33235290195E+02  0.00000000000E+00 0.  1.
         -4   -1    0    0    0  501 -0.00000000000E+00 -0.00000000000E+00 -0.17585187183E+03  0.17585645773E+03  0.12700000000E+01 0.  1.
         25    2    1    2    0    0  0.33018170639E+01 -0.22925785605E+02 -0.13297634204E+03  0.18397122323E+03  0.12500483908E+03 0.  0.
    9000005    1    3    3    0    0  0.36265863373E+02  0.20105082308E+02 -0.12192945563E+01  0.41495949923E+02  0.10000000000E+01 0.  0.
    9000005    1    3    3    0    0 -0.32964046309E+02 -0.43030867914E+02 -0.13175704749E+03  0.14247527331E+03  0.10000000000E+01 0.  0.
         -4    1    1    2    0  502 -0.33018170639E+01  0.22925785605E+02 -0.96402395917E+01  0.25120524694E+02  0.12700000000E+01 0. -1.
<mgrwt>
<rscale>  1 0.12713262E+03</rscale>
<asrwt>0</asrwt>
<pdfrwt beam="1">  1       21 0.51131216E-02 0.12713262E+03</pdfrwt>
<pdfrwt beam="2">  1       -4 0.27056353E-01 0.12713262E+03</pdfrwt>
<totfact> 0.13298305E+05</totfact>
</mgrwt>
</event>
<event>
 6    4  0.3189516E-003  0.1366138E+03  0.7818608E-02  0.1217959E+00
         21   -1    0    0  501  502  0.00000000000E+00  0.00000000000E+00  0.12443399226E+03  0.12443399226E+03  0.00000000000E+00 0. -1.
          4   -1    0    0  502    0 -0.00000000000E+00 -0.00000000000E+00 -0.11270847645E+03  0.11271563141E+03  0.12700000000E+01 0.  1.
         25    2    1    2    0    0  0.48711381966E+02  0.25788103594E+02 -0.57868429439E+02  0.14836474244E+03  0.12500206660E+03 0.  0.
    9000005    1    3    3    0    0  0.70471955077E+02 -0.16850193894E+02  0.10136249593E+01  0.72472428703E+02  0.10000000000E+01 0.  0.
    9000005    1    3    3    0    0 -0.21760573110E+02  0.42638297488E+02 -0.58882054399E+02  0.75892313741E+02  0.10000000000E+01 0.  0.
          4    1    1    2  501    0 -0.48711381966E+02 -0.25788103594E+02  0.69593945242E+02  0.88784881227E+02  0.12700000000E+01 0. -1.
<mgrwt>
<rscale>  1 0.13661384E+03</rscale>
<asrwt>0</asrwt>
<pdfrwt beam="1">  1       21 0.19143691E-01 0.13661384E+03</pdfrwt>
<pdfrwt beam="2">  1        4 0.17340815E-01 0.13661384E+03</pdfrwt>
<totfact> 0.29734356E+04</totfact>
</mgrwt>
</event>
<event>
 6    4  0.3189516E-003  0.1275798E+03  0.7818608E-02  0.1231092E+00
         21   -1    0    0  501  502  0.00000000000E+00  0.00000000000E+00  0.63816292183E+02  0.63816292183E+02  0.00000000000E+00 0.  1.
          4   -1    0    0  502    0 -0.00000000000E+00 -0.00000000000E+00 -0.10112759851E+03  0.10113557278E+03  0.12700000000E+01 0.  1.
         25    2    1    2    0    0  0.17651104337E+02 -0.18447552789E+02 -0.49227221769E+02  0.13674768745E+03  0.12499894788E+03 0.  0.
    9000005    1    3    3    0    0  0.61615229495E+02  0.24225797360E+02 -0.23018597251E+02  0.70101223833E+02  0.10000000000E+01 0.  0.
    9000005    1    3    3    0    0 -0.43964125157E+02 -0.42673350149E+02 -0.26208624518E+02  0.66646463619E+02  0.10000000000E+01 0.  0.
          4    1    1    2  501    0 -0.17651104337E+02  0.18447552789E+02  0.11915915439E+02  0.28204177509E+02  0.12700000000E+01 0. -1.
<mgrwt>
<rscale>  1 0.12757982E+03</rscale>
<asrwt>0</asrwt>
<pdfrwt beam="1">  1       21 0.98178912E-02 0.12757982E+03</pdfrwt>
<pdfrwt beam="2">  1        4 0.15559677E-01 0.12757982E+03</pdfrwt>
<totfact> 0.11807479E+05</totfact>
</mgrwt>
</event>
<event>
 6    4  0.3189516E-003  0.1269719E+03  0.7818608E-02  0.1232019E+00
         21   -1    0    0  501  502  0.00000000000E+00  0.00000000000E+00  0.68247333195E+01  0.68247333195E+01  0.00000000000E+00 0.  1.
         -4   -1    0    0    0  501 -0.00000000000E+00 -0.00000000000E+00 -0.92980585407E+03  0.92980672140E+03  0.12700000000E+01 0.  1.
         25    2    1    2    0    0 -0.10648852775E+02 -0.19590091774E+02 -0.86877979897E+03  0.87800922392E+03  0.12499875372E+03 0.  0.
    9000005    1    3    3    0    0 -0.28338958735E+02  0.34302758273E+02 -0.13730793856E+03  0.14434072814E+03  0.10000000000E+01 0.  0.
    9000005    1    3    3    0    0  0.17690105960E+02 -0.53892850047E+02 -0.73147186041E+03  0.73366849579E+03  0.10000000000E+01 0.  0.
         -4    1    1    2    0  502  0.10648852775E+02  0.19590091774E+02 -0.54201321773E+02  0.58622230793E+02  0.12700000000E+01 0. -1.
<mgrwt>
<rscale>  1 0.12697188E+03</rscale>
<asrwt>0</asrwt>
<pdfrwt beam="1">  1       21 0.10499594E-02 0.12697188E+03</pdfrwt>
<pdfrwt beam="2">  1       -4 0.14305615E+00 0.12697188E+03</pdfrwt>
<totfact> 0.49907402E+04</totfact>
</mgrwt>
</event>
<event>
 6    4  0.3189516E-003  0.1391471E+03  0.7818608E-02  0.1214481E+00
          4   -1    0    0  502    0 -0.00000000000E+00  0.00000000000E+00  0.19733424735E+02  0.19774249715E+02  0.12700000000E+01 0.  1.
         21   -1    0    0  501  502  0.00000000000E+00 -0.00000000000E+00 -0.50847046107E+03  0.50847046107E+03  0.00000000000E+00 0. -1.
         25    2    1    2    0    0  0.57002288205E+02  0.22105275060E+02 -0.34871048328E+03  0.37544761491E+03  0.12499602533E+03 0.  0.
    9000005    1    3    3    0    0  0.47039438805E+02  0.38722758191E+02 -0.58114910545E+02  0.84205128304E+02  0.10000000000E+01 0.  0.
    9000005    1    3    3    0    0  0.99628493998E+01 -0.16617483130E+02 -0.29059557273E+03  0.29124248661E+03  0.10000000000E+01 0.  0.
          4    1    1    2  501    0 -0.57002288205E+02 -0.22105275060E+02 -0.14002655306E+03  0.15279709587E+03  0.12700000000E+01 0. -1.
<mgrwt>
<rscale>  1 0.13914708E+03</rscale>
<asrwt>0</asrwt>
<pdfrwt beam="2">  1       21 0.78226220E-01 0.13914708E+03</pdfrwt>
<pdfrwt beam="1">  1        4 0.30391741E-02 0.13914708E+03</pdfrwt>
<totfact> 0.31435850E+04</totfact>
</mgrwt>
</event>
<event>
 6    4  0.3189516E-003  0.1869017E+03  0.7818608E-02  0.1161286E+00
         21   -1    0    0  501  502  0.00000000000E+00  0.00000000000E+00  0.41283268894E+02  0.41283268894E+02  0.00000000000E+00 0. -1.
          4   -1    0    0  502    0 -0.00000000000E+00 -0.00000000000E+00 -0.96276258053E+03  0.96276341817E+03  0.12700000000E+01 0.  1.
         25    2    1    2    0    0 -0.12052713301E+03 -0.69152179838E+02 -0.79321787180E+03  0.81493977652E+03  0.12499373358E+03 0.  0.
    9000005    1    3    3    0    0  0.87767974170E+00  0.16373696185E+02 -0.28487222340E+03  0.28534549570E+03  0.10000000000E+01 0.  0.
    9000005    1    3    3    0    0 -0.12140481275E+03 -0.85525876023E+02 -0.50834564840E+03  0.52959428082E+03  0.10000000000E+01 0.  0.
          4    1    1    2  501    0  0.12052713301E+03  0.69152179838E+02 -0.12826143983E+03  0.18910691055E+03  0.12700000000E+01 0. -1.
<mgrwt>
<rscale>  1 0.18690170E+03</rscale>
<asrwt>0</asrwt>
<pdfrwt beam="1">  1       21 0.63512726E-02 0.18690170E+03</pdfrwt>
<pdfrwt beam="2">  1        4 0.14811888E+00 0.18690170E+03</pdfrwt>
<totfact> 0.24646179E+03</totfact>
</mgrwt>
</event>
<event>
 6    4  0.3189516E-003  0.1270152E+03  0.7818608E-02  0.1231953E+00
          4   -1    0    0  502    0 -0.00000000000E+00  0.00000000000E+00  0.36864002313E+02  0.36885872181E+02  0.12700000000E+01 0. -1.
         21   -1    0    0  501  502  0.00000000000E+00 -0.00000000000E+00 -0.33250771028E+03  0.33250771028E+03  0.00000000000E+00 0.  1.
         25    2    1    2    0    0  0.59033048081E+01  0.21744758960E+02 -0.74808341789E+02  0.14740809779E+03  0.12500070297E+03 0.  0.
    9000005    1    3    3    0    0 -0.42521342154E+02 -0.85402720412E+01 -0.79003174638E+02  0.90130474247E+02  0.10000000000E+01 0.  0.
    9000005    1    3    3    0    0  0.48424646962E+02  0.30285031001E+02  0.41948328488E+01  0.57277623543E+02  0.10000000000E+01 0.  0.
          4    1    1    2  501    0 -0.59033048081E+01 -0.21744758960E+02 -0.22083536618E+03  0.22198548467E+03  0.12700000000E+01 0.  1.
<mgrwt>
<rscale>  1 0.12701519E+03</rscale>
<asrwt>0</asrwt>
<pdfrwt beam="2">  1       21 0.51155033E-01 0.12701519E+03</pdfrwt>
<pdfrwt beam="1">  1        4 0.56732537E-02 0.12701519E+03</pdfrwt>
<totfact> 0.28718311E+04</totfact>
</mgrwt>
</event>
<event>
 6    4  0.3189516E-003  0.1276420E+03  0.7818608E-02  0.1230997E+00
         21   -1    0    0  501  502  0.00000000000E+00  0.00000000000E+00  0.28480674473E+02  0.28480674473E+02  0.00000000000E+00 0. -1.
          4   -1    0    0  502    0 -0.00000000000E+00 -0.00000000000E+00 -0.21105888892E+03  0.21106270986E+03  0.12700000000E+01 0. -1.
         25    2    1    2    0    0 -0.24415261625E+02 -0.84394552240E+01 -0.16339799214E+03  0.20734364470E+03  0.12500061503E+03 0.  0.
    9000005    1    3    3    0    0 -0.48643292098E+02 -0.56044170037E+02 -0.95303815864E+02  0.12079294756E+03  0.10000000000E+01 0.  0.
    9000005    1    3    3    0    0  0.24228030473E+02  0.47604714813E+02 -0.68094176278E+02  0.86550697143E+02  0.10000000000E+01 0.  0.
          4    1    1    2  501    0  0.24415261625E+02  0.84394552240E+01 -0.19180222310E+02  0.32199739635E+02  0.12700000000E+01 0.  1.
<mgrwt>
<rscale>  1 0.12764201E+03</rscale>
<asrwt>0</asrwt>
<pdfrwt beam="1">  1       21 0.43816422E-02 0.12764201E+03</pdfrwt>
<pdfrwt beam="2">  1        4 0.32473071E-01 0.12764201E+03</pdfrwt>
<totfact> 0.12217421E+05</totfact>
</mgrwt>
</event>
<event>
 6    4  0.3189516E-003  0.1315523E+03  0.7818608E-02  0.1225170E+00
         21   -1    0    0  501  502  0.00000000000E+00  0.00000000000E+00  0.16793579450E+03  0.16793579450E+03  0.00000000000E+00 0.  1.
          4   -1    0    0  502    0 -0.00000000000E+00 -0.00000000000E+00 -0.99071757440E+02  0.99079897165E+02  0.12700000000E+01 0. -1.
         25    2    1    2    0    0 -0.27356787505E+02  0.30549215299E+02 -0.50411990250E+02  0.14088071646E+03  0.12499743650E+03 0.  0.
    9000005    1    3    3    0    0  0.60868271652E+01  0.41813813466E+02 -0.82804480986E+02  0.92967879039E+02  0.10000000000E+01 0.  0.
    9000005    1    3    3    0    0 -0.33443614670E+02 -0.11264598167E+02  0.32392490736E+02  0.47912837426E+02  0.10000000000E+01 0.  0.
          4    1    1    2  501    0  0.27356787505E+02 -0.30549215299E+02  0.11927602731E+03  0.12613497520E+03  0.12700000000E+01 0.  1.
<mgrwt>
<rscale>  1 0.13155230E+03</rscale>
<asrwt>0</asrwt>
<pdfrwt beam="1">  1       21 0.25836276E-01 0.13155230E+03</pdfrwt>
<pdfrwt beam="2">  1        4 0.15242804E-01 0.13155230E+03</pdfrwt>
<totfact> 0.21216397E+04</totfact>
</mgrwt>
</event>
<event>
 6    4  0.3189516E-003  0.1313491E+03  0.7818608E-02  0.1225468E+00
          4   -1    0    0  502    0 -0.00000000000E+00  0.00000000000E+00  0.10985690274E+02  0.11058855764E+02  0.12700000000E+01 0.  1.
         21   -1    0    0  501  502  0.00000000000E+00 -0.00000000000E+00 -0.86483997414E+03  0.86483997414E+03  0.00000000000E+00 0. -1.
         25    2    1    2    0    0  0.28959761109E+02  0.28089536964E+02 -0.41732708791E+03  0.43750939622E+03  0.12499953453E+03 0.  0.
    9000005    1    3    3    0    0 -0.19932833433E+02 -0.17492084119E+02 -0.30952913448E+03  0.31066473238E+03  0.10000000000E+01 0.  0.
    9000005    1    3    3    0    0  0.48892594542E+02  0.45581621084E+02 -0.10779795343E+03  0.12684466384E+03  0.10000000000E+01 0.  0.
          4    1    1    2  501    0 -0.28959761109E+02 -0.28089536964E+02 -0.43652719596E+03  0.43838943368E+03  0.12700000000E+01 0. -1.
<mgrwt>
<rscale>  1 0.13134905E+03</rscale>
<asrwt>0</asrwt>
<pdfrwt beam="2">  1       21 0.13305234E+00 0.13134905E+03</pdfrwt>
<pdfrwt beam="1">  1        4 0.16958056E-02 0.13134905E+03</pdfrwt>
<totfact> 0.22073339E+04</totfact>
</mgrwt>
</event>
<event>
 6    4  0.3189516E-003  0.1299209E+03  0.7818608E-02  0.1227573E+00
          4   -1    0    0  502    0 -0.00000000000E+00  0.00000000000E+00  0.45088467270E+03  0.45088646129E+03  0.12700000000E+01 0. -1.
         21   -1    0    0  501  502  0.00000000000E+00 -0.00000000000E+00 -0.25465568050E+02  0.25465568050E+02  0.00000000000E+00 0.  1.
         25    2    1    2    0    0  0.27537798871E+02 -0.22269293819E+02  0.42105810214E+03  0.44064652477E+03  0.12500073039E+03 0.  0.
    9000005    1    3    3    0    0  0.69500175968E+02 -0.81260966755E+01  0.34989732371E+03  0.35682691188E+03  0.10000000000E+01 0.  0.
    9000005    1    3    3    0    0 -0.41962377097E+02 -0.14143197144E+02  0.71160778433E+02  0.83819612886E+02  0.10000000000E+01 0.  0.
          4    1    1    2  501    0 -0.27537798871E+02  0.22269293819E+02  0.43610025096E+01  0.35705504572E+02  0.12700000000E+01 0.  1.
<mgrwt>
<rscale>  1 0.12992088E+03</rscale>
<asrwt>0</asrwt>
<pdfrwt beam="2">  1       21 0.39177800E-02 0.12992088E+03</pdfrwt>
<pdfrwt beam="1">  1        4 0.69369440E-01 0.12992088E+03</pdfrwt>
<totfact> 0.31799153E+04</totfact>
</mgrwt>
</event>
<event>
 6    4  0.3189516E-003  0.1301225E+03  0.7818608E-02  0.1227274E+00
         21   -1    0    0  501  502  0.00000000000E+00  0.00000000000E+00  0.85008056495E+02  0.85008056495E+02  0.00000000000E+00 0.  1.
          4   -1    0    0  502    0 -0.00000000000E+00 -0.00000000000E+00 -0.81960791006E+02  0.81970629876E+02  0.12700000000E+01 0.  1.
         25    2    1    2    0    0  0.15125894639E+00  0.36132647230E+02  0.85683730776E+01  0.13040428816E+03  0.12500508101E+03 0.  0.
    9000005    1    3    3    0    0  0.41215328916E+02 -0.27777128234E+02  0.19986510840E+02  0.53579219910E+02  0.10000000000E+01 0.  0.
    9000005    1    3    3    0    0 -0.41064069969E+02  0.63909775465E+02 -0.11418137762E+02  0.76825068255E+02  0.10000000000E+01 0.  0.
          4    1    1    2  501    0 -0.15125894639E+00 -0.36132647230E+02 -0.55211075888E+01  0.36574398206E+02  0.12700000000E+01 0. -1.
<mgrwt>
<rscale>  1 0.13012249E+03</rscale>
<asrwt>0</asrwt>
<pdfrwt beam="1">  1       21 0.13078163E-01 0.13012249E+03</pdfrwt>
<pdfrwt beam="2">  1        4 0.12610839E-01 0.13012249E+03</pdfrwt>
<totfact> 0.10275583E+05</totfact>
</mgrwt>
</event>
<event>
 6    4  0.3189516E-003  0.1277754E+03  0.7818608E-02  0.1230795E+00
          4   -1    0    0  502    0 -0.00000000000E+00  0.00000000000E+00  0.37303189013E+02  0.37324801548E+02  0.12700000000E+01 0.  1.
         21   -1    0    0  501  502  0.00000000000E+00 -0.00000000000E+00 -0.37387193906E+03  0.37387193906E+03  0.00000000000E+00 0. -1.
         25    2    1    2    0    0  0.33640861621E+01 -0.26270167534E+02 -0.74740495003E+02  0.14802932846E+03  0.12500040685E+03 0.  0.
    9000005    1    3    3    0    0 -0.21030358732E+02  0.26264838806E+02  0.18385094842E+02  0.38355305478E+02  0.10000000000E+01 0.  0.
    9000005    1    3    3    0    0  0.24394444895E+02 -0.52535006340E+02 -0.93125589845E+02  0.10967402298E+03  0.10000000000E+01 0.  0.
          4    1    1    2  501    0 -0.33640861621E+01  0.26270167534E+02 -0.26182825504E+03  0.26316741215E+03  0.12700000000E+01 0. -1.
<mgrwt>
<rscale>  1 0.12777535E+03</rscale>
<asrwt>0</asrwt>
<pdfrwt beam="2">  1       21 0.57518761E-01 0.12777535E+03</pdfrwt>
<pdfrwt beam="1">  1        4 0.57407804E-02 0.12777535E+03</pdfrwt>
<totfact> 0.22068360E+04</totfact>
</mgrwt>
</event>
<event>
 6    4  0.3189516E-003  0.1268271E+03  0.7818608E-02  0.1232241E+00
          4   -1    0    0  502    0 -0.00000000000E+00  0.00000000000E+00  0.83177118643E+02  0.83186813653E+02  0.12700000000E+01 0.  1.
         21   -1    0    0  501  502  0.00000000000E+00 -0.00000000000E+00 -0.11038560083E+03  0.11038560083E+03  0.00000000000E+00 0. -1.
         25    2    1    2    0    0 -0.20871865224E+02 -0.49842809826E+01  0.31814681444E+02  0.13075661583E+03  0.12499856325E+03 0.  0.
    9000005    1    3    3    0    0  0.18514197751E+02  0.40169021853E+02  0.51300348085E+02  0.67742538693E+02  0.10000000000E+01 0.  0.
    9000005    1    3    3    0    0 -0.39386062975E+02 -0.45153302835E+02 -0.19485666641E+02  0.63014077142E+02  0.10000000000E+01 0.  0.
          4    1    1    2  501    0  0.20871865224E+02  0.49842809826E+01 -0.59023163632E+02  0.62815798649E+02  0.12700000000E+01 0. -1.
<mgrwt>
<rscale>  1 0.12682712E+03</rscale>
<asrwt>0</asrwt>
<pdfrwt beam="2">  1       21 0.16982400E-01 0.12682712E+03</pdfrwt>
<pdfrwt beam="1">  1        4 0.12797787E-01 0.12682712E+03</pdfrwt>
<totfact> 0.62360304E+04</totfact>
</mgrwt>
</event>
<event>
 6    4  0.3189516E-003  0.1515635E+03  0.7818608E-02  0.1198565E+00
         -4   -1    0    0    0  501 -0.00000000000E+00  0.00000000000E+00  0.97580201850E+02  0.97588465984E+02  0.12700000000E+01 0.  1.
         21   -1    0    0  501  502  0.00000000000E+00 -0.00000000000E+00 -0.28437850108E+03  0.28437850108E+03  0.00000000000E+00 0. -1.
         25    2    1    2    0    0  0.66159076630E+01  0.85457801589E+02  0.24878010037E+02  0.15359166435E+03  0.12499871154E+03 0.  0.
    9000005    1    3    3    0    0  0.30691343950E+02 -0.23934965587E+02  0.12517482090E+02  0.40896558889E+02  0.10000000000E+01 0.  0.
    9000005    1    3    3    0    0 -0.24075436287E+02  0.10939276718E+03  0.12360527947E+02  0.11269510546E+03  0.10000000000E+01 0.  0.
         -4    1    1    2    0  502 -0.66159076630E+01 -0.85457801589E+02 -0.21167630926E+03  0.22837530271E+03  0.12700000000E+01 0. -1.
<mgrwt>
<rscale>  1 0.15156347E+03</rscale>
<asrwt>0</asrwt>
<pdfrwt beam="2">  1       21 0.43750538E-01 0.15156347E+03</pdfrwt>
<pdfrwt beam="1">  1       -4 0.15013193E-01 0.15156347E+03</pdfrwt>
<totfact> 0.78423422E+03</totfact>
</mgrwt>
</event>
<event>
 6    4  0.3189516E-003  0.1282059E+03  0.7818608E-02  0.1230142E+00
         -4   -1    0    0    0  501 -0.00000000000E+00  0.00000000000E+00  0.13516516230E+03  0.13517112858E+03  0.12700000000E+01 0. -1.
         21   -1    0    0  501  502  0.00000000000E+00 -0.00000000000E+00 -0.55286934541E+02  0.55286934541E+02  0.00000000000E+00 0.  1.
         25    2    1    2    0    0 -0.24426215727E+02  0.14619663217E+02  0.93690843290E+02  0.15879142744E+03  0.12500547486E+03 0.  0.
    9000005    1    3    3    0    0  0.51087072514E+02  0.34685870456E+01  0.45557938961E+02  0.68545210457E+02  0.10000000000E+01 0.  0.
    9000005    1    3    3    0    0 -0.75513288242E+02  0.11151076172E+02  0.48132904329E+02  0.90246216984E+02  0.10000000000E+01 0.  0.
         -4    1    1    2    0  502  0.24426215727E+02 -0.14619663217E+02 -0.13812615527E+02  0.31666635676E+02  0.12700000000E+01 0.  1.
<mgrwt>
<rscale>  1 0.12820586E+03</rscale>
<asrwt>0</asrwt>
<pdfrwt beam="2">  1       21 0.85056822E-02 0.12820586E+03</pdfrwt>
<pdfrwt beam="1">  1       -4 0.20796221E-01 0.12820586E+03</pdfrwt>
<totfact> 0.90570701E+04</totfact>
</mgrwt>
</event>
<event>
 6    4  0.3189516E-003  0.1338094E+03  0.7818608E-02  0.1221910E+00
          4   -1    0    0  502    0 -0.00000000000E+00  0.00000000000E+00  0.11062649302E+03  0.11063378263E+03  0.12700000000E+01 0.  1.
         21   -1    0    0  501  502  0.00000000000E+00 -0.00000000000E+00 -0.14728805210E+03  0.14728805210E+03  0.00000000000E+00 0. -1.
         25    2    1    2    0    0 -0.47074472794E+02 -0.78803980217E+01  0.62634246846E+02  0.14774299539E+03  0.12500734838E+03 0.  0.
    9000005    1    3    3    0    0 -0.66729363275E+02 -0.28196508339E+02 -0.68011107467E+01  0.72767479776E+02  0.10000000000E+01 0.  0.
    9000005    1    3    3    0    0  0.19654890481E+02  0.20316110317E+02  0.69435357593E+02  0.74975515619E+02  0.10000000000E+01 0.  0.
          4    1    1    2  501    0  0.47074472794E+02  0.78803980217E+01 -0.99295805922E+02  0.11017883933E+03  0.12700000000E+01 0. -1.
<mgrwt>
<rscale>  1 0.13380936E+03</rscale>
<asrwt>0</asrwt>
<pdfrwt beam="2">  1       21 0.22659700E-01 0.13380936E+03</pdfrwt>
<pdfrwt beam="1">  1        4 0.17020442E-01 0.13380936E+03</pdfrwt>
<totfact> 0.22418209E+04</totfact>
</mgrwt>
</event>
<event>
 6    4  0.3189516E-003  0.1474503E+03  0.7818608E-02  0.1203642E+00
         -4   -1    0    0    0  501 -0.00000000000E+00  0.00000000000E+00  0.20114319743E+04  0.20114323753E+04  0.12700000000E+01 0.  1.
         21   -1    0    0  501  502  0.00000000000E+00 -0.00000000000E+00 -0.78605255271E+01  0.78605255271E+01  0.00000000000E+00 0. -1.
         25    2    1    2    0    0  0.34597182083E+02  0.70138614205E+02  0.16776426824E+04  0.16841100196E+04  0.12500079163E+03 0.  0.
    9000005    1    3    3    0    0  0.81069170510E+02  0.54710092803E+02  0.10399351587E+04  0.10445245516E+04  0.10000000000E+01 0.  0.
    9000005    1    3    3    0    0 -0.46471988428E+02  0.15428521402E+02  0.63770752375E+03  0.63958546796E+03  0.10000000000E+01 0.  0.
         -4    1    1    2    0  502 -0.34597182083E+02 -0.70138614205E+02  0.32592876636E+03  0.33518288120E+03  0.12700000000E+01 0. -1.
<mgrwt>
<rscale>  1 0.14745029E+03</rscale>
<asrwt>0</asrwt>
<pdfrwt beam="2">  1       21 0.12093132E-02 0.14745029E+03</pdfrwt>
<pdfrwt beam="1">  1       -4 0.30945859E+00 0.14745029E+03</pdfrwt>
<totfact> 0.37856125E+03</totfact>
</mgrwt>
</event>
<event>
 6    4  0.3189516E-003  0.1303954E+03  0.7818608E-02  0.1226870E+00
          4   -1    0    0  502    0 -0.00000000000E+00  0.00000000000E+00  0.86164430538E+02  0.86173789460E+02  0.12700000000E+01 0. -1.
         21   -1    0    0  501  502  0.00000000000E+00 -0.00000000000E+00 -0.95370038858E+02  0.95370038858E+02  0.00000000000E+00 0.  1.
         25    2    1    2    0    0  0.11537726629E+02  0.35268280908E+02  0.22981778845E+02  0.13240513108E+03  0.12500394315E+03 0.  0.
    9000005    1    3    3    0    0 -0.31382676431E+02 -0.27296964108E+02 -0.18942824787E+02  0.45714628297E+02  0.10000000000E+01 0.  0.
    9000005    1    3    3    0    0  0.42920403060E+02  0.62565245015E+02  0.41924603632E+02  0.86690502780E+02  0.10000000000E+01 0.  0.
          4    1    1    2  501    0 -0.11537726629E+02 -0.35268280908E+02 -0.32187387166E+02  0.49138697240E+02  0.12700000000E+01 0.  1.
<mgrwt>
<rscale>  1 0.13039539E+03</rscale>
<asrwt>0</asrwt>
<pdfrwt beam="2">  1       21 0.14672314E-01 0.13039539E+03</pdfrwt>
<pdfrwt beam="1">  1        4 0.13257437E-01 0.13039539E+03</pdfrwt>
<totfact> 0.76746409E+04</totfact>
</mgrwt>
</event>
<event>
 6    4  0.3189516E-003  0.1274657E+03  0.7818608E-02  0.1231265E+00
         21   -1    0    0  501  502  0.00000000000E+00  0.00000000000E+00  0.15394443284E+02  0.15394443284E+02  0.00000000000E+00 0.  1.
         -4   -1    0    0    0  501 -0.00000000000E+00 -0.00000000000E+00 -0.71820137706E+03  0.71820249993E+03  0.12700000000E+01 0. -1.
         25    2    1    2    0    0 -0.19385520479E+02  0.15727350207E+02 -0.69615977971E+03  0.70773296236E+03  0.12499743665E+03 0.  0.
    9000005    1    3    3    0    0 -0.71013710313E+02  0.10224559832E+02 -0.48512978581E+03  0.49040737938E+03  0.10000000000E+01 0.  0.
    9000005    1    3    3    0    0  0.51628189834E+02  0.55027903757E+01 -0.21102999391E+03  0.21732558298E+03  0.10000000000E+01 0.  0.
         -4    1    1    2    0  502  0.19385520479E+02 -0.15727350207E+02 -0.66471540622E+01  0.25863980860E+02  0.12700000000E+01 0.  1.
<mgrwt>
<rscale>  1 0.12746571E+03</rscale>
<asrwt>0</asrwt>
<pdfrwt beam="1">  1       21 0.23683762E-02 0.12746571E+03</pdfrwt>
<pdfrwt beam="2">  1       -4 0.11049662E+00 0.12746571E+03</pdfrwt>
<totfact> 0.25431878E+04</totfact>
</mgrwt>
</event>
<event>
 6    4  0.3189516E-003  0.1269703E+03  0.7818608E-02  0.1232022E+00
          4   -1    0    0  502    0 -0.00000000000E+00  0.00000000000E+00  0.53813189568E+02  0.53828173585E+02  0.12700000000E+01 0.  1.
         21   -1    0    0  501  502  0.00000000000E+00 -0.00000000000E+00 -0.12440072940E+03  0.12440072940E+03  0.00000000000E+00 0. -1.
         25    2    1    2    0    0 -0.19352312120E+02  0.10983204676E+02 -0.27790607477E+02  0.12997609904E+03  0.12500530264E+03 0.  0.
    9000005    1    3    3    0    0  0.28976442154E+02  0.37583453785E+02  0.24970726973E+02  0.53634759288E+02  0.10000000000E+01 0.  0.
    9000005    1    3    3    0    0 -0.48328754274E+02 -0.26600249110E+02 -0.52761334450E+02  0.76341339753E+02  0.10000000000E+01 0.  0.
          4    1    1    2  501    0  0.19352312120E+02 -0.10983204676E+02 -0.42796932352E+02  0.48252803940E+02  0.12700000000E+01 0. -1.
<mgrwt>
<rscale>  1 0.12697034E+03</rscale>
<asrwt>0</asrwt>
<pdfrwt beam="2">  1       21 0.19138574E-01 0.12697034E+03</pdfrwt>
<pdfrwt beam="1">  1        4 0.82806036E-02 0.12697034E+03</pdfrwt>
<totfact> 0.10445390E+05</totfact>
</mgrwt>
</event>
<event>
 6    4  0.3189516E-003  0.1295313E+03  0.7818608E-02  0.1228153E+00
         -4   -1    0    0    0  501 -0.00000000000E+00  0.00000000000E+00  0.20451243016E+04  0.20451246960E+04  0.12700000000E+01 0. -1.
         21   -1    0    0  501  502  0.00000000000E+00 -0.00000000000E+00 -0.37783014565E+01  0.37783014565E+01  0.00000000000E+00 0. -1.
         25    2    1    2    0    0  0.24683062632E+02  0.23320990785E+02  0.18525714157E+04  0.18570942937E+04  0.12500097236E+03 0.  0.
    9000005    1    3    3    0    0  0.55575124681E+02  0.33183440738E+02  0.16940740744E+04  0.16953105040E+04  0.10000000000E+01 0.  0.
    9000005    1    3    3    0    0 -0.30892062049E+02 -0.98624499526E+01  0.15849734127E+03  0.16178378969E+03  0.10000000000E+01 0.  0.
         -4    1    1    2    0  502 -0.24683062632E+02 -0.23320990785E+02  0.18877458447E+03  0.19180870375E+03  0.12700000000E+01 0.  1.
<mgrwt>
<rscale>  1 0.12953133E+03</rscale>
<asrwt>0</asrwt>
<pdfrwt beam="2">  1       21 0.58127878E-03 0.12953133E+03</pdfrwt>
<pdfrwt beam="1">  1       -4 0.31465007E+00 0.12953133E+03</pdfrwt>
<totfact> 0.11097095E+04</totfact>
</mgrwt>
</event>
<event>
 6    4  0.3189516E-003  0.1298928E+03  0.7818608E-02  0.1227615E+00
          4   -1    0    0  502    0 -0.00000000000E+00  0.00000000000E+00  0.95191933653E+02  0.95200405108E+02  0.12700000000E+01 0.  1.
         21   -1    0    0  501  502  0.00000000000E+00 -0.00000000000E+00 -0.24495845537E+03  0.24495845537E+03  0.00000000000E+00 0. -1.
         25    2    1    2    0    0 -0.29696295924E+02 -0.19096097336E+02  0.48587854424E+02  0.13868280146E+03  0.12500243556E+03 0.  0.
    9000005    1    3    3    0    0 -0.27623326708E+00  0.30548552994E+02  0.70583483098E+02  0.76917608394E+02  0.10000000000E+01 0.  0.
    9000005    1    3    3    0    0 -0.29420062657E+02 -0.49644650330E+02 -0.21995628674E+02  0.61765193061E+02  0.10000000000E+01 0.  0.
          4    1    1    2  501    0  0.29696295924E+02  0.19096097336E+02 -0.19835437614E+03  0.20147605903E+03  0.12700000000E+01 0. -1.
<mgrwt>
<rscale>  1 0.12989280E+03</rscale>
<asrwt>0</asrwt>
<pdfrwt beam="2">  1       21 0.37685916E-01 0.12989280E+03</pdfrwt>
<pdfrwt beam="1">  1        4 0.14645818E-01 0.12989280E+03</pdfrwt>
<totfact> 0.10927863E+04</totfact>
</mgrwt>
</event>
<event>
 6    4  0.3189516E-003  0.1305641E+03  0.7818608E-02  0.1226621E+00
         21   -1    0    0  501  502  0.00000000000E+00  0.00000000000E+00  0.36484620906E+03  0.36484620906E+03  0.00000000000E+00 0.  1.
          4   -1    0    0  502    0 -0.00000000000E+00 -0.00000000000E+00 -0.30777716527E+02  0.30803907782E+02  0.12700000000E+01 0. -1.
         25    2    1    2    0    0 -0.17012022311E+02  0.33677110983E+02  0.11697961791E+03  0.17530323329E+03  0.12499374339E+03 0.  0.
    9000005    1    3    3    0    0 -0.27914368599E+02  0.76757052492E+02  0.96309333742E+02  0.12628279712E+03  0.10000000000E+01 0.  0.
    9000005    1    3    3    0    0  0.10902346288E+02 -0.43079941509E+02  0.20670284172E+02  0.49020436175E+02  0.10000000000E+01 0.  0.
          4    1    1    2  501    0  0.17012022311E+02 -0.33677110983E+02  0.21708887462E+03  0.22034688355E+03  0.12700000000E+01 0.  1.
<mgrwt>
<rscale>  1 0.13056413E+03</rscale>
<asrwt>0</asrwt>
<pdfrwt beam="1">  1       21 0.56130183E-01 0.13056413E+03</pdfrwt>
<pdfrwt beam="2">  1        4 0.47372183E-02 0.13056413E+03</pdfrwt>
<totfact> 0.31720777E+04</totfact>
</mgrwt>
</event>
<event>
 6    4  0.3189516E-003  0.1267665E+03  0.7818608E-02  0.1232334E+00
         21   -1    0    0  501  502  0.00000000000E+00  0.00000000000E+00  0.98475744546E+03  0.98475744546E+03  0.00000000000E+00 0. -1.
         -4   -1    0    0    0  501 -0.00000000000E+00 -0.00000000000E+00 -0.81153792487E+01  0.82141512252E+01  0.12700000000E+01 0.  1.
         25    2    1    2    0    0 -0.20911853840E+02  0.15368260567E+01  0.49841056973E+03  0.51427895564E+03  0.12502032126E+03 0.  0.
    9000005    1    3    3    0    0 -0.95529733761E+01 -0.55707516951E+02  0.13730660222E+03  0.14848801217E+03  0.10000000000E+01 0.  0.
    9000005    1    3    3    0    0 -0.11358880464E+02  0.57244343007E+02  0.36110396751E+03  0.36579094347E+03  0.10000000000E+01 0.  0.
         -4    1    1    2    0  502  0.20911853840E+02 -0.15368260567E+01  0.47823149649E+03  0.47869264105E+03  0.12700000000E+01 0. -1.
<mgrwt>
<rscale>  1 0.12676651E+03</rscale>
<asrwt>0</asrwt>
<pdfrwt beam="1">  1       21 0.15150105E+00 0.12676651E+03</pdfrwt>
<pdfrwt beam="2">  1       -4 0.12561815E-02 0.12676651E+03</pdfrwt>
<totfact> 0.24966112E+04</totfact>
</mgrwt>
</event>
<event>
 6    4  0.3189516E-003  0.1276958E+03  0.7818608E-02  0.1230915E+00
          4   -1    0    0  502    0 -0.00000000000E+00  0.00000000000E+00  0.14075901198E+02  0.14133078028E+02  0.12700000000E+01 0. -1.
         21   -1    0    0  501  502  0.00000000000E+00 -0.00000000000E+00 -0.93213981885E+03  0.93213981885E+03  0.00000000000E+00 0.  1.
         25    2    1    2    0    0  0.55968009624E+01 -0.25487193728E+02 -0.28077887868E+03  0.30845258125E+03  0.12500117977E+03 0.  0.
    9000005    1    3    3    0    0  0.45298737000E+01  0.38224919697E+02 -0.20877776324E+03  0.21229888993E+03  0.10000000000E+01 0.  0.
    9000005    1    3    3    0    0  0.10669272624E+01 -0.63712113425E+02 -0.72001115445E+02  0.96153691329E+02  0.10000000000E+01 0.  0.
          4    1    1    2  501    0 -0.55968009624E+01  0.25487193728E+02 -0.63728503897E+03  0.63782031562E+03  0.12700000000E+01 0.  1.
<mgrwt>
<rscale>  1 0.12769580E+03</rscale>
<asrwt>0</asrwt>
<pdfrwt beam="2">  1       21 0.14340610E+00 0.12769580E+03</pdfrwt>
<pdfrwt beam="1">  1        4 0.21699884E-02 0.12769580E+03</pdfrwt>
<totfact> 0.12479956E+04</totfact>
</mgrwt>
</event>
<event>
 6    4  0.3189516E-003  0.1285008E+03  0.7818608E-02  0.1229697E+00
         21   -1    0    0  501  502  0.00000000000E+00  0.00000000000E+00  0.10468904976E+02  0.10468904976E+02  0.00000000000E+00 0.  1.
         -4   -1    0    0    0  501 -0.00000000000E+00 -0.00000000000E+00 -0.84265713355E+03  0.84265809058E+03  0.12700000000E+01 0.  1.
         25    2    1    2    0    0 -0.75738289614E-02 -0.29790673328E+02 -0.79567963539E+03  0.80598917050E+03  0.12499990608E+03 0.  0.
    9000005    1    3    3    0    0 -0.48445124460E+02  0.24873430346E+02 -0.39018706338E+03  0.39397025528E+03  0.10000000000E+01 0.  0.
    9000005    1    3    3    0    0  0.48437550631E+02 -0.54664103674E+02 -0.40549257201E+03  0.41201891522E+03  0.10000000000E+01 0.  0.
         -4    1    1    2    0  502  0.75738289614E-02  0.29790673328E+02 -0.36508593186E+02  0.47137825057E+02  0.12700000000E+01 0. -1.
<mgrwt>
<rscale>  1 0.12850082E+03</rscale>
<asrwt>0</asrwt>
<pdfrwt beam="1">  1       21 0.16106003E-02 0.12850082E+03</pdfrwt>
<pdfrwt beam="2">  1       -4 0.12964559E+00 0.12850082E+03</pdfrwt>
<totfact> 0.32309683E+04</totfact>
</mgrwt>
</event>
<event>
 6    4  0.3189516E-003  0.1266716E+03  0.7818608E-02  0.1232480E+00
         -4   -1    0    0    0  501 -0.00000000000E+00  0.00000000000E+00  0.16002791684E+03  0.16003295619E+03  0.12700000000E+01 0. -1.
         21   -1    0    0  501  502  0.00000000000E+00 -0.00000000000E+00 -0.88402142626E+02  0.88402142626E+02  0.00000000000E+00 0.  1.
         25    2    1    2    0    0  0.20391876942E+02 -0.22190006644E+01  0.13302467528E+03  0.18368797100E+03  0.12499981538E+03 0.  0.
    9000005    1    3    3    0    0  0.25141303861E+02 -0.46689765908E+02  0.11609282470E+02  0.54293598516E+02  0.10000000000E+01 0.  0.
    9000005    1    3    3    0    0 -0.47494269182E+01  0.44470765243E+02  0.12141539281E+03  0.12939437248E+03  0.10000000000E+01 0.  0.
         -4    1    1    2    0  502 -0.20391876942E+02  0.22190006644E+01 -0.61398901068E+02  0.64747127825E+02  0.12700000000E+01 0.  1.
<mgrwt>
<rscale>  1 0.12667165E+03</rscale>
<asrwt>0</asrwt>
<pdfrwt beam="2">  1       21 0.13600330E-01 0.12667165E+03</pdfrwt>
<pdfrwt beam="1">  1       -4 0.24620769E-01 0.12667165E+03</pdfrwt>
<totfact> 0.29132558E+04</totfact>
</mgrwt>
</event>
<event>
 6    4  0.3189516E-003  0.1323189E+03  0.7818608E-02  0.1224055E+00
          4   -1    0    0  502    0 -0.00000000000E+00  0.00000000000E+00  0.21913511723E+03  0.21913879735E+03  0.12700000000E+01 0. -1.
         21   -1    0    0  501  502  0.00000000000E+00 -0.00000000000E+00 -0.53653958781E+02  0.53653958781E+02  0.00000000000E+00 0. -1.
         25    2    1    2    0    0 -0.38391513503E+02 -0.20216821065E+02  0.18313258144E+03  0.22593324486E+03  0.12500264231E+03 0.  0.
    9000005    1    3    3    0    0 -0.56473957033E+02 -0.60279566986E+02  0.85652575064E+02  0.11899704885E+03  0.10000000000E+01 0.  0.
    9000005    1    3    3    0    0  0.18082443530E+02  0.40062745921E+02  0.97480006379E+02  0.10693619602E+03  0.10000000000E+01 0.  0.
          4    1    1    2  501    0  0.38391513503E+02  0.20216821065E+02 -0.17651422990E+02  0.46859511272E+02  0.12700000000E+01 0.  1.
<mgrwt>
<rscale>  1 0.13231889E+03</rscale>
<asrwt>0</asrwt>
<pdfrwt beam="2">  1       21 0.82544553E-02 0.13231889E+03</pdfrwt>
<pdfrwt beam="1">  1        4 0.33714534E-01 0.13231889E+03</pdfrwt>
<totfact> 0.39013296E+04</totfact>
</mgrwt>
</event>
<event>
 6    4  0.3189516E-003  0.1273142E+03  0.7818608E-02  0.1231496E+00
         -4   -1    0    0    0  501 -0.00000000000E+00  0.00000000000E+00  0.15591475585E+03  0.15591992814E+03  0.12700000000E+01 0.  1.
         21   -1    0    0  501  502  0.00000000000E+00 -0.00000000000E+00 -0.23187949375E+03  0.23187949375E+03  0.00000000000E+00 0. -1.
         25    2    1    2    0    0  0.11297633673E+01 -0.24125805320E+02  0.12909809158E+03  0.18131526323E+03  0.12500230631E+03 0.  0.
    9000005    1    3    3    0    0 -0.18665803060E+01 -0.44943925783E+02 -0.52754087785E+01  0.45301992501E+02  0.10000000000E+01 0.  0.
    9000005    1    3    3    0    0  0.29963436733E+01  0.20818120462E+02  0.13437350036E+03  0.13601327073E+03  0.10000000000E+01 0.  0.
         -4    1    1    2    0  502 -0.11297633673E+01  0.24125805320E+02 -0.20506282948E+03  0.20648415867E+03  0.12700000000E+01 0. -1.
<mgrwt>
<rscale>  1 0.12731421E+03</rscale>
<asrwt>0</asrwt>
<pdfrwt beam="2">  1       21 0.35673768E-01 0.12731421E+03</pdfrwt>
<pdfrwt beam="1">  1       -4 0.23987551E-01 0.12731421E+03</pdfrwt>
<totfact> 0.50401070E+03</totfact>
</mgrwt>
</event>
<event>
 6    4  0.3189516E-003  0.1268774E+03  0.7818608E-02  0.1232164E+00
         21   -1    0    0  501  502  0.00000000000E+00  0.00000000000E+00  0.10233725285E+03  0.10233725285E+03  0.00000000000E+00 0.  1.
         -4   -1    0    0    0  501 -0.00000000000E+00 -0.00000000000E+00 -0.59346440937E+02  0.59360028234E+02  0.12700000000E+01 0.  1.
         25    2    1    2    0    0  0.12659123474E+01 -0.21709968291E+02  0.17359510272E+02  0.12805947823E+03  0.12499980844E+03 0.  0.
    9000005    1    3    3    0    0 -0.41937536274E+02 -0.52417660308E+02 -0.10848690632E+02  0.68007809473E+02  0.10000000000E+01 0.  0.
    9000005    1    3    3    0    0  0.43203448621E+02  0.30707692017E+02  0.28208200905E+02  0.60051668753E+02  0.10000000000E+01 0.  0.
         -4    1    1    2    0  502 -0.12659123474E+01  0.21709968291E+02  0.25631301640E+02  0.33637802857E+02  0.12700000000E+01 0. -1.
<mgrwt>
<rscale>  1 0.12687741E+03</rscale>
<asrwt>0</asrwt>
<pdfrwt beam="1">  1       21 0.15744193E-01 0.12687741E+03</pdfrwt>
<pdfrwt beam="2">  1       -4 0.91318730E-02 0.12687741E+03</pdfrwt>
<totfact> 0.12671056E+05</totfact>
</mgrwt>
</event>
<event>
 6    4  0.3189516E-003  0.1274974E+03  0.7818608E-02  0.1231217E+00
          4   -1    0    0  502    0 -0.00000000000E+00  0.00000000000E+00  0.43841211002E+03  0.43841394949E+03  0.12700000000E+01 0.  1.
         21   -1    0    0  501  502  0.00000000000E+00 -0.00000000000E+00 -0.17764737358E+02  0.17764737358E+02  0.00000000000E+00 0.  1.
         25    2    1    2    0    0 -0.24747169586E+02 -0.42456998570E+01  0.40911039745E+03  0.42851710579E+03  0.12500057713E+03 0.  0.
    9000005    1    3    3    0    0  0.44415024463E+02 -0.29320482954E+02  0.19412686891E+03  0.20129239020E+03  0.10000000000E+01 0.  0.
    9000005    1    3    3    0    0 -0.69162194048E+02  0.25074783097E+02  0.21498352853E+03  0.22722471558E+03  0.10000000000E+01 0.  0.
          4    1    1    2  501    0  0.24747169586E+02  0.42456998570E+01  0.11536975211E+02  0.27661581061E+02  0.12700000000E+01 0. -1.
<mgrwt>
<rscale>  1 0.12749742E+03</rscale>
<asrwt>0</asrwt>
<pdfrwt beam="2">  1       21 0.27330369E-02 0.12749742E+03</pdfrwt>
<pdfrwt beam="1">  1        4 0.67451642E-01 0.12749742E+03</pdfrwt>
<totfact> 0.60943208E+04</totfact>
</mgrwt>
</event>
<event>
 6    4  0.3189516E-003  0.1328987E+03  0.7818608E-02  0.1223217E+00
         -4   -1    0    0    0  501 -0.00000000000E+00  0.00000000000E+00  0.61172655902E+02  0.61185837660E+02  0.12700000000E+01 0.  1.
         21   -1    0    0  501  502  0.00000000000E+00 -0.00000000000E+00 -0.16698992304E+03  0.16698992304E+03  0.00000000000E+00 0. -1.
         25    2    1    2    0    0 -0.44851288151E+02 -0.50320918255E+01 -0.24461822853E+02  0.13513124871E+03  0.12500045441E+03 0.  0.
    9000005    1    3    3    0    0  0.42952740246E+01  0.30659094791E+02  0.37311444772E+02  0.48493024068E+02  0.10000000000E+01 0.  0.
    9000005    1    3    3    0    0 -0.49146562176E+02 -0.35691186616E+02 -0.61773267625E+02  0.86638224640E+02  0.10000000000E+01 0.  0.
         -4    1    1    2    0  502  0.44851288151E+02  0.50320918255E+01 -0.81355444285E+02  0.93044511992E+02  0.12700000000E+01 0. -1.
<mgrwt>
<rscale>  1 0.13289873E+03</rscale>
<asrwt>0</asrwt>
<pdfrwt beam="2">  1       21 0.25690757E-01 0.13289873E+03</pdfrwt>
<pdfrwt beam="1">  1       -4 0.94125634E-02 0.13289873E+03</pdfrwt>
<totfact> 0.48960706E+04</totfact>
</mgrwt>
</event>
<event>
 6    4  0.3189516E-003  0.1269863E+03  0.7818608E-02  0.1231997E+00
         21   -1    0    0  501  502  0.00000000000E+00  0.00000000000E+00  0.18920173396E+03  0.18920173396E+03  0.00000000000E+00 0. -1.
         -4   -1    0    0    0  501 -0.00000000000E+00 -0.00000000000E+00 -0.30951422280E+02  0.30977466668E+02  0.12700000000E+01 0. -1.
         25    2    1    2    0    0  0.22257131425E+02 -0.21127048115E+01  0.11429086118E+03  0.17084473388E+03  0.12500271487E+03 0.  0.
    9000005    1    3    3    0    0 -0.40735040419E+02 -0.26470985084E+02  0.15181286435E+02  0.50907052822E+02  0.10000000000E+01 0.  0.
    9000005    1    3    3    0    0  0.62992171844E+02  0.24358280272E+02  0.99109574743E+02  0.11993768106E+03  0.10000000000E+01 0.  0.
         -4    1    1    2    0  502 -0.22257131425E+02  0.21127048115E+01  0.43959450499E+02  0.49334466746E+02  0.12700000000E+01 0.  1.
<mgrwt>
<rscale>  1 0.12698631E+03</rscale>
<asrwt>0</asrwt>
<pdfrwt beam="1">  1       21 0.29107958E-01 0.12698631E+03</pdfrwt>
<pdfrwt beam="2">  1       -4 0.47640887E-02 0.12698631E+03</pdfrwt>
<totfact> 0.11686938E+05</totfact>
</mgrwt>
</event>
<event>
 6    4  0.3189516E-003  0.1312031E+03  0.7818608E-02  0.1225681E+00
          4   -1    0    0  502    0 -0.00000000000E+00  0.00000000000E+00  0.52995748716E+03  0.52995900888E+03  0.12700000000E+01 0.  1.
         21   -1    0    0  501  502  0.00000000000E+00 -0.00000000000E+00 -0.25340156577E+02  0.25340156577E+02  0.00000000000E+00 0. -1.
         25    2    1    2    0    0 -0.39855043497E+02 -0.94821189590E+00  0.49784276119E+03  0.51484139379E+03  0.12499968918E+03 0.  0.
    9000005    1    3    3    0    0 -0.36436091797E+02 -0.13934145717E+01  0.50527375700E+03  0.50658868908E+03  0.10000000000E+01 0.  0.
    9000005    1    3    3    0    0 -0.34189517003E+01  0.44520267579E+00 -0.74309958175E+01  0.82527047076E+01  0.10000000000E+01 0.  0.
          4    1    1    2  501    0  0.39855043497E+02  0.94821189590E+00  0.67745693951E+01  0.40457771669E+02  0.12700000000E+01 0. -1.
<mgrwt>
<rscale>  1 0.13120307E+03</rscale>
<asrwt>0</asrwt>
<pdfrwt beam="2">  1       21 0.38984860E-02 0.13120307E+03</pdfrwt>
<pdfrwt beam="1">  1        4 0.81534478E-01 0.13120307E+03</pdfrwt>
<totfact> 0.22553582E+04</totfact>
</mgrwt>
</event>
<event>
 6    4  0.3189516E-003  0.1298112E+03  0.7818608E-02  0.1227736E+00
         -4   -1    0    0    0  501 -0.00000000000E+00  0.00000000000E+00  0.30030456449E+03  0.30030724992E+03  0.12700000000E+01 0. -1.
         21   -1    0    0  501  502  0.00000000000E+00 -0.00000000000E+00 -0.22968140448E+02  0.22968140448E+02  0.00000000000E+00 0. -1.
         25    2    1    2    0    0 -0.34867173423E+02 -0.32330884684E+01  0.23347953160E+03  0.26713972827E+03  0.12499908041E+03 0.  0.
    9000005    1    3    3    0    0 -0.30238319990E+02 -0.62966775052E+02  0.12862407287E+03  0.14637049866E+03  0.10000000000E+01 0.  0.
    9000005    1    3    3    0    0 -0.46288534329E+01  0.59733686583E+02  0.10485545873E+03  0.12076922962E+03  0.10000000000E+01 0.  0.
         -4    1    1    2    0  502  0.34867173423E+02  0.32330884684E+01  0.43856892447E+02  0.56135662093E+02  0.12700000000E+01 0.  1.
<mgrwt>
<rscale>  1 0.12981118E+03</rscale>
<asrwt>0</asrwt>
<pdfrwt beam="2">  1       21 0.35335603E-02 0.12981118E+03</pdfrwt>
<pdfrwt beam="1">  1       -4 0.46203607E-01 0.12981118E+03</pdfrwt>
<totfact> 0.87785605E+04</totfact>
</mgrwt>
</event>
<event>
 6    4  0.3189516E-003  0.1269302E+03  0.7818608E-02  0.1232083E+00
         21   -1    0    0  501  502  0.00000000000E+00  0.00000000000E+00  0.70620733534E+01  0.70620733534E+01  0.00000000000E+00 0.  1.
          4   -1    0    0  502    0 -0.00000000000E+00 -0.00000000000E+00 -0.10713072746E+04  0.10713080274E+04  0.12700000000E+01 0. -1.
         25    2    1    2    0    0 -0.16545454528E+02  0.14629611026E+02 -0.10287119638E+04  0.10365131844E+04  0.12499399701E+03 0.  0.
    9000005    1    3    3    0    0 -0.66704098808E+02 -0.13715319138E+02 -0.62732394761E+03  0.63101020754E+03  0.10000000000E+01 0.  0.
    9000005    1    3    3    0    0  0.50158644280E+02  0.28344930164E+02 -0.40138801623E+03  0.40550297686E+03  0.10000000000E+01 0.  0.
          4    1    1    2  501    0  0.16545454528E+02 -0.14629611026E+02 -0.35533237409E+02  0.41856916335E+02  0.12700000000E+01 0.  1.
<mgrwt>
<rscale>  1 0.12693020E+03</rscale>
<asrwt>0</asrwt>
<pdfrwt beam="1">  1       21 0.10864723E-02 0.12693020E+03</pdfrwt>
<pdfrwt beam="2">  1        4 0.16482543E+00 0.12693020E+03</pdfrwt>
<totfact> 0.32886735E+04</totfact>
</mgrwt>
</event>
<event>
 6    4  0.3189516E-003  0.1597847E+03  0.7818608E-02  0.1188940E+00
         21   -1    0    0  501  502  0.00000000000E+00  0.00000000000E+00  0.14439790982E+04  0.14439790982E+04  0.00000000000E+00 0. -1.
          4   -1    0    0  502    0 -0.00000000000E+00 -0.00000000000E+00 -0.44282680545E+02  0.44300888211E+02  0.12700000000E+01 0.  1.
         25    2    1    2    0    0  0.74910477321E+02  0.65532407953E+02  0.10824364254E+03  0.19299702144E+03  0.12500035211E+03 0.  0.
    9000005    1    3    3    0    0  0.63358346920E+02 -0.24923326567E+02  0.38792476453E+02  0.78366501523E+02  0.10000000000E+01 0.  0.
    9000005    1    3    3    0    0  0.11552130401E+02  0.90455734521E+02  0.69451166090E+02  0.11463051991E+03  0.10000000000E+01 0.  0.
          4    1    1    2  501    0 -0.74910477321E+02 -0.65532407953E+02  0.12914527751E+04  0.12952829649E+04  0.12700000000E+01 0. -1.
<mgrwt>
<rscale>  1 0.15978474E+03</rscale>
<asrwt>0</asrwt>
<pdfrwt beam="1">  1       21 0.22215059E+00 0.15978474E+03</pdfrwt>
<pdfrwt beam="2">  1        4 0.68141647E-02 0.15978474E+03</pdfrwt>
<totfact> 0.59836381E+02</totfact>
</mgrwt>
</event>
<event>
 6    4  0.3189516E-003  0.1367694E+03  0.7818608E-02  0.1217743E+00
         21   -1    0    0  501  502  0.00000000000E+00  0.00000000000E+00  0.92187157323E+02  0.92187157323E+02  0.00000000000E+00 0.  1.
         -4   -1    0    0    0  501 -0.00000000000E+00 -0.00000000000E+00 -0.11202733440E+03  0.11203453286E+03  0.12700000000E+01 0.  1.
         25    2    1    2    0    0 -0.24166059098E+02  0.49963821094E+02 -0.44005588435E+02  0.14367450332E+03  0.12500195702E+03 0.  0.
    9000005    1    3    3    0    0  0.23518491510E+02  0.58616066786E+02  0.17326775943E+02  0.65499464829E+02  0.10000000000E+01 0.  0.
    9000005    1    3    3    0    0 -0.47684550608E+02 -0.86522456916E+01 -0.61332364377E+02  0.78175038486E+02  0.10000000000E+01 0.  0.
         -4    1    1    2    0  502  0.24166059098E+02 -0.49963821094E+02  0.24165411360E+02  0.60547186862E+02  0.12700000000E+01 0. -1.
<mgrwt>
<rscale>  1 0.13676941E+03</rscale>
<asrwt>0</asrwt>
<pdfrwt beam="1">  1       21 0.14182640E-01 0.13676941E+03</pdfrwt>
<pdfrwt beam="2">  1       -4 0.17236201E-01 0.13676941E+03</pdfrwt>
<totfact> 0.51883056E+04</totfact>
</mgrwt>
</event>
<event>
 6    4  0.3189516E-003  0.1267052E+03  0.7818608E-02  0.1232428E+00
         21   -1    0    0  501  502  0.00000000000E+00  0.00000000000E+00  0.10495040845E+03  0.10495040845E+03  0.00000000000E+00 0.  1.
          4   -1    0    0  502    0 -0.00000000000E+00 -0.00000000000E+00 -0.10577545237E+03  0.10578307627E+03  0.12700000000E+01 0. -1.
         25    2    1    2    0    0  0.16098992841E+02  0.13051207385E+02 -0.65622731982E+02  0.14269037439E+03  0.12499875362E+03 0.  0.
    9000005    1    3    3    0    0  0.64124004856E+02  0.13498491846E+02 -0.68198325877E+02  0.94583872480E+02  0.10000000000E+01 0.  0.
    9000005    1    3    3    0    0 -0.48025012015E+02 -0.44728446073E+00  0.25755938949E+01  0.48106501914E+02  0.10000000000E+01 0.  0.
          4    1    1    2  501    0 -0.16098992841E+02 -0.13051207385E+02  0.64797688063E+02  0.68043110327E+02  0.12700000000E+01 0.  1.
<mgrwt>
<rscale>  1 0.12670517E+03</rscale>
<asrwt>0</asrwt>
<pdfrwt beam="1">  1       21 0.16146217E-01 0.12670517E+03</pdfrwt>
<pdfrwt beam="2">  1        4 0.16274324E-01 0.12670517E+03</pdfrwt>
<totfact> 0.45016203E+04</totfact>
</mgrwt>
</event>
<event>
 6    4  0.3189516E-003  0.1288766E+03  0.7818608E-02  0.1229132E+00
         21   -1    0    0  501  502  0.00000000000E+00  0.00000000000E+00  0.93100052463E+03  0.93100052463E+03  0.00000000000E+00 0. -1.
         -4   -1    0    0    0  501 -0.00000000000E+00 -0.00000000000E+00 -0.74720325574E+01  0.75791932644E+01  0.12700000000E+01 0.  1.
         25    2    1    2    0    0 -0.31328323082E+02  0.18622751993E+01  0.60901580787E+03  0.62250255434E+03  0.12499697608E+03 0.  0.
    9000005    1    3    3    0    0 -0.40209169031E+02  0.41985987327E+02  0.13870071945E+03  0.15039444798E+03  0.10000000000E+01 0.  0.
    9000005    1    3    3    0    0  0.88808459490E+01 -0.40123712128E+02  0.47031508842E+03  0.47210810636E+03  0.10000000000E+01 0.  0.
         -4    1    1    2    0  502  0.31328323082E+02 -0.18622751993E+01  0.31451268421E+03  0.31607716356E+03  0.12700000000E+01 0. -1.
<mgrwt>
<rscale>  1 0.12887659E+03</rscale>
<asrwt>0</asrwt>
<pdfrwt beam="1">  1       21 0.14323076E+00 0.12887659E+03</pdfrwt>
<pdfrwt beam="2">  1       -4 0.11578540E-02 0.12887659E+03</pdfrwt>
<totfact> 0.32672587E+04</totfact>
</mgrwt>
</event>
<event>
 6    4  0.3189516E-003  0.1324791E+03  0.7818608E-02  0.1223823E+00
         21   -1    0    0  501  502  0.00000000000E+00  0.00000000000E+00  0.41928494929E+01  0.41928494929E+01  0.00000000000E+00 0. -1.
          4   -1    0    0  502    0 -0.00000000000E+00 -0.00000000000E+00 -0.24254846119E+04  0.24254849444E+04  0.12700000000E+01 0.  1.
         25    2    1    2    0    0 -0.36574188190E+02 -0.24259083919E+02 -0.22049119169E+04  0.22088882451E+04  0.12499817529E+03 0.  0.
    9000005    1    3    3    0    0 -0.56649797896E+02  0.34296767827E+02 -0.14174290876E+04  0.14189755764E+04  0.10000000000E+01 0.  0.
    9000005    1    3    3    0    0  0.20075609706E+02 -0.58555851746E+02 -0.78748282925E+03  0.78991266874E+03  0.10000000000E+01 0.  0.
          4    1    1    2  501    0  0.36574188190E+02  0.24259083919E+02 -0.21637984560E+03  0.22078954883E+03  0.12700000000E+01 0. -1.
<mgrwt>
<rscale>  1 0.13247912E+03</rscale>
<asrwt>0</asrwt>
<pdfrwt beam="1">  1       21 0.64505296E-03 0.13247912E+03</pdfrwt>
<pdfrwt beam="2">  1        4 0.37316677E+00 0.13247912E+03</pdfrwt>
<totfact> 0.41862072E+03</totfact>
</mgrwt>
</event>
<event>
 6    4  0.3189516E-003  0.1295059E+03  0.7818608E-02  0.1228191E+00
         -4   -1    0    0    0  501 -0.00000000000E+00  0.00000000000E+00  0.10555988725E+03  0.10556752671E+03  0.12700000000E+01 0. -1.
         21   -1    0    0  501  502  0.00000000000E+00 -0.00000000000E+00 -0.72447292266E+02  0.72447292266E+02  0.00000000000E+00 0.  1.
         25    2    1    2    0    0  0.10556168130E+02  0.32182965467E+02  0.51599727877E+02  0.13940700973E+03  0.12499842597E+03 0.  0.
    9000005    1    3    3    0    0 -0.25096128311E+02  0.62090081853E+01 -0.34225900883E+02  0.42904308992E+02  0.10000000000E+01 0.  0.
    9000005    1    3    3    0    0  0.35652296441E+02  0.25973957281E+02  0.85825628760E+02  0.96502700742E+02  0.10000000000E+01 0.  0.
         -4    1    1    2    0  502 -0.10556168130E+02 -0.32182965467E+02 -0.18487132895E+02  0.38607809242E+02  0.12700000000E+01 0.  1.
<mgrwt>
<rscale>  1 0.12950592E+03</rscale>
<asrwt>0</asrwt>
<pdfrwt beam="2">  1       21 0.11145737E-01 0.12950592E+03</pdfrwt>
<pdfrwt beam="1">  1       -4 0.16241426E-01 0.12950592E+03</pdfrwt>
<totfact> 0.87855071E+04</totfact>
</mgrwt>
</event>
<event>
 6    4  0.3189516E-003  0.1266381E+03  0.7818608E-02  0.1232531E+00
         21   -1    0    0  501  502  0.00000000000E+00  0.00000000000E+00  0.10329874229E+03  0.10329874229E+03  0.00000000000E+00 0. -1.
          4   -1    0    0  502    0 -0.00000000000E+00 -0.00000000000E+00 -0.10549080641E+03  0.10549845088E+03  0.12700000000E+01 0.  1.
         25    2    1    2    0    0 -0.65336530189E+00  0.20306084930E+02 -0.65303371571E+02  0.14248419294E+03  0.12499780369E+03 0.  0.
    9000005    1    3    3    0    0 -0.14982749966E+02 -0.46839066715E+02 -0.53742153236E+02  0.72853277220E+02  0.10000000000E+01 0.  0.
    9000005    1    3    3    0    0  0.14329384664E+02  0.67145151644E+02 -0.11561218335E+02  0.69630915717E+02  0.10000000000E+01 0.  0.
          4    1    1    2  501    0  0.65336530189E+00 -0.20306084930E+02  0.63111307449E+02  0.66313000229E+02  0.12700000000E+01 0. -1.
<mgrwt>
<rscale>  1 0.12663813E+03</rscale>
<asrwt>0</asrwt>
<pdfrwt beam="1">  1       21 0.15892114E-01 0.12663813E+03</pdfrwt>
<pdfrwt beam="2">  1        4 0.16230543E-01 0.12663813E+03</pdfrwt>
<totfact> 0.46545317E+04</totfact>
</mgrwt>
</event>
<event>
 6    4  0.3189516E-003  0.1316998E+03  0.7818608E-02  0.1224955E+00
         -4   -1    0    0    0  501 -0.00000000000E+00  0.00000000000E+00  0.70389068777E+02  0.70400524879E+02  0.12700000000E+01 0.  1.
         21   -1    0    0  501  502  0.00000000000E+00 -0.00000000000E+00 -0.16819280723E+03  0.16819280723E+03  0.00000000000E+00 0. -1.
         25    2    1    2    0    0 -0.36867712709E+02 -0.19004121806E+02  0.70426592712E+00  0.13170168270E+03  0.12499780938E+03 0.  0.
    9000005    1    3    3    0    0 -0.59772006540E+02  0.10634569710E+02 -0.42798126233E+02  0.74286381307E+02  0.10000000000E+01 0.  0.
    9000005    1    3    3    0    0  0.22904293831E+02 -0.29638691516E+02  0.43502392160E+02  0.57415301395E+02  0.10000000000E+01 0.  0.
         -4    1    1    2    0  502  0.36867712709E+02  0.19004121806E+02 -0.98508004385E+02  0.10689164941E+03  0.12700000000E+01 0. -1.
<mgrwt>
<rscale>  1 0.13169980E+03</rscale>
<asrwt>0</asrwt>
<pdfrwt beam="2">  1       21 0.25875816E-01 0.13169980E+03</pdfrwt>
<pdfrwt beam="1">  1       -4 0.10830338E-01 0.13169980E+03</pdfrwt>
<totfact> 0.38088057E+04</totfact>
</mgrwt>
</event>
<event>
 6    4  0.3189516E-003  0.1280652E+03  0.7818608E-02  0.1230355E+00
          4   -1    0    0  502    0 -0.00000000000E+00  0.00000000000E+00  0.14320478612E+03  0.14321041745E+03  0.12700000000E+01 0. -1.
         21   -1    0    0  501  502  0.00000000000E+00 -0.00000000000E+00 -0.53577731648E+02  0.53577731648E+02  0.00000000000E+00 0.  1.
         25    2    1    2    0    0  0.22737895577E+02  0.16067918018E+02  0.10441509073E+03  0.16523678144E+03  0.12500197152E+03 0.  0.
    9000005    1    3    3    0    0 -0.12677038757E+02 -0.50790872175E+02  0.40659436120E+02  0.66291852844E+02  0.10000000000E+01 0.  0.
    9000005    1    3    3    0    0  0.35414934334E+02  0.66858790193E+02  0.63755654613E+02  0.98944928597E+02  0.10000000000E+01 0.  0.
          4    1    1    2  501    0 -0.22737895577E+02 -0.16067918018E+02 -0.14788036262E+02  0.31551367660E+02  0.12700000000E+01 0.  1.
<mgrwt>
<rscale>  1 0.12806515E+03</rscale>
<asrwt>0</asrwt>
<pdfrwt beam="2">  1       21 0.82427281E-02 0.12806515E+03</pdfrwt>
<pdfrwt beam="1">  1        4 0.22033096E-01 0.12806515E+03</pdfrwt>
<totfact> 0.86112208E+04</totfact>
</mgrwt>
</event>
<event>
 6    4  0.3189516E-003  0.1270948E+03  0.7818608E-02  0.1231831E+00
         21   -1    0    0  501  502  0.00000000000E+00  0.00000000000E+00  0.22556600702E+03  0.22556600702E+03  0.00000000000E+00 0.  1.
          4   -1    0    0  502    0 -0.00000000000E+00 -0.00000000000E+00 -0.28636087577E+02  0.28664235761E+02  0.12700000000E+01 0.  1.
         25    2    1    2    0    0  0.16172161924E+02  0.16335121679E+02  0.12326499529E+03  0.17705181982E+03  0.12499885125E+03 0.  0.
    9000005    1    3    3    0    0  0.58225089129E+02  0.42882211514E+02  0.47870758398E+02  0.86727473029E+02  0.10000000000E+01 0.  0.
    9000005    1    3    3    0    0 -0.42052927205E+02 -0.26547089835E+02  0.75394236897E+02  0.90324346787E+02  0.10000000000E+01 0.  0.
          4    1    1    2  501    0 -0.16172161924E+02 -0.16335121679E+02  0.73664924146E+02  0.77178422963E+02  0.12700000000E+01 0. -1.
<mgrwt>
<rscale>  1 0.12709480E+03</rscale>
<asrwt>0</asrwt>
<pdfrwt beam="1">  1       21 0.34702462E-01 0.12709480E+03</pdfrwt>
<pdfrwt beam="2">  1        4 0.44079923E-02 0.12709480E+03</pdfrwt>
<totfact> 0.94070025E+04</totfact>
</mgrwt>
</event>
<event>
 6    4  0.3189516E-003  0.1509310E+03  0.7818608E-02  0.1199334E+00
         -4   -1    0    0    0  501 -0.00000000000E+00  0.00000000000E+00  0.11771916047E+03  0.11772601089E+03  0.12700000000E+01 0.  1.
         21   -1    0    0  501  502  0.00000000000E+00 -0.00000000000E+00 -0.22944865469E+03  0.22944865469E+03  0.00000000000E+00 0. -1.
         25    2    1    2    0    0 -0.14683922616E+02 -0.83309700645E+02  0.54649914681E+02  0.16052032084E+03  0.12499614563E+03 0.  0.
    9000005    1    3    3    0    0  0.40920892084E+02 -0.55309271712E+02 -0.11402157041E+02  0.69747000878E+02  0.10000000000E+01 0.  0.
    9000005    1    3    3    0    0 -0.55604814700E+02 -0.28000428933E+02  0.66052071722E+02  0.90773319962E+02  0.10000000000E+01 0.  0.
         -4    1    1    2    0  502  0.14683922616E+02  0.83309700645E+02 -0.16637940891E+03  0.18665434475E+03  0.12700000000E+01 0. -1.
<mgrwt>
<rscale>  1 0.15093098E+03</rscale>
<asrwt>0</asrwt>
<pdfrwt beam="2">  1       21 0.35299793E-01 0.15093098E+03</pdfrwt>
<pdfrwt beam="1">  1       -4 0.18111438E-01 0.15093098E+03</pdfrwt>
<totfact> 0.86514969E+03</totfact>
</mgrwt>
</event>
<event>
 6    4  0.3189516E-003  0.1345644E+03  0.7818608E-02  0.1220836E+00
         21   -1    0    0  501  502  0.00000000000E+00  0.00000000000E+00  0.25107025991E+03  0.25107025991E+03  0.00000000000E+00 0.  1.
          4   -1    0    0  502    0 -0.00000000000E+00 -0.00000000000E+00 -0.56497059532E+02  0.56511331924E+02  0.12700000000E+01 0. -1.
         25    2    1    2    0    0  0.20477085013E+02  0.45446603703E+02  0.33087075374E+02  0.13857246111E+03  0.12499147020E+03 0.  0.
    9000005    1    3    3    0    0  0.13130122227E+02 -0.20666224377E+02  0.61522289338E+02  0.66222994686E+02  0.10000000000E+01 0.  0.
    9000005    1    3    3    0    0  0.73469627862E+01  0.66112828080E+02 -0.28435213965E+02  0.72349466426E+02  0.10000000000E+01 0.  0.
          4    1    1    2  501    0 -0.20477085013E+02 -0.45446603703E+02  0.16148612500E+03  0.16900913072E+03  0.12700000000E+01 0.  1.
<mgrwt>
<rscale>  1 0.13456438E+03</rscale>
<asrwt>0</asrwt>
<pdfrwt beam="1">  1       21 0.38626193E-01 0.13456438E+03</pdfrwt>
<pdfrwt beam="2">  1        4 0.86932004E-02 0.13456438E+03</pdfrwt>
<totfact> 0.25356860E+04</totfact>
</mgrwt>
</event>
<event>
 6    4  0.3189516E-003  0.1280251E+03  0.7818608E-02  0.1230416E+00
         21   -1    0    0  501  502  0.00000000000E+00  0.00000000000E+00  0.14821046876E+03  0.14821046876E+03  0.00000000000E+00 0. -1.
          4   -1    0    0  502    0 -0.00000000000E+00 -0.00000000000E+00 -0.10917519464E+03  0.10918258115E+03  0.12700000000E+01 0.  1.
         25    2    1    2    0    0 -0.67528005400E+01 -0.26833155518E+02 -0.69296509413E+02  0.14557620514E+03  0.12499922694E+03 0.  0.
    9000005    1    3    3    0    0 -0.29821223499E+02 -0.46677365338E+02  0.13787750536E+02  0.57089262307E+02  0.10000000000E+01 0.  0.
    9000005    1    3    3    0    0  0.23068422959E+02  0.19844209820E+02 -0.83084259949E+02  0.88486942836E+02  0.10000000000E+01 0.  0.
          4    1    1    2  501    0  0.67528005400E+01  0.26833155518E+02  0.10833178353E+03  0.11181684476E+03  0.12700000000E+01 0. -1.
<mgrwt>
<rscale>  1 0.12802510E+03</rscale>
<asrwt>0</asrwt>
<pdfrwt beam="1">  1       21 0.22801610E-01 0.12802510E+03</pdfrwt>
<pdfrwt beam="2">  1        4 0.16797171E-01 0.12802510E+03</pdfrwt>
<totfact> 0.22578246E+04</totfact>
</mgrwt>
</event>
<event>
 6    4  0.3189516E-003  0.1385783E+03  0.7818608E-02  0.1215255E+00
         21   -1    0    0  501  502  0.00000000000E+00  0.00000000000E+00  0.70717930145E+02  0.70717930145E+02  0.00000000000E+00 0.  1.
         -4   -1    0    0    0  501 -0.00000000000E+00 -0.00000000000E+00 -0.15185937896E+03  0.15186468937E+03  0.12700000000E+01 0.  1.
         25    2    1    2    0    0  0.56992198317E+02  0.18186064106E+02 -0.85087762427E+02  0.16261571291E+03  0.12500039670E+03 0.  0.
    9000005    1    3    3    0    0  0.68207828350E+02 -0.39922053459E+02 -0.42900362516E+02  0.89930636074E+02  0.10000000000E+01 0.  0.
    9000005    1    3    3    0    0 -0.11215630033E+02  0.58108117565E+02 -0.42187399911E+02  0.72685076839E+02  0.10000000000E+01 0.  0.
         -4    1    1    2    0  502 -0.56992198317E+02 -0.18186064106E+02  0.39463136113E+01  0.59966906605E+02  0.12700000000E+01 0. -1.
<mgrwt>
<rscale>  1 0.13857829E+03</rscale>
<asrwt>0</asrwt>
<pdfrwt beam="1">  1       21 0.10879682E-01 0.13857829E+03</pdfrwt>
<pdfrwt beam="2">  1       -4 0.23364267E-01 0.13857829E+03</pdfrwt>
<totfact> 0.48162816E+04</totfact>
</mgrwt>
</event>
<event>
 6    4  0.3189516E-003  0.1267580E+03  0.7818608E-02  0.1232347E+00
         21   -1    0    0  501  502  0.00000000000E+00  0.00000000000E+00  0.44981957110E+02  0.44981957110E+02  0.00000000000E+00 0. -1.
          4   -1    0    0  502    0 -0.00000000000E+00 -0.00000000000E+00 -0.18081014267E+03  0.18081460282E+03  0.12700000000E+01 0.  1.
         25    2    1    2    0    0  0.63920232720E+01 -0.20016304226E+02 -0.15295959609E+03  0.19865602709E+03  0.12500427458E+03 0.  0.
    9000005    1    3    3    0    0 -0.58624073298E+02 -0.11168508669E+02 -0.57984212839E+02  0.83214701192E+02  0.10000000000E+01 0.  0.
    9000005    1    3    3    0    0  0.65016096570E+02 -0.88477955566E+01 -0.94975383255E+02  0.11544132589E+03  0.10000000000E+01 0.  0.
          4    1    1    2  501    0 -0.63920232720E+01  0.20016304226E+02  0.17131410532E+02  0.27140532846E+02  0.12700000000E+01 0. -1.
<mgrwt>
<rscale>  1 0.12675795E+03</rscale>
<asrwt>0</asrwt>
<pdfrwt beam="1">  1       21 0.69203012E-02 0.12675795E+03</pdfrwt>
<pdfrwt beam="2">  1        4 0.27818667E-01 0.12675795E+03</pdfrwt>
<totfact> 0.75576453E+04</totfact>
</mgrwt>
</event>
<event>
 6    4  0.3189516E-003  0.1474200E+03  0.7818608E-02  0.1203680E+00
         21   -1    0    0  501  502  0.00000000000E+00  0.00000000000E+00  0.25245899334E+03  0.25245899334E+03  0.00000000000E+00 0. -1.
          4   -1    0    0  502    0 -0.00000000000E+00 -0.00000000000E+00 -0.11644150819E+03  0.11644843378E+03  0.12700000000E+01 0.  1.
         25    2    1    2    0    0 -0.77883980924E+02 -0.64172345457E+01 -0.59017627963E+02  0.15879459164E+03  0.12500218614E+03 0.  0.
    9000005    1    3    3    0    0 -0.18242231858E+02  0.56531069254E+02 -0.13796639152E+02  0.60990885106E+02  0.10000000000E+01 0.  0.
    9000005    1    3    3    0    0 -0.59641749066E+02 -0.62948303799E+02 -0.45220988811E+02  0.97803706534E+02  0.10000000000E+01 0.  0.
          4    1    1    2  501    0  0.77883980924E+02  0.64172345457E+01  0.19503511312E+03  0.21011283548E+03  0.12700000000E+01 0. -1.
<mgrwt>
<rscale>  1 0.14741995E+03</rscale>
<asrwt>0</asrwt>
<pdfrwt beam="1">  1       21 0.38839845E-01 0.14741995E+03</pdfrwt>
<pdfrwt beam="2">  1        4 0.17914857E-01 0.14741995E+03</pdfrwt>
<totfact> 0.72848087E+03</totfact>
</mgrwt>
</event>
<event>
 6    4  0.3189516E-003  0.1284029E+03  0.7818608E-02  0.1229845E+00
          4   -1    0    0  502    0 -0.00000000000E+00  0.00000000000E+00  0.49386317426E+03  0.49386480720E+03  0.12700000000E+01 0.  1.
         21   -1    0    0  501  502  0.00000000000E+00 -0.00000000000E+00 -0.13052983508E+02  0.13052983508E+02  0.00000000000E+00 0.  1.
         25    2    1    2    0    0 -0.12246926276E+02 -0.26645896839E+02  0.42335346005E+03  0.44239740769E+03  0.12500929235E+03 0.  0.
    9000005    1    3    3    0    0  0.47334480448E+02 -0.13060460808E+02  0.81744518881E+02  0.95364013354E+02  0.10000000000E+01 0.  0.
    9000005    1    3    3    0    0 -0.59581406725E+02 -0.13585436030E+02  0.34160894117E+03  0.34703339434E+03  0.10000000000E+01 0.  0.
          4    1    1    2  501    0  0.12246926276E+02  0.26645896839E+02  0.57456730705E+02  0.64520383019E+02  0.12700000000E+01 0. -1.
<mgrwt>
<rscale>  1 0.12840294E+03</rscale>
<asrwt>0</asrwt>
<pdfrwt beam="2">  1       21 0.20081517E-02 0.12840294E+03</pdfrwt>
<pdfrwt beam="1">  1        4 0.75983813E-01 0.12840294E+03</pdfrwt>
<totfact> 0.77751719E+04</totfact>
</mgrwt>
</event>
<event>
 6    4  0.3189516E-003  0.1269912E+03  0.7818608E-02  0.1231990E+00
         -4   -1    0    0    0  501 -0.00000000000E+00  0.00000000000E+00  0.75844719851E+02  0.75855352014E+02  0.12700000000E+01 0. -1.
         21   -1    0    0  501  502  0.00000000000E+00 -0.00000000000E+00 -0.17109296872E+03  0.17109296872E+03  0.00000000000E+00 0.  1.
         25    2    1    2    0    0  0.11487615963E+02 -0.19238548300E+02  0.20858037286E+02  0.12869279382E+03  0.12499876160E+03 0.  0.
    9000005    1    3    3    0    0 -0.60089763629E-01  0.27525450648E+02 -0.41550577844E+02  0.49850823096E+02  0.10000000000E+01 0.  0.
    9000005    1    3    3    0    0  0.11547705726E+02 -0.46763998948E+02  0.62408615130E+02  0.78841970723E+02  0.10000000000E+01 0.  0.
         -4    1    1    2    0  502 -0.11487615963E+02  0.19238548300E+02 -0.11610628615E+03  0.11825552691E+03  0.12700000000E+01 0.  1.
<mgrwt>
<rscale>  1 0.12699125E+03</rscale>
<asrwt>0</asrwt>
<pdfrwt beam="2">  1       21 0.26321995E-01 0.12699125E+03</pdfrwt>
<pdfrwt beam="1">  1       -4 0.11669599E-01 0.12699125E+03</pdfrwt>
<totfact> 0.32348011E+04</totfact>
</mgrwt>
</event>
<event>
 6    4  0.3189516E-003  0.1294992E+03  0.7818608E-02  0.1228201E+00
         21   -1    0    0  501  502  0.00000000000E+00  0.00000000000E+00  0.85824386315E+02  0.85824386315E+02  0.00000000000E+00 0.  1.
         -4   -1    0    0    0  501 -0.00000000000E+00 -0.00000000000E+00 -0.83330325382E+02  0.83340002569E+02  0.12700000000E+01 0.  1.
         25    2    1    2    0    0  0.32941060035E+02  0.77451859339E+01 -0.16159334714E+02  0.13050351188E+03  0.12499976469E+03 0.  0.
    9000005    1    3    3    0    0 -0.25764833082E+02  0.96957274451E+01 -0.54002726924E+02  0.60622836206E+02  0.10000000000E+01 0.  0.
    9000005    1    3    3    0    0  0.58705893118E+02 -0.19505415112E+01  0.37843392210E+02  0.69880675675E+02  0.10000000000E+01 0.  0.
         -4    1    1    2    0  502 -0.32941060035E+02 -0.77451859339E+01  0.18653395648E+02  0.38660877003E+02  0.12700000000E+01 0. -1.
<mgrwt>
<rscale>  1 0.12949920E+03</rscale>
<asrwt>0</asrwt>
<pdfrwt beam="1">  1       21 0.13203752E-01 0.12949920E+03</pdfrwt>
<pdfrwt beam="2">  1       -4 0.12821517E-01 0.12949920E+03</pdfrwt>
<totfact> 0.98117811E+04</totfact>
</mgrwt>
</event>
<event>
 6    4  0.3189516E-003  0.1424038E+03  0.7818608E-02  0.1210131E+00
          4   -1    0    0  502    0 -0.00000000000E+00  0.00000000000E+00  0.16299884896E+03  0.16300379646E+03  0.12700000000E+01 0.  1.
         21   -1    0    0  501  502  0.00000000000E+00 -0.00000000000E+00 -0.13974555535E+03  0.13974555535E+03  0.00000000000E+00 0. -1.
         25    2    1    2    0    0 -0.36685713201E+02  0.57533088987E+02  0.11871823513E+03  0.18539916714E+03  0.12499173550E+03 0.  0.
    9000005    1    3    3    0    0 -0.80201462950E+02  0.57524168812E+02  0.78114304092E+02  0.12587354432E+03  0.10000000000E+01 0.  0.
    9000005    1    3    3    0    0  0.43515749749E+02  0.89201753844E-02  0.40603931042E+02  0.59525622818E+02  0.10000000000E+01 0.  0.
          4    1    1    2  501    0  0.36685713201E+02 -0.57533088987E+02 -0.95464941528E+02  0.11735018467E+03  0.12700000000E+01 0. -1.
<mgrwt>
<rscale>  1 0.14240376E+03</rscale>
<asrwt>0</asrwt>
<pdfrwt beam="2">  1       21 0.21499316E-01 0.14240376E+03</pdfrwt>
<pdfrwt beam="1">  1        4 0.25077570E-01 0.14240376E+03</pdfrwt>
<totfact> 0.12348180E+04</totfact>
</mgrwt>
</event>
<event>
 6    4  0.3189516E-003  0.1381443E+03  0.7818608E-02  0.1215848E+00
         21   -1    0    0  501  502  0.00000000000E+00  0.00000000000E+00  0.90354365995E+02  0.90354365995E+02  0.00000000000E+00 0.  1.
         -4   -1    0    0    0  501 -0.00000000000E+00 -0.00000000000E+00 -0.26506304442E+03  0.26506608689E+03  0.12700000000E+01 0. -1.
         25    2    1    2    0    0  0.39684705596E+02 -0.43398422826E+02 -0.23410619283E+03  0.27182633480E+03  0.12500219120E+03 0.  0.
    9000005    1    3    3    0    0  0.80039488350E+02 -0.50212874434E+02 -0.18625249847E+03  0.20885077361E+03  0.10000000000E+01 0.  0.
    9000005    1    3    3    0    0 -0.40354782754E+02  0.68144516077E+01 -0.47853694364E+02  0.62975561181E+02  0.10000000000E+01 0.  0.
         -4    1    1    2    0  502 -0.39684705596E+02  0.43398422826E+02  0.59397514403E+02  0.83594118090E+02  0.12700000000E+01 0.  1.
<mgrwt>
<rscale>  1 0.13814430E+03</rscale>
<asrwt>0</asrwt>
<pdfrwt beam="1">  1       21 0.13900672E-01 0.13814430E+03</pdfrwt>
<pdfrwt beam="2">  1       -4 0.40779850E-01 0.13814430E+03</pdfrwt>
<totfact> 0.10810742E+04</totfact>
</mgrwt>
</event>
<event>
 6    4  0.3189516E-003  0.1273044E+03  0.7818608E-02  0.1231511E+00
         21   -1    0    0  501  502  0.00000000000E+00  0.00000000000E+00  0.38747949490E+01  0.38747949490E+01  0.00000000000E+00 0. -1.
          4   -1    0    0  502    0 -0.00000000000E+00 -0.00000000000E+00 -0.15648977224E+04  0.15648982377E+04  0.12700000000E+01 0. -1.
         25    2    1    2    0    0 -0.18040658915E+02 -0.15989809354E+02 -0.14203658658E+04  0.14260594690E+04  0.12500110767E+03 0.  0.
    9000005    1    3    3    0    0  0.45960468234E+01 -0.53002282847E+02 -0.12146959243E+04  0.12158608284E+04  0.10000000000E+01 0.  0.
    9000005    1    3    3    0    0 -0.22636705738E+02  0.37012473492E+02 -0.20566994152E+03  0.21019864054E+03  0.10000000000E+01 0.  0.
          4    1    1    2  501    0  0.18040658915E+02  0.15989809354E+02 -0.14065706158E+03  0.14271356365E+03  0.12700000000E+01 0.  1.
<mgrwt>
<rscale>  1 0.12730442E+03</rscale>
<asrwt>0</asrwt>
<pdfrwt beam="1">  1       21 0.59612067E-03 0.12730442E+03</pdfrwt>
<pdfrwt beam="2">  1        4 0.24077020E+00 0.12730442E+03</pdfrwt>
<totfact> 0.28367926E+04</totfact>
</mgrwt>
</event>
<event>
 6    4  0.3189516E-003  0.1300798E+03  0.7818608E-02  0.1227337E+00
          4   -1    0    0  502    0 -0.00000000000E+00  0.00000000000E+00  0.38812348536E+02  0.38833121158E+02  0.12700000000E+01 0.  1.
         21   -1    0    0  501  502  0.00000000000E+00 -0.00000000000E+00 -0.34064839901E+03  0.34064839901E+03  0.00000000000E+00 0. -1.
         25    2    1    2    0    0  0.27472326892E+02  0.23018611994E+02 -0.75666974113E+02  0.15048665288E+03  0.12504461796E+03 0.  0.
    9000005    1    3    3    0    0  0.27893638557E+02 -0.39831400545E+02  0.42360883468E+01  0.48821511506E+02  0.10000000000E+01 0.  0.
    9000005    1    3    3    0    0 -0.42131166509E+00  0.62850012539E+02 -0.79903062460E+02  0.10166514137E+03  0.10000000000E+01 0.  0.
          4    1    1    2  501    0 -0.27472326892E+02 -0.23018611994E+02 -0.22616907636E+03  0.22899486729E+03  0.12700000000E+01 0. -1.
<mgrwt>
<rscale>  1 0.13007975E+03</rscale>
<asrwt>0</asrwt>
<pdfrwt beam="2">  1       21 0.52407448E-01 0.13007975E+03</pdfrwt>
<pdfrwt beam="1">  1        4 0.59729103E-02 0.13007975E+03</pdfrwt>
<totfact> 0.25186558E+04</totfact>
</mgrwt>
</event>
<event>
 6    4  0.3189516E-003  0.1380527E+03  0.7818608E-02  0.1215973E+00
         -4   -1    0    0    0  501 -0.00000000000E+00  0.00000000000E+00  0.55239594539E+03  0.55239740530E+03  0.12700000000E+01 0.  1.
         21   -1    0    0  501  502  0.00000000000E+00 -0.00000000000E+00 -0.29054144622E+02  0.29054144622E+02  0.00000000000E+00 0. -1.
         25    2    1    2    0    0 -0.48947122742E+02  0.32199044213E+02  0.49942925719E+03  0.51815840722E+03  0.12500381098E+03 0.  0.
    9000005    1    3    3    0    0  0.42325024769E+01  0.45288295970E+02  0.59850378685E+02  0.75179862050E+02  0.10000000000E+01 0.  0.
    9000005    1    3    3    0    0 -0.53179625219E+02 -0.13089251757E+02  0.43957887851E+03  0.44297854517E+03  0.10000000000E+01 0.  0.
         -4    1    1    2    0  502  0.48947122742E+02 -0.32199044213E+02  0.23912543572E+02  0.63293142702E+02  0.12700000000E+01 0. -1.
<mgrwt>
<rscale>  1 0.13805271E+03</rscale>
<asrwt>0</asrwt>
<pdfrwt beam="2">  1       21 0.44698688E-02 0.13805271E+03</pdfrwt>
<pdfrwt beam="1">  1       -4 0.84986231E-01 0.13805271E+03</pdfrwt>
<totfact> 0.16461730E+04</totfact>
</mgrwt>
</event>
<event>
 6    4  0.3189516E-003  0.1268994E+03  0.7818608E-02  0.1232130E+00
         21   -1    0    0  501  502  0.00000000000E+00  0.00000000000E+00  0.19613417902E+02  0.19613417902E+02  0.00000000000E+00 0. -1.
          4   -1    0    0  502    0 -0.00000000000E+00 -0.00000000000E+00 -0.28606001698E+03  0.28606283613E+03  0.12700000000E+01 0. -1.
         25    2    1    2    0    0  0.21799404050E+02  0.16857401060E+01 -0.23861933098E+03  0.27026403176E+03  0.12500162402E+03 0.  0.
    9000005    1    3    3    0    0  0.41989177508E+02  0.53233956481E+02 -0.16298904306E+03  0.17653150797E+03  0.10000000000E+01 0.  0.
    9000005    1    3    3    0    0 -0.20189773459E+02 -0.51548216375E+02 -0.75630287922E+02  0.93732523784E+02  0.10000000000E+01 0.  0.
          4    1    1    2  501    0 -0.21799404050E+02 -0.16857401060E+01 -0.27827268100E+02  0.35412222277E+02  0.12700000000E+01 0.  1.
<mgrwt>
<rscale>  1 0.12689942E+03</rscale>
<asrwt>0</asrwt>
<pdfrwt beam="1">  1       21 0.30174491E-02 0.12689942E+03</pdfrwt>
<pdfrwt beam="2">  1        4 0.44012610E-01 0.12689942E+03</pdfrwt>
<totfact> 0.12503600E+05</totfact>
</mgrwt>
</event>
<event>
 6    4  0.3189516E-003  0.1298356E+03  0.7818608E-02  0.1227700E+00
         -4   -1    0    0    0  501 -0.00000000000E+00  0.00000000000E+00  0.26833182266E+03  0.26833482807E+03  0.12700000000E+01 0.  1.
         21   -1    0    0  501  502  0.00000000000E+00 -0.00000000000E+00 -0.28898641748E+02  0.28898641748E+02  0.00000000000E+00 0.  1.
         25    2    1    2    0    0  0.22968815715E+02  0.26534235267E+02  0.22392725367E+03  0.25884494528E+03  0.12500263447E+03 0.  0.
    9000005    1    3    3    0    0  0.24291588689E+02  0.18144691226E+02 -0.41396443682E+01  0.30617768636E+02  0.10000000000E+01 0.  0.
    9000005    1    3    3    0    0 -0.13227729743E+01  0.83895440411E+01  0.22806689804E+03  0.22822717664E+03  0.10000000000E+01 0.  0.
         -4    1    1    2    0  502 -0.22968815715E+02 -0.26534235267E+02  0.15505927248E+02  0.38388524540E+02  0.12700000000E+01 0. -1.
<mgrwt>
<rscale>  1 0.12983563E+03</rscale>
<asrwt>0</asrwt>
<pdfrwt beam="2">  1       21 0.44459451E-02 0.12983563E+03</pdfrwt>
<pdfrwt beam="1">  1       -4 0.41284195E-01 0.12983563E+03</pdfrwt>
<totfact> 0.75020288E+04</totfact>
</mgrwt>
</event>
<event>
 6    4  0.3189516E-003  0.1294010E+03  0.7818608E-02  0.1228347E+00
         21   -1    0    0  501  502  0.00000000000E+00  0.00000000000E+00  0.14345907703E+02  0.14345907703E+02  0.00000000000E+00 0.  1.
         -4   -1    0    0    0  501 -0.00000000000E+00 -0.00000000000E+00 -0.47642810612E+03  0.47642979882E+03  0.12700000000E+01 0.  1.
         25    2    1    2    0    0  0.13696240758E+02  0.30527421934E+02 -0.39746087761E+03  0.41799495011E+03  0.12500047434E+03 0.  0.
    9000005    1    3    3    0    0  0.22654055968E+02  0.74557300547E+02 -0.31021520289E+03  0.31985382509E+03  0.10000000000E+01 0.  0.
    9000005    1    3    3    0    0 -0.89578152106E+01 -0.44029878613E+02 -0.87245674718E+02  0.98141125024E+02  0.10000000000E+01 0.  0.
         -4    1    1    2    0  502 -0.13696240758E+02 -0.30527421934E+02 -0.64621320808E+02  0.72780756411E+02  0.12700000000E+01 0. -1.
<mgrwt>
<rscale>  1 0.12940104E+03</rscale>
<asrwt>0</asrwt>
<pdfrwt beam="1">  1       21 0.22070631E-02 0.12940104E+03</pdfrwt>
<pdfrwt beam="2">  1       -4 0.73301074E-01 0.12940104E+03</pdfrwt>
<totfact> 0.72262473E+04</totfact>
</mgrwt>
</event>
<event>
 6    4  0.3189516E-003  0.1434900E+03  0.7818608E-02  0.1208709E+00
         -4   -1    0    0    0  501 -0.00000000000E+00  0.00000000000E+00  0.29752831837E+02  0.29779924485E+02  0.12700000000E+01 0. -1.
         21   -1    0    0  501  502  0.00000000000E+00 -0.00000000000E+00 -0.50487855010E+03  0.50487855010E+03  0.00000000000E+00 0.  1.
         25    2    1    2    0    0  0.45742322659E+02  0.53587625820E+02 -0.17467472496E+03  0.22605451155E+03  0.12500155571E+03 0.  0.
    9000005    1    3    3    0    0  0.66373953005E+02 -0.12175111527E+02 -0.12154465871E+03  0.13902459868E+03  0.10000000000E+01 0.  0.
    9000005    1    3    3    0    0 -0.20631630346E+02  0.65762737347E+02 -0.53130066250E+02  0.87029912868E+02  0.10000000000E+01 0.  0.
         -4    1    1    2    0  502 -0.45742322659E+02 -0.53587625820E+02 -0.30045099330E+03  0.30860396303E+03  0.12700000000E+01 0.  1.
<mgrwt>
<rscale>  1 0.14349001E+03</rscale>
<asrwt>0</asrwt>
<pdfrwt beam="2">  1       21 0.77673619E-01 0.14349001E+03</pdfrwt>
<pdfrwt beam="1">  1       -4 0.45795659E-02 0.14349001E+03</pdfrwt>
<totfact> 0.16720197E+04</totfact>
</mgrwt>
</event>
<event>
 6    4  0.3189516E-003  0.1318205E+03  0.7818608E-02  0.1224779E+00
         21   -1    0    0  501  502  0.00000000000E+00  0.00000000000E+00  0.42314544026E+03  0.42314544026E+03  0.00000000000E+00 0. -1.
          4   -1    0    0  502    0 -0.00000000000E+00 -0.00000000000E+00 -0.18289676727E+02  0.18333716884E+02  0.12700000000E+01 0. -1.
         25    2    1    2    0    0 -0.40791518653E+02  0.93163885854E+01  0.33552450371E+03  0.36049039509E+03  0.12500355704E+03 0.  0.
    9000005    1    3    3    0    0 -0.34848579303E+02 -0.55492455133E+02  0.14409018536E+03  0.15829345398E+03  0.10000000000E+01 0.  0.
    9000005    1    3    3    0    0 -0.59429393493E+01  0.64808843718E+02  0.19143431835E+03  0.20219694111E+03  0.10000000000E+01 0.  0.
          4    1    1    2  501    0  0.40791518653E+02 -0.93163885854E+01  0.69331259829E+02  0.80988762058E+02  0.12700000000E+01 0.  1.
<mgrwt>
<rscale>  1 0.13182046E+03</rscale>
<asrwt>0</asrwt>
<pdfrwt beam="1">  1       21 0.65099292E-01 0.13182046E+03</pdfrwt>
<pdfrwt beam="2">  1        4 0.28173310E-02 0.13182046E+03</pdfrwt>
<totfact> 0.52660058E+04</totfact>
</mgrwt>
</event>
<event>
 6    4  0.3189516E-003  0.1343119E+03  0.7818608E-02  0.1221194E+00
         21   -1    0    0  501  502  0.00000000000E+00  0.00000000000E+00  0.55746529852E+02  0.55746529852E+02  0.00000000000E+00 0.  1.
         -4   -1    0    0    0  501 -0.00000000000E+00 -0.00000000000E+00 -0.30669627977E+03  0.30669890923E+03  0.12700000000E+01 0. -1.
         25    2    1    2    0    0  0.99139336404E+01 -0.48120352911E+02 -0.27624827240E+03  0.30716901930E+03  0.12500337582E+03 0.  0.
    9000005    1    3    3    0    0  0.95963502427E+01 -0.32561793578E+02 -0.36855222179E+01  0.34160553465E+02  0.10000000000E+01 0.  0.
    9000005    1    3    3    0    0  0.31758339773E+00 -0.15558559333E+02 -0.27256275018E+03  0.27300846583E+03  0.10000000000E+01 0.  0.
         -4    1    1    2    0  502 -0.99139336404E+01  0.48120352911E+02  0.25298522485E+02  0.55276419787E+02  0.12700000000E+01 0.  1.
<mgrwt>
<rscale>  1 0.13431194E+03</rscale>
<asrwt>0</asrwt>
<pdfrwt beam="1">  1       21 0.85763891E-02 0.13431194E+03</pdfrwt>
<pdfrwt beam="2">  1       -4 0.47185359E-01 0.13431194E+03</pdfrwt>
<totfact> 0.18880489E+04</totfact>
</mgrwt>
</event>
<event>
 6    4  0.3189516E-003  0.1284643E+03  0.7818608E-02  0.1229752E+00
          4   -1    0    0  502    0 -0.00000000000E+00  0.00000000000E+00  0.47541800121E+03  0.47541969750E+03  0.12700000000E+01 0. -1.
         21   -1    0    0  501  502  0.00000000000E+00 -0.00000000000E+00 -0.13996279821E+02  0.13996279821E+02  0.00000000000E+00 0.  1.
         25    2    1    2    0    0  0.33833952281E+01  0.29445459081E+02  0.41405592830E+03  0.43352667890E+03  0.12499834851E+03 0.  0.
    9000005    1    3    3    0    0  0.19003244143E+02  0.37321373505E+02  0.41388945692E+03  0.41600419560E+03  0.10000000000E+01 0.  0.
    9000005    1    3    3    0    0 -0.15619848915E+02 -0.78759144243E+01  0.16647138115E+00  0.17522483296E+02  0.10000000000E+01 0.  0.
          4    1    1    2  501    0 -0.33833952281E+01 -0.29445459081E+02  0.47365793081E+02  0.55889298421E+02  0.12700000000E+01 0.  1.
<mgrwt>
<rscale>  1 0.12846427E+03</rscale>
<asrwt>0</asrwt>
<pdfrwt beam="2">  1       21 0.21532742E-02 0.12846427E+03</pdfrwt>
<pdfrwt beam="1">  1        4 0.73145781E-01 0.12846427E+03</pdfrwt>
<totfact> 0.75475598E+04</totfact>
</mgrwt>
</event>
<event>
 6    4  0.3189516E-003  0.1274772E+03  0.7818608E-02  0.1231248E+00
         21   -1    0    0  501  502  0.00000000000E+00  0.00000000000E+00  0.12259401195E+03  0.12259401195E+03  0.00000000000E+00 0. -1.
         -4   -1    0    0    0  501 -0.00000000000E+00 -0.00000000000E+00 -0.11687490879E+03  0.11688180870E+03  0.12700000000E+01 0.  1.
         25    2    1    2    0    0 -0.18185472346E+02  0.17184640450E+02 -0.79778708694E+02  0.15038310487E+03  0.12499765037E+03 0.  0.
    9000005    1    3    3    0    0  0.19055831587E+02  0.13630576582E+01  0.28760907584E+02  0.34542328362E+02  0.10000000000E+01 0.  0.
    9000005    1    3    3    0    0 -0.37241303933E+02  0.15821582792E+02 -0.10853961628E+03  0.11584077651E+03  0.10000000000E+01 0.  0.
         -4    1    1    2    0  502  0.18185472346E+02 -0.17184640450E+02  0.85497811860E+02  0.89092715778E+02  0.12700000000E+01 0. -1.
<mgrwt>
<rscale>  1 0.12747720E+03</rscale>
<asrwt>0</asrwt>
<pdfrwt beam="1">  1       21 0.18860617E-01 0.12747720E+03</pdfrwt>
<pdfrwt beam="2">  1       -4 0.17981792E-01 0.12747720E+03</pdfrwt>
<totfact> 0.28443528E+04</totfact>
</mgrwt>
</event>
<event>
 6    4  0.3189516E-003  0.1301836E+03  0.7818608E-02  0.1227184E+00
          4   -1    0    0  502    0 -0.00000000000E+00  0.00000000000E+00  0.14941914800E+03  0.14942454514E+03  0.12700000000E+01 0. -1.
         21   -1    0    0  501  502  0.00000000000E+00 -0.00000000000E+00 -0.47428834766E+02  0.47428834766E+02  0.00000000000E+00 0. -1.
         25    2    1    2    0    0  0.24880006401E+02 -0.26532692351E+02  0.90997498372E+02  0.15883426155E+03  0.12499911780E+03 0.  0.
    9000005    1    3    3    0    0  0.55818452944E+02 -0.35490259831E+02  0.10467514136E+03  0.12382707075E+03  0.10000000000E+01 0.  0.
    9000005    1    3    3    0    0 -0.30938446544E+02  0.89575674806E+01 -0.13677642989E+02  0.35007190796E+02  0.10000000000E+01 0.  0.
          4    1    1    2  501    0 -0.24880006401E+02  0.26532692351E+02  0.10992814864E+02  0.38019118355E+02  0.12700000000E+01 0.  1.
<mgrwt>
<rscale>  1 0.13018363E+03</rscale>
<asrwt>0</asrwt>
<pdfrwt beam="2">  1       21 0.72967439E-02 0.13018363E+03</pdfrwt>
<pdfrwt beam="1">  1        4 0.22989284E-01 0.13018363E+03</pdfrwt>
<totfact> 0.98535282E+04</totfact>
</mgrwt>
</event>
<event>
 6    4  0.3189516E-003  0.1272105E+03  0.7818608E-02  0.1231655E+00
          4   -1    0    0  502    0 -0.00000000000E+00  0.00000000000E+00  0.16583527174E+02  0.16632085664E+02  0.12700000000E+01 0.  1.
         21   -1    0    0  501  502  0.00000000000E+00 -0.00000000000E+00 -0.91493575461E+03  0.91493575461E+03  0.00000000000E+00 0.  1.
         25    2    1    2    0    0  0.23437164424E+02  0.29611440800E+01 -0.23030990225E+03  0.26310674927E+03  0.12499776552E+03 0.  0.
    9000005    1    3    3    0    0  0.18848770563E+02  0.69068261691E-01  0.10924811229E+02  0.21808998660E+02  0.10000000000E+01 0.  0.
    9000005    1    3    3    0    0  0.45883938610E+01  0.28920758183E+01 -0.24123471348E+03  0.24129775061E+03  0.10000000000E+01 0.  0.
          4    1    1    2  501    0 -0.23437164424E+02 -0.29611440800E+01 -0.66804232519E+03  0.66846109101E+03  0.12700000000E+01 0. -1.
<mgrwt>
<rscale>  1 0.12721050E+03</rscale>
<asrwt>0</asrwt>
<pdfrwt beam="2">  1       21 0.14075934E+00 0.12721050E+03</pdfrwt>
<pdfrwt beam="1">  1        4 0.25551151E-02 0.12721050E+03</pdfrwt>
<totfact> 0.10160543E+04</totfact>
</mgrwt>
</event>
<event>
 6    4  0.3189516E-003  0.1283608E+03  0.7818608E-02  0.1229908E+00
          4   -1    0    0  502    0 -0.00000000000E+00  0.00000000000E+00  0.21577865046E+03  0.21578238783E+03  0.12700000000E+01 0. -1.
         21   -1    0    0  501  502  0.00000000000E+00 -0.00000000000E+00 -0.16731951293E+03  0.16731951293E+03  0.00000000000E+00 0.  1.
         25    2    1    2    0    0  0.32263982119E+01  0.29096928443E+02  0.19511257938E+03  0.23354961626E+03  0.12497785297E+03 0.  0.
    9000005    1    3    3    0    0 -0.46970154579E+02 -0.13787790633E+00  0.15745543270E+03  0.16431502584E+03  0.10000000000E+01 0.  0.
    9000005    1    3    3    0    0  0.50196552791E+02  0.29234806349E+02  0.37657146686E+02  0.69234590422E+02  0.10000000000E+01 0.  0.
          4    1    1    2  501    0 -0.32263982119E+01 -0.29096928443E+02 -0.14665344185E+03  0.14955228449E+03  0.12700000000E+01 0.  1.
<mgrwt>
<rscale>  1 0.12836084E+03</rscale>
<asrwt>0</asrwt>
<pdfrwt beam="2">  1       21 0.25741464E-01 0.12836084E+03</pdfrwt>
<pdfrwt beam="1">  1        4 0.33197374E-01 0.12836084E+03</pdfrwt>
<totfact> 0.51527529E+03</totfact>
</mgrwt>
</event>
<event>
 6    4  0.3189516E-003  0.1267726E+03  0.7818608E-02  0.1232325E+00
         21   -1    0    0  501  502  0.00000000000E+00  0.00000000000E+00  0.15783074788E+02  0.15783074788E+02  0.00000000000E+00 0.  1.
          4   -1    0    0  502    0 -0.00000000000E+00 -0.00000000000E+00 -0.36570713649E+03  0.36570934166E+03  0.12700000000E+01 0.  1.
         25    2    1    2    0    0 -0.16225750006E+02  0.13414726792E+02 -0.26179080658E+03  0.29087060111E+03  0.12501220068E+03 0.  0.
    9000005    1    3    3    0    0 -0.12026989749E+02 -0.36051817793E+02 -0.22719150391E+03  0.23035051877E+03  0.10000000000E+01 0.  0.
    9000005    1    3    3    0    0 -0.41987602574E+01  0.49466544584E+02 -0.34599302674E+02  0.60520082339E+02  0.10000000000E+01 0.  0.
          4    1    1    2  501    0  0.16225750006E+02 -0.13414726792E+02 -0.88133255120E+02  0.90621815344E+02  0.12700000000E+01 0. -1.
<mgrwt>
<rscale>  1 0.12677255E+03</rscale>
<asrwt>0</asrwt>
<pdfrwt beam="1">  1       21 0.24281654E-02 0.12677255E+03</pdfrwt>
<pdfrwt beam="2">  1        4 0.56266735E-01 0.12677255E+03</pdfrwt>
<totfact> 0.10817378E+05</totfact>
</mgrwt>
</event>
<event>
 6    4  0.3189516E-003  0.2770453E+03  0.7818608E-02  0.1097314E+00
         21   -1    0    0  501  502  0.00000000000E+00  0.00000000000E+00  0.56209190387E+03  0.56209190387E+03  0.00000000000E+00 0.  1.
         -4   -1    0    0    0  501 -0.00000000000E+00 -0.00000000000E+00 -0.14331299925E+03  0.14331862634E+03  0.12700000000E+01 0. -1.
         25    2    1    2    0    0 -0.19784653047E+03 -0.14827762217E+03  0.84529871946E+02  0.28965395287E+03  0.12499844122E+03 0.  0.
    9000005    1    3    3    0    0 -0.14682679091E+03 -0.11597932553E+03  0.16657597088E+01  0.18711783783E+03  0.10000000000E+01 0.  0.
    9000005    1    3    3    0    0 -0.51019739562E+02 -0.32298296643E+02  0.82864112237E+02  0.10253611504E+03  0.10000000000E+01 0.  0.
         -4    1    1    2    0  502  0.19784653047E+03  0.14827762217E+03  0.33424903267E+03  0.41575657734E+03  0.12700000000E+01 0.  1.
<mgrwt>
<rscale>  1 0.27704533E+03</rscale>
<asrwt>0</asrwt>
<pdfrwt beam="1">  1       21 0.86475677E-01 0.27704533E+03</pdfrwt>
<pdfrwt beam="2">  1       -4 0.22048697E-01 0.27704533E+03</pdfrwt>
<totfact> 0.91029345E+02</totfact>
</mgrwt>
</event>
<event>
 6    4  0.3189516E-003  0.1665207E+03  0.7818608E-02  0.1181526E+00
         21   -1    0    0  501  502  0.00000000000E+00  0.00000000000E+00  0.39595256018E+02  0.39595256018E+02  0.00000000000E+00 0. -1.
          4   -1    0    0  502    0 -0.00000000000E+00 -0.00000000000E+00 -0.17457532828E+04  0.17457537448E+04  0.12700000000E+01 0.  1.
         25    2    1    2    0    0  0.89647948551E+02  0.63759709376E+02 -0.16561491853E+04  0.16644997048E+04  0.12500835166E+03 0.  0.
    9000005    1    3    3    0    0  0.79042527105E+02  0.76333576145E+02 -0.16292648951E+04  0.16329665135E+04  0.10000000000E+01 0.  0.
    9000005    1    3    3    0    0  0.10605421446E+02 -0.12573866770E+02 -0.26884290215E+02  0.31533191243E+02  0.10000000000E+01 0.  0.
          4    1    1    2  501    0 -0.89647948551E+02 -0.63759709376E+02 -0.50008841497E+02  0.12084929601E+03  0.12700000000E+01 0. -1.
<mgrwt>
<rscale>  1 0.16652070E+03</rscale>
<asrwt>0</asrwt>
<pdfrwt beam="1">  1       21 0.60915766E-02 0.16652070E+03</pdfrwt>
<pdfrwt beam="2">  1        4 0.26857908E+00 0.16652070E+03</pdfrwt>
<totfact> 0.45858211E+02</totfact>
</mgrwt>
</event>
<event>
 6    4  0.3189516E-003  0.1339603E+03  0.7818608E-02  0.1221695E+00
         21   -1    0    0  501  502  0.00000000000E+00  0.00000000000E+00  0.99032156617E+02  0.99032156617E+02  0.00000000000E+00 0. -1.
          4   -1    0    0  502    0 -0.00000000000E+00 -0.00000000000E+00 -0.92364423943E+02  0.92373154706E+02  0.12700000000E+01 0.  1.
         25    2    1    2    0    0  0.43899986577E+02 -0.19851248417E+02 -0.21359031767E+02  0.13565234449E+03  0.12499627772E+03 0.  0.
    9000005    1    3    3    0    0  0.32358525220E+02  0.72488879075E+01  0.49111592018E+02  0.59266930078E+02  0.10000000000E+01 0.  0.
    9000005    1    3    3    0    0  0.11541461356E+02 -0.27100136325E+02 -0.70470623785E+02  0.76385414417E+02  0.10000000000E+01 0.  0.
          4    1    1    2  501    0 -0.43899986577E+02  0.19851248417E+02  0.28026764440E+02  0.55752966828E+02  0.12700000000E+01 0. -1.
<mgrwt>
<rscale>  1 0.13396026E+03</rscale>
<asrwt>0</asrwt>
<pdfrwt beam="1">  1       21 0.15235716E-01 0.13396026E+03</pdfrwt>
<pdfrwt beam="2">  1        4 0.14211210E-01 0.13396026E+03</pdfrwt>
<totfact> 0.63802557E+04</totfact>
</mgrwt>
</event>
<event>
 6    4  0.3189516E-003  0.1312174E+03  0.7818608E-02  0.1225660E+00
         -4   -1    0    0    0  501 -0.00000000000E+00  0.00000000000E+00  0.46672844142E+02  0.46690119729E+02  0.12700000000E+01 0. -1.
         21   -1    0    0  501  502  0.00000000000E+00 -0.00000000000E+00 -0.27730204531E+03  0.27730204531E+03  0.00000000000E+00 0.  1.
         25    2    1    2    0    0 -0.23265376964E+02 -0.32434670154E+02 -0.52316968348E+02  0.14126244423E+03  0.12499890951E+03 0.  0.
    9000005    1    3    3    0    0 -0.62365201672E+02 -0.55251030303E+02 -0.47009655340E+02  0.95671324985E+02  0.10000000000E+01 0.  0.
    9000005    1    3    3    0    0  0.39099824708E+02  0.22816360150E+02 -0.53073130080E+01  0.45591119246E+02  0.10000000000E+01 0.  0.
         -4    1    1    2    0  502  0.23265376964E+02  0.32434670154E+02 -0.17831223282E+03  0.18272972081E+03  0.12700000000E+01 0.  1.
<mgrwt>
<rscale>  1 0.13121743E+03</rscale>
<asrwt>0</asrwt>
<pdfrwt beam="2">  1       21 0.42661853E-01 0.13121743E+03</pdfrwt>
<pdfrwt beam="1">  1       -4 0.71819903E-02 0.13121743E+03</pdfrwt>
<totfact> 0.28426950E+04</totfact>
</mgrwt>
</event>
<event>
 6    4  0.3189516E-003  0.1286449E+03  0.7818608E-02  0.1229480E+00
          4   -1    0    0  502    0 -0.00000000000E+00  0.00000000000E+00  0.57181001904E+03  0.57181142938E+03  0.12700000000E+01 0. -1.
         21   -1    0    0  501  502  0.00000000000E+00 -0.00000000000E+00 -0.12477791239E+02  0.12477791239E+02  0.00000000000E+00 0. -1.
         25    2    1    2    0    0 -0.13986772780E+02  0.27004867797E+02  0.51276579093E+03  0.52865704791E+03  0.12499850104E+03 0.  0.
    9000005    1    3    3    0    0  0.27259891886E+02  0.64461348835E+02  0.22848200196E+03  0.23896316121E+03  0.10000000000E+01 0.  0.
    9000005    1    3    3    0    0 -0.41246664666E+02 -0.37456481039E+02  0.28428378897E+03  0.28969388670E+03  0.10000000000E+01 0.  0.
          4    1    1    2  501    0  0.13986772780E+02 -0.27004867797E+02  0.46566436871E+02  0.55632172709E+02  0.12700000000E+01 0.  1.
<mgrwt>
<rscale>  1 0.12864493E+03</rscale>
<asrwt>0</asrwt>
<pdfrwt beam="2">  1       21 0.19196606E-02 0.12864493E+03</pdfrwt>
<pdfrwt beam="1">  1        4 0.87975832E-01 0.12864493E+03</pdfrwt>
<totfact> 0.60435922E+04</totfact>
</mgrwt>
</event>
<event>
 6    4  0.3189516E-003  0.1296832E+03  0.7818608E-02  0.1227927E+00
         21   -1    0    0  501  502  0.00000000000E+00  0.00000000000E+00  0.20290225953E+03  0.20290225953E+03  0.00000000000E+00 0.  1.
          4   -1    0    0  502    0 -0.00000000000E+00 -0.00000000000E+00 -0.39414042315E+02  0.39434497988E+02  0.12700000000E+01 0.  1.
         25    2    1    2    0    0 -0.18029998187E+02 -0.29461476163E+02  0.81003412694E+02  0.15290289766E+03  0.12499873532E+03 0.  0.
    9000005    1    3    3    0    0 -0.31104926912E+02  0.25617905524E+02 -0.13693078463E+02  0.42571046022E+02  0.10000000000E+01 0.  0.
    9000005    1    3    3    0    0  0.13074928726E+02 -0.55079381687E+02  0.94696491157E+02  0.11033185164E+03  0.10000000000E+01 0.  0.
          4    1    1    2  501    0  0.18029998187E+02  0.29461476163E+02  0.82484804518E+02  0.89433859855E+02  0.12700000000E+01 0. -1.
<mgrwt>
<rscale>  1 0.12968324E+03</rscale>
<asrwt>0</asrwt>
<pdfrwt beam="1">  1       21 0.31215732E-01 0.12968324E+03</pdfrwt>
<pdfrwt beam="2">  1        4 0.60655781E-02 0.12968324E+03</pdfrwt>
<totfact> 0.69366565E+04</totfact>
</mgrwt>
</event>
<event>
 6    4  0.3189516E-003  0.1322328E+03  0.7818608E-02  0.1224180E+00
         21   -1    0    0  501  502  0.00000000000E+00  0.00000000000E+00  0.73366247642E+03  0.73366247642E+03  0.00000000000E+00 0.  1.
          4   -1    0    0  502    0 -0.00000000000E+00 -0.00000000000E+00 -0.10852836974E+02  0.10926892074E+02  0.12700000000E+01 0.  1.
         25    2    1    2    0    0 -0.31951411899E+02 -0.28998460418E+02  0.47566040600E+03  0.49369863546E+03  0.12499486946E+03 0.  0.
    9000005    1    3    3    0    0  0.97767912071E+01  0.45499390303E+02  0.15250046118E+03  0.15944645128E+03  0.10000000000E+01 0.  0.
    9000005    1    3    3    0    0 -0.41728203106E+02 -0.74497850721E+02  0.32315994482E+03  0.33425218419E+03  0.10000000000E+01 0.  0.
          4    1    1    2  501    0  0.31951411899E+02  0.28998460418E+02  0.24714923345E+03  0.25089073303E+03  0.12700000000E+01 0. -1.
<mgrwt>
<rscale>  1 0.13223283E+03</rscale>
<asrwt>0</asrwt>
<pdfrwt beam="1">  1       21 0.11287111E+00 0.13223283E+03</pdfrwt>
<pdfrwt beam="2">  1        4 0.16754489E-02 0.13223283E+03</pdfrwt>
<totfact> 0.33679644E+04</totfact>
</mgrwt>
</event>
<event>
 6    4  0.3189516E-003  0.1278218E+03  0.7818608E-02  0.1230724E+00
         21   -1    0    0  501  502  0.00000000000E+00  0.00000000000E+00  0.59493272094E+02  0.59493272094E+02  0.00000000000E+00 0. -1.
          4   -1    0    0  502    0 -0.00000000000E+00 -0.00000000000E+00 -0.17073576001E+03  0.17074048332E+03  0.12700000000E+01 0.  1.
         25    2    1    2    0    0 -0.93081525382E+01  0.25023216598E+02 -0.14094660080E+03  0.19027439738E+03  0.12500239577E+03 0.  0.
    9000005    1    3    3    0    0  0.27984854068E+02  0.39953008745E+01  0.12528412715E+02  0.30936638658E+02  0.10000000000E+01 0.  0.
    9000005    1    3    3    0    0 -0.37293006606E+02  0.21027915723E+02 -0.15347501351E+03  0.15933775872E+03  0.10000000000E+01 0.  0.
          4    1    1    2  501    0  0.93081525382E+01 -0.25023216598E+02  0.29704112884E+02  0.39959358038E+02  0.12700000000E+01 0. -1.
<mgrwt>
<rscale>  1 0.12782176E+03</rscale>
<asrwt>0</asrwt>
<pdfrwt beam="1">  1       21 0.91528110E-02 0.12782176E+03</pdfrwt>
<pdfrwt beam="2">  1        4 0.26268446E-01 0.12782176E+03</pdfrwt>
<totfact> 0.51998824E+04</totfact>
</mgrwt>
</event>
<event>
 6    4  0.3189516E-003  0.1272429E+03  0.7818608E-02  0.1231605E+00
         -4   -1    0    0    0  501 -0.00000000000E+00  0.00000000000E+00  0.12372008039E+04  0.12372014558E+04  0.12700000000E+01 0. -1.
         21   -1    0    0  501  502  0.00000000000E+00 -0.00000000000E+00 -0.10274664877E+02  0.10274664877E+02  0.00000000000E+00 0.  1.
         25    2    1    2    0    0  0.18829875241E+02  0.14530844068E+02  0.12134627893E+04  0.12201158517E+04  0.12500016343E+03 0.  0.
    9000005    1    3    3    0    0 -0.13238035824E+02  0.37257033958E+01  0.11295102916E+04  0.11295944517E+04  0.10000000000E+01 0.  0.
    9000005    1    3    3    0    0  0.32067911065E+02  0.10805140673E+02  0.83952497712E+02  0.90521399996E+02  0.10000000000E+01 0.  0.
         -4    1    1    2    0  502 -0.18829875241E+02 -0.14530844068E+02  0.13463349737E+02  0.27360268951E+02  0.12700000000E+01 0.  1.
<mgrwt>
<rscale>  1 0.12724288E+03</rscale>
<asrwt>0</asrwt>
<pdfrwt beam="2">  1       21 0.15807187E-02 0.12724288E+03</pdfrwt>
<pdfrwt beam="1">  1       -4 0.19034455E+00 0.12724288E+03</pdfrwt>
<totfact> 0.12290952E+04</totfact>
</mgrwt>
</event>
<event>
 6    4  0.3189516E-003  0.1533084E+03  0.7818608E-02  0.1196466E+00
         -4   -1    0    0    0  501 -0.00000000000E+00  0.00000000000E+00  0.66758686826E+03  0.66758807626E+03  0.12700000000E+01 0. -1.
         21   -1    0    0  501  502  0.00000000000E+00 -0.00000000000E+00 -0.44220255503E+02  0.44220255503E+02  0.00000000000E+00 0.  1.
         25    2    1    2    0    0  0.59878645283E+02  0.65522217533E+02  0.60102459153E+03  0.62026931296E+03  0.12499939131E+03 0.  0.
    9000005    1    3    3    0    0  0.55236703973E+02  0.91491504971E+02  0.30719527889E+03  0.32525640397E+03  0.10000000000E+01 0.  0.
    9000005    1    3    3    0    0  0.46419413094E+01 -0.25969287438E+02  0.29382931264E+03  0.29501290899E+03  0.10000000000E+01 0.  0.
         -4    1    1    2    0  502 -0.59878645283E+02 -0.65522217533E+02  0.22342021225E+02  0.91539018804E+02  0.12700000000E+01 0.  1.
<mgrwt>
<rscale>  1 0.15330839E+03</rscale>
<asrwt>0</asrwt>
<pdfrwt beam="2">  1       21 0.68031167E-02 0.15330839E+03</pdfrwt>
<pdfrwt beam="1">  1       -4 0.10270716E+00 0.15330839E+03</pdfrwt>
<totfact> 0.52937027E+03</totfact>
</mgrwt>
</event>
<event>
 6    4  0.3189516E-003  0.2058527E+03  0.7818608E-02  0.1144893E+00
         -4   -1    0    0    0  501 -0.00000000000E+00  0.00000000000E+00  0.60255057177E+02  0.60268439630E+02  0.12700000000E+01 0.  1.
         21   -1    0    0  501  502  0.00000000000E+00 -0.00000000000E+00 -0.68797960581E+03  0.68797960581E+03  0.00000000000E+00 0. -1.
         25    2    1    2    0    0 -0.16251122067E+03  0.18442464740E+02 -0.18683388604E+03  0.27799682470E+03  0.12500124887E+03 0.  0.
    9000005    1    3    3    0    0 -0.16322538271E+02 -0.41400929206E+02 -0.63684176274E+02  0.77699012236E+02  0.10000000000E+01 0.  0.
    9000005    1    3    3    0    0 -0.14618868240E+03  0.59843393947E+02 -0.12314970977E+03  0.20029781246E+03  0.10000000000E+01 0.  0.
         -4    1    1    2    0  502  0.16251122067E+03 -0.18442464740E+02 -0.44089066260E+03  0.47025122075E+03  0.12700000000E+01 0. -1.
<mgrwt>
<rscale>  1 0.20585270E+03</rscale>
<asrwt>0</asrwt>
<pdfrwt beam="2">  1       21 0.10584302E+00 0.20585270E+03</pdfrwt>
<pdfrwt beam="1">  1       -4 0.92711284E-02 0.20585270E+03</pdfrwt>
<totfact> 0.26015342E+03</totfact>
</mgrwt>
</event>
<event>
 6    4  0.3189516E-003  0.1268301E+03  0.7818608E-02  0.1232237E+00
         21   -1    0    0  501  502  0.00000000000E+00  0.00000000000E+00  0.17319685593E+03  0.17319685593E+03  0.00000000000E+00 0.  1.
         -4   -1    0    0    0  501 -0.00000000000E+00 -0.00000000000E+00 -0.89463681412E+02  0.89472695230E+02  0.12700000000E+01 0. -1.
         25    2    1    2    0    0  0.15175168620E+02  0.15174321438E+02 -0.43156613879E+02  0.13397154390E+03  0.12500134191E+03 0.  0.
    9000005    1    3    3    0    0  0.25975639492E+02  0.40101102230E+02  0.29660420509E+02  0.56245646871E+02  0.10000000000E+01 0.  0.
    9000005    1    3    3    0    0 -0.10800470872E+02 -0.24926780792E+02 -0.72817034388E+02  0.77725897028E+02  0.10000000000E+01 0.  0.
         -4    1    1    2    0  502 -0.15175168620E+02 -0.15174321438E+02  0.12688978840E+03  0.12869800726E+03  0.12700000000E+01 0.  1.
<mgrwt>
<rscale>  1 0.12683013E+03</rscale>
<asrwt>0</asrwt>
<pdfrwt beam="1">  1       21 0.26645670E-01 0.12683013E+03</pdfrwt>
<pdfrwt beam="2">  1       -4 0.13764695E-01 0.12683013E+03</pdfrwt>
<totfact> 0.23802096E+04</totfact>
</mgrwt>
</event>
<event>
 6    4  0.3189516E-003  0.1350163E+03  0.7818608E-02  0.1220197E+00
         -4   -1    0    0    0  501 -0.00000000000E+00  0.00000000000E+00  0.17093350778E+03  0.17093822563E+03  0.12700000000E+01 0.  1.
         21   -1    0    0  501  502  0.00000000000E+00 -0.00000000000E+00 -0.53540098163E+02  0.53540098163E+02  0.00000000000E+00 0. -1.
         25    2    1    2    0    0  0.28331175714E+02  0.42439588156E+02  0.10726780801E+03  0.17244069445E+03  0.12500254520E+03 0.  0.
    9000005    1    3    3    0    0 -0.47349721036E+02  0.33153728502E+02  0.56472563193E+02  0.80816558881E+02  0.10000000000E+01 0.  0.
    9000005    1    3    3    0    0  0.75680896750E+02  0.92858596546E+01  0.50795244814E+02  0.91624135566E+02  0.10000000000E+01 0.  0.
         -4    1    1    2    0  502 -0.28331175714E+02 -0.42439588156E+02  0.10125601609E+02  0.52037629348E+02  0.12700000000E+01 0. -1.
<mgrwt>
<rscale>  1 0.13501633E+03</rscale>
<asrwt>0</asrwt>
<pdfrwt beam="2">  1       21 0.82369383E-02 0.13501633E+03</pdfrwt>
<pdfrwt beam="1">  1       -4 0.26298984E-01 0.13501633E+03</pdfrwt>
<totfact> 0.62735224E+04</totfact>
</mgrwt>
</event>
<event>
 6    4  0.3189516E-003  0.1269946E+03  0.7818608E-02  0.1231985E+00
          4   -1    0    0  502    0 -0.00000000000E+00  0.00000000000E+00  0.38935036966E+02  0.38955744166E+02  0.12700000000E+01 0. -1.
         21   -1    0    0  501  502  0.00000000000E+00 -0.00000000000E+00 -0.14537484965E+03  0.14537484965E+03  0.00000000000E+00 0. -1.
         25    2    1    2    0    0  0.21679318767E+02  0.57690259534E+01 -0.82188858291E+02  0.15127010060E+03  0.12499744152E+03 0.  0.
    9000005    1    3    3    0    0 -0.19571553580E+02 -0.45297199687E+02 -0.68129622939E+02  0.84128042476E+02  0.10000000000E+01 0.  0.
    9000005    1    3    3    0    0  0.41250872347E+02  0.51066225641E+02 -0.14059235352E+02  0.67142058125E+02  0.10000000000E+01 0.  0.
          4    1    1    2  501    0 -0.21679318767E+02 -0.57690259534E+01 -0.24250954394E+02  0.33060493216E+02  0.12700000000E+01 0.  1.
<mgrwt>
<rscale>  1 0.12699463E+03</rscale>
<asrwt>0</asrwt>
<pdfrwt beam="2">  1       21 0.22365362E-01 0.12699463E+03</pdfrwt>
<pdfrwt beam="1">  1        4 0.59920252E-02 0.12699463E+03</pdfrwt>
<totfact> 0.13301290E+05</totfact>
</mgrwt>
</event>
<event>
 6    4  0.3189516E-003  0.1315071E+03  0.7818608E-02  0.1225236E+00
          4   -1    0    0  502    0 -0.00000000000E+00  0.00000000000E+00  0.34417616990E+03  0.34417851302E+03  0.12700000000E+01 0. -1.
         21   -1    0    0  501  502  0.00000000000E+00 -0.00000000000E+00 -0.23483710752E+02  0.23483710752E+02  0.00000000000E+00 0.  1.
         25    2    1    2    0    0 -0.38786995253E+02 -0.12694544739E+02  0.28313314582E+03  0.31218342256E+03  0.12501411357E+03 0.  0.
    9000005    1    3    3    0    0  0.31717549320E+02 -0.37578975223E+02  0.64476529746E+02  0.81095038083E+02  0.10000000000E+01 0.  0.
    9000005    1    3    3    0    0 -0.70504544573E+02  0.24884430485E+02  0.21865661607E+03  0.23108838447E+03  0.10000000000E+01 0.  0.
          4    1    1    2  501    0  0.38786995253E+02  0.12694544739E+02  0.37559313332E+02  0.55478801221E+02  0.12700000000E+01 0.  1.
<mgrwt>
<rscale>  1 0.13150708E+03</rscale>
<asrwt>0</asrwt>
<pdfrwt beam="2">  1       21 0.36128788E-02 0.13150708E+03</pdfrwt>
<pdfrwt beam="1">  1        4 0.52952998E-01 0.13150708E+03</pdfrwt>
<totfact> 0.64264383E+04</totfact>
</mgrwt>
</event>
<event>
 6    4  0.3189516E-003  0.1300179E+03  0.7818608E-02  0.1227429E+00
         -4   -1    0    0    0  501 -0.00000000000E+00  0.00000000000E+00  0.18696501602E+02  0.18739585699E+02  0.12700000000E+01 0.  1.
         21   -1    0    0  501  502  0.00000000000E+00 -0.00000000000E+00 -0.36716438239E+03  0.36716438239E+03  0.00000000000E+00 0. -1.
         25    2    1    2    0    0 -0.15467595921E+02 -0.32248681224E+02 -0.27363017054E+03  0.30294904214E+03  0.12500171174E+03 0.  0.
    9000005    1    3    3    0    0 -0.36957475329E+02 -0.44992825550E+02 -0.27169937927E+03  0.27787004522E+03  0.10000000000E+01 0.  0.
    9000005    1    3    3    0    0  0.21489879408E+02  0.12744144326E+02 -0.19307912688E+01  0.25078996920E+02  0.10000000000E+01 0.  0.
         -4    1    1    2    0  502  0.15467595921E+02  0.32248681224E+02 -0.74837710254E+02  0.82954925956E+02  0.12700000000E+01 0. -1.
<mgrwt>
<rscale>  1 0.13001789E+03</rscale>
<asrwt>0</asrwt>
<pdfrwt beam="2">  1       21 0.56486825E-01 0.13001789E+03</pdfrwt>
<pdfrwt beam="1">  1       -4 0.28798681E-02 0.13001789E+03</pdfrwt>
<totfact> 0.68724287E+04</totfact>
</mgrwt>
</event>
<event>
 6    4  0.3189516E-003  0.1903187E+03  0.7818608E-02  0.1158174E+00
          4   -1    0    0  502    0 -0.00000000000E+00  0.00000000000E+00  0.16400560502E+03  0.16401052215E+03  0.12700000000E+01 0. -1.
         21   -1    0    0  501  502  0.00000000000E+00 -0.00000000000E+00 -0.26297453652E+03  0.26297453652E+03  0.00000000000E+00 0.  1.
         25    2    1    2    0    0  0.36640966789E+01 -0.14346597900E+03  0.72250502756E+02  0.20357149529E+03  0.12500122324E+03 0.  0.
    9000005    1    3    3    0    0 -0.50538084171E+02 -0.25948595995E+02  0.42019768831E+02  0.70668865552E+02  0.10000000000E+01 0.  0.
    9000005    1    3    3    0    0  0.54202180850E+02 -0.11751738301E+03  0.30230733924E+02  0.13290262974E+03  0.10000000000E+01 0.  0.
          4    1    1    2  501    0 -0.36640966789E+01  0.14346597900E+03 -0.17121943426E+03  0.22341356338E+03  0.12700000000E+01 0.  1.
<mgrwt>
<rscale>  1 0.19031873E+03</rscale>
<asrwt>0</asrwt>
<pdfrwt beam="2">  1       21 0.40457620E-01 0.19031873E+03</pdfrwt>
<pdfrwt beam="1">  1        4 0.25232246E-01 0.19031873E+03</pdfrwt>
<totfact> 0.36436318E+03</totfact>
</mgrwt>
</event>
<event>
 6    4  0.3189516E-003  0.1494645E+03  0.7818608E-02  0.1201133E+00
         21   -1    0    0  501  502  0.00000000000E+00  0.00000000000E+00  0.46282392989E+03  0.46282392989E+03  0.00000000000E+00 0.  1.
          4   -1    0    0  502    0 -0.00000000000E+00 -0.00000000000E+00 -0.33675604413E+02  0.33699543507E+02  0.12700000000E+01 0. -1.
         25    2    1    2    0    0  0.49333336757E+02  0.65427888609E+02  0.17847476097E+03  0.23279362001E+03  0.12500016997E+03 0.  0.
    9000005    1    3    3    0    0 -0.34054556882E+02 -0.11527152360E+02  0.44706249018E+02  0.57378016585E+02  0.10000000000E+01 0.  0.
    9000005    1    3    3    0    0  0.83387893639E+02  0.76955040970E+02  0.13376851195E+03  0.17541560343E+03  0.10000000000E+01 0.  0.
          4    1    1    2  501    0 -0.49333336757E+02 -0.65427888609E+02  0.25067356451E+03  0.26372985339E+03  0.12700000000E+01 0.  1.
<mgrwt>
<rscale>  1 0.14946447E+03</rscale>
<asrwt>0</asrwt>
<pdfrwt beam="1">  1       21 0.71203677E-01 0.14946447E+03</pdfrwt>
<pdfrwt beam="2">  1        4 0.51828380E-02 0.14946447E+03</pdfrwt>
<totfact> 0.16660768E+04</totfact>
</mgrwt>
</event>
<event>
 6    4  0.3189516E-003  0.1392798E+03  0.7818608E-02  0.1214301E+00
         21   -1    0    0  501  502  0.00000000000E+00  0.00000000000E+00  0.71394324103E+02  0.71394324103E+02  0.00000000000E+00 0. -1.
         -4   -1    0    0    0  501 -0.00000000000E+00 -0.00000000000E+00 -0.14126349434E+03  0.14126920306E+03  0.12700000000E+01 0. -1.
         25    2    1    2    0    0 -0.29803593831E+02  0.53719335971E+02 -0.44904642715E+02  0.14633961144E+03  0.12499933471E+03 0.  0.
    9000005    1    3    3    0    0 -0.34231870007E+02  0.48318233541E+02  0.33214859683E+02  0.67902131929E+02  0.10000000000E+01 0.  0.
    9000005    1    3    3    0    0  0.44282761760E+01  0.54011024297E+01 -0.78119502398E+02  0.78437479513E+02  0.10000000000E+01 0.  0.
         -4    1    1    2    0  502  0.29803593831E+02 -0.53719335971E+02 -0.24964527525E+02  0.66323915724E+02  0.12700000000E+01 0.  1.
<mgrwt>
<rscale>  1 0.13927977E+03</rscale>
<asrwt>0</asrwt>
<pdfrwt beam="1">  1       21 0.10983742E-01 0.13927977E+03</pdfrwt>
<pdfrwt beam="2">  1       -4 0.21734153E-01 0.13927977E+03</pdfrwt>
<totfact> 0.54073719E+04</totfact>
</mgrwt>
</event>
<event>
 6    4  0.3189516E-003  0.1277137E+03  0.7818608E-02  0.1230888E+00
         -4   -1    0    0    0  501 -0.00000000000E+00  0.00000000000E+00  0.18837697501E+03  0.18838125601E+03  0.12700000000E+01 0. -1.
         21   -1    0    0  501  502  0.00000000000E+00 -0.00000000000E+00 -0.58391409065E+02  0.58391409065E+02  0.00000000000E+00 0.  1.
         25    2    1    2    0    0 -0.19246874316E+02 -0.17781786692E+02  0.16141753564E+03  0.20583105143E+03  0.12499666720E+03 0.  0.
    9000005    1    3    3    0    0  0.22084744910E+01 -0.83911476251E+01 -0.20566025528E+02  0.22343905747E+02  0.10000000000E+01 0.  0.
    9000005    1    3    3    0    0 -0.21455348807E+02 -0.93906390669E+01  0.18198356117E+03  0.18348714568E+03  0.10000000000E+01 0.  0.
         -4    1    1    2    0  502  0.19246874316E+02  0.17781786692E+02 -0.31431969694E+02  0.40941613644E+02  0.12700000000E+01 0.  1.
<mgrwt>
<rscale>  1 0.12771375E+03</rscale>
<asrwt>0</asrwt>
<pdfrwt beam="2">  1       21 0.89832938E-02 0.12771375E+03</pdfrwt>
<pdfrwt beam="1">  1       -4 0.28982464E-01 0.12771375E+03</pdfrwt>
<totfact> 0.44702774E+04</totfact>
</mgrwt>
</event>
<event>
 6    4  0.3189516E-003  0.1278068E+03  0.7818608E-02  0.1230747E+00
         -4   -1    0    0    0  501 -0.00000000000E+00  0.00000000000E+00  0.50995003037E+01  0.52552643461E+01  0.12700000000E+01 0. -1.
         21   -1    0    0  501  502  0.00000000000E+00 -0.00000000000E+00 -0.26009719993E+04  0.26009719993E+04  0.00000000000E+00 0.  1.
         25    2    1    2    0    0  0.47824003020E+00 -0.26624173968E+02 -0.79902443391E+03  0.80918144975E+03  0.12500198908E+03 0.  0.
    9000005    1    3    3    0    0 -0.14795489195E+02 -0.56051182843E+02 -0.17660708647E+03  0.18588088818E+03  0.10000000000E+01 0.  0.
    9000005    1    3    3    0    0  0.15273729225E+02  0.29427008875E+02 -0.62241734744E+03  0.62330056157E+03  0.10000000000E+01 0.  0.
         -4    1    1    2    0  502 -0.47824003020E+00  0.26624173968E+02 -0.17968480651E+04  0.17970458139E+04  0.12700000000E+01 0.  1.
<mgrwt>
<rscale>  1 0.12780678E+03</rscale>
<asrwt>0</asrwt>
<pdfrwt beam="2">  1       21 0.40014912E+00 0.12780678E+03</pdfrwt>
<pdfrwt beam="1">  1       -4 0.79654505E-03 0.12780678E+03</pdfrwt>
<totfact> 0.15995666E+03</totfact>
</mgrwt>
</event>
<event>
 6    4  0.3189516E-003  0.1281986E+03  0.7818608E-02  0.1230153E+00
         21   -1    0    0  501  502  0.00000000000E+00  0.00000000000E+00  0.31567386211E+02  0.31567386211E+02  0.00000000000E+00 0. -1.
          4   -1    0    0  502    0 -0.00000000000E+00 -0.00000000000E+00 -0.23370742500E+03  0.23371087565E+03  0.12700000000E+01 0. -1.
         25    2    1    2    0    0  0.10812701638E+02 -0.26324597610E+02 -0.19886236472E+03  0.23660327270E+03  0.12499987839E+03 0.  0.
    9000005    1    3    3    0    0 -0.42889431458E+02  0.25405296004E+02 -0.10876464654E+03  0.11964815390E+03  0.10000000000E+01 0.  0.
    9000005    1    3    3    0    0  0.53702133096E+02 -0.51729893614E+02 -0.90097718181E+02  0.11695511880E+03  0.10000000000E+01 0.  0.
          4    1    1    2  501    0 -0.10812701638E+02  0.26324597610E+02 -0.32776740655E+01  0.28674989160E+02  0.12700000000E+01 0.  1.
<mgrwt>
<rscale>  1 0.12819855E+03</rscale>
<asrwt>0</asrwt>
<pdfrwt beam="1">  1       21 0.48565210E-02 0.12819855E+03</pdfrwt>
<pdfrwt beam="2">  1        4 0.35957219E-01 0.12819855E+03</pdfrwt>
<totfact> 0.84621029E+04</totfact>
</mgrwt>
</event>
<event>
 6    4  0.3189516E-003  0.1273702E+03  0.7818608E-02  0.1231411E+00
          4   -1    0    0  502    0 -0.00000000000E+00  0.00000000000E+00  0.62762669398E+03  0.62762797890E+03  0.12700000000E+01 0.  1.
         21   -1    0    0  501  502  0.00000000000E+00 -0.00000000000E+00 -0.37059635641E+02  0.37059635641E+02  0.00000000000E+00 0. -1.
         25    2    1    2    0    0 -0.23216408771E+02  0.77445607943E+01  0.61619893847E+03  0.62922515499E+03  0.12499673613E+03 0.  0.
    9000005    1    3    3    0    0 -0.44727887198E+02 -0.38842080110E+02  0.16887568091E+03  0.17896727824E+03  0.10000000000E+01 0.  0.
    9000005    1    3    3    0    0  0.21511478427E+02  0.46586640904E+02  0.44732325756E+03  0.45025787674E+03  0.10000000000E+01 0.  0.
          4    1    1    2  501    0  0.23216408771E+02 -0.77445607943E+01 -0.25631880132E+02  0.35462459548E+02  0.12700000000E+01 0. -1.
<mgrwt>
<rscale>  1 0.12737018E+03</rscale>
<asrwt>0</asrwt>
<pdfrwt beam="2">  1       21 0.57014829E-02 0.12737018E+03</pdfrwt>
<pdfrwt beam="1">  1        4 0.96559718E-01 0.12737018E+03</pdfrwt>
<totfact> 0.81281966E+03</totfact>
</mgrwt>
</event>
<event>
 6    4  0.3189516E-003  0.1267761E+03  0.7818608E-02  0.1232319E+00
         21   -1    0    0  501  502  0.00000000000E+00  0.00000000000E+00  0.65285957805E+02  0.65285957805E+02  0.00000000000E+00 0.  1.
         -4   -1    0    0    0  501 -0.00000000000E+00 -0.00000000000E+00 -0.11867796106E+03  0.11868475615E+03  0.12700000000E+01 0. -1.
         25    2    1    2    0    0 -0.19961838162E+02 -0.69411076072E+01 -0.80045384733E+02  0.14993147774E+03  0.12500212175E+03 0.  0.
    9000005    1    3    3    0    0 -0.51931579260E+02  0.35393877755E+02 -0.12579346049E+02  0.64100354554E+02  0.10000000000E+01 0.  0.
    9000005    1    3    3    0    0  0.31969741098E+02 -0.42334985362E+02 -0.67466038684E+02  0.85831123185E+02  0.10000000000E+01 0.  0.
         -4    1    1    2    0  502  0.19961838162E+02  0.69411076072E+01  0.26653381479E+02  0.34039236211E+02  0.12700000000E+01 0.  1.
<mgrwt>
<rscale>  1 0.12677612E+03</rscale>
<asrwt>0</asrwt>
<pdfrwt beam="1">  1       21 0.10043993E-01 0.12677612E+03</pdfrwt>
<pdfrwt beam="2">  1       -4 0.18259621E-01 0.12677612E+03</pdfrwt>
<totfact> 0.85487923E+04</totfact>
</mgrwt>
</event>
<event>
 6    4  0.3189516E-003  0.1279547E+03  0.7818608E-02  0.1230522E+00
         21   -1    0    0  501  502  0.00000000000E+00  0.00000000000E+00  0.49194874078E+02  0.49194874078E+02  0.00000000000E+00 0.  1.
         -4   -1    0    0    0  501 -0.00000000000E+00 -0.00000000000E+00 -0.12258330759E+03  0.12258988620E+03  0.12700000000E+01 0. -1.
         25    2    1    2    0    0  0.25604754060E+02  0.95595267287E+01 -0.60938447773E+02  0.14172476982E+03  0.12500171191E+03 0.  0.
    9000005    1    3    3    0    0  0.24681391167E+02 -0.43153683567E+02  0.12543114240E+02  0.51281002235E+02  0.10000000000E+01 0.  0.
    9000005    1    3    3    0    0  0.92336289305E+00  0.52713210296E+02 -0.73481562013E+02  0.90443767583E+02  0.10000000000E+01 0.  0.
         -4    1    1    2    0  502 -0.25604754060E+02 -0.95595267287E+01 -0.12449985736E+02  0.30059990462E+02  0.12700000000E+01 0.  1.
<mgrwt>
<rscale>  1 0.12795474E+03</rscale>
<asrwt>0</asrwt>
<pdfrwt beam="1">  1       21 0.75684423E-02 0.12795474E+03</pdfrwt>
<pdfrwt beam="2">  1       -4 0.18860737E-01 0.12795474E+03</pdfrwt>
<totfact> 0.13195614E+05</totfact>
</mgrwt>
</event>
<event>
 6    4  0.3189516E-003  0.1323408E+03  0.7818608E-02  0.1224023E+00
          4   -1    0    0  502    0 -0.00000000000E+00  0.00000000000E+00  0.13751524610E+02  0.13810044500E+02  0.12700000000E+01 0. -1.
         21   -1    0    0  501  502  0.00000000000E+00 -0.00000000000E+00 -0.73564805411E+03  0.73564805411E+03  0.00000000000E+00 0. -1.
         25    2    1    2    0    0  0.30993025746E+02  0.30340017698E+02 -0.33589763158E+03  0.36102812241E+03  0.12503200369E+03 0.  0.
    9000005    1    3    3    0    0  0.40872532664E+01  0.58759018119E+01  0.10488251462E+02  0.12737161383E+02  0.10000000000E+01 0.  0.
    9000005    1    3    3    0    0  0.26905772479E+02  0.24464115886E+02 -0.34638588304E+03  0.34829096102E+03  0.10000000000E+01 0.  0.
          4    1    1    2  501    0 -0.30993025746E+02 -0.30340017698E+02 -0.38599889792E+03  0.38842997621E+03  0.12700000000E+01 0.  1.
<mgrwt>
<rscale>  1 0.13234080E+03</rscale>
<asrwt>0</asrwt>
<pdfrwt beam="2">  1       21 0.11317662E+00 0.13234080E+03</pdfrwt>
<pdfrwt beam="1">  1        4 0.21202050E-02 0.13234080E+03</pdfrwt>
<totfact> 0.23307799E+04</totfact>
</mgrwt>
</event>
<event>
 6    4  0.3189516E-003  0.1281565E+03  0.7818608E-02  0.1230217E+00
         -4   -1    0    0    0  501 -0.00000000000E+00  0.00000000000E+00  0.11456386436E+02  0.11526564544E+02  0.12700000000E+01 0.  1.
         21   -1    0    0  501  502  0.00000000000E+00 -0.00000000000E+00 -0.16409185287E+04  0.16409185287E+04  0.00000000000E+00 0. -1.
         25    2    1    2    0    0  0.18126777961E+02  0.21686982065E+02 -0.35090915365E+03  0.37357908663E+03  0.12500077833E+03 0.  0.
    9000005    1    3    3    0    0 -0.55519517031E+01  0.45080398173E+02 -0.38936238111E+02  0.59833912670E+02  0.10000000000E+01 0.  0.
    9000005    1    3    3    0    0  0.23678729664E+02 -0.23393416108E+02 -0.31197291554E+03  0.31374517396E+03  0.10000000000E+01 0.  0.
         -4    1    1    2    0  502 -0.18126777961E+02 -0.21686982065E+02 -0.12785529886E+04  0.12788660066E+04  0.12700000000E+01 0. -1.
<mgrwt>
<rscale>  1 0.12815654E+03</rscale>
<asrwt>0</asrwt>
<pdfrwt beam="2">  1       21 0.25244885E+00 0.12815654E+03</pdfrwt>
<pdfrwt beam="1">  1       -4 0.17679582E-02 0.12815654E+03</pdfrwt>
<totfact> 0.33849066E+03</totfact>
</mgrwt>
</event>
<event>
 6    4  0.3189516E-003  0.1268195E+03  0.7818608E-02  0.1232253E+00
         -4   -1    0    0    0  501 -0.00000000000E+00  0.00000000000E+00  0.15735814188E+03  0.15736326673E+03  0.12700000000E+01 0.  1.
         21   -1    0    0  501  502  0.00000000000E+00 -0.00000000000E+00 -0.15188604212E+03  0.15188604212E+03  0.00000000000E+00 0. -1.
         25    2    1    2    0    0 -0.20482325480E+02  0.61280970306E+01  0.13075206878E+03  0.18215185503E+03  0.12500446220E+03 0.  0.
    9000005    1    3    3    0    0 -0.25867027143E+01 -0.46451009081E+02  0.11553665714E+03  0.12455563584E+03  0.10000000000E+01 0.  0.
    9000005    1    3    3    0    0 -0.17895622765E+02  0.52579106111E+02  0.15215411637E+02  0.57596219189E+02  0.10000000000E+01 0.  0.
         -4    1    1    2    0  502  0.20482325480E+02 -0.61280970306E+01 -0.12527996902E+03  0.12709745382E+03  0.12700000000E+01 0. -1.
<mgrwt>
<rscale>  1 0.12681954E+03</rscale>
<asrwt>0</asrwt>
<pdfrwt beam="2">  1       21 0.23367083E-01 0.12681954E+03</pdfrwt>
<pdfrwt beam="1">  1       -4 0.24209748E-01 0.12681954E+03</pdfrwt>
<totfact> 0.11163560E+04</totfact>
</mgrwt>
</event>
<event>
 6    4  0.3189516E-003  0.1289233E+03  0.7818608E-02  0.1229062E+00
         -4   -1    0    0    0  501 -0.00000000000E+00  0.00000000000E+00  0.17630583933E+03  0.17631041342E+03  0.12700000000E+01 0. -1.
         21   -1    0    0  501  502  0.00000000000E+00 -0.00000000000E+00 -0.82015296162E+02  0.82015296162E+02  0.00000000000E+00 0.  1.
         25    2    1    2    0    0 -0.31473790128E+02 -0.81202134461E+00  0.14786208359E+03  0.19617442893E+03  0.12501980627E+03 0.  0.
    9000005    1    3    3    0    0 -0.40470385996E+02 -0.56858251902E+02  0.99823354708E+02  0.12180482378E+03  0.10000000000E+01 0.  0.
    9000005    1    3    3    0    0  0.89965958676E+01  0.56046230558E+02  0.48038728879E+02  0.74369605143E+02  0.10000000000E+01 0.  0.
         -4    1    1    2    0  502  0.31473790128E+02  0.81202134461E+00 -0.53571540423E+02  0.62151280655E+02  0.12700000000E+01 0.  1.
<mgrwt>
<rscale>  1 0.12892327E+03</rscale>
<asrwt>0</asrwt>
<pdfrwt beam="2">  1       21 0.12617738E-01 0.12892327E+03</pdfrwt>
<pdfrwt beam="1">  1       -4 0.27125084E-01 0.12892327E+03</pdfrwt>
<totfact> 0.27889587E+04</totfact>
</mgrwt>
</event>
<event>
 6    4  0.3189516E-003  0.1290411E+03  0.7818608E-02  0.1228885E+00
          4   -1    0    0  502    0 -0.00000000000E+00  0.00000000000E+00  0.11029540841E+03  0.11030271990E+03  0.12700000000E+01 0.  1.
         21   -1    0    0  501  502  0.00000000000E+00 -0.00000000000E+00 -0.59523196161E+02  0.59523196161E+02  0.00000000000E+00 0.  1.
         25    2    1    2    0    0 -0.28196992281E+02  0.15224727029E+02  0.33140628270E+02  0.13322880770E+03  0.12499900508E+03 0.  0.
    9000005    1    3    3    0    0  0.14333061776E+02  0.12583025200E+02  0.72644939266E+02  0.75113623159E+02  0.10000000000E+01 0.  0.
    9000005    1    3    3    0    0 -0.42530054057E+02  0.26417018288E+01 -0.39504310996E+02  0.58115184538E+02  0.10000000000E+01 0.  0.
          4    1    1    2  501    0  0.28196992281E+02 -0.15224727029E+02  0.17631583981E+02  0.36597108362E+02  0.12700000000E+01 0. -1.
<mgrwt>
<rscale>  1 0.12904113E+03</rscale>
<asrwt>0</asrwt>
<pdfrwt beam="2">  1       21 0.91574148E-02 0.12904113E+03</pdfrwt>
<pdfrwt beam="1">  1        4 0.16970129E-01 0.12904113E+03</pdfrwt>
<totfact> 0.11464770E+05</totfact>
</mgrwt>
</event>
<event>
 6    4  0.3189516E-003  0.1272729E+03  0.7818608E-02  0.1231559E+00
          4   -1    0    0  502    0 -0.00000000000E+00  0.00000000000E+00  0.19901996950E+02  0.19942476842E+02  0.12700000000E+01 0. -1.
         21   -1    0    0  501  502  0.00000000000E+00 -0.00000000000E+00 -0.39772755061E+03  0.39772755061E+03  0.00000000000E+00 0.  1.
         25    2    1    2    0    0  0.23768739573E+02  0.29513569150E+01 -0.19231504880E+03  0.23061542632E+03  0.12499893350E+03 0.  0.
    9000005    1    3    3    0    0 -0.16269504970E+02 -0.54586833968E+02 -0.79830843554E+02  0.98073354267E+02  0.10000000000E+01 0.  0.
    9000005    1    3    3    0    0  0.40038244543E+02  0.57538190883E+02 -0.11248420524E+03  0.13254207206E+03  0.10000000000E+01 0.  0.
          4    1    1    2  501    0 -0.23768739573E+02 -0.29513569150E+01 -0.18551050486E+03  0.18705460113E+03  0.12700000000E+01 0.  1.
<mgrwt>
<rscale>  1 0.12727292E+03</rscale>
<asrwt>0</asrwt>
<pdfrwt beam="2">  1       21 0.61188855E-01 0.12727292E+03</pdfrwt>
<pdfrwt beam="1">  1        4 0.30651155E-02 0.12727292E+03</pdfrwt>
<totfact> 0.52508058E+04</totfact>
</mgrwt>
</event>
<event>
 6    4  0.3189516E-003  0.1269871E+03  0.7818608E-02  0.1231996E+00
          4   -1    0    0  502    0 -0.00000000000E+00  0.00000000000E+00  0.24270519437E+03  0.24270851711E+03  0.12700000000E+01 0. -1.
         21   -1    0    0  501  502  0.00000000000E+00 -0.00000000000E+00 -0.24326670985E+02  0.24326670985E+02  0.00000000000E+00 0. -1.
         25    2    1    2    0    0  0.17439216979E+02  0.14155165686E+02  0.20413092217E+03  0.24040621806E+03  0.12498488425E+03 0.  0.
    9000005    1    3    3    0    0  0.25880222419E+02 -0.49939808667E+02  0.58984699530E+02  0.81510521902E+02  0.10000000000E+01 0.  0.
    9000005    1    3    3    0    0 -0.84410054396E+01  0.64094974353E+02  0.14514622264E+03  0.15889569616E+03  0.10000000000E+01 0.  0.
          4    1    1    2  501    0 -0.17439216979E+02 -0.14155165686E+02  0.14247601216E+02  0.26628970030E+02  0.12700000000E+01 0.  1.
<mgrwt>
<rscale>  1 0.12698707E+03</rscale>
<asrwt>0</asrwt>
<pdfrwt beam="2">  1       21 0.37425649E-02 0.12698707E+03</pdfrwt>
<pdfrwt beam="1">  1        4 0.37342065E-01 0.12698707E+03</pdfrwt>
<totfact> 0.12120883E+05</totfact>
</mgrwt>
</event>
<event>
 6    4  0.3189516E-003  0.1443400E+03  0.7818608E-02  0.1207606E+00
          4   -1    0    0  502    0 -0.00000000000E+00  0.00000000000E+00  0.61536221025E+02  0.61549324920E+02  0.12700000000E+01 0.  1.
         21   -1    0    0  501  502  0.00000000000E+00 -0.00000000000E+00 -0.21610539046E+03  0.21610539046E+03  0.00000000000E+00 0. -1.
         25    2    1    2    0    0  0.68028062689E+02  0.24113556712E+02 -0.54544242512E+02  0.15430205089E+03  0.12499907035E+03 0.  0.
    9000005    1    3    3    0    0  0.20586282384E+02  0.69661953462E+02 -0.66771429726E+01  0.72953183761E+02  0.10000000000E+01 0.  0.
    9000005    1    3    3    0    0  0.47441780305E+02 -0.45548396750E+02 -0.47867099539E+02  0.81348867130E+02  0.10000000000E+01 0.  0.
          4    1    1    2  501    0 -0.68028062689E+02 -0.24113556712E+02 -0.10002492692E+03  0.12335266449E+03  0.12700000000E+01 0. -1.
<mgrwt>
<rscale>  1 0.14434004E+03</rscale>
<asrwt>0</asrwt>
<pdfrwt beam="2">  1       21 0.33246982E-01 0.14434004E+03</pdfrwt>
<pdfrwt beam="1">  1        4 0.94684062E-02 0.14434004E+03</pdfrwt>
<totfact> 0.29751765E+04</totfact>
</mgrwt>
</event>
<event>
 6    4  0.3189516E-003  0.1281417E+03  0.7818608E-02  0.1230240E+00
          4   -1    0    0  502    0 -0.00000000000E+00  0.00000000000E+00  0.10704027424E+03  0.10704780805E+03  0.12700000000E+01 0. -1.
         21   -1    0    0  501  502  0.00000000000E+00 -0.00000000000E+00 -0.59298262781E+02  0.59298262781E+02  0.00000000000E+00 0.  1.
         25    2    1    2    0    0  0.14746793953E+02 -0.24046307051E+02  0.51009198545E+02  0.13792107785E+03  0.12499837025E+03 0.  0.
    9000005    1    3    3    0    0 -0.54530038410E+02 -0.22051875736E+02  0.23556258633E+02  0.63369611276E+02  0.10000000000E+01 0.  0.
    9000005    1    3    3    0    0  0.69276832363E+02 -0.19944313145E+01  0.27452939912E+02  0.74551466574E+02  0.10000000000E+01 0.  0.
          4    1    1    2  501    0 -0.14746793953E+02  0.24046307051E+02 -0.32671870873E+01  0.28424992984E+02  0.12700000000E+01 0.  1.
<mgrwt>
<rscale>  1 0.12814166E+03</rscale>
<asrwt>0</asrwt>
<pdfrwt beam="2">  1       21 0.91228097E-02 0.12814166E+03</pdfrwt>
<pdfrwt beam="1">  1        4 0.16469360E-01 0.12814166E+03</pdfrwt>
<totfact> 0.12153668E+05</totfact>
</mgrwt>
</event>
<event>
 6    4  0.3189516E-003  0.1366805E+03  0.7818608E-02  0.1217867E+00
         -4   -1    0    0    0  501 -0.00000000000E+00  0.00000000000E+00  0.38890855558E+03  0.38891062920E+03  0.12700000000E+01 0. -1.
         21   -1    0    0  501  502  0.00000000000E+00 -0.00000000000E+00 -0.24470863445E+02  0.24470863445E+02  0.00000000000E+00 0. -1.
         25    2    1    2    0    0 -0.52838137120E+02  0.16289057804E+02  0.22349991744E+03  0.26198046433E+03  0.12499739380E+03 0.  0.
    9000005    1    3    3    0    0 -0.23724830496E+01 -0.51738147372E+02  0.78538914495E+02  0.94084141381E+02  0.10000000000E+01 0.  0.
    9000005    1    3    3    0    0 -0.50465654070E+02  0.68027205176E+02  0.14496100295E+03  0.16789632295E+03  0.10000000000E+01 0.  0.
         -4    1    1    2    0  502  0.52838137120E+02 -0.16289057804E+02  0.14093777470E+03  0.15140102832E+03  0.12700000000E+01 0.  1.
<mgrwt>
<rscale>  1 0.13668047E+03</rscale>
<asrwt>0</asrwt>
<pdfrwt beam="2">  1       21 0.37647485E-02 0.13668047E+03</pdfrwt>
<pdfrwt beam="1">  1       -4 0.59834775E-01 0.13668047E+03</pdfrwt>
<totfact> 0.46806288E+04</totfact>
</mgrwt>
</event>
<event>
 6    4  0.3189516E-003  0.1365593E+03  0.7818608E-02  0.1218035E+00
         21   -1    0    0  501  502  0.00000000000E+00  0.00000000000E+00  0.15969797173E+02  0.15969797173E+02  0.00000000000E+00 0. -1.
          4   -1    0    0  502    0 -0.00000000000E+00 -0.00000000000E+00 -0.11650138449E+04  0.11650145372E+04  0.12700000000E+01 0.  1.
         25    2    1    2    0    0 -0.52857395552E+02  0.15144119989E+02 -0.10963318467E+04  0.11048040372E+04  0.12500077520E+03 0.  0.
    9000005    1    3    3    0    0 -0.80888282827E+02 -0.85749165838E+01 -0.96527398076E+03  0.96869567018E+03  0.10000000000E+01 0.  0.
    9000005    1    3    3    0    0  0.28030887275E+02  0.23719036573E+02 -0.13105786598E+03  0.13610836701E+03  0.10000000000E+01 0.  0.
          4    1    1    2  501    0  0.52857395552E+02 -0.15144119989E+02 -0.52712201030E+02  0.76180297140E+02  0.12700000000E+01 0. -1.
<mgrwt>
<rscale>  1 0.13655930E+03</rscale>
<asrwt>0</asrwt>
<pdfrwt beam="1">  1       21 0.24568920E-02 0.13655930E+03</pdfrwt>
<pdfrwt beam="2">  1        4 0.17923683E+00 0.13655930E+03</pdfrwt>
<totfact> 0.71587341E+03</totfact>
</mgrwt>
</event>
<event>
 6    4  0.3189516E-003  0.1273802E+03  0.7818608E-02  0.1231396E+00
          4   -1    0    0  502    0 -0.00000000000E+00  0.00000000000E+00  0.29634928896E+01  0.32241572707E+01  0.12700000000E+01 0.  1.
         21   -1    0    0  501  502  0.00000000000E+00 -0.00000000000E+00 -0.18667458736E+04  0.18667458736E+04  0.00000000000E+00 0.  1.
         25    2    1    2    0    0  0.76186524738E+01 -0.23284778180E+02 -0.15391310583E+04  0.15443931293E+04  0.12500199439E+03 0.  0.
    9000005    1    3    3    0    0 -0.15217058729E+02 -0.18072546987E+02 -0.14875073548E+04  0.14876953003E+04  0.10000000000E+01 0.  0.
    9000005    1    3    3    0    0  0.22835711202E+02 -0.52122311939E+01 -0.51623703453E+02  0.56697829045E+02  0.10000000000E+01 0.  0.
          4    1    1    2  501    0 -0.76186524738E+01  0.23284778180E+02 -0.32465132249E+03  0.32557690160E+03  0.12700000000E+01 0. -1.
<mgrwt>
<rscale>  1 0.12738023E+03</rscale>
<asrwt>0</asrwt>
<pdfrwt beam="2">  1       21 0.28719231E+00 0.12738023E+03</pdfrwt>
<pdfrwt beam="1">  1        4 0.47600526E-03 0.12738023E+03</pdfrwt>
<totfact> 0.15439539E+04</totfact>
</mgrwt>
</event>
<event>
 6    4  0.3189516E-003  0.1274907E+03  0.7818608E-02  0.1231227E+00
         -4   -1    0    0    0  501 -0.00000000000E+00  0.00000000000E+00  0.37951636412E+03  0.37951848905E+03  0.12700000000E+01 0.  1.
         21   -1    0    0  501  502  0.00000000000E+00 -0.00000000000E+00 -0.39845566257E+02  0.39845566257E+02  0.00000000000E+00 0. -1.
         25    2    1    2    0    0  0.50947926900E+01 -0.24564688365E+02  0.36321209216E+03  0.38493752100E+03  0.12499796141E+03 0.  0.
    9000005    1    3    3    0    0  0.63920139371E+02 -0.25112555599E+01  0.20311141665E+03  0.21294914462E+03  0.10000000000E+01 0.  0.
    9000005    1    3    3    0    0 -0.58825346681E+02 -0.22053432805E+02  0.16010067551E+03  0.17198837638E+03  0.10000000000E+01 0.  0.
         -4    1    1    2    0  502 -0.50947926900E+01  0.24564688365E+02 -0.23541294302E+02  0.34426534308E+02  0.12700000000E+01 0. -1.
<mgrwt>
<rscale>  1 0.12749067E+03</rscale>
<asrwt>0</asrwt>
<pdfrwt beam="2">  1       21 0.61300874E-02 0.12749067E+03</pdfrwt>
<pdfrwt beam="1">  1       -4 0.58388851E-01 0.12749067E+03</pdfrwt>
<totfact> 0.21567579E+04</totfact>
</mgrwt>
</event>
<event>
 6    4  0.3189516E-003  0.1302095E+03  0.7818608E-02  0.1227145E+00
         -4   -1    0    0    0  501 -0.00000000000E+00  0.00000000000E+00  0.51880712128E+02  0.51896254112E+02  0.12700000000E+01 0. -1.
         21   -1    0    0  501  502  0.00000000000E+00 -0.00000000000E+00 -0.19421824709E+03  0.19421824709E+03  0.00000000000E+00 0.  1.
         25    2    1    2    0    0  0.34624158582E+02  0.11449190351E+02 -0.38091991968E+02  0.13566694599E+03  0.12499841625E+03 0.  0.
    9000005    1    3    3    0    0  0.36347581439E+02  0.35856577726E+02 -0.75384331530E+02  0.91052942197E+02  0.10000000000E+01 0.  0.
    9000005    1    3    3    0    0 -0.17234228564E+01 -0.24407387375E+02  0.37292339562E+02  0.44614003797E+02  0.10000000000E+01 0.  0.
         -4    1    1    2    0  502 -0.34624158582E+02 -0.11449190351E+02 -0.10424554299E+03  0.11044755520E+03  0.12700000000E+01 0.  1.
<mgrwt>
<rscale>  1 0.13020952E+03</rscale>
<asrwt>0</asrwt>
<pdfrwt beam="2">  1       21 0.29879729E-01 0.13020952E+03</pdfrwt>
<pdfrwt beam="1">  1       -4 0.79831632E-02 0.13020952E+03</pdfrwt>
<totfact> 0.48137284E+04</totfact>
</mgrwt>
</event>
<event>
 6    4  0.3189516E-003  0.1584882E+03  0.7818608E-02  0.1190414E+00
         -4   -1    0    0    0  501 -0.00000000000E+00  0.00000000000E+00  0.16750166978E+04  0.16750171792E+04  0.12700000000E+01 0. -1.
         21   -1    0    0  501  502  0.00000000000E+00 -0.00000000000E+00 -0.10547992886E+02  0.10547992886E+02  0.00000000000E+00 0.  1.
         25    2    1    2    0    0  0.78449158405E+02 -0.57780658865E+02  0.12381750713E+04  0.12482772236E+04  0.12500257895E+03 0.  0.
    9000005    1    3    3    0    0  0.62884900251E+01  0.37367811990E+02  0.36766801905E+03  0.36961692428E+03  0.10000000000E+01 0.  0.
    9000005    1    3    3    0    0  0.72160668379E+02 -0.95148470856E+02  0.87050705223E+03  0.87866029929E+03  0.10000000000E+01 0.  0.
         -4    1    1    2    0  502 -0.78449158405E+02  0.57780658865E+02  0.42629363362E+03  0.43728794857E+03  0.12700000000E+01 0.  1.
<mgrwt>
<rscale>  1 0.15848823E+03</rscale>
<asrwt>0</asrwt>
<pdfrwt beam="2">  1       21 0.16227695E-02 0.15848823E+03</pdfrwt>
<pdfrwt beam="1">  1       -4 0.25770058E+00 0.15848823E+03</pdfrwt>
<totfact> 0.47257004E+03</totfact>
</mgrwt>
</event>
<event>
 6    4  0.3189516E-003  0.1278627E+03  0.7818608E-02  0.1230662E+00
         21   -1    0    0  501  502  0.00000000000E+00  0.00000000000E+00  0.72966885209E+03  0.72966885209E+03  0.00000000000E+00 0. -1.
         -4   -1    0    0    0  501 -0.00000000000E+00 -0.00000000000E+00 -0.21331696936E+02  0.21369468739E+02  0.12700000000E+01 0.  1.
         25    2    1    2    0    0 -0.19448141363E+02  0.18592605851E+02  0.17350982795E+03  0.21553314063E+03  0.12499983648E+03 0.  0.
    9000005    1    3    3    0    0 -0.41953802312E+02 -0.28420281962E+02  0.21903508668E+02  0.55214107321E+02  0.10000000000E+01 0.  0.
    9000005    1    3    3    0    0  0.22505660949E+02  0.47012887813E+02  0.15160631928E+03  0.16031903331E+03  0.10000000000E+01 0.  0.
         -4    1    1    2    0  502  0.19448141363E+02 -0.18592605851E+02  0.53482732720E+03  0.53550518020E+03  0.12700000000E+01 0. -1.
<mgrwt>
<rscale>  1 0.12786272E+03</rscale>
<asrwt>0</asrwt>
<pdfrwt beam="1">  1       21 0.11225673E+00 0.12786272E+03</pdfrwt>
<pdfrwt beam="2">  1       -4 0.32847906E-02 0.12786272E+03</pdfrwt>
<totfact> 0.11995261E+04</totfact>
</mgrwt>
</event>
<event>
 6    4  0.3189516E-003  0.1334416E+03  0.7818608E-02  0.1222437E+00
         21   -1    0    0  501  502  0.00000000000E+00  0.00000000000E+00  0.19196054377E+03  0.19196054377E+03  0.00000000000E+00 0. -1.
          4   -1    0    0  502    0 -0.00000000000E+00 -0.00000000000E+00 -0.92985028737E+02  0.92993701234E+02  0.12700000000E+01 0.  1.
         25    2    1    2    0    0 -0.34767591050E+02 -0.31200455755E+02 -0.39208119987E+02  0.13908243925E+03  0.12499757761E+03 0.  0.
    9000005    1    3    3    0    0  0.40079233871E+02  0.15502795368E+02 -0.24974745331E+02  0.49713374018E+02  0.10000000000E+01 0.  0.
    9000005    1    3    3    0    0 -0.74846824921E+02 -0.46703251122E+02 -0.14233374656E+02  0.89369065231E+02  0.10000000000E+01 0.  0.
          4    1    1    2  501    0  0.34767591050E+02  0.31200455755E+02  0.13818363502E+03  0.14587180576E+03  0.12700000000E+01 0. -1.
<mgrwt>
<rscale>  1 0.13344155E+03</rscale>
<asrwt>0</asrwt>
<pdfrwt beam="1">  1       21 0.29532391E-01 0.13344155E+03</pdfrwt>
<pdfrwt beam="2">  1        4 0.14306379E-01 0.13344155E+03</pdfrwt>
<totfact> 0.18374133E+04</totfact>
</mgrwt>
</event>
<event>
 6    4  0.3189516E-003  0.1290053E+03  0.7818608E-02  0.1228939E+00
         21   -1    0    0  501  502  0.00000000000E+00  0.00000000000E+00  0.85366315054E+02  0.85366315054E+02  0.00000000000E+00 0. -1.
         -4   -1    0    0    0  501 -0.00000000000E+00 -0.00000000000E+00 -0.11078721814E+03  0.11079449717E+03  0.12700000000E+01 0.  1.
         25    2    1    2    0    0 -0.23090629055E+01  0.31749027150E+02 -0.65727367228E+02  0.14478419840E+03  0.12501617818E+03 0.  0.
    9000005    1    3    3    0    0  0.70928263369E+01 -0.47220123374E+02 -0.13484980323E+02  0.49627542063E+02  0.10000000000E+01 0.  0.
    9000005    1    3    3    0    0 -0.94018892424E+01  0.78969150525E+02 -0.52242386905E+02  0.95156656338E+02  0.10000000000E+01 0.  0.
         -4    1    1    2    0  502  0.23090629055E+01 -0.31749027150E+02  0.40306464141E+02  0.51376613824E+02  0.12700000000E+01 0. -1.
<mgrwt>
<rscale>  1 0.12900534E+03</rscale>
<asrwt>0</asrwt>
<pdfrwt beam="1">  1       21 0.13133279E-01 0.12900534E+03</pdfrwt>
<pdfrwt beam="2">  1       -4 0.17045474E-01 0.12900534E+03</pdfrwt>
<totfact> 0.60287285E+04</totfact>
</mgrwt>
</event>
<event>
 6    4  0.3189516E-003  0.1325076E+03  0.7818608E-02  0.1223782E+00
         21   -1    0    0  501  502  0.00000000000E+00  0.00000000000E+00  0.23045611180E+03  0.23045611180E+03  0.00000000000E+00 0.  1.
          4   -1    0    0  502    0 -0.00000000000E+00 -0.00000000000E+00 -0.47020131471E+02  0.47037279508E+02  0.12700000000E+01 0. -1.
         25    2    1    2    0    0 -0.43805709099E+02 -0.36454005576E+01  0.58134779328E+02  0.14469944202E+03  0.12500418737E+03 0.  0.
    9000005    1    3    3    0    0 -0.54183007821E+02 -0.44534228463E+02  0.71769654975E+02  0.10035426855E+03  0.10000000000E+01 0.  0.
    9000005    1    3    3    0    0  0.10377298722E+02  0.40888827905E+02 -0.13634875647E+02  0.44345173470E+02  0.10000000000E+01 0.  0.
          4    1    1    2  501    0  0.43805709099E+02  0.36454005576E+01  0.12530120100E+03  0.13279394929E+03  0.12700000000E+01 0.  1.
<mgrwt>
<rscale>  1 0.13250764E+03</rscale>
<asrwt>0</asrwt>
<pdfrwt beam="1">  1       21 0.35454786E-01 0.13250764E+03</pdfrwt>
<pdfrwt beam="2">  1        4 0.72354548E-02 0.13250764E+03</pdfrwt>
<totfact> 0.40647702E+04</totfact>
</mgrwt>
</event>
<event>
 6    4  0.3189516E-003  0.1289876E+03  0.7818608E-02  0.1228966E+00
         -4   -1    0    0    0  501 -0.00000000000E+00  0.00000000000E+00  0.56948664104E+03  0.56948805714E+03  0.12700000000E+01 0. -1.
         21   -1    0    0  501  502  0.00000000000E+00 -0.00000000000E+00 -0.15596751567E+02  0.15596751567E+02  0.00000000000E+00 0. -1.
         25    2    1    2    0    0  0.11704508553E+02  0.29597508075E+02  0.52945027477E+03  0.54493613909E+03  0.12499917693E+03 0.  0.
    9000005    1    3    3    0    0  0.19046436974E+02 -0.19356864805E+02  0.21694823729E+02  0.34772407927E+02  0.10000000000E+01 0.  0.
    9000005    1    3    3    0    0 -0.73419284207E+01  0.48954372880E+02  0.50775545104E+03  0.51016373117E+03  0.10000000000E+01 0.  0.
         -4    1    1    2    0  502 -0.11704508553E+02 -0.29597508075E+02  0.24439614705E+02  0.40148669613E+02  0.12700000000E+01 0.  1.
<mgrwt>
<rscale>  1 0.12898760E+03</rscale>
<asrwt>0</asrwt>
<pdfrwt beam="2">  1       21 0.23995007E-02 0.12898760E+03</pdfrwt>
<pdfrwt beam="1">  1       -4 0.87617399E-01 0.12898760E+03</pdfrwt>
<totfact> 0.42526691E+04</totfact>
</mgrwt>
</event>
<event>
 6    4  0.3189516E-003  0.1283124E+03  0.7818608E-02  0.1229982E+00
         21   -1    0    0  501  502  0.00000000000E+00  0.00000000000E+00  0.28213799252E+02  0.28213799252E+02  0.00000000000E+00 0. -1.
         -4   -1    0    0    0  501 -0.00000000000E+00 -0.00000000000E+00 -0.56587474909E+03  0.56587617423E+03  0.12700000000E+01 0.  1.
         25    2    1    2    0    0  0.22099366281E+02  0.18756891424E+02 -0.54835549468E+03  0.56316766511E+03  0.12499546997E+03 0.  0.
    9000005    1    3    3    0    0  0.23008861985E+02 -0.50894976078E+02 -0.30332745099E+03  0.30842867708E+03  0.10000000000E+01 0.  0.
    9000005    1    3    3    0    0 -0.90949570397E+00  0.69651867502E+02 -0.24502804369E+03  0.25473898803E+03  0.10000000000E+01 0.  0.
         -4    1    1    2    0  502 -0.22099366281E+02 -0.18756891424E+02  0.10694544837E+02  0.30922308374E+02  0.12700000000E+01 0. -1.
<mgrwt>
<rscale>  1 0.12831239E+03</rscale>
<asrwt>0</asrwt>
<pdfrwt beam="1">  1       21 0.43405843E-02 0.12831239E+03</pdfrwt>
<pdfrwt beam="2">  1       -4 0.87059966E-01 0.12831239E+03</pdfrwt>
<totfact> 0.16256839E+04</totfact>
</mgrwt>
</event>
<event>
 6    4  0.3189516E-003  0.1267616E+03  0.7818608E-02  0.1232342E+00
         -4   -1    0    0    0  501 -0.00000000000E+00  0.00000000000E+00  0.67930879037E+02  0.67942749626E+02  0.12700000000E+01 0. -1.
         21   -1    0    0  501  502  0.00000000000E+00 -0.00000000000E+00 -0.82956009055E+02  0.82956009055E+02  0.00000000000E+00 0. -1.
         25    2    1    2    0    0  0.11282527667E+02  0.17789089705E+02 -0.34045806384E+01  0.12680732429E+03  0.12499903672E+03 0.  0.
    9000005    1    3    3    0    0  0.24595801481E+02  0.45069631688E+02  0.45914300972E+02  0.68886487679E+02  0.10000000000E+01 0.  0.
    9000005    1    3    3    0    0 -0.13313273815E+02 -0.27280541983E+02 -0.49318881611E+02  0.57920836612E+02  0.10000000000E+01 0.  0.
         -4    1    1    2    0  502 -0.11282527667E+02 -0.17789089705E+02 -0.11620549380E+02  0.24091434390E+02  0.12700000000E+01 0.  1.
<mgrwt>
<rscale>  1 0.12676161E+03</rscale>
<asrwt>0</asrwt>
<pdfrwt beam="2">  1       21 0.12762463E-01 0.12676161E+03</pdfrwt>
<pdfrwt beam="1">  1       -4 0.10452565E-01 0.12676161E+03</pdfrwt>
<totfact> 0.14716860E+05</totfact>
</mgrwt>
</event>
<event>
 6    4  0.3189516E-003  0.1379708E+03  0.7818608E-02  0.1216086E+00
         21   -1    0    0  501  502  0.00000000000E+00  0.00000000000E+00  0.24901841570E+03  0.24901841570E+03  0.00000000000E+00 0. -1.
         -4   -1    0    0    0  501 -0.00000000000E+00 -0.00000000000E+00 -0.18059421432E+03  0.18059867980E+03  0.12700000000E+01 0.  1.
         25    2    1    2    0    0 -0.54111606213E+02  0.21966435220E+02 -0.14983145027E+03  0.20367964270E+03  0.12500137262E+03 0.  0.
    9000005    1    3    3    0    0 -0.14035001612E+02  0.70068746134E+02 -0.55636417550E+02  0.90570532806E+02  0.10000000000E+01 0.  0.
    9000005    1    3    3    0    0 -0.40076604601E+02 -0.48102310914E+02 -0.94195032719E+02  0.11310910989E+03  0.10000000000E+01 0.  0.
         -4    1    1    2    0  502  0.54111606213E+02 -0.21966435220E+02  0.21825565165E+03  0.22593745281E+03  0.12700000000E+01 0. -1.
<mgrwt>
<rscale>  1 0.13797077E+03</rscale>
<asrwt>0</asrwt>
<pdfrwt beam="1">  1       21 0.38310525E-01 0.13797077E+03</pdfrwt>
<pdfrwt beam="2">  1       -4 0.27784318E-01 0.13797077E+03</pdfrwt>
<totfact> 0.33493761E+03</totfact>
</mgrwt>
</event>
<event>
 6    4  0.3189516E-003  0.1281274E+03  0.7818608E-02  0.1230261E+00
         21   -1    0    0  501  502  0.00000000000E+00  0.00000000000E+00  0.23757538357E+03  0.23757538357E+03  0.00000000000E+00 0.  1.
         -4   -1    0    0    0  501 -0.00000000000E+00 -0.00000000000E+00 -0.40358328539E+03  0.40358528361E+03  0.12700000000E+01 0. -1.
         25    2    1    2    0    0  0.26751458852E+02 -0.87433716927E+01 -0.39252034206E+03  0.41290294972E+03  0.12499815940E+03 0.  0.
    9000005    1    3    3    0    0  0.64988622517E+02 -0.31727621727E+02 -0.15265850906E+03  0.16892537827E+03  0.10000000000E+01 0.  0.
    9000005    1    3    3    0    0 -0.38237163665E+02  0.22984250035E+02 -0.23986183301E+03  0.24397757145E+03  0.10000000000E+01 0.  0.
         -4    1    1    2    0  502 -0.26751458852E+02  0.87433716927E+01  0.22651244024E+03  0.22825771747E+03  0.12700000000E+01 0.  1.
<mgrwt>
<rscale>  1 0.12812739E+03</rscale>
<asrwt>0</asrwt>
<pdfrwt beam="1">  1       21 0.36550059E-01 0.12812739E+03</pdfrwt>
<pdfrwt beam="2">  1       -4 0.62090151E-01 0.12812739E+03</pdfrwt>
<totfact> 0.74471663E+02</totfact>
</mgrwt>
</event>
<event>
 6    4  0.3189516E-003  0.1357480E+03  0.7818608E-02  0.1219168E+00
         -4   -1    0    0    0  501 -0.00000000000E+00  0.00000000000E+00  0.13599658119E+03  0.13600251099E+03  0.12700000000E+01 0.  1.
         21   -1    0    0  501  502  0.00000000000E+00 -0.00000000000E+00 -0.65562562042E+02  0.65562562042E+02  0.00000000000E+00 0.  1.
         25    2    1    2    0    0  0.51918765426E+02 -0.10236954331E+02  0.46725950635E+02  0.14356473812E+03  0.12500866423E+03 0.  0.
    9000005    1    3    3    0    0  0.22155151267E+02 -0.54180444908E+02  0.64949081871E+02  0.87440005570E+02  0.10000000000E+01 0.  0.
    9000005    1    3    3    0    0  0.29763614159E+02  0.43943490577E+02 -0.18223131236E+02  0.56124732551E+02  0.10000000000E+01 0.  0.
         -4    1    1    2    0  502 -0.51918765426E+02  0.10236954331E+02  0.23708068514E+02  0.58000334913E+02  0.12700000000E+01 0. -1.
<mgrwt>
<rscale>  1 0.13574800E+03</rscale>
<asrwt>0</asrwt>
<pdfrwt beam="2">  1       21 0.10086548E-01 0.13574800E+03</pdfrwt>
<pdfrwt beam="1">  1       -4 0.20923953E-01 0.13574800E+03</pdfrwt>
<totfact> 0.67080151E+04</totfact>
</mgrwt>
</event>
<event>
 6    4  0.3189516E-003  0.1271775E+03  0.7818608E-02  0.1231705E+00
         21   -1    0    0  501  502  0.00000000000E+00  0.00000000000E+00  0.17565075482E+03  0.17565075482E+03  0.00000000000E+00 0.  1.
          4   -1    0    0  502    0 -0.00000000000E+00 -0.00000000000E+00 -0.41007913892E+02  0.41027574895E+02  0.12700000000E+01 0.  1.
         25    2    1    2    0    0  0.18620212796E+01 -0.23453342412E+02  0.64327899712E+02  0.14252086042E+03  0.12498236108E+03 0.  0.
    9000005    1    3    3    0    0 -0.31412094543E+02 -0.31485504756E+02 -0.22014402932E+02  0.49635578266E+02  0.10000000000E+01 0.  0.
    9000005    1    3    3    0    0  0.33274115823E+02  0.80321623441E+01  0.86342302644E+02  0.92885282158E+02  0.10000000000E+01 0.  0.
          4    1    1    2  501    0 -0.18620212796E+01  0.23453342412E+02  0.70314941214E+02  0.74157469290E+02  0.12700000000E+01 0. -1.
<mgrwt>
<rscale>  1 0.12717750E+03</rscale>
<asrwt>0</asrwt>
<pdfrwt beam="1">  1       21 0.27023193E-01 0.12717750E+03</pdfrwt>
<pdfrwt beam="2">  1        4 0.63107755E-02 0.12717750E+03</pdfrwt>
<totfact> 0.85594327E+04</totfact>
</mgrwt>
</event>
<event>
 6    4  0.3189516E-003  0.1296935E+03  0.7818608E-02  0.1227911E+00
         21   -1    0    0  501  502  0.00000000000E+00  0.00000000000E+00  0.59639885406E+02  0.59639885406E+02  0.00000000000E+00 0. -1.
          4   -1    0    0  502    0 -0.00000000000E+00 -0.00000000000E+00 -0.28249194824E+03  0.28249480299E+03  0.12700000000E+01 0.  1.
         25    2    1    2    0    0 -0.34466539852E+02  0.27075642437E+01 -0.26050337830E+03  0.29100243116E+03  0.12500052624E+03 0.  0.
    9000005    1    3    3    0    0  0.30911906222E+02 -0.13216110187E+02 -0.15699965443E+02  0.37117387161E+02  0.10000000000E+01 0.  0.
    9000005    1    3    3    0    0 -0.65378446074E+02  0.15923674430E+02 -0.24480341286E+03  0.25388504400E+03  0.10000000000E+01 0.  0.
          4    1    1    2  501    0  0.34466539852E+02 -0.27075642437E+01  0.37651315473E+02  0.51132257239E+02  0.12700000000E+01 0. -1.
<mgrwt>
<rscale>  1 0.12969350E+03</rscale>
<asrwt>0</asrwt>
<pdfrwt beam="1">  1       21 0.91753670E-02 0.12969350E+03</pdfrwt>
<pdfrwt beam="2">  1        4 0.43461559E-01 0.12969350E+03</pdfrwt>
<totfact> 0.19726630E+04</totfact>
</mgrwt>
</event>
<event>
 6    4  0.3189516E-003  0.1558084E+03  0.7818608E-02  0.1193512E+00
         -4   -1    0    0    0  501 -0.00000000000E+00  0.00000000000E+00  0.97413238902E+03  0.97413321688E+03  0.12700000000E+01 0.  1.
         21   -1    0    0  501  502  0.00000000000E+00 -0.00000000000E+00 -0.15940021133E+02  0.15940021133E+02  0.00000000000E+00 0. -1.
         25    2    1    2    0    0  0.71200775056E+02 -0.59841880863E+02  0.57254853179E+03  0.59337009675E+03  0.12500259752E+03 0.  0.
    9000005    1    3    3    0    0  0.59415629197E+02  0.27375701833E+02  0.19443888471E+03  0.20515147071E+03  0.10000000000E+01 0.  0.
    9000005    1    3    3    0    0  0.11785145859E+02 -0.87217582697E+02  0.37810964708E+03  0.38821862604E+03  0.10000000000E+01 0.  0.
         -4    1    1    2    0  502 -0.71200775056E+02  0.59841880863E+02  0.38564383609E+03  0.39670314126E+03  0.12700000000E+01 0. -1.
<mgrwt>
<rscale>  1 0.15580838E+03</rscale>
<asrwt>0</asrwt>
<pdfrwt beam="2">  1       21 0.24523117E-02 0.15580838E+03</pdfrwt>
<pdfrwt beam="1">  1       -4 0.14987043E+00 0.15580838E+03</pdfrwt>
<totfact> 0.11624078E+04</totfact>
</mgrwt>
</event>
<event>
 6    4  0.3189516E-003  0.1267080E+03  0.7818608E-02  0.1232424E+00
         21   -1    0    0  501  502  0.00000000000E+00  0.00000000000E+00  0.23124431599E+01  0.23124431599E+01  0.00000000000E+00 0. -1.
         -4   -1    0    0    0  501 -0.00000000000E+00 -0.00000000000E+00 -0.24355802590E+04  0.24355805901E+04  0.12700000000E+01 0. -1.
         25    2    1    2    0    0 -0.16939814611E+02  0.12008422292E+02 -0.22199883162E+04  0.22236013690E+04  0.12499505779E+03 0.  0.
    9000005    1    3    3    0    0 -0.67691818428E+02 -0.59456175592E+01 -0.15333057714E+04  0.15348111028E+04  0.10000000000E+01 0.  0.
    9000005    1    3    3    0    0  0.50752003817E+02  0.17954039851E+02 -0.68668254474E+03  0.68879026611E+03  0.10000000000E+01 0.  0.
         -4    1    1    2    0  502  0.16939814611E+02 -0.12008422292E+02 -0.21327949965E+03  0.21429166432E+03  0.12700000000E+01 0.  1.
<mgrwt>
<rscale>  1 0.12670803E+03</rscale>
<asrwt>0</asrwt>
<pdfrwt beam="1">  1       21 0.35576171E-03 0.12670803E+03</pdfrwt>
<pdfrwt beam="2">  1       -4 0.37473022E+00 0.12670803E+03</pdfrwt>
<totfact> 0.10238873E+04</totfact>
</mgrwt>
</event>
<event>
 6    4  0.3189516E-003  0.1266217E+03  0.7818608E-02  0.1232556E+00
         21   -1    0    0  501  502  0.00000000000E+00  0.00000000000E+00  0.36029664610E+03  0.36029664610E+03  0.00000000000E+00 0.  1.
         -4   -1    0    0    0  501 -0.00000000000E+00 -0.00000000000E+00 -0.23730730766E+02  0.23764689829E+02  0.12700000000E+01 0. -1.
         25    2    1    2    0    0  0.10083693600E+02 -0.17907900231E+02  0.14972109521E+03  0.19608534418E+03  0.12494271521E+03 0.  0.
    9000005    1    3    3    0    0  0.22912890908E+02 -0.69514185512E+02  0.80770519937E+02  0.10900504322E+03  0.10000000000E+01 0.  0.
    9000005    1    3    3    0    0 -0.12829197308E+02  0.51606285281E+02  0.68950575273E+02  0.87080300956E+02  0.10000000000E+01 0.  0.
         -4    1    1    2    0  502 -0.10083693600E+02  0.17907900231E+02  0.18684482012E+03  0.18797599175E+03  0.12700000000E+01 0.  1.
<mgrwt>
<rscale>  1 0.12662170E+03</rscale>
<asrwt>0</asrwt>
<pdfrwt beam="1">  1       21 0.55430249E-01 0.12662170E+03</pdfrwt>
<pdfrwt beam="2">  1       -4 0.36536663E-02 0.12662170E+03</pdfrwt>
<totfact> 0.49058429E+04</totfact>
</mgrwt>
</event>
<event>
 6    4  0.3189516E-003  0.1267783E+03  0.7818608E-02  0.1232316E+00
         21   -1    0    0  501  502  0.00000000000E+00  0.00000000000E+00  0.36873627559E+02  0.36873627559E+02  0.00000000000E+00 0.  1.
          4   -1    0    0  502    0 -0.00000000000E+00 -0.00000000000E+00 -0.16276533469E+03  0.16277028930E+03  0.12700000000E+01 0. -1.
         25    2    1    2    0    0  0.18175632982E+02 -0.10834827265E+02 -0.12557594435E+03  0.17844345171E+03  0.12500000217E+03 0.  0.
    9000005    1    3    3    0    0  0.51872455092E+02  0.33194652514E+02 -0.99837634329E+02  0.11730809768E+03  0.10000000000E+01 0.  0.
    9000005    1    3    3    0    0 -0.33696822110E+02 -0.44029479779E+02 -0.25738310021E+02  0.61135354033E+02  0.10000000000E+01 0.  0.
          4    1    1    2  501    0 -0.18175632982E+02  0.10834827265E+02 -0.31576278433E+00  0.21200465143E+02  0.12700000000E+01 0.  1.
<mgrwt>
<rscale>  1 0.12677834E+03</rscale>
<asrwt>0</asrwt>
<pdfrwt beam="1">  1       21 0.56728658E-02 0.12677834E+03</pdfrwt>
<pdfrwt beam="2">  1        4 0.25042884E-01 0.12677834E+03</pdfrwt>
<totfact> 0.12876645E+05</totfact>
</mgrwt>
</event>
<event>
 6    4  0.3189516E-003  0.1350004E+03  0.7818608E-02  0.1220219E+00
         -4   -1    0    0    0  501 -0.00000000000E+00  0.00000000000E+00  0.17000119962E+03  0.17000594335E+03  0.12700000000E+01 0. -1.
         21   -1    0    0  501  502  0.00000000000E+00 -0.00000000000E+00 -0.60325714923E+02  0.60325714923E+02  0.00000000000E+00 0.  1.
         25    2    1    2    0    0  0.46709507654E+02 -0.20352580896E+02  0.11724505184E+03  0.17880577253E+03  0.12501638475E+03 0.  0.
    9000005    1    3    3    0    0  0.35164890709E+02 -0.27867735305E+02 -0.13863243768E+02  0.46972010149E+02  0.10000000000E+01 0.  0.
    9000005    1    3    3    0    0  0.11544616945E+02  0.75151544091E+01  0.13110829561E+03  0.13183376238E+03  0.10000000000E+01 0.  0.
         -4    1    1    2    0  502 -0.46709507654E+02  0.20352580896E+02 -0.75695671411E+01  0.51525885738E+02  0.12700000000E+01 0.  1.
<mgrwt>
<rscale>  1 0.13500038E+03</rscale>
<asrwt>0</asrwt>
<pdfrwt beam="2">  1       21 0.92808793E-02 0.13500038E+03</pdfrwt>
<pdfrwt beam="1">  1       -4 0.26155424E-01 0.13500038E+03</pdfrwt>
<totfact> 0.51518844E+04</totfact>
</mgrwt>
</event>
<event>
 6    4  0.3189516E-003  0.1281950E+03  0.7818608E-02  0.1230159E+00
         21   -1    0    0  501  502  0.00000000000E+00  0.00000000000E+00  0.62184471966E+02  0.62184471966E+02  0.00000000000E+00 0.  1.
         -4   -1    0    0    0  501 -0.00000000000E+00 -0.00000000000E+00 -0.50046084946E+03  0.50046246087E+03  0.12700000000E+01 0. -1.
         25    2    1    2    0    0  0.20860079366E+02 -0.19325841502E+02 -0.48843302477E+03  0.50497602832E+03  0.12500135373E+03 0.  0.
    9000005    1    3    3    0    0 -0.34649443186E+02  0.35271579513E+02 -0.21917399461E+03  0.22468401845E+03  0.10000000000E+01 0.  0.
    9000005    1    3    3    0    0  0.55509522553E+02 -0.54597421015E+02 -0.26925903016E+03  0.28029200987E+03  0.10000000000E+01 0.  0.
         -4    1    1    2    0  502 -0.20860079366E+02  0.19325841502E+02  0.50156647279E+02  0.57670904511E+02  0.12700000000E+01 0.  1.
<mgrwt>
<rscale>  1 0.12819504E+03</rscale>
<asrwt>0</asrwt>
<pdfrwt beam="1">  1       21 0.95668419E-02 0.12819504E+03</pdfrwt>
<pdfrwt beam="2">  1       -4 0.76995098E-01 0.12819504E+03</pdfrwt>
<totfact> 0.55548121E+03</totfact>
</mgrwt>
</event>
<event>
 6    4  0.3189516E-003  0.1270211E+03  0.7818608E-02  0.1231944E+00
         21   -1    0    0  501  502  0.00000000000E+00  0.00000000000E+00  0.89880544512E+02  0.89880544512E+02  0.00000000000E+00 0. -1.
         -4   -1    0    0    0  501 -0.00000000000E+00 -0.00000000000E+00 -0.71347704186E+02  0.71359006388E+02  0.12700000000E+01 0. -1.
         25    2    1    2    0    0  0.20215996727E+02 -0.10062692746E+02 -0.68951614787E+01  0.12720808774E+03  0.12499764008E+03 0.  0.
    9000005    1    3    3    0    0  0.42339523673E+02  0.45178521219E+02 -0.22152789658E+02  0.65768382480E+02  0.10000000000E+01 0.  0.
    9000005    1    3    3    0    0 -0.22123526946E+02 -0.55241213965E+02  0.15257628179E+02  0.61439705261E+02  0.10000000000E+01 0.  0.
         -4    1    1    2    0  502 -0.20215996727E+02  0.10062692746E+02  0.25428001804E+02  0.34031463159E+02  0.12700000000E+01 0.  1.
<mgrwt>
<rscale>  1 0.12702108E+03</rscale>
<asrwt>0</asrwt>
<pdfrwt beam="1">  1       21 0.13827776E-01 0.12702108E+03</pdfrwt>
<pdfrwt beam="2">  1       -4 0.10978129E-01 0.12702108E+03</pdfrwt>
<totfact> 0.11742351E+05</totfact>
</mgrwt>
</event>
<event>
 6    4  0.3189516E-003  0.1298164E+03  0.7818608E-02  0.1227728E+00
         21   -1    0    0  501  502  0.00000000000E+00  0.00000000000E+00  0.38630210569E+03  0.38630210569E+03  0.00000000000E+00 0. -1.
          4   -1    0    0  502    0 -0.00000000000E+00 -0.00000000000E+00 -0.19532786023E+02  0.19574029474E+02  0.12700000000E+01 0. -1.
         25    2    1    2    0    0  0.72684791129E+01 -0.34265797963E+02  0.33212083514E+03  0.35659017287E+03  0.12500130623E+03 0.  0.
    9000005    1    3    3    0    0 -0.16633777369E+02  0.28024151875E+02  0.24341983671E+03  0.24559367366E+03  0.10000000000E+01 0.  0.
    9000005    1    3    3    0    0  0.23902256482E+02 -0.62289949838E+02  0.88700998429E+02  0.11099649922E+03  0.10000000000E+01 0.  0.
          4    1    1    2  501    0 -0.72684791129E+01  0.34265797963E+02  0.34648484528E+02  0.49285962289E+02  0.12700000000E+01 0.  1.
<mgrwt>
<rscale>  1 0.12981642E+03</rscale>
<asrwt>0</asrwt>
<pdfrwt beam="1">  1       21 0.59431088E-01 0.12981642E+03</pdfrwt>
<pdfrwt beam="2">  1        4 0.30083774E-02 0.12981642E+03</pdfrwt>
<totfact> 0.57647779E+04</totfact>
</mgrwt>
</event>
<event>
 6    4  0.3189516E-003  0.1285642E+03  0.7818608E-02  0.1229602E+00
         -4   -1    0    0    0  501 -0.00000000000E+00  0.00000000000E+00  0.74424060297E+03  0.74424168655E+03  0.12700000000E+01 0.  1.
         21   -1    0    0  501  502  0.00000000000E+00 -0.00000000000E+00 -0.51759976199E+02  0.51759976199E+02  0.00000000000E+00 0. -1.
         25    2    1    2    0    0  0.26721999335E+02 -0.13781784681E+02  0.73374855997E+03  0.74492663903E+03  0.12499898180E+03 0.  0.
    9000005    1    3    3    0    0  0.57185461797E+02  0.64052843654E+01  0.66107688049E+03  0.66357731021E+03  0.10000000000E+01 0.  0.
    9000005    1    3    3    0    0 -0.30463462462E+02 -0.20187069046E+02  0.72671679479E+02  0.81349328825E+02  0.10000000000E+01 0.  0.
         -4    1    1    2    0  502 -0.26721999335E+02  0.13781784681E+02 -0.41267933199E+02  0.51075023720E+02  0.12700000000E+01 0. -1.
<mgrwt>
<rscale>  1 0.12856418E+03</rscale>
<asrwt>0</asrwt>
<pdfrwt beam="2">  1       21 0.79630738E-02 0.12856418E+03</pdfrwt>
<pdfrwt beam="1">  1       -4 0.11449983E+00 0.12856418E+03</pdfrwt>
<totfact> 0.30905147E+03</totfact>
</mgrwt>
</event>
<event>
 6    4  0.3189516E-003  0.1269254E+03  0.7818608E-02  0.1232091E+00
         21   -1    0    0  501  502  0.00000000000E+00  0.00000000000E+00  0.35912086018E+02  0.35912086018E+02  0.00000000000E+00 0.  1.
         -4   -1    0    0    0  501 -0.00000000000E+00 -0.00000000000E+00 -0.15606356196E+03  0.15606872932E+03  0.12700000000E+01 0.  1.
         25    2    1    2    0    0 -0.18828325725E+02 -0.11149993303E+02 -0.10940394112E+03  0.16756871578E+03  0.12502489342E+03 0.  0.
    9000005    1    3    3    0    0 -0.23088154468E+02  0.53598810200E+02 -0.32020245387E+02  0.66574705754E+02  0.10000000000E+01 0.  0.
    9000005    1    3    3    0    0  0.42598287437E+01 -0.64748803503E+02 -0.77383695729E+02  0.10099401002E+03  0.10000000000E+01 0.  0.
         -4    1    1    2    0  502  0.18828325725E+02  0.11149993303E+02 -0.10747534830E+02  0.24412099565E+02  0.12700000000E+01 0. -1.
<mgrwt>
<rscale>  1 0.12692538E+03</rscale>
<asrwt>0</asrwt>
<pdfrwt beam="1">  1       21 0.55249362E-02 0.12692538E+03</pdfrwt>
<pdfrwt beam="2">  1       -4 0.24011904E-01 0.12692538E+03</pdfrwt>
<totfact> 0.14549094E+05</totfact>
</mgrwt>
</event>
<event>
 6    4  0.3189516E-003  0.1850387E+03  0.7818608E-02  0.1163014E+00
         21   -1    0    0  501  502  0.00000000000E+00  0.00000000000E+00  0.15275773954E+04  0.15275773954E+04  0.00000000000E+00 0. -1.
         -4   -1    0    0    0  501 -0.00000000000E+00 -0.00000000000E+00 -0.44308207096E+02  0.44326404276E+02  0.12700000000E+01 0.  1.
         25    2    1    2    0    0 -0.60154536232E+02 -0.12245690726E+03  0.16908925553E+03  0.25066015410E+03  0.12500029661E+03 0.  0.
    9000005    1    3    3    0    0 -0.66331242433E+02 -0.10183476297E+03  0.18673783204E+03  0.22280523016E+03  0.10000000000E+01 0.  0.
    9000005    1    3    3    0    0  0.61767062013E+01 -0.20622144298E+02 -0.17648576511E+02  0.27854923941E+02  0.10000000000E+01 0.  0.
         -4    1    1    2    0  502  0.60154536232E+02  0.12245690726E+03  0.13141799328E+04  0.13212436456E+04  0.12700000000E+01 0. -1.
<mgrwt>
<rscale>  1 0.18503874E+03</rscale>
<asrwt>0</asrwt>
<pdfrwt beam="1">  1       21 0.23501187E+00 0.18503874E+03</pdfrwt>
<pdfrwt beam="2">  1       -4 0.68180888E-02 0.18503874E+03</pdfrwt>
<totfact> 0.49578306E+02</totfact>
</mgrwt>
</event>
<event>
 6    4  0.3189516E-003  0.1267706E+03  0.7818608E-02  0.1232328E+00
         -4   -1    0    0    0  501 -0.00000000000E+00  0.00000000000E+00  0.13937271870E+02  0.13995015084E+02  0.12700000000E+01 0. -1.
         21   -1    0    0  501  502  0.00000000000E+00 -0.00000000000E+00 -0.10719698699E+04  0.10719698699E+04  0.00000000000E+00 0. -1.
         25    2    1    2    0    0  0.16977207052E+02 -0.12238680153E+02 -0.27677500870E+03  0.30442598983E+03  0.12503106411E+03 0.  0.
    9000005    1    3    3    0    0  0.26957636861E+02 -0.46564647696E+02 -0.45701966048E+02  0.70602055925E+02  0.10000000000E+01 0.  0.
    9000005    1    3    3    0    0 -0.99804298094E+01  0.34325967543E+02 -0.23107304265E+03  0.23382393391E+03  0.10000000000E+01 0.  0.
         -4    1    1    2    0  502 -0.16977207052E+02  0.12238680153E+02 -0.78125758931E+03  0.78153889513E+03  0.12700000000E+01 0.  1.
<mgrwt>
<rscale>  1 0.12677057E+03</rscale>
<asrwt>0</asrwt>
<pdfrwt beam="2">  1       21 0.16491843E+00 0.12677057E+03</pdfrwt>
<pdfrwt beam="1">  1       -4 0.21486955E-02 0.12677057E+03</pdfrwt>
<totfact> 0.87920818E+03</totfact>
</mgrwt>
</event>
<event>
 6    4  0.3189516E-003  0.1280608E+03  0.7818608E-02  0.1230362E+00
         21   -1    0    0  501  502  0.00000000000E+00  0.00000000000E+00  0.13954996248E+02  0.13954996248E+02  0.00000000000E+00 0.  1.
         -4   -1    0    0    0  501 -0.00000000000E+00 -0.00000000000E+00 -0.66312940268E+03  0.66313061881E+03  0.12700000000E+01 0. -1.
         25    2    1    2    0    0 -0.21423315453E+02  0.17771175634E+02 -0.63089555007E+03  0.64376141036E+03  0.12499914100E+03 0.  0.
    9000005    1    3    3    0    0 -0.16321926644E+01 -0.61594460322E+01  0.43350232299E+01  0.77714383946E+01  0.10000000000E+01 0.  0.
    9000005    1    3    3    0    0 -0.19791122788E+02  0.23930621666E+02 -0.63523057330E+03  0.63598997197E+03  0.10000000000E+01 0.  0.
         -4    1    1    2    0  502  0.21423315453E+02 -0.17771175634E+02 -0.18278856370E+02  0.33324204696E+02  0.12700000000E+01 0.  1.
<mgrwt>
<rscale>  1 0.12806076E+03</rscale>
<asrwt>0</asrwt>
<pdfrwt beam="1">  1       21 0.21469231E-02 0.12806076E+03</pdfrwt>
<pdfrwt beam="2">  1       -4 0.10202442E+00 0.12806076E+03</pdfrwt>
<totfact> 0.35956814E+04</totfact>
</mgrwt>
</event>
<event>
 6    4  0.3189516E-003  0.1275716E+03  0.7818608E-02  0.1231104E+00
         21   -1    0    0  501  502  0.00000000000E+00  0.00000000000E+00  0.70656648589E+02  0.70656648589E+02  0.00000000000E+00 0.  1.
          4   -1    0    0  502    0 -0.00000000000E+00 -0.00000000000E+00 -0.19644148601E+03  0.19644559126E+03  0.12700000000E+01 0. -1.
         25    2    1    2    0    0 -0.92926765326E+01  0.23732550784E+02 -0.17209754077E+03  0.21422438820E+03  0.12499974863E+03 0.  0.
    9000005    1    3    3    0    0  0.34793185423E+02  0.23198553177E+02 -0.16417231628E+03  0.16941749631E+03  0.10000000000E+01 0.  0.
    9000005    1    3    3    0    0 -0.44085861956E+02  0.53399760679E+00 -0.79252244849E+01  0.44806891891E+02  0.10000000000E+01 0.  0.
          4    1    1    2  501    0  0.92926765326E+01 -0.23732550784E+02  0.46312703347E+02  0.52877851651E+02  0.12700000000E+01 0.  1.
<mgrwt>
<rscale>  1 0.12757165E+03</rscale>
<asrwt>0</asrwt>
<pdfrwt beam="1">  1       21 0.10870254E-01 0.12757165E+03</pdfrwt>
<pdfrwt beam="2">  1        4 0.30222960E-01 0.12757165E+03</pdfrwt>
<totfact> 0.29598748E+04</totfact>
</mgrwt>
</event>
<event>
 6    4  0.3189516E-003  0.1323354E+03  0.7818608E-02  0.1224031E+00
         21   -1    0    0  501  502  0.00000000000E+00  0.00000000000E+00  0.12015210815E+02  0.12015210815E+02  0.00000000000E+00 0. -1.
          4   -1    0    0  502    0 -0.00000000000E+00 -0.00000000000E+00 -0.64680271490E+03  0.64680396173E+03  0.12700000000E+01 0. -1.
         25    2    1    2    0    0  0.43307171163E+02 -0.33845206514E+01 -0.49881554591E+03  0.51607130964E+03  0.12500272690E+03 0.  0.
    9000005    1    3    3    0    0  0.37710690424E+02 -0.35559431240E+01 -0.33075155415E+02  0.50296190805E+02  0.10000000000E+01 0.  0.
    9000005    1    3    3    0    0  0.55964807393E+01  0.17142247253E+00 -0.46574039050E+03  0.46577511883E+03  0.10000000000E+01 0.  0.
          4    1    1    2  501    0 -0.43307171163E+02  0.33845206514E+01 -0.13597195818E+03  0.14274786291E+03  0.12700000000E+01 0.  1.
<mgrwt>
<rscale>  1 0.13233536E+03</rscale>
<asrwt>0</asrwt>
<pdfrwt beam="1">  1       21 0.18484935E-02 0.13233536E+03</pdfrwt>
<pdfrwt beam="2">  1        4 0.99513397E-01 0.13233536E+03</pdfrwt>
<totfact> 0.48709600E+04</totfact>
</mgrwt>
</event>
<event>
 6    4  0.3189516E-003  0.1269438E+03  0.7818608E-02  0.1232062E+00
         21   -1    0    0  501  502  0.00000000000E+00  0.00000000000E+00  0.15763479943E+03  0.15763479943E+03  0.00000000000E+00 0.  1.
         -4   -1    0    0    0  501 -0.00000000000E+00 -0.00000000000E+00 -0.42847445685E+02  0.42866262978E+02  0.12700000000E+01 0. -1.
         25    2    1    2    0    0  0.15960517987E+02 -0.15345366680E+02  0.58056943942E+02  0.13958989176E+03  0.12499804290E+03 0.  0.
    9000005    1    3    3    0    0  0.25304288597E+02 -0.47388278611E+02  0.82327076108E+02  0.98309223533E+02  0.10000000000E+01 0.  0.
    9000005    1    3    3    0    0 -0.93437706096E+01  0.32042911931E+02 -0.24270132166E+02  0.41280668231E+02  0.10000000000E+01 0.  0.
         -4    1    1    2    0  502 -0.15960517987E+02  0.15345366680E+02  0.56730409806E+02  0.60911170648E+02  0.12700000000E+01 0.  1.
<mgrwt>
<rscale>  1 0.12694380E+03</rscale>
<asrwt>0</asrwt>
<pdfrwt beam="1">  1       21 0.24251507E-01 0.12694380E+03</pdfrwt>
<pdfrwt beam="2">  1       -4 0.65937558E-02 0.12694380E+03</pdfrwt>
<totfact> 0.97785346E+04</totfact>
</mgrwt>
</event>
<event>
 6    4  0.3189516E-003  0.1281233E+03  0.7818608E-02  0.1230267E+00
         -4   -1    0    0    0  501 -0.00000000000E+00  0.00000000000E+00  0.59656270547E+02  0.59669787293E+02  0.12700000000E+01 0.  1.
         21   -1    0    0  501  502  0.00000000000E+00 -0.00000000000E+00 -0.13847272179E+03  0.13847272179E+03  0.00000000000E+00 0. -1.
         25    2    1    2    0    0 -0.80121380269E+00 -0.28129586946E+02 -0.15771507200E+02  0.12909040213E+03  0.12499470340E+03 0.  0.
    9000005    1    3    3    0    0 -0.44323502430E+02  0.25787101537E+02  0.14751635901E+02  0.53368138764E+02  0.10000000000E+01 0.  0.
    9000005    1    3    3    0    0  0.43522288628E+02 -0.53916688483E+02 -0.30523143101E+02  0.75722263365E+02  0.10000000000E+01 0.  0.
         -4    1    1    2    0  502  0.80121380269E+00  0.28129586946E+02 -0.63044944042E+02  0.69052106952E+02  0.12700000000E+01 0. -1.
<mgrwt>
<rscale>  1 0.12812334E+03</rscale>
<asrwt>0</asrwt>
<pdfrwt beam="2">  1       21 0.21303495E-01 0.12812334E+03</pdfrwt>
<pdfrwt beam="1">  1       -4 0.91793757E-02 0.12812334E+03</pdfrwt>
<totfact> 0.72249898E+04</totfact>
</mgrwt>
</event>
<event>
 6    4  0.3189516E-003  0.1305083E+03  0.7818608E-02  0.1226703E+00
          4   -1    0    0  502    0 -0.00000000000E+00  0.00000000000E+00  0.26496942298E+03  0.26497246652E+03  0.12700000000E+01 0.  1.
         21   -1    0    0  501  502  0.00000000000E+00 -0.00000000000E+00 -0.67500459007E+02  0.67500459007E+02  0.00000000000E+00 0. -1.
         25    2    1    2    0    0 -0.34946964912E+02 -0.13659003343E+02  0.24156168174E+03  0.27456231001E+03  0.12499822905E+03 0.  0.
    9000005    1    3    3    0    0 -0.57137383184E+02  0.28116292975E+02  0.62042199772E+02  0.88912547148E+02  0.10000000000E+01 0.  0.
    9000005    1    3    3    0    0  0.22190418271E+02 -0.41775296319E+02  0.17951948196E+03  0.18564976286E+03  0.10000000000E+01 0.  0.
          4    1    1    2  501    0  0.34946964912E+02  0.13659003343E+02 -0.44092717769E+02  0.57910615514E+02  0.12700000000E+01 0. -1.
<mgrwt>
<rscale>  1 0.13050830E+03</rscale>
<asrwt>0</asrwt>
<pdfrwt beam="2">  1       21 0.10384686E-01 0.13050830E+03</pdfrwt>
<pdfrwt beam="1">  1        4 0.40765679E-01 0.13050830E+03</pdfrwt>
<totfact> 0.18051253E+04</totfact>
</mgrwt>
</event>
<event>
 6    4  0.3189516E-003  0.1287950E+03  0.7818608E-02  0.1229255E+00
          4   -1    0    0  502    0 -0.00000000000E+00  0.00000000000E+00  0.62855680029E+02  0.62868508905E+02  0.12700000000E+01 0. -1.
         21   -1    0    0  501  502  0.00000000000E+00 -0.00000000000E+00 -0.10662725247E+03  0.10662725247E+03  0.00000000000E+00 0. -1.
         25    2    1    2    0    0 -0.88167315866E+01  0.29763484933E+02 -0.49359399078E+02  0.13792937898E+03  0.12499825406E+03 0.  0.
    9000005    1    3    3    0    0 -0.53794603180E+02 -0.22435356090E+02 -0.11904433185E+02  0.59497227361E+02  0.10000000000E+01 0.  0.
    9000005    1    3    3    0    0  0.44977871594E+02  0.52198841024E+02 -0.37454965893E+02  0.78432151618E+02  0.10000000000E+01 0.  0.
          4    1    1    2  501    0  0.88167315866E+01 -0.29763484933E+02  0.55878266348E+01  0.31566382399E+02  0.12700000000E+01 0.  1.
<mgrwt>
<rscale>  1 0.12879504E+03</rscale>
<asrwt>0</asrwt>
<pdfrwt beam="2">  1       21 0.16404193E-01 0.12879504E+03</pdfrwt>
<pdfrwt beam="1">  1        4 0.96716733E-02 0.12879504E+03</pdfrwt>
<totfact> 0.10706489E+05</totfact>
</mgrwt>
</event>
<event>
 6    4  0.3189516E-003  0.2850986E+03  0.7818608E-02  0.1092936E+00
         21   -1    0    0  501  502  0.00000000000E+00  0.00000000000E+00  0.23126249083E+03  0.23126249083E+03  0.00000000000E+00 0.  1.
         -4   -1    0    0    0  501 -0.00000000000E+00 -0.00000000000E+00 -0.49611183820E+03  0.49611346374E+03  0.12700000000E+01 0. -1.
         25    2    1    2    0    0  0.10515052461E+03 -0.23366869931E+03 -0.35538697317E+03  0.45561067267E+03  0.12499396181E+03 0.  0.
    9000005    1    3    3    0    0 -0.27745355129E+02 -0.47167909228E+02 -0.52014459114E+02  0.75505763682E+02  0.10000000000E+01 0.  0.
    9000005    1    3    3    0    0  0.13289587974E+03 -0.18650079008E+03 -0.30337251405E+03  0.38010490899E+03  0.10000000000E+01 0.  0.
         -4    1    1    2    0  502 -0.10515052461E+03  0.23366869931E+03  0.90537625798E+02  0.27176528190E+03  0.12700000000E+01 0.  1.
<mgrwt>
<rscale>  1 0.28509855E+03</rscale>
<asrwt>0</asrwt>
<pdfrwt beam="1">  1       21 0.35578845E-01 0.28509855E+03</pdfrwt>
<pdfrwt beam="2">  1       -4 0.76325291E-01 0.28509855E+03</pdfrwt>
<totfact> 0.50228221E+02</totfact>
</mgrwt>
</event>
<event>
 6    4  0.3189516E-003  0.1330551E+03  0.7818608E-02  0.1222992E+00
         21   -1    0    0  501  502  0.00000000000E+00  0.00000000000E+00  0.52535427254E+01  0.52535427254E+01  0.00000000000E+00 0.  1.
          4   -1    0    0  502    0 -0.00000000000E+00 -0.00000000000E+00 -0.15483756429E+04  0.15483761638E+04  0.12700000000E+01 0. -1.
         25    2    1    2    0    0  0.44135036732E+02  0.11436157302E+02 -0.12356594664E+04  0.12428024695E+04  0.12499989666E+03 0.  0.
    9000005    1    3    3    0    0  0.24492680200E+02  0.10920694700E+02 -0.12108097703E+04  0.12111071186E+04  0.10000000000E+01 0.  0.
    9000005    1    3    3    0    0  0.19642356532E+02  0.51546260155E+00 -0.24849696160E+02  0.31695350938E+02  0.10000000000E+01 0.  0.
          4    1    1    2  501    0 -0.44135036732E+02 -0.11436157302E+02 -0.30746263380E+03  0.31082723698E+03  0.12700000000E+01 0.  1.
<mgrwt>
<rscale>  1 0.13305511E+03</rscale>
<asrwt>0</asrwt>
<pdfrwt beam="1">  1       21 0.80823652E-03 0.13305511E+03</pdfrwt>
<pdfrwt beam="2">  1        4 0.23822373E+00 0.13305511E+03</pdfrwt>
<totfact> 0.18333032E+04</totfact>
</mgrwt>
</event>
<event>
 6    4  0.3189516E-003  0.1268487E+03  0.7818608E-02  0.1232208E+00
         21   -1    0    0  501  502  0.00000000000E+00  0.00000000000E+00  0.14045601726E+02  0.14045601726E+02  0.00000000000E+00 0. -1.
         -4   -1    0    0    0  501 -0.00000000000E+00 -0.00000000000E+00 -0.83772598038E+03  0.83772694305E+03  0.12700000000E+01 0.  1.
         25    2    1    2    0    0 -0.15801348977E+02  0.14703330496E+02 -0.82010555261E+03  0.82985764486E+03  0.12499889098E+03 0.  0.
    9000005    1    3    3    0    0 -0.32314557201E+02  0.25025383011E+02 -0.80263784126E+03  0.80367842115E+03  0.10000000000E+01 0.  0.
    9000005    1    3    3    0    0  0.16513208224E+02 -0.10322052515E+02 -0.17467711350E+02  0.26179223704E+02  0.10000000000E+01 0.  0.
         -4    1    1    2    0  502  0.15801348977E+02 -0.14703330496E+02 -0.35748260471E+01  0.21914899918E+02  0.12700000000E+01 0. -1.
<mgrwt>
<rscale>  1 0.12684870E+03</rscale>
<asrwt>0</asrwt>
<pdfrwt beam="1">  1       21 0.21608620E-02 0.12684870E+03</pdfrwt>
<pdfrwt beam="2">  1       -4 0.12888540E+00 0.12684870E+03</pdfrwt>
<totfact> 0.20395121E+04</totfact>
</mgrwt>
</event>
<event>
 6    4  0.3189516E-003  0.1356662E+03  0.7818608E-02  0.1219282E+00
          4   -1    0    0  502    0 -0.00000000000E+00  0.00000000000E+00  0.72347996449E+02  0.72359142409E+02  0.12700000000E+01 0. -1.
         21   -1    0    0  501  502  0.00000000000E+00 -0.00000000000E+00 -0.13713620212E+03  0.13713620212E+03  0.00000000000E+00 0. -1.
         25    2    1    2    0    0 -0.19290167769E+02 -0.49086315020E+02 -0.14205750895E+02  0.13640790015E+03  0.12499493978E+03 0.  0.
    9000005    1    3    3    0    0  0.47127876015E+01  0.23912830174E+02  0.36814890217E+02  0.44162993055E+02  0.10000000000E+01 0.  0.
    9000005    1    3    3    0    0 -0.24002955371E+02 -0.72999145194E+02 -0.51020641112E+02  0.92244907095E+02  0.10000000000E+01 0.  0.
          4    1    1    2  501    0  0.19290167769E+02  0.49086315020E+02 -0.50582454781E+02  0.73087444383E+02  0.12700000000E+01 0.  1.
<mgrwt>
<rscale>  1 0.13566618E+03</rscale>
<asrwt>0</asrwt>
<pdfrwt beam="2">  1       21 0.21097877E-01 0.13566618E+03</pdfrwt>
<pdfrwt beam="1">  1        4 0.11131771E-01 0.13566618E+03</pdfrwt>
<totfact> 0.53526026E+04</totfact>
</mgrwt>
</event>
<event>
 6    4  0.3189516E-003  0.1413086E+03  0.7818608E-02  0.1211579E+00
          4   -1    0    0  502    0 -0.00000000000E+00  0.00000000000E+00  0.73697400620E+03  0.73697510047E+03  0.12700000000E+01 0.  1.
         21   -1    0    0  501  502  0.00000000000E+00 -0.00000000000E+00 -0.18359047252E+02  0.18359047252E+02  0.00000000000E+00 0. -1.
         25    2    1    2    0    0  0.64049313874E+02 -0.15557892283E+02  0.62538520477E+03  0.64115112541E+03  0.12499499450E+03 0.  0.
    9000005    1    3    3    0    0 -0.30909245266E+02  0.23260740717E+02  0.16648270750E+03  0.17092084541E+03  0.10000000000E+01 0.  0.
    9000005    1    3    3    0    0  0.94958559140E+02 -0.38818633000E+02  0.45890249728E+03  0.47023028000E+03  0.10000000000E+01 0.  0.
          4    1    1    2  501    0 -0.64049313874E+02  0.15557892283E+02  0.93229754175E+02  0.11418302231E+03  0.12700000000E+01 0. -1.
<mgrwt>
<rscale>  1 0.14130857E+03</rscale>
<asrwt>0</asrwt>
<pdfrwt beam="2">  1       21 0.28244694E-02 0.14130857E+03</pdfrwt>
<pdfrwt beam="1">  1        4 0.11338406E+00 0.14130857E+03</pdfrwt>
<totfact> 0.18156124E+04</totfact>
</mgrwt>
</event>
<event>
 6    4  0.3189516E-003  0.1491671E+03  0.7818608E-02  0.1201500E+00
         21   -1    0    0  501  502  0.00000000000E+00  0.00000000000E+00  0.95610480100E+03  0.95610480100E+03  0.00000000000E+00 0. -1.
          4   -1    0    0  502    0 -0.00000000000E+00 -0.00000000000E+00 -0.14039757577E+02  0.14097081003E+02  0.12700000000E+01 0. -1.
         25    2    1    2    0    0 -0.59337252716E+02 -0.55721701516E+02  0.65839710675E+03  0.67508338246E+03  0.12500002204E+03 0.  0.
    9000005    1    3    3    0    0 -0.96811306690E+02 -0.35608387023E+02  0.39374566559E+03  0.40703444019E+03  0.10000000000E+01 0.  0.
    9000005    1    3    3    0    0  0.37474053974E+02 -0.20113314493E+02  0.26465144116E+03  0.26804894226E+03  0.10000000000E+01 0.  0.
          4    1    1    2  501    0  0.59337252716E+02  0.55721701516E+02  0.28366793667E+03  0.29511849955E+03  0.12700000000E+01 0.  1.
<mgrwt>
<rscale>  1 0.14916710E+03</rscale>
<asrwt>0</asrwt>
<pdfrwt beam="1">  1       21 0.14709300E+00 0.14916710E+03</pdfrwt>
<pdfrwt beam="2">  1        4 0.21644378E-02 0.14916710E+03</pdfrwt>
<totfact> 0.11827518E+04</totfact>
</mgrwt>
</event>
<event>
 6    4  0.3189516E-003  0.1280797E+03  0.7818608E-02  0.1230333E+00
         21   -1    0    0  501  502  0.00000000000E+00  0.00000000000E+00  0.37573871459E+03  0.37573871459E+03  0.00000000000E+00 0.  1.
         -4   -1    0    0    0  501 -0.00000000000E+00 -0.00000000000E+00 -0.20514825384E+02  0.20554098387E+02  0.12700000000E+01 0. -1.
         25    2    1    2    0    0  0.13277926584E+02  0.24632865405E+02  0.19276306508E+03  0.23143465070E+03  0.12498526671E+03 0.  0.
    9000005    1    3    3    0    0 -0.13889134906E+02  0.72066454468E+02  0.10915548230E+03  0.13153859223E+03  0.10000000000E+01 0.  0.
    9000005    1    3    3    0    0  0.27167061491E+02 -0.47433589063E+02  0.83607582772E+02  0.99896058473E+02  0.10000000000E+01 0.  0.
         -4    1    1    2    0  502 -0.13277926584E+02 -0.24632865405E+02  0.16246082413E+03  0.16485816228E+03  0.12700000000E+01 0.  1.
<mgrwt>
<rscale>  1 0.12807966E+03</rscale>
<asrwt>0</asrwt>
<pdfrwt beam="1">  1       21 0.57805951E-01 0.12807966E+03</pdfrwt>
<pdfrwt beam="2">  1       -4 0.31593134E-02 0.12807966E+03</pdfrwt>
<totfact> 0.56532281E+04</totfact>
</mgrwt>
</event>
<event>
 6    4  0.3189516E-003  0.1272764E+03  0.7818608E-02  0.1231554E+00
         -4   -1    0    0    0  501 -0.00000000000E+00  0.00000000000E+00  0.24195425516E+02  0.24228733271E+02  0.12700000000E+01 0.  1.
         21   -1    0    0  501  502  0.00000000000E+00 -0.00000000000E+00 -0.24106985485E+03  0.24106985485E+03  0.00000000000E+00 0.  1.
         25    2    1    2    0    0  0.18288992904E+02  0.15440682243E+02 -0.19492305068E+03  0.23279662119E+03  0.12500547677E+03 0.  0.
    9000005    1    3    3    0    0  0.10300168115E+02  0.66902122799E+02 -0.69664815438E+02  0.97139971218E+02  0.10000000000E+01 0.  0.
    9000005    1    3    3    0    0  0.79888247889E+01 -0.51461440556E+02 -0.12525823524E+03  0.13565664997E+03  0.10000000000E+01 0.  0.
         -4    1    1    2    0  502 -0.18288992904E+02 -0.15440682243E+02 -0.21951378653E+02  0.32501966931E+02  0.12700000000E+01 0. -1.
<mgrwt>
<rscale>  1 0.12727636E+03</rscale>
<asrwt>0</asrwt>
<pdfrwt beam="2">  1       21 0.37087671E-01 0.12727636E+03</pdfrwt>
<pdfrwt beam="1">  1       -4 0.37251925E-02 0.12727636E+03</pdfrwt>
<totfact> 0.10781626E+05</totfact>
</mgrwt>
</event>
<event>
 6    4  0.3189516E-003  0.1272932E+03  0.7818608E-02  0.1231528E+00
         21   -1    0    0  501  502  0.00000000000E+00  0.00000000000E+00  0.50796923615E+02  0.50796923615E+02  0.00000000000E+00 0. -1.
         -4   -1    0    0    0  501 -0.00000000000E+00 -0.00000000000E+00 -0.11366492460E+03  0.11367201936E+03  0.12700000000E+01 0. -1.
         25    2    1    2    0    0  0.50773734586E+01 -0.23508432323E+02 -0.47329472815E+02  0.13580738563E+03  0.12500056353E+03 0.  0.
    9000005    1    3    3    0    0  0.23363679003E+02  0.47656799412E+02 -0.12754437930E+02  0.54595858027E+02  0.10000000000E+01 0.  0.
    9000005    1    3    3    0    0 -0.18286305545E+02 -0.71165231735E+02 -0.34575034885E+02  0.81211527604E+02  0.10000000000E+01 0.  0.
         -4    1    1    2    0  502 -0.50773734586E+01  0.23508432323E+02 -0.15538528174E+02  0.28661557343E+02  0.12700000000E+01 0.  1.
<mgrwt>
<rscale>  1 0.12729323E+03</rscale>
<asrwt>0</asrwt>
<pdfrwt beam="1">  1       21 0.78149114E-02 0.12729323E+03</pdfrwt>
<pdfrwt beam="2">  1       -4 0.17488678E-01 0.12729323E+03</pdfrwt>
<totfact> 0.14271330E+05</totfact>
</mgrwt>
</event>
<event>
 6    4  0.3189516E-003  0.1375163E+03  0.7818608E-02  0.1216711E+00
         21   -1    0    0  501  502  0.00000000000E+00  0.00000000000E+00  0.14747469065E+02  0.14747469065E+02  0.00000000000E+00 0.  1.
         -4   -1    0    0    0  501 -0.00000000000E+00 -0.00000000000E+00 -0.69097152368E+03  0.69097269080E+03  0.12700000000E+01 0.  1.
         25    2    1    2    0    0  0.32415399885E+02 -0.47273660985E+02 -0.38290073746E+03  0.40684604178E+03  0.12500067919E+03 0.  0.
    9000005    1    3    3    0    0 -0.25732640871E+02 -0.39026212035E+02 -0.48660473477E+02  0.67483744050E+02  0.10000000000E+01 0.  0.
    9000005    1    3    3    0    0  0.58148040756E+02 -0.82474489495E+01 -0.33424026398E+03  0.33936229773E+03  0.10000000000E+01 0.  0.
         -4    1    1    2    0  502 -0.32415399885E+02  0.47273660985E+02 -0.29332331716E+03  0.29887411808E+03  0.12700000000E+01 0. -1.
<mgrwt>
<rscale>  1 0.13751628E+03</rscale>
<asrwt>0</asrwt>
<pdfrwt beam="1">  1       21 0.22688419E-02 0.13751628E+03</pdfrwt>
<pdfrwt beam="2">  1       -4 0.10630758E+00 0.13751628E+03</pdfrwt>
<totfact> 0.30124883E+04</totfact>
</mgrwt>
</event>
<event>
 6    4  0.3189516E-003  0.1370656E+03  0.7818608E-02  0.1217333E+00
         -4   -1    0    0    0  501 -0.00000000000E+00  0.00000000000E+00  0.26474331938E+02  0.26504776014E+02  0.12700000000E+01 0. -1.
         21   -1    0    0  501  502  0.00000000000E+00 -0.00000000000E+00 -0.36376054214E+03  0.36376054214E+03  0.00000000000E+00 0. -1.
         25    2    1    2    0    0  0.14770401819E+02  0.54255538700E+02 -0.26806475639E+03  0.30107422657E+03  0.12500059215E+03 0.  0.
    9000005    1    3    3    0    0  0.72141034533E+01 -0.40254700721E+02 -0.10113965776E+03  0.10909956274E+03  0.10000000000E+01 0.  0.
    9000005    1    3    3    0    0  0.75562983659E+01  0.94510239421E+02 -0.16692509863E+03  0.19197466383E+03  0.10000000000E+01 0.  0.
         -4    1    1    2    0  502 -0.14770401819E+02 -0.54255538700E+02 -0.69221453817E+02  0.89191091584E+02  0.12700000000E+01 0.  1.
<mgrwt>
<rscale>  1 0.13706559E+03</rscale>
<asrwt>0</asrwt>
<pdfrwt beam="2">  1       21 0.55963160E-01 0.13706559E+03</pdfrwt>
<pdfrwt beam="1">  1       -4 0.40754866E-02 0.13706559E+03</pdfrwt>
<totfact> 0.40777003E+04</totfact>
</mgrwt>
</event>
<event>
 6    4  0.3189516E-003  0.1305557E+03  0.7818608E-02  0.1226633E+00
         21   -1    0    0  501  502  0.00000000000E+00  0.00000000000E+00  0.14678227067E+02  0.14678227067E+02  0.00000000000E+00 0. -1.
          4   -1    0    0  502    0 -0.00000000000E+00 -0.00000000000E+00 -0.77362193845E+03  0.77362298088E+03  0.12700000000E+01 0.  1.
         25    2    1    2    0    0 -0.36240897270E+02  0.10307191789E+02 -0.72775499077E+03  0.73937279053E+03  0.12500062380E+03 0.  0.
    9000005    1    3    3    0    0 -0.54003300760E+01  0.47659967468E+02 -0.11367034396E+03  0.12337983287E+03  0.10000000000E+01 0.  0.
    9000005    1    3    3    0    0 -0.30840567194E+02 -0.37352775679E+02 -0.61408464681E+03  0.61599295766E+03  0.10000000000E+01 0.  0.
          4    1    1    2  501    0  0.36240897270E+02 -0.10307191789E+02 -0.31188720611E+02  0.48928417417E+02  0.12700000000E+01 0. -1.
<mgrwt>
<rscale>  1 0.13055572E+03</rscale>
<asrwt>0</asrwt>
<pdfrwt beam="1">  1       21 0.22581879E-02 0.13055572E+03</pdfrwt>
<pdfrwt beam="2">  1        4 0.11902311E+00 0.13055572E+03</pdfrwt>
<totfact> 0.23103000E+04</totfact>
</mgrwt>
</event>
<event>
 6    4  0.3189516E-003  0.1282719E+03  0.7818608E-02  0.1230043E+00
         -4   -1    0    0    0  501 -0.00000000000E+00  0.00000000000E+00  0.26994046717E+02  0.27023905309E+02  0.12700000000E+01 0.  1.
         21   -1    0    0  501  502  0.00000000000E+00 -0.00000000000E+00 -0.25681280705E+03  0.25681280705E+03  0.00000000000E+00 0.  1.
         25    2    1    2    0    0  0.18532082702E+02  0.22038861510E+02 -0.14175328260E+03  0.19117447207E+03  0.12499814454E+03 0.  0.
    9000005    1    3    3    0    0 -0.49680784674E+02  0.31904755683E+02 -0.59021459075E+02  0.83490277472E+02  0.10000000000E+01 0.  0.
    9000005    1    3    3    0    0  0.68212867377E+02 -0.98658941732E+01 -0.82731823524E+02  0.10768419460E+03  0.10000000000E+01 0.  0.
         -4    1    1    2    0  502 -0.18532082702E+02 -0.22038861510E+02 -0.88065477730E+02  0.92662240280E+02  0.12700000000E+01 0. -1.
<mgrwt>
<rscale>  1 0.12827192E+03</rscale>
<asrwt>0</asrwt>
<pdfrwt beam="2">  1       21 0.39509662E-01 0.12827192E+03</pdfrwt>
<pdfrwt beam="1">  1       -4 0.41554687E-02 0.12827192E+03</pdfrwt>
<totfact> 0.80041435E+04</totfact>
</mgrwt>
</event>
<event>
 6    4  0.3189516E-003  0.1307112E+03  0.7818608E-02  0.1226404E+00
          4   -1    0    0  502    0 -0.00000000000E+00  0.00000000000E+00  0.32314558183E+02  0.32339504798E+02  0.12700000000E+01 0. -1.
         21   -1    0    0  501  502  0.00000000000E+00 -0.00000000000E+00 -0.40214522262E+03  0.40214522262E+03  0.00000000000E+00 0.  1.
         25    2    1    2    0    0  0.37234580997E+02  0.85937711998E+01 -0.10709481800E+03  0.16898142268E+03  0.12500061697E+03 0.  0.
    9000005    1    3    3    0    0  0.65937028861E+02 -0.36287079991E+02 -0.47331419203E+02  0.88914043846E+02  0.10000000000E+01 0.  0.
    9000005    1    3    3    0    0 -0.28702447864E+02  0.44880851191E+02 -0.59763398797E+02  0.80067378830E+02  0.10000000000E+01 0.  0.
          4    1    1    2  501    0 -0.37234580997E+02 -0.85937711998E+01 -0.26273584643E+03  0.26550330474E+03  0.12700000000E+01 0.  1.
<mgrwt>
<rscale>  1 0.13071121E+03</rscale>
<asrwt>0</asrwt>
<pdfrwt beam="2">  1       21 0.61868497E-01 0.13071121E+03</pdfrwt>
<pdfrwt beam="1">  1        4 0.49735436E-02 0.13071121E+03</pdfrwt>
<totfact> 0.23874752E+04</totfact>
</mgrwt>
</event>
<event>
 6    4  0.3189516E-003  0.1298312E+03  0.7818608E-02  0.1227706E+00
         21   -1    0    0  501  502  0.00000000000E+00  0.00000000000E+00  0.20451075532E+02  0.20451075532E+02  0.00000000000E+00 0. -1.
         -4   -1    0    0    0  501 -0.00000000000E+00 -0.00000000000E+00 -0.37065274354E+03  0.37065491929E+03  0.12700000000E+01 0.  1.
         25    2    1    2    0    0 -0.34708422554E+02  0.51429175982E+01 -0.31792954876E+03  0.34341714100E+03  0.12500004226E+03 0.  0.
    9000005    1    3    3    0    0  0.24150092535E+02 -0.45710469192E+02 -0.13914856525E+03  0.14844526659E+03  0.10000000000E+01 0.  0.
    9000005    1    3    3    0    0 -0.58858515089E+02  0.50853386790E+02 -0.17878098351E+03  0.19497187441E+03  0.10000000000E+01 0.  0.
         -4    1    1    2    0  502  0.34708422554E+02 -0.51429175982E+01 -0.32272119249E+02  0.47688853817E+02  0.12700000000E+01 0. -1.
<mgrwt>
<rscale>  1 0.12983118E+03</rscale>
<asrwt>0</asrwt>
<pdfrwt beam="1">  1       21 0.31463193E-02 0.12983118E+03</pdfrwt>
<pdfrwt beam="2">  1       -4 0.57026700E-01 0.12983118E+03</pdfrwt>
<totfact> 0.69130116E+04</totfact>
</mgrwt>
</event>
<event>
 6    4  0.3189516E-003  0.1630560E+03  0.7818608E-02  0.1185289E+00
          4   -1    0    0  502    0 -0.00000000000E+00  0.00000000000E+00  0.17232903591E+02  0.17279637328E+02  0.12700000000E+01 0.  1.
         21   -1    0    0  501  502  0.00000000000E+00 -0.00000000000E+00 -0.14080934940E+04  0.14080934940E+04  0.00000000000E+00 0.  1.
         25    2    1    2    0    0 -0.10320070677E+03 -0.17651149855E+02 -0.44863481264E+03  0.47734729932E+03  0.12500120032E+03 0.  0.
    9000005    1    3    3    0    0 -0.61593904159E+01  0.46008466793E+02 -0.14678057485E+03  0.15394886898E+03  0.10000000000E+01 0.  0.
    9000005    1    3    3    0    0 -0.97041316356E+02 -0.63659616648E+02 -0.30185423779E+03  0.32339843034E+03  0.10000000000E+01 0.  0.
          4    1    1    2  501    0  0.10320070677E+03  0.17651149855E+02 -0.94222577773E+03  0.94802583197E+03  0.12700000000E+01 0. -1.
<mgrwt>
<rscale>  1 0.16305597E+03</rscale>
<asrwt>0</asrwt>
<pdfrwt beam="2">  1       21 0.21662977E+00 0.16305597E+03</pdfrwt>
<pdfrwt beam="1">  1        4 0.26548549E-02 0.16305597E+03</pdfrwt>
<totfact> 0.29210843E+03</totfact>
</mgrwt>
</event>
<event>
 6    4  0.3189516E-003  0.1452197E+03  0.7818608E-02  0.1206473E+00
         21   -1    0    0  501  502  0.00000000000E+00  0.00000000000E+00  0.41414476043E+03  0.41414476043E+03  0.00000000000E+00 0. -1.
          4   -1    0    0  502    0 -0.00000000000E+00 -0.00000000000E+00 -0.67352952851E+02  0.67364925278E+02  0.12700000000E+01 0.  1.
         25    2    1    2    0    0  0.73928405987E+02 -0.78860877894E-01  0.20158464941E+02  0.14661213592E+03  0.12499335686E+03 0.  0.
    9000005    1    3    3    0    0  0.20092512435E+02 -0.15389953715E+02 -0.50481970234E+02  0.56479988049E+02  0.10000000000E+01 0.  0.
    9000005    1    3    3    0    0  0.53835893551E+02  0.15311092837E+02  0.70640435174E+02  0.90132147872E+02  0.10000000000E+01 0.  0.
          4    1    1    2  501    0 -0.73928405987E+02  0.78860877894E-01  0.32663334264E+03  0.33489754979E+03  0.12700000000E+01 0. -1.
<mgrwt>
<rscale>  1 0.14521968E+03</rscale>
<asrwt>0</asrwt>
<pdfrwt beam="1">  1       21 0.63714577E-01 0.14521968E+03</pdfrwt>
<pdfrwt beam="2">  1        4 0.10363064E-01 0.14521968E+03</pdfrwt>
<totfact> 0.67463042E+03</totfact>
</mgrwt>
</event>
<event>
 6    4  0.3189516E-003  0.1328294E+03  0.7818608E-02  0.1223317E+00
         21   -1    0    0  501  502  0.00000000000E+00  0.00000000000E+00  0.45075115849E+02  0.45075115849E+02  0.00000000000E+00 0.  1.
         -4   -1    0    0    0  501 -0.00000000000E+00 -0.00000000000E+00 -0.25156901328E+03  0.25157221894E+03  0.12700000000E+01 0. -1.
         25    2    1    2    0    0 -0.29934721511E+02  0.33502048596E+02 -0.21321149269E+03  0.25120271136E+03  0.12500074707E+03 0.  0.
    9000005    1    3    3    0    0 -0.64053197103E+02  0.14429002391E+02 -0.19907440675E+03  0.20962496891E+03  0.10000000000E+01 0.  0.
    9000005    1    3    3    0    0  0.34118475591E+02  0.19073046205E+02 -0.14137085945E+02  0.41577742450E+02  0.10000000000E+01 0.  0.
         -4    1    1    2    0  502  0.29934721511E+02 -0.33502048596E+02  0.67175952658E+01  0.45444623425E+02  0.12700000000E+01 0.  1.
<mgrwt>
<rscale>  1 0.13282945E+03</rscale>
<asrwt>0</asrwt>
<pdfrwt beam="1">  1       21 0.69346330E-02 0.13282945E+03</pdfrwt>
<pdfrwt beam="2">  1       -4 0.38704549E-01 0.13282945E+03</pdfrwt>
<totfact> 0.40305736E+04</totfact>
</mgrwt>
</event>
<event>
 6    4  0.3189516E-003  0.1357661E+03  0.7818608E-02  0.1219142E+00
         -4   -1    0    0    0  501 -0.00000000000E+00  0.00000000000E+00  0.17247006100E+02  0.17293701727E+02  0.12700000000E+01 0. -1.
         21   -1    0    0  501  502  0.00000000000E+00 -0.00000000000E+00 -0.64487671763E+03  0.64487671763E+03  0.00000000000E+00 0.  1.
         25    2    1    2    0    0 -0.52808912086E+02  0.42899380848E+01 -0.28759530763E+03  0.31803063162E+03  0.12500094766E+03 0.  0.
    9000005    1    3    3    0    0  0.11820286655E+02 -0.13650856921E+02 -0.22673743509E+03  0.22745753349E+03  0.10000000000E+01 0.  0.
    9000005    1    3    3    0    0 -0.64629198741E+02  0.17940795005E+02 -0.60857872541E+02  0.90573098134E+02  0.10000000000E+01 0.  0.
         -4    1    1    2    0  502  0.52808912086E+02 -0.42899380848E+01 -0.34003440391E+03  0.34413978774E+03  0.12700000000E+01 0.  1.
<mgrwt>
<rscale>  1 0.13576605E+03</rscale>
<asrwt>0</asrwt>
<pdfrwt beam="2">  1       21 0.99211778E-01 0.13576605E+03</pdfrwt>
<pdfrwt beam="1">  1       -4 0.26570744E-02 0.13576605E+03</pdfrwt>
<totfact> 0.22502133E+04</totfact>
</mgrwt>
</event>
<event>
 6    4  0.3189516E-003  0.1545290E+03  0.7818608E-02  0.1195016E+00
         21   -1    0    0  501  502  0.00000000000E+00  0.00000000000E+00  0.16579853906E+03  0.16579853906E+03  0.00000000000E+00 0. -1.
         -4   -1    0    0    0  501 -0.00000000000E+00 -0.00000000000E+00 -0.18043879184E+03  0.18044326116E+03  0.12700000000E+01 0. -1.
         25    2    1    2    0    0  0.64176790941E+02 -0.64307879408E+02 -0.12821502487E+03  0.20079419589E+03  0.12500021061E+03 0.  0.
    9000005    1    3    3    0    0 -0.28239501866E+02 -0.53620522963E+02 -0.61198300814E+02  0.86132815878E+02  0.10000000000E+01 0.  0.
    9000005    1    3    3    0    0  0.92416292807E+02 -0.10687356445E+02 -0.67016724056E+02  0.11466138002E+03  0.10000000000E+01 0.  0.
         -4    1    1    2    0  502 -0.64176790941E+02  0.64307879408E+02  0.11357477209E+03  0.14544760433E+03  0.12700000000E+01 0.  1.
<mgrwt>
<rscale>  1 0.15452902E+03</rscale>
<asrwt>0</asrwt>
<pdfrwt beam="1">  1       21 0.25507467E-01 0.15452902E+03</pdfrwt>
<pdfrwt beam="2">  1       -4 0.27760532E-01 0.15452902E+03</pdfrwt>
<totfact> 0.74514066E+03</totfact>
</mgrwt>
</event>
<event>
 6    4  0.3189516E-003  0.1613622E+03  0.7818608E-02  0.1187167E+00
         21   -1    0    0  501  502  0.00000000000E+00  0.00000000000E+00  0.80544988914E+02  0.80544988914E+02  0.00000000000E+00 0. -1.
          4   -1    0    0  502    0 -0.00000000000E+00 -0.00000000000E+00 -0.23521567643E+03  0.23521910496E+03  0.12700000000E+01 0. -1.
         25    2    1    2    0    0  0.70619847207E+02 -0.73637661832E+02 -0.13810404483E+03  0.21239226691E+03  0.12501231854E+03 0.  0.
    9000005    1    3    3    0    0  0.50687412394E+01 -0.27072012379E+02  0.20646983374E+02  0.34436665263E+02  0.10000000000E+01 0.  0.
    9000005    1    3    3    0    0  0.65551105968E+02 -0.46565649453E+02 -0.15875102820E+03  0.17795560165E+03  0.10000000000E+01 0.  0.
          4    1    1    2  501    0 -0.70619847207E+02  0.73637661832E+02 -0.16566642687E+02  0.10337182696E+03  0.12700000000E+01 0.  1.
<mgrwt>
<rscale>  1 0.16136216E+03</rscale>
<asrwt>0</asrwt>
<pdfrwt beam="1">  1       21 0.12391537E-01 0.16136216E+03</pdfrwt>
<pdfrwt beam="2">  1        4 0.36188061E-01 0.16136216E+03</pdfrwt>
<totfact> 0.17015579E+04</totfact>
</mgrwt>
</event>
<event>
 6    4  0.3189516E-003  0.1501100E+03  0.7818608E-02  0.1200338E+00
         21   -1    0    0  501  502  0.00000000000E+00  0.00000000000E+00  0.69149426302E+03  0.69149426302E+03  0.00000000000E+00 0. -1.
         -4   -1    0    0    0  501 -0.00000000000E+00 -0.00000000000E+00 -0.30421832327E+02  0.30448329710E+02  0.12700000000E+01 0.  1.
         25    2    1    2    0    0 -0.93816825514E+01  0.82605170194E+02  0.18298120878E+03  0.23667518245E+03  0.12498555561E+03 0.  0.
    9000005    1    3    3    0    0  0.68013034104E+01  0.93827495014E+02  0.19288769661E+03  0.21460782850E+03  0.10000000000E+01 0.  0.
    9000005    1    3    3    0    0 -0.16182985962E+02 -0.11222324820E+02 -0.99064878348E+01  0.22067353947E+02  0.10000000000E+01 0.  0.
         -4    1    1    2    0  502  0.93816825514E+01 -0.82605170194E+02  0.47809122192E+03  0.48526741029E+03  0.12700000000E+01 0. -1.
<mgrwt>
<rscale>  1 0.15011002E+03</rscale>
<asrwt>0</asrwt>
<pdfrwt beam="1">  1       21 0.10638372E+00 0.15011002E+03</pdfrwt>
<pdfrwt beam="2">  1       -4 0.46824104E-02 0.15011002E+03</pdfrwt>
<totfact> 0.78396892E+03</totfact>
</mgrwt>
</event>
<event>
 6    4  0.3189516E-003  0.1303795E+03  0.7818608E-02  0.1226894E+00
         21   -1    0    0  501  502  0.00000000000E+00  0.00000000000E+00  0.11276230350E+03  0.11276230350E+03  0.00000000000E+00 0. -1.
          4   -1    0    0  502    0 -0.00000000000E+00 -0.00000000000E+00 -0.62839260801E+02  0.62852093028E+02  0.12700000000E+01 0. -1.
         25    2    1    2    0    0 -0.96870396427E+01 -0.35789369451E+02  0.31209159648E+02  0.13406274167E+03  0.12499635737E+03 0.  0.
    9000005    1    3    3    0    0  0.54819477949E+02 -0.22039640286E+02 -0.41169958318E+01  0.59235720315E+02  0.10000000000E+01 0.  0.
    9000005    1    3    3    0    0 -0.64506517592E+02 -0.13749729165E+02  0.35326155480E+02  0.74827021355E+02  0.10000000000E+01 0.  0.
          4    1    1    2  501    0  0.96870396427E+01  0.35789369451E+02  0.18713883054E+02  0.41551654861E+02  0.12700000000E+01 0.  1.
<mgrwt>
<rscale>  1 0.13037947E+03</rscale>
<asrwt>0</asrwt>
<pdfrwt beam="1">  1       21 0.17348047E-01 0.13037947E+03</pdfrwt>
<pdfrwt beam="2">  1        4 0.96691159E-02 0.13037947E+03</pdfrwt>
<totfact> 0.96905542E+04</totfact>
</mgrwt>
</event>
<event>
 6    4  0.3189516E-003  0.1281888E+03  0.7818608E-02  0.1230168E+00
         21   -1    0    0  501  502  0.00000000000E+00  0.00000000000E+00  0.94975593795E+01  0.94975593795E+01  0.00000000000E+00 0. -1.
         -4   -1    0    0    0  501 -0.00000000000E+00 -0.00000000000E+00 -0.73636039554E+03  0.73636149073E+03  0.12700000000E+01 0.  1.
         25    2    1    2    0    0 -0.23632739238E+02  0.15731575220E+02 -0.67152568516E+03  0.68365131744E+03  0.12500555659E+03 0.  0.
    9000005    1    3    3    0    0 -0.30678725166E+02 -0.32225803331E+02 -0.56338211285E+03  0.56513723259E+03  0.10000000000E+01 0.  0.
    9000005    1    3    3    0    0  0.70459859271E+01  0.47957378551E+02 -0.10814357231E+03  0.11851408485E+03  0.10000000000E+01 0.  0.
         -4    1    1    2    0  502  0.23632739238E+02 -0.15731575220E+02 -0.55337151005E+02  0.62207732672E+02  0.12700000000E+01 0. -1.
<mgrwt>
<rscale>  1 0.12818884E+03</rscale>
<asrwt>0</asrwt>
<pdfrwt beam="1">  1       21 0.14611633E-02 0.12818884E+03</pdfrwt>
<pdfrwt beam="2">  1       -4 0.11329280E+00 0.12818884E+03</pdfrwt>
<totfact> 0.52191725E+04</totfact>
</mgrwt>
</event>
<event>
 6    4  0.3189516E-003  0.1280697E+03  0.7818608E-02  0.1230348E+00
          4   -1    0    0  502    0 -0.00000000000E+00  0.00000000000E+00  0.58168320634E+02  0.58182183057E+02  0.12700000000E+01 0. -1.
         21   -1    0    0  501  502  0.00000000000E+00 -0.00000000000E+00 -0.16465532223E+03  0.16465532223E+03  0.00000000000E+00 0.  1.
         25    2    1    2    0    0  0.27750595013E+02  0.25266237892E+01 -0.17108589922E+02  0.12920742078E+03  0.12500149753E+03 0.  0.
    9000005    1    3    3    0    0  0.61723998545E+02  0.38654980679E+02 -0.28669348136E+02  0.78275098532E+02  0.10000000000E+01 0.  0.
    9000005    1    3    3    0    0 -0.33973403532E+02 -0.36128356890E+02  0.11560758214E+02  0.50932322248E+02  0.10000000000E+01 0.  0.
          4    1    1    2  501    0 -0.27750595013E+02 -0.25266237892E+01 -0.89378411670E+02  0.93630084503E+02  0.12700000000E+01 0.  1.
<mgrwt>
<rscale>  1 0.12806972E+03</rscale>
<asrwt>0</asrwt>
<pdfrwt beam="2">  1       21 0.25331588E-01 0.12806972E+03</pdfrwt>
<pdfrwt beam="1">  1        4 0.89504157E-02 0.12806972E+03</pdfrwt>
<totfact> 0.54459701E+04</totfact>
</mgrwt>
</event>
<event>
 6    4  0.3189516E-003  0.1268045E+03  0.7818608E-02  0.1232276E+00
         21   -1    0    0  501  502  0.00000000000E+00  0.00000000000E+00  0.29088961198E+02  0.29088961198E+02  0.00000000000E+00 0. -1.
          4   -1    0    0  502    0 -0.00000000000E+00 -0.00000000000E+00 -0.30208319205E+03  0.30208586167E+03  0.12700000000E+01 0.  1.
         25    2    1    2    0    0 -0.18607004571E+02 -0.10454930328E+02 -0.28104602742E+03  0.30832814882E+03  0.12499540645E+03 0.  0.
    9000005    1    3    3    0    0  0.48981819870E+02 -0.18530005517E+01 -0.62675961735E+02  0.79573415587E+02  0.10000000000E+01 0.  0.
    9000005    1    3    3    0    0 -0.67588824442E+02 -0.86019297763E+01 -0.21837006569E+03  0.22875473323E+03  0.10000000000E+01 0.  0.
          4    1    1    2  501    0  0.18607004571E+02  0.10454930328E+02  0.80517965682E+01  0.22846674053E+02  0.12700000000E+01 0. -1.
<mgrwt>
<rscale>  1 0.12680449E+03</rscale>
<asrwt>0</asrwt>
<pdfrwt beam="1">  1       21 0.44752248E-02 0.12680449E+03</pdfrwt>
<pdfrwt beam="2">  1        4 0.46476675E-01 0.12680449E+03</pdfrwt>
<totfact> 0.58405925E+04</totfact>
</mgrwt>
</event>
<event>
 6    4  0.3189516E-003  0.1270557E+03  0.7818608E-02  0.1231891E+00
         21   -1    0    0  501  502  0.00000000000E+00  0.00000000000E+00  0.73646797592E+02  0.73646797592E+02  0.00000000000E+00 0.  1.
          4   -1    0    0  502    0 -0.00000000000E+00 -0.00000000000E+00 -0.76246434116E+02  0.76257010270E+02  0.12700000000E+01 0.  1.
         25    2    1    2    0    0 -0.22743607907E+02  0.88721881600E+00 -0.11407166030E+01  0.12706086135E+03  0.12500040958E+03 0.  0.
    9000005    1    3    3    0    0  0.42482653809E+01 -0.59970153604E+02 -0.52129905643E+01  0.60354306828E+02  0.10000000000E+01 0.  0.
    9000005    1    3    3    0    0 -0.26991873288E+02  0.60857372420E+02  0.40722739613E+01  0.66706554526E+02  0.10000000000E+01 0.  0.
          4    1    1    2  501    0  0.22743607907E+02 -0.88721881600E+00 -0.14589199209E+01  0.22842946508E+02  0.12700000000E+01 0. -1.
<mgrwt>
<rscale>  1 0.12705574E+03</rscale>
<asrwt>0</asrwt>
<pdfrwt beam="1">  1       21 0.11330277E-01 0.12705574E+03</pdfrwt>
<pdfrwt beam="2">  1        4 0.11731876E-01 0.12705574E+03</pdfrwt>
<totfact> 0.14943375E+05</totfact>
</mgrwt>
</event>
<event>
 6    4  0.3189516E-003  0.1269713E+03  0.7818608E-02  0.1232020E+00
         21   -1    0    0  501  502  0.00000000000E+00  0.00000000000E+00  0.74213823522E+03  0.74213823522E+03  0.00000000000E+00 0.  1.
         -4   -1    0    0    0  501 -0.00000000000E+00 -0.00000000000E+00 -0.18921537737E+02  0.18964110586E+02  0.12700000000E+01 0. -1.
         25    2    1    2    0    0  0.21340292949E+02  0.64311652920E+01  0.19675226527E+03  0.23416479801E+03  0.12499972300E+03 0.  0.
    9000005    1    3    3    0    0 -0.99596291604E+01 -0.21356046509E+02 -0.82074916135E+01  0.24972742222E+02  0.10000000000E+01 0.  0.
    9000005    1    3    3    0    0  0.31299922109E+02  0.27787211801E+02  0.20495975688E+03  0.20919205579E+03  0.10000000000E+01 0.  0.
         -4    1    1    2    0  502 -0.21340292949E+02 -0.64311652920E+01  0.52646443221E+03  0.52693754779E+03  0.12700000000E+01 0.  1.
<mgrwt>
<rscale>  1 0.12697125E+03</rscale>
<asrwt>0</asrwt>
<pdfrwt beam="1">  1       21 0.11417509E+00 0.12697125E+03</pdfrwt>
<pdfrwt beam="2">  1       -4 0.29143648E-02 0.12697125E+03</pdfrwt>
<totfact> 0.13885924E+04</totfact>
</mgrwt>
</event>
<event>
 6    4  0.3189516E-003  0.1335105E+03  0.7818608E-02  0.1222338E+00
         21   -1    0    0  501  502  0.00000000000E+00  0.00000000000E+00  0.51899086798E+03  0.51899086798E+03  0.00000000000E+00 0.  1.
         -4   -1    0    0    0  501 -0.00000000000E+00 -0.00000000000E+00 -0.23657666527E+02  0.23691730319E+02  0.12700000000E+01 0. -1.
         25    2    1    2    0    0  0.78340143502E+01  0.46259599229E+02  0.18126539580E+03  0.22512705710E+03  0.12499490318E+03 0.  0.
    9000005    1    3    3    0    0  0.31236534378E+01 -0.28364109669E+02  0.13321585508E+03  0.13624149138E+03  0.10000000000E+01 0.  0.
    9000005    1    3    3    0    0  0.47103609124E+01  0.74623708898E+02  0.48049540723E+02  0.88885565720E+02  0.10000000000E+01 0.  0.
         -4    1    1    2    0  502 -0.78340143502E+01 -0.46259599229E+02  0.31406780565E+03  0.31755554120E+03  0.12700000000E+01 0.  1.
<mgrwt>
<rscale>  1 0.13351048E+03</rscale>
<asrwt>0</asrwt>
<pdfrwt beam="1">  1       21 0.79844740E-01 0.13351048E+03</pdfrwt>
<pdfrwt beam="2">  1       -4 0.36423812E-02 0.13351048E+03</pdfrwt>
<totfact> 0.22504101E+04</totfact>
</mgrwt>
</event>
<event>
 6    4  0.3189516E-003  0.1288462E+03  0.7818608E-02  0.1229178E+00
         -4   -1    0    0    0  501 -0.00000000000E+00  0.00000000000E+00  0.61685183746E+03  0.61685314482E+03  0.12700000000E+01 0.  1.
         21   -1    0    0  501  502  0.00000000000E+00 -0.00000000000E+00 -0.11284489944E+02  0.11284489944E+02  0.00000000000E+00 0. -1.
         25    2    1    2    0    0  0.82769956357E+01  0.30115409359E+02  0.54448014049E+03  0.55951762092E+03  0.12500359274E+03 0.  0.
    9000005    1    3    3    0    0  0.34390828152E+02 -0.39669210502E+02  0.18025407033E+03  0.18774691793E+03  0.10000000000E+01 0.  0.
    9000005    1    3    3    0    0 -0.26113832516E+02  0.69784619861E+02  0.36422607016E+03  0.37177070299E+03  0.10000000000E+01 0.  0.
         -4    1    1    2    0  502 -0.82769956357E+01 -0.30115409359E+02  0.61087207027E+02  0.68620013844E+02  0.12700000000E+01 0. -1.
<mgrwt>
<rscale>  1 0.12884621E+03</rscale>
<asrwt>0</asrwt>
<pdfrwt beam="2">  1       21 0.17360759E-02 0.12884621E+03</pdfrwt>
<pdfrwt beam="1">  1       -4 0.94905854E-01 0.12884621E+03</pdfrwt>
<totfact> 0.59846178E+04</totfact>
</mgrwt>
</event>
<event>
 6    4  0.3189516E-003  0.1288641E+03  0.7818608E-02  0.1229151E+00
          4   -1    0    0  502    0 -0.00000000000E+00  0.00000000000E+00  0.81033990389E+02  0.81043941775E+02  0.12700000000E+01 0. -1.
         21   -1    0    0  501  502  0.00000000000E+00 -0.00000000000E+00 -0.79516802293E+02  0.79516802293E+02  0.00000000000E+00 0. -1.
         25    2    1    2    0    0 -0.87611534666E+01 -0.30077276794E+02 -0.29084931751E+01  0.12889688543E+03  0.12499818939E+03 0.  0.
    9000005    1    3    3    0    0  0.32292051257E+02 -0.52648227209E+02 -0.36032677355E+02  0.71512000671E+02  0.10000000000E+01 0.  0.
    9000005    1    3    3    0    0 -0.41053204723E+02  0.22570950415E+02  0.33124184180E+02  0.57384884754E+02  0.10000000000E+01 0.  0.
          4    1    1    2  501    0  0.87611534666E+01  0.30077276794E+02  0.44256812714E+01  0.31663858643E+02  0.12700000000E+01 0.  1.
<mgrwt>
<rscale>  1 0.12886407E+03</rscale>
<asrwt>0</asrwt>
<pdfrwt beam="2">  1       21 0.12233354E-01 0.12886407E+03</pdfrwt>
<pdfrwt beam="1">  1        4 0.12468313E-01 0.12886407E+03</pdfrwt>
<totfact> 0.11782897E+05</totfact>
</mgrwt>
</event>
<event>
 6    4  0.3189516E-003  0.1323066E+03  0.7818608E-02  0.1224073E+00
         21   -1    0    0  501  502  0.00000000000E+00  0.00000000000E+00  0.59790548050E+02  0.59790548050E+02  0.00000000000E+00 0. -1.
          4   -1    0    0  502    0 -0.00000000000E+00 -0.00000000000E+00 -0.12934382753E+03  0.12935006232E+03  0.12700000000E+01 0. -1.
         25    2    1    2    0    0  0.16483322269E+02 -0.40157754219E+02 -0.55744304865E+02  0.14357038086E+03  0.12498272520E+03 0.  0.
    9000005    1    3    3    0    0  0.12074104683E+02 -0.32333248755E+02 -0.96152402313E+02  0.10216412017E+03  0.10000000000E+01 0.  0.
    9000005    1    3    3    0    0  0.44092175852E+01 -0.78245054639E+01  0.40408097448E+02  0.41406260696E+02  0.10000000000E+01 0.  0.
          4    1    1    2  501    0 -0.16483322269E+02  0.40157754219E+02 -0.13808974619E+02  0.45570229503E+02  0.12700000000E+01 0.  1.
<mgrwt>
<rscale>  1 0.13230656E+03</rscale>
<asrwt>0</asrwt>
<pdfrwt beam="1">  1       21 0.91985460E-02 0.13230656E+03</pdfrwt>
<pdfrwt beam="2">  1        4 0.19900567E-01 0.13230656E+03</pdfrwt>
<totfact> 0.85965738E+04</totfact>
</mgrwt>
</event>
<event>
 6    4  0.3189516E-003  0.1270482E+03  0.7818608E-02  0.1231903E+00
         21   -1    0    0  501  502  0.00000000000E+00  0.00000000000E+00  0.23260325261E+02  0.23260325261E+02  0.00000000000E+00 0. -1.
         -4   -1    0    0    0  501 -0.00000000000E+00 -0.00000000000E+00 -0.25343623086E+03  0.25343941290E+03  0.12700000000E+01 0. -1.
         25    2    1    2    0    0 -0.14359279828E+01  0.22683107180E+02 -0.21364481791E+03  0.24856657267E+03  0.12499859035E+03 0.  0.
    9000005    1    3    3    0    0 -0.28110878030E+02  0.37739087252E+02 -0.21276270942E+03  0.21790693126E+03  0.10000000000E+01 0.  0.
    9000005    1    3    3    0    0  0.26674950047E+02 -0.15055980072E+02 -0.88210848486E+00  0.30659641409E+02  0.10000000000E+01 0.  0.
         -4    1    1    2    0  502  0.14359279828E+01 -0.22683107180E+02 -0.16531087690E+02  0.28133165494E+02  0.12700000000E+01 0.  1.
<mgrwt>
<rscale>  1 0.12704815E+03</rscale>
<asrwt>0</asrwt>
<pdfrwt beam="1">  1       21 0.35785118E-02 0.12704815E+03</pdfrwt>
<pdfrwt beam="2">  1       -4 0.38993098E-01 0.12704815E+03</pdfrwt>
<totfact> 0.11997648E+05</totfact>
</mgrwt>
</event>
<event>
 6    4  0.3189516E-003  0.1486916E+03  0.7818608E-02  0.1202090E+00
         21   -1    0    0  501  502  0.00000000000E+00  0.00000000000E+00  0.19688984771E+03  0.19688984771E+03  0.00000000000E+00 0. -1.
          4   -1    0    0  502    0 -0.00000000000E+00 -0.00000000000E+00 -0.67074765683E+02  0.67086787756E+02  0.12700000000E+01 0.  1.
         25    2    1    2    0    0  0.68092778179E+02 -0.42984249827E+02  0.93390763628E+02  0.17558763138E+03  0.12499963755E+03 0.  0.
    9000005    1    3    3    0    0 -0.27382266394E+02  0.17512846955E+02  0.68565894733E+01  0.33234035875E+02  0.10000000000E+01 0.  0.
    9000005    1    3    3    0    0  0.95475044573E+02 -0.60497096782E+02  0.86534174155E+02  0.14235359550E+03  0.10000000000E+01 0.  0.
          4    1    1    2  501    0 -0.68092778179E+02  0.42984249827E+02  0.36424318399E+02  0.88389004090E+02  0.12700000000E+01 0. -1.
<mgrwt>
<rscale>  1 0.14869157E+03</rscale>
<asrwt>0</asrwt>
<pdfrwt beam="1">  1       21 0.30290746E-01 0.14869157E+03</pdfrwt>
<pdfrwt beam="2">  1        4 0.10320435E-01 0.14869157E+03</pdfrwt>
<totfact> 0.30935622E+04</totfact>
</mgrwt>
</event>
<event>
 6    4  0.3189516E-003  0.1284051E+03  0.7818608E-02  0.1229842E+00
         21   -1    0    0  501  502  0.00000000000E+00  0.00000000000E+00  0.96929943722E+03  0.96929943722E+03  0.00000000000E+00 0. -1.
         -4   -1    0    0    0  501 -0.00000000000E+00 -0.00000000000E+00 -0.66472026725E+01  0.67674369867E+01  0.12700000000E+01 0. -1.
         25    2    1    2    0    0  0.93922411123E+01 -0.27835959840E+02  0.84981385557E+03  0.85945998109E+03  0.12499926045E+03 0.  0.
    9000005    1    3    3    0    0 -0.19787783248E+02 -0.84555734987E+01  0.78883184436E+03  0.78912592896E+03  0.10000000000E+01 0.  0.
    9000005    1    3    3    0    0  0.29180024360E+02 -0.19380386341E+02  0.60982011216E+02  0.70334052125E+02  0.10000000000E+01 0.  0.
         -4    1    1    2    0  502 -0.93922411123E+01  0.27835959840E+02  0.11283837897E+03  0.11660689312E+03  0.12700000000E+01 0.  1.
<mgrwt>
<rscale>  1 0.12840510E+03</rscale>
<asrwt>0</asrwt>
<pdfrwt beam="1">  1       21 0.14912288E+00 0.12840510E+03</pdfrwt>
<pdfrwt beam="2">  1       -4 0.10319601E-02 0.12840510E+03</pdfrwt>
<totfact> 0.35029016E+04</totfact>
</mgrwt>
</event>
<event>
 6    4  0.3189516E-003  0.1293437E+03  0.7818608E-02  0.1228433E+00
         21   -1    0    0  501  502  0.00000000000E+00  0.00000000000E+00  0.54765774007E+02  0.54765774007E+02  0.00000000000E+00 0.  1.
         -4   -1    0    0    0  501 -0.00000000000E+00 -0.00000000000E+00 -0.23282382945E+03  0.23282729321E+03  0.12700000000E+01 0. -1.
         25    2    1    2    0    0 -0.19895299249E+02 -0.26620158276E+02 -0.20661239666E+03  0.24375907286E+03  0.12500138955E+03 0.  0.
    9000005    1    3    3    0    0 -0.50722146209E+02 -0.38701070292E+02 -0.20006428738E+03  0.20999340000E+03  0.10000000000E+01 0.  0.
    9000005    1    3    3    0    0  0.30826846960E+02  0.12080912017E+02 -0.65481092808E+01  0.33765672862E+02  0.10000000000E+01 0.  0.
         -4    1    1    2    0  502  0.19895299249E+02  0.26620158276E+02  0.28554341214E+02  0.43833994353E+02  0.12700000000E+01 0.  1.
<mgrwt>
<rscale>  1 0.12934374E+03</rscale>
<asrwt>0</asrwt>
<pdfrwt beam="1">  1       21 0.84255036E-02 0.12934374E+03</pdfrwt>
<pdfrwt beam="2">  1       -4 0.35820450E-01 0.12934374E+03</pdfrwt>
<totfact> 0.33412129E+04</totfact>
</mgrwt>
</event>
<event>
 6    4  0.3189516E-003  0.1275783E+03  0.7818608E-02  0.1231094E+00
         -4   -1    0    0    0  501 -0.00000000000E+00  0.00000000000E+00  0.30911096302E+02  0.30937174638E+02  0.12700000000E+01 0.  1.
         21   -1    0    0  501  502  0.00000000000E+00 -0.00000000000E+00 -0.33449523052E+03  0.33449523052E+03  0.00000000000E+00 0. -1.
         25    2    1    2    0    0 -0.14788134875E+02 -0.20781950781E+02 -0.10505018662E+03  0.16526267803E+03  0.12500253049E+03 0.  0.
    9000005    1    3    3    0    0  0.26332564284E+02 -0.11165092092E+01  0.19388551793E+02  0.32734789983E+02  0.10000000000E+01 0.  0.
    9000005    1    3    3    0    0 -0.41120699159E+02 -0.19665441572E+02 -0.12443873842E+03  0.13252788805E+03  0.10000000000E+01 0.  0.
         -4    1    1    2    0  502  0.14788134875E+02  0.20781950781E+02 -0.19853394759E+03  0.20016972713E+03  0.12700000000E+01 0. -1.
<mgrwt>
<rscale>  1 0.12757825E+03</rscale>
<asrwt>0</asrwt>
<pdfrwt beam="2">  1       21 0.51460806E-01 0.12757825E+03</pdfrwt>
<pdfrwt beam="1">  1       -4 0.47577446E-02 0.12757825E+03</pdfrwt>
<totfact> 0.37668803E+04</totfact>
</mgrwt>
</event>
<event>
 6    4  0.3189516E-003  0.1271390E+03  0.7818608E-02  0.1231764E+00
          4   -1    0    0  502    0 -0.00000000000E+00  0.00000000000E+00  0.48539761869E+01  0.50173683165E+01  0.12700000000E+01 0. -1.
         21   -1    0    0  501  502  0.00000000000E+00 -0.00000000000E+00 -0.12583196213E+04  0.12583196213E+04  0.00000000000E+00 0. -1.
         25    2    1    2    0    0  0.74263926297E+01  0.21991216118E+02 -0.11631433095E+04  0.11700712290E+04  0.12500223035E+03 0.  0.
    9000005    1    3    3    0    0  0.21852537839E+02  0.44608981524E+02 -0.11040339683E+04  0.11051513461E+04  0.10000000000E+01 0.  0.
    9000005    1    3    3    0    0 -0.14426145210E+02 -0.22617765406E+02 -0.59109341244E+02  0.64919882932E+02  0.10000000000E+01 0.  0.
          4    1    1    2  501    0 -0.74263926297E+01 -0.21991216118E+02 -0.90322335632E+02  0.93265760640E+02  0.12700000000E+01 0.  1.
<mgrwt>
<rscale>  1 0.12713899E+03</rscale>
<asrwt>0</asrwt>
<pdfrwt beam="2">  1       21 0.19358801E+00 0.12713899E+03</pdfrwt>
<pdfrwt beam="1">  1        4 0.75938200E-03 0.12713899E+03</pdfrwt>
<totfact> 0.27344626E+04</totfact>
</mgrwt>
</event>
<event>
 6    4  0.3189516E-003  0.1308290E+03  0.7818608E-02  0.1226231E+00
         21   -1    0    0  501  502  0.00000000000E+00  0.00000000000E+00  0.14540758811E+03  0.14540758811E+03  0.00000000000E+00 0.  1.
          4   -1    0    0  502    0 -0.00000000000E+00 -0.00000000000E+00 -0.13671395212E+03  0.13671985080E+03  0.12700000000E+01 0. -1.
         25    2    1    2    0    0 -0.11311787622E+02 -0.36921421266E+02 -0.10135317843E+03  0.16549527288E+03  0.12500028272E+03 0.  0.
    9000005    1    3    3    0    0  0.44367915405E+02 -0.49414524193E+02 -0.81347490676E+02  0.10501771926E+03  0.10000000000E+01 0.  0.
    9000005    1    3    3    0    0 -0.55679703027E+02  0.12493102927E+02 -0.20005687757E+02  0.60477553626E+02  0.10000000000E+01 0.  0.
          4    1    1    2  501    0  0.11311787622E+02  0.36921421266E+02  0.11004681443E+03  0.11663216603E+03  0.12700000000E+01 0.  1.
<mgrwt>
<rscale>  1 0.13082897E+03</rscale>
<asrwt>0</asrwt>
<pdfrwt beam="1">  1       21 0.22370398E-01 0.13082897E+03</pdfrwt>
<pdfrwt beam="2">  1        4 0.21033796E-01 0.13082897E+03</pdfrwt>
<totfact> 0.15695318E+04</totfact>
</mgrwt>
</event>
<event>
 6    4  0.3189516E-003  0.1280021E+03  0.7818608E-02  0.1230451E+00
         21   -1    0    0  501  502  0.00000000000E+00  0.00000000000E+00  0.45696865337E+02  0.45696865337E+02  0.00000000000E+00 0.  1.
          4   -1    0    0  502    0 -0.00000000000E+00 -0.00000000000E+00 -0.15703595052E+03  0.15704108588E+03  0.12700000000E+01 0.  1.
         25    2    1    2    0    0 -0.16475507066E+02 -0.22089164385E+02 -0.11828948449E+03  0.17428984993E+03  0.12500070453E+03 0.  0.
    9000005    1    3    3    0    0  0.53274054097E+02 -0.90345948045E+01 -0.70070030124E+02  0.88490439398E+02  0.10000000000E+01 0.  0.
    9000005    1    3    3    0    0 -0.69749561163E+02 -0.13054569580E+02 -0.48219454364E+02  0.85799410537E+02  0.10000000000E+01 0.  0.
          4    1    1    2  501    0  0.16475507066E+02  0.22089164385E+02  0.69503993057E+01  0.28448101286E+02  0.12700000000E+01 0. -1.
<mgrwt>
<rscale>  1 0.12800215E+03</rscale>
<asrwt>0</asrwt>
<pdfrwt beam="1">  1       21 0.70302870E-02 0.12800215E+03</pdfrwt>
<pdfrwt beam="2">  1        4 0.24161129E-01 0.12800215E+03</pdfrwt>
<totfact> 0.95645549E+04</totfact>
</mgrwt>
</event>
<event>
 6    4  0.3189516E-003  0.1369782E+03  0.7818608E-02  0.1217454E+00
         -4   -1    0    0    0  501 -0.00000000000E+00  0.00000000000E+00  0.19967881201E+03  0.19968285071E+03  0.12700000000E+01 0.  1.
         21   -1    0    0  501  502  0.00000000000E+00 -0.00000000000E+00 -0.49027589363E+02  0.49027589363E+02  0.00000000000E+00 0.  1.
         25    2    1    2    0    0 -0.29800308636E+02 -0.47433473247E+02  0.80328694078E+02  0.15879456993E+03  0.12500009427E+03 0.  0.
    9000005    1    3    3    0    0  0.45720288472E+02 -0.10855401719E+02  0.73321502967E+01  0.47570420982E+02  0.10000000000E+01 0.  0.
    9000005    1    3    3    0    0 -0.75520597108E+02 -0.36578071527E+02  0.72996543781E+02  0.11122414894E+03  0.10000000000E+01 0.  0.
         -4    1    1    2    0  502  0.29800308636E+02  0.47433473247E+02  0.70322528570E+02  0.89915870142E+02  0.12700000000E+01 0. -1.
<mgrwt>
<rscale>  1 0.13697816E+03</rscale>
<asrwt>0</asrwt>
<pdfrwt beam="2">  1       21 0.75427062E-02 0.13697816E+03</pdfrwt>
<pdfrwt beam="1">  1       -4 0.30721393E-01 0.13697816E+03</pdfrwt>
<totfact> 0.54646089E+04</totfact>
</mgrwt>
</event>
<event>
 6    4  0.3189516E-003  0.1271052E+03  0.7818608E-02  0.1231815E+00
         21   -1    0    0  501  502  0.00000000000E+00  0.00000000000E+00  0.65304315922E+03  0.65304315922E+03  0.00000000000E+00 0. -1.
         -4   -1    0    0    0  501 -0.00000000000E+00 -0.00000000000E+00 -0.12523439622E+02  0.12587670156E+02  0.12700000000E+01 0. -1.
         25    2    1    2    0    0  0.40763967014E+01  0.22677306923E+02  0.32055527713E+03  0.34483535777E+03  0.12499944405E+03 0.  0.
    9000005    1    3    3    0    0  0.12817419948E+02 -0.42071665734E+02  0.50441745333E+02  0.66930418974E+02  0.10000000000E+01 0.  0.
    9000005    1    3    3    0    0 -0.87410232462E+01  0.64748972657E+02  0.27011353180E+03  0.27790493880E+03  0.10000000000E+01 0.  0.
         -4    1    1    2    0  502 -0.40763967014E+01 -0.22677306923E+02  0.31996444246E+03  0.32079547160E+03  0.12700000000E+01 0.  1.
<mgrwt>
<rscale>  1 0.12710523E+03</rscale>
<asrwt>0</asrwt>
<pdfrwt beam="1">  1       21 0.10046815E+00 0.12710523E+03</pdfrwt>
<pdfrwt beam="2">  1       -4 0.19317193E-02 0.12710523E+03</pdfrwt>
<totfact> 0.35581539E+04</totfact>
</mgrwt>
</event>
<event>
 6    4  0.3189516E-003  0.1318242E+03  0.7818608E-02  0.1224774E+00
          4   -1    0    0  502    0 -0.00000000000E+00  0.00000000000E+00  0.30922158229E+02  0.30948227244E+02  0.12700000000E+01 0.  1.
         21   -1    0    0  501  502  0.00000000000E+00 -0.00000000000E+00 -0.36575687759E+03  0.36575687759E+03  0.00000000000E+00 0.  1.
         25    2    1    2    0    0  0.22713298239E+01 -0.41796970660E+02 -0.12142441062E+03  0.17922471842E+03  0.12500186600E+03 0.  0.
    9000005    1    3    3    0    0 -0.54271986996E+02  0.98986709125E+01 -0.52662312424E+02  0.76274185726E+02  0.10000000000E+01 0.  0.
    9000005    1    3    3    0    0  0.56543316820E+02 -0.51695641573E+02 -0.68762098192E+02  0.10295053270E+03  0.10000000000E+01 0.  0.
          4    1    1    2  501    0 -0.22713298239E+01  0.41796970660E+02 -0.21341030874E+03  0.21748038641E+03  0.12700000000E+01 0. -1.
<mgrwt>
<rscale>  1 0.13182417E+03</rscale>
<asrwt>0</asrwt>
<pdfrwt beam="2">  1       21 0.56270294E-01 0.13182417E+03</pdfrwt>
<pdfrwt beam="1">  1        4 0.47594296E-02 0.13182417E+03</pdfrwt>
<totfact> 0.31349269E+04</totfact>
</mgrwt>
</event>
<event>
 6    4  0.3189516E-003  0.1272295E+03  0.7818608E-02  0.1231626E+00
          4   -1    0    0  502    0 -0.00000000000E+00  0.00000000000E+00  0.52234553670E+02  0.52249990403E+02  0.12700000000E+01 0.  1.
         21   -1    0    0  501  502  0.00000000000E+00 -0.00000000000E+00 -0.11878201681E+03  0.11878201681E+03  0.00000000000E+00 0.  1.
         25    2    1    2    0    0 -0.69935365965E+01  0.22957618824E+02 -0.36118200779E+02  0.13225682541E+03  0.12494551462E+03 0.  0.
    9000005    1    3    3    0    0 -0.55117687147E+02  0.47818801773E+02 -0.23001886801E+02  0.76515907078E+02  0.10000000000E+01 0.  0.
    9000005    1    3    3    0    0  0.48124150550E+02 -0.24861182949E+02 -0.13116313977E+02  0.55740918329E+02  0.10000000000E+01 0.  0.
          4    1    1    2  501    0  0.69935365965E+01 -0.22957618824E+02 -0.30429262362E+02  0.38775181806E+02  0.12700000000E+01 0. -1.
<mgrwt>
<rscale>  1 0.12722949E+03</rscale>
<asrwt>0</asrwt>
<pdfrwt beam="2">  1       21 0.18274156E-01 0.12722949E+03</pdfrwt>
<pdfrwt beam="1">  1        4 0.80377950E-02 0.12722949E+03</pdfrwt>
<totfact> 0.11948702E+05</totfact>
</mgrwt>
</event>
<event>
 6    4  0.3189516E-003  0.1281282E+03  0.7818608E-02  0.1230260E+00
         21   -1    0    0  501  502  0.00000000000E+00  0.00000000000E+00  0.11251567530E+03  0.11251567530E+03  0.00000000000E+00 0. -1.
          4   -1    0    0  502    0 -0.00000000000E+00 -0.00000000000E+00 -0.87504596351E+02  0.87513811953E+02  0.12700000000E+01 0.  1.
         25    2    1    2    0    0 -0.19834989319E+02 -0.19960534473E+02 -0.35779261580E+02  0.13303002353E+03  0.12499992745E+03 0.  0.
    9000005    1    3    3    0    0  0.17475756634E+02  0.42405897541E+02 -0.39091326381E+02  0.60272663907E+02  0.10000000000E+01 0.  0.
    9000005    1    3    3    0    0 -0.37310745953E+02 -0.62366432014E+02  0.33120648010E+01  0.72757359621E+02  0.10000000000E+01 0.  0.
          4    1    1    2  501    0  0.19834989319E+02  0.19960534473E+02  0.60790340526E+02  0.66999463722E+02  0.12700000000E+01 0. -1.
<mgrwt>
<rscale>  1 0.12812818E+03</rscale>
<asrwt>0</asrwt>
<pdfrwt beam="1">  1       21 0.17310104E-01 0.12812818E+03</pdfrwt>
<pdfrwt beam="2">  1        4 0.13463506E-01 0.12812818E+03</pdfrwt>
<totfact> 0.55261283E+04</totfact>
</mgrwt>
</event>
<event>
 6    4  0.3189516E-003  0.1267802E+03  0.7818608E-02  0.1232313E+00
         -4   -1    0    0    0  501 -0.00000000000E+00  0.00000000000E+00  0.10135862942E+02  0.10215117110E+02  0.12700000000E+01 0.  1.
         21   -1    0    0  501  502  0.00000000000E+00 -0.00000000000E+00 -0.74723773144E+03  0.74723773144E+03  0.00000000000E+00 0.  1.
         25    2    1    2    0    0 -0.16724060340E+02  0.13021520809E+02 -0.39839554143E+03  0.41808160184E+03  0.12499585660E+03 0.  0.
    9000005    1    3    3    0    0 -0.11320433981E+02 -0.89469768038E+01  0.40337096783E+01  0.15015706218E+02  0.10000000000E+01 0.  0.
    9000005    1    3    3    0    0 -0.54036263594E+01  0.21968497612E+02 -0.40242925111E+03  0.40306589562E+03  0.10000000000E+01 0.  0.
         -4    1    1    2    0  502  0.16724060340E+02 -0.13021520809E+02 -0.33870632707E+03  0.33937124671E+03  0.12700000000E+01 0. -1.
<mgrwt>
<rscale>  1 0.12678020E+03</rscale>
<asrwt>0</asrwt>
<pdfrwt beam="2">  1       21 0.11495963E+00 0.12678020E+03</pdfrwt>
<pdfrwt beam="1">  1       -4 0.15655433E-02 0.12678020E+03</pdfrwt>
<totfact> 0.35620237E+04</totfact>
</mgrwt>
</event>
<event>
 6    4  0.3189516E-003  0.1333213E+03  0.7818608E-02  0.1222609E+00
         21   -1    0    0  501  502  0.00000000000E+00  0.00000000000E+00  0.24974777949E+03  0.24974777949E+03  0.00000000000E+00 0. -1.
         -4   -1    0    0    0  501 -0.00000000000E+00 -0.00000000000E+00 -0.32309583415E+02  0.32334533868E+02  0.12700000000E+01 0.  1.
         25    2    1    2    0    0  0.16274779674E+02 -0.43406264412E+02  0.16082321749E+03  0.20889870218E+03  0.12500235297E+03 0.  0.
    9000005    1    3    3    0    0  0.47880865645E+02 -0.14891696934E+02  0.86664151997E+01  0.50896430964E+02  0.10000000000E+01 0.  0.
    9000005    1    3    3    0    0 -0.31606085971E+02 -0.28514567478E+02  0.15215680229E+03  0.15800227122E+03  0.10000000000E+01 0.  0.
         -4    1    1    2    0  502 -0.16274779674E+02  0.43406264412E+02  0.56614978588E+02  0.73183611172E+02  0.12700000000E+01 0. -1.
<mgrwt>
<rscale>  1 0.13332127E+03</rscale>
<asrwt>0</asrwt>
<pdfrwt beam="1">  1       21 0.38422734E-01 0.13332127E+03</pdfrwt>
<pdfrwt beam="2">  1       -4 0.49728730E-02 0.13332127E+03</pdfrwt>
<totfact> 0.63803878E+04</totfact>
</mgrwt>
</event>
<event>
 6    4  0.3189516E-003  0.1761176E+03  0.7818608E-02  0.1171614E+00
         21   -1    0    0  501  502  0.00000000000E+00  0.00000000000E+00  0.19304718323E+02  0.19304718323E+02  0.00000000000E+00 0.  1.
          4   -1    0    0  502    0 -0.00000000000E+00 -0.00000000000E+00 -0.11789721907E+04  0.11789728748E+04  0.12700000000E+01 0. -1.
         25    2    1    2    0    0 -0.12377637497E+03  0.85835441186E+01 -0.61994143824E+03  0.64447250726E+03  0.12499262991E+03 0.  0.
    9000005    1    3    3    0    0 -0.76198408536E+01  0.46226281519E+02 -0.10074433494E+03  0.11110964000E+03  0.10000000000E+01 0.  0.
    9000005    1    3    3    0    0 -0.11615653411E+03 -0.37642737400E+02 -0.51919710330E+03  0.53336286726E+03  0.10000000000E+01 0.  0.
          4    1    1    2  501    0  0.12377637497E+03 -0.85835441186E+01 -0.53972603416E+03  0.55380508582E+03  0.12700000000E+01 0.  1.
<mgrwt>
<rscale>  1 0.17611765E+03</rscale>
<asrwt>0</asrwt>
<pdfrwt beam="1">  1       21 0.29699559E-02 0.17611765E+03</pdfrwt>
<pdfrwt beam="2">  1        4 0.18138365E+00 0.17611765E+03</pdfrwt>
<totfact> 0.51572613E+03</totfact>
</mgrwt>
</event>
<event>
 6    4  0.3189516E-003  0.1282307E+03  0.7818608E-02  0.1230105E+00
         21   -1    0    0  501  502  0.00000000000E+00  0.00000000000E+00  0.33383689711E+02  0.33383689711E+02  0.00000000000E+00 0.  1.
         -4   -1    0    0    0  501 -0.00000000000E+00 -0.00000000000E+00 -0.21968646204E+03  0.21969013292E+03  0.12700000000E+01 0.  1.
         25    2    1    2    0    0  0.62725312563E+01 -0.27898946329E+02 -0.18411201431E+03  0.22436653827E+03  0.12500165531E+03 0.  0.
    9000005    1    3    3    0    0  0.13966240207E+02  0.48792941674E+02 -0.64714203785E+02  0.82248010275E+02  0.10000000000E+01 0.  0.
    9000005    1    3    3    0    0 -0.76937089509E+01 -0.76691888002E+02 -0.11939781052E+03  0.14211852800E+03  0.10000000000E+01 0.  0.
         -4    1    1    2    0  502 -0.62725312563E+01  0.27898946329E+02 -0.21907580209E+01  0.28707284360E+02  0.12700000000E+01 0. -1.
<mgrwt>
<rscale>  1 0.12823069E+03</rscale>
<asrwt>0</asrwt>
<pdfrwt beam="1">  1       21 0.51359525E-02 0.12823069E+03</pdfrwt>
<pdfrwt beam="2">  1       -4 0.33800056E-01 0.12823069E+03</pdfrwt>
<totfact> 0.86788581E+04</totfact>
</mgrwt>
</event>
<event>
 6    4  0.3189516E-003  0.1275331E+03  0.7818608E-02  0.1231163E+00
          4   -1    0    0  502    0 -0.00000000000E+00  0.00000000000E+00  0.86191234167E+03  0.86191327732E+03  0.12700000000E+01 0.  1.
         21   -1    0    0  501  502  0.00000000000E+00 -0.00000000000E+00 -0.75220632787E+01  0.75220632787E+01  0.00000000000E+00 0.  1.
         25    2    1    2    0    0 -0.12072478551E+02  0.22134868173E+02  0.79079257668E+03  0.80101036204E+03  0.12501601355E+03 0.  0.
    9000005    1    3    3    0    0 -0.10460745334E+02  0.20133100637E+02  0.20144550510E+02  0.30357401889E+02  0.10000000000E+01 0.  0.
    9000005    1    3    3    0    0 -0.16117332171E+01  0.20017675357E+01  0.77064802617E+03  0.77065296015E+03  0.10000000000E+01 0.  0.
          4    1    1    2  501    0  0.12072478551E+02 -0.22134868173E+02  0.63597701716E+02  0.68424978560E+02  0.12700000000E+01 0. -1.
<mgrwt>
<rscale>  1 0.12753314E+03</rscale>
<asrwt>0</asrwt>
<pdfrwt beam="2">  1       21 0.11572412E-02 0.12753314E+03</pdfrwt>
<pdfrwt beam="1">  1        4 0.13261014E+00 0.12753314E+03</pdfrwt>
<totfact> 0.51686446E+04</totfact>
</mgrwt>
</event>
<event>
 6    4  0.3189516E-003  0.1275580E+03  0.7818608E-02  0.1231125E+00
         -4   -1    0    0    0  501 -0.00000000000E+00  0.00000000000E+00  0.75759695803E+02  0.75770339897E+02  0.12700000000E+01 0.  1.
         21   -1    0    0  501  502  0.00000000000E+00 -0.00000000000E+00 -0.92732582697E+02  0.92732582697E+02  0.00000000000E+00 0.  1.
         25    2    1    2    0    0 -0.12515306636E+02 -0.22122561294E+02  0.14104130568E+02  0.12833534198E+03  0.12499997153E+03 0.  0.
    9000005    1    3    3    0    0 -0.62309614122E+02  0.13756778575E+02  0.19461818364E+02  0.66719557423E+02  0.10000000000E+01 0.  0.
    9000005    1    3    3    0    0  0.49794307486E+02 -0.35879339869E+02 -0.53576877953E+01  0.61615784552E+02  0.10000000000E+01 0.  0.
         -4    1    1    2    0  502  0.12515306636E+02  0.22122561294E+02 -0.31077017463E+02  0.40167580619E+02  0.12700000000E+01 0. -1.
<mgrwt>
<rscale>  1 0.12755796E+03</rscale>
<asrwt>0</asrwt>
<pdfrwt beam="2">  1       21 0.14266551E-01 0.12755796E+03</pdfrwt>
<pdfrwt beam="1">  1       -4 0.11656826E-01 0.12755796E+03</pdfrwt>
<totfact> 0.10032661E+05</totfact>
</mgrwt>
</event>
<event>
 6    4  0.3189516E-003  0.1267913E+03  0.7818608E-02  0.1232296E+00
         -4   -1    0    0    0  501 -0.00000000000E+00  0.00000000000E+00  0.29099964061E+02  0.29127663970E+02  0.12700000000E+01 0.  1.
         21   -1    0    0  501  502  0.00000000000E+00 -0.00000000000E+00 -0.10239114479E+04  0.10239114479E+04  0.00000000000E+00 0. -1.
         25    2    1    2    0    0 -0.19987542791E+02  0.72313618795E+01 -0.10966875278E+03  0.16764029681E+03  0.12499695723E+03 0.  0.
    9000005    1    3    3    0    0  0.41894025272E+02  0.19983954333E+02 -0.68124008857E+01  0.46924157852E+02  0.10000000000E+01 0.  0.
    9000005    1    3    3    0    0 -0.61881568064E+02 -0.12752592454E+02 -0.10285635190E+03  0.12071613896E+03  0.10000000000E+01 0.  0.
         -4    1    1    2    0  502  0.19987542791E+02 -0.72313618795E+01 -0.88514273107E+03  0.88539881507E+03  0.12700000000E+01 0. -1.
<mgrwt>
<rscale>  1 0.12679130E+03</rscale>
<asrwt>0</asrwt>
<pdfrwt beam="2">  1       21 0.15752485E+00 0.12679130E+03</pdfrwt>
<pdfrwt beam="1">  1       -4 0.44791084E-02 0.12679130E+03</pdfrwt>
<totfact> 0.31400972E+03</totfact>
</mgrwt>
</event>
<event>
 6    4  0.3189516E-003  0.1365898E+03  0.7818608E-02  0.1217993E+00
         21   -1    0    0  501  502  0.00000000000E+00  0.00000000000E+00  0.82511124953E+02  0.82511124953E+02  0.00000000000E+00 0. -1.
         -4   -1    0    0    0  501 -0.00000000000E+00 -0.00000000000E+00 -0.15273780553E+03  0.15274308541E+03  0.12700000000E+01 0. -1.
         25    2    1    2    0    0  0.35643865753E+02 -0.41954827702E+02 -0.10309030239E+03  0.17112681160E+03  0.12500432980E+03 0.  0.
    9000005    1    3    3    0    0  0.68031501122E+02 -0.64599730564E+02 -0.88538751000E+02  0.12900201844E+03  0.10000000000E+01 0.  0.
    9000005    1    3    3    0    0 -0.32387635369E+02  0.22644902862E+02 -0.14551551391E+02  0.42124793155E+02  0.10000000000E+01 0.  0.
         -4    1    1    2    0  502 -0.35643865753E+02  0.41954827702E+02  0.32863621810E+02  0.64127398760E+02  0.12700000000E+01 0.  1.
<mgrwt>
<rscale>  1 0.13658981E+03</rscale>
<asrwt>0</asrwt>
<pdfrwt beam="1">  1       21 0.12694019E-01 0.13658981E+03</pdfrwt>
<pdfrwt beam="2">  1       -4 0.23499282E-01 0.13658981E+03</pdfrwt>
<totfact> 0.36201780E+04</totfact>
</mgrwt>
</event>
<event>
 6    4  0.3189516E-003  0.1338486E+03  0.7818608E-02  0.1221854E+00
         21   -1    0    0  501  502  0.00000000000E+00  0.00000000000E+00  0.21922036996E+03  0.21922036996E+03  0.00000000000E+00 0.  1.
          4   -1    0    0  502    0 -0.00000000000E+00 -0.00000000000E+00 -0.60491405080E+02  0.60504735257E+02  0.12700000000E+01 0. -1.
         25    2    1    2    0    0 -0.47055396856E+02  0.87305649056E+01  0.23013196921E+02  0.13581257724E+03  0.12500006307E+03 0.  0.
    9000005    1    3    3    0    0 -0.20153993463E+02 -0.57273396143E+02  0.21802922209E+02  0.64519708424E+02  0.10000000000E+01 0.  0.
    9000005    1    3    3    0    0 -0.26901403393E+02  0.66003961049E+02  0.12102747113E+01  0.71292868813E+02  0.10000000000E+01 0.  0.
          4    1    1    2  501    0  0.47055396856E+02 -0.87305649056E+01  0.13571576796E+03  0.14391252798E+03  0.12700000000E+01 0.  1.
<mgrwt>
<rscale>  1 0.13384860E+03</rscale>
<asrwt>0</asrwt>
<pdfrwt beam="1">  1       21 0.33726210E-01 0.13384860E+03</pdfrwt>
<pdfrwt beam="2">  1        4 0.93076785E-02 0.13384860E+03</pdfrwt>
<totfact> 0.29554172E+04</totfact>
</mgrwt>
</event>
<event>
 6    4  0.3189516E-003  0.1275273E+03  0.7818608E-02  0.1231172E+00
         -4   -1    0    0    0  501 -0.00000000000E+00  0.00000000000E+00  0.23799805602E+03  0.23800144447E+03  0.12700000000E+01 0. -1.
         21   -1    0    0  501  502  0.00000000000E+00 -0.00000000000E+00 -0.86488793165E+02  0.86488793165E+02  0.00000000000E+00 0.  1.
         25    2    1    2    0    0 -0.43166727583E+01 -0.24909521713E+02  0.21843538013E+03  0.25293720828E+03  0.12499639236E+03 0.  0.
    9000005    1    3    3    0    0 -0.40253648458E+02 -0.21316699935E+02  0.17542215394E+02  0.48820971224E+02  0.10000000000E+01 0.  0.
    9000005    1    3    3    0    0  0.35936975700E+02 -0.35928217776E+01  0.20089316474E+03  0.20411623706E+03  0.10000000000E+01 0.  0.
         -4    1    1    2    0  502  0.43166727583E+01  0.24909521713E+02 -0.66926117279E+02  0.71553029354E+02  0.12700000000E+01 0.  1.
<mgrwt>
<rscale>  1 0.12752731E+03</rscale>
<asrwt>0</asrwt>
<pdfrwt beam="2">  1       21 0.13305968E-01 0.12752731E+03</pdfrwt>
<pdfrwt beam="1">  1       -4 0.36616063E-01 0.12752731E+03</pdfrwt>
<totfact> 0.14328288E+04</totfact>
</mgrwt>
</event>
<event>
 6    4  0.3189516E-003  0.1344317E+03  0.7818608E-02  0.1221024E+00
         21   -1    0    0  501  502  0.00000000000E+00  0.00000000000E+00  0.10108317112E+03  0.10108317112E+03  0.00000000000E+00 0.  1.
          4   -1    0    0  502    0 -0.00000000000E+00 -0.00000000000E+00 -0.87592500663E+02  0.87601707017E+02  0.12700000000E+01 0. -1.
         25    2    1    2    0    0 -0.39832480333E+02  0.29301025067E+02 -0.81816721346E+01  0.13468043487E+03  0.12500681269E+03 0.  0.
    9000005    1    3    3    0    0 -0.11701802022E+02  0.75194372392E+01 -0.65632734697E+02  0.67097913312E+02  0.10000000000E+01 0.  0.
    9000005    1    3    3    0    0 -0.28130678311E+02  0.21781587828E+02  0.57451062563E+02  0.67582521558E+02  0.10000000000E+01 0.  0.
          4    1    1    2  501    0  0.39832480333E+02 -0.29301025067E+02  0.21672342595E+02  0.54004443271E+02  0.12700000000E+01 0.  1.
<mgrwt>
<rscale>  1 0.13443169E+03</rscale>
<asrwt>0</asrwt>
<pdfrwt beam="1">  1       21 0.15551257E-01 0.13443169E+03</pdfrwt>
<pdfrwt beam="2">  1        4 0.13477091E-01 0.13443169E+03</pdfrwt>
<totfact> 0.67426666E+04</totfact>
</mgrwt>
</event>
<event>
 6    4  0.3189516E-003  0.1333312E+03  0.7818608E-02  0.1222595E+00
          4   -1    0    0  502    0 -0.00000000000E+00  0.00000000000E+00  0.27672693993E+03  0.27672985416E+03  0.12700000000E+01 0.  1.
         21   -1    0    0  501  502  0.00000000000E+00 -0.00000000000E+00 -0.30147446219E+02  0.30147446219E+02  0.00000000000E+00 0.  1.
         25    2    1    2    0    0 -0.42783877388E+02 -0.17962499648E+02  0.20508175702E+03  0.24461345366E+03  0.12499641231E+03 0.  0.
    9000005    1    3    3    0    0 -0.94612414433E+01  0.55239077906E+01 -0.16212724570E+02  0.19592883527E+02  0.10000000000E+01 0.  0.
    9000005    1    3    3    0    0 -0.33322635944E+02 -0.23486407439E+02  0.22129448159E+03  0.22502057013E+03  0.10000000000E+01 0.  0.
          4    1    1    2  501    0  0.42783877388E+02  0.17962499648E+02  0.41497736698E+02  0.62263846725E+02  0.12700000000E+01 0. -1.
<mgrwt>
<rscale>  1 0.13333122E+03</rscale>
<asrwt>0</asrwt>
<pdfrwt beam="2">  1       21 0.46380688E-02 0.13333122E+03</pdfrwt>
<pdfrwt beam="1">  1        4 0.42575655E-01 0.13333122E+03</pdfrwt>
<totfact> 0.66001779E+04</totfact>
</mgrwt>
</event>
<event>
 6    4  0.3189516E-003  0.1521896E+03  0.7818608E-02  0.1197808E+00
         21   -1    0    0  501  502  0.00000000000E+00  0.00000000000E+00  0.18416099547E+03  0.18416099547E+03  0.00000000000E+00 0.  1.
         -4   -1    0    0    0  501 -0.00000000000E+00 -0.00000000000E+00 -0.37008492917E+03  0.37008710826E+03  0.12700000000E+01 0. -1.
         25    2    1    2    0    0  0.32546415445E+02  0.80481019242E+02 -0.34273531790E+03  0.37500556767E+03  0.12500085610E+03 0.  0.
    9000005    1    3    3    0    0 -0.37531039354E+02  0.63496734383E+01 -0.38616546589E+02  0.54232231544E+02  0.10000000000E+01 0.  0.
    9000005    1    3    3    0    0  0.70077454799E+02  0.74131345804E+02 -0.30411877131E+03  0.32077333612E+03  0.10000000000E+01 0.  0.
         -4    1    1    2    0  502 -0.32546415445E+02 -0.80481019242E+02  0.15681138421E+03  0.17924253606E+03  0.12700000000E+01 0.  1.
<mgrwt>
<rscale>  1 0.15218961E+03</rscale>
<asrwt>0</asrwt>
<pdfrwt beam="1">  1       21 0.28332461E-01 0.15218961E+03</pdfrwt>
<pdfrwt beam="2">  1       -4 0.56936646E-01 0.15218961E+03</pdfrwt>
<totfact> 0.14746034E+03</totfact>
</mgrwt>
</event>
<event>
 6    4  0.3189516E-003  0.1266241E+03  0.7818608E-02  0.1232553E+00
          4   -1    0    0  502    0 -0.00000000000E+00  0.00000000000E+00  0.25119276086E+03  0.25119597132E+03  0.12700000000E+01 0.  1.
         21   -1    0    0  501  502  0.00000000000E+00 -0.00000000000E+00 -0.29890068949E+02  0.29890068949E+02  0.00000000000E+00 0.  1.
         25    2    1    2    0    0 -0.90580365361E+01 -0.18010217262E+02  0.22714809270E+03  0.26005754621E+03  0.12500902118E+03 0.  0.
    9000005    1    3    3    0    0  0.14330885878E+02 -0.24825532660E+02 -0.28014999067E+01  0.28818913297E+02  0.10000000000E+01 0.  0.
    9000005    1    3    3    0    0 -0.23388922414E+02  0.68153153980E+01  0.22994959260E+03  0.23123863292E+03  0.10000000000E+01 0.  0.
          4    1    1    2  501    0  0.90580365361E+01  0.18010217262E+02 -0.58454007890E+01  0.21028494052E+02  0.12700000000E+01 0. -1.
<mgrwt>
<rscale>  1 0.12662413E+03</rscale>
<asrwt>0</asrwt>
<pdfrwt beam="2">  1       21 0.45984723E-02 0.12662413E+03</pdfrwt>
<pdfrwt beam="1">  1        4 0.38647361E-01 0.12662413E+03</pdfrwt>
<totfact> 0.80439302E+04</totfact>
</mgrwt>
</event>
<event>
 6    4  0.3189516E-003  0.1304063E+03  0.7818608E-02  0.1226854E+00
         -4   -1    0    0    0  501 -0.00000000000E+00  0.00000000000E+00  0.12760490797E+03  0.12761122772E+03  0.12700000000E+01 0.  1.
         21   -1    0    0  501  502  0.00000000000E+00 -0.00000000000E+00 -0.59872541427E+02  0.59872541427E+02  0.00000000000E+00 0.  1.
         25    2    1    2    0    0  0.29682361878E+02  0.22315178533E+02  0.73791111483E+02  0.14983631120E+03  0.12500712868E+03 0.  0.
    9000005    1    3    3    0    0  0.42857484253E+02  0.47461380225E+02 -0.68659332393E+01  0.64323305330E+02  0.10000000000E+01 0.  0.
    9000005    1    3    3    0    0 -0.13175122375E+02 -0.25146201692E+02  0.80657044722E+02  0.85513005867E+02  0.10000000000E+01 0.  0.
         -4    1    1    2    0  502 -0.29682361878E+02 -0.22315178533E+02 -0.60587449354E+01  0.37647457946E+02  0.12700000000E+01 0. -1.
<mgrwt>
<rscale>  1 0.13040626E+03</rscale>
<asrwt>0</asrwt>
<pdfrwt beam="2">  1       21 0.92111603E-02 0.13040626E+03</pdfrwt>
<pdfrwt beam="1">  1       -4 0.19633046E-01 0.13040626E+03</pdfrwt>
<totfact> 0.87692083E+04</totfact>
</mgrwt>
</event>
<event>
 6    4  0.3189516E-003  0.1301932E+03  0.7818608E-02  0.1227169E+00
         21   -1    0    0  501  502  0.00000000000E+00  0.00000000000E+00  0.88378848630E+01  0.88378848630E+01  0.00000000000E+00 0. -1.
          4   -1    0    0  502    0 -0.00000000000E+00 -0.00000000000E+00 -0.78553630512E+03  0.78553733175E+03  0.12700000000E+01 0. -1.
         25    2    1    2    0    0 -0.26113025152E+01 -0.36303856513E+02 -0.61355238142E+03  0.62721352307E+03  0.12500195948E+03 0.  0.
    9000005    1    3    3    0    0  0.10123860110E+02  0.24530859223E+02 -0.47037916618E+03  0.47112823687E+03  0.10000000000E+01 0.  0.
    9000005    1    3    3    0    0 -0.12735162626E+02 -0.60834715736E+02 -0.14317321524E+03  0.15608528620E+03  0.10000000000E+01 0.  0.
          4    1    1    2  501    0  0.26113025152E+01  0.36303856513E+02 -0.16314603884E+03  0.16716169354E+03  0.12700000000E+01 0.  1.
<mgrwt>
<rscale>  1 0.13019324E+03</rscale>
<asrwt>0</asrwt>
<pdfrwt beam="1">  1       21 0.13596746E-02 0.13019324E+03</pdfrwt>
<pdfrwt beam="2">  1        4 0.12085884E+00 0.13019324E+03</pdfrwt>
<totfact> 0.50284550E+04</totfact>
</mgrwt>
</event>
<event>
 6    4  0.3189516E-003  0.1283624E+03  0.7818608E-02  0.1229906E+00
         -4   -1    0    0    0  501 -0.00000000000E+00  0.00000000000E+00  0.29933173890E+03  0.29933443305E+03  0.12700000000E+01 0. -1.
         21   -1    0    0  501  502  0.00000000000E+00 -0.00000000000E+00 -0.13085578313E+03  0.13085578313E+03  0.00000000000E+00 0.  1.
         25    2    1    2    0    0  0.53883978774E+01  0.28675110946E+02  0.28366516678E+03  0.31135644971E+03  0.12500246043E+03 0.  0.
    9000005    1    3    3    0    0  0.16010110544E+02 -0.47579511141E+02  0.92130023098E+02  0.10492413772E+03  0.10000000000E+01 0.  0.
    9000005    1    3    3    0    0 -0.10621712666E+02  0.76254622087E+02  0.19153514368E+03  0.20643231200E+03  0.10000000000E+01 0.  0.
         -4    1    1    2    0  502 -0.53883978774E+01 -0.28675110946E+02 -0.11518921102E+03  0.11883376647E+03  0.12700000000E+01 0.  1.
<mgrwt>
<rscale>  1 0.12836242E+03</rscale>
<asrwt>0</asrwt>
<pdfrwt beam="2">  1       21 0.20131659E-01 0.12836242E+03</pdfrwt>
<pdfrwt beam="1">  1       -4 0.46051718E-01 0.12836242E+03</pdfrwt>
<totfact> 0.42989069E+03</totfact>
</mgrwt>
</event>
<event>
 6    4  0.3189516E-003  0.1339605E+03  0.7818608E-02  0.1221695E+00
          4   -1    0    0  502    0 -0.00000000000E+00  0.00000000000E+00  0.55151896394E+01  0.56595244287E+01  0.12700000000E+01 0.  1.
         21   -1    0    0  501  502  0.00000000000E+00 -0.00000000000E+00 -0.21299067988E+04  0.21299067988E+04  0.00000000000E+00 0. -1.
         25    2    1    2    0    0  0.21874749479E+02 -0.42918415396E+02 -0.87032854691E+03  0.88057776868E+03  0.12499972833E+03 0.  0.
    9000005    1    3    3    0    0  0.36777371055E+02 -0.82325575495E+02 -0.65349037018E+03  0.65968230181E+03  0.10000000000E+01 0.  0.
    9000005    1    3    3    0    0 -0.14902621576E+02  0.39407160099E+02 -0.21683817673E+03  0.22089546688E+03  0.10000000000E+01 0.  0.
          4    1    1    2  501    0 -0.21874749479E+02  0.42918415396E+02 -0.12540630623E+04  0.12549885546E+04  0.12700000000E+01 0. -1.
<mgrwt>
<rscale>  1 0.13396054E+03</rscale>
<asrwt>0</asrwt>
<pdfrwt beam="2">  1       21 0.32767812E+00 0.13396054E+03</pdfrwt>
<pdfrwt beam="1">  1        4 0.85962212E-03 0.13396054E+03</pdfrwt>
<totfact> 0.37834088E+03</totfact>
</mgrwt>
</event>
<event>
 6    4  0.3189516E-003  0.1267080E+03  0.7818608E-02  0.1232424E+00
          4   -1    0    0  502    0 -0.00000000000E+00  0.00000000000E+00  0.49550579741E+02  0.49566852358E+02  0.12700000000E+01 0. -1.
         21   -1    0    0  501  502  0.00000000000E+00 -0.00000000000E+00 -0.12152129553E+03  0.12152129553E+03  0.00000000000E+00 0. -1.
         25    2    1    2    0    0  0.19055043180E+02  0.81404329139E+01 -0.39820468284E+02  0.13281789007E+03  0.12500224362E+03 0.  0.
    9000005    1    3    3    0    0  0.33945503966E+02  0.48595269611E+02 -0.60752311252E+02  0.84886045912E+02  0.10000000000E+01 0.  0.
    9000005    1    3    3    0    0 -0.14890460786E+02 -0.40454836697E+02  0.20931842968E+02  0.47931844161E+02  0.10000000000E+01 0.  0.
          4    1    1    2  501    0 -0.19055043180E+02 -0.81404329139E+01 -0.32150247510E+02  0.38270257820E+02  0.12700000000E+01 0.  1.
<mgrwt>
<rscale>  1 0.12670802E+03</rscale>
<asrwt>0</asrwt>
<pdfrwt beam="2">  1       21 0.18695584E-01 0.12670802E+03</pdfrwt>
<pdfrwt beam="1">  1        4 0.76249284E-02 0.12670802E+03</pdfrwt>
<totfact> 0.12494985E+05</totfact>
</mgrwt>
</event>
<event>
 6    4  0.3189516E-003  0.1327023E+03  0.7818608E-02  0.1223500E+00
          4   -1    0    0  502    0 -0.00000000000E+00  0.00000000000E+00  0.22051218155E+02  0.22087759554E+02  0.12700000000E+01 0. -1.
         21   -1    0    0  501  502  0.00000000000E+00 -0.00000000000E+00 -0.46738032570E+03  0.46738032570E+03  0.00000000000E+00 0.  1.
         25    2    1    2    0    0  0.11895691653E+02  0.42937659414E+02 -0.19932464414E+03  0.23945816747E+03  0.12499900052E+03 0.  0.
    9000005    1    3    3    0    0  0.55350138882E+02  0.17241543435E+01 -0.37455650880E+02  0.66862069705E+02  0.10000000000E+01 0.  0.
    9000005    1    3    3    0    0 -0.43454447228E+02  0.41213505071E+02 -0.16186899326E+03  0.17259609776E+03  0.10000000000E+01 0.  0.
          4    1    1    2  501    0 -0.11895691653E+02 -0.42937659414E+02 -0.24600446341E+03  0.25000991779E+03  0.12700000000E+01 0.  1.
<mgrwt>
<rscale>  1 0.13270230E+03</rscale>
<asrwt>0</asrwt>
<pdfrwt beam="2">  1       21 0.71904659E-01 0.13270230E+03</pdfrwt>
<pdfrwt beam="1">  1        4 0.33954390E-02 0.13270230E+03</pdfrwt>
<totfact> 0.31683775E+04</totfact>
</mgrwt>
</event>
<event>
 6    4  0.3189516E-003  0.1362794E+03  0.7818608E-02  0.1218425E+00
         21   -1    0    0  501  502  0.00000000000E+00  0.00000000000E+00  0.22289521407E+03  0.22289521407E+03  0.00000000000E+00 0. -1.
         -4   -1    0    0    0  501 -0.00000000000E+00 -0.00000000000E+00 -0.20468966623E+03  0.20469360606E+03  0.12700000000E+01 0.  1.
         25    2    1    2    0    0 -0.11127723484E+02  0.53135662134E+02 -0.17790247457E+03  0.22410124269E+03  0.12499940679E+03 0.  0.
    9000005    1    3    3    0    0  0.35714599895E+02 -0.79840758108E+01 -0.78766854492E+01  0.37447567156E+02  0.10000000000E+01 0.  0.
    9000005    1    3    3    0    0 -0.46842323379E+02  0.61119737945E+02 -0.17002578912E+03  0.18665367554E+03  0.10000000000E+01 0.  0.
         -4    1    1    2    0  502  0.11127723484E+02 -0.53135662134E+02  0.19610802241E+03  0.20348757744E+03  0.12700000000E+01 0. -1.
<mgrwt>
<rscale>  1 0.13627941E+03</rscale>
<asrwt>0</asrwt>
<pdfrwt beam="1">  1       21 0.34291572E-01 0.13627941E+03</pdfrwt>
<pdfrwt beam="2">  1       -4 0.31491299E-01 0.13627941E+03</pdfrwt>
<totfact> 0.32898599E+03</totfact>
</mgrwt>
</event>
<event>
 6    4  0.3189516E-003  0.1292333E+03  0.7818608E-02  0.1228598E+00
         -4   -1    0    0    0  501 -0.00000000000E+00  0.00000000000E+00  0.21203483764E+02  0.21241483557E+02  0.12700000000E+01 0. -1.
         21   -1    0    0  501  502  0.00000000000E+00 -0.00000000000E+00 -0.30907803269E+03  0.30907803269E+03  0.00000000000E+00 0. -1.
         25    2    1    2    0    0  0.19401111344E+02 -0.26354047517E+02 -0.23035054090E+03  0.26412613787E+03  0.12502122248E+03 0.  0.
    9000005    1    3    3    0    0  0.28731355439E+02  0.16231528255E+02 -0.35880894726E+01  0.33208849437E+02  0.10000000000E+01 0.  0.
    9000005    1    3    3    0    0 -0.93302440947E+01 -0.42585575773E+02 -0.22676245143E+03  0.23091728843E+03  0.10000000000E+01 0.  0.
         -4    1    1    2    0  502 -0.19401111344E+02  0.26354047517E+02 -0.57524008031E+02  0.66193378384E+02  0.12700000000E+01 0.  1.
<mgrwt>
<rscale>  1 0.12923330E+03</rscale>
<asrwt>0</asrwt>
<pdfrwt beam="2">  1       21 0.47550465E-01 0.12923330E+03</pdfrwt>
<pdfrwt beam="1">  1       -4 0.32651983E-02 0.12923330E+03</pdfrwt>
<totfact> 0.80635322E+04</totfact>
</mgrwt>
</event>
<event>
 6    4  0.3189516E-003  0.1278580E+03  0.7818608E-02  0.1230669E+00
         21   -1    0    0  501  502  0.00000000000E+00  0.00000000000E+00  0.32903156232E+03  0.32903156232E+03  0.00000000000E+00 0. -1.
         -4   -1    0    0    0  501 -0.00000000000E+00 -0.00000000000E+00 -0.23449884504E+02  0.23484249685E+02  0.12700000000E+01 0. -1.
         25    2    1    2    0    0 -0.14297186626E+02  0.22809789398E+02  0.16175135046E+03  0.20618238450E+03  0.12499192080E+03 0.  0.
    9000005    1    3    3    0    0 -0.19821357949E+02 -0.26595714504E+02 -0.37285751816E+01  0.33393420517E+02  0.10000000000E+01 0.  0.
    9000005    1    3    3    0    0  0.55241713234E+01  0.49405503901E+02  0.16547992564E+03  0.17278896399E+03  0.10000000000E+01 0.  0.
         -4    1    1    2    0  502  0.14297186626E+02 -0.22809789398E+02  0.14383032736E+03  0.14633342750E+03  0.12700000000E+01 0.  1.
<mgrwt>
<rscale>  1 0.12785803E+03</rscale>
<asrwt>0</asrwt>
<pdfrwt beam="1">  1       21 0.50620237E-01 0.12785803E+03</pdfrwt>
<pdfrwt beam="2">  1       -4 0.36105068E-02 0.12785803E+03</pdfrwt>
<totfact> 0.60442292E+04</totfact>
</mgrwt>
</event>
<event>
 6    4  0.3189516E-003  0.1287434E+03  0.7818608E-02  0.1229332E+00
         21   -1    0    0  501  502  0.00000000000E+00  0.00000000000E+00  0.11066398220E+04  0.11066398220E+04  0.00000000000E+00 0. -1.
         -4   -1    0    0    0  501 -0.00000000000E+00 -0.00000000000E+00 -0.19474605977E+02  0.19515972380E+02  0.12700000000E+01 0.  1.
         25    2    1    2    0    0 -0.25070949424E+02 -0.17928277405E+02  0.19627229963E+03  0.23472897348E+03  0.12499959902E+03 0.  0.
    9000005    1    3    3    0    0  0.37965722440E+02 -0.21732474894E+02  0.21219931054E+02  0.48631080796E+02  0.10000000000E+01 0.  0.
    9000005    1    3    3    0    0 -0.63036671865E+02  0.38041974892E+01  0.17505236858E+03  0.18609789269E+03  0.10000000000E+01 0.  0.
         -4    1    1    2    0  502  0.25070949424E+02  0.17928277405E+02  0.89089291635E+03  0.89142682086E+03  0.12700000000E+01 0. -1.
<mgrwt>
<rscale>  1 0.12874345E+03</rscale>
<asrwt>0</asrwt>
<pdfrwt beam="1">  1       21 0.17025223E+00 0.12874345E+03</pdfrwt>
<pdfrwt beam="2">  1       -4 0.29993322E-02 0.12874345E+03</pdfrwt>
<totfact> 0.48099556E+03</totfact>
</mgrwt>
</event>
<event>
 6    4  0.3189516E-003  0.1396099E+03  0.7818608E-02  0.1213855E+00
          4   -1    0    0  502    0 -0.00000000000E+00  0.00000000000E+00  0.17529569107E+02  0.17575514020E+02  0.12700000000E+01 0.  1.
         21   -1    0    0  501  502  0.00000000000E+00 -0.00000000000E+00 -0.89466369862E+03  0.89466369862E+03  0.00000000000E+00 0. -1.
         25    2    1    2    0    0  0.50825487277E+02 -0.35833911542E+02 -0.29038477613E+03  0.32220216637E+03  0.12499447361E+03 0.  0.
    9000005    1    3    3    0    0 -0.10714900874E+02  0.11355553476E+02  0.52977083738E+01  0.16517366906E+02  0.10000000000E+01 0.  0.
    9000005    1    3    3    0    0  0.61540388151E+02 -0.47189465018E+02 -0.29568248450E+03  0.30568479947E+03  0.10000000000E+01 0.  0.
          4    1    1    2  501    0 -0.50825487277E+02  0.35833911542E+02 -0.58674935338E+03  0.59003704627E+03  0.12700000000E+01 0. -1.
<mgrwt>
<rscale>  1 0.13960988E+03</rscale>
<asrwt>0</asrwt>
<pdfrwt beam="2">  1       21 0.13764061E+00 0.13960988E+03</pdfrwt>
<pdfrwt beam="1">  1        4 0.27004596E-02 0.13960988E+03</pdfrwt>
<totfact> 0.99142489E+03</totfact>
</mgrwt>
</event>
<event>
 6    4  0.3189516E-003  0.1286766E+03  0.7818608E-02  0.1229433E+00
          4   -1    0    0  502    0 -0.00000000000E+00  0.00000000000E+00  0.46320265710E+02  0.46337672745E+02  0.12700000000E+01 0. -1.
         21   -1    0    0  501  502  0.00000000000E+00 -0.00000000000E+00 -0.14620102237E+03  0.14620102237E+03  0.00000000000E+00 0. -1.
         25    2    1    2    0    0  0.27591545040E+01  0.30300578155E+02 -0.98510466330E+02  0.16205544454E+03  0.12502766557E+03 0.  0.
    9000005    1    3    3    0    0  0.34507885305E+02  0.64834732207E+02 -0.86774631224E+02  0.11368893206E+03  0.10000000000E+01 0.  0.
    9000005    1    3    3    0    0 -0.31748730802E+02 -0.34534154052E+02 -0.11735835106E+02  0.48366512478E+02  0.10000000000E+01 0.  0.
          4    1    1    2  501    0 -0.27591545040E+01 -0.30300578155E+02 -0.13702903270E+01  0.30483250576E+02  0.12700000000E+01 0.  1.
<mgrwt>
<rscale>  1 0.12867655E+03</rscale>
<asrwt>0</asrwt>
<pdfrwt beam="2">  1       21 0.22492465E-01 0.12867655E+03</pdfrwt>
<pdfrwt beam="1">  1        4 0.71279582E-02 0.12867655E+03</pdfrwt>
<totfact> 0.99319787E+04</totfact>
</mgrwt>
</event>
<event>
 6    4  0.3189516E-003  0.1293545E+03  0.7818608E-02  0.1228417E+00
         21   -1    0    0  501  502  0.00000000000E+00  0.00000000000E+00  0.96898711372E+02  0.96898711372E+02  0.00000000000E+00 0.  1.
          4   -1    0    0  502    0 -0.00000000000E+00 -0.00000000000E+00 -0.99913533274E+02  0.99921604427E+02  0.12700000000E+01 0.  1.
         25    2    1    2    0    0  0.68350330702E+01 -0.32553931638E+02 -0.50472012450E+02  0.13885244559E+03  0.12500440577E+03 0.  0.
    9000005    1    3    3    0    0  0.19183055849E+02  0.45485856014E+02 -0.27722112918E+02  0.56625685636E+02  0.10000000000E+01 0.  0.
    9000005    1    3    3    0    0 -0.12348022778E+02 -0.78039787653E+02 -0.22749899532E+02  0.82226759951E+02  0.10000000000E+01 0.  0.
          4    1    1    2  501    0 -0.68350330702E+01  0.32553931638E+02  0.47457190549E+02  0.57967870212E+02  0.12700000000E+01 0. -1.
<mgrwt>
<rscale>  1 0.12935446E+03</rscale>
<asrwt>0</asrwt>
<pdfrwt beam="1">  1       21 0.14907494E-01 0.12935446E+03</pdfrwt>
<pdfrwt beam="2">  1        4 0.15372574E-01 0.12935446E+03</pdfrwt>
<totfact> 0.57615649E+04</totfact>
</mgrwt>
</event>
<event>
 6    4  0.3189516E-003  0.1507765E+03  0.7818608E-02  0.1199522E+00
          4   -1    0    0  502    0 -0.00000000000E+00  0.00000000000E+00  0.29313637226E+02  0.29341135415E+02  0.12700000000E+01 0. -1.
         21   -1    0    0  501  502  0.00000000000E+00 -0.00000000000E+00 -0.53628117613E+03  0.53628117613E+03  0.00000000000E+00 0.  1.
         25    2    1    2    0    0  0.64025426889E+02 -0.54885420834E+02 -0.22143195834E+03  0.26789114862E+03  0.12498756189E+03 0.  0.
    9000005    1    3    3    0    0  0.69286559455E+02 -0.39926062964E+02 -0.23421888713E+03  0.24749586848E+03  0.10000000000E+01 0.  0.
    9000005    1    3    3    0    0 -0.52611325664E+01 -0.14959357870E+02  0.12786928797E+02  0.20395280136E+02  0.10000000000E+01 0.  0.
          4    1    1    2  501    0 -0.64025426889E+02  0.54885420834E+02 -0.28553558057E+03  0.29773116293E+03  0.12700000000E+01 0.  1.
<mgrwt>
<rscale>  1 0.15077651E+03</rscale>
<asrwt>0</asrwt>
<pdfrwt beam="2">  1       21 0.82504783E-01 0.15077651E+03</pdfrwt>
<pdfrwt beam="1">  1        4 0.45120220E-02 0.15077651E+03</pdfrwt>
<totfact> 0.15008353E+04</totfact>
</mgrwt>
</event>
<event>
 6    4  0.3189516E-003  0.1270906E+03  0.7818608E-02  0.1231838E+00
         21   -1    0    0  501  502  0.00000000000E+00  0.00000000000E+00  0.13027669761E+02  0.13027669761E+02  0.00000000000E+00 0. -1.
         -4   -1    0    0    0  501 -0.00000000000E+00 -0.00000000000E+00 -0.84704632598E+03  0.84704727805E+03  0.12700000000E+01 0.  1.
         25    2    1    2    0    0  0.16413715747E+02 -0.16075341889E+02 -0.82598198880E+03  0.83570226629E+03  0.12499682147E+03 0.  0.
    9000005    1    3    3    0    0  0.11770331585E+02 -0.25572510050E+02 -0.82449950308E+03  0.82498056010E+03  0.10000000000E+01 0.  0.
    9000005    1    3    3    0    0  0.46433841615E+01  0.94971681616E+01 -0.14824857213E+01  0.10721706183E+02  0.10000000000E+01 0.  0.
         -4    1    1    2    0  502 -0.16413715747E+02  0.16075341889E+02 -0.80366674174E+01  0.24372681523E+02  0.12700000000E+01 0. -1.
<mgrwt>
<rscale>  1 0.12709065E+03</rscale>
<asrwt>0</asrwt>
<pdfrwt beam="1">  1       21 0.20042570E-02 0.12709065E+03</pdfrwt>
<pdfrwt beam="2">  1       -4 0.13031965E+00 0.12709065E+03</pdfrwt>
<totfact> 0.22422022E+04</totfact>
</mgrwt>
</event>
<event>
 6    4  0.3189516E-003  0.1271575E+03  0.7818608E-02  0.1231736E+00
         21   -1    0    0  501  502  0.00000000000E+00  0.00000000000E+00  0.12689592930E+02  0.12689592930E+02  0.00000000000E+00 0.  1.
          4   -1    0    0  502    0 -0.00000000000E+00 -0.00000000000E+00 -0.44758381087E+03  0.44758561265E+03  0.12700000000E+01 0.  1.
         25    2    1    2    0    0  0.22208365451E+02  0.71377939431E+01 -0.37584530576E+03  0.39677287075E+03  0.12499943004E+03 0.  0.
    9000005    1    3    3    0    0 -0.25990839183E+02 -0.63294807518E+01 -0.32254313066E+03  0.32365206191E+03  0.10000000000E+01 0.  0.
    9000005    1    3    3    0    0  0.48199204633E+02  0.13467274695E+02 -0.53302175100E+02  0.73120808840E+02  0.10000000000E+01 0.  0.
          4    1    1    2  501    0 -0.22208365451E+02 -0.71377939431E+01 -0.59048912180E+02  0.63502334823E+02  0.12700000000E+01 0. -1.
<mgrwt>
<rscale>  1 0.12715745E+03</rscale>
<asrwt>0</asrwt>
<pdfrwt beam="1">  1       21 0.19522450E-02 0.12715745E+03</pdfrwt>
<pdfrwt beam="2">  1        4 0.68864076E-01 0.12715745E+03</pdfrwt>
<totfact> 0.10057032E+05</totfact>
</mgrwt>
</event>
<event>
 6    4  0.3189516E-003  0.1268650E+03  0.7818608E-02  0.1232183E+00
         -4   -1    0    0    0  501 -0.00000000000E+00  0.00000000000E+00  0.75668387130E+03  0.75668493706E+03  0.12700000000E+01 0.  1.
         21   -1    0    0  501  502  0.00000000000E+00 -0.00000000000E+00 -0.33595356737E+02  0.33595356737E+02  0.00000000000E+00 0. -1.
         25    2    1    2    0    0 -0.11148437443E+02  0.18567062691E+02  0.74717237591E+03  0.75786627288E+03  0.12500281905E+03 0.  0.
    9000005    1    3    3    0    0 -0.10232972684E+02 -0.19074349762E+02  0.68381513910E+03  0.68415838006E+03  0.10000000000E+01 0.  0.
    9000005    1    3    3    0    0 -0.91546475953E+00  0.37641412453E+02  0.63357236816E+02  0.73707892821E+02  0.10000000000E+01 0.  0.
         -4    1    1    2    0  502  0.11148437443E+02 -0.18567062691E+02 -0.24083861354E+02  0.32414020919E+02  0.12700000000E+01 0. -1.
<mgrwt>
<rscale>  1 0.12686500E+03</rscale>
<asrwt>0</asrwt>
<pdfrwt beam="2">  1       21 0.51685170E-02 0.12686500E+03</pdfrwt>
<pdfrwt beam="1">  1       -4 0.11641482E+00 0.12686500E+03</pdfrwt>
<totfact> 0.61943845E+03</totfact>
</mgrwt>
</event>
<event>
 6    4  0.3189516E-003  0.1307929E+03  0.7818608E-02  0.1226284E+00
          4   -1    0    0  502    0 -0.00000000000E+00  0.00000000000E+00  0.28823014807E+04  0.28823017605E+04  0.12700000000E+01 0.  1.
         21   -1    0    0  501  502  0.00000000000E+00 -0.00000000000E+00 -0.36568167465E+01  0.36568167465E+01  0.00000000000E+00 0.  1.
         25    2    1    2    0    0  0.10470604280E+01  0.38478374589E+02  0.27020186044E+04  0.27051823082E+04  0.12500040100E+03 0.  0.
    9000005    1    3    3    0    0  0.42979807347E+02 -0.27912570322E+02  0.90786407622E+03  0.90930993413E+03  0.10000000000E+01 0.  0.
    9000005    1    3    3    0    0 -0.41932746919E+02  0.66390944911E+02  0.17941545282E+04  0.17958723740E+04  0.10000000000E+01 0.  0.
          4    1    1    2  501    0 -0.10470604280E+01 -0.38478374589E+02  0.17662605954E+03  0.18077626906E+03  0.12700000000E+01 0. -1.
<mgrwt>
<rscale>  1 0.13079290E+03</rscale>
<asrwt>0</asrwt>
<pdfrwt beam="2">  1       21 0.56258949E-03 0.13079290E+03</pdfrwt>
<pdfrwt beam="1">  1        4 0.44344617E+00 0.13079290E+03</pdfrwt>
<totfact> 0.17613800E+03</totfact>
</mgrwt>
</event>
<event>
 6    4  0.3189516E-003  0.1266445E+03  0.7818608E-02  0.1232521E+00
         21   -1    0    0  501  502  0.00000000000E+00  0.00000000000E+00  0.15156380328E+03  0.15156380328E+03  0.00000000000E+00 0. -1.
         -4   -1    0    0    0  501 -0.00000000000E+00 -0.00000000000E+00 -0.28740940841E+03  0.28741221432E+03  0.12700000000E+01 0.  1.
         25    2    1    2    0    0  0.14331411917E+02 -0.14419969961E+02 -0.27266897171E+03  0.30064463488E+03  0.12500201379E+03 0.  0.
    9000005    1    3    3    0    0 -0.52504089817E+02 -0.25550043444E+02 -0.11322766800E+03  0.12740089862E+03  0.10000000000E+01 0.  0.
    9000005    1    3    3    0    0  0.66835501734E+02  0.11130073483E+02 -0.15944130371E+03  0.17324373627E+03  0.10000000000E+01 0.  0.
         -4    1    1    2    0  502 -0.14331411917E+02  0.14419969961E+02  0.13682336659E+03  0.13833138272E+03  0.12700000000E+01 0. -1.
<mgrwt>
<rscale>  1 0.12664450E+03</rscale>
<asrwt>0</asrwt>
<pdfrwt beam="1">  1       21 0.23317509E-01 0.12664450E+03</pdfrwt>
<pdfrwt beam="2">  1       -4 0.44217456E-01 0.12664450E+03</pdfrwt>
<totfact> 0.35437523E+03</totfact>
</mgrwt>
</event>
<event>
 6    4  0.3189516E-003  0.1285452E+03  0.7818608E-02  0.1229631E+00
         -4   -1    0    0    0  501 -0.00000000000E+00  0.00000000000E+00  0.72499987123E+03  0.72500098358E+03  0.12700000000E+01 0.  1.
         21   -1    0    0  501  502  0.00000000000E+00 -0.00000000000E+00 -0.91725570851E+01  0.91725570851E+01  0.00000000000E+00 0.  1.
         25    2    1    2    0    0 -0.29227898637E+02  0.66050265740E+01  0.63684140906E+03  0.64968518325E+03  0.12500384239E+03 0.  0.
    9000005    1    3    3    0    0 -0.16635540340E+02  0.16517708001E+00  0.63519214644E+03  0.63541075800E+03  0.10000000000E+01 0.  0.
    9000005    1    3    3    0    0 -0.12592358297E+02  0.64398494940E+01  0.16492626148E+01  0.14274425248E+02  0.10000000000E+01 0.  0.
         -4    1    1    2    0  502  0.29227898637E+02 -0.66050265740E+01  0.78985905090E+02  0.84488357409E+02  0.12700000000E+01 0. -1.
<mgrwt>
<rscale>  1 0.12854516E+03</rscale>
<asrwt>0</asrwt>
<pdfrwt beam="2">  1       21 0.14111632E-02 0.12854516E+03</pdfrwt>
<pdfrwt beam="1">  1       -4 0.11154525E+00 0.12854516E+03</pdfrwt>
<totfact> 0.57255199E+04</totfact>
</mgrwt>
</event>
<event>
 6    4  0.3189516E-003  0.1409925E+03  0.7818608E-02  0.1212000E+00
         21   -1    0    0  501  502  0.00000000000E+00  0.00000000000E+00  0.12354466605E+03  0.12354466605E+03  0.00000000000E+00 0. -1.
         -4   -1    0    0    0  501 -0.00000000000E+00 -0.00000000000E+00 -0.94537692955E+02  0.94546223030E+02  0.12700000000E+01 0.  1.
         25    2    1    2    0    0 -0.31200465149E+02 -0.57231529752E+02 -0.11294334543E+02  0.14144413233E+03  0.12501985264E+03 0.  0.
    9000005    1    3    3    0    0 -0.69760436511E+02 -0.36167428803E+02 -0.40764272767E+02  0.88528680904E+02  0.10000000000E+01 0.  0.
    9000005    1    3    3    0    0  0.38559971362E+02 -0.21064100950E+02  0.29469938224E+02  0.52915451422E+02  0.10000000000E+01 0.  0.
         -4    1    1    2    0  502  0.31200465149E+02  0.57231529752E+02  0.40301307634E+02  0.76646756750E+02  0.12700000000E+01 0. -1.
<mgrwt>
<rscale>  1 0.14099248E+03</rscale>
<asrwt>0</asrwt>
<pdfrwt beam="1">  1       21 0.19006872E-01 0.14099248E+03</pdfrwt>
<pdfrwt beam="2">  1       -4 0.14545419E-01 0.14099248E+03</pdfrwt>
<totfact> 0.41169351E+04</totfact>
</mgrwt>
</event>
<event>
 6    4  0.3189516E-003  0.1318972E+03  0.7818608E-02  0.1224667E+00
          4   -1    0    0  502    0 -0.00000000000E+00  0.00000000000E+00  0.54028393929E+02  0.54043318278E+02  0.12700000000E+01 0.  1.
         21   -1    0    0  501  502  0.00000000000E+00 -0.00000000000E+00 -0.41637278164E+03  0.41637278164E+03  0.00000000000E+00 0. -1.
         25    2    1    2    0    0 -0.14034320746E+01  0.42075156856E+02 -0.29808512287E+02  0.13522360330E+03  0.12499834814E+03 0.  0.
    9000005    1    3    3    0    0  0.43778827043E+02  0.80257798335E+01 -0.57097528587E+02  0.72402531792E+02  0.10000000000E+01 0.  0.
    9000005    1    3    3    0    0 -0.45182259117E+02  0.34049377023E+02  0.27289016300E+02  0.62821071506E+02  0.10000000000E+01 0.  0.
          4    1    1    2  501    0  0.14034320746E+01 -0.42075156856E+02 -0.33253587543E+03  0.33519249662E+03  0.12700000000E+01 0. -1.
<mgrwt>
<rscale>  1 0.13189722E+03</rscale>
<asrwt>0</asrwt>
<pdfrwt beam="2">  1       21 0.64057352E-01 0.13189722E+03</pdfrwt>
<pdfrwt beam="1">  1        4 0.83133575E-02 0.13189722E+03</pdfrwt>
<totfact> 0.95903550E+03</totfact>
</mgrwt>
</event>
<event>
 6    4  0.3189516E-003  0.1286997E+03  0.7818608E-02  0.1229398E+00
         21   -1    0    0  501  502  0.00000000000E+00  0.00000000000E+00  0.12831585215E+04  0.12831585215E+04  0.00000000000E+00 0.  1.
          4   -1    0    0  502    0 -0.00000000000E+00 -0.00000000000E+00 -0.57989115969E+01  0.59363520540E+01  0.12700000000E+01 0.  1.
         25    2    1    2    0    0 -0.15534291560E+02 -0.26408227590E+02  0.75941410930E+03  0.77024242517E+03  0.12499958172E+03 0.  0.
    9000005    1    3    3    0    0  0.26649175109E+02  0.30322164021E+02  0.49150743728E+03  0.49316343444E+03  0.10000000000E+01 0.  0.
    9000005    1    3    3    0    0 -0.42183466669E+02 -0.56730391611E+02  0.26790667202E+03  0.27707899073E+03  0.10000000000E+01 0.  0.
          4    1    1    2  501    0  0.15534291560E+02  0.26408227590E+02  0.51794550063E+03  0.51885244841E+03  0.12700000000E+01 0. -1.
<mgrwt>
<rscale>  1 0.12869967E+03</rscale>
<asrwt>0</asrwt>
<pdfrwt beam="1">  1       21 0.19740878E+00 0.12869967E+03</pdfrwt>
<pdfrwt beam="2">  1        4 0.90276195E-03 0.12869967E+03</pdfrwt>
<totfact> 0.19971837E+04</totfact>
</mgrwt>
</event>
<event>
 6    4  0.3189516E-003  0.1268641E+03  0.7818608E-02  0.1232184E+00
         21   -1    0    0  501  502  0.00000000000E+00  0.00000000000E+00  0.12626512051E+03  0.12626512051E+03  0.00000000000E+00 0.  1.
          4   -1    0    0  502    0 -0.00000000000E+00 -0.00000000000E+00 -0.46242536591E+02  0.46259972875E+02  0.12700000000E+01 0.  1.
         25    2    1    2    0    0 -0.19634534348E+02 -0.91321111067E+01  0.81493751768E+02  0.15078371286E+03  0.12500234435E+03 0.  0.
    9000005    1    3    3    0    0  0.51146197968E+02 -0.19696699568E+02  0.41849016376E+02  0.68965453033E+02  0.10000000000E+01 0.  0.
    9000005    1    3    3    0    0 -0.70780732315E+02  0.10564588461E+02  0.39644735393E+02  0.81818259825E+02  0.10000000000E+01 0.  0.
          4    1    1    2  501    0  0.19634534348E+02  0.91321111067E+01 -0.14711678512E+01  0.21741380526E+02  0.12700000000E+01 0. -1.
<mgrwt>
<rscale>  1 0.12686409E+03</rscale>
<asrwt>0</asrwt>
<pdfrwt beam="1">  1       21 0.19425403E-01 0.12686409E+03</pdfrwt>
<pdfrwt beam="2">  1        4 0.71160690E-02 0.12686409E+03</pdfrwt>
<totfact> 0.13048191E+05</totfact>
</mgrwt>
</event>
<event>
 6    4  0.3189516E-003  0.1942647E+03  0.7818608E-02  0.1154670E+00
         -4   -1    0    0    0  501 -0.00000000000E+00  0.00000000000E+00  0.50683050965E+03  0.50683210081E+03  0.12700000000E+01 0.  1.
         21   -1    0    0  501  502  0.00000000000E+00 -0.00000000000E+00 -0.17620432017E+03  0.17620432017E+03  0.00000000000E+00 0. -1.
         25    2    1    2    0    0 -0.62830552922E+02  0.13478451961E+03  0.45141955724E+03  0.49144520067E+03  0.12499689395E+03 0.  0.
    9000005    1    3    3    0    0  0.14942281613E+02  0.63131297678E+02  0.29882070940E+03  0.30578366355E+03  0.10000000000E+01 0.  0.
    9000005    1    3    3    0    0 -0.77772834535E+02  0.71653221937E+02  0.15259884784E+03  0.18566153712E+03  0.10000000000E+01 0.  0.
         -4    1    1    2    0  502  0.62830552922E+02 -0.13478451961E+03 -0.12079336776E+03  0.19159122032E+03  0.12700000000E+01 0. -1.
<mgrwt>
<rscale>  1 0.19426469E+03</rscale>
<asrwt>0</asrwt>
<pdfrwt beam="2">  1       21 0.27108357E-01 0.19426469E+03</pdfrwt>
<pdfrwt beam="1">  1       -4 0.77974399E-01 0.19426469E+03</pdfrwt>
<totfact> 0.82039498E+02</totfact>
</mgrwt>
</event>
<event>
 6    4  0.3189516E-003  0.1267584E+03  0.7818608E-02  0.1232347E+00
         21   -1    0    0  501  502  0.00000000000E+00  0.00000000000E+00  0.69212023134E+02  0.69212023134E+02  0.00000000000E+00 0. -1.
          4   -1    0    0  502    0 -0.00000000000E+00 -0.00000000000E+00 -0.12874546107E+03  0.12875172483E+03  0.12700000000E+01 0.  1.
         25    2    1    2    0    0 -0.95816370214E+01  0.18696832111E+02 -0.93841094268E+02  0.15771443143E+03  0.12500524632E+03 0.  0.
    9000005    1    3    3    0    0 -0.17422673561E+00 -0.53134734053E+02 -0.29310097152E+02  0.60691120544E+02  0.10000000000E+01 0.  0.
    9000005    1    3    3    0    0 -0.94074102857E+01  0.71831566164E+02 -0.64530997116E+02  0.97023310883E+02  0.10000000000E+01 0.  0.
          4    1    1    2  501    0  0.95816370214E+01 -0.18696832111E+02  0.34307656329E+02  0.40249316538E+02  0.12700000000E+01 0. -1.
<mgrwt>
<rscale>  1 0.12675840E+03</rscale>
<asrwt>0</asrwt>
<pdfrwt beam="1">  1       21 0.10648004E-01 0.12675840E+03</pdfrwt>
<pdfrwt beam="2">  1        4 0.19808372E-01 0.12675840E+03</pdfrwt>
<totfact> 0.66724553E+04</totfact>
</mgrwt>
</event>
<event>
 6    4  0.3189516E-003  0.1275888E+03  0.7818608E-02  0.1231078E+00
         -4   -1    0    0    0  501 -0.00000000000E+00  0.00000000000E+00  0.51953793908E+03  0.51953949132E+03  0.12700000000E+01 0. -1.
         21   -1    0    0  501  502  0.00000000000E+00 -0.00000000000E+00 -0.80685341138E+02  0.80685341138E+02  0.00000000000E+00 0.  1.
         25    2    1    2    0    0 -0.78186684278E+01 -0.24368165127E+02  0.50941717080E+03  0.52515212842E+03  0.12499586008E+03 0.  0.
    9000005    1    3    3    0    0  0.91782745371E+01 -0.56476536102E+02  0.10918169713E+03  0.12326995921E+03  0.10000000000E+01 0.  0.
    9000005    1    3    3    0    0 -0.16996942965E+02  0.32108370975E+02  0.40023547366E+03  0.40188216922E+03  0.10000000000E+01 0.  0.
         -4    1    1    2    0  502  0.78186684278E+01  0.24368165127E+02 -0.70564572860E+02  0.75072704031E+02  0.12700000000E+01 0.  1.
<mgrwt>
<rscale>  1 0.12758881E+03</rscale>
<asrwt>0</asrwt>
<pdfrwt beam="2">  1       21 0.12413130E-01 0.12758881E+03</pdfrwt>
<pdfrwt beam="1">  1       -4 0.79929800E-01 0.12758881E+03</pdfrwt>
<totfact> 0.32342517E+03</totfact>
</mgrwt>
</event>
<event>
 6    4  0.3189516E-003  0.1282476E+03  0.7818608E-02  0.1230079E+00
         21   -1    0    0  501  502  0.00000000000E+00  0.00000000000E+00  0.72040292834E+03  0.72040292834E+03  0.00000000000E+00 0. -1.
         -4   -1    0    0    0  501 -0.00000000000E+00 -0.00000000000E+00 -0.11947412695E+02  0.12014723056E+02  0.12700000000E+01 0.  1.
         25    2    1    2    0    0  0.73069108592E+01 -0.27735904085E+02  0.34900662744E+03  0.37182399165E+03  0.12499913377E+03 0.  0.
    9000005    1    3    3    0    0  0.28267595869E+02 -0.58304679552E+02  0.31472079150E+03  0.32132330951E+03  0.10000000000E+01 0.  0.
    9000005    1    3    3    0    0 -0.20960685010E+02  0.30568775467E+02  0.34285835943E+02  0.50500682134E+02  0.10000000000E+01 0.  0.
         -4    1    1    2    0  502 -0.73069108592E+01  0.27735904085E+02  0.35944888821E+03  0.36059365975E+03  0.12700000000E+01 0. -1.
<mgrwt>
<rscale>  1 0.12824763E+03</rscale>
<asrwt>0</asrwt>
<pdfrwt beam="1">  1       21 0.11083119E+00 0.12824763E+03</pdfrwt>
<pdfrwt beam="2">  1       -4 0.18433279E-02 0.12824763E+03</pdfrwt>
<totfact> 0.30318676E+04</totfact>
</mgrwt>
</event>
<event>
 6    4  0.3189516E-003  0.1418508E+03  0.7818608E-02  0.1210860E+00
         -4   -1    0    0    0  501 -0.00000000000E+00  0.00000000000E+00  0.80991506397E+02  0.81001463002E+02  0.12700000000E+01 0.  1.
         21   -1    0    0  501  502  0.00000000000E+00 -0.00000000000E+00 -0.27464643297E+03  0.27464643297E+03  0.00000000000E+00 0. -1.
         25    2    1    2    0    0 -0.65246180223E+02  0.15476588826E+02  0.90464764748E+01  0.14213897219E+03  0.12500023938E+03 0.  0.
    9000005    1    3    3    0    0 -0.21867099712E+01  0.29894123079E+02  0.55095650638E+02  0.62729347314E+02  0.10000000000E+01 0.  0.
    9000005    1    3    3    0    0 -0.63059470252E+02 -0.14417534254E+02 -0.46049174163E+02  0.79409624880E+02  0.10000000000E+01 0.  0.
         -4    1    1    2    0  502  0.65246180223E+02 -0.15476588826E+02 -0.20270140305E+03  0.21350892378E+03  0.12700000000E+01 0. -1.
<mgrwt>
<rscale>  1 0.14185080E+03</rscale>
<asrwt>0</asrwt>
<pdfrwt beam="2">  1       21 0.42253298E-01 0.14185080E+03</pdfrwt>
<pdfrwt beam="1">  1       -4 0.12461223E-01 0.14185080E+03</pdfrwt>
<totfact> 0.11570631E+04</totfact>
</mgrwt>
</event>
<event>
 6    4  0.3189516E-003  0.1377495E+03  0.7818608E-02  0.1216390E+00
          4   -1    0    0  502    0 -0.00000000000E+00  0.00000000000E+00  0.22385897306E+02  0.22421893279E+02  0.12700000000E+01 0. -1.
         21   -1    0    0  501  502  0.00000000000E+00 -0.00000000000E+00 -0.81974719203E+03  0.81974719203E+03  0.00000000000E+00 0.  1.
         25    2    1    2    0    0  0.80749161789E-02  0.57876377124E+02 -0.20497489708E+03  0.24696077547E+03  0.12500096436E+03 0.  0.
    9000005    1    3    3    0    0  0.56399306969E+02  0.51370635998E+02 -0.84922539568E+02  0.11416068411E+03  0.10000000000E+01 0.  0.
    9000005    1    3    3    0    0 -0.56391232053E+02  0.65057411256E+01 -0.12005235752E+03  0.13280009136E+03  0.10000000000E+01 0.  0.
          4    1    1    2  501    0 -0.80749161789E-02 -0.57876377124E+02 -0.59238639764E+03  0.59520830984E+03  0.12700000000E+01 0.  1.
<mgrwt>
<rscale>  1 0.13774947E+03</rscale>
<asrwt>0</asrwt>
<pdfrwt beam="2">  1       21 0.12611495E+00 0.13774947E+03</pdfrwt>
<pdfrwt beam="1">  1        4 0.34468289E-02 0.13774947E+03</pdfrwt>
<totfact> 0.84094005E+03</totfact>
</mgrwt>
</event>
<event>
 6    4  0.3189516E-003  0.1292629E+03  0.7818608E-02  0.1228554E+00
         21   -1    0    0  501  502  0.00000000000E+00  0.00000000000E+00  0.35678287410E+02  0.35678287410E+02  0.00000000000E+00 0.  1.
         -4   -1    0    0    0  501 -0.00000000000E+00 -0.00000000000E+00 -0.44924460088E+03  0.44924639600E+03  0.12700000000E+01 0. -1.
         25    2    1    2    0    0 -0.16537173615E+02  0.28494111670E+02 -0.42933936258E+03  0.44837616102E+03  0.12499400385E+03 0.  0.
    9000005    1    3    3    0    0 -0.20296227620E+02 -0.17615245444E+02 -0.37918095923E+03  0.38013344179E+03  0.10000000000E+01 0.  0.
    9000005    1    3    3    0    0  0.37590540045E+01  0.46109357113E+02 -0.50158403350E+02  0.68242719224E+02  0.10000000000E+01 0.  0.
         -4    1    1    2    0  502  0.16537173615E+02 -0.28494111670E+02  0.15773049108E+02  0.36548522394E+02  0.12700000000E+01 0.  1.
<mgrwt>
<rscale>  1 0.12926289E+03</rscale>
<asrwt>0</asrwt>
<pdfrwt beam="1">  1       21 0.54889677E-02 0.12926289E+03</pdfrwt>
<pdfrwt beam="2">  1       -4 0.69116426E-01 0.12926289E+03</pdfrwt>
<totfact> 0.18217224E+04</totfact>
</mgrwt>
</event>
<event>
 6    4  0.3189516E-003  0.1322576E+03  0.7818608E-02  0.1224144E+00
         21   -1    0    0  501  502  0.00000000000E+00  0.00000000000E+00  0.63295346415E+02  0.63295346415E+02  0.00000000000E+00 0.  1.
          4   -1    0    0  502    0 -0.00000000000E+00 -0.00000000000E+00 -0.13625009827E+03  0.13625601703E+03  0.12700000000E+01 0. -1.
         25    2    1    2    0    0  0.24315602730E+02  0.35724740743E+02 -0.81679489627E+02  0.15544649312E+03  0.12499827023E+03 0.  0.
    9000005    1    3    3    0    0  0.34557550378E+02 -0.38951674569E+02 -0.54317995173E+02  0.75252254714E+02  0.10000000000E+01 0.  0.
    9000005    1    3    3    0    0 -0.10241947648E+02  0.74676415312E+02 -0.27361494454E+02  0.80194238410E+02  0.10000000000E+01 0.  0.
          4    1    1    2  501    0 -0.24315602730E+02 -0.35724740743E+02  0.87247377740E+01  0.44104870326E+02  0.12700000000E+01 0.  1.
<mgrwt>
<rscale>  1 0.13225760E+03</rscale>
<asrwt>0</asrwt>
<pdfrwt beam="1">  1       21 0.97377457E-02 0.13225760E+03</pdfrwt>
<pdfrwt beam="2">  1        4 0.20962989E-01 0.13225760E+03</pdfrwt>
<totfact> 0.70866954E+04</totfact>
</mgrwt>
</event>
<event>
 6    4  0.3189516E-003  0.1299488E+03  0.7818608E-02  0.1227532E+00
         21   -1    0    0  501  502  0.00000000000E+00  0.00000000000E+00  0.12997490679E+04  0.12997490679E+04  0.00000000000E+00 0. -1.
         -4   -1    0    0    0  501 -0.00000000000E+00 -0.00000000000E+00 -0.79780419832E+01  0.80784932930E+01  0.12700000000E+01 0.  1.
         25    2    1    2    0    0  0.30360204746E+02 -0.18435501957E+02  0.54757584552E+03  0.56278414689E+03  0.12500031853E+03 0.  0.
    9000005    1    3    3    0    0 -0.17428170805E+02 -0.34352303765E+02  0.46107106151E+03  0.46267844739E+03  0.10000000000E+01 0.  0.
    9000005    1    3    3    0    0  0.47788375551E+02  0.15916801809E+02  0.86504784004E+02  0.10010569950E+03  0.10000000000E+01 0.  0.
         -4    1    1    2    0  502 -0.30360204746E+02  0.18435501957E+02  0.74419518040E+03  0.74504341430E+03  0.12700000000E+01 0. -1.
<mgrwt>
<rscale>  1 0.12994880E+03</rscale>
<asrwt>0</asrwt>
<pdfrwt beam="1">  1       21 0.19996123E+00 0.12994880E+03</pdfrwt>
<pdfrwt beam="2">  1       -4 0.12351669E-02 0.12994880E+03</pdfrwt>
<totfact> 0.12003647E+04</totfact>
</mgrwt>
</event>
<event>
 6    4  0.3189516E-003  0.1277961E+03  0.7818608E-02  0.1230763E+00
         -4   -1    0    0    0  501 -0.00000000000E+00  0.00000000000E+00  0.27407411911E+02  0.27436820655E+02  0.12700000000E+01 0. -1.
         21   -1    0    0  501  502  0.00000000000E+00 -0.00000000000E+00 -0.50729623668E+03  0.50729623668E+03  0.00000000000E+00 0. -1.
         25    2    1    2    0    0 -0.13411775851E+02  0.22944675132E+02 -0.12472033108E+03  0.17856932300E+03  0.12500203311E+03 0.  0.
    9000005    1    3    3    0    0 -0.42915631809E+02 -0.27762105390E+02 -0.10480292054E+03  0.11660676697E+03  0.10000000000E+01 0.  0.
    9000005    1    3    3    0    0  0.29503855958E+02  0.50706780522E+02 -0.19917410547E+02  0.61962556033E+02  0.10000000000E+01 0.  0.
         -4    1    1    2    0  502  0.13411775851E+02 -0.22944675132E+02 -0.35516849369E+03  0.35616373434E+03  0.12700000000E+01 0.  1.
<mgrwt>
<rscale>  1 0.12779610E+03</rscale>
<asrwt>0</asrwt>
<pdfrwt beam="2">  1       21 0.78045571E-01 0.12779610E+03</pdfrwt>
<pdfrwt beam="1">  1       -4 0.42189096E-02 0.12779610E+03</pdfrwt>
<totfact> 0.18688600E+04</totfact>
</mgrwt>
</event>
<event>
 6    4  0.3189516E-003  0.1338259E+03  0.7818608E-02  0.1221887E+00
         -4   -1    0    0    0  501 -0.00000000000E+00  0.00000000000E+00  0.95332896932E+02  0.95341355861E+02  0.12700000000E+01 0.  1.
         21   -1    0    0  501  502  0.00000000000E+00 -0.00000000000E+00 -0.91141906896E+02  0.91141906896E+02  0.00000000000E+00 0. -1.
         25    2    1    2    0    0 -0.14658313839E+02  0.45486268314E+02  0.21694723811E+02  0.13557294587E+03  0.12500198334E+03 0.  0.
    9000005    1    3    3    0    0 -0.63522243534E+02  0.16468533449E+01 -0.69714365420E+01  0.63932687078E+02  0.10000000000E+01 0.  0.
    9000005    1    3    3    0    0  0.48863929695E+02  0.43839414970E+02  0.28666160352E+02  0.71640258790E+02  0.10000000000E+01 0.  0.
         -4    1    1    2    0  502  0.14658313839E+02 -0.45486268314E+02 -0.17503733774E+02  0.50910316890E+02  0.12700000000E+01 0. -1.
<mgrwt>
<rscale>  1 0.13382587E+03</rscale>
<asrwt>0</asrwt>
<pdfrwt beam="2">  1       21 0.14021832E-01 0.13382587E+03</pdfrwt>
<pdfrwt beam="1">  1       -4 0.14667931E-01 0.13382587E+03</pdfrwt>
<totfact> 0.70117330E+04</totfact>
</mgrwt>
</event>
<event>
 6    4  0.3189516E-003  0.1270988E+03  0.7818608E-02  0.1231825E+00
         -4   -1    0    0    0  501 -0.00000000000E+00  0.00000000000E+00  0.20869489214E+03  0.20869875636E+03  0.12700000000E+01 0. -1.
         21   -1    0    0  501  502  0.00000000000E+00 -0.00000000000E+00 -0.27100762372E+02  0.27100762372E+02  0.00000000000E+00 0. -1.
         25    2    1    2    0    0 -0.16544441909E+02 -0.15976323905E+02  0.14827656556E+03  0.19529477249E+03  0.12500058713E+03 0.  0.
    9000005    1    3    3    0    0 -0.32306292014E+02  0.48430784526E+02  0.50062612199E+02  0.76788687537E+02  0.10000000000E+01 0.  0.
    9000005    1    3    3    0    0  0.15761850105E+02 -0.64407108431E+02  0.98213953365E+02  0.11850608495E+03  0.10000000000E+01 0.  0.
         -4    1    1    2    0  502  0.16544441909E+02  0.15976323905E+02  0.33317564205E+02  0.40504746242E+02  0.12700000000E+01 0.  1.
<mgrwt>
<rscale>  1 0.12709881E+03</rscale>
<asrwt>0</asrwt>
<pdfrwt beam="2">  1       21 0.41693482E-02 0.12709881E+03</pdfrwt>
<pdfrwt beam="1">  1       -4 0.32109492E-01 0.12709881E+03</pdfrwt>
<totfact> 0.13550328E+05</totfact>
</mgrwt>
</event>
<event>
 6    4  0.3189516E-003  0.1280244E+03  0.7818608E-02  0.1230417E+00
         21   -1    0    0  501  502  0.00000000000E+00  0.00000000000E+00  0.30855294275E+03  0.30855294275E+03  0.00000000000E+00 0. -1.
          4   -1    0    0  502    0 -0.00000000000E+00 -0.00000000000E+00 -0.20761390950E+02  0.20800198417E+02  0.12700000000E+01 0. -1.
         25    2    1    2    0    0 -0.25246967515E+02 -0.11312368573E+02  0.20154354846E+03  0.23876776689E+03  0.12499946213E+03 0.  0.
    9000005    1    3    3    0    0  0.12229911070E+02 -0.22361293871E+02  0.19787424740E+03  0.19951144321E+03  0.10000000000E+01 0.  0.
    9000005    1    3    3    0    0 -0.37476878585E+02  0.11048925299E+02  0.36693010553E+01  0.39256323681E+02  0.10000000000E+01 0.  0.
          4    1    1    2  501    0  0.25246967515E+02  0.11312368573E+02  0.86248003342E+02  0.90585374272E+02  0.12700000000E+01 0.  1.
<mgrwt>
<rscale>  1 0.12802439E+03</rscale>
<asrwt>0</asrwt>
<pdfrwt beam="1">  1       21 0.47469680E-01 0.12802439E+03</pdfrwt>
<pdfrwt beam="2">  1        4 0.31972466E-02 0.12802439E+03</pdfrwt>
<totfact> 0.83537053E+04</totfact>
</mgrwt>
</event>
<event>
 6    4  0.3189516E-003  0.1320521E+03  0.7818608E-02  0.1224442E+00
          4   -1    0    0  502    0 -0.00000000000E+00  0.00000000000E+00  0.13327441138E+02  0.13387814881E+02  0.12700000000E+01 0. -1.
         21   -1    0    0  501  502  0.00000000000E+00 -0.00000000000E+00 -0.57398417477E+03  0.57398417477E+03  0.00000000000E+00 0. -1.
         25    2    1    2    0    0 -0.13584874665E+02 -0.40347030236E+02 -0.44189979063E+03  0.46120838127E+03  0.12500125730E+03 0.  0.
    9000005    1    3    3    0    0 -0.61325106879E+02 -0.46883973881E+02 -0.19651102626E+03  0.21113137896E+03  0.10000000000E+01 0.  0.
    9000005    1    3    3    0    0  0.47740232214E+02  0.65369436442E+01 -0.24538876437E+03  0.25007700231E+03  0.10000000000E+01 0.  0.
          4    1    1    2  501    0  0.13584874665E+02  0.40347030236E+02 -0.11875694300E+03  0.12616360838E+03  0.12700000000E+01 0.  1.
<mgrwt>
<rscale>  1 0.13205206E+03</rscale>
<asrwt>0</asrwt>
<pdfrwt beam="2">  1       21 0.88305293E-01 0.13205206E+03</pdfrwt>
<pdfrwt beam="1">  1        4 0.20551270E-02 0.13205206E+03</pdfrwt>
<totfact> 0.43731698E+04</totfact>
</mgrwt>
</event>
<event>
 6    4  0.3189516E-003  0.1284758E+03  0.7818608E-02  0.1229735E+00
         21   -1    0    0  501  502  0.00000000000E+00  0.00000000000E+00  0.22429511525E+03  0.22429511525E+03  0.00000000000E+00 0.  1.
         -4   -1    0    0    0  501 -0.00000000000E+00 -0.00000000000E+00 -0.29663121856E+02  0.29690296365E+02  0.12700000000E+01 0.  1.
         25    2    1    2    0    0  0.45853267539E+01  0.29355578203E+02  0.12966312515E+03  0.18253373610E+03  0.12499305420E+03 0.  0.
    9000005    1    3    3    0    0 -0.42371911670E+02 -0.30064991583E+02  0.62709900492E+02  0.81442091311E+02  0.10000000000E+01 0.  0.
    9000005    1    3    3    0    0  0.46957238424E+02  0.59420569785E+02  0.66953224661E+02  0.10109164479E+03  0.10000000000E+01 0.  0.
         -4    1    1    2    0  502 -0.45853267539E+01 -0.29355578203E+02  0.64968868246E+02  0.71451675518E+02  0.12700000000E+01 0. -1.
<mgrwt>
<rscale>  1 0.12847583E+03</rscale>
<asrwt>0</asrwt>
<pdfrwt beam="1">  1       21 0.34506940E-01 0.12847583E+03</pdfrwt>
<pdfrwt beam="2">  1       -4 0.45659243E-02 0.12847583E+03</pdfrwt>
<totfact> 0.90046864E+04</totfact>
</mgrwt>
</event>
<event>
 6    4  0.3189516E-003  0.1293441E+03  0.7818608E-02  0.1228432E+00
         21   -1    0    0  501  502  0.00000000000E+00  0.00000000000E+00  0.10963733927E+02  0.10963733927E+02  0.00000000000E+00 0.  1.
          4   -1    0    0  502    0 -0.00000000000E+00 -0.00000000000E+00 -0.62022320001E+03  0.62022450026E+03  0.12700000000E+01 0.  1.
         25    2    1    2    0    0 -0.27065669768E+02  0.19306291566E+02 -0.43676731479E+03  0.45551684058E+03  0.12499848565E+03 0.  0.
    9000005    1    3    3    0    0 -0.60476819988E+02 -0.26771495499E+02 -0.30309134270E+03  0.31022495184E+03  0.10000000000E+01 0.  0.
    9000005    1    3    3    0    0  0.33411150220E+02  0.46077787065E+02 -0.13367597208E+03  0.14529188874E+03  0.10000000000E+01 0.  0.
          4    1    1    2  501    0  0.27065669768E+02 -0.19306291566E+02 -0.17249215129E+03  0.17567139361E+03  0.12700000000E+01 0. -1.
<mgrwt>
<rscale>  1 0.12934413E+03</rscale>
<asrwt>0</asrwt>
<pdfrwt beam="1">  1       21 0.16867272E-02 0.12934413E+03</pdfrwt>
<pdfrwt beam="2">  1        4 0.95424773E-01 0.12934413E+03</pdfrwt>
<totfact> 0.61938087E+04</totfact>
</mgrwt>
</event>
<event>
 6    4  0.3189516E-003  0.1268854E+03  0.7818608E-02  0.1232152E+00
         21   -1    0    0  501  502  0.00000000000E+00  0.00000000000E+00  0.27544538466E+03  0.27544538466E+03  0.00000000000E+00 0. -1.
         -4   -1    0    0    0  501 -0.00000000000E+00 -0.00000000000E+00 -0.83176666886E+02  0.83186361949E+02  0.12700000000E+01 0.  1.
         25    2    1    2    0    0  0.31945985394E+01  0.21540226349E+02 -0.33961945552E+02  0.13135193506E+03  0.12500292111E+03 0.  0.
    9000005    1    3    3    0    0 -0.28992921975E+02 -0.44453956669E+02 -0.19218927847E+02  0.56454503591E+02  0.10000000000E+01 0.  0.
    9000005    1    3    3    0    0  0.32187520514E+02  0.65994183018E+02 -0.14743017704E+02  0.74897431465E+02  0.10000000000E+01 0.  0.
         -4    1    1    2    0  502 -0.31945985394E+01 -0.21540226349E+02  0.22623066333E+03  0.22727981156E+03  0.12700000000E+01 0. -1.
<mgrwt>
<rscale>  1 0.12688545E+03</rscale>
<asrwt>0</asrwt>
<pdfrwt beam="1">  1       21 0.42376213E-01 0.12688545E+03</pdfrwt>
<pdfrwt beam="2">  1       -4 0.12797381E-01 0.12688545E+03</pdfrwt>
<totfact> 0.10894400E+04</totfact>
</mgrwt>
</event>
<event>
 6    4  0.3189516E-003  0.1390575E+03  0.7818608E-02  0.1214603E+00
         21   -1    0    0  501  502  0.00000000000E+00  0.00000000000E+00  0.62983422601E+02  0.62983422601E+02  0.00000000000E+00 0.  1.
         -4   -1    0    0    0  501 -0.00000000000E+00 -0.00000000000E+00 -0.16339905781E+03  0.16340399320E+03  0.12700000000E+01 0. -1.
         25    2    1    2    0    0  0.48681727603E+02  0.36651911391E+02 -0.86834683054E+02  0.16394281337E+03  0.12499484255E+03 0.  0.
    9000005    1    3    3    0    0  0.70888566790E+02  0.43224355333E+02 -0.10544697248E+03  0.13421474509E+03  0.10000000000E+01 0.  0.
    9000005    1    3    3    0    0 -0.22206839187E+02 -0.65724439421E+01  0.18612289423E+02  0.29728068279E+02  0.10000000000E+01 0.  0.
         -4    1    1    2    0  502 -0.48681727603E+02 -0.36651911391E+02 -0.13580952155E+02  0.62444602428E+02  0.12700000000E+01 0.  1.
<mgrwt>
<rscale>  1 0.13905748E+03</rscale>
<asrwt>0</asrwt>
<pdfrwt beam="1">  1       21 0.96897575E-02 0.13905748E+03</pdfrwt>
<pdfrwt beam="2">  1       -4 0.25139681E-01 0.13905748E+03</pdfrwt>
<totfact> 0.51603562E+04</totfact>
</mgrwt>
</event>
<event>
 6    4  0.3189516E-003  0.1321289E+03  0.7818608E-02  0.1224331E+00
          4   -1    0    0  502    0 -0.00000000000E+00  0.00000000000E+00  0.13047294555E+03  0.13047912638E+03  0.12700000000E+01 0. -1.
         21   -1    0    0  501  502  0.00000000000E+00 -0.00000000000E+00 -0.16338566482E+03  0.16338566482E+03  0.00000000000E+00 0.  1.
         25    2    1    2    0    0  0.41018763845E+02 -0.12308338315E+02  0.92530292117E+02  0.16130689372E+03  0.12499609923E+03 0.  0.
    9000005    1    3    3    0    0  0.66943730780E+02  0.36502109793E+02  0.61135664800E+02  0.97736567469E+02  0.10000000000E+01 0.  0.
    9000005    1    3    3    0    0 -0.25924966935E+02 -0.48810448108E+02  0.31394627317E+02  0.63570326250E+02  0.10000000000E+01 0.  0.
          4    1    1    2  501    0 -0.41018763845E+02  0.12308338315E+02 -0.12544301138E+03  0.13255789748E+03  0.12700000000E+01 0.  1.
<mgrwt>
<rscale>  1 0.13212895E+03</rscale>
<asrwt>0</asrwt>
<pdfrwt beam="2">  1       21 0.25136256E-01 0.13212895E+03</pdfrwt>
<pdfrwt beam="1">  1        4 0.20073616E-01 0.13212895E+03</pdfrwt>
<totfact> 0.13726356E+04</totfact>
</mgrwt>
</event>
<event>
 6    4  0.3189516E-003  0.1306462E+03  0.7818608E-02  0.1226500E+00
         21   -1    0    0  501  502  0.00000000000E+00  0.00000000000E+00  0.17209597153E+02  0.17209597153E+02  0.00000000000E+00 0. -1.
         -4   -1    0    0    0  501 -0.00000000000E+00 -0.00000000000E+00 -0.49483516743E+03  0.49483679716E+03  0.12700000000E+01 0.  1.
         25    2    1    2    0    0 -0.80514053667E+01 -0.37118387786E+02 -0.43830880949E+03  0.45736531515E+03  0.12500327669E+03 0.  0.
    9000005    1    3    3    0    0 -0.50449425295E+02  0.12683590311E+02 -0.29862969287E+03  0.30312820957E+03  0.10000000000E+01 0.  0.
    9000005    1    3    3    0    0  0.42398019928E+02 -0.49801978097E+02 -0.13967911663E+03  0.15423710558E+03  0.10000000000E+01 0.  0.
         -4    1    1    2    0  502  0.80514053667E+01  0.37118387786E+02 -0.39316760787E+02  0.54681079168E+02  0.12700000000E+01 0. -1.
<mgrwt>
<rscale>  1 0.13064616E+03</rscale>
<asrwt>0</asrwt>
<pdfrwt beam="1">  1       21 0.26476302E-02 0.13064616E+03</pdfrwt>
<pdfrwt beam="2">  1       -4 0.76132221E-01 0.13064616E+03</pdfrwt>
<totfact> 0.49555319E+04</totfact>
</mgrwt>
</event>
<event>
 6    4  0.3189516E-003  0.1374896E+03  0.7818608E-02  0.1216747E+00
         21   -1    0    0  501  502  0.00000000000E+00  0.00000000000E+00  0.32162538727E+02  0.32162538727E+02  0.00000000000E+00 0. -1.
         -4   -1    0    0    0  501 -0.00000000000E+00 -0.00000000000E+00 -0.31484303305E+03  0.31484559447E+03  0.12700000000E+01 0.  1.
         25    2    1    2    0    0  0.67956933027E+01  0.56853050068E+02 -0.23597119945E+03  0.27310399342E+03  0.12499973401E+03 0.  0.
    9000005    1    3    3    0    0  0.60767476583E+02  0.49623498949E+02 -0.10353547579E+03  0.12990678429E+03  0.10000000000E+01 0.  0.
    9000005    1    3    3    0    0 -0.53971783281E+02  0.72295511185E+01 -0.13243572366E+03  0.14319720912E+03  0.10000000000E+01 0.  0.
         -4    1    1    2    0  502 -0.67956933027E+01 -0.56853050068E+02 -0.46709294867E+02  0.73904139779E+02  0.12700000000E+01 0. -1.
<mgrwt>
<rscale>  1 0.13748958E+03</rscale>
<asrwt>0</asrwt>
<pdfrwt beam="1">  1       21 0.49480831E-02 0.13748958E+03</pdfrwt>
<pdfrwt beam="2">  1       -4 0.48439513E-01 0.13748958E+03</pdfrwt>
<totfact> 0.45883130E+04</totfact>
</mgrwt>
</event>
<event>
 6    4  0.3189516E-003  0.1349138E+03  0.7818608E-02  0.1220341E+00
         21   -1    0    0  501  502  0.00000000000E+00  0.00000000000E+00  0.56012988244E+01  0.56012988244E+01  0.00000000000E+00 0. -1.
         -4   -1    0    0    0  501 -0.00000000000E+00 -0.00000000000E+00 -0.16570309582E+04  0.16570314449E+04  0.12700000000E+01 0. -1.
         25    2    1    2    0    0 -0.37480349024E+02  0.34242265312E+02 -0.13727589635E+04  0.13793726531E+04  0.12499773969E+03 0.  0.
    9000005    1    3    3    0    0  0.49860554467E+01  0.31506984004E+02 -0.12297307694E+04  0.12301448354E+04  0.10000000000E+01 0.  0.
    9000005    1    3    3    0    0 -0.42466404471E+02  0.27352813078E+01 -0.14302819408E+03  0.14922781770E+03  0.10000000000E+01 0.  0.
         -4    1    1    2    0  502  0.37480349024E+02 -0.34242265312E+02 -0.27867069586E+03  0.28326009060E+03  0.12700000000E+01 0.  1.
<mgrwt>
<rscale>  1 0.13491384E+03</rscale>
<asrwt>0</asrwt>
<pdfrwt beam="1">  1       21 0.86173873E-03 0.13491384E+03</pdfrwt>
<pdfrwt beam="2">  1       -4 0.25493882E+00 0.13491384E+03</pdfrwt>
<totfact> 0.13284251E+04</totfact>
</mgrwt>
</event>
<event>
 6    4  0.3189516E-003  0.1312941E+03  0.7818608E-02  0.1225548E+00
          4   -1    0    0  502    0 -0.00000000000E+00  0.00000000000E+00  0.83457298675E+03  0.83457395305E+03  0.12700000000E+01 0.  1.
         21   -1    0    0  501  502  0.00000000000E+00 -0.00000000000E+00 -0.22298942126E+02  0.22298942126E+02  0.00000000000E+00 0. -1.
         25    2    1    2    0    0 -0.12658726899E+02 -0.38103522600E+02  0.80550524742E+03  0.81613530422E+03  0.12500403745E+03 0.  0.
    9000005    1    3    3    0    0 -0.43408591105E+02 -0.47449753927E+02  0.20688784452E+03  0.21665494488E+03  0.10000000000E+01 0.  0.
    9000005    1    3    3    0    0  0.30749864206E+02  0.93462313273E+01  0.59861740290E+03  0.59948035935E+03  0.10000000000E+01 0.  0.
          4    1    1    2  501    0  0.12658726899E+02  0.38103522600E+02  0.67687972050E+01  0.40737590955E+02  0.12700000000E+01 0. -1.
<mgrwt>
<rscale>  1 0.13129406E+03</rscale>
<asrwt>0</asrwt>
<pdfrwt beam="2">  1       21 0.34306071E-02 0.13129406E+03</pdfrwt>
<pdfrwt beam="1">  1        4 0.12839868E+00 0.13129406E+03</pdfrwt>
<totfact> 0.97086153E+03</totfact>
</mgrwt>
</event>
<event>
 6    4  0.3189516E-003  0.1584809E+03  0.7818608E-02  0.1190423E+00
         -4   -1    0    0    0  501 -0.00000000000E+00  0.00000000000E+00  0.41144098330E+02  0.41163694287E+02  0.12700000000E+01 0. -1.
         21   -1    0    0  501  502  0.00000000000E+00 -0.00000000000E+00 -0.41749429034E+03  0.41749429034E+03  0.00000000000E+00 0. -1.
         25    2    1    2    0    0  0.71555747267E+02 -0.66121280083E+02 -0.27932795311E+03  0.32115461599E+03  0.12499573326E+03 0.  0.
    9000005    1    3    3    0    0 -0.24057334680E+02 -0.51743614634E+02 -0.14343296502E+03  0.15437024474E+03  0.10000000000E+01 0.  0.
    9000005    1    3    3    0    0  0.95613081946E+02 -0.14377665449E+02 -0.13589498809E+03  0.16678437124E+03  0.10000000000E+01 0.  0.
         -4    1    1    2    0  502 -0.71555747267E+02  0.66121280083E+02 -0.97022238900E+02  0.13750336864E+03  0.12700000000E+01 0.  1.
<mgrwt>
<rscale>  1 0.15848086E+03</rscale>
<asrwt>0</asrwt>
<pdfrwt beam="2">  1       21 0.64229890E-01 0.15848086E+03</pdfrwt>
<pdfrwt beam="1">  1       -4 0.63315173E-02 0.15848086E+03</pdfrwt>
<totfact> 0.15128562E+04</totfact>
</mgrwt>
</event>
<event>
 6    4  0.3189516E-003  0.1316260E+03  0.7818608E-02  0.1225063E+00
          4   -1    0    0  502    0 -0.00000000000E+00  0.00000000000E+00  0.40196877138E+02  0.40216934637E+02  0.12700000000E+01 0. -1.
         21   -1    0    0  501  502  0.00000000000E+00 -0.00000000000E+00 -0.32002537596E+03  0.32002537596E+03  0.00000000000E+00 0.  1.
         25    2    1    2    0    0  0.14899259512E+02  0.38452902907E+02 -0.75400796934E+02  0.15169276762E+03  0.12499920758E+03 0.  0.
    9000005    1    3    3    0    0 -0.45431316689E+02  0.40606435622E+02 -0.84275277248E+01  0.61521625251E+02  0.10000000000E+01 0.  0.
    9000005    1    3    3    0    0  0.60330576201E+02 -0.21535327148E+01 -0.66973269209E+02  0.90171142371E+02  0.10000000000E+01 0.  0.
          4    1    1    2  501    0 -0.14899259512E+02 -0.38452902907E+02 -0.20442770189E+03  0.20854954297E+03  0.12700000000E+01 0.  1.
<mgrwt>
<rscale>  1 0.13162604E+03</rscale>
<asrwt>0</asrwt>
<pdfrwt beam="2">  1       21 0.49234670E-01 0.13162604E+03</pdfrwt>
<pdfrwt beam="1">  1        4 0.61858720E-02 0.13162604E+03</pdfrwt>
<totfact> 0.27104756E+04</totfact>
</mgrwt>
</event>
<event>
 6    4  0.3189516E-003  0.1317133E+03  0.7818608E-02  0.1224935E+00
         21   -1    0    0  501  502  0.00000000000E+00  0.00000000000E+00  0.53948545061E+03  0.53948545061E+03  0.00000000000E+00 0.  1.
          4   -1    0    0  502    0 -0.00000000000E+00 -0.00000000000E+00 -0.27419073935E+02  0.27448470184E+02  0.12700000000E+01 0. -1.
         25    2    1    2    0    0 -0.12987934923E+02 -0.39423766375E+02  0.13873591947E+03  0.19130090442E+03  0.12500184348E+03 0.  0.
    9000005    1    3    3    0    0  0.94750953220E+01  0.12789017200E+02  0.13323579673E+03  0.13418686196E+03  0.10000000000E+01 0.  0.
    9000005    1    3    3    0    0 -0.22463030245E+02 -0.52212783575E+02  0.55001227367E+01  0.57114042464E+02  0.10000000000E+01 0.  0.
          4    1    1    2  501    0  0.12987934923E+02  0.39423766375E+02  0.37333045721E+03  0.37563301637E+03  0.12700000000E+01 0.  1.
<mgrwt>
<rscale>  1 0.13171325E+03</rscale>
<asrwt>0</asrwt>
<pdfrwt beam="1">  1       21 0.82997754E-01 0.13171325E+03</pdfrwt>
<pdfrwt beam="2">  1        4 0.42206957E-02 0.13171325E+03</pdfrwt>
<totfact> 0.16314133E+04</totfact>
</mgrwt>
</event>
<event>
 6    4  0.3189516E-003  0.1267715E+03  0.7818608E-02  0.1232326E+00
         -4   -1    0    0    0  501 -0.00000000000E+00  0.00000000000E+00  0.88568046962E+03  0.88568138016E+03  0.12700000000E+01 0. -1.
         21   -1    0    0  501  502  0.00000000000E+00 -0.00000000000E+00 -0.95660442685E+01  0.95660442685E+01  0.00000000000E+00 0.  1.
         25    2    1    2    0    0  0.20574789090E+02  0.49224903283E+01  0.85815397651E+03  0.86746715302E+03  0.12499384508E+03 0.  0.
    9000005    1    3    3    0    0  0.38415887145E+02  0.11258591845E+02  0.83748910613E+02  0.92830039881E+02  0.10000000000E+01 0.  0.
    9000005    1    3    3    0    0 -0.17841098055E+02 -0.63361015171E+01  0.77440506590E+03  0.77463711314E+03  0.10000000000E+01 0.  0.
         -4    1    1    2    0  502 -0.20574789090E+02 -0.49224903283E+01  0.17960448838E+02  0.27780271409E+02  0.12700000000E+01 0.  1.
<mgrwt>
<rscale>  1 0.12677150E+03</rscale>
<asrwt>0</asrwt>
<pdfrwt beam="2">  1       21 0.14716998E-02 0.12677150E+03</pdfrwt>
<pdfrwt beam="1">  1       -4 0.13626502E+00 0.12677150E+03</pdfrwt>
<totfact> 0.32971717E+04</totfact>
</mgrwt>
</event>
<event>
 6    4  0.3189516E-003  0.1351803E+03  0.7818608E-02  0.1219965E+00
         21   -1    0    0  501  502  0.00000000000E+00  0.00000000000E+00  0.15452403330E+03  0.15452403330E+03  0.00000000000E+00 0. -1.
          4   -1    0    0  502    0 -0.00000000000E+00 -0.00000000000E+00 -0.16173191333E+03  0.16173689959E+03  0.12700000000E+01 0. -1.
         25    2    1    2    0    0 -0.37852129264E+02  0.34825477793E+02 -0.12725391698E+03  0.18565365330E+03  0.12501248740E+03 0.  0.
    9000005    1    3    3    0    0 -0.22012847425E+02  0.42090584950E+02 -0.14979263970E+03  0.15714648485E+03  0.10000000000E+01 0.  0.
    9000005    1    3    3    0    0 -0.15839281839E+02 -0.72651071569E+01  0.22538722722E+02  0.28507168451E+02  0.10000000000E+01 0.  0.
          4    1    1    2  501    0  0.37852129264E+02 -0.34825477793E+02  0.12004603695E+03  0.13060727959E+03  0.12700000000E+01 0.  1.
<mgrwt>
<rscale>  1 0.13518032E+03</rscale>
<asrwt>0</asrwt>
<pdfrwt beam="1">  1       21 0.23772928E-01 0.13518032E+03</pdfrwt>
<pdfrwt beam="2">  1        4 0.24882618E-01 0.13518032E+03</pdfrwt>
<totfact> 0.10332363E+04</totfact>
</mgrwt>
</event>
<event>
 6    4  0.3189516E-003  0.1266666E+03  0.7818608E-02  0.1232487E+00
         -4   -1    0    0    0  501 -0.00000000000E+00  0.00000000000E+00  0.58706924223E+02  0.58720659497E+02  0.12700000000E+01 0. -1.
         21   -1    0    0  501  502  0.00000000000E+00 -0.00000000000E+00 -0.94917861509E+02  0.94917861509E+02  0.00000000000E+00 0. -1.
         25    2    1    2    0    0 -0.15253352226E+02  0.13689344655E+02 -0.21743766905E+02  0.12851930864E+03  0.12499743350E+03 0.  0.
    9000005    1    3    3    0    0  0.23930231985E+02 -0.29185601019E+02 -0.51017819625E+02  0.63468679118E+02  0.10000000000E+01 0.  0.
    9000005    1    3    3    0    0 -0.39183584211E+02  0.42874945674E+02  0.29274052720E+02  0.65050629519E+02  0.10000000000E+01 0.  0.
         -4    1    1    2    0  502  0.15253352226E+02 -0.13689344655E+02 -0.14467170381E+02  0.25119212369E+02  0.12700000000E+01 0.  1.
<mgrwt>
<rscale>  1 0.12666658E+03</rscale>
<asrwt>0</asrwt>
<pdfrwt beam="2">  1       21 0.14602748E-01 0.12666658E+03</pdfrwt>
<pdfrwt beam="1">  1       -4 0.90335446E-02 0.12666658E+03</pdfrwt>
<totfact> 0.14774326E+05</totfact>
</mgrwt>
</event>
<event>
 6    4  0.3189516E-003  0.1266465E+03  0.7818608E-02  0.1232518E+00
          4   -1    0    0  502    0 -0.00000000000E+00  0.00000000000E+00  0.60173111597E+02  0.60186512270E+02  0.12700000000E+01 0. -1.
         21   -1    0    0  501  502  0.00000000000E+00 -0.00000000000E+00 -0.12741587876E+03  0.12741587876E+03  0.00000000000E+00 0. -1.
         25    2    1    2    0    0 -0.16992227794E+01 -0.20278549610E+02 -0.10236503101E+02  0.12705956342E+03  0.12500095891E+03 0.  0.
    9000005    1    3    3    0    0  0.18595067148E+02  0.40739702024E+02  0.27433323623E+02  0.52527012939E+02  0.10000000000E+01 0.  0.
    9000005    1    3    3    0    0 -0.20294289927E+02 -0.61018251634E+02 -0.37669826724E+02  0.74532550484E+02  0.10000000000E+01 0.  0.
          4    1    1    2  501    0  0.16992227794E+01  0.20278549610E+02 -0.57006264062E+02  0.60542827607E+02  0.12700000000E+01 0.  1.
<mgrwt>
<rscale>  1 0.12664654E+03</rscale>
<asrwt>0</asrwt>
<pdfrwt beam="2">  1       21 0.19602443E-01 0.12664654E+03</pdfrwt>
<pdfrwt beam="1">  1        4 0.92589196E-02 0.12664654E+03</pdfrwt>
<totfact> 0.82955735E+04</totfact>
</mgrwt>
</event>
<event>
 6    4  0.3189516E-003  0.1365244E+03  0.7818608E-02  0.1218084E+00
          4   -1    0    0  502    0 -0.00000000000E+00  0.00000000000E+00  0.81519310839E+02  0.81529202987E+02  0.12700000000E+01 0.  1.
         21   -1    0    0  501  502  0.00000000000E+00 -0.00000000000E+00 -0.15591698802E+03  0.15591698802E+03  0.00000000000E+00 0. -1.
         25    2    1    2    0    0 -0.19436392926E+02  0.51336316652E+02  0.98567451506E+01  0.13687973855E+03  0.12500286646E+03 0.  0.
    9000005    1    3    3    0    0  0.33000964159E+02  0.65557395445E+02 -0.18340953842E+02  0.75658616963E+02  0.10000000000E+01 0.  0.
    9000005    1    3    3    0    0 -0.52437357085E+02 -0.14221078793E+02  0.28197698992E+02  0.61221121588E+02  0.10000000000E+01 0.  0.
          4    1    1    2  501    0  0.19436392926E+02 -0.51336316652E+02 -0.84254422335E+02  0.10056645246E+03  0.12700000000E+01 0. -1.
<mgrwt>
<rscale>  1 0.13652438E+03</rscale>
<asrwt>0</asrwt>
<pdfrwt beam="2">  1       21 0.23987229E-01 0.13652438E+03</pdfrwt>
<pdfrwt beam="1">  1        4 0.12542591E-01 0.13652438E+03</pdfrwt>
<totfact> 0.34352461E+04</totfact>
</mgrwt>
</event>
<event>
 6    4  0.3189516E-003  0.1297267E+03  0.7818608E-02  0.1227862E+00
         21   -1    0    0  501  502  0.00000000000E+00  0.00000000000E+00  0.38809187070E+02  0.38809187070E+02  0.00000000000E+00 0.  1.
          4   -1    0    0  502    0 -0.00000000000E+00 -0.00000000000E+00 -0.17844924756E+03  0.17845376671E+03  0.12700000000E+01 0.  1.
         25    2    1    2    0    0 -0.33255738823E+02  0.98788461962E+01 -0.12299082529E+03  0.17876171095E+03  0.12500188171E+03 0.  0.
    9000005    1    3    3    0    0 -0.80977829704E+02  0.62041274806E+00 -0.80515746391E+02  0.11419973394E+03  0.10000000000E+01 0.  0.
    9000005    1    3    3    0    0  0.47722090881E+02  0.92584334481E+01 -0.42475078901E+02  0.64561977011E+02  0.10000000000E+01 0.  0.
          4    1    1    2  501    0  0.33255738823E+02 -0.98788461962E+01 -0.16649235198E+02  0.38501242830E+02  0.12700000000E+01 0. -1.
<mgrwt>
<rscale>  1 0.12972666E+03</rscale>
<asrwt>0</asrwt>
<pdfrwt beam="1">  1       21 0.59706441E-02 0.12972666E+03</pdfrwt>
<pdfrwt beam="2">  1        4 0.27455677E-01 0.12972666E+03</pdfrwt>
<totfact> 0.99906826E+04</totfact>
</mgrwt>
</event>
<event>
 6    4  0.3189516E-003  0.1283252E+03  0.7818608E-02  0.1229962E+00
          4   -1    0    0  502    0 -0.00000000000E+00  0.00000000000E+00  0.17182878367E+03  0.17183347694E+03  0.12700000000E+01 0. -1.
         21   -1    0    0  501  502  0.00000000000E+00 -0.00000000000E+00 -0.18614180113E+03  0.18614180113E+03  0.00000000000E+00 0.  1.
         25    2    1    2    0    0 -0.27370417760E+02 -0.96406903405E+01  0.14638761028E+03  0.19467069352E+03  0.12500105517E+03 0.  0.
    9000005    1    3    3    0    0  0.48409984866E+01 -0.28809254189E+02  0.15371087684E+03  0.15646546600E+03  0.10000000000E+01 0.  0.
    9000005    1    3    3    0    0 -0.32211416247E+02  0.19168563849E+02 -0.73232665601E+01  0.38205227519E+02  0.10000000000E+01 0.  0.
          4    1    1    2  501    0  0.27370417760E+02  0.96406903405E+01 -0.16070062774E+03  0.16330458455E+03  0.12700000000E+01 0.  1.
<mgrwt>
<rscale>  1 0.12832516E+03</rscale>
<asrwt>0</asrwt>
<pdfrwt beam="2">  1       21 0.28637200E-01 0.12832516E+03</pdfrwt>
<pdfrwt beam="1">  1        4 0.26435892E-01 0.12832516E+03</pdfrwt>
<totfact> 0.64591615E+03</totfact>
</mgrwt>
</event>
<event>
 6    4  0.3189516E-003  0.1280923E+03  0.7818608E-02  0.1230314E+00
         -4   -1    0    0    0  501 -0.00000000000E+00  0.00000000000E+00  0.13712378829E+02  0.13771065070E+02  0.12700000000E+01 0. -1.
         21   -1    0    0  501  502  0.00000000000E+00 -0.00000000000E+00 -0.96686652860E+03  0.96686652860E+03  0.00000000000E+00 0. -1.
         25    2    1    2    0    0 -0.18793372746E+02 -0.20722275802E+02 -0.29163139655E+03  0.31852236993E+03  0.12500010048E+03 0.  0.
    9000005    1    3    3    0    0 -0.29355819757E+02 -0.65257849044E+02 -0.23525074941E+03  0.24589482734E+03  0.10000000000E+01 0.  0.
    9000005    1    3    3    0    0  0.10562447011E+02  0.44535573242E+02 -0.56380647133E+02  0.72627542585E+02  0.10000000000E+01 0.  0.
         -4    1    1    2    0  502  0.18793372746E+02  0.20722275802E+02 -0.66152275322E+03  0.66211522374E+03  0.12700000000E+01 0.  1.
<mgrwt>
<rscale>  1 0.12809227E+03</rscale>
<asrwt>0</asrwt>
<pdfrwt beam="2">  1       21 0.14874873E+00 0.12809227E+03</pdfrwt>
<pdfrwt beam="1">  1       -4 0.21141747E-02 0.12809227E+03</pdfrwt>
<totfact> 0.11827845E+04</totfact>
</mgrwt>
</event>
<event>
 6    4  0.3189516E-003  0.1272561E+03  0.7818608E-02  0.1231585E+00
         -4   -1    0    0    0  501 -0.00000000000E+00  0.00000000000E+00  0.18491885887E+04  0.18491890249E+04  0.12700000000E+01 0. -1.
         21   -1    0    0  501  502  0.00000000000E+00 -0.00000000000E+00 -0.34101363903E+01  0.34101363903E+01  0.00000000000E+00 0. -1.
         25    2    1    2    0    0  0.19409757727E+02 -0.13890923155E+02  0.17103496340E+04  0.17150772569E+04  0.12499772030E+03 0.  0.
    9000005    1    3    3    0    0  0.30750419030E+02  0.51811446765E+02  0.87251245336E+03  0.87459075891E+03  0.10000000000E+01 0.  0.
    9000005    1    3    3    0    0 -0.11340661303E+02 -0.65702369920E+02  0.83783718062E+03  0.84048649795E+03  0.10000000000E+01 0.  0.
         -4    1    1    2    0  502 -0.19409757727E+02  0.13890923155E+02  0.13542881837E+03  0.13752190438E+03  0.12700000000E+01 0.  1.
<mgrwt>
<rscale>  1 0.12725615E+03</rscale>
<asrwt>0</asrwt>
<pdfrwt beam="2">  1       21 0.52463785E-03 0.12725615E+03</pdfrwt>
<pdfrwt beam="1">  1       -4 0.28450798E+00 0.12725615E+03</pdfrwt>
<totfact> 0.19397599E+04</totfact>
</mgrwt>
</event>
<event>
 6    4  0.3189516E-003  0.1304246E+03  0.7818608E-02  0.1226827E+00
         21   -1    0    0  501  502  0.00000000000E+00  0.00000000000E+00  0.84171589036E+03  0.84171589036E+03  0.00000000000E+00 0. -1.
         -4   -1    0    0    0  501 -0.00000000000E+00 -0.00000000000E+00 -0.10217299313E+02  0.10295926634E+02  0.12700000000E+01 0. -1.
         25    2    1    2    0    0  0.22372837630E+02 -0.29702018924E+02  0.44480012982E+03  0.46352749735E+03  0.12501132557E+03 0.  0.
    9000005    1    3    3    0    0  0.74323984430E+02 -0.15928635997E+02  0.28296349390E+03  0.29299678324E+03  0.10000000000E+01 0.  0.
    9000005    1    3    3    0    0 -0.51951146800E+02 -0.13773382927E+02  0.16183663592E+03  0.17053071411E+03  0.10000000000E+01 0.  0.
         -4    1    1    2    0  502 -0.22372837630E+02  0.29702018924E+02  0.38669846123E+03  0.38848431964E+03  0.12700000000E+01 0.  1.
<mgrwt>
<rscale>  1 0.13042463E+03</rscale>
<asrwt>0</asrwt>
<pdfrwt beam="1">  1       21 0.12949470E+00 0.13042463E+03</pdfrwt>
<pdfrwt beam="2">  1       -4 0.15780148E-02 0.13042463E+03</pdfrwt>
<totfact> 0.26349384E+04</totfact>
</mgrwt>
</event>
<event>
 6    4  0.3189516E-003  0.1276475E+03  0.7818608E-02  0.1230989E+00
         21   -1    0    0  501  502  0.00000000000E+00  0.00000000000E+00  0.16436760546E+03  0.16436760546E+03  0.00000000000E+00 0. -1.
         -4   -1    0    0    0  501 -0.00000000000E+00 -0.00000000000E+00 -0.62471954766E+02  0.62484862425E+02  0.12700000000E+01 0. -1.
         25    2    1    2    0    0  0.25722819529E+02 -0.21108405513E+01  0.62748558515E+01  0.12780163044E+03  0.12501105485E+03 0.  0.
    9000005    1    3    3    0    0  0.64089281221E+02  0.35104221871E+02 -0.46834228772E+01  0.73230299811E+02  0.10000000000E+01 0.  0.
    9000005    1    3    3    0    0 -0.38366461692E+02 -0.37215062422E+02  0.10958278729E+02  0.54571330628E+02  0.10000000000E+01 0.  0.
         -4    1    1    2    0  502 -0.25722819529E+02  0.21108405513E+01  0.95620794843E+02  0.99050837446E+02  0.12700000000E+01 0.  1.
<mgrwt>
<rscale>  1 0.12764749E+03</rscale>
<asrwt>0</asrwt>
<pdfrwt beam="1">  1       21 0.25287324E-01 0.12764749E+03</pdfrwt>
<pdfrwt beam="2">  1       -4 0.96124403E-02 0.12764749E+03</pdfrwt>
<totfact> 0.48471980E+04</totfact>
</mgrwt>
</event>
<event>
 6    4  0.3189516E-003  0.1278006E+03  0.7818608E-02  0.1230756E+00
          4   -1    0    0  502    0 -0.00000000000E+00  0.00000000000E+00  0.39630322422E+02  0.39650666517E+02  0.12700000000E+01 0.  1.
         21   -1    0    0  501  502  0.00000000000E+00 -0.00000000000E+00 -0.20665686211E+03  0.20665686211E+03  0.00000000000E+00 0. -1.
         25    2    1    2    0    0  0.21106704626E+02 -0.16209785476E+02 -0.70053896700E+02  0.14574134886E+03  0.12499896879E+03 0.  0.
    9000005    1    3    3    0    0  0.20928847909E+02 -0.18994816435E+02  0.32535622997E+02  0.43109007064E+02  0.10000000000E+01 0.  0.
    9000005    1    3    3    0    0  0.17785671694E+00  0.27850309591E+01 -0.10258951970E+03  0.10263234179E+03  0.10000000000E+01 0.  0.
          4    1    1    2  501    0 -0.21106704626E+02  0.16209785476E+02 -0.96972642989E+02  0.10056617977E+03  0.12700000000E+01 0. -1.
<mgrwt>
<rscale>  1 0.12780060E+03</rscale>
<asrwt>0</asrwt>
<pdfrwt beam="2">  1       21 0.31793364E-01 0.12780060E+03</pdfrwt>
<pdfrwt beam="1">  1        4 0.60988377E-02 0.12780060E+03</pdfrwt>
<totfact> 0.66230930E+04</totfact>
</mgrwt>
</event>
<event>
 6    4  0.3189516E-003  0.1323573E+03  0.7818608E-02  0.1223999E+00
         21   -1    0    0  501  502  0.00000000000E+00  0.00000000000E+00  0.40658091118E+02  0.40658091118E+02  0.00000000000E+00 0.  1.
          4   -1    0    0  502    0 -0.00000000000E+00 -0.00000000000E+00 -0.51228615873E+03  0.51228773295E+03  0.12700000000E+01 0. -1.
         25    2    1    2    0    0 -0.32481840688E+02 -0.28955621830E+02 -0.48860881636E+03  0.50621835101E+03  0.12499978188E+03 0.  0.
    9000005    1    3    3    0    0  0.38032557359E+02 -0.29812549101E+02 -0.97747563694E+02  0.10904517280E+03  0.10000000000E+01 0.  0.
    9000005    1    3    3    0    0 -0.70514398047E+02  0.85692727122E+00 -0.39086125266E+03  0.39717317821E+03  0.10000000000E+01 0.  0.
          4    1    1    2  501    0  0.32481840688E+02  0.28955621830E+02  0.16980748745E+02  0.46727473053E+02  0.12700000000E+01 0.  1.
<mgrwt>
<rscale>  1 0.13235726E+03</rscale>
<asrwt>0</asrwt>
<pdfrwt beam="1">  1       21 0.62550910E-02 0.13235726E+03</pdfrwt>
<pdfrwt beam="2">  1        4 0.78814902E-01 0.13235726E+03</pdfrwt>
<totfact> 0.10997661E+04</totfact>
</mgrwt>
</event>
<event>
 6    4  0.3189516E-003  0.1268611E+03  0.7818608E-02  0.1232189E+00
         -4   -1    0    0    0  501 -0.00000000000E+00  0.00000000000E+00  0.16681200679E+02  0.16729475667E+02  0.12700000000E+01 0. -1.
         21   -1    0    0  501  502  0.00000000000E+00 -0.00000000000E+00 -0.34839903965E+03  0.34839903965E+03  0.00000000000E+00 0. -1.
         25    2    1    2    0    0  0.20799372083E+02  0.60526445295E+01 -0.24697469518E+03  0.27765130854E+03  0.12499800276E+03 0.  0.
    9000005    1    3    3    0    0  0.62119142101E+02 -0.26302786186E+02 -0.18213315257E+03  0.19422695395E+03  0.10000000000E+01 0.  0.
    9000005    1    3    3    0    0 -0.41319770018E+02  0.32355430715E+02 -0.64841542605E+02  0.83424354589E+02  0.10000000000E+01 0.  0.
         -4    1    1    2    0  502 -0.20799372083E+02 -0.60526445295E+01 -0.84743143793E+02  0.87477206773E+02  0.12700000000E+01 0.  1.
<mgrwt>
<rscale>  1 0.12686114E+03</rscale>
<asrwt>0</asrwt>
<pdfrwt beam="2">  1       21 0.53599853E-01 0.12686114E+03</pdfrwt>
<pdfrwt beam="1">  1       -4 0.25702300E-02 0.12686114E+03</pdfrwt>
<totfact> 0.91301616E+04</totfact>
</mgrwt>
</event>
<event>
 6    4  0.3189516E-003  0.1286670E+03  0.7818608E-02  0.1229447E+00
         21   -1    0    0  501  502  0.00000000000E+00  0.00000000000E+00  0.31532558194E+03  0.31532558194E+03  0.00000000000E+00 0.  1.
         -4   -1    0    0    0  501 -0.00000000000E+00 -0.00000000000E+00 -0.53713483106E+02  0.53728494930E+02  0.12700000000E+01 0. -1.
         25    2    1    2    0    0 -0.15964241049E+02 -0.26002211545E+02  0.25743947457E+02  0.13121722159E+03  0.12499694561E+03 0.  0.
    9000005    1    3    3    0    0  0.10051013834E+02 -0.70041570720E+02  0.35444623663E+02  0.79146483527E+02  0.10000000000E+01 0.  0.
    9000005    1    3    3    0    0 -0.26015254883E+02  0.44039359175E+02 -0.97006762062E+01  0.52070738059E+02  0.10000000000E+01 0.  0.
         -4    1    1    2    0  502  0.15964241049E+02  0.26002211545E+02  0.23586815138E+03  0.23783685528E+03  0.12700000000E+01 0.  1.
<mgrwt>
<rscale>  1 0.12866704E+03</rscale>
<asrwt>0</asrwt>
<pdfrwt beam="1">  1       21 0.48511627E-01 0.12866704E+03</pdfrwt>
<pdfrwt beam="2">  1       -4 0.82649645E-02 0.12866704E+03</pdfrwt>
<totfact> 0.17323195E+04</totfact>
</mgrwt>
</event>
<event>
 6    4  0.3189516E-003  0.1275758E+03  0.7818608E-02  0.1231098E+00
         -4   -1    0    0    0  501 -0.00000000000E+00  0.00000000000E+00  0.70136482661E+03  0.70136597644E+03  0.12700000000E+01 0. -1.
         21   -1    0    0  501  502  0.00000000000E+00 -0.00000000000E+00 -0.90307890673E+01  0.90307890673E+01  0.00000000000E+00 0.  1.
         25    2    1    2    0    0  0.11647979923E+01 -0.25473374300E+02  0.63418303374E+03  0.64688769768E+03  0.12500129430E+03 0.  0.
    9000005    1    3    3    0    0 -0.11502867730E+01 -0.55465899876E+02  0.59448868971E+03  0.59707251771E+03  0.10000000000E+01 0.  0.
    9000005    1    3    3    0    0  0.23150847653E+01  0.29992525576E+02  0.39694344031E+02  0.49815179975E+02  0.10000000000E+01 0.  0.
         -4    1    1    2    0  502 -0.11647979923E+01  0.25473374300E+02  0.58151003799E+02  0.63509067821E+02  0.12700000000E+01 0.  1.
<mgrwt>
<rscale>  1 0.12757575E+03</rscale>
<asrwt>0</asrwt>
<pdfrwt beam="2">  1       21 0.13893527E-02 0.12757575E+03</pdfrwt>
<pdfrwt beam="1">  1       -4 0.10790920E+00 0.12757575E+03</pdfrwt>
<totfact> 0.63384730E+04</totfact>
</mgrwt>
</event>
<event>
 6    4  0.3189516E-003  0.1301759E+03  0.7818608E-02  0.1227195E+00
         21   -1    0    0  501  502  0.00000000000E+00  0.00000000000E+00  0.52155034246E+03  0.52155034246E+03  0.00000000000E+00 0.  1.
         -4   -1    0    0    0  501 -0.00000000000E+00 -0.00000000000E+00 -0.25136442662E+02  0.25168505115E+02  0.12700000000E+01 0. -1.
         25    2    1    2    0    0 -0.23294786054E+02  0.27887763697E+02  0.15087065222E+03  0.19926795426E+03  0.12500155788E+03 0.  0.
    9000005    1    3    3    0    0 -0.48436882366E+02  0.56597245215E+02  0.45742093387E+02  0.87422644930E+02  0.10000000000E+01 0.  0.
    9000005    1    3    3    0    0  0.25142096312E+02 -0.28709481518E+02  0.10512855884E+03  0.11184530933E+03  0.10000000000E+01 0.  0.
         -4    1    1    2    0  502  0.23294786054E+02 -0.27887763697E+02  0.34554324758E+03  0.34745089332E+03  0.12700000000E+01 0.  1.
<mgrwt>
<rscale>  1 0.13017590E+03</rscale>
<asrwt>0</asrwt>
<pdfrwt beam="1">  1       21 0.80238506E-01 0.13017590E+03</pdfrwt>
<pdfrwt beam="2">  1       -4 0.38697307E-02 0.13017590E+03</pdfrwt>
<totfact> 0.20182083E+04</totfact>
</mgrwt>
</event>
<event>
 6    4  0.3189516E-003  0.1361097E+03  0.7818608E-02  0.1218662E+00
         21   -1    0    0  501  502  0.00000000000E+00  0.00000000000E+00  0.91201606833E+02  0.91201606833E+02  0.00000000000E+00 0. -1.
         -4   -1    0    0    0  501 -0.00000000000E+00 -0.00000000000E+00 -0.19319336931E+03  0.19319754358E+03  0.12700000000E+01 0.  1.
         25    2    1    2    0    0 -0.53602151125E+02 -0.52113415872E+01 -0.15674194404E+03  0.20759066150E+03  0.12500198813E+03 0.  0.
    9000005    1    3    3    0    0 -0.19435165456E+00 -0.57687219467E+02 -0.92039975382E+02  0.10862877211E+03  0.10000000000E+01 0.  0.
    9000005    1    3    3    0    0 -0.53407799470E+02  0.52475877880E+02 -0.64701968658E+02  0.98961889391E+02  0.10000000000E+01 0.  0.
         -4    1    1    2    0  502  0.53602151125E+02  0.52113415872E+01  0.54750181567E+02  0.76808488906E+02  0.12700000000E+01 0. -1.
<mgrwt>
<rscale>  1 0.13610968E+03</rscale>
<asrwt>0</asrwt>
<pdfrwt beam="1">  1       21 0.14031016E-01 0.13610968E+03</pdfrwt>
<pdfrwt beam="2">  1       -4 0.29723058E-01 0.13610968E+03</pdfrwt>
<totfact> 0.19544892E+04</totfact>
</mgrwt>
</event>
<event>
 6    4  0.3189516E-003  0.1270748E+03  0.7818608E-02  0.1231862E+00
         -4   -1    0    0    0  501 -0.00000000000E+00  0.00000000000E+00  0.22545263265E+03  0.22545620965E+03  0.12700000000E+01 0.  1.
         21   -1    0    0  501  502  0.00000000000E+00 -0.00000000000E+00 -0.38229636680E+02  0.38229636680E+02  0.00000000000E+00 0. -1.
         25    2    1    2    0    0 -0.19122121899E+02 -0.12514240990E+02  0.20038662567E+03  0.23728213787E+03  0.12500300568E+03 0.  0.
    9000005    1    3    3    0    0  0.23469544806E+02  0.23572659066E+02  0.44853892520E+01  0.33579882454E+02  0.10000000000E+01 0.  0.
    9000005    1    3    3    0    0 -0.42591666705E+02 -0.36086900056E+02  0.19590123642E+03  0.20370225541E+03  0.10000000000E+01 0.  0.
         -4    1    1    2    0  502  0.19122121899E+02  0.12514240990E+02 -0.13163629705E+02  0.26403708460E+02  0.12700000000E+01 0. -1.
<mgrwt>
<rscale>  1 0.12707483E+03</rscale>
<asrwt>0</asrwt>
<pdfrwt beam="2">  1       21 0.58814827E-02 0.12707483E+03</pdfrwt>
<pdfrwt beam="1">  1       -4 0.34686917E-01 0.12707483E+03</pdfrwt>
<totfact> 0.65610417E+04</totfact>
</mgrwt>
</event>
<event>
 6    4  0.3189516E-003  0.1454865E+03  0.7818608E-02  0.1206131E+00
         21   -1    0    0  501  502  0.00000000000E+00  0.00000000000E+00  0.10319636663E+03  0.10319636663E+03  0.00000000000E+00 0.  1.
          4   -1    0    0  502    0 -0.00000000000E+00 -0.00000000000E+00 -0.12668619455E+03  0.12669256012E+03  0.12700000000E+01 0.  1.
         25    2    1    2    0    0  0.28528669298E+02 -0.68749198155E+02  0.14687780725E+02  0.14622603222E+03  0.12500393745E+03 0.  0.
    9000005    1    3    3    0    0  0.22541419546E+02 -0.64129100180E+02  0.65762237091E+02  0.94585035350E+02  0.10000000000E+01 0.  0.
    9000005    1    3    3    0    0  0.59872497524E+01 -0.46200979758E+01 -0.51074456366E+02  0.51640996873E+02  0.10000000000E+01 0.  0.
          4    1    1    2  501    0 -0.28528669298E+02  0.68749198155E+02 -0.38177608646E+02  0.83662894528E+02  0.12700000000E+01 0. -1.
<mgrwt>
<rscale>  1 0.14548650E+03</rscale>
<asrwt>0</asrwt>
<pdfrwt beam="1">  1       21 0.15876364E-01 0.14548650E+03</pdfrwt>
<pdfrwt beam="2">  1        4 0.19491274E-01 0.14548650E+03</pdfrwt>
<totfact> 0.34219443E+04</totfact>
</mgrwt>
</event>
<event>
 6    4  0.3189516E-003  0.1274114E+03  0.7818608E-02  0.1231348E+00
          4   -1    0    0  502    0 -0.00000000000E+00  0.00000000000E+00  0.31991525458E+02  0.32016723773E+02  0.12700000000E+01 0.  1.
         21   -1    0    0  501  502  0.00000000000E+00 -0.00000000000E+00 -0.21936129820E+03  0.21936129820E+03  0.00000000000E+00 0.  1.
         25    2    1    2    0    0 -0.94926291154E+01  0.22766939229E+02 -0.10412682827E+03  0.16454804884E+03  0.12500088193E+03 0.  0.
    9000005    1    3    3    0    0  0.16498040931E+02 -0.25180106085E+02  0.14909901697E+02  0.33608455269E+02  0.10000000000E+01 0.  0.
    9000005    1    3    3    0    0 -0.25990670046E+02  0.47947045314E+02 -0.11903672997E+03  0.13093959357E+03  0.10000000000E+01 0.  0.
          4    1    1    2  501    0  0.94926291154E+01 -0.22766939229E+02 -0.83242944467E+02  0.86829973126E+02  0.12700000000E+01 0. -1.
<mgrwt>
<rscale>  1 0.12741140E+03</rscale>
<asrwt>0</asrwt>
<pdfrwt beam="2">  1       21 0.33747893E-01 0.12741140E+03</pdfrwt>
<pdfrwt beam="1">  1        4 0.49239941E-02 0.12741140E+03</pdfrwt>
<totfact> 0.83257718E+04</totfact>
</mgrwt>
</event>
<event>
 6    4  0.3189516E-003  0.1290818E+03  0.7818608E-02  0.1228825E+00
          4   -1    0    0  502    0 -0.00000000000E+00  0.00000000000E+00  0.27379554839E+03  0.27379849382E+03  0.12700000000E+01 0.  1.
         21   -1    0    0  501  502  0.00000000000E+00 -0.00000000000E+00 -0.26472730291E+02  0.26472730291E+02  0.00000000000E+00 0. -1.
         25    2    1    2    0    0 -0.28373290864E+02  0.15239096782E+02  0.22983123075E+03  0.26359913345E+03  0.12499933929E+03 0.  0.
    9000005    1    3    3    0    0 -0.76798703115E+02  0.10165468542E+02  0.16706480604E+03  0.18415489939E+03  0.10000000000E+01 0.  0.
    9000005    1    3    3    0    0  0.48425412251E+02  0.50736282396E+01  0.62766424713E+02  0.79444234066E+02  0.10000000000E+01 0.  0.
          4    1    1    2  501    0  0.28373290864E+02 -0.15239096782E+02  0.17491587343E+02  0.36672090654E+02  0.12700000000E+01 0. -1.
<mgrwt>
<rscale>  1 0.12908179E+03</rscale>
<asrwt>0</asrwt>
<pdfrwt beam="2">  1       21 0.40727279E-02 0.12908179E+03</pdfrwt>
<pdfrwt beam="1">  1        4 0.42124960E-01 0.12908179E+03</pdfrwt>
<totfact> 0.83357868E+04</totfact>
</mgrwt>
</event>
<event>
 6    4  0.3189516E-003  0.1311020E+03  0.7818608E-02  0.1225830E+00
         -4   -1    0    0    0  501 -0.00000000000E+00  0.00000000000E+00  0.23382555313E+02  0.23417019302E+02  0.12700000000E+01 0. -1.
         21   -1    0    0  501  502  0.00000000000E+00 -0.00000000000E+00 -0.34884864450E+03  0.34884864450E+03  0.00000000000E+00 0. -1.
         25    2    1    2    0    0 -0.28713105084E+02 -0.27172561962E+02 -0.18782589545E+03  0.22905523695E+03  0.12499977618E+03 0.  0.
    9000005    1    3    3    0    0  0.48918159407E+02 -0.29894566232E+01 -0.58935002768E+02  0.76656752618E+02  0.10000000000E+01 0.  0.
    9000005    1    3    3    0    0 -0.77631264491E+02 -0.24183105339E+02 -0.12889089268E+03  0.15239848433E+03  0.10000000000E+01 0.  0.
         -4    1    1    2    0  502  0.28713105084E+02  0.27172561962E+02 -0.13764019374E+03  0.14321042686E+03  0.12700000000E+01 0.  1.
<mgrwt>
<rscale>  1 0.13110200E+03</rscale>
<asrwt>0</asrwt>
<pdfrwt beam="2">  1       21 0.53669018E-01 0.13110200E+03</pdfrwt>
<pdfrwt beam="1">  1       -4 0.36001454E-02 0.13110200E+03</pdfrwt>
<totfact> 0.53927334E+04</totfact>
</mgrwt>
</event>
<event>
 6    4  0.3189516E-003  0.1273502E+03  0.7818608E-02  0.1231441E+00
         21   -1    0    0  501  502  0.00000000000E+00  0.00000000000E+00  0.49059596922E+02  0.49059596922E+02  0.00000000000E+00 0. -1.
         -4   -1    0    0    0  501 -0.00000000000E+00 -0.00000000000E+00 -0.12462327138E+03  0.12462974231E+03  0.12700000000E+01 0. -1.
         25    2    1    2    0    0 -0.24220580776E+02  0.26841947741E+01 -0.77719274123E+02  0.14919238137E+03  0.12499695858E+03 0.  0.
    9000005    1    3    3    0    0  0.42130105042E+02 -0.80300513365E+01 -0.69224781748E+02  0.81440149088E+02  0.10000000000E+01 0.  0.
    9000005    1    3    3    0    0 -0.66350685819E+02  0.10714246111E+02 -0.84944923744E+01  0.67752232281E+02  0.10000000000E+01 0.  0.
         -4    1    1    2    0  502  0.24220580776E+02 -0.26841947741E+01  0.21555996679E+01  0.24496957866E+02  0.12700000000E+01 0.  1.
<mgrwt>
<rscale>  1 0.12735023E+03</rscale>
<asrwt>0</asrwt>
<pdfrwt beam="1">  1       21 0.75476304E-02 0.12735023E+03</pdfrwt>
<pdfrwt beam="2">  1       -4 0.19174573E-01 0.12735023E+03</pdfrwt>
<totfact> 0.12863730E+05</totfact>
</mgrwt>
</event>
<event>
 6    4  0.3189516E-003  0.1284315E+03  0.7818608E-02  0.1229802E+00
         21   -1    0    0  501  502  0.00000000000E+00  0.00000000000E+00  0.10864181963E+02  0.10864181963E+02  0.00000000000E+00 0.  1.
         -4   -1    0    0    0  501 -0.00000000000E+00 -0.00000000000E+00 -0.15029182188E+04  0.15029187554E+04  0.12700000000E+01 0. -1.
         25    2    1    2    0    0 -0.28902225191E+02  0.59215115690E+01 -0.14731119343E+04  0.14786999063E+04  0.12499695569E+03 0.  0.
    9000005    1    3    3    0    0  0.57998240101E+01  0.27492213441E+02 -0.76710273569E+02  0.81700219275E+02  0.10000000000E+01 0.  0.
    9000005    1    3    3    0    0 -0.34702049201E+02 -0.21570701872E+02 -0.13964016608E+04  0.13969996871E+04  0.10000000000E+01 0.  0.
         -4    1    1    2    0  502  0.28902225191E+02 -0.59215115690E+01 -0.18942102522E+02  0.35083031058E+02  0.12700000000E+01 0.  1.
<mgrwt>
<rscale>  1 0.12843147E+03</rscale>
<asrwt>0</asrwt>
<pdfrwt beam="1">  1       21 0.16714127E-02 0.12843147E+03</pdfrwt>
<pdfrwt beam="2">  1       -4 0.23122393E+00 0.12843147E+03</pdfrwt>
<totfact> 0.63547113E+03</totfact>
</mgrwt>
</event>
<event>
 6    4  0.3189516E-003  0.1292792E+03  0.7818608E-02  0.1228529E+00
         21   -1    0    0  501  502  0.00000000000E+00  0.00000000000E+00  0.26398157178E+02  0.26398157178E+02  0.00000000000E+00 0.  1.
         -4   -1    0    0    0  501 -0.00000000000E+00 -0.00000000000E+00 -0.44386794694E+03  0.44386976380E+03  0.12700000000E+01 0. -1.
         25    2    1    2    0    0  0.22647549741E+02 -0.23978738128E+02 -0.41771122224E+03  0.43725939812E+03  0.12500089869E+03 0.  0.
    9000005    1    3    3    0    0  0.66421814547E+02 -0.10331733720E+02 -0.34352259629E+03  0.35003910686E+03  0.10000000000E+01 0.  0.
    9000005    1    3    3    0    0 -0.43774264806E+02 -0.13647004408E+02 -0.74188625951E+02  0.87220291269E+02  0.10000000000E+01 0.  0.
         -4    1    1    2    0  502 -0.22647549741E+02  0.23978738128E+02  0.24143247842E+00  0.33008522856E+02  0.12700000000E+01 0.  1.
<mgrwt>
<rscale>  1 0.12927922E+03</rscale>
<asrwt>0</asrwt>
<pdfrwt beam="1">  1       21 0.40612552E-02 0.12927922E+03</pdfrwt>
<pdfrwt beam="2">  1       -4 0.68289862E-01 0.12927922E+03</pdfrwt>
<totfact> 0.30962962E+04</totfact>
</mgrwt>
</event>
<event>
 6    4  0.3189516E-003  0.1274115E+03  0.7818608E-02  0.1231348E+00
         21   -1    0    0  501  502  0.00000000000E+00  0.00000000000E+00  0.58587439897E+03  0.58587439897E+03  0.00000000000E+00 0.  1.
          4   -1    0    0  502    0 -0.00000000000E+00 -0.00000000000E+00 -0.12071352429E+02  0.12137975509E+02  0.12700000000E+01 0. -1.
         25    2    1    2    0    0 -0.13581590175E+02 -0.20597303944E+02  0.34315640220E+03  0.36604643740E+03  0.12499987775E+03 0.  0.
    9000005    1    3    3    0    0  0.13574299572E+02  0.49745259593E+02  0.12485234922E+03  0.13508501607E+03  0.10000000000E+01 0.  0.
    9000005    1    3    3    0    0 -0.27155889747E+02 -0.70342563537E+02  0.21830405299E+03  0.23096142133E+03  0.10000000000E+01 0.  0.
          4    1    1    2  501    0  0.13581590175E+02  0.20597303944E+02  0.23064664434E+03  0.23196593708E+03  0.12700000000E+01 0.  1.
<mgrwt>
<rscale>  1 0.12741145E+03</rscale>
<asrwt>0</asrwt>
<pdfrwt beam="1">  1       21 0.90134501E-01 0.12741145E+03</pdfrwt>
<pdfrwt beam="2">  1        4 0.18623623E-02 0.12741145E+03</pdfrwt>
<totfact> 0.48386166E+04</totfact>
</mgrwt>
</event>
<event>
 6    4  0.3189516E-003  0.1293760E+03  0.7818608E-02  0.1228385E+00
         21   -1    0    0  501  502  0.00000000000E+00  0.00000000000E+00  0.46214719710E+02  0.46214719710E+02  0.00000000000E+00 0.  1.
         -4   -1    0    0    0  501 -0.00000000000E+00 -0.00000000000E+00 -0.20064036750E+03  0.20064438684E+03  0.12700000000E+01 0. -1.
         25    2    1    2    0    0 -0.12992418384E+02  0.30714934453E+02 -0.16695055776E+03  0.21121227774E+03  0.12500370954E+03 0.  0.
    9000005    1    3    3    0    0 -0.40460300452E+01  0.63873269740E+02 -0.16479103025E+03  0.17678588347E+03  0.10000000000E+01 0.  0.
    9000005    1    3    3    0    0 -0.89463883384E+01 -0.33158335287E+02 -0.21595275148E+01  0.34426394269E+02  0.10000000000E+01 0.  0.
         -4    1    1    2    0  502  0.12992418384E+02 -0.30714934453E+02  0.12524909973E+02  0.35646828804E+02  0.12700000000E+01 0.  1.
<mgrwt>
<rscale>  1 0.12937595E+03</rscale>
<asrwt>0</asrwt>
<pdfrwt beam="1">  1       21 0.71099569E-02 0.12937595E+03</pdfrwt>
<pdfrwt beam="2">  1       -4 0.30869400E-01 0.12937595E+03</pdfrwt>
<totfact> 0.59494416E+04</totfact>
</mgrwt>
</event>
<event>
 6    4  0.3189516E-003  0.1270969E+03  0.7818608E-02  0.1231828E+00
         21   -1    0    0  501  502  0.00000000000E+00  0.00000000000E+00  0.16150356547E+03  0.16150356547E+03  0.00000000000E+00 0. -1.
          4   -1    0    0  502    0 -0.00000000000E+00 -0.00000000000E+00 -0.36758686850E+02  0.36780619339E+02  0.12700000000E+01 0.  1.
         25    2    1    2    0    0  0.22323882976E+02  0.51186417946E+01  0.86676217300E+02  0.15383880125E+03  0.12501621447E+03 0.  0.
    9000005    1    3    3    0    0 -0.46610751904E+00 -0.53123944639E+01 -0.32042740105E+02  0.32498861282E+02  0.10000000000E+01 0.  0.
    9000005    1    3    3    0    0  0.22789990495E+02  0.10431036259E+02  0.11871895741E+03  0.12133993997E+03  0.10000000000E+01 0.  0.
          4    1    1    2  501    0 -0.22323882976E+02 -0.51186417946E+01  0.38068661324E+02  0.44445383561E+02  0.12700000000E+01 0. -1.
<mgrwt>
<rscale>  1 0.12709685E+03</rscale>
<asrwt>0</asrwt>
<pdfrwt beam="1">  1       21 0.24846702E-01 0.12709685E+03</pdfrwt>
<pdfrwt beam="2">  1        4 0.56572539E-02 0.12709685E+03</pdfrwt>
<totfact> 0.11983566E+05</totfact>
</mgrwt>
</event>
<event>
 6    4  0.3189516E-003  0.1271204E+03  0.7818608E-02  0.1231792E+00
         -4   -1    0    0    0  501 -0.00000000000E+00  0.00000000000E+00  0.23009468169E+03  0.23009818653E+03  0.12700000000E+01 0. -1.
         21   -1    0    0  501  502  0.00000000000E+00 -0.00000000000E+00 -0.25413543232E+02  0.25413543232E+02  0.00000000000E+00 0. -1.
         25    2    1    2    0    0 -0.17326252778E+02 -0.15310239998E+02  0.15327052891E+03  0.19912674808E+03  0.12500001714E+03 0.  0.
    9000005    1    3    3    0    0 -0.38184936840E+02  0.14014834519E+02 -0.10111744491E+01  0.40700460217E+02  0.10000000000E+01 0.  0.
    9000005    1    3    3    0    0  0.20858684062E+02 -0.29325074518E+02  0.15428170336E+03  0.15842628787E+03  0.10000000000E+01 0.  0.
         -4    1    1    2    0  502  0.17326252778E+02  0.15310239998E+02  0.51410609552E+02  0.56384981676E+02  0.12700000000E+01 0.  1.
<mgrwt>
<rscale>  1 0.12712044E+03</rscale>
<asrwt>0</asrwt>
<pdfrwt beam="2">  1       21 0.39097760E-02 0.12712044E+03</pdfrwt>
<pdfrwt beam="1">  1       -4 0.35401891E-01 0.12712044E+03</pdfrwt>
<totfact> 0.12504063E+05</totfact>
</mgrwt>
</event>
<event>
 6    4  0.3189516E-003  0.1267792E+03  0.7818608E-02  0.1232315E+00
         21   -1    0    0  501  502  0.00000000000E+00  0.00000000000E+00  0.47214407575E+03  0.47214407575E+03  0.00000000000E+00 0. -1.
          4   -1    0    0  502    0 -0.00000000000E+00 -0.00000000000E+00 -0.41237174865E+02  0.41256726613E+02  0.12700000000E+01 0.  1.
         25    2    1    2    0    0  0.20435286733E+02 -0.55084829654E+01  0.57187650476E+02  0.13908057134E+03  0.12500013451E+03 0.  0.
    9000005    1    3    3    0    0  0.43386142901E+02  0.21770847479E+02  0.82236137030E+02  0.95499264025E+02  0.10000000000E+01 0.  0.
    9000005    1    3    3    0    0 -0.22950856168E+02 -0.27279330444E+02 -0.25048486554E+02  0.43581307312E+02  0.10000000000E+01 0.  0.
          4    1    1    2  501    0 -0.20435286733E+02  0.55084829654E+01  0.37371925041E+03  0.37432023103E+03  0.12700000000E+01 0. -1.
<mgrwt>
<rscale>  1 0.12677925E+03</rscale>
<asrwt>0</asrwt>
<pdfrwt beam="1">  1       21 0.72637546E-01 0.12677925E+03</pdfrwt>
<pdfrwt beam="2">  1        4 0.63458165E-02 0.12677925E+03</pdfrwt>
<totfact> 0.11347876E+04</totfact>
</mgrwt>
</event>
<event>
 6    4  0.3189516E-003  0.1275509E+03  0.7818608E-02  0.1231136E+00
          4   -1    0    0  502    0 -0.00000000000E+00  0.00000000000E+00  0.32821653192E+02  0.32846214671E+02  0.12700000000E+01 0.  1.
         21   -1    0    0  501  502  0.00000000000E+00 -0.00000000000E+00 -0.20008602702E+03  0.20008602702E+03  0.00000000000E+00 0.  1.
         25    2    1    2    0    0  0.75450769729E+01 -0.24245659614E+02 -0.10341385778E+03  0.16420610768E+03  0.12499775846E+03 0.  0.
    9000005    1    3    3    0    0 -0.46328903405E+01  0.82379196358E+01 -0.12366128181E+03  0.12402596346E+03  0.10000000000E+01 0.  0.
    9000005    1    3    3    0    0  0.12177967313E+02 -0.32483579250E+02  0.20247424039E+02  0.40180144213E+02  0.10000000000E+01 0.  0.
          4    1    1    2  501    0 -0.75450769729E+01  0.24245659614E+02 -0.63850516056E+02  0.68726134019E+02  0.12700000000E+01 0. -1.
<mgrwt>
<rscale>  1 0.12755085E+03</rscale>
<asrwt>0</asrwt>
<pdfrwt beam="2">  1       21 0.30782466E-01 0.12755085E+03</pdfrwt>
<pdfrwt beam="1">  1        4 0.50516845E-02 0.12755085E+03</pdfrwt>
<totfact> 0.95565998E+04</totfact>
</mgrwt>
</event>
<event>
 6    4  0.3189516E-003  0.1270947E+03  0.7818608E-02  0.1231831E+00
         21   -1    0    0  501  502  0.00000000000E+00  0.00000000000E+00  0.13063790008E+03  0.13063790008E+03  0.00000000000E+00 0. -1.
          4   -1    0    0  502    0 -0.00000000000E+00 -0.00000000000E+00 -0.63283546263E+02  0.63296288419E+02  0.12700000000E+01 0. -1.
         25    2    1    2    0    0  0.22965052166E+02 -0.68039243287E+00  0.46927778697E+01  0.12718134171E+03  0.12500085983E+03 0.  0.
    9000005    1    3    3    0    0 -0.11764999949E+02  0.56774711309E+02  0.13280407368E+02  0.59490774814E+02  0.10000000000E+01 0.  0.
    9000005    1    3    3    0    0  0.34730052114E+02 -0.57455103742E+02 -0.85876294982E+01  0.67690566893E+02  0.10000000000E+01 0.  0.
          4    1    1    2  501    0 -0.22965052166E+02  0.68039243287E+00  0.62661575951E+02  0.66752846797E+02  0.12700000000E+01 0.  1.
<mgrwt>
<rscale>  1 0.12709473E+03</rscale>
<asrwt>0</asrwt>
<pdfrwt beam="1">  1       21 0.20098138E-01 0.12709473E+03</pdfrwt>
<pdfrwt beam="2">  1        4 0.97373852E-02 0.12709473E+03</pdfrwt>
<totfact> 0.72836483E+04</totfact>
</mgrwt>
</event>
<event>
 6    4  0.3189516E-003  0.1498375E+03  0.7818608E-02  0.1200673E+00
         21   -1    0    0  501  502  0.00000000000E+00  0.00000000000E+00  0.19289165900E+03  0.19289165900E+03  0.00000000000E+00 0. -1.
          4   -1    0    0  502    0 -0.00000000000E+00 -0.00000000000E+00 -0.76532249337E+02  0.76542786000E+02  0.12700000000E+01 0.  1.
         25    2    1    2    0    0  0.39239788491E+02  0.72705530607E+02  0.35845195752E+02  0.15406544256E+03  0.12500170940E+03 0.  0.
    9000005    1    3    3    0    0  0.10349091419E+02  0.52406513207E+02 -0.42405693249E+02  0.68211356383E+02  0.10000000000E+01 0.  0.
    9000005    1    3    3    0    0  0.28890697071E+02  0.20299017399E+02  0.78250889000E+02  0.85854086181E+02  0.10000000000E+01 0.  0.
          4    1    1    2  501    0 -0.39239788491E+02 -0.72705530607E+02  0.80514213915E+02  0.11536900244E+03  0.12700000000E+01 0. -1.
<mgrwt>
<rscale>  1 0.14983752E+03</rscale>
<asrwt>0</asrwt>
<pdfrwt beam="1">  1       21 0.29675640E-01 0.14983752E+03</pdfrwt>
<pdfrwt beam="2">  1        4 0.11775324E-01 0.14983752E+03</pdfrwt>
<totfact> 0.25737592E+04</totfact>
</mgrwt>
</event>
<event>
 6    4  0.3189516E-003  0.1350565E+03  0.7818608E-02  0.1220140E+00
         -4   -1    0    0    0  501 -0.00000000000E+00  0.00000000000E+00  0.71858401772E+02  0.71869623662E+02  0.12700000000E+01 0.  1.
         21   -1    0    0  501  502  0.00000000000E+00 -0.00000000000E+00 -0.13732387668E+03  0.13732387668E+03  0.00000000000E+00 0. -1.
         25    2    1    2    0    0  0.45001183154E+02  0.24292092292E+02 -0.12620760329E+02  0.13564495180E+03  0.12500022850E+03 0.  0.
    9000005    1    3    3    0    0 -0.40242802950E+01  0.14951684089E+01  0.51544161506E+02  0.51732300797E+02  0.10000000000E+01 0.  0.
    9000005    1    3    3    0    0  0.49025463449E+02  0.22796923883E+02 -0.64164921835E+02  0.83912651006E+02  0.10000000000E+01 0.  0.
         -4    1    1    2    0  502 -0.45001183154E+02 -0.24292092292E+02 -0.52844714578E+02  0.73548548538E+02  0.12700000000E+01 0. -1.
<mgrwt>
<rscale>  1 0.13505654E+03</rscale>
<asrwt>0</asrwt>
<pdfrwt beam="2">  1       21 0.21126750E-01 0.13505654E+03</pdfrwt>
<pdfrwt beam="1">  1       -4 0.11056454E-01 0.13505654E+03</pdfrwt>
<totfact> 0.53981434E+04</totfact>
</mgrwt>
</event>
<event>
 6    4  0.3189516E-003  0.1310249E+03  0.7818608E-02  0.1225943E+00
         21   -1    0    0  501  502  0.00000000000E+00  0.00000000000E+00  0.28784261871E+02  0.28784261871E+02  0.00000000000E+00 0. -1.
         -4   -1    0    0    0  501 -0.00000000000E+00 -0.00000000000E+00 -0.25257686783E+03  0.25258006070E+03  0.12700000000E+01 0.  1.
         25    2    1    2    0    0 -0.11155206133E+02  0.37649977175E+02 -0.16594062681E+03  0.21143275748E+03  0.12500223959E+03 0.  0.
    9000005    1    3    3    0    0 -0.31649921352E+02 -0.37027623469E+02 -0.37628714953E+02  0.61560398069E+02  0.10000000000E+01 0.  0.
    9000005    1    3    3    0    0  0.20494715219E+02  0.74677600644E+02 -0.12831191186E+03  0.14987235941E+03  0.10000000000E+01 0.  0.
         -4    1    1    2    0  502  0.11155206133E+02 -0.37649977175E+02 -0.57851979149E+02  0.69931565094E+02  0.12700000000E+01 0. -1.
<mgrwt>
<rscale>  1 0.13102488E+03</rscale>
<asrwt>0</asrwt>
<pdfrwt beam="1">  1       21 0.44283479E-02 0.13102488E+03</pdfrwt>
<pdfrwt beam="2">  1       -4 0.38860381E-01 0.13102488E+03</pdfrwt>
<totfact> 0.85172155E+04</totfact>
</mgrwt>
</event>
<event>
 6    4  0.3189516E-003  0.1544192E+03  0.7818608E-02  0.1195146E+00
          4   -1    0    0  502    0 -0.00000000000E+00  0.00000000000E+00  0.14467068252E+02  0.14522705113E+02  0.12700000000E+01 0.  1.
         21   -1    0    0  501  502  0.00000000000E+00 -0.00000000000E+00 -0.15344217074E+04  0.15344217074E+04  0.00000000000E+00 0. -1.
         25    2    1    2    0    0  0.78404473966E+02  0.45527316556E+02 -0.46225480198E+03  0.48736513779E+03  0.12500110992E+03 0.  0.
    9000005    1    3    3    0    0  0.58909538691E+02  0.85687212405E+02 -0.37758009984E+03  0.39163805218E+03  0.10000000000E+01 0.  0.
    9000005    1    3    3    0    0  0.19494935276E+02 -0.40159895849E+02 -0.84674702144E+02  0.95727085609E+02  0.10000000000E+01 0.  0.
          4    1    1    2  501    0 -0.78404473966E+02 -0.45527316556E+02 -0.10576998372E+04  0.10615792747E+04  0.12700000000E+01 0. -1.
<mgrwt>
<rscale>  1 0.15441916E+03</rscale>
<asrwt>0</asrwt>
<pdfrwt beam="2">  1       21 0.23606481E+00 0.15441916E+03</pdfrwt>
<pdfrwt beam="1">  1        4 0.22300236E-02 0.15441916E+03</pdfrwt>
<totfact> 0.29329599E+03</totfact>
</mgrwt>
</event>
<event>
 6    4  0.3189516E-003  0.1340656E+03  0.7818608E-02  0.1221545E+00
         21   -1    0    0  501  502  0.00000000000E+00  0.00000000000E+00  0.40004327150E+03  0.40004327150E+03  0.00000000000E+00 0. -1.
          4   -1    0    0  502    0 -0.00000000000E+00 -0.00000000000E+00 -0.38929132917E+02  0.38949843256E+02  0.12700000000E+01 0.  1.
         25    2    1    2    0    0  0.43764541791E+01  0.48315585807E+02  0.85209462653E+02  0.15885287794E+03  0.12498013891E+03 0.  0.
    9000005    1    3    3    0    0 -0.39364814534E+02  0.71596087624E+02  0.68269765778E+02  0.10647698956E+03  0.10000000000E+01 0.  0.
    9000005    1    3    3    0    0  0.43741268713E+02 -0.23280501817E+02  0.16939696875E+02  0.52375888381E+02  0.10000000000E+01 0.  0.
          4    1    1    2  501    0 -0.43764541791E+01 -0.48315585807E+02  0.27590467593E+03  0.28014023681E+03  0.12700000000E+01 0. -1.
<mgrwt>
<rscale>  1 0.13406560E+03</rscale>
<asrwt>0</asrwt>
<pdfrwt beam="1">  1       21 0.61545116E-01 0.13406560E+03</pdfrwt>
<pdfrwt beam="2">  1        4 0.59908458E-02 0.13406560E+03</pdfrwt>
<totfact> 0.17915072E+04</totfact>
</mgrwt>
</event>
<event>
 6    4  0.3189516E-003  0.1270332E+03  0.7818608E-02  0.1231926E+00
          4   -1    0    0  502    0 -0.00000000000E+00  0.00000000000E+00  0.25369735130E+03  0.25370053006E+03  0.12700000000E+01 0. -1.
         21   -1    0    0  501  502  0.00000000000E+00 -0.00000000000E+00 -0.37394752833E+02  0.37394752833E+02  0.00000000000E+00 0. -1.
         25    2    1    2    0    0 -0.18332947221E+02 -0.13180527666E+02  0.23134959361E+03  0.26393192106E+03  0.12501040447E+03 0.  0.
    9000005    1    3    3    0    0  0.16953081135E+02  0.50854270052E+02  0.89028033643E+02  0.10392571634E+03  0.10000000000E+01 0.  0.
    9000005    1    3    3    0    0 -0.35286028356E+02 -0.64034797718E+02  0.14232155997E+03  0.16000620472E+03  0.10000000000E+01 0.  0.
          4    1    1    2  501    0  0.18332947221E+02  0.13180527666E+02 -0.15046995149E+02  0.27163361839E+02  0.12700000000E+01 0.  1.
<mgrwt>
<rscale>  1 0.12703316E+03</rscale>
<asrwt>0</asrwt>
<pdfrwt beam="2">  1       21 0.57530391E-02 0.12703316E+03</pdfrwt>
<pdfrwt beam="1">  1        4 0.39032264E-01 0.12703316E+03</pdfrwt>
<totfact> 0.54160206E+04</totfact>
</mgrwt>
</event>
<event>
 6    4  0.3189516E-003  0.1282275E+03  0.7818608E-02  0.1230110E+00
          4   -1    0    0  502    0 -0.00000000000E+00  0.00000000000E+00  0.76493063848E+03  0.76493169276E+03  0.12700000000E+01 0. -1.
         21   -1    0    0  501  502  0.00000000000E+00 -0.00000000000E+00 -0.11007885274E+02  0.11007885274E+02  0.00000000000E+00 0. -1.
         25    2    1    2    0    0  0.24831623078E+02 -0.14157708222E+02  0.38259500445E+03  0.40351111497E+03  0.12500092905E+03 0.  0.
    9000005    1    3    3    0    0  0.31204651119E+02  0.44330253551E+02  0.90105037433E+02  0.10516092146E+03  0.10000000000E+01 0.  0.
    9000005    1    3    3    0    0 -0.63730280413E+01 -0.58487961773E+02  0.29248996702E+03  0.29835019351E+03  0.10000000000E+01 0.  0.
          4    1    1    2  501    0 -0.24831623078E+02  0.14157708222E+02  0.37132774876E+03  0.37242846307E+03  0.12700000000E+01 0.  1.
<mgrwt>
<rscale>  1 0.12822746E+03</rscale>
<asrwt>0</asrwt>
<pdfrwt beam="2">  1       21 0.16935214E-02 0.12822746E+03</pdfrwt>
<pdfrwt beam="1">  1        4 0.11768731E+00 0.12822746E+03</pdfrwt>
<totfact> 0.37664301E+04</totfact>
</mgrwt>
</event>
<event>
 6    4  0.3189516E-003  0.1288072E+03  0.7818608E-02  0.1229236E+00
         -4   -1    0    0    0  501 -0.00000000000E+00  0.00000000000E+00  0.32547724580E+02  0.32572492618E+02  0.12700000000E+01 0.  1.
         21   -1    0    0  501  502  0.00000000000E+00 -0.00000000000E+00 -0.43836384547E+03  0.43836384547E+03  0.00000000000E+00 0. -1.
         25    2    1    2    0    0 -0.56801236886E+00 -0.31091970900E+02 -0.98770247537E+02  0.16231713173E+03  0.12499702461E+03 0.  0.
    9000005    1    3    3    0    0  0.88931411430E+01  0.22319025891E+02 -0.10499139857E+03  0.10770989114E+03  0.10000000000E+01 0.  0.
    9000005    1    3    3    0    0 -0.94611535119E+01 -0.53410996791E+02  0.62211510338E+01  0.54607240583E+02  0.10000000000E+01 0.  0.
         -4    1    1    2    0  502  0.56801236886E+00  0.31091970900E+02 -0.30704587335E+03  0.30861920636E+03  0.12700000000E+01 0. -1.
<mgrwt>
<rscale>  1 0.12880718E+03</rscale>
<asrwt>0</asrwt>
<pdfrwt beam="2">  1       21 0.67440585E-01 0.12880718E+03</pdfrwt>
<pdfrwt beam="1">  1       -4 0.50093895E-02 0.12880718E+03</pdfrwt>
<totfact> 0.19580183E+04</totfact>
</mgrwt>
</event>
<event>
 6    4  0.3189516E-003  0.1267445E+03  0.7818608E-02  0.1232368E+00
          4   -1    0    0  502    0 -0.00000000000E+00  0.00000000000E+00  0.17366357445E+03  0.17366821814E+03  0.12700000000E+01 0.  1.
         21   -1    0    0  501  502  0.00000000000E+00 -0.00000000000E+00 -0.42863515746E+02  0.42863515746E+02  0.00000000000E+00 0.  1.
         25    2    1    2    0    0  0.18355446668E+02 -0.10130128926E+02  0.14391488175E+03  0.19176979903E+03  0.12499848278E+03 0.  0.
    9000005    1    3    3    0    0 -0.16738860400E+02  0.26127577107E+02  0.13742027329E+03  0.14088353787E+03  0.10000000000E+01 0.  0.
    9000005    1    3    3    0    0  0.35094307068E+02 -0.36257706033E+02  0.64946084585E+01  0.50886261155E+02  0.10000000000E+01 0.  0.
          4    1    1    2  501    0 -0.18355446668E+02  0.10130128926E+02 -0.13114823041E+02  0.24761934857E+02  0.12700000000E+01 0. -1.
<mgrwt>
<rscale>  1 0.12674448E+03</rscale>
<asrwt>0</asrwt>
<pdfrwt beam="2">  1       21 0.65943872E-02 0.12674448E+03</pdfrwt>
<pdfrwt beam="1">  1        4 0.26719277E-01 0.12674448E+03</pdfrwt>
<totfact> 0.88464328E+04</totfact>
</mgrwt>
</event>
<event>
 6    4  0.3189516E-003  0.1268225E+03  0.7818608E-02  0.1232248E+00
         -4   -1    0    0    0  501 -0.00000000000E+00  0.00000000000E+00  0.42180710459E+02  0.42199825057E+02  0.12700000000E+01 0. -1.
         21   -1    0    0  501  502  0.00000000000E+00 -0.00000000000E+00 -0.17961423322E+03  0.17961423322E+03  0.00000000000E+00 0. -1.
         25    2    1    2    0    0  0.63081559334E+01  0.20626591978E+02 -0.57930155656E+02  0.13942687839E+03  0.12497480689E+03 0.  0.
    9000005    1    3    3    0    0 -0.35890341397E+02  0.29333299858E+02 -0.78887251794E+02  0.91502773629E+02  0.10000000000E+01 0.  0.
    9000005    1    3    3    0    0  0.42198497331E+02 -0.87067078797E+01  0.20957096138E+02  0.47924104766E+02  0.10000000000E+01 0.  0.
         -4    1    1    2    0  502 -0.63081559334E+01 -0.20626591978E+02 -0.79503367102E+02  0.82387179879E+02  0.12700000000E+01 0.  1.
<mgrwt>
<rscale>  1 0.12682252E+03</rscale>
<asrwt>0</asrwt>
<pdfrwt beam="2">  1       21 0.27632959E-01 0.12682252E+03</pdfrwt>
<pdfrwt beam="1">  1       -4 0.64911559E-02 0.12682252E+03</pdfrwt>
<totfact> 0.78316456E+04</totfact>
</mgrwt>
</event>
<event>
 6    4  0.3189516E-003  0.1268310E+03  0.7818608E-02  0.1232235E+00
          4   -1    0    0  502    0 -0.00000000000E+00  0.00000000000E+00  0.80796106421E+02  0.80806087102E+02  0.12700000000E+01 0.  1.
         21   -1    0    0  501  502  0.00000000000E+00 -0.00000000000E+00 -0.69377454274E+02  0.69377454274E+02  0.00000000000E+00 0.  1.
         25    2    1    2    0    0  0.40017394022E+01 -0.21114805167E+02  0.16943530191E+02  0.12795774346E+03  0.12499700789E+03 0.  0.
    9000005    1    3    3    0    0 -0.37310087447E+02 -0.29714243980E+02  0.53811568755E+02  0.71914281283E+02  0.10000000000E+01 0.  0.
    9000005    1    3    3    0    0  0.41311826849E+02  0.85994388133E+01 -0.36868038564E+02  0.56043462179E+02  0.10000000000E+01 0.  0.
          4    1    1    2  501    0 -0.40017394022E+01  0.21114805167E+02 -0.55248780443E+01  0.22225797913E+02  0.12700000000E+01 0. -1.
<mgrwt>
<rscale>  1 0.12683099E+03</rscale>
<asrwt>0</asrwt>
<pdfrwt beam="2">  1       21 0.10673455E-01 0.12683099E+03</pdfrwt>
<pdfrwt beam="1">  1        4 0.12431832E-01 0.12683099E+03</pdfrwt>
<totfact> 0.15030282E+05</totfact>
</mgrwt>
</event>
<event>
 6    4  0.3189516E-003  0.1336549E+03  0.7818608E-02  0.1222131E+00
         -4   -1    0    0    0  501 -0.00000000000E+00  0.00000000000E+00  0.44254394321E+02  0.44272613620E+02  0.12700000000E+01 0. -1.
         21   -1    0    0  501  502  0.00000000000E+00 -0.00000000000E+00 -0.18667843941E+03  0.18667843941E+03  0.00000000000E+00 0.  1.
         25    2    1    2    0    0  0.22124923456E+02 -0.41812509368E+02 -0.11457107300E+03  0.17604022412E+03  0.12500332620E+03 0.  0.
    9000005    1    3    3    0    0  0.41365113184E+02 -0.45983990790E+02 -0.13447876593E+03  0.14802411454E+03  0.10000000000E+01 0.  0.
    9000005    1    3    3    0    0 -0.19240189728E+02  0.41714814215E+01  0.19907692934E+02  0.28016109579E+02  0.10000000000E+01 0.  0.
         -4    1    1    2    0  502 -0.22124923456E+02  0.41812509368E+02 -0.27852972087E+02  0.54910828911E+02  0.12700000000E+01 0.  1.
<mgrwt>
<rscale>  1 0.13365489E+03</rscale>
<asrwt>0</asrwt>
<pdfrwt beam="2">  1       21 0.28719760E-01 0.13365489E+03</pdfrwt>
<pdfrwt beam="1">  1       -4 0.68101022E-02 0.13365489E+03</pdfrwt>
<totfact> 0.67695317E+04</totfact>
</mgrwt>
</event>
<event>
 6    4  0.3189516E-003  0.1431348E+03  0.7818608E-02  0.1209172E+00
         -4   -1    0    0    0  501 -0.00000000000E+00  0.00000000000E+00  0.45085357173E+02  0.45103240808E+02  0.12700000000E+01 0. -1.
         21   -1    0    0  501  502  0.00000000000E+00 -0.00000000000E+00 -0.38193843605E+03  0.38193843605E+03  0.00000000000E+00 0.  1.
         25    2    1    2    0    0  0.64783798255E+02 -0.25800663215E+02 -0.86693959337E+02  0.16734221069E+03  0.12499983262E+03 0.  0.
    9000005    1    3    3    0    0 -0.60428125665E+01 -0.41426372579E+02 -0.85034270602E+02  0.94786534411E+02  0.10000000000E+01 0.  0.
    9000005    1    3    3    0    0  0.70826610822E+02  0.15625709364E+02 -0.16596887349E+01  0.72555676279E+02  0.10000000000E+01 0.  0.
         -4    1    1    2    0  502 -0.64783798255E+02  0.25800663215E+02 -0.25015911953E+03  0.25969946616E+03  0.12700000000E+01 0.  1.
<mgrwt>
<rscale>  1 0.14313481E+03</rscale>
<asrwt>0</asrwt>
<pdfrwt beam="2">  1       21 0.58759760E-01 0.14313481E+03</pdfrwt>
<pdfrwt beam="1">  1       -4 0.69377468E-02 0.14313481E+03</pdfrwt>
<totfact> 0.15637961E+04</totfact>
</mgrwt>
</event>
<event>
 6    4  0.3189516E-003  0.1278581E+03  0.7818608E-02  0.1230669E+00
         21   -1    0    0  501  502  0.00000000000E+00  0.00000000000E+00  0.20411540236E+03  0.20411540236E+03  0.00000000000E+00 0.  1.
          4   -1    0    0  502    0 -0.00000000000E+00 -0.00000000000E+00 -0.84311754970E+02  0.84321319523E+02  0.12700000000E+01 0. -1.
         25    2    1    2    0    0 -0.18470944325E+02  0.19466683542E+02 -0.34002310235E+02  0.13230212273E+03  0.12501026768E+03 0.  0.
    9000005    1    3    3    0    0  0.11091019346E+02  0.11472970229E+02  0.44898726490E+02  0.47660627319E+02  0.10000000000E+01 0.  0.
    9000005    1    3    3    0    0 -0.29561963671E+02  0.79937133124E+01 -0.78901036726E+02  0.84641495408E+02  0.10000000000E+01 0.  0.
          4    1    1    2  501    0  0.18470944325E+02 -0.19466683542E+02  0.15380595763E+03  0.15613459916E+03  0.12700000000E+01 0.  1.
<mgrwt>
<rscale>  1 0.12785810E+03</rscale>
<asrwt>0</asrwt>
<pdfrwt beam="1">  1       21 0.31402369E-01 0.12785810E+03</pdfrwt>
<pdfrwt beam="2">  1        4 0.12972079E-01 0.12785810E+03</pdfrwt>
<totfact> 0.19249153E+04</totfact>
</mgrwt>
</event>
<event>
 6    4  0.3189516E-003  0.1471777E+03  0.7818608E-02  0.1203984E+00
         -4   -1    0    0    0  501 -0.00000000000E+00  0.00000000000E+00  0.81067835026E+03  0.81067934505E+03  0.12700000000E+01 0. -1.
         21   -1    0    0  501  502  0.00000000000E+00 -0.00000000000E+00 -0.20202993864E+02  0.20202993864E+02  0.00000000000E+00 0.  1.
         25    2    1    2    0    0 -0.64621734379E+02 -0.43132705618E+02  0.68044527494E+03  0.69618033234E+03  0.12499953641E+03 0.  0.
    9000005    1    3    3    0    0 -0.42398766658E+02 -0.22571647554E+02  0.65460043116E+03  0.65636107377E+03  0.10000000000E+01 0.  0.
    9000005    1    3    3    0    0 -0.22222967721E+02 -0.20561058064E+02  0.25844843779E+02  0.39819258569E+02  0.10000000000E+01 0.  0.
         -4    1    1    2    0  502  0.64621734379E+02  0.43132705618E+02  0.11003008146E+03  0.13470200657E+03  0.12700000000E+01 0.  1.
<mgrwt>
<rscale>  1 0.14717773E+03</rscale>
<asrwt>0</asrwt>
<pdfrwt beam="2">  1       21 0.31081535E-02 0.14717773E+03</pdfrwt>
<pdfrwt beam="1">  1       -4 0.12472287E+00 0.14717773E+03</pdfrwt>
<totfact> 0.12388225E+04</totfact>
</mgrwt>
</event>
<event>
 6    4  0.3189516E-003  0.1271859E+03  0.7818608E-02  0.1231692E+00
          4   -1    0    0  502    0 -0.00000000000E+00  0.00000000000E+00  0.27300389063E+01  0.30109819710E+01  0.12700000000E+01 0. -1.
         21   -1    0    0  501  502  0.00000000000E+00 -0.00000000000E+00 -0.30200102003E+04  0.30200102003E+04  0.00000000000E+00 0.  1.
         25    2    1    2    0    0  0.15660290877E+02 -0.17504731588E+02 -0.14507567227E+04  0.14563211608E+04  0.12499837860E+03 0.  0.
    9000005    1    3    3    0    0  0.12885975472E+02 -0.20173756101E+02 -0.48853081460E+02  0.54411877079E+02  0.10000000000E+01 0.  0.
    9000005    1    3    3    0    0  0.27743154054E+01  0.26690245126E+01 -0.14019036412E+04  0.14019092837E+04  0.10000000000E+01 0.  0.
          4    1    1    2  501    0 -0.15660290877E+02  0.17504731588E+02 -0.15665234387E+04  0.15667000215E+04  0.12700000000E+01 0.  1.
<mgrwt>
<rscale>  1 0.12718591E+03</rscale>
<asrwt>0</asrwt>
<pdfrwt beam="2">  1       21 0.46461774E+00 0.12718591E+03</pdfrwt>
<pdfrwt beam="1">  1        4 0.44163679E-03 0.12718591E+03</pdfrwt>
<totfact> 0.14881303E+03</totfact>
</mgrwt>
</event>
<event>
 6    4  0.3189516E-003  0.1303364E+03  0.7818608E-02  0.1226957E+00
         21   -1    0    0  501  502  0.00000000000E+00  0.00000000000E+00  0.29769100503E+03  0.29769100503E+03  0.00000000000E+00 0.  1.
         -4   -1    0    0    0  501 -0.00000000000E+00 -0.00000000000E+00 -0.25665655038E+02  0.25697057196E+02  0.12700000000E+01 0.  1.
         25    2    1    2    0    0 -0.34032456900E+02 -0.14296233027E+02  0.24537321675E+03  0.27784094917E+03  0.12499994854E+03 0.  0.
    9000005    1    3    3    0    0 -0.19454908162E+02 -0.34781445086E+02  0.24921812096E+03  0.25238643820E+03  0.10000000000E+01 0.  0.
    9000005    1    3    3    0    0 -0.14577548738E+02  0.20485212059E+02 -0.38449042054E+01  0.25454510969E+02  0.10000000000E+01 0.  0.
         -4    1    1    2    0  502  0.34032456900E+02  0.14296233027E+02  0.26652133237E+02  0.45547113053E+02  0.12700000000E+01 0. -1.
<mgrwt>
<rscale>  1 0.13033640E+03</rscale>
<asrwt>0</asrwt>
<pdfrwt beam="1">  1       21 0.45798614E-01 0.13033640E+03</pdfrwt>
<pdfrwt beam="2">  1       -4 0.39511865E-02 0.13033640E+03</pdfrwt>
<totfact> 0.64499302E+04</totfact>
</mgrwt>
</event>
<event>
 6    4  0.3189516E-003  0.2052009E+03  0.7818608E-02  0.1145424E+00
         -4   -1    0    0    0  501 -0.00000000000E+00  0.00000000000E+00  0.33273813939E+03  0.33274056306E+03  0.12700000000E+01 0. -1.
         21   -1    0    0  501  502  0.00000000000E+00 -0.00000000000E+00 -0.11777536461E+03  0.11777536461E+03  0.00000000000E+00 0.  1.
         25    2    1    2    0    0  0.12704553730E+03  0.10169152744E+03  0.20089928148E+03  0.28717233262E+03  0.12500276808E+03 0.  0.
    9000005    1    3    3    0    0  0.36106449061E+02  0.10339326730E+03  0.78834157183E+02  0.13494320185E+03  0.10000000000E+01 0.  0.
    9000005    1    3    3    0    0  0.90939088235E+02 -0.17017398625E+01  0.12206512429E+03  0.15222913078E+03  0.10000000000E+01 0.  0.
         -4    1    1    2    0  502 -0.12704553730E+03 -0.10169152744E+03  0.14063493307E+02  0.16334359505E+03  0.12700000000E+01 0.  1.
<mgrwt>
<rscale>  1 0.20520094E+03</rscale>
<asrwt>0</asrwt>
<pdfrwt beam="2">  1       21 0.18119287E-01 0.20520094E+03</pdfrwt>
<pdfrwt beam="1">  1       -4 0.51191196E-01 0.20520094E+03</pdfrwt>
<totfact> 0.43196333E+03</totfact>
</mgrwt>
</event>
<event>
 6    4  0.3189516E-003  0.1303559E+03  0.7818608E-02  0.1226929E+00
         -4   -1    0    0    0  501 -0.00000000000E+00  0.00000000000E+00  0.28860249072E+02  0.28888178837E+02  0.12700000000E+01 0. -1.
         21   -1    0    0  501  502  0.00000000000E+00 -0.00000000000E+00 -0.25704354120E+03  0.25704354120E+03  0.00000000000E+00 0. -1.
         25    2    1    2    0    0 -0.30248188622E+02 -0.21273082496E+02 -0.20272226695E+03  0.24101653711E+03  0.12500062677E+03 0.  0.
    9000005    1    3    3    0    0 -0.29439011900E+00  0.22684576889E+02 -0.18280188548E+03  0.18420696520E+03  0.10000000000E+01 0.  0.
    9000005    1    3    3    0    0 -0.29953798503E+02 -0.43957659384E+02 -0.19920381472E+02  0.56809571916E+02  0.10000000000E+01 0.  0.
         -4    1    1    2    0  502  0.30248188622E+02  0.21273082496E+02 -0.25461025182E+02  0.44915182924E+02  0.12700000000E+01 0.  1.
<mgrwt>
<rscale>  1 0.13035587E+03</rscale>
<asrwt>0</asrwt>
<pdfrwt beam="2">  1       21 0.39545161E-01 0.13035587E+03</pdfrwt>
<pdfrwt beam="1">  1       -4 0.44424280E-02 0.13035587E+03</pdfrwt>
<totfact> 0.71979206E+04</totfact>
</mgrwt>
</event>
<event>
 6    4  0.3189516E-003  0.1362120E+03  0.7818608E-02  0.1218519E+00
         21   -1    0    0  501  502  0.00000000000E+00  0.00000000000E+00  0.15064835172E+03  0.15064835172E+03  0.00000000000E+00 0.  1.
         -4   -1    0    0    0  501 -0.00000000000E+00 -0.00000000000E+00 -0.60192759078E+02  0.60206155378E+02  0.12700000000E+01 0.  1.
         25    2    1    2    0    0 -0.36814064756E+02 -0.39675766874E+02  0.61398899556E+02  0.14941066157E+03  0.12499711630E+03 0.  0.
    9000005    1    3    3    0    0 -0.78100986931E+02  0.83861652180E+00  0.39700933869E+02  0.87622095314E+02  0.10000000000E+01 0.  0.
    9000005    1    3    3    0    0  0.41286922175E+02 -0.40514383395E+02  0.21697965687E+02  0.61788566252E+02  0.10000000000E+01 0.  0.
         -4    1    1    2    0  502  0.36814064756E+02  0.39675766874E+02  0.29056693090E+02  0.61443845535E+02  0.12700000000E+01 0. -1.
<mgrwt>
<rscale>  1 0.13621204E+03</rscale>
<asrwt>0</asrwt>
<pdfrwt beam="1">  1       21 0.23176669E-01 0.13621204E+03</pdfrwt>
<pdfrwt beam="2">  1       -4 0.92618668E-02 0.13621204E+03</pdfrwt>
<totfact> 0.61266236E+04</totfact>
</mgrwt>
</event>
<event>
 6    4  0.3189516E-003  0.1301269E+03  0.7818608E-02  0.1227268E+00
         -4   -1    0    0    0  501 -0.00000000000E+00  0.00000000000E+00  0.50086800319E+02  0.50102898780E+02  0.12700000000E+01 0. -1.
         21   -1    0    0  501  502  0.00000000000E+00 -0.00000000000E+00 -0.20124854709E+03  0.20124854709E+03  0.00000000000E+00 0.  1.
         25    2    1    2    0    0 -0.35346718961E+02  0.76393645069E+01 -0.42607066218E+02  0.13692469200E+03  0.12500103502E+03 0.  0.
    9000005    1    3    3    0    0 -0.64722783054E+02  0.27080673569E+02  0.12736472049E+02  0.71313527801E+02  0.10000000000E+01 0.  0.
    9000005    1    3    3    0    0  0.29376064093E+02 -0.19441309063E+02 -0.55343538266E+02  0.65611164199E+02  0.10000000000E+01 0.  0.
         -4    1    1    2    0  502  0.35346718961E+02 -0.76393645069E+01 -0.10855468055E+03  0.11442675387E+03  0.12700000000E+01 0.  1.
<mgrwt>
<rscale>  1 0.13012690E+03</rscale>
<asrwt>0</asrwt>
<pdfrwt beam="2">  1       21 0.30961314E-01 0.13012690E+03</pdfrwt>
<pdfrwt beam="1">  1       -4 0.77072084E-02 0.13012690E+03</pdfrwt>
<totfact> 0.47627700E+04</totfact>
</mgrwt>
</event>
<event>
 6    4  0.3189516E-003  0.1271965E+03  0.7818608E-02  0.1231676E+00
         -4   -1    0    0    0  501 -0.00000000000E+00  0.00000000000E+00  0.13414786253E+02  0.13474768651E+02  0.12700000000E+01 0.  1.
         21   -1    0    0  501  502  0.00000000000E+00 -0.00000000000E+00 -0.43345619728E+03  0.43345619728E+03  0.00000000000E+00 0.  1.
         25    2    1    2    0    0 -0.99089352364E+01 -0.21341555488E+02 -0.37674263393E+03  0.39763546932E+03  0.12500122100E+03 0.  0.
    9000005    1    3    3    0    0 -0.30352331292E+02 -0.22267967938E+02 -0.24785945020E+02  0.45082917845E+02  0.10000000000E+01 0.  0.
    9000005    1    3    3    0    0  0.20443396055E+02  0.92641244983E+00 -0.35195668891E+03  0.35255255147E+03  0.10000000000E+01 0.  0.
         -4    1    1    2    0  502  0.99089352364E+01  0.21341555488E+02 -0.43298777102E+02  0.49295496616E+02  0.12700000000E+01 0. -1.
<mgrwt>
<rscale>  1 0.12719652E+03</rscale>
<asrwt>0</asrwt>
<pdfrwt beam="2">  1       21 0.66685563E-01 0.12719652E+03</pdfrwt>
<pdfrwt beam="1">  1       -4 0.20685706E-02 0.12719652E+03</pdfrwt>
<totfact> 0.80392214E+04</totfact>
</mgrwt>
</event>
<event>
 6    4  0.3189516E-003  0.1269701E+03  0.7818608E-02  0.1232022E+00
         21   -1    0    0  501  502  0.00000000000E+00  0.00000000000E+00  0.10917019152E+04  0.10917019152E+04  0.00000000000E+00 0.  1.
         -4   -1    0    0    0  501 -0.00000000000E+00 -0.00000000000E+00 -0.78224575366E+01  0.79248811923E+01  0.12700000000E+01 0. -1.
         25    2    1    2    0    0 -0.13630681615E+02 -0.17612198975E+02  0.51894548945E+03  0.53425259608E+03  0.12500172146E+03 0.  0.
    9000005    1    3    3    0    0  0.27064054743E+02 -0.14032058645E+02  0.46777083919E+03  0.46876424749E+03  0.10000000000E+01 0.  0.
    9000005    1    3    3    0    0 -0.40694736357E+02 -0.35801403305E+01  0.51174650254E+02  0.65488348587E+02  0.10000000000E+01 0.  0.
         -4    1    1    2    0  502  0.13630681615E+02  0.17612198975E+02  0.56493396824E+03  0.56537420034E+03  0.12700000000E+01 0.  1.
<mgrwt>
<rscale>  1 0.12697014E+03</rscale>
<asrwt>0</asrwt>
<pdfrwt beam="1">  1       21 0.16795402E+00 0.12697014E+03</pdfrwt>
<pdfrwt beam="2">  1       -4 0.12113914E-02 0.12697014E+03</pdfrwt>
<totfact> 0.20085068E+04</totfact>
</mgrwt>
</event>
<event>
 6    4  0.3189516E-003  0.1354903E+03  0.7818608E-02  0.1219529E+00
         21   -1    0    0  501  502  0.00000000000E+00  0.00000000000E+00  0.44303219790E+03  0.44303219790E+03  0.00000000000E+00 0.  1.
          4   -1    0    0  502    0 -0.00000000000E+00 -0.00000000000E+00 -0.24181333717E+02  0.24214660856E+02  0.12700000000E+01 0.  1.
         25    2    1    2    0    0  0.12207735186E+02 -0.50834765886E+02  0.37590443730E+03  0.39957699321E+03  0.12499770117E+03 0.  0.
    9000005    1    3    3    0    0 -0.56276225420E+02 -0.24558037722E+02  0.15094513095E+03  0.16295871662E+03  0.10000000000E+01 0.  0.
    9000005    1    3    3    0    0  0.68483960606E+02 -0.26276728164E+02  0.22495930635E+03  0.23661827659E+03  0.10000000000E+01 0.  0.
          4    1    1    2  501    0 -0.12207735186E+02  0.50834765886E+02  0.42946426880E+02  0.67669865544E+02  0.12700000000E+01 0. -1.
<mgrwt>
<rscale>  1 0.13549032E+03</rscale>
<asrwt>0</asrwt>
<pdfrwt beam="1">  1       21 0.68158794E-01 0.13549032E+03</pdfrwt>
<pdfrwt beam="2">  1        4 0.37229092E-02 0.13549032E+03</pdfrwt>
<totfact> 0.30849908E+04</totfact>
</mgrwt>
</event>
<event>
 6    4  0.3189516E-003  0.1384606E+03  0.7818608E-02  0.1215415E+00
          4   -1    0    0  502    0 -0.00000000000E+00  0.00000000000E+00  0.79860693851E+02  0.79870791422E+02  0.12700000000E+01 0. -1.
         21   -1    0    0  501  502  0.00000000000E+00 -0.00000000000E+00 -0.13338726644E+03  0.13338726644E+03  0.00000000000E+00 0. -1.
         25    2    1    2    0    0 -0.60634063536E+01 -0.59243588496E+02 -0.87463588745E+01  0.13873659710E+03  0.12499910762E+03 0.  0.
    9000005    1    3    3    0    0  0.67584071914E+00 -0.77431108575E+02 -0.50661935279E+02  0.92540072520E+02  0.10000000000E+01 0.  0.
    9000005    1    3    3    0    0 -0.67392470727E+01  0.18187520079E+02  0.41915576404E+02  0.46196524577E+02  0.10000000000E+01 0.  0.
          4    1    1    2  501    0  0.60634063536E+01  0.59243588496E+02 -0.44780213719E+02  0.74521460769E+02  0.12700000000E+01 0.  1.
<mgrwt>
<rscale>  1 0.13846062E+03</rscale>
<asrwt>0</asrwt>
<pdfrwt beam="2">  1       21 0.20521118E-01 0.13846062E+03</pdfrwt>
<pdfrwt beam="1">  1        4 0.12287502E-01 0.13846062E+03</pdfrwt>
<totfact> 0.47721647E+04</totfact>
</mgrwt>
</event>
<event>
 6    4  0.3189516E-003  0.1644865E+03  0.7818608E-02  0.1183723E+00
         -4   -1    0    0    0  501 -0.00000000000E+00  0.00000000000E+00  0.12132103097E+03  0.12132767803E+03  0.12700000000E+01 0.  1.
         21   -1    0    0  501  502  0.00000000000E+00 -0.00000000000E+00 -0.18364430351E+03  0.18364430351E+03  0.00000000000E+00 0.  1.
         25    2    1    2    0    0 -0.93772217341E+02  0.51355986963E+02  0.25695748393E+02  0.16648145086E+03  0.12500054341E+03 0.  0.
    9000005    1    3    3    0    0 -0.30739692004E+02  0.84878097081E+02 -0.91882486571E+00  0.90283244668E+02  0.10000000000E+01 0.  0.
    9000005    1    3    3    0    0 -0.63032525337E+02 -0.33522110118E+02  0.26614573259E+02  0.76198206193E+02  0.10000000000E+01 0.  0.
         -4    1    1    2    0  502  0.93772217341E+02 -0.51355986963E+02 -0.88019020935E+02  0.13849053068E+03  0.12700000000E+01 0. -1.
<mgrwt>
<rscale>  1 0.16448648E+03</rscale>
<asrwt>0</asrwt>
<pdfrwt beam="2">  1       21 0.28252970E-01 0.16448648E+03</pdfrwt>
<pdfrwt beam="1">  1       -4 0.18665623E-01 0.16448648E+03</pdfrwt>
<totfact> 0.12734952E+04</totfact>
</mgrwt>
</event>
<event>
 6    4  0.3189516E-003  0.1274308E+03  0.7818608E-02  0.1231318E+00
          4   -1    0    0  502    0 -0.00000000000E+00  0.00000000000E+00  0.16812187216E+03  0.16812666891E+03  0.12700000000E+01 0.  1.
         21   -1    0    0  501  502  0.00000000000E+00 -0.00000000000E+00 -0.83014888018E+02  0.83014888018E+02  0.00000000000E+00 0. -1.
         25    2    1    2    0    0 -0.13189925635E+02  0.20975639748E+02  0.14096238396E+03  0.19002371837E+03  0.12499867301E+03 0.  0.
    9000005    1    3    3    0    0  0.14300889360E+01  0.71023988321E+02  0.10460956831E+03  0.12645399896E+03  0.10000000000E+01 0.  0.
    9000005    1    3    3    0    0 -0.14620014571E+02 -0.50048348573E+02  0.36352815648E+02  0.63569719415E+02  0.10000000000E+01 0.  0.
          4    1    1    2  501    0  0.13189925635E+02 -0.20975639748E+02 -0.55855399813E+02  0.61117838553E+02  0.12700000000E+01 0. -1.
<mgrwt>
<rscale>  1 0.12743084E+03</rscale>
<asrwt>0</asrwt>
<pdfrwt beam="2">  1       21 0.12771521E-01 0.12743084E+03</pdfrwt>
<pdfrwt beam="1">  1        4 0.25866020E-01 0.12743084E+03</pdfrwt>
<totfact> 0.29774080E+04</totfact>
</mgrwt>
</event>
<event>
 6    4  0.3189516E-003  0.1273423E+03  0.7818608E-02  0.1231453E+00
         21   -1    0    0  501  502  0.00000000000E+00  0.00000000000E+00  0.60512251892E+02  0.60512251892E+02  0.00000000000E+00 0.  1.
         -4   -1    0    0    0  501 -0.00000000000E+00 -0.00000000000E+00 -0.84081058854E+03  0.84081154768E+03  0.12700000000E+01 0. -1.
         25    2    1    2    0    0 -0.18084853495E+02  0.16263362407E+02 -0.83331068348E+03  0.84298444150E+03  0.12499805810E+03 0.  0.
    9000005    1    3    3    0    0 -0.15392069687E+02  0.38834398922E+02 -0.88946720267E+02  0.98272811067E+02  0.10000000000E+01 0.  0.
    9000005    1    3    3    0    0 -0.26927838084E+01 -0.22571036515E+02 -0.74436396322E+03  0.74471163044E+03  0.10000000000E+01 0.  0.
         -4    1    1    2    0  502  0.18084853495E+02 -0.16263362407E+02  0.53012346831E+02  0.58339358064E+02  0.12700000000E+01 0.  1.
<mgrwt>
<rscale>  1 0.12734235E+03</rscale>
<asrwt>0</asrwt>
<pdfrwt beam="1">  1       21 0.93095785E-02 0.12734235E+03</pdfrwt>
<pdfrwt beam="2">  1       -4 0.12935656E+00 0.12734235E+03</pdfrwt>
<totfact> 0.17568162E+03</totfact>
</mgrwt>
</event>
<event>
 6    4  0.3189516E-003  0.1273074E+03  0.7818608E-02  0.1231507E+00
         21   -1    0    0  501  502  0.00000000000E+00  0.00000000000E+00  0.16313380486E+03  0.16313380486E+03  0.00000000000E+00 0.  1.
          4   -1    0    0  502    0 -0.00000000000E+00 -0.00000000000E+00 -0.40197760954E+02  0.40217818013E+02  0.12700000000E+01 0.  1.
         25    2    1    2    0    0  0.22114551807E+02 -0.96841876240E+01  0.70296798552E+02  0.14542632665E+03  0.12499735879E+03 0.  0.
    9000005    1    3    3    0    0  0.49064546842E+02 -0.55528717446E+02  0.41923415032E+02  0.85143061643E+02  0.10000000000E+01 0.  0.
    9000005    1    3    3    0    0 -0.26949995035E+02  0.45844529822E+02  0.28373383520E+02  0.60283265002E+02  0.10000000000E+01 0.  0.
          4    1    1    2  501    0 -0.22114551807E+02  0.96841876240E+01  0.52639245353E+02  0.57925296226E+02  0.12700000000E+01 0. -1.
<mgrwt>
<rscale>  1 0.12730741E+03</rscale>
<asrwt>0</asrwt>
<pdfrwt beam="1">  1       21 0.25097508E-01 0.12730741E+03</pdfrwt>
<pdfrwt beam="2">  1        4 0.61861942E-02 0.12730741E+03</pdfrwt>
<totfact> 0.10174287E+05</totfact>
</mgrwt>
</event>
<event>
 6    4  0.3189516E-003  0.1321446E+03  0.7818608E-02  0.1224308E+00
         21   -1    0    0  501  502  0.00000000000E+00  0.00000000000E+00  0.15915486131E+02  0.15915486131E+02  0.00000000000E+00 0. -1.
         -4   -1    0    0    0  501 -0.00000000000E+00 -0.00000000000E+00 -0.80759793823E+03  0.80759893681E+03  0.12700000000E+01 0.  1.
         25    2    1    2    0    0 -0.30094096536E+02  0.30507292639E+02 -0.75678420044E+03  0.76823467602E+03  0.12500336739E+03 0.  0.
    9000005    1    3    3    0    0 -0.23093991871E+02  0.15188843136E+02 -0.28358491902E+02  0.39613602201E+02  0.10000000000E+01 0.  0.
    9000005    1    3    3    0    0 -0.70001046647E+01  0.15318449503E+02 -0.72842570853E+03  0.72862107382E+03  0.10000000000E+01 0.  0.
         -4    1    1    2    0  502  0.30094096536E+02 -0.30507292639E+02 -0.34898251667E+02  0.55279746923E+02  0.12700000000E+01 0. -1.
<mgrwt>
<rscale>  1 0.13214459E+03</rscale>
<asrwt>0</asrwt>
<pdfrwt beam="1">  1       21 0.24485360E-02 0.13214459E+03</pdfrwt>
<pdfrwt beam="2">  1       -4 0.12424983E+00 0.13214459E+03</pdfrwt>
<totfact> 0.18285843E+04</totfact>
</mgrwt>
</event>
<event>
 6    4  0.3189516E-003  0.1276991E+03  0.7818608E-02  0.1230910E+00
         -4   -1    0    0    0  501 -0.00000000000E+00  0.00000000000E+00  0.43192892685E+02  0.43211559547E+02  0.12700000000E+01 0.  1.
         21   -1    0    0  501  502  0.00000000000E+00 -0.00000000000E+00 -0.13725580588E+03  0.13725580588E+03  0.00000000000E+00 0.  1.
         25    2    1    2    0    0  0.38100611275E+00  0.26131946911E+02 -0.75008488296E+02  0.14809905032E+03  0.12499612623E+03 0.  0.
    9000005    1    3    3    0    0  0.27721188998E+02  0.35249817571E+02 -0.10021640982E+03  0.10979682489E+03  0.10000000000E+01 0.  0.
    9000005    1    3    3    0    0 -0.27340182885E+02 -0.91178706602E+01  0.25207921521E+02  0.38302225431E+02  0.10000000000E+01 0.  0.
         -4    1    1    2    0  502 -0.38100611275E+00 -0.26131946911E+02 -0.19054424902E+02  0.32368315115E+02  0.12700000000E+01 0. -1.
<mgrwt>
<rscale>  1 0.12769908E+03</rscale>
<asrwt>0</asrwt>
<pdfrwt beam="2">  1       21 0.21116278E-01 0.12769908E+03</pdfrwt>
<pdfrwt beam="1">  1       -4 0.66469482E-02 0.12769908E+03</pdfrwt>
<totfact> 0.12513431E+05</totfact>
</mgrwt>
</event>
<event>
 6    4  0.3189516E-003  0.1275322E+03  0.7818608E-02  0.1231164E+00
          4   -1    0    0  502    0 -0.00000000000E+00  0.00000000000E+00  0.35946441173E+02  0.35968868942E+02  0.12700000000E+01 0. -1.
         21   -1    0    0  501  502  0.00000000000E+00 -0.00000000000E+00 -0.16273042193E+03  0.16273042193E+03  0.00000000000E+00 0. -1.
         25    2    1    2    0    0  0.60681673807E+01  0.24571253743E+02 -0.10863660476E+03  0.16753024659E+03  0.12499560977E+03 0.  0.
    9000005    1    3    3    0    0  0.51872229365E+01  0.29976916030E+02 -0.13612346508E+03  0.13948519822E+03  0.10000000000E+01 0.  0.
    9000005    1    3    3    0    0  0.88094444422E+00 -0.54056622875E+01  0.27486860320E+02  0.28045048371E+02  0.10000000000E+01 0.  0.
          4    1    1    2  501    0 -0.60681673807E+01 -0.24571253743E+02 -0.18147375993E+02  0.31169044279E+02  0.12700000000E+01 0.  1.
<mgrwt>
<rscale>  1 0.12753224E+03</rscale>
<asrwt>0</asrwt>
<pdfrwt beam="2">  1       21 0.25035449E-01 0.12753224E+03</pdfrwt>
<pdfrwt beam="1">  1        4 0.55323282E-02 0.12753224E+03</pdfrwt>
<totfact> 0.12253407E+05</totfact>
</mgrwt>
</event>
<event>
 6    4  0.3189516E-003  0.1272024E+03  0.7818608E-02  0.1231667E+00
          4   -1    0    0  502    0 -0.00000000000E+00  0.00000000000E+00  0.14794805328E+03  0.14795350408E+03  0.12700000000E+01 0. -1.
         21   -1    0    0  501  502  0.00000000000E+00 -0.00000000000E+00 -0.39789896694E+02  0.39789896694E+02  0.00000000000E+00 0. -1.
         25    2    1    2    0    0 -0.55695602747E+01 -0.22967454539E+02  0.10262218709E+03  0.16343735568E+03  0.12498772732E+03 0.  0.
    9000005    1    3    3    0    0 -0.64186749129E+02 -0.20093113786E+02  0.66093573111E+02  0.94302875841E+02  0.10000000000E+01 0.  0.
    9000005    1    3    3    0    0  0.58617188854E+02 -0.28743407524E+01  0.36528613980E+02  0.69134479843E+02  0.10000000000E+01 0.  0.
          4    1    1    2  501    0  0.55695602747E+01  0.22967454539E+02  0.55359694970E+01  0.24306045090E+02  0.12700000000E+01 0.  1.
<mgrwt>
<rscale>  1 0.12720242E+03</rscale>
<asrwt>0</asrwt>
<pdfrwt beam="2">  1       21 0.61215227E-02 0.12720242E+03</pdfrwt>
<pdfrwt beam="1">  1        4 0.22763217E-01 0.12720242E+03</pdfrwt>
<totfact> 0.13491166E+05</totfact>
</mgrwt>
</event>
<event>
 6    4  0.3189516E-003  0.1288656E+03  0.7818608E-02  0.1229149E+00
         21   -1    0    0  501  502  0.00000000000E+00  0.00000000000E+00  0.37301131668E+03  0.37301131668E+03  0.00000000000E+00 0. -1.
         -4   -1    0    0    0  501 -0.00000000000E+00 -0.00000000000E+00 -0.18224928666E+02  0.18269124907E+02  0.12700000000E+01 0. -1.
         25    2    1    2    0    0  0.31113971852E+02 -0.35560840261E+01  0.31696943504E+03  0.34216364395E+03  0.12500244603E+03 0.  0.
    9000005    1    3    3    0    0 -0.81261805530E+01 -0.55971097087E+01  0.29862160036E+03  0.29878624910E+03  0.10000000000E+01 0.  0.
    9000005    1    3    3    0    0  0.39240152405E+02  0.20410256826E+01  0.18347834679E+02  0.43377394851E+02  0.10000000000E+01 0.  0.
         -4    1    1    2    0  502 -0.31113971852E+02  0.35560840261E+01  0.37816952971E+02  0.49116797636E+02  0.12700000000E+01 0.  1.
<mgrwt>
<rscale>  1 0.12886558E+03</rscale>
<asrwt>0</asrwt>
<pdfrwt beam="1">  1       21 0.57386351E-01 0.12886558E+03</pdfrwt>
<pdfrwt beam="2">  1       -4 0.28074015E-02 0.12886558E+03</pdfrwt>
<totfact> 0.69103243E+04</totfact>
</mgrwt>
</event>
<event>
 6    4  0.3189516E-003  0.1267661E+03  0.7818608E-02  0.1232335E+00
         -4   -1    0    0    0  501 -0.00000000000E+00  0.00000000000E+00  0.20591756070E+02  0.20630882629E+02  0.12700000000E+01 0.  1.
         21   -1    0    0  501  502  0.00000000000E+00 -0.00000000000E+00 -0.40684503392E+03  0.40684503392E+03  0.00000000000E+00 0.  1.
         25    2    1    2    0    0 -0.20006542493E+02  0.66564817508E+01 -0.18008132743E+03  0.22022472468E+03  0.12500029752E+03 0.  0.
    9000005    1    3    3    0    0  0.20362655064E+02 -0.39941994239E+02 -0.20816502657E+02  0.49440139643E+02  0.10000000000E+01 0.  0.
    9000005    1    3    3    0    0 -0.40369197557E+02  0.46598475990E+02 -0.15926482477E+03  0.17078458504E+03  0.10000000000E+01 0.  0.
         -4    1    1    2    0  502  0.20006542493E+02 -0.66564817508E+01 -0.20617195042E+03  0.20725119187E+03  0.12700000000E+01 0. -1.
<mgrwt>
<rscale>  1 0.12676610E+03</rscale>
<asrwt>0</asrwt>
<pdfrwt beam="2">  1       21 0.62591539E-01 0.12676610E+03</pdfrwt>
<pdfrwt beam="1">  1       -4 0.31711249E-02 0.12676610E+03</pdfrwt>
<totfact> 0.47412533E+04</totfact>
</mgrwt>
</event>
<event>
 6    4  0.3189516E-003  0.1286884E+03  0.7818608E-02  0.1229415E+00
         21   -1    0    0  501  502  0.00000000000E+00  0.00000000000E+00  0.12192635792E+02  0.12192635792E+02  0.00000000000E+00 0. -1.
         -4   -1    0    0    0  501 -0.00000000000E+00 -0.00000000000E+00 -0.88871043710E+03  0.88871134454E+03  0.12700000000E+01 0.  1.
         25    2    1    2    0    0  0.30595796483E+02  0.18002155853E-02 -0.85203308111E+03  0.86169661892E+03  0.12499835594E+03 0.  0.
    9000005    1    3    3    0    0 -0.25752457078E+02  0.34157534052E+01 -0.68277872072E+03  0.68327347225E+03  0.10000000000E+01 0.  0.
    9000005    1    3    3    0    0  0.56348253561E+02 -0.34139531897E+01 -0.16925436039E+03  0.17842314667E+03  0.10000000000E+01 0.  0.
         -4    1    1    2    0  502 -0.30595796483E+02 -0.18002155853E-02 -0.24484720204E+02  0.39207361415E+02  0.12700000000E+01 0. -1.
<mgrwt>
<rscale>  1 0.12868835E+03</rscale>
<asrwt>0</asrwt>
<pdfrwt beam="1">  1       21 0.18757898E-02 0.12868835E+03</pdfrwt>
<pdfrwt beam="2">  1       -4 0.13672986E+00 0.12868835E+03</pdfrwt>
<totfact> 0.22204026E+04</totfact>
</mgrwt>
</event>
<event>
 6    4  0.3189516E-003  0.1320674E+03  0.7818608E-02  0.1224420E+00
         21   -1    0    0  501  502  0.00000000000E+00  0.00000000000E+00  0.82335036049E+02  0.82335036049E+02  0.00000000000E+00 0.  1.
          4   -1    0    0  502    0 -0.00000000000E+00 -0.00000000000E+00 -0.97999480997E+02  0.98007709776E+02  0.12700000000E+01 0.  1.
         25    2    1    2    0    0 -0.35130176742E+00  0.42619202661E+02 -0.29862413478E+02  0.13540150576E+03  0.12500113669E+03 0.  0.
    9000005    1    3    3    0    0  0.30166313466E+02 -0.32604067650E+02  0.90991543929E+01  0.45352246979E+02  0.10000000000E+01 0.  0.
    9000005    1    3    3    0    0 -0.30517615233E+02  0.75223270310E+02 -0.38961567871E+02  0.90049258779E+02  0.10000000000E+01 0.  0.
          4    1    1    2  501    0  0.35130176742E+00 -0.42619202661E+02  0.14197968530E+02  0.44941240067E+02  0.12700000000E+01 0. -1.
<mgrwt>
<rscale>  1 0.13206742E+03</rscale>
<asrwt>0</asrwt>
<pdfrwt beam="1">  1       21 0.12666929E-01 0.13206742E+03</pdfrwt>
<pdfrwt beam="2">  1        4 0.15078230E-01 0.13206742E+03</pdfrwt>
<totfact> 0.79998398E+04</totfact>
</mgrwt>
</event>
<event>
 6    4  0.3189516E-003  0.1271212E+03  0.7818608E-02  0.1231791E+00
         21   -1    0    0  501  502  0.00000000000E+00  0.00000000000E+00  0.16581770340E+02  0.16581770340E+02  0.00000000000E+00 0. -1.
          4   -1    0    0  502    0 -0.00000000000E+00 -0.00000000000E+00 -0.34063606688E+03  0.34063843435E+03  0.12700000000E+01 0. -1.
         25    2    1    2    0    0 -0.15648670624E+02  0.16990091920E+02 -0.27036695317E+03  0.29876092096E+03  0.12500501756E+03 0.  0.
    9000005    1    3    3    0    0 -0.54718140358E+02  0.16343153365E+02 -0.24635008330E+03  0.25288443425E+03  0.10000000000E+01 0.  0.
    9000005    1    3    3    0    0  0.39069469734E+02  0.64693855529E+00 -0.24016869868E+02  0.45876486712E+02  0.10000000000E+01 0.  0.
          4    1    1    2  501    0  0.15648670624E+02 -0.16990091920E+02 -0.53687343369E+02  0.58459283726E+02  0.12700000000E+01 0.  1.
<mgrwt>
<rscale>  1 0.12712120E+03</rscale>
<asrwt>0</asrwt>
<pdfrwt beam="1">  1       21 0.25510418E-02 0.12712120E+03</pdfrwt>
<pdfrwt beam="2">  1        4 0.52409468E-01 0.12712120E+03</pdfrwt>
<totfact> 0.11561672E+05</totfact>
</mgrwt>
</event>
<event>
 6    4  0.3189516E-003  0.1373902E+03  0.7818608E-02  0.1216884E+00
         -4   -1    0    0    0  501 -0.00000000000E+00  0.00000000000E+00  0.37120674937E+03  0.37120892187E+03  0.12700000000E+01 0.  1.
         21   -1    0    0  501  502  0.00000000000E+00 -0.00000000000E+00 -0.88237251261E+02  0.88237251261E+02  0.00000000000E+00 0. -1.
         25    2    1    2    0    0 -0.48488993189E+02 -0.29974241670E+02  0.34729696826E+03  0.37348528702E+03  0.12500575118E+03 0.  0.
    9000005    1    3    3    0    0 -0.70729571636E+02  0.14410908251E+02  0.11379161722E+03  0.13475859427E+03  0.10000000000E+01 0.  0.
    9000005    1    3    3    0    0  0.22240578447E+02 -0.44385149921E+02  0.23350535104E+03  0.23872669274E+03  0.10000000000E+01 0.  0.
         -4    1    1    2    0  502  0.48488993189E+02  0.29974241670E+02 -0.64327470159E+02  0.85960886112E+02  0.12700000000E+01 0. -1.
<mgrwt>
<rscale>  1 0.13739023E+03</rscale>
<asrwt>0</asrwt>
<pdfrwt beam="2">  1       21 0.13574962E-01 0.13739023E+03</pdfrwt>
<pdfrwt beam="1">  1       -4 0.57109600E-01 0.13739023E+03</pdfrwt>
<totfact> 0.56973583E+03</totfact>
</mgrwt>
</event>
<event>
 6    4  0.3189516E-003  0.1289096E+03  0.7818608E-02  0.1229083E+00
         21   -1    0    0  501  502  0.00000000000E+00  0.00000000000E+00  0.15835438236E+02  0.15835438236E+02  0.00000000000E+00 0.  1.
         -4   -1    0    0    0  501 -0.00000000000E+00 -0.00000000000E+00 -0.43045006075E+03  0.43045193425E+03  0.12700000000E+01 0.  1.
         25    2    1    2    0    0 -0.94868287790E+01 -0.30026648458E+02 -0.28339834671E+03  0.31133951783E+03  0.12500429157E+03 0.  0.
    9000005    1    3    3    0    0  0.53156077037E+02 -0.37049024935E+02 -0.12364765232E+03  0.13959921453E+03  0.10000000000E+01 0.  0.
    9000005    1    3    3    0    0 -0.62642905816E+02  0.70223764771E+01 -0.15975069439E+03  0.17174030330E+03  0.10000000000E+01 0.  0.
         -4    1    1    2    0  502  0.94868287790E+01  0.30026648458E+02 -0.13121627581E+03  0.13494785465E+03  0.12700000000E+01 0. -1.
<mgrwt>
<rscale>  1 0.12890955E+03</rscale>
<asrwt>0</asrwt>
<pdfrwt beam="1">  1       21 0.24362215E-02 0.12890955E+03</pdfrwt>
<pdfrwt beam="2">  1       -4 0.66227142E-01 0.12890955E+03</pdfrwt>
<totfact> 0.76553301E+04</totfact>
</mgrwt>
</event>
<event>
 6    4  0.3189516E-003  0.1272969E+03  0.7818608E-02  0.1231523E+00
          4   -1    0    0  502    0 -0.00000000000E+00  0.00000000000E+00  0.24522798963E+02  0.24555662666E+02  0.12700000000E+01 0. -1.
         21   -1    0    0  501  502  0.00000000000E+00 -0.00000000000E+00 -0.23655709030E+03  0.23655709030E+03  0.00000000000E+00 0. -1.
         25    2    1    2    0    0 -0.19506084190E+02  0.14173121339E+02 -0.18801530761E+03  0.22705560734E+03  0.12499251273E+03 0.  0.
    9000005    1    3    3    0    0 -0.53558432261E+02 -0.17414239461E+02 -0.33119200602E+02  0.65342504166E+02  0.10000000000E+01 0.  0.
    9000005    1    3    3    0    0  0.34052348071E+02  0.31587360800E+02 -0.15489610701E+03  0.16171310318E+03  0.10000000000E+01 0.  0.
          4    1    1    2  501    0  0.19506084190E+02 -0.14173121339E+02 -0.24018983722E+02  0.34057145623E+02  0.12700000000E+01 0.  1.
<mgrwt>
<rscale>  1 0.12729687E+03</rscale>
<asrwt>0</asrwt>
<pdfrwt beam="2">  1       21 0.36393398E-01 0.12729687E+03</pdfrwt>
<pdfrwt beam="1">  1        4 0.37755286E-02 0.12729687E+03</pdfrwt>
<totfact> 0.10956981E+05</totfact>
</mgrwt>
</event>
<event>
 6    4  0.3189516E-003  0.1325209E+03  0.7818608E-02  0.1223762E+00
         21   -1    0    0  501  502  0.00000000000E+00  0.00000000000E+00  0.11042699821E+03  0.11042699821E+03  0.00000000000E+00 0.  1.
         -4   -1    0    0    0  501 -0.00000000000E+00 -0.00000000000E+00 -0.70884604000E+02  0.70895980028E+02  0.12700000000E+01 0. -1.
         25    2    1    2    0    0  0.56481274079E+01 -0.43649246876E+02  0.24317194500E+02  0.13473351911E+03  0.12499854850E+03 0.  0.
    9000005    1    3    3    0    0  0.64645521052E+02 -0.14110206640E+02  0.17131982440E+02  0.68356756403E+02  0.10000000000E+01 0.  0.
    9000005    1    3    3    0    0 -0.58997393644E+02 -0.29539040236E+02  0.71852120597E+01  0.66376762705E+02  0.10000000000E+01 0.  0.
         -4    1    1    2    0  502 -0.56481274079E+01  0.43649246876E+02  0.15225199714E+02  0.46589459134E+02  0.12700000000E+01 0.  1.
<mgrwt>
<rscale>  1 0.13252092E+03</rscale>
<asrwt>0</asrwt>
<pdfrwt beam="1">  1       21 0.16988769E-01 0.13252092E+03</pdfrwt>
<pdfrwt beam="2">  1       -4 0.10906761E-01 0.13252092E+03</pdfrwt>
<totfact> 0.82341348E+04</totfact>
</mgrwt>
</event>
<event>
 6    4  0.3189516E-003  0.1273215E+03  0.7818608E-02  0.1231485E+00
         -4   -1    0    0    0  501 -0.00000000000E+00  0.00000000000E+00  0.48171583792E+02  0.48188322081E+02  0.12700000000E+01 0. -1.
         21   -1    0    0  501  502  0.00000000000E+00 -0.00000000000E+00 -0.14372632155E+03  0.14372632155E+03  0.00000000000E+00 0. -1.
         25    2    1    2    0    0  0.17069811806E+02  0.17167277245E+02 -0.43595797393E+02  0.13457845727E+03  0.12499869490E+03 0.  0.
    9000005    1    3    3    0    0 -0.53787649759E+02 -0.61238056134E+00 -0.12862308930E+02  0.55316591250E+02  0.10000000000E+01 0.  0.
    9000005    1    3    3    0    0  0.70857461565E+02  0.17779657806E+02 -0.30733488463E+02  0.79261866015E+02  0.10000000000E+01 0.  0.
         -4    1    1    2    0  502 -0.17069811806E+02 -0.17167277245E+02 -0.51958940368E+02  0.57336186368E+02  0.12700000000E+01 0.  1.
<mgrwt>
<rscale>  1 0.12732151E+03</rscale>
<asrwt>0</asrwt>
<pdfrwt beam="2">  1       21 0.22111741E-01 0.12732151E+03</pdfrwt>
<pdfrwt beam="1">  1       -4 0.74127322E-02 0.12732151E+03</pdfrwt>
<totfact> 0.96005773E+04</totfact>
</mgrwt>
</event>
<event>
 6    4  0.3189516E-003  0.1360465E+03  0.7818608E-02  0.1218750E+00
         21   -1    0    0  501  502  0.00000000000E+00  0.00000000000E+00  0.24916414285E+03  0.24916414285E+03  0.00000000000E+00 0. -1.
          4   -1    0    0  502    0 -0.00000000000E+00 -0.00000000000E+00 -0.10602113353E+03  0.10602873976E+03  0.12700000000E+01 0.  1.
         25    2    1    2    0    0  0.53050198474E+02  0.83857433888E+01 -0.57339957619E+02  0.14763643924E+03  0.12499601274E+03 0.  0.
    9000005    1    3    3    0    0 -0.38008473489E+01 -0.42017231265E+02  0.12933755833E+02  0.44138149074E+02  0.10000000000E+01 0.  0.
    9000005    1    3    3    0    0  0.56851045823E+02  0.50402974654E+02 -0.70273713452E+02  0.10349829017E+03  0.10000000000E+01 0.  0.
          4    1    1    2  501    0 -0.53050198474E+02 -0.83857433888E+01  0.20048296694E+03  0.20755644337E+03  0.12700000000E+01 0. -1.
<mgrwt>
<rscale>  1 0.13604649E+03</rscale>
<asrwt>0</asrwt>
<pdfrwt beam="1">  1       21 0.38332945E-01 0.13604649E+03</pdfrwt>
<pdfrwt beam="2">  1        4 0.16311778E-01 0.13604649E+03</pdfrwt>
<totfact> 0.87798468E+03</totfact>
</mgrwt>
</event>
<event>
 6    4  0.3189516E-003  0.1273452E+03  0.7818608E-02  0.1231449E+00
          4   -1    0    0  502    0 -0.00000000000E+00  0.00000000000E+00  0.21536765177E+03  0.21537139626E+03  0.12700000000E+01 0.  1.
         21   -1    0    0  501  502  0.00000000000E+00 -0.00000000000E+00 -0.31396094901E+02  0.31396094901E+02  0.00000000000E+00 0.  1.
         25    2    1    2    0    0  0.19961620977E+02  0.13916592286E+02  0.18225934224E+03  0.22234040718E+03  0.12499860391E+03 0.  0.
    9000005    1    3    3    0    0 -0.87793969510E+01  0.20483381552E+02 -0.12356560114E+02  0.25501594234E+02  0.10000000000E+01 0.  0.
    9000005    1    3    3    0    0  0.28741017928E+02 -0.65667892654E+01  0.19461590236E+03  0.19683881295E+03  0.10000000000E+01 0.  0.
          4    1    1    2  501    0 -0.19961620977E+02 -0.13916592286E+02  0.17122146235E+01  0.24427083981E+02  0.12700000000E+01 0. -1.
<mgrwt>
<rscale>  1 0.12734516E+03</rscale>
<asrwt>0</asrwt>
<pdfrwt beam="2">  1       21 0.48301686E-02 0.12734516E+03</pdfrwt>
<pdfrwt beam="1">  1        4 0.33135748E-01 0.12734516E+03</pdfrwt>
<totfact> 0.99836955E+04</totfact>
</mgrwt>
</event>
<event>
 6    4  0.3189516E-003  0.1266518E+03  0.7818608E-02  0.1232510E+00
         21   -1    0    0  501  502  0.00000000000E+00  0.00000000000E+00  0.18393906644E+03  0.18393906644E+03  0.00000000000E+00 0.  1.
         -4   -1    0    0    0  501 -0.00000000000E+00 -0.00000000000E+00 -0.76164479506E+02  0.76175067039E+02  0.12700000000E+01 0. -1.
         25    2    1    2    0    0  0.10203877184E+02 -0.17614198706E+02 -0.22170943923E+02  0.12857770128E+03  0.12500518152E+03 0.  0.
    9000005    1    3    3    0    0  0.41853116707E+01 -0.34397059295E+02 -0.69678268494E+02  0.77825032106E+02  0.10000000000E+01 0.  0.
    9000005    1    3    3    0    0  0.60185655133E+01  0.16782860589E+02  0.47507324571E+02  0.50752669174E+02  0.10000000000E+01 0.  0.
         -4    1    1    2    0  502 -0.10203877184E+02  0.17614198706E+02  0.12994553086E+03  0.13153643220E+03  0.12700000000E+01 0.  1.
<mgrwt>
<rscale>  1 0.12665178E+03</rscale>
<asrwt>0</asrwt>
<pdfrwt beam="1">  1       21 0.28298318E-01 0.12665178E+03</pdfrwt>
<pdfrwt beam="2">  1       -4 0.11718764E-01 0.12665178E+03</pdfrwt>
<totfact> 0.27966860E+04</totfact>
</mgrwt>
</event>
<event>
 6    4  0.3189516E-003  0.1408766E+03  0.7818608E-02  0.1212154E+00
          4   -1    0    0  502    0 -0.00000000000E+00  0.00000000000E+00  0.10943928698E+03  0.10944665566E+03  0.12700000000E+01 0.  1.
         21   -1    0    0  501  502  0.00000000000E+00 -0.00000000000E+00 -0.96810373796E+02  0.96810373796E+02  0.00000000000E+00 0. -1.
         25    2    1    2    0    0 -0.37899689215E+01 -0.64868008560E+02  0.81780120385E+01  0.14111375797E+03  0.12499596156E+03 0.  0.
    9000005    1    3    3    0    0 -0.17800048070E+02  0.35129086490E+02  0.76697048650E+01  0.40133761370E+02  0.10000000000E+01 0.  0.
    9000005    1    3    3    0    0  0.14010079149E+02 -0.99997095051E+02  0.50830717348E+00  0.10097999660E+03  0.10000000000E+01 0.  0.
          4    1    1    2  501    0  0.37899689215E+01  0.64868008560E+02  0.44509011443E+01  0.65143271487E+02  0.12700000000E+01 0. -1.
<mgrwt>
<rscale>  1 0.14087659E+03</rscale>
<asrwt>0</asrwt>
<pdfrwt beam="2">  1       21 0.14893904E-01 0.14087659E+03</pdfrwt>
<pdfrwt beam="1">  1        4 0.16838021E-01 0.14087659E+03</pdfrwt>
<totfact> 0.49680840E+04</totfact>
</mgrwt>
</event>
<event>
 6    4  0.3189516E-003  0.1304612E+03  0.7818608E-02  0.1226773E+00
         21   -1    0    0  501  502  0.00000000000E+00  0.00000000000E+00  0.11063295997E+03  0.11063295997E+03  0.00000000000E+00 0. -1.
         -4   -1    0    0    0  501 -0.00000000000E+00 -0.00000000000E+00 -0.92679493467E+02  0.92688194552E+02  0.12700000000E+01 0.  1.
         25    2    1    2    0    0  0.19495395898E+02 -0.31855639045E+02 -0.38138033765E+02  0.13592144011E+03  0.12500110425E+03 0.  0.
    9000005    1    3    3    0    0 -0.66558605687E+01  0.23530113576E+02  0.33612473970E+02  0.41578421461E+02  0.10000000000E+01 0.  0.
    9000005    1    3    3    0    0  0.26151256466E+02 -0.55385752620E+02 -0.71750507735E+02  0.94343018652E+02  0.10000000000E+01 0.  0.
         -4    1    1    2    0  502 -0.19495395898E+02  0.31855639045E+02  0.56091500273E+02  0.67399714413E+02  0.12700000000E+01 0. -1.
<mgrwt>
<rscale>  1 0.13046121E+03</rscale>
<asrwt>0</asrwt>
<pdfrwt beam="1">  1       21 0.17020455E-01 0.13046121E+03</pdfrwt>
<pdfrwt beam="2">  1       -4 0.14259614E-01 0.13046121E+03</pdfrwt>
<totfact> 0.51708977E+04</totfact>
</mgrwt>
</event>
<event>
 6    4  0.3189516E-003  0.1270901E+03  0.7818608E-02  0.1231839E+00
         -4   -1    0    0    0  501 -0.00000000000E+00  0.00000000000E+00  0.15182031222E+04  0.15182036534E+04  0.12700000000E+01 0. -1.
         21   -1    0    0  501  502  0.00000000000E+00 -0.00000000000E+00 -0.38937410698E+01  0.38937410698E+01  0.00000000000E+00 0. -1.
         25    2    1    2    0    0 -0.27272385287E+01  0.22787361531E+02  0.11352212458E+04  0.11423130755E+04  0.12500073549E+03 0.  0.
    9000005    1    3    3    0    0  0.21131712282E+02 -0.44292625462E+02  0.65563317962E+03  0.65746806170E+03  0.10000000000E+01 0.  0.
    9000005    1    3    3    0    0 -0.23858950811E+02  0.67079986992E+02  0.47958806616E+03  0.48484501378E+03  0.10000000000E+01 0.  0.
         -4    1    1    2    0  502  0.27272385287E+01 -0.22787361531E+02  0.37908813540E+03  0.37978431902E+03  0.12700000000E+01 0.  1.
<mgrwt>
<rscale>  1 0.12709007E+03</rscale>
<asrwt>0</asrwt>
<pdfrwt beam="2">  1       21 0.59903830E-03 0.12709007E+03</pdfrwt>
<pdfrwt beam="1">  1       -4 0.23358521E+00 0.12709007E+03</pdfrwt>
<totfact> 0.30992278E+04</totfact>
</mgrwt>
</event>
<event>
 6    4  0.3189516E-003  0.1310332E+03  0.7818608E-02  0.1225931E+00
         21   -1    0    0  501  502  0.00000000000E+00  0.00000000000E+00  0.66591507672E+02  0.66591507672E+02  0.00000000000E+00 0. -1.
          4   -1    0    0  502    0 -0.00000000000E+00 -0.00000000000E+00 -0.10996443354E+03  0.10997176703E+03  0.12700000000E+01 0. -1.
         25    2    1    2    0    0 -0.34198118601E+02  0.19290245326E+02 -0.25899033012E+02  0.13356822019E+03  0.12501233801E+03 0.  0.
    9000005    1    3    3    0    0  0.22234957976E+02  0.43121325272E+02 -0.48173662008E+02  0.68377947912E+02  0.10000000000E+01 0.  0.
    9000005    1    3    3    0    0 -0.56433076576E+02 -0.23831079946E+02  0.22274628996E+02  0.65190272282E+02  0.10000000000E+01 0.  0.
          4    1    1    2  501    0  0.34198118601E+02 -0.19290245326E+02 -0.17473892856E+02  0.42995054508E+02  0.12700000000E+01 0.  1.
<mgrwt>
<rscale>  1 0.13103324E+03</rscale>
<asrwt>0</asrwt>
<pdfrwt beam="1">  1       21 0.10244847E-01 0.13103324E+03</pdfrwt>
<pdfrwt beam="2">  1        4 0.16919101E-01 0.13103324E+03</pdfrwt>
<totfact> 0.94960292E+04</totfact>
</mgrwt>
</event>
<event>
 6    4  0.3189516E-003  0.1330511E+03  0.7818608E-02  0.1222997E+00
         21   -1    0    0  501  502  0.00000000000E+00  0.00000000000E+00  0.99823211053E+02  0.99823211053E+02  0.00000000000E+00 0. -1.
         -4   -1    0    0    0  501 -0.00000000000E+00 -0.00000000000E+00 -0.98354480486E+02  0.98362679567E+02  0.12700000000E+01 0.  1.
         25    2    1    2    0    0  0.45110455434E+02 -0.64863331378E+01 -0.37472278273E+02  0.13822723172E+03  0.12500228096E+03 0.  0.
    9000005    1    3    3    0    0  0.34482746795E+02 -0.53013870509E+02 -0.58416005656E+02  0.86098548244E+02  0.10000000000E+01 0.  0.
    9000005    1    3    3    0    0  0.10627708639E+02  0.46527537371E+02  0.20943727383E+02  0.52128683480E+02  0.10000000000E+01 0.  0.
         -4    1    1    2    0  502 -0.45110455434E+02  0.64863331378E+01  0.38941008840E+02  0.59958658896E+02  0.12700000000E+01 0. -1.
<mgrwt>
<rscale>  1 0.13305110E+03</rscale>
<asrwt>0</asrwt>
<pdfrwt beam="1">  1       21 0.15357417E-01 0.13305110E+03</pdfrwt>
<pdfrwt beam="2">  1       -4 0.15132711E-01 0.13305110E+03</pdfrwt>
<totfact> 0.56326827E+04</totfact>
</mgrwt>
</event>
<event>
 6    4  0.3189516E-003  0.1296930E+03  0.7818608E-02  0.1227912E+00
         21   -1    0    0  501  502  0.00000000000E+00  0.00000000000E+00  0.93022090339E+01  0.93022090339E+01  0.00000000000E+00 0.  1.
          4   -1    0    0  502    0 -0.00000000000E+00 -0.00000000000E+00 -0.73229916358E+03  0.73230026484E+03  0.12700000000E+01 0.  1.
         25    2    1    2    0    0  0.48236428780E+01 -0.34233247723E+02 -0.53920457312E+03  0.55458259485E+03  0.12500040021E+03 0.  0.
    9000005    1    3    3    0    0 -0.22702887631E+02 -0.69976360286E+02 -0.43273558520E+03  0.43894555335E+03  0.10000000000E+01 0.  0.
    9000005    1    3    3    0    0  0.27526530509E+02  0.35743112563E+02 -0.10646898792E+03  0.11563704149E+03  0.10000000000E+01 0.  0.
          4    1    1    2  501    0 -0.48236428780E+01  0.34233247723E+02 -0.18379238143E+03  0.18701987903E+03  0.12700000000E+01 0. -1.
<mgrwt>
<rscale>  1 0.12969303E+03</rscale>
<asrwt>0</asrwt>
<pdfrwt beam="1">  1       21 0.14311092E-02 0.12969303E+03</pdfrwt>
<pdfrwt beam="2">  1        4 0.11266816E+00 0.12969303E+03</pdfrwt>
<totfact> 0.54746957E+04</totfact>
</mgrwt>
</event>
<event>
 6    4  0.3189516E-003  0.1287819E+03  0.7818608E-02  0.1229274E+00
         21   -1    0    0  501  502  0.00000000000E+00  0.00000000000E+00  0.88849528356E+02  0.88849528356E+02  0.00000000000E+00 0.  1.
          4   -1    0    0  502    0 -0.00000000000E+00 -0.00000000000E+00 -0.73406008156E+02  0.73416993491E+02  0.12700000000E+01 0.  1.
         25    2    1    2    0    0 -0.80553315960E+00 -0.31041549822E+02  0.30775398155E+01  0.12881869576E+03  0.12498223245E+03 0.  0.
    9000005    1    3    3    0    0  0.28415001493E+01  0.46386939353E+02 -0.15685150472E+02  0.49059618944E+02  0.10000000000E+01 0.  0.
    9000005    1    3    3    0    0 -0.36470333089E+01 -0.77428489175E+02  0.18762690288E+02  0.79759076817E+02  0.10000000000E+01 0.  0.
          4    1    1    2  501    0  0.80553315960E+00  0.31041549822E+02  0.12365980385E+02  0.33447826086E+02  0.12700000000E+01 0. -1.
<mgrwt>
<rscale>  1 0.12878193E+03</rscale>
<asrwt>0</asrwt>
<pdfrwt beam="1">  1       21 0.13669158E-01 0.12878193E+03</pdfrwt>
<pdfrwt beam="2">  1        4 0.11294775E-01 0.12878193E+03</pdfrwt>
<totfact> 0.11445139E+05</totfact>
</mgrwt>
</event>
<event>
 6    4  0.3189516E-003  0.1293699E+03  0.7818608E-02  0.1228394E+00
          4   -1    0    0  502    0 -0.00000000000E+00  0.00000000000E+00  0.40985363518E+03  0.40985560283E+03  0.12700000000E+01 0. -1.
         21   -1    0    0  501  502  0.00000000000E+00 -0.00000000000E+00 -0.31288932825E+02  0.31288932825E+02  0.00000000000E+00 0. -1.
         25    2    1    2    0    0  0.11699338697E+02 -0.31181462764E+02  0.38590928070E+03  0.40701663099E+03  0.12500962692E+03 0.  0.
    9000005    1    3    3    0    0  0.35628670880E+02 -0.62627647767E+02  0.13514571476E+03  0.15315674543E+03  0.10000000000E+01 0.  0.
    9000005    1    3    3    0    0 -0.23929332183E+02  0.31446185003E+02  0.25076356594E+03  0.25385988556E+03  0.10000000000E+01 0.  0.
          4    1    1    2  501    0 -0.11699338697E+02  0.31181462764E+02 -0.73445783434E+01  0.34127904669E+02  0.12700000000E+01 0.  1.
<mgrwt>
<rscale>  1 0.12936988E+03</rscale>
<asrwt>0</asrwt>
<pdfrwt beam="2">  1       21 0.48136823E-02 0.12936988E+03</pdfrwt>
<pdfrwt beam="1">  1        4 0.63056535E-01 0.12936988E+03</pdfrwt>
<totfact> 0.27632614E+04</totfact>
</mgrwt>
</event>
<event>
 6    4  0.3189516E-003  0.1322010E+03  0.7818608E-02  0.1224226E+00
         21   -1    0    0  501  502  0.00000000000E+00  0.00000000000E+00  0.19621493958E+03  0.19621493958E+03  0.00000000000E+00 0. -1.
          4   -1    0    0  502    0 -0.00000000000E+00 -0.00000000000E+00 -0.51490982489E+02  0.51506642073E+02  0.12700000000E+01 0.  1.
         25    2    1    2    0    0 -0.26211117142E+01  0.42945035225E+02  0.45920518612E+02  0.13994923533E+03  0.12500379259E+03 0.  0.
    9000005    1    3    3    0    0 -0.32376360102E+02  0.38028642710E+02  0.80072007141E+02  0.94376547337E+02  0.10000000000E+01 0.  0.
    9000005    1    3    3    0    0  0.29755248388E+02  0.49163925148E+01 -0.34151488529E+02  0.45572687991E+02  0.10000000000E+01 0.  0.
          4    1    1    2  501    0  0.26211117142E+01 -0.42945035225E+02  0.98803438484E+02  0.10777234633E+03  0.12700000000E+01 0. -1.
<mgrwt>
<rscale>  1 0.13220096E+03</rscale>
<asrwt>0</asrwt>
<pdfrwt beam="1">  1       21 0.30186913E-01 0.13220096E+03</pdfrwt>
<pdfrwt beam="2">  1        4 0.79232105E-02 0.13220096E+03</pdfrwt>
<totfact> 0.47873272E+04</totfact>
</mgrwt>
</event>
<event>
 6    4  0.3189516E-003  0.1277343E+03  0.7818608E-02  0.1230857E+00
         21   -1    0    0  501  502  0.00000000000E+00  0.00000000000E+00  0.65702684430E+02  0.65702684430E+02  0.00000000000E+00 0. -1.
          4   -1    0    0  502    0 -0.00000000000E+00 -0.00000000000E+00 -0.90871901204E+02  0.90880775352E+02  0.12700000000E+01 0. -1.
         25    2    1    2    0    0 -0.87336734447E+01 -0.24789357133E+02 -0.25562546306E+02  0.13026698420E+03  0.12500101648E+03 0.  0.
    9000005    1    3    3    0    0 -0.63984429142E+02  0.63300899749E+01 -0.12057172286E+02  0.65425168057E+02  0.10000000000E+01 0.  0.
    9000005    1    3    3    0    0  0.55250755697E+02 -0.31119447108E+02 -0.13505374020E+02  0.64841816144E+02  0.10000000000E+01 0.  0.
          4    1    1    2  501    0  0.87336734447E+01  0.24789357133E+02  0.39332953167E+00  0.26316475581E+02  0.12700000000E+01 0.  1.
<mgrwt>
<rscale>  1 0.12773427E+03</rscale>
<asrwt>0</asrwt>
<pdfrwt beam="1">  1       21 0.10108105E-01 0.12773427E+03</pdfrwt>
<pdfrwt beam="2">  1        4 0.13981919E-01 0.12773427E+03</pdfrwt>
<totfact> 0.13519364E+05</totfact>
</mgrwt>
</event>
<event>
 6    4  0.3189516E-003  0.1283657E+03  0.7818608E-02  0.1229901E+00
         21   -1    0    0  501  502  0.00000000000E+00  0.00000000000E+00  0.11062685538E+04  0.11062685538E+04  0.00000000000E+00 0.  1.
         -4   -1    0    0    0  501 -0.00000000000E+00 -0.00000000000E+00 -0.10481092071E+02  0.10557755017E+02  0.12700000000E+01 0. -1.
         25    2    1    2    0    0 -0.18100973912E+02  0.22931601991E+02  0.39304432623E+03  0.41347502318E+03  0.12499699508E+03 0.  0.
    9000005    1    3    3    0    0  0.42423330318E+02 -0.11669001106E+02  0.25555549385E+03  0.25931740200E+03  0.10000000000E+01 0.  0.
    9000005    1    3    3    0    0 -0.60524304229E+02  0.34600603097E+02  0.13748883238E+03  0.15415762117E+03  0.10000000000E+01 0.  0.
         -4    1    1    2    0  502  0.18100973912E+02 -0.22931601991E+02  0.70274313548E+03  0.70335128563E+03  0.12700000000E+01 0.  1.
<mgrwt>
<rscale>  1 0.12836570E+03</rscale>
<asrwt>0</asrwt>
<pdfrwt beam="1">  1       21 0.17019507E+00 0.12836570E+03</pdfrwt>
<pdfrwt beam="2">  1       -4 0.16184298E-02 0.12836570E+03</pdfrwt>
<totfact> 0.12485931E+04</totfact>
</mgrwt>
</event>
<event>
 6    4  0.3189516E-003  0.1334625E+03  0.7818608E-02  0.1222407E+00
         -4   -1    0    0    0  501 -0.00000000000E+00  0.00000000000E+00  0.35136166013E+02  0.35159110656E+02  0.12700000000E+01 0.  1.
         21   -1    0    0  501  502  0.00000000000E+00 -0.00000000000E+00 -0.47604536433E+03  0.47604536433E+03  0.00000000000E+00 0.  1.
         25    2    1    2    0    0  0.21703866577E+02  0.41420856307E+02 -0.99158110389E+02  0.16626656150E+03  0.12500197380E+03 0.  0.
    9000005    1    3    3    0    0  0.53945408942E+02  0.33311498925E+02 -0.18559339855E+01  0.63436642389E+02  0.10000000000E+01 0.  0.
    9000005    1    3    3    0    0 -0.32241542365E+02  0.81093573818E+01 -0.97302176403E+02  0.10282991911E+03  0.10000000000E+01 0.  0.
         -4    1    1    2    0  502 -0.21703866577E+02 -0.41420856307E+02 -0.34175108793E+03  0.34493791349E+03  0.12700000000E+01 0. -1.
<mgrwt>
<rscale>  1 0.13346250E+03</rscale>
<asrwt>0</asrwt>
<pdfrwt beam="2">  1       21 0.73237743E-01 0.13346250E+03</pdfrwt>
<pdfrwt beam="1">  1       -4 0.54074597E-02 0.13346250E+03</pdfrwt>
<totfact> 0.14501648E+04</totfact>
</mgrwt>
</event>
<event>
 6    4  0.3189516E-003  0.1279890E+03  0.7818608E-02  0.1230471E+00
         21   -1    0    0  501  502  0.00000000000E+00  0.00000000000E+00  0.10299571840E+03  0.10299571840E+03  0.00000000000E+00 0.  1.
         -4   -1    0    0    0  501 -0.00000000000E+00 -0.00000000000E+00 -0.69048189245E+02  0.69059867781E+02  0.12700000000E+01 0.  1.
         25    2    1    2    0    0 -0.44306164970E+01 -0.27120736452E+02  0.53067114599E+02  0.13855430030E+03  0.12500404302E+03 0.  0.
    9000005    1    3    3    0    0  0.54449034020E+02 -0.23136862681E+02 -0.20413382691E-01  0.59169351333E+02  0.10000000000E+01 0.  0.
    9000005    1    3    3    0    0 -0.58879650517E+02 -0.39838737716E+01  0.53087527982E+02  0.79384948967E+02  0.10000000000E+01 0.  0.
         -4    1    1    2    0  502  0.44306164970E+01  0.27120736452E+02 -0.19119585443E+02  0.33501285883E+02  0.12700000000E+01 0. -1.
<mgrwt>
<rscale>  1 0.12798897E+03</rscale>
<asrwt>0</asrwt>
<pdfrwt beam="1">  1       21 0.15845495E-01 0.12798897E+03</pdfrwt>
<pdfrwt beam="2">  1       -4 0.10624299E-01 0.12798897E+03</pdfrwt>
<totfact> 0.97233211E+04</totfact>
</mgrwt>
</event>
<event>
 6    4  0.3189516E-003  0.1301242E+03  0.7818608E-02  0.1227272E+00
         -4   -1    0    0    0  501 -0.00000000000E+00  0.00000000000E+00  0.13846887185E+03  0.13847469578E+03  0.12700000000E+01 0. -1.
         21   -1    0    0  501  502  0.00000000000E+00 -0.00000000000E+00 -0.50179482430E+02  0.50179482430E+02  0.00000000000E+00 0.  1.
         25    2    1    2    0    0  0.77298589782E+01 -0.35326520512E+02  0.74423621010E+02  0.14990387234E+03  0.12499832722E+03 0.  0.
    9000005    1    3    3    0    0  0.44489672642E+02 -0.42389794566E+02 -0.54380175845E+01  0.61699251943E+02  0.10000000000E+01 0.  0.
    9000005    1    3    3    0    0 -0.36759813664E+02  0.70632740535E+01  0.79861638595E+02  0.88204620400E+02  0.10000000000E+01 0.  0.
         -4    1    1    2    0  502 -0.77298589782E+01  0.35326520512E+02  0.13865768415E+02  0.38750305871E+02  0.12700000000E+01 0.  1.
<mgrwt>
<rscale>  1 0.13012415E+03</rscale>
<asrwt>0</asrwt>
<pdfrwt beam="2">  1       21 0.77199204E-02 0.13012415E+03</pdfrwt>
<pdfrwt beam="1">  1       -4 0.21304587E-01 0.13012415E+03</pdfrwt>
<totfact> 0.10270548E+05</totfact>
</mgrwt>
</event>
<event>
 6    4  0.3189516E-003  0.1273337E+03  0.7818608E-02  0.1231467E+00
         -4   -1    0    0    0  501 -0.00000000000E+00  0.00000000000E+00  0.46725271541E+03  0.46725444135E+03  0.12700000000E+01 0. -1.
         21   -1    0    0  501  502  0.00000000000E+00 -0.00000000000E+00 -0.12826645749E+02  0.12826645749E+02  0.00000000000E+00 0. -1.
         25    2    1    2    0    0 -0.22600634019E+02 -0.88354585551E+01  0.41154495265E+03  0.43079359292E+03  0.12500007066E+03 0.  0.
    9000005    1    3    3    0    0 -0.29488034227E+02 -0.28328659720E+02  0.40769319856E+03  0.40973991907E+03  0.10000000000E+01 0.  0.
    9000005    1    3    3    0    0  0.68874002079E+01  0.19493201164E+02  0.38517540909E+01  0.21053673856E+02  0.10000000000E+01 0.  0.
         -4    1    1    2    0  502  0.22600634019E+02  0.88354585551E+01  0.42881117011E+02  0.49287494175E+02  0.12700000000E+01 0.  1.
<mgrwt>
<rscale>  1 0.12733370E+03</rscale>
<asrwt>0</asrwt>
<pdfrwt beam="2">  1       21 0.19733305E-02 0.12733370E+03</pdfrwt>
<pdfrwt beam="1">  1       -4 0.71889989E-01 0.12733370E+03</pdfrwt>
<totfact> 0.90108584E+04</totfact>
</mgrwt>
</event>
<event>
 6    4  0.3189516E-003  0.1309609E+03  0.7818608E-02  0.1226037E+00
          4   -1    0    0  502    0 -0.00000000000E+00  0.00000000000E+00  0.76839579814E+02  0.76850074339E+02  0.12700000000E+01 0.  1.
         21   -1    0    0  501  502  0.00000000000E+00 -0.00000000000E+00 -0.15360838400E+03  0.15360838400E+03  0.00000000000E+00 0. -1.
         25    2    1    2    0    0 -0.16930486947E+02  0.35186890223E+02  0.13933196930E+02  0.13170004331E+03  0.12500403514E+03 0.  0.
    9000005    1    3    3    0    0 -0.20347572715E+02  0.67891685977E+02  0.47005449498E+02  0.85051849026E+02  0.10000000000E+01 0.  0.
    9000005    1    3    3    0    0  0.34170857678E+01 -0.32704795754E+02 -0.33072252568E+02  0.46648194288E+02  0.10000000000E+01 0.  0.
          4    1    1    2  501    0  0.16930486947E+02 -0.35186890223E+02 -0.90702001114E+02  0.98758415023E+02  0.12700000000E+01 0. -1.
<mgrwt>
<rscale>  1 0.13096094E+03</rscale>
<asrwt>0</asrwt>
<pdfrwt beam="2">  1       21 0.23632059E-01 0.13096094E+03</pdfrwt>
<pdfrwt beam="1">  1        4 0.11822685E-01 0.13096094E+03</pdfrwt>
<totfact> 0.38917956E+04</totfact>
</mgrwt>
</event>
<event>
 6    4  0.3189516E-003  0.1272678E+03  0.7818608E-02  0.1231567E+00
          4   -1    0    0  502    0 -0.00000000000E+00  0.00000000000E+00  0.15054594153E+03  0.15055129827E+03  0.12700000000E+01 0.  1.
         21   -1    0    0  501  502  0.00000000000E+00 -0.00000000000E+00 -0.13934378193E+03  0.13934378193E+03  0.00000000000E+00 0. -1.
         25    2    1    2    0    0  0.10360683675E+02 -0.21556421267E+02  0.12214361528E+03  0.17639775621E+03  0.12500033031E+03 0.  0.
    9000005    1    3    3    0    0 -0.35276189336E+02  0.28186441752E+02  0.91942936821E+02  0.10243724256E+03  0.10000000000E+01 0.  0.
    9000005    1    3    3    0    0  0.45636873011E+02 -0.49742863019E+02  0.30200678464E+02  0.73960513649E+02  0.10000000000E+01 0.  0.
          4    1    1    2  501    0 -0.10360683675E+02  0.21556421267E+02 -0.11094145568E+03  0.11349732399E+03  0.12700000000E+01 0. -1.
<mgrwt>
<rscale>  1 0.12726785E+03</rscale>
<asrwt>0</asrwt>
<pdfrwt beam="2">  1       21 0.21437505E-01 0.12726785E+03</pdfrwt>
<pdfrwt beam="1">  1        4 0.23161771E-01 0.12726785E+03</pdfrwt>
<totfact> 0.14225542E+04</totfact>
</mgrwt>
</event>
<event>
 6    4  0.3189516E-003  0.1294156E+03  0.7818608E-02  0.1228325E+00
         21   -1    0    0  501  502  0.00000000000E+00  0.00000000000E+00  0.28506659476E+03  0.28506659476E+03  0.00000000000E+00 0.  1.
         -4   -1    0    0    0  501 -0.00000000000E+00 -0.00000000000E+00 -0.31832228294E+02  0.31857552608E+02  0.12700000000E+01 0.  1.
         25    2    1    2    0    0 -0.29400786428E+02 -0.16165645570E+02  0.11012622370E+03  0.16992997141E+03  0.12499070244E+03 0.  0.
    9000005    1    3    3    0    0 -0.10030353624E+02  0.18892058003E+02 -0.22692101011E+02  0.31200149001E+02  0.10000000000E+01 0.  0.
    9000005    1    3    3    0    0 -0.19370432804E+02 -0.35057703574E+02  0.13281832471E+03  0.13872982241E+03  0.10000000000E+01 0.  0.
         -4    1    1    2    0  502  0.29400786428E+02  0.16165645570E+02  0.14310814277E+03  0.14699417596E+03  0.12700000000E+01 0. -1.
<mgrwt>
<rscale>  1 0.12941565E+03</rscale>
<asrwt>0</asrwt>
<pdfrwt beam="1">  1       21 0.43856397E-01 0.12941565E+03</pdfrwt>
<pdfrwt beam="2">  1       -4 0.48994317E-02 0.12941565E+03</pdfrwt>
<totfact> 0.49937748E+04</totfact>
</mgrwt>
</event>
<event>
 6    4  0.3189516E-003  0.1287786E+03  0.7818608E-02  0.1229279E+00
         21   -1    0    0  501  502  0.00000000000E+00  0.00000000000E+00  0.20354826313E+02  0.20354826313E+02  0.00000000000E+00 0.  1.
          4   -1    0    0  502    0 -0.00000000000E+00 -0.00000000000E+00 -0.17306495495E+04  0.17306500155E+04  0.12700000000E+01 0. -1.
         25    2    1    2    0    0  0.21571825333E+02 -0.22217093728E+02 -0.17148503867E+04  0.17196789760E+04  0.12499995450E+03 0.  0.
    9000005    1    3    3    0    0  0.47392753138E+02  0.33611027548E+02 -0.11545603562E+04  0.11560217949E+04  0.10000000000E+01 0.  0.
    9000005    1    3    3    0    0 -0.25820927804E+02 -0.55828121276E+02 -0.56029003049E+03  0.56365718101E+03  0.10000000000E+01 0.  0.
          4    1    1    2  501    0 -0.21571825333E+02  0.22217093728E+02  0.45556635055E+01  0.31325865860E+02  0.12700000000E+01 0.  1.
<mgrwt>
<rscale>  1 0.12877861E+03</rscale>
<asrwt>0</asrwt>
<pdfrwt beam="1">  1       21 0.31315118E-02 0.12877861E+03</pdfrwt>
<pdfrwt beam="2">  1        4 0.26625685E+00 0.12877861E+03</pdfrwt>
<totfact> 0.14408123E+03</totfact>
</mgrwt>
</event>
<event>
 6    4  0.3189516E-003  0.1269735E+03  0.7818608E-02  0.1232017E+00
         21   -1    0    0  501  502  0.00000000000E+00  0.00000000000E+00  0.43589991245E+02  0.43589991245E+02  0.00000000000E+00 0. -1.
          4   -1    0    0  502    0 -0.00000000000E+00 -0.00000000000E+00 -0.16187149304E+03  0.16187647501E+03  0.12700000000E+01 0. -1.
         25    2    1    2    0    0  0.40765135801E+01 -0.21916952555E+02 -0.12872983017E+03  0.18081385507E+03  0.12500124095E+03 0.  0.
    9000005    1    3    3    0    0 -0.39174857386E+02  0.34257440217E+02 -0.77429697741E+02  0.93298444541E+02  0.10000000000E+01 0.  0.
    9000005    1    3    3    0    0  0.43251370966E+02 -0.56174392772E+02 -0.51300132425E+02  0.87515410532E+02  0.10000000000E+01 0.  0.
          4    1    1    2  501    0 -0.40765135801E+01  0.21916952555E+02  0.10448328367E+02  0.24652611178E+02  0.12700000000E+01 0.  1.
<mgrwt>
<rscale>  1 0.12697354E+03</rscale>
<asrwt>0</asrwt>
<pdfrwt beam="1">  1       21 0.67061526E-02 0.12697354E+03</pdfrwt>
<pdfrwt beam="2">  1        4 0.24905113E-01 0.12697354E+03</pdfrwt>
<totfact> 0.97937104E+04</totfact>
</mgrwt>
</event>
<event>
 6    4  0.3189516E-003  0.1487772E+03  0.7818608E-02  0.1201984E+00
         21   -1    0    0  501  502  0.00000000000E+00  0.00000000000E+00  0.60165007868E+02  0.60165007868E+02  0.00000000000E+00 0. -1.
          4   -1    0    0  502    0 -0.00000000000E+00 -0.00000000000E+00 -0.56477990014E+03  0.56478132804E+03  0.12700000000E+01 0.  1.
         25    2    1    2    0    0 -0.33027086940E+02  0.73621514370E+02 -0.52166407078E+03  0.54246480320E+03  0.12499497639E+03 0.  0.
    9000005    1    3    3    0    0 -0.45871154338E+01  0.59143975728E+02 -0.79749772422E+02  0.99398579941E+02  0.10000000000E+01 0.  0.
    9000005    1    3    3    0    0 -0.28439971506E+02  0.14477538642E+02 -0.44191429835E+03  0.44306622326E+03  0.10000000000E+01 0.  0.
          4    1    1    2  501    0  0.33027086940E+02 -0.73621514370E+02  0.17049178504E+02  0.82481532706E+02  0.12700000000E+01 0. -1.
<mgrwt>
<rscale>  1 0.14877722E+03</rscale>
<asrwt>0</asrwt>
<pdfrwt beam="1">  1       21 0.92561549E-02 0.14877722E+03</pdfrwt>
<pdfrwt beam="2">  1        4 0.86890358E-01 0.14877722E+03</pdfrwt>
<totfact> 0.45474312E+03</totfact>
</mgrwt>
</event>
<event>
 6    4  0.3189516E-003  0.1327886E+03  0.7818608E-02  0.1223376E+00
         -4   -1    0    0    0  501 -0.00000000000E+00  0.00000000000E+00  0.13468950864E+04  0.13468956852E+04  0.12700000000E+01 0.  1.
         21   -1    0    0  501  502  0.00000000000E+00 -0.00000000000E+00 -0.84411578420E+01  0.84411578420E+01  0.00000000000E+00 0. -1.
         25    2    1    2    0    0  0.44617534356E+02 -0.42231943955E+01  0.12407670536E+04  0.12478524340E+04  0.12499702372E+03 0.  0.
    9000005    1    3    3    0    0  0.15659391612E+02  0.12307080815E+02  0.26690249808E+02  0.33317416147E+02  0.10000000000E+01 0.  0.
    9000005    1    3    3    0    0  0.28958142744E+02 -0.16530275210E+02  0.12140768038E+04  0.12145350178E+04  0.10000000000E+01 0.  0.
         -4    1    1    2    0  502 -0.44617534356E+02  0.42231943955E+01  0.97686875014E+02  0.10748440907E+03  0.12700000000E+01 0. -1.
<mgrwt>
<rscale>  1 0.13278861E+03</rscale>
<asrwt>0</asrwt>
<pdfrwt beam="2">  1       21 0.12986407E-02 0.13278861E+03</pdfrwt>
<pdfrwt beam="1">  1       -4 0.20722185E+00 0.13278861E+03</pdfrwt>
<totfact> 0.13254640E+04</totfact>
</mgrwt>
</event>
<event>
 6    4  0.3189516E-003  0.1337236E+03  0.7818608E-02  0.1222033E+00
         21   -1    0    0  501  502  0.00000000000E+00  0.00000000000E+00  0.41727241822E+03  0.41727241822E+03  0.00000000000E+00 0.  1.
         -4   -1    0    0    0  501 -0.00000000000E+00 -0.00000000000E+00 -0.22515953138E+02  0.22551741523E+02  0.12700000000E+01 0. -1.
         25    2    1    2    0    0  0.46719949477E+02 -0.85901663223E+01  0.20926286407E+03  0.24834039136E+03  0.12500183626E+03 0.  0.
    9000005    1    3    3    0    0  0.40700317440E+00  0.47138215054E+02  0.32407508087E+02  0.57213840550E+02  0.10000000000E+01 0.  0.
    9000005    1    3    3    0    0  0.46312946303E+02 -0.55728381377E+02  0.17685535598E+03  0.19112655081E+03  0.10000000000E+01 0.  0.
         -4    1    1    2    0  502 -0.46719949477E+02  0.85901663223E+01  0.18549360102E+03  0.19148376839E+03  0.12700000000E+01 0.  1.
<mgrwt>
<rscale>  1 0.13372361E+03</rscale>
<asrwt>0</asrwt>
<pdfrwt beam="1">  1       21 0.64195751E-01 0.13372361E+03</pdfrwt>
<pdfrwt beam="2">  1       -4 0.34668947E-02 0.13372361E+03</pdfrwt>
<totfact> 0.39248917E+04</totfact>
</mgrwt>
</event>
<event>
 6    4  0.3189516E-003  0.1276191E+03  0.7818608E-02  0.1231032E+00
          4   -1    0    0  502    0 -0.00000000000E+00  0.00000000000E+00  0.70720568267E+03  0.70720682301E+03  0.12700000000E+01 0.  1.
         21   -1    0    0  501  502  0.00000000000E+00 -0.00000000000E+00 -0.13788762598E+02  0.13788762598E+02  0.00000000000E+00 0.  1.
         25    2    1    2    0    0 -0.25730036609E+00  0.25712388835E+02  0.68017662970E+03  0.69204543306E+03  0.12500176272E+03 0.  0.
    9000005    1    3    3    0    0 -0.47507411651E+02 -0.30873165380E+01  0.11941086739E+03  0.12855520580E+03  0.10000000000E+01 0.  0.
    9000005    1    3    3    0    0  0.47250111285E+02  0.28799705373E+02  0.56076576231E+03  0.56349022727E+03  0.10000000000E+01 0.  0.
          4    1    1    2  501    0  0.25730036609E+00 -0.25712388835E+02  0.13240290371E+02  0.28950152542E+02  0.12700000000E+01 0. -1.
<mgrwt>
<rscale>  1 0.12761910E+03</rscale>
<asrwt>0</asrwt>
<pdfrwt beam="2">  1       21 0.21213486E-02 0.12761910E+03</pdfrwt>
<pdfrwt beam="1">  1        4 0.10880543E+00 0.12761910E+03</pdfrwt>
<totfact> 0.31528691E+04</totfact>
</mgrwt>
</event>
<event>
 6    4  0.3189516E-003  0.1272728E+03  0.7818608E-02  0.1231559E+00
         21   -1    0    0  501  502  0.00000000000E+00  0.00000000000E+00  0.36196788566E+03  0.36196788566E+03  0.00000000000E+00 0. -1.
         -4   -1    0    0    0  501 -0.00000000000E+00 -0.00000000000E+00 -0.61259864592E+02  0.61273027589E+02  0.12700000000E+01 0.  1.
         25    2    1    2    0    0  0.22878897145E+02 -0.70792666331E+01  0.58478892107E+01  0.12740705750E+03  0.12499920216E+03 0.  0.
    9000005    1    3    3    0    0  0.77342612532E+01 -0.62138976236E+02 -0.18527586012E+02  0.65309590477E+02  0.10000000000E+01 0.  0.
    9000005    1    3    3    0    0  0.15144635891E+02  0.55059709603E+02  0.24375475223E+02  0.62097467019E+02  0.10000000000E+01 0.  0.
         -4    1    1    2    0  502 -0.22878897145E+02  0.70792666331E+01  0.29486013186E+03  0.29583385575E+03  0.12700000000E+01 0. -1.
<mgrwt>
<rscale>  1 0.12727278E+03</rscale>
<asrwt>0</asrwt>
<pdfrwt beam="1">  1       21 0.55687366E-01 0.12727278E+03</pdfrwt>
<pdfrwt beam="2">  1       -4 0.94257787E-02 0.12727278E+03</pdfrwt>
<totfact> 0.10442793E+04</totfact>
</mgrwt>
</event>
<event>
 6    4  0.3189516E-003  0.1290969E+03  0.7818608E-02  0.1228802E+00
          4   -1    0    0  502    0 -0.00000000000E+00  0.00000000000E+00  0.78567441872E+03  0.78567544516E+03  0.12700000000E+01 0. -1.
         21   -1    0    0  501  502  0.00000000000E+00 -0.00000000000E+00 -0.10996952449E+02  0.10996952449E+02  0.00000000000E+00 0.  1.
         25    2    1    2    0    0 -0.25649748269E+02  0.19564147540E+02  0.73125668530E+03  0.74256470338E+03  0.12500133380E+03 0.  0.
    9000005    1    3    3    0    0 -0.23489730656E+02 -0.50979547578E+02  0.25505366962E+03  0.26115906284E+03  0.10000000000E+01 0.  0.
    9000005    1    3    3    0    0 -0.21600176127E+01  0.70543695118E+02  0.47620301568E+03  0.48140564054E+03  0.10000000000E+01 0.  0.
          4    1    1    2  501    0  0.25649748269E+02 -0.19564147540E+02  0.43420780974E+02  0.54107694237E+02  0.12700000000E+01 0.  1.
<mgrwt>
<rscale>  1 0.12909686E+03</rscale>
<asrwt>0</asrwt>
<pdfrwt beam="2">  1       21 0.16918395E-02 0.12909686E+03</pdfrwt>
<pdfrwt beam="1">  1        4 0.12087866E+00 0.12909686E+03</pdfrwt>
<totfact> 0.35409119E+04</totfact>
</mgrwt>
</event>
<event>
 6    4  0.3189516E-003  0.1269287E+03  0.7818608E-02  0.1232086E+00
         21   -1    0    0  501  502  0.00000000000E+00  0.00000000000E+00  0.14559889780E+03  0.14559889780E+03  0.00000000000E+00 0. -1.
          4   -1    0    0  502    0 -0.00000000000E+00 -0.00000000000E+00 -0.44441667936E+02  0.44459810491E+02  0.12700000000E+01 0. -1.
         25    2    1    2    0    0  0.20363846016E+02 -0.84054643267E+01  0.53891579655E+02  0.13789557337E+03  0.12500219495E+03 0.  0.
    9000005    1    3    3    0    0  0.39520028091E+02  0.25335723269E+02 -0.22607523627E+02  0.52113641385E+02  0.10000000000E+01 0.  0.
    9000005    1    3    3    0    0 -0.19156182075E+02 -0.33741187595E+02  0.76499103282E+02  0.85781931984E+02  0.10000000000E+01 0.  0.
          4    1    1    2  501    0 -0.20363846016E+02  0.84054643267E+01  0.47265650207E+02  0.52163134919E+02  0.12700000000E+01 0.  1.
<mgrwt>
<rscale>  1 0.12692867E+03</rscale>
<asrwt>0</asrwt>
<pdfrwt beam="1">  1       21 0.22399830E-01 0.12692867E+03</pdfrwt>
<pdfrwt beam="2">  1        4 0.68390014E-02 0.12692867E+03</pdfrwt>
<totfact> 0.10691412E+05</totfact>
</mgrwt>
</event>
<event>
 6    4  0.3189516E-003  0.1290768E+03  0.7818608E-02  0.1228832E+00
         21   -1    0    0  501  502  0.00000000000E+00  0.00000000000E+00  0.10244654079E+03  0.10244654079E+03  0.00000000000E+00 0.  1.
          4   -1    0    0  502    0 -0.00000000000E+00 -0.00000000000E+00 -0.12480427310E+03  0.12481073465E+03  0.12700000000E+01 0. -1.
         25    2    1    2    0    0 -0.14405966880E+02 -0.28803721929E+02 -0.86563607683E+02  0.15541582771E+03  0.12499454008E+03 0.  0.
    9000005    1    3    3    0    0  0.46989277598E+02 -0.24564284635E+02 -0.76446796082E+02  0.93040361779E+02  0.10000000000E+01 0.  0.
    9000005    1    3    3    0    0 -0.61395244478E+02 -0.42394372940E+01 -0.10116811601E+02  0.62375465930E+02  0.10000000000E+01 0.  0.
          4    1    1    2  501    0  0.14405966880E+02  0.28803721929E+02  0.64205875375E+02  0.71841447726E+02  0.12700000000E+01 0.  1.
<mgrwt>
<rscale>  1 0.12907680E+03</rscale>
<asrwt>0</asrwt>
<pdfrwt beam="1">  1       21 0.15761006E-01 0.12907680E+03</pdfrwt>
<pdfrwt beam="2">  1        4 0.19201760E-01 0.12907680E+03</pdfrwt>
<totfact> 0.35153686E+04</totfact>
</mgrwt>
</event>
<event>
 6    4  0.3189516E-003  0.1285341E+03  0.7818608E-02  0.1229647E+00
         21   -1    0    0  501  502  0.00000000000E+00  0.00000000000E+00  0.74030431130E+02  0.74030431130E+02  0.00000000000E+00 0.  1.
         -4   -1    0    0    0  501 -0.00000000000E+00 -0.00000000000E+00 -0.85052553682E+02  0.85062034938E+02  0.12700000000E+01 0.  1.
         25    2    1    2    0    0 -0.26310924294E+02  0.14286811597E+02 -0.57259871114E+01  0.12866156609E+03  0.12499853574E+03 0.  0.
    9000005    1    3    3    0    0  0.16747507239E+02 -0.15756082948E+01 -0.57238503842E+02  0.59667477426E+02  0.10000000000E+01 0.  0.
    9000005    1    3    3    0    0 -0.43058431532E+02  0.15862419892E+02  0.51512516731E+02  0.68994088666E+02  0.10000000000E+01 0.  0.
         -4    1    1    2    0  502  0.26310924294E+02 -0.14286811597E+02 -0.52961354403E+01  0.30430899977E+02  0.12700000000E+01 0. -1.
<mgrwt>
<rscale>  1 0.12853409E+03</rscale>
<asrwt>0</asrwt>
<pdfrwt beam="1">  1       21 0.11389297E-01 0.12853409E+03</pdfrwt>
<pdfrwt beam="2">  1       -4 0.13086576E-01 0.12853409E+03</pdfrwt>
<totfact> 0.12300281E+05</totfact>
</mgrwt>
</event>
<event>
 6    4  0.3189516E-003  0.1700963E+03  0.7818608E-02  0.1177747E+00
         21   -1    0    0  501  502  0.00000000000E+00  0.00000000000E+00  0.92983283064E+02  0.92983283064E+02  0.00000000000E+00 0. -1.
         -4   -1    0    0    0  501 -0.00000000000E+00 -0.00000000000E+00 -0.35444825426E+03  0.35445052948E+03  0.12700000000E+01 0.  1.
         25    2    1    2    0    0  0.96246228259E+02 -0.63596249110E+02 -0.28289440725E+03  0.33009390891E+03  0.12499969478E+03 0.  0.
    9000005    1    3    3    0    0  0.84629186074E+02  0.11481350203E+02 -0.96836917680E+02  0.12912129632E+03  0.10000000000E+01 0.  0.
    9000005    1    3    3    0    0  0.11617042185E+02 -0.75077599312E+02 -0.18605748957E+03  0.20097261259E+03  0.10000000000E+01 0.  0.
         -4    1    1    2    0  502 -0.96246228259E+02  0.63596249110E+02  0.21429436051E+02  0.11733990363E+03  0.12700000000E+01 0. -1.
<mgrwt>
<rscale>  1 0.17009628E+03</rscale>
<asrwt>0</asrwt>
<pdfrwt beam="1">  1       21 0.14305120E-01 0.17009628E+03</pdfrwt>
<pdfrwt beam="2">  1       -4 0.54531344E-01 0.17009628E+03</pdfrwt>
<totfact> 0.57889876E+03</totfact>
</mgrwt>
</event>
<event>
 6    4  0.3189516E-003  0.1293105E+03  0.7818608E-02  0.1228482E+00
         21   -1    0    0  501  502  0.00000000000E+00  0.00000000000E+00  0.70522404434E+03  0.70522404434E+03  0.00000000000E+00 0.  1.
         -4   -1    0    0    0  501 -0.00000000000E+00 -0.00000000000E+00 -0.10935237966E+02  0.11008738773E+02  0.12700000000E+01 0. -1.
         25    2    1    2    0    0 -0.29570293499E+02  0.14889351525E+02  0.40720857504E+03  0.42724702712E+03  0.12500041419E+03 0.  0.
    9000005    1    3    3    0    0 -0.42187628677E+02  0.61648968892E+02  0.30677897631E+03  0.31574472551E+03  0.10000000000E+01 0.  0.
    9000005    1    3    3    0    0  0.12617335177E+02 -0.46759617367E+02  0.10042959873E+03  0.11150230161E+03  0.10000000000E+01 0.  0.
         -4    1    1    2    0  502  0.29570293499E+02 -0.14889351525E+02  0.28708023133E+03  0.28898575600E+03  0.12700000000E+01 0.  1.
<mgrwt>
<rscale>  1 0.12931047E+03</rscale>
<asrwt>0</asrwt>
<pdfrwt beam="1">  1       21 0.10849597E+00 0.12931047E+03</pdfrwt>
<pdfrwt beam="2">  1       -4 0.16880867E-02 0.12931047E+03</pdfrwt>
<totfact> 0.36526993E+04</totfact>
</mgrwt>
</event>
<event>
 6    4  0.3189516E-003  0.1279376E+03  0.7818608E-02  0.1230548E+00
         21   -1    0    0  501  502  0.00000000000E+00  0.00000000000E+00  0.33673342703E+02  0.33673342703E+02  0.00000000000E+00 0.  1.
         -4   -1    0    0    0  501 -0.00000000000E+00 -0.00000000000E+00 -0.23904288575E+03  0.23904625939E+03  0.12700000000E+01 0.  1.
         25    2    1    2    0    0 -0.26971297441E+02 -0.39508954604E+01 -0.20914324361E+03  0.24517120511E+03  0.12499985203E+03 0.  0.
    9000005    1    3    3    0    0  0.31800248812E+02  0.37975137823E+02 -0.12403806977E+03  0.13356575036E+03  0.10000000000E+01 0.  0.
    9000005    1    3    3    0    0 -0.58771546253E+02 -0.41926033283E+02 -0.85105173838E+02  0.11160545475E+03  0.10000000000E+01 0.  0.
         -4    1    1    2    0  502  0.26971297441E+02  0.39508954604E+01  0.37737005564E+01  0.27548396985E+02  0.12700000000E+01 0. -1.
<mgrwt>
<rscale>  1 0.12793758E+03</rscale>
<asrwt>0</asrwt>
<pdfrwt beam="1">  1       21 0.51805141E-02 0.12793758E+03</pdfrwt>
<pdfrwt beam="2">  1       -4 0.36777931E-01 0.12793758E+03</pdfrwt>
<totfact> 0.72652341E+04</totfact>
</mgrwt>
</event>
<event>
 6    4  0.3189516E-003  0.1297284E+03  0.7818608E-02  0.1227859E+00
         -4   -1    0    0    0  501 -0.00000000000E+00  0.00000000000E+00  0.46959730186E+02  0.46976900272E+02  0.12700000000E+01 0.  1.
         21   -1    0    0  501  502  0.00000000000E+00 -0.00000000000E+00 -0.26317167905E+03  0.26317167905E+03  0.00000000000E+00 0. -1.
         25    2    1    2    0    0  0.93123543919E+01 -0.33425388662E+02 -0.47894483026E+02  0.13828712711E+03  0.12500188586E+03 0.  0.
    9000005    1    3    3    0    0 -0.11435191468E+02 -0.41680022351E+02  0.32983493826E+02  0.54377373346E+02  0.10000000000E+01 0.  0.
    9000005    1    3    3    0    0  0.20747545860E+02  0.82546336885E+01 -0.80877976852E+02  0.83909753761E+02  0.10000000000E+01 0.  0.
         -4    1    1    2    0  502 -0.93123543919E+01  0.33425388662E+02 -0.16831746583E+03  0.17186145221E+03  0.12700000000E+01 0. -1.
<mgrwt>
<rscale>  1 0.12972836E+03</rscale>
<asrwt>0</asrwt>
<pdfrwt beam="2">  1       21 0.40487951E-01 0.12972836E+03</pdfrwt>
<pdfrwt beam="1">  1       -4 0.72261304E-02 0.12972836E+03</pdfrwt>
<totfact> 0.31225965E+04</totfact>
</mgrwt>
</event>
<event>
 6    4  0.3189516E-003  0.1285303E+03  0.7818608E-02  0.1229653E+00
         21   -1    0    0  501  502  0.00000000000E+00  0.00000000000E+00  0.54195705021E+03  0.54195705021E+03  0.00000000000E+00 0.  1.
         -4   -1    0    0    0  501 -0.00000000000E+00 -0.00000000000E+00 -0.15401852739E+02  0.15454124621E+02  0.12700000000E+01 0. -1.
         25    2    1    2    0    0 -0.29886777032E+02 -0.12789259918E+01  0.26908529977E+03  0.29820620533E+03  0.12500074900E+03 0.  0.
    9000005    1    3    3    0    0 -0.18406114436E+02 -0.62901327545E+02  0.14758419264E+03  0.16148515713E+03  0.10000000000E+01 0.  0.
    9000005    1    3    3    0    0 -0.11480662596E+02  0.61622401553E+02  0.12150110713E+03  0.13672104820E+03  0.10000000000E+01 0.  0.
         -4    1    1    2    0  502  0.29886777032E+02  0.12789259918E+01  0.25746989770E+03  0.25920496950E+03  0.12700000000E+01 0.  1.
<mgrwt>
<rscale>  1 0.12853032E+03</rscale>
<asrwt>0</asrwt>
<pdfrwt beam="1">  1       21 0.83377993E-01 0.12853032E+03</pdfrwt>
<pdfrwt beam="2">  1       -4 0.23736516E-02 0.12853032E+03</pdfrwt>
<totfact> 0.39761307E+04</totfact>
</mgrwt>
</event>
<event>
 6    4  0.3189516E-003  0.1277332E+03  0.7818608E-02  0.1230858E+00
         -4   -1    0    0    0  501 -0.00000000000E+00  0.00000000000E+00  0.19644914800E+02  0.19685923334E+02  0.12700000000E+01 0. -1.
         21   -1    0    0  501  502  0.00000000000E+00 -0.00000000000E+00 -0.35528701485E+03  0.35528701485E+03  0.00000000000E+00 0. -1.
         25    2    1    2    0    0 -0.94070200576E+01 -0.24498493274E+02 -0.20366688770E+03  0.24040794357E+03  0.12500843967E+03 0.  0.
    9000005    1    3    3    0    0 -0.49509412434E+02  0.24858978890E+02 -0.52182497722E+02  0.76112836102E+02  0.10000000000E+01 0.  0.
    9000005    1    3    3    0    0  0.40102392377E+02 -0.49357472164E+02 -0.15148438998E+03  0.16429510747E+03  0.10000000000E+01 0.  0.
         -4    1    1    2    0  502  0.94070200576E+01  0.24498493274E+02 -0.13197521235E+03  0.13456499461E+03  0.12700000000E+01 0.  1.
<mgrwt>
<rscale>  1 0.12773323E+03</rscale>
<asrwt>0</asrwt>
<pdfrwt beam="2">  1       21 0.54659538E-01 0.12773323E+03</pdfrwt>
<pdfrwt beam="1">  1       -4 0.30256238E-02 0.12773323E+03</pdfrwt>
<totfact> 0.68018344E+04</totfact>
</mgrwt>
</event>
<event>
 6    4  0.3189516E-003  0.1271315E+03  0.7818608E-02  0.1231775E+00
         21   -1    0    0  501  502  0.00000000000E+00  0.00000000000E+00  0.20181391606E+03  0.20181391606E+03  0.00000000000E+00 0. -1.
          4   -1    0    0  502    0 -0.00000000000E+00 -0.00000000000E+00 -0.41930128455E+02  0.41949357233E+02  0.12700000000E+01 0.  1.
         25    2    1    2    0    0  0.22991162903E+02  0.29204374186E+01  0.58839578093E+02  0.14008749163E+03  0.12500114734E+03 0.  0.
    9000005    1    3    3    0    0 -0.23072351845E+02  0.15832092926E+02  0.82201672388E+02  0.86839527460E+02  0.10000000000E+01 0.  0.
    9000005    1    3    3    0    0  0.46063514749E+02 -0.12911655507E+02 -0.23362094295E+02  0.53247964175E+02  0.10000000000E+01 0.  0.
          4    1    1    2  501    0 -0.22991162903E+02 -0.29204374186E+01  0.10104420951E+03  0.10367578166E+03  0.12700000000E+01 0. -1.
<mgrwt>
<rscale>  1 0.12713146E+03</rscale>
<asrwt>0</asrwt>
<pdfrwt beam="1">  1       21 0.31048294E-01 0.12713146E+03</pdfrwt>
<pdfrwt beam="2">  1        4 0.64525756E-02 0.12713146E+03</pdfrwt>
<totfact> 0.63224838E+04</totfact>
</mgrwt>
</event>
<event>
 6    4  0.3189516E-003  0.1277737E+03  0.7818608E-02  0.1230797E+00
         21   -1    0    0  501  502  0.00000000000E+00  0.00000000000E+00  0.71278198795E+02  0.71278198795E+02  0.00000000000E+00 0.  1.
          4   -1    0    0  502    0 -0.00000000000E+00 -0.00000000000E+00 -0.44641724008E+03  0.44641904657E+03  0.12700000000E+01 0. -1.
         25    2    1    2    0    0  0.76509118983E+01 -0.25344965741E+02 -0.43438782036E+03  0.45279012354E+03  0.12500085502E+03 0.  0.
    9000005    1    3    3    0    0  0.64816499663E+02 -0.47764362342E+01 -0.26428301182E+03  0.27215896698E+03  0.10000000000E+01 0.  0.
    9000005    1    3    3    0    0 -0.57165587765E+02 -0.20568529507E+02 -0.17010480855E+03  0.18063115656E+03  0.10000000000E+01 0.  0.
          4    1    1    2  501    0 -0.76509118983E+01  0.25344965741E+02  0.59248779078E+02  0.64907121824E+02  0.12700000000E+01 0.  1.
<mgrwt>
<rscale>  1 0.12777370E+03</rscale>
<asrwt>0</asrwt>
<pdfrwt beam="1">  1       21 0.10965877E-01 0.12777370E+03</pdfrwt>
<pdfrwt beam="2">  1        4 0.68680585E-01 0.12777370E+03</pdfrwt>
<totfact> 0.56026943E+03</totfact>
</mgrwt>
</event>
<event>
 6    4  0.3189516E-003  0.1300746E+03  0.7818608E-02  0.1227345E+00
          4   -1    0    0  502    0 -0.00000000000E+00  0.00000000000E+00  0.82766961819E+02  0.82776704867E+02  0.12700000000E+01 0. -1.
         21   -1    0    0  501  502  0.00000000000E+00 -0.00000000000E+00 -0.10169102350E+03  0.10169102350E+03  0.00000000000E+00 0.  1.
         25    2    1    2    0    0 -0.86395550318E+01  0.34893887763E+02  0.19847786422E+02  0.13158016442E+03  0.12500871861E+03 0.  0.
    9000005    1    3    3    0    0 -0.45936543107E+01  0.78635331441E+02  0.33449973002E+02  0.85583396197E+02  0.10000000000E+01 0.  0.
    9000005    1    3    3    0    0 -0.40459007211E+01 -0.43741443677E+02 -0.13602186580E+02  0.45996768228E+02  0.10000000000E+01 0.  0.
          4    1    1    2  501    0  0.86395550318E+01 -0.34893887763E+02 -0.38771848099E+02  0.52887563939E+02  0.12700000000E+01 0.  1.
<mgrwt>
<rscale>  1 0.13007461E+03</rscale>
<asrwt>0</asrwt>
<pdfrwt beam="2">  1       21 0.15644773E-01 0.13007461E+03</pdfrwt>
<pdfrwt beam="1">  1        4 0.12734738E-01 0.13007461E+03</pdfrwt>
<totfact> 0.73229756E+04</totfact>
</mgrwt>
</event>
<event>
 6    4  0.3189516E-003  0.1351925E+03  0.7818608E-02  0.1219948E+00
         21   -1    0    0  501  502  0.00000000000E+00  0.00000000000E+00  0.18678642586E+03  0.18678642586E+03  0.00000000000E+00 0.  1.
          4   -1    0    0  502    0 -0.00000000000E+00 -0.00000000000E+00 -0.46658507294E+02  0.46675788187E+02  0.12700000000E+01 0. -1.
         25    2    1    2    0    0 -0.25378815193E+02  0.44777881390E+02  0.98957323473E+02  0.16753973137E+03  0.12501146666E+03 0.  0.
    9000005    1    3    3    0    0 -0.42235542462E+02  0.62581520207E+02  0.11546782039E+03  0.13796414485E+03  0.10000000000E+01 0.  0.
    9000005    1    3    3    0    0  0.16856727269E+02 -0.17803638817E+02 -0.16510496918E+02  0.29575586517E+02  0.10000000000E+01 0.  0.
          4    1    1    2  501    0  0.25378815193E+02 -0.44777881390E+02  0.41170595097E+02  0.65922482683E+02  0.12700000000E+01 0.  1.
<mgrwt>
<rscale>  1 0.13519249E+03</rscale>
<asrwt>0</asrwt>
<pdfrwt beam="1">  1       21 0.28736373E-01 0.13519249E+03</pdfrwt>
<pdfrwt beam="2">  1        4 0.71798934E-02 0.13519249E+03</pdfrwt>
<totfact> 0.62082117E+04</totfact>
</mgrwt>
</event>
<event>
 6    4  0.3189516E-003  0.1274497E+03  0.7818608E-02  0.1231290E+00
         -4   -1    0    0    0  501 -0.00000000000E+00  0.00000000000E+00  0.33756657818E+02  0.33780539472E+02  0.12700000000E+01 0. -1.
         21   -1    0    0  501  502  0.00000000000E+00 -0.00000000000E+00 -0.23868033262E+03  0.23868033262E+03  0.00000000000E+00 0. -1.
         25    2    1    2    0    0 -0.69174998937E+01  0.23859316091E+02 -0.92914544272E+02  0.15772301003E+03  0.12500526623E+03 0.  0.
    9000005    1    3    3    0    0 -0.53448217213E+02  0.32215807086E+02 -0.91065041934E+02  0.11040114135E+03  0.10000000000E+01 0.  0.
    9000005    1    3    3    0    0  0.46530717319E+02 -0.83564909949E+01 -0.18495023377E+01  0.47321868675E+02  0.10000000000E+01 0.  0.
         -4    1    1    2    0  502  0.69174998937E+01 -0.23859316091E+02 -0.11200913053E+03  0.11473786207E+03  0.12700000000E+01 0.  1.
<mgrwt>
<rscale>  1 0.12744974E+03</rscale>
<asrwt>0</asrwt>
<pdfrwt beam="2">  1       21 0.36720051E-01 0.12744974E+03</pdfrwt>
<pdfrwt beam="1">  1       -4 0.51954290E-02 0.12744974E+03</pdfrwt>
<totfact> 0.64709067E+04</totfact>
</mgrwt>
</event>
<event>
 6    4  0.3189516E-003  0.1288278E+03  0.7818608E-02  0.1229205E+00
         -4   -1    0    0    0  501 -0.00000000000E+00  0.00000000000E+00  0.25111681762E+03  0.25112002906E+03  0.12700000000E+01 0.  1.
         21   -1    0    0  501  502  0.00000000000E+00 -0.00000000000E+00 -0.31697843160E+02  0.31697843160E+02  0.00000000000E+00 0.  1.
         25    2    1    2    0    0 -0.30373516772E+02 -0.68236070640E+01  0.21596484715E+03  0.25147052735E+03  0.12500999476E+03 0.  0.
    9000005    1    3    3    0    0  0.14804537566E+02 -0.90498299366E+01  0.20390840177E+03  0.20464777074E+03  0.10000000000E+01 0.  0.
    9000005    1    3    3    0    0 -0.45178054338E+02  0.22262228726E+01  0.12056445376E+02  0.46822756616E+02  0.10000000000E+01 0.  0.
         -4    1    1    2    0  502  0.30373516772E+02  0.68236070640E+01  0.34541273144E+01  0.31347344863E+02  0.12700000000E+01 0. -1.
<mgrwt>
<rscale>  1 0.12882783E+03</rscale>
<asrwt>0</asrwt>
<pdfrwt beam="2">  1       21 0.48765914E-02 0.12882783E+03</pdfrwt>
<pdfrwt beam="1">  1       -4 0.38635559E-01 0.12882783E+03</pdfrwt>
<totfact> 0.73128643E+04</totfact>
</mgrwt>
</event>
<event>
 6    4  0.3189516E-003  0.1301695E+03  0.7818608E-02  0.1227204E+00
          4   -1    0    0  502    0 -0.00000000000E+00  0.00000000000E+00  0.11061722464E+03  0.11062451485E+03  0.12700000000E+01 0. -1.
         21   -1    0    0  501  502  0.00000000000E+00 -0.00000000000E+00 -0.90899609721E+02  0.90899609721E+02  0.00000000000E+00 0. -1.
         25    2    1    2    0    0  0.25600433002E+02  0.25731953824E+02  0.63339169266E+02  0.14476173807E+03  0.12500637916E+03 0.  0.
    9000005    1    3    3    0    0  0.69141704349E+02  0.40285784786E+02  0.22054438300E+02  0.83011553321E+02  0.10000000000E+01 0.  0.
    9000005    1    3    3    0    0 -0.43541271347E+02 -0.14553830962E+02  0.41284730966E+02  0.61750184754E+02  0.10000000000E+01 0.  0.
          4    1    1    2  501    0 -0.25600433002E+02 -0.25731953824E+02 -0.43621554348E+02  0.56762386501E+02  0.12700000000E+01 0.  1.
<mgrwt>
<rscale>  1 0.13016955E+03</rscale>
<asrwt>0</asrwt>
<pdfrwt beam="2">  1       21 0.13984555E-01 0.13016955E+03</pdfrwt>
<pdfrwt beam="1">  1        4 0.17019278E-01 0.13016955E+03</pdfrwt>
<totfact> 0.54090295E+04</totfact>
</mgrwt>
</event>
<event>
 6    4  0.3189516E-003  0.1426429E+03  0.7818608E-02  0.1209816E+00
         21   -1    0    0  501  502  0.00000000000E+00  0.00000000000E+00  0.11757275998E+03  0.11757275998E+03  0.00000000000E+00 0.  1.
         -4   -1    0    0    0  501 -0.00000000000E+00 -0.00000000000E+00 -0.15736894468E+03  0.15737406918E+03  0.12700000000E+01 0. -1.
         25    2    1    2    0    0 -0.64684299685E+02 -0.23194847825E+02 -0.10739009696E+03  0.17854864730E+03  0.12499970774E+03 0.  0.
    9000005    1    3    3    0    0 -0.57198566762E+02 -0.63533630304E+02 -0.10769959533E+03  0.13750782179E+03  0.10000000000E+01 0.  0.
    9000005    1    3    3    0    0 -0.74857329231E+01  0.40338782480E+02  0.30949836504E+00  0.41040825511E+02  0.10000000000E+01 0.  0.
         -4    1    1    2    0  502  0.64684299685E+02  0.23194847825E+02  0.67593912256E+02  0.96398181857E+02  0.12700000000E+01 0.  1.
<mgrwt>
<rscale>  1 0.14264286E+03</rscale>
<asrwt>0</asrwt>
<pdfrwt beam="1">  1       21 0.18088117E-01 0.14264286E+03</pdfrwt>
<pdfrwt beam="2">  1       -4 0.24211529E-01 0.14264286E+03</pdfrwt>
<totfact> 0.18143807E+04</totfact>
</mgrwt>
</event>
<event>
 6    4  0.3189516E-003  0.1278637E+03  0.7818608E-02  0.1230661E+00
          4   -1    0    0  502    0 -0.00000000000E+00  0.00000000000E+00  0.23876547544E+03  0.23876885300E+03  0.12700000000E+01 0.  1.
         21   -1    0    0  501  502  0.00000000000E+00 -0.00000000000E+00 -0.42906793075E+02  0.42906793075E+02  0.00000000000E+00 0.  1.
         25    2    1    2    0    0  0.25497711163E+02 -0.85975657609E+01  0.21393586907E+03  0.24923417584E+03  0.12500026768E+03 0.  0.
    9000005    1    3    3    0    0 -0.13416582978E+02  0.26686178714E+02  0.98916977787E+00  0.29902095077E+02  0.10000000000E+01 0.  0.
    9000005    1    3    3    0    0  0.38914294140E+02 -0.35283744475E+02  0.21294669929E+03  0.21933208077E+03  0.10000000000E+01 0.  0.
          4    1    1    2  501    0 -0.25497711163E+02  0.85975657609E+01 -0.18077186706E+02  0.32441470231E+02  0.12700000000E+01 0. -1.
<mgrwt>
<rscale>  1 0.12786367E+03</rscale>
<asrwt>0</asrwt>
<pdfrwt beam="2">  1       21 0.66010453E-02 0.12786367E+03</pdfrwt>
<pdfrwt beam="1">  1        4 0.36734855E-01 0.12786367E+03</pdfrwt>
<totfact> 0.48308755E+04</totfact>
</mgrwt>
</event>
<event>
 6    4  0.3189516E-003  0.1280218E+03  0.7818608E-02  0.1230421E+00
          4   -1    0    0  502    0 -0.00000000000E+00  0.00000000000E+00  0.47539290674E+03  0.47539460313E+03  0.12700000000E+01 0. -1.
         21   -1    0    0  501  502  0.00000000000E+00 -0.00000000000E+00 -0.43765204374E+02  0.43765204374E+02  0.00000000000E+00 0.  1.
         25    2    1    2    0    0  0.42968522829E+01  0.27327022414E+02  0.46120434543E+03  0.47864289981E+03  0.12499739279E+03 0.  0.
    9000005    1    3    3    0    0  0.22951997605E+01  0.70902768763E+02  0.37892903360E+03  0.38551353162E+03  0.10000000000E+01 0.  0.
    9000005    1    3    3    0    0  0.20016525224E+01 -0.43575746349E+02  0.82275311836E+02  0.93129368195E+02  0.10000000000E+01 0.  0.
          4    1    1    2  501    0 -0.42968522829E+01 -0.27327022414E+02 -0.29576643063E+02  0.40516907686E+02  0.12700000000E+01 0.  1.
<mgrwt>
<rscale>  1 0.12802178E+03</rscale>
<asrwt>0</asrwt>
<pdfrwt beam="2">  1       21 0.67331087E-02 0.12802178E+03</pdfrwt>
<pdfrwt beam="1">  1        4 0.73138915E-01 0.12802178E+03</pdfrwt>
<totfact> 0.11386552E+04</totfact>
</mgrwt>
</event>
<event>
 6    4  0.3189516E-003  0.1272274E+03  0.7818608E-02  0.1231629E+00
          4   -1    0    0  502    0 -0.00000000000E+00  0.00000000000E+00  0.38469955438E+02  0.38490912842E+02  0.12700000000E+01 0.  1.
         21   -1    0    0  501  502  0.00000000000E+00 -0.00000000000E+00 -0.22225426285E+03  0.22225426285E+03  0.00000000000E+00 0.  1.
         25    2    1    2    0    0  0.17492481579E+02  0.15999054979E+02 -0.71424857091E+02  0.14590521902E+03  0.12499946422E+03 0.  0.
    9000005    1    3    3    0    0  0.40442599037E+02 -0.22016792306E+02  0.15245776909E+02  0.48515736353E+02  0.10000000000E+01 0.  0.
    9000005    1    3    3    0    0 -0.22950117458E+02  0.38015847285E+02 -0.86670634001E+02  0.97389482667E+02  0.10000000000E+01 0.  0.
          4    1    1    2  501    0 -0.17492481579E+02 -0.15999054979E+02 -0.11235945032E+03  0.11483995667E+03  0.12700000000E+01 0. -1.
<mgrwt>
<rscale>  1 0.12722744E+03</rscale>
<asrwt>0</asrwt>
<pdfrwt beam="2">  1       21 0.34192964E-01 0.12722744E+03</pdfrwt>
<pdfrwt beam="1">  1        4 0.59203459E-02 0.12722744E+03</pdfrwt>
<totfact> 0.60276876E+04</totfact>
</mgrwt>
</event>
<event>
 6    4  0.3189516E-003  0.1297752E+03  0.7818608E-02  0.1227790E+00
         -4   -1    0    0    0  501 -0.00000000000E+00  0.00000000000E+00  0.64080329657E+03  0.64080455506E+03  0.12700000000E+01 0. -1.
         21   -1    0    0  501  502  0.00000000000E+00 -0.00000000000E+00 -0.44465354600E+02  0.44465354600E+02  0.00000000000E+00 0.  1.
         25    2    1    2    0    0 -0.30861010258E+02 -0.16042102196E+02  0.62614121219E+03  0.63944853023E+03  0.12502741385E+03 0.  0.
    9000005    1    3    3    0    0 -0.12571121055E+02  0.30463191833E+02  0.43079334115E+02  0.54248208902E+02  0.10000000000E+01 0.  0.
    9000005    1    3    3    0    0 -0.18289889203E+02 -0.46505294029E+02  0.58306187808E+03  0.58520032133E+03  0.10000000000E+01 0.  0.
         -4    1    1    2    0  502  0.30861010258E+02  0.16042102196E+02 -0.29803270224E+02  0.45821379433E+02  0.12700000000E+01 0.  1.
<mgrwt>
<rscale>  1 0.12977521E+03</rscale>
<asrwt>0</asrwt>
<pdfrwt beam="2">  1       21 0.68408242E-02 0.12977521E+03</pdfrwt>
<pdfrwt beam="1">  1       -4 0.98586608E-01 0.12977521E+03</pdfrwt>
<totfact> 0.56956890E+03</totfact>
</mgrwt>
</event>
<event>
 6    4  0.3189516E-003  0.1333613E+03  0.7818608E-02  0.1222552E+00
         21   -1    0    0  501  502  0.00000000000E+00  0.00000000000E+00  0.28747249923E+02  0.28747249923E+02  0.00000000000E+00 0.  1.
          4   -1    0    0  502    0 -0.00000000000E+00 -0.00000000000E+00 -0.44275096045E+03  0.44275278190E+03  0.12700000000E+01 0. -1.
         25    2    1    2    0    0  0.24415393640E+01 -0.46433473140E+02 -0.40188185018E+03  0.42343152924E+03  0.12499283942E+03 0.  0.
    9000005    1    3    3    0    0  0.34371544172E+02  0.29541127164E+02 -0.89047682409E+02  0.99922825146E+02  0.10000000000E+01 0.  0.
    9000005    1    3    3    0    0 -0.31930004808E+02 -0.75974600304E+02 -0.31283416777E+03  0.32350870409E+03  0.10000000000E+01 0.  0.
          4    1    1    2  501    0 -0.24415393640E+01  0.46433473140E+02 -0.12121860348E+02  0.48068502583E+02  0.12700000000E+01 0.  1.
<mgrwt>
<rscale>  1 0.13336131E+03</rscale>
<asrwt>0</asrwt>
<pdfrwt beam="1">  1       21 0.44226541E-02 0.13336131E+03</pdfrwt>
<pdfrwt beam="2">  1        4 0.68117827E-01 0.13336131E+03</pdfrwt>
<totfact> 0.27108968E+04</totfact>
</mgrwt>
</event>
<event>
 6    4  0.3189516E-003  0.1278073E+03  0.7818608E-02  0.1230746E+00
         -4   -1    0    0    0  501 -0.00000000000E+00  0.00000000000E+00  0.37230417941E+01  0.39336929469E+01  0.12700000000E+01 0.  1.
         21   -1    0    0  501  502  0.00000000000E+00 -0.00000000000E+00 -0.17890180561E+04  0.17890180561E+04  0.00000000000E+00 0. -1.
         25    2    1    2    0    0  0.43489062294E+01 -0.26281935135E+02 -0.11467792747E+04  0.11538792839E+04  0.12500017522E+03 0.  0.
    9000005    1    3    3    0    0  0.33510395481E+02 -0.13078018772E+02 -0.94610124837E+02  0.10122280821E+03  0.10000000000E+01 0.  0.
    9000005    1    3    3    0    0 -0.29161489252E+02 -0.13203916363E+02 -0.10521691499E+04  0.10526564757E+04  0.10000000000E+01 0.  0.
         -4    1    1    2    0  502 -0.43489062294E+01  0.26281935135E+02 -0.63851573959E+03  0.63907246514E+03  0.12700000000E+01 0. -1.
<mgrwt>
<rscale>  1 0.12780726E+03</rscale>
<asrwt>0</asrwt>
<pdfrwt beam="2">  1       21 0.27523378E+00 0.12780726E+03</pdfrwt>
<pdfrwt beam="1">  1       -4 0.58901378E-03 0.12780726E+03</pdfrwt>
<totfact> 0.13152547E+04</totfact>
</mgrwt>
</event>
<event>
 6    4  0.3189516E-003  0.1318839E+03  0.7818608E-02  0.1224687E+00
         21   -1    0    0  501  502  0.00000000000E+00  0.00000000000E+00  0.26017007805E+02  0.26017007805E+02  0.00000000000E+00 0.  1.
         -4   -1    0    0    0  501 -0.00000000000E+00 -0.00000000000E+00 -0.60711293602E+03  0.60711426435E+03  0.12700000000E+01 0. -1.
         25    2    1    2    0    0  0.73188529468E+01  0.41394127708E+02 -0.57583904615E+03  0.59074864451E+03  0.12500525793E+03 0.  0.
    9000005    1    3    3    0    0  0.24846996646E+02  0.36811405946E+02 -0.60333459846E+02  0.74923822827E+02  0.10000000000E+01 0.  0.
    9000005    1    3    3    0    0 -0.17528143699E+02  0.45827217619E+01 -0.51550558630E+03  0.51582482169E+03  0.10000000000E+01 0.  0.
         -4    1    1    2    0  502 -0.73188529468E+01 -0.41394127708E+02 -0.52568820685E+01  0.42382627646E+02  0.12700000000E+01 0.  1.
<mgrwt>
<rscale>  1 0.13188387E+03</rscale>
<asrwt>0</asrwt>
<pdfrwt beam="1">  1       21 0.40026168E-02 0.13188387E+03</pdfrwt>
<pdfrwt beam="2">  1       -4 0.93404471E-01 0.13188387E+03</pdfrwt>
<totfact> 0.15919825E+04</totfact>
</mgrwt>
</event>
<event>
 6    4  0.3189516E-003  0.1285847E+03  0.7818608E-02  0.1229571E+00
         21   -1    0    0  501  502  0.00000000000E+00  0.00000000000E+00  0.23384318625E+02  0.23384318625E+02  0.00000000000E+00 0. -1.
         -4   -1    0    0    0  501 -0.00000000000E+00 -0.00000000000E+00 -0.35785091600E+03  0.35785316958E+03  0.12700000000E+01 0.  1.
         25    2    1    2    0    0  0.11120087214E+02  0.28020525288E+02 -0.32516056201E+03  0.34966184299E+03  0.12500082871E+03 0.  0.
    9000005    1    3    3    0    0 -0.33559959838E+02  0.60597771864E+02 -0.13667126051E+03  0.15322661097E+03  0.10000000000E+01 0.  0.
    9000005    1    3    3    0    0  0.44680047052E+02 -0.32577246577E+02 -0.18848930150E+03  0.19643523202E+03  0.10000000000E+01 0.  0.
         -4    1    1    2    0  502 -0.11120087214E+02 -0.28020525288E+02 -0.93060353686E+01  0.31575645224E+02  0.12700000000E+01 0. -1.
<mgrwt>
<rscale>  1 0.12858465E+03</rscale>
<asrwt>0</asrwt>
<pdfrwt beam="1">  1       21 0.35975874E-02 0.12858465E+03</pdfrwt>
<pdfrwt beam="2">  1       -4 0.55056814E-01 0.12858465E+03</pdfrwt>
<totfact> 0.59537163E+04</totfact>
</mgrwt>
</event>
<event>
 6    4  0.3189516E-003  0.1298619E+03  0.7818608E-02  0.1227661E+00
         21   -1    0    0  501  502  0.00000000000E+00  0.00000000000E+00  0.39525848281E+02  0.39525848281E+02  0.00000000000E+00 0.  1.
          4   -1    0    0  502    0 -0.00000000000E+00 -0.00000000000E+00 -0.18792404052E+03  0.18792833183E+03  0.12700000000E+01 0.  1.
         25    2    1    2    0    0  0.67271389655E+01 -0.34555095046E+02 -0.14055845893E+03  0.19136563192E+03  0.12499926284E+03 0.  0.
    9000005    1    3    3    0    0  0.59886172548E+02 -0.31422805181E+01 -0.36056573882E+02  0.69980740989E+02  0.10000000000E+01 0.  0.
    9000005    1    3    3    0    0 -0.53159033583E+02 -0.31412814528E+02 -0.10450188505E+03  0.12138489093E+03  0.10000000000E+01 0.  0.
          4    1    1    2  501    0 -0.67271389655E+01  0.34555095046E+02 -0.78397333089E+01  0.36088548193E+02  0.12700000000E+01 0. -1.
<mgrwt>
<rscale>  1 0.12986194E+03</rscale>
<asrwt>0</asrwt>
<pdfrwt beam="1">  1       21 0.60808996E-02 0.12986194E+03</pdfrwt>
<pdfrwt beam="2">  1        4 0.28913291E-01 0.12986194E+03</pdfrwt>
<totfact> 0.87924677E+04</totfact>
</mgrwt>
</event>
<event>
 6    4  0.3189516E-003  0.1276557E+03  0.7818608E-02  0.1230976E+00
         -4   -1    0    0    0  501 -0.00000000000E+00  0.00000000000E+00  0.23291228411E+03  0.23291574655E+03  0.12700000000E+01 0. -1.
         21   -1    0    0  501  502  0.00000000000E+00 -0.00000000000E+00 -0.37370954637E+02  0.37370954637E+02  0.00000000000E+00 0.  1.
         25    2    1    2    0    0  0.21820177602E+02  0.14188403484E+02  0.20588605400E+03  0.24224999008E+03  0.12497423541E+03 0.  0.
    9000005    1    3    3    0    0  0.47318120732E+02  0.38666807397E+02  0.19632843679E+03  0.20562096595E+03  0.10000000000E+01 0.  0.
    9000005    1    3    3    0    0 -0.25497943129E+02 -0.24478403912E+02  0.95576172103E+01  0.36629024129E+02  0.10000000000E+01 0.  0.
         -4    1    1    2    0  502 -0.21820177602E+02 -0.14188403484E+02 -0.10344724531E+02  0.28036711106E+02  0.12700000000E+01 0.  1.
<mgrwt>
<rscale>  1 0.12765575E+03</rscale>
<asrwt>0</asrwt>
<pdfrwt beam="2">  1       21 0.57493778E-02 0.12765575E+03</pdfrwt>
<pdfrwt beam="1">  1       -4 0.35834585E-01 0.12765575E+03</pdfrwt>
<totfact> 0.64071433E+04</totfact>
</mgrwt>
</event>
<event>
 6    4  0.3189516E-003  0.1268126E+03  0.7818608E-02  0.1232263E+00
          4   -1    0    0  502    0 -0.00000000000E+00  0.00000000000E+00  0.40502623053E+03  0.40502822163E+03  0.12700000000E+01 0. -1.
         21   -1    0    0  501  502  0.00000000000E+00 -0.00000000000E+00 -0.24826176670E+03  0.24826176670E+03  0.00000000000E+00 0.  1.
         25    2    1    2    0    0  0.16689537452E+02 -0.13346839458E+02  0.39460854319E+03  0.41448442356E+03  0.12499902491E+03 0.  0.
    9000005    1    3    3    0    0  0.67592692612E+02  0.86149725991E+01  0.26271888181E+03  0.27141333922E+03  0.10000000000E+01 0.  0.
    9000005    1    3    3    0    0 -0.50903155160E+02 -0.21961812057E+02  0.13188966138E+03  0.14307108434E+03  0.10000000000E+01 0.  0.
          4    1    1    2  501    0 -0.16689537452E+02  0.13346839458E+02 -0.23784407936E+03  0.23880556478E+03  0.12700000000E+01 0.  1.
<mgrwt>
<rscale>  1 0.12681260E+03</rscale>
<asrwt>0</asrwt>
<pdfrwt beam="2">  1       21 0.38194118E-01 0.12681260E+03</pdfrwt>
<pdfrwt beam="1">  1        4 0.62312131E-01 0.12681260E+03</pdfrwt>
<totfact> 0.67729996E+02</totfact>
</mgrwt>
</event>
<event>
 6    4  0.3189516E-003  0.1613773E+03  0.7818608E-02  0.1187151E+00
         -4   -1    0    0    0  501 -0.00000000000E+00  0.00000000000E+00  0.14265605805E+03  0.14266171105E+03  0.12700000000E+01 0. -1.
         21   -1    0    0  501  502  0.00000000000E+00 -0.00000000000E+00 -0.14157549877E+03  0.14157549877E+03  0.00000000000E+00 0.  1.
         25    2    1    2    0    0 -0.53522113031E+02  0.86901692997E+02  0.52822299082E+02  0.16980233154E+03  0.12500446267E+03 0.  0.
    9000005    1    3    3    0    0 -0.23684251419E+02 -0.21523267550E+02  0.47413583026E+02  0.57212259758E+02  0.10000000000E+01 0.  0.
    9000005    1    3    3    0    0 -0.29837861612E+02  0.10842496055E+03  0.54087160562E+01  0.11259007178E+03  0.10000000000E+01 0.  0.
         -4    1    1    2    0  502  0.53522113031E+02 -0.86901692997E+02 -0.51741739803E+02  0.11443487828E+03  0.12700000000E+01 0.  1.
<mgrwt>
<rscale>  1 0.16137731E+03</rscale>
<asrwt>0</asrwt>
<pdfrwt beam="2">  1       21 0.21780846E-01 0.16137731E+03</pdfrwt>
<pdfrwt beam="1">  1       -4 0.21947959E-01 0.16137731E+03</pdfrwt>
<totfact> 0.15556168E+04</totfact>
</mgrwt>
</event>
<event>
 6    4  0.3189516E-003  0.1496696E+03  0.7818608E-02  0.1200880E+00
          4   -1    0    0  502    0 -0.00000000000E+00  0.00000000000E+00  0.10470413870E+04  0.10470421572E+04  0.12700000000E+01 0. -1.
         21   -1    0    0  501  502  0.00000000000E+00 -0.00000000000E+00 -0.17071235760E+02  0.17071235760E+02  0.00000000000E+00 0.  1.
         25    2    1    2    0    0 -0.50910858772E+02  0.64683846757E+02  0.88354132808E+03  0.89612848674E+03  0.12500028300E+03 0.  0.
    9000005    1    3    3    0    0 -0.77032738496E+02  0.71546405158E+02  0.46599369078E+03  0.47770707629E+03  0.10000000000E+01 0.  0.
    9000005    1    3    3    0    0  0.26121879724E+02 -0.68625584012E+01  0.41754763729E+03  0.41842141044E+03  0.10000000000E+01 0.  0.
          4    1    1    2  501    0  0.50910858772E+02 -0.64683846757E+02  0.14642882318E+03  0.16798490625E+03  0.12700000000E+01 0.  1.
<mgrwt>
<rscale>  1 0.14966959E+03</rscale>
<asrwt>0</asrwt>
<pdfrwt beam="2">  1       21 0.26263448E-02 0.14966959E+03</pdfrwt>
<pdfrwt beam="1">  1        4 0.16108693E+00 0.14966959E+03</pdfrwt>
<totfact> 0.85931583E+03</totfact>
</mgrwt>
</event>
<event>
 6    4  0.3189516E-003  0.1279637E+03  0.7818608E-02  0.1230509E+00
          4   -1    0    0  502    0 -0.00000000000E+00  0.00000000000E+00  0.53617467009E+03  0.53617617417E+03  0.12700000000E+01 0.  1.
         21   -1    0    0  501  502  0.00000000000E+00 -0.00000000000E+00 -0.11714308949E+02  0.11714308949E+02  0.00000000000E+00 0.  1.
         25    2    1    2    0    0 -0.30400783485E+01 -0.27200187490E+02  0.38331158196E+03  0.40410702426E+03  0.12500250365E+03 0.  0.
    9000005    1    3    3    0    0 -0.59374318382E+02  0.22656156092E+01  0.24132309849E+03  0.24853225256E+03  0.10000000000E+01 0.  0.
    9000005    1    3    3    0    0  0.56334240034E+02 -0.29465803099E+02  0.14198848347E+03  0.15557477170E+03  0.10000000000E+01 0.  0.
          4    1    1    2  501    0  0.30400783485E+01  0.27200187490E+02  0.14114877919E+03  0.14378345886E+03  0.12700000000E+01 0. -1.
<mgrwt>
<rscale>  1 0.12796374E+03</rscale>
<asrwt>0</asrwt>
<pdfrwt beam="2">  1       21 0.18022018E-02 0.12796374E+03</pdfrwt>
<pdfrwt beam="1">  1        4 0.82493803E-01 0.12796374E+03</pdfrwt>
<totfact> 0.77175510E+04</totfact>
</mgrwt>
</event>
<event>
 6    4  0.3189516E-003  0.1266086E+03  0.7818608E-02  0.1232577E+00
         -4   -1    0    0    0  501 -0.00000000000E+00  0.00000000000E+00  0.69360706712E+02  0.69372332638E+02  0.12700000000E+01 0.  1.
         21   -1    0    0  501  502  0.00000000000E+00 -0.00000000000E+00 -0.10033375597E+03  0.10033375597E+03  0.00000000000E+00 0.  1.
         25    2    1    2    0    0 -0.19015974597E+01 -0.20126433496E+02  0.68572891986E+01  0.12679412284E+03  0.12498415009E+03 0.  0.
    9000005    1    3    3    0    0 -0.27967527259E+02  0.45911420011E+02  0.13629227270E+02  0.55468882307E+02  0.10000000000E+01 0.  0.
    9000005    1    3    3    0    0  0.26065929799E+02 -0.66037853507E+02 -0.67719380713E+01  0.71325240535E+02  0.10000000000E+01 0.  0.
         -4    1    1    2    0  502  0.19015974597E+01  0.20126433496E+02 -0.37830338459E+02  0.42911965768E+02  0.12700000000E+01 0. -1.
<mgrwt>
<rscale>  1 0.12660856E+03</rscale>
<asrwt>0</asrwt>
<pdfrwt beam="2">  1       21 0.15435962E-01 0.12660856E+03</pdfrwt>
<pdfrwt beam="1">  1       -4 0.10672391E-01 0.12660856E+03</pdfrwt>
<totfact> 0.10101926E+05</totfact>
</mgrwt>
</event>
<event>
 6    4  0.3189516E-003  0.1266743E+03  0.7818608E-02  0.1232476E+00
          4   -1    0    0  502    0 -0.00000000000E+00  0.00000000000E+00  0.43418896447E+02  0.43437466187E+02  0.12700000000E+01 0. -1.
         21   -1    0    0  501  502  0.00000000000E+00 -0.00000000000E+00 -0.13705550924E+03  0.13705550924E+03  0.00000000000E+00 0. -1.
         25    2    1    2    0    0  0.18308712425E+02 -0.93049023444E+01 -0.57952787254E+02  0.13930149010E+03  0.12499835773E+03 0.  0.
    9000005    1    3    3    0    0  0.97237575224E+01 -0.56782404723E+02  0.73693244124E+01  0.58087002752E+02  0.10000000000E+01 0.  0.
    9000005    1    3    3    0    0  0.85849549026E+01  0.47477502378E+02 -0.65322111666E+02  0.81214487349E+02  0.10000000000E+01 0.  0.
          4    1    1    2  501    0 -0.18308712425E+02  0.93049023444E+01 -0.35683825542E+02  0.41191485329E+02  0.12700000000E+01 0.  1.
<mgrwt>
<rscale>  1 0.12667431E+03</rscale>
<asrwt>0</asrwt>
<pdfrwt beam="2">  1       21 0.21085463E-01 0.12667431E+03</pdfrwt>
<pdfrwt beam="1">  1        4 0.66817114E-02 0.12667431E+03</pdfrwt>
<totfact> 0.12426764E+05</totfact>
</mgrwt>
</event>
<event>
 6    4  0.3189516E-003  0.1308563E+03  0.7818608E-02  0.1226191E+00
         21   -1    0    0  501  502  0.00000000000E+00  0.00000000000E+00  0.33355903026E+02  0.33355903026E+02  0.00000000000E+00 0.  1.
         -4   -1    0    0    0  501 -0.00000000000E+00 -0.00000000000E+00 -0.23596226726E+03  0.23596568494E+03  0.12700000000E+01 0.  1.
         25    2    1    2    0    0  0.36963221524E+02 -0.11437037348E+02 -0.11768281495E+03  0.17599041584E+03  0.12500518375E+03 0.  0.
    9000005    1    3    3    0    0 -0.45636625865E+02  0.26414281401E+01 -0.29899287234E+02  0.54631915032E+02  0.10000000000E+01 0.  0.
    9000005    1    3    3    0    0  0.82599847389E+02 -0.14078465488E+02 -0.87783527717E+02  0.12135850081E+03  0.10000000000E+01 0.  0.
         -4    1    1    2    0  502 -0.36963221524E+02  0.11437037348E+02 -0.84923549283E+02  0.93331172132E+02  0.12700000000E+01 0. -1.
<mgrwt>
<rscale>  1 0.13085634E+03</rscale>
<asrwt>0</asrwt>
<pdfrwt beam="1">  1       21 0.51316774E-02 0.13085634E+03</pdfrwt>
<pdfrwt beam="2">  1       -4 0.36304010E-01 0.13085634E+03</pdfrwt>
<totfact> 0.75941557E+04</totfact>
</mgrwt>
</event>
<event>
 6    4  0.3189516E-003  0.1276577E+03  0.7818608E-02  0.1230973E+00
          4   -1    0    0  502    0 -0.00000000000E+00  0.00000000000E+00  0.62792261365E+02  0.62805103195E+02  0.12700000000E+01 0.  1.
         21   -1    0    0  501  502  0.00000000000E+00 -0.00000000000E+00 -0.99159459527E+02  0.99159459527E+02  0.00000000000E+00 0.  1.
         25    2    1    2    0    0 -0.21023195480E+02  0.15202693475E+02 -0.15400630250E+02  0.12858333286E+03  0.12499358960E+03 0.  0.
    9000005    1    3    3    0    0 -0.46862136716E+02 -0.43088280575E+02 -0.39184891657E+01  0.63788826120E+02  0.10000000000E+01 0.  0.
    9000005    1    3    3    0    0  0.25838941236E+02  0.58290974049E+02 -0.11482141084E+02  0.64794506740E+02  0.10000000000E+01 0.  0.
          4    1    1    2  501    0  0.21023195480E+02 -0.15202693475E+02 -0.20966567911E+02  0.33381229862E+02  0.12700000000E+01 0. -1.
<mgrwt>
<rscale>  1 0.12765772E+03</rscale>
<asrwt>0</asrwt>
<pdfrwt beam="2">  1       21 0.15255302E-01 0.12765772E+03</pdfrwt>
<pdfrwt beam="1">  1        4 0.96619613E-02 0.12765772E+03</pdfrwt>
<totfact> 0.12215635E+05</totfact>
</mgrwt>
</event>
<event>
 6    4  0.3189516E-003  0.1337123E+03  0.7818608E-02  0.1222049E+00
         21   -1    0    0  501  502  0.00000000000E+00  0.00000000000E+00  0.30729040181E+02  0.30729040181E+02  0.00000000000E+00 0.  1.
          4   -1    0    0  502    0 -0.00000000000E+00 -0.00000000000E+00 -0.36915610498E+03  0.36915828955E+03  0.12700000000E+01 0. -1.
         25    2    1    2    0    0 -0.36656899231E+01  0.47332613259E+02 -0.32359717186E+03  0.35013441841E+03  0.12500067104E+03 0.  0.
    9000005    1    3    3    0    0  0.49551694191E+02  0.11144439840E+02 -0.23616201769E+03  0.24156379599E+03  0.10000000000E+01 0.  0.
    9000005    1    3    3    0    0 -0.53217384114E+02  0.36188173419E+02 -0.87435154172E+02  0.10857062242E+03  0.10000000000E+01 0.  0.
          4    1    1    2  501    0  0.36656899231E+01 -0.47332613259E+02 -0.14829892944E+02  0.49752911324E+02  0.12700000000E+01 0.  1.
<mgrwt>
<rscale>  1 0.13371231E+03</rscale>
<asrwt>0</asrwt>
<pdfrwt beam="1">  1       21 0.47275446E-02 0.13371231E+03</pdfrwt>
<pdfrwt beam="2">  1        4 0.56795435E-01 0.13371231E+03</pdfrwt>
<totfact> 0.35609245E+04</totfact>
</mgrwt>
</event>
<event>
 6    4  0.3189516E-003  0.1278432E+03  0.7818608E-02  0.1230692E+00
         21   -1    0    0  501  502  0.00000000000E+00  0.00000000000E+00  0.29984932316E+03  0.29984932316E+03  0.00000000000E+00 0. -1.
         -4   -1    0    0    0  501 -0.00000000000E+00 -0.00000000000E+00 -0.25732514422E+02  0.25763835089E+02  0.12700000000E+01 0.  1.
         25    2    1    2    0    0  0.25332839722E+02 -0.87124765905E+01  0.14314144284E+03  0.19192015399E+03  0.12500485123E+03 0.  0.
    9000005    1    3    3    0    0  0.11181182252E+02 -0.66611127053E+02  0.85866021704E+02  0.10925216138E+03  0.10000000000E+01 0.  0.
    9000005    1    3    3    0    0  0.14151657470E+02  0.57898650463E+02  0.57275421137E+02  0.82667992603E+02  0.10000000000E+01 0.  0.
         -4    1    1    2    0  502 -0.25332839722E+02  0.87124765905E+01  0.13097536590E+03  0.13369300427E+03  0.12700000000E+01 0. -1.
<mgrwt>
<rscale>  1 0.12784316E+03</rscale>
<asrwt>0</asrwt>
<pdfrwt beam="1">  1       21 0.46130663E-01 0.12784316E+03</pdfrwt>
<pdfrwt beam="2">  1       -4 0.39614647E-02 0.12784316E+03</pdfrwt>
<totfact> 0.63152065E+04</totfact>
</mgrwt>
</event>
<event>
 6    4  0.3189516E-003  0.1284228E+03  0.7818608E-02  0.1229815E+00
         21   -1    0    0  501  502  0.00000000000E+00  0.00000000000E+00  0.23925080453E+03  0.23925080453E+03  0.00000000000E+00 0. -1.
          4   -1    0    0  502    0 -0.00000000000E+00 -0.00000000000E+00 -0.33392021719E+02  0.33416163970E+02  0.12700000000E+01 0.  1.
         25    2    1    2    0    0  0.29343179384E+02  0.29100501231E+01  0.99983359280E+02  0.16275469086E+03  0.12499170651E+03 0.  0.
    9000005    1    3    3    0    0 -0.16201251643E+02  0.50310142408E+02  0.76408582540E+02  0.92913198576E+02  0.10000000000E+01 0.  0.
    9000005    1    3    3    0    0  0.45544431027E+02 -0.47400092285E+02  0.23574776740E+02  0.69841492284E+02  0.10000000000E+01 0.  0.
          4    1    1    2  501    0 -0.29343179384E+02 -0.29100501231E+01  0.10587542353E+03  0.10991227764E+03  0.12700000000E+01 0. -1.
<mgrwt>
<rscale>  1 0.12842281E+03</rscale>
<asrwt>0</asrwt>
<pdfrwt beam="1">  1       21 0.36807815E-01 0.12842281E+03</pdfrwt>
<pdfrwt beam="2">  1        4 0.51393507E-02 0.12842281E+03</pdfrwt>
<totfact> 0.65599198E+04</totfact>
</mgrwt>
</event>
<event>
 6    4  0.3189516E-003  0.1359438E+03  0.7818608E-02  0.1218893E+00
          4   -1    0    0  502    0 -0.00000000000E+00  0.00000000000E+00  0.46242520093E+02  0.46259956382E+02  0.12700000000E+01 0.  1.
         21   -1    0    0  501  502  0.00000000000E+00 -0.00000000000E+00 -0.30262370666E+03  0.30262370666E+03  0.00000000000E+00 0. -1.
         25    2    1    2    0    0 -0.81315572694E+01  0.52801509629E+02 -0.65949825920E+02  0.15109630839E+03  0.12500637275E+03 0.  0.
    9000005    1    3    3    0    0  0.35166341552E+02 -0.78727870613E-01  0.20633068436E+02  0.40784816897E+02  0.10000000000E+01 0.  0.
    9000005    1    3    3    0    0 -0.43297898821E+02  0.52880237499E+02 -0.86582894356E+02  0.11031149149E+03  0.10000000000E+01 0.  0.
          4    1    1    2  501    0  0.81315572694E+01 -0.52801509629E+02 -0.19043136065E+03  0.19778735466E+03  0.12700000000E+01 0. -1.
<mgrwt>
<rscale>  1 0.13594379E+03</rscale>
<asrwt>0</asrwt>
<pdfrwt beam="2">  1       21 0.46557494E-01 0.13594379E+03</pdfrwt>
<pdfrwt beam="1">  1        4 0.71157800E-02 0.13594379E+03</pdfrwt>
<totfact> 0.24249717E+04</totfact>
</mgrwt>
</event>
<event>
 6    4  0.3189516E-003  0.1307065E+03  0.7818608E-02  0.1226411E+00
         -4   -1    0    0    0  501 -0.00000000000E+00  0.00000000000E+00  0.57535630093E+03  0.57535770258E+03  0.12700000000E+01 0.  1.
         21   -1    0    0  501  502  0.00000000000E+00 -0.00000000000E+00 -0.49088040678E+02  0.49088040678E+02  0.00000000000E+00 0. -1.
         25    2    1    2    0    0  0.71820368908E+01 -0.37521630805E+02  0.55902755800E+03  0.57410451840E+03  0.12499893205E+03 0.  0.
    9000005    1    3    3    0    0  0.18008411563E+02 -0.40322625018E+02  0.57777086413E+02  0.72728321098E+02  0.10000000000E+01 0.  0.
    9000005    1    3    3    0    0 -0.10826374673E+02  0.28009942135E+01  0.50125047158E+03  0.50137619730E+03  0.10000000000E+01 0.  0.
         -4    1    1    2    0  502 -0.71820368908E+01  0.37521630805E+02 -0.32759297743E+02  0.50341224863E+02  0.12700000000E+01 0. -1.
<mgrwt>
<rscale>  1 0.13070649E+03</rscale>
<asrwt>0</asrwt>
<pdfrwt beam="2">  1       21 0.75520067E-02 0.13070649E+03</pdfrwt>
<pdfrwt beam="1">  1       -4 0.88517721E-01 0.13070649E+03</pdfrwt>
<totfact> 0.61464006E+03</totfact>
</mgrwt>
</event>
<event>
 6    4  0.3189516E-003  0.1292590E+03  0.7818608E-02  0.1228559E+00
         21   -1    0    0  501  502  0.00000000000E+00  0.00000000000E+00  0.24748330579E+03  0.24748330579E+03  0.00000000000E+00 0. -1.
         -4   -1    0    0    0  501 -0.00000000000E+00 -0.00000000000E+00 -0.26612451897E+02  0.26642738147E+02  0.12700000000E+01 0.  1.
         25    2    1    2    0    0  0.32805289464E+02  0.25411646115E+01  0.17077887012E+03  0.21418053308E+03  0.12500093493E+03 0.  0.
    9000005    1    3    3    0    0  0.45847146720E+02  0.35835162006E+02  0.16857828341E+03  0.17834168704E+03  0.10000000000E+01 0.  0.
    9000005    1    3    3    0    0 -0.13041857256E+02 -0.33293997395E+02  0.22005867106E+01  0.35838846034E+02  0.10000000000E+01 0.  0.
         -4    1    1    2    0  502 -0.32805289464E+02 -0.25411646115E+01  0.50091983766E+02  0.59945510858E+02  0.12700000000E+01 0. -1.
<mgrwt>
<rscale>  1 0.12925896E+03</rscale>
<asrwt>0</asrwt>
<pdfrwt beam="1">  1       21 0.38074353E-01 0.12925896E+03</pdfrwt>
<pdfrwt beam="2">  1       -4 0.40968039E-02 0.12925896E+03</pdfrwt>
<totfact> 0.88211335E+04</totfact>
</mgrwt>
</event>
<event>
 6    4  0.3189516E-003  0.1309532E+03  0.7818608E-02  0.1226048E+00
         -4   -1    0    0    0  501 -0.00000000000E+00  0.00000000000E+00  0.47716556371E+02  0.47733454222E+02  0.12700000000E+01 0. -1.
         21   -1    0    0  501  502  0.00000000000E+00 -0.00000000000E+00 -0.49063705592E+03  0.49063705592E+03  0.00000000000E+00 0.  1.
         25    2    1    2    0    0 -0.24314434926E+02  0.30537991183E+02 -0.44897622111E+02  0.13843603487E+03  0.12499991451E+03 0.  0.
    9000005    1    3    3    0    0  0.27482515115E+02  0.55560426450E+02  0.51143094379E+01  0.62204547948E+02  0.10000000000E+01 0.  0.
    9000005    1    3    3    0    0 -0.51796950042E+02 -0.25022435267E+02 -0.50011931549E+02  0.76231486917E+02  0.10000000000E+01 0.  0.
         -4    1    1    2    0  502  0.24314434926E+02 -0.30537991183E+02 -0.39802287744E+03  0.39993447528E+03  0.12700000000E+01 0.  1.
<mgrwt>
<rscale>  1 0.13095319E+03</rscale>
<asrwt>0</asrwt>
<pdfrwt beam="2">  1       21 0.75482623E-01 0.13095319E+03</pdfrwt>
<pdfrwt beam="1">  1       -4 0.73424350E-02 0.13095319E+03</pdfrwt>
<totfact> 0.82306421E+03</totfact>
</mgrwt>
</event>
<event>
 6    4  0.3189516E-003  0.1634980E+03  0.7818608E-02  0.1184803E+00
         21   -1    0    0  501  502  0.00000000000E+00  0.00000000000E+00  0.12487955147E+03  0.12487955147E+03  0.00000000000E+00 0.  1.
          4   -1    0    0  502    0 -0.00000000000E+00 -0.00000000000E+00 -0.19049569245E+03  0.19049992584E+03  0.12700000000E+01 0. -1.
         25    2    1    2    0    0 -0.10357117951E+03  0.19510763696E+02 -0.11408727721E+03  0.19936774052E+03  0.12499571997E+03 0.  0.
    9000005    1    3    3    0    0 -0.95855873980E+02 -0.11299811749E+02 -0.13150667744E+03  0.16312890772E+03  0.10000000000E+01 0.  0.
    9000005    1    3    3    0    0 -0.77153055298E+01  0.30810575445E+02  0.17419400223E+02  0.36238832801E+02  0.10000000000E+01 0.  0.
          4    1    1    2  501    0  0.10357117951E+03 -0.19510763696E+02  0.48471136229E+02  0.11601173679E+03  0.12700000000E+01 0.  1.
<mgrwt>
<rscale>  1 0.16349798E+03</rscale>
<asrwt>0</asrwt>
<pdfrwt beam="1">  1       21 0.19212239E-01 0.16349798E+03</pdfrwt>
<pdfrwt beam="2">  1        4 0.29307852E-01 0.16349798E+03</pdfrwt>
<totfact> 0.11499624E+04</totfact>
</mgrwt>
</event>
<event>
 6    4  0.3189516E-003  0.1328760E+03  0.7818608E-02  0.1223250E+00
          4   -1    0    0  502    0 -0.00000000000E+00  0.00000000000E+00  0.11064910522E+02  0.11137555605E+02  0.12700000000E+01 0.  1.
         21   -1    0    0  501  502  0.00000000000E+00 -0.00000000000E+00 -0.80936040364E+03  0.80936040364E+03  0.00000000000E+00 0.  1.
         25    2    1    2    0    0  0.28287085308E+02  0.35075261606E+02 -0.44728215145E+03  0.46660191222E+03  0.12500235321E+03 0.  0.
    9000005    1    3    3    0    0 -0.37041756490E+01 -0.20761806594E+02 -0.34572111551E+03  0.34636521655E+03  0.10000000000E+01 0.  0.
    9000005    1    3    3    0    0  0.31991260957E+02  0.55837068200E+02 -0.10156103594E+03  0.12023669567E+03  0.10000000000E+01 0.  0.
          4    1    1    2  501    0 -0.28287085308E+02 -0.35075261606E+02 -0.35101334166E+03  0.35389604702E+03  0.12700000000E+01 0. -1.
<mgrwt>
<rscale>  1 0.13287596E+03</rscale>
<asrwt>0</asrwt>
<pdfrwt beam="2">  1       21 0.12451698E+00 0.13287596E+03</pdfrwt>
<pdfrwt beam="1">  1        4 0.17079588E-02 0.13287596E+03</pdfrwt>
<totfact> 0.25763075E+04</totfact>
</mgrwt>
</event>
<event>
 6    4  0.3189516E-003  0.1519855E+03  0.7818608E-02  0.1198054E+00
          4   -1    0    0  502    0 -0.00000000000E+00  0.00000000000E+00  0.18755035097E+03  0.18755465083E+03  0.12700000000E+01 0. -1.
         21   -1    0    0  501  502  0.00000000000E+00 -0.00000000000E+00 -0.76204526323E+02  0.76204526323E+02  0.00000000000E+00 0.  1.
         25    2    1    2    0    0 -0.22199493814E+02  0.83549471158E+02  0.61461848832E+02  0.16394256732E+03  0.12500509934E+03 0.  0.
    9000005    1    3    3    0    0 -0.91203767879E+01  0.20750080396E+02 -0.38779802793E+02  0.44929057567E+02  0.10000000000E+01 0.  0.
    9000005    1    3    3    0    0 -0.13079117027E+02  0.62799390762E+02  0.10024165163E+03  0.11901350975E+03  0.10000000000E+01 0.  0.
          4    1    1    2  501    0  0.22199493814E+02 -0.83549471158E+02  0.49883975812E+02  0.99816609836E+02  0.12700000000E+01 0.  1.
<mgrwt>
<rscale>  1 0.15198555E+03</rscale>
<asrwt>0</asrwt>
<pdfrwt beam="2">  1       21 0.11723773E-01 0.15198555E+03</pdfrwt>
<pdfrwt beam="1">  1        4 0.28855045E-01 0.15198555E+03</pdfrwt>
<totfact> 0.28804848E+04</totfact>
</mgrwt>
</event>
<event>
 6    4  0.3189516E-003  0.1269339E+03  0.7818608E-02  0.1232077E+00
         21   -1    0    0  501  502  0.00000000000E+00  0.00000000000E+00  0.11810966185E+02  0.11810966185E+02  0.00000000000E+00 0.  1.
         -4   -1    0    0    0  501 -0.00000000000E+00 -0.00000000000E+00 -0.48209179634E+03  0.48209346915E+03  0.12700000000E+01 0. -1.
         25    2    1    2    0    0  0.21124248177E+02  0.63921727038E+01 -0.42439422193E+03  0.44297028719E+03  0.12500050397E+03 0.  0.
    9000005    1    3    3    0    0  0.49282167350E+02  0.41252680976E+02 -0.35201926571E+03  0.35783946001E+03  0.10000000000E+01 0.  0.
    9000005    1    3    3    0    0 -0.28157919173E+02 -0.34860508273E+02 -0.72374956223E+02  0.85130827186E+02  0.10000000000E+01 0.  0.
         -4    1    1    2    0  502 -0.21124248177E+02 -0.63921727038E+01 -0.45886608225E+02  0.50934148146E+02  0.12700000000E+01 0.  1.
<mgrwt>
<rscale>  1 0.12693392E+03</rscale>
<asrwt>0</asrwt>
<pdfrwt beam="1">  1       21 0.18170719E-02 0.12693392E+03</pdfrwt>
<pdfrwt beam="2">  1       -4 0.74173344E-01 0.12693392E+03</pdfrwt>
<totfact> 0.96105263E+04</totfact>
</mgrwt>
</event>
<event>
 6    4  0.3189516E-003  0.1306215E+03  0.7818608E-02  0.1226536E+00
          4   -1    0    0  502    0 -0.00000000000E+00  0.00000000000E+00  0.16858104232E+02  0.16905874077E+02  0.12700000000E+01 0.  1.
         21   -1    0    0  501  502  0.00000000000E+00 -0.00000000000E+00 -0.44441016275E+03  0.44441016275E+03  0.00000000000E+00 0. -1.
         25    2    1    2    0    0  0.36772391008E+02 -0.92105974300E+01 -0.28003749058E+03  0.30900318610E+03  0.12499971615E+03 0.  0.
    9000005    1    3    3    0    0  0.43301097451E+01  0.12265245082E+02 -0.26792525933E+03  0.26824267124E+03  0.10000000000E+01 0.  0.
    9000005    1    3    3    0    0  0.32442281263E+02 -0.21475842512E+02 -0.12112231252E+02  0.40760514853E+02  0.10000000000E+01 0.  0.
          4    1    1    2  501    0 -0.36772391008E+02  0.92105974300E+01 -0.14751456793E+03  0.15231285073E+03  0.12700000000E+01 0. -1.
<mgrwt>
<rscale>  1 0.13062149E+03</rscale>
<asrwt>0</asrwt>
<pdfrwt beam="2">  1       21 0.68370799E-01 0.13062149E+03</pdfrwt>
<pdfrwt beam="1">  1        4 0.25973685E-02 0.13062149E+03</pdfrwt>
<totfact> 0.53703342E+04</totfact>
</mgrwt>
</event>
<event>
 6    4  0.3189516E-003  0.1274319E+03  0.7818608E-02  0.1231317E+00
         -4   -1    0    0    0  501 -0.00000000000E+00  0.00000000000E+00  0.10161942483E+03  0.10162736050E+03  0.12700000000E+01 0. -1.
         21   -1    0    0  501  502  0.00000000000E+00 -0.00000000000E+00 -0.57773519959E+02  0.57773519959E+02  0.00000000000E+00 0. -1.
         25    2    1    2    0    0  0.18469843679E+02  0.16514868379E+02  0.43294623046E+02  0.13458570738E+03  0.12500004897E+03 0.  0.
    9000005    1    3    3    0    0 -0.38136090559E+02  0.33389873991E+02  0.54523611669E+02  0.74451791904E+02  0.10000000000E+01 0.  0.
    9000005    1    3    3    0    0  0.56605934238E+02 -0.16875005612E+02 -0.11228988623E+02  0.60133915479E+02  0.10000000000E+01 0.  0.
         -4    1    1    2    0  502 -0.18469843679E+02 -0.16514868379E+02  0.55128182107E+00  0.24815173075E+02  0.12700000000E+01 0.  1.
<mgrwt>
<rscale>  1 0.12743190E+03</rscale>
<asrwt>0</asrwt>
<pdfrwt beam="2">  1       21 0.88882339E-02 0.12743190E+03</pdfrwt>
<pdfrwt beam="1">  1       -4 0.15635442E-01 0.12743190E+03</pdfrwt>
<totfact> 0.13919018E+05</totfact>
</mgrwt>
</event>
<event>
 6    4  0.3189516E-003  0.1310980E+03  0.7818608E-02  0.1225836E+00
         21   -1    0    0  501  502  0.00000000000E+00  0.00000000000E+00  0.10184603186E+03  0.10184603186E+03  0.00000000000E+00 0. -1.
         -4   -1    0    0    0  501 -0.00000000000E+00 -0.00000000000E+00 -0.15864924584E+03  0.15865432899E+03  0.12700000000E+01 0.  1.
         25    2    1    2    0    0 -0.31928522006E+02 -0.23266127383E+02 -0.12534493141E+03  0.18137815707E+03  0.12500376327E+03 0.  0.
    9000005    1    3    3    0    0  0.34704387745E+02 -0.48595699390E+02 -0.60345774102E+02  0.84903174145E+02  0.10000000000E+01 0.  0.
    9000005    1    3    3    0    0 -0.66632909751E+02  0.25329572007E+02 -0.64999157312E+02  0.96474982930E+02  0.10000000000E+01 0.  0.
         -4    1    1    2    0  502  0.31928522006E+02  0.23266127383E+02  0.68541717434E+02  0.79122203772E+02  0.12700000000E+01 0. -1.
<mgrwt>
<rscale>  1 0.13109799E+03</rscale>
<asrwt>0</asrwt>
<pdfrwt beam="1">  1       21 0.15668620E-01 0.13109799E+03</pdfrwt>
<pdfrwt beam="2">  1       -4 0.24408576E-01 0.13109799E+03</pdfrwt>
<totfact> 0.23033244E+04</totfact>
</mgrwt>
</event>
<event>
 6    4  0.3189516E-003  0.1277040E+03  0.7818608E-02  0.1230903E+00
         21   -1    0    0  501  502  0.00000000000E+00  0.00000000000E+00  0.11626678497E+03  0.11626678497E+03  0.00000000000E+00 0.  1.
         -4   -1    0    0    0  501 -0.00000000000E+00 -0.00000000000E+00 -0.59345927190E+02  0.59359514604E+02  0.12700000000E+01 0.  1.
         25    2    1    2    0    0 -0.14533429973E+02 -0.21715099900E+02  0.70794790075E+02  0.14601439237E+03  0.12500213729E+03 0.  0.
    9000005    1    3    3    0    0 -0.20033900174E+02  0.42412229260E+02 -0.42920834740E+01  0.47112379770E+02  0.10000000000E+01 0.  0.
    9000005    1    3    3    0    0  0.55004702012E+01 -0.64127329161E+02  0.75086873549E+02  0.98902012604E+02  0.10000000000E+01 0.  0.
         -4    1    1    2    0  502  0.14533429973E+02  0.21715099900E+02 -0.13873932298E+02  0.29611907197E+02  0.12700000000E+01 0. -1.
<mgrwt>
<rscale>  1 0.12770396E+03</rscale>
<asrwt>0</asrwt>
<pdfrwt beam="1">  1       21 0.17887198E-01 0.12770396E+03</pdfrwt>
<pdfrwt beam="2">  1       -4 0.91317214E-02 0.12770396E+03</pdfrwt>
<totfact> 0.10055911E+05</totfact>
</mgrwt>
</event>
<event>
 6    4  0.3189516E-003  0.1278216E+03  0.7818608E-02  0.1230724E+00
         -4   -1    0    0    0  501 -0.00000000000E+00  0.00000000000E+00  0.17981538200E+03  0.17981986682E+03  0.12700000000E+01 0. -1.
         21   -1    0    0  501  502  0.00000000000E+00 -0.00000000000E+00 -0.54533012550E+02  0.54533012550E+02  0.00000000000E+00 0. -1.
         25    2    1    2    0    0  0.47012606564E+01  0.26303757536E+02  0.15059274025E+03  0.19752602392E+03  0.12499746877E+03 0.  0.
    9000005    1    3    3    0    0 -0.30080678279E+02 -0.31405934097E+02  0.14828572547E+02  0.45957224307E+02  0.10000000000E+01 0.  0.
    9000005    1    3    3    0    0  0.34781938935E+02  0.57709691633E+02  0.13576416770E+03  0.15156879961E+03  0.10000000000E+01 0.  0.
         -4    1    1    2    0  502 -0.47012606564E+01 -0.26303757536E+02 -0.25310370800E+02  0.36826855450E+02  0.12700000000E+01 0.  1.
<mgrwt>
<rscale>  1 0.12782158E+03</rscale>
<asrwt>0</asrwt>
<pdfrwt beam="2">  1       21 0.83896943E-02 0.12782158E+03</pdfrwt>
<pdfrwt beam="1">  1       -4 0.27665387E-01 0.12782158E+03</pdfrwt>
<totfact> 0.54910308E+04</totfact>
</mgrwt>
</event>
<event>
 6    4  0.3189516E-003  0.1299744E+03  0.7818608E-02  0.1227494E+00
         -4   -1    0    0    0  501 -0.00000000000E+00  0.00000000000E+00  0.98669052076E+01  0.99483022861E+01  0.12700000000E+01 0.  1.
         21   -1    0    0  501  502  0.00000000000E+00 -0.00000000000E+00 -0.81183333814E+03  0.81183333814E+03  0.00000000000E+00 0.  1.
         25    2    1    2    0    0 -0.26662374061E+02 -0.23612694455E+02 -0.46144709246E+03  0.47940250019E+03  0.12499958609E+03 0.  0.
    9000005    1    3    3    0    0 -0.62140209892E+02 -0.73699237623E+01 -0.41039166531E+03  0.41513617094E+03  0.10000000000E+01 0.  0.
    9000005    1    3    3    0    0  0.35477835831E+02 -0.16242770693E+02 -0.51055427145E+02  0.64266329255E+02  0.10000000000E+01 0.  0.
         -4    1    1    2    0  502  0.26662374061E+02  0.23612694455E+02 -0.34051934048E+03  0.34237914024E+03  0.12700000000E+01 0. -1.
<mgrwt>
<rscale>  1 0.12997437E+03</rscale>
<asrwt>0</asrwt>
<pdfrwt beam="2">  1       21 0.12489743E+00 0.12997437E+03</pdfrwt>
<pdfrwt beam="1">  1       -4 0.15243232E-02 0.12997437E+03</pdfrwt>
<totfact> 0.30371305E+04</totfact>
</mgrwt>
</event>
<event>
 6    4  0.3189516E-003  0.1272710E+03  0.7818608E-02  0.1231562E+00
         21   -1    0    0  501  502  0.00000000000E+00  0.00000000000E+00  0.10428455343E+03  0.10428455343E+03  0.00000000000E+00 0.  1.
         -4   -1    0    0    0  501 -0.00000000000E+00 -0.00000000000E+00 -0.57924082290E+02  0.57938003151E+02  0.12700000000E+01 0.  1.
         25    2    1    2    0    0 -0.18966892950E+02 -0.14601237791E+02  0.52186573893E+02  0.13755485409E+03  0.12499984086E+03 0.  0.
    9000005    1    3    3    0    0  0.59213804117E+01  0.45479402939E+02  0.56015603897E+02  0.72402946885E+02  0.10000000000E+01 0.  0.
    9000005    1    3    3    0    0 -0.24888273361E+02 -0.60080640730E+02 -0.38290300042E+01  0.65151907203E+02  0.10000000000E+01 0.  0.
         -4    1    1    2    0  502  0.18966892950E+02  0.14601237791E+02 -0.58261027490E+01  0.24667702496E+02  0.12700000000E+01 0. -1.
<mgrwt>
<rscale>  1 0.12727097E+03</rscale>
<asrwt>0</asrwt>
<pdfrwt beam="1">  1       21 0.16043777E-01 0.12727097E+03</pdfrwt>
<pdfrwt beam="2">  1       -4 0.89130630E-02 0.12727097E+03</pdfrwt>
<totfact> 0.12757596E+05</totfact>
</mgrwt>
</event>
<event>
 6    4  0.3189516E-003  0.1265981E+03  0.7818608E-02  0.1232593E+00
          4   -1    0    0  502    0 -0.00000000000E+00  0.00000000000E+00  0.54816493457E+02  0.54831203297E+02  0.12700000000E+01 0. -1.
         21   -1    0    0  501  502  0.00000000000E+00 -0.00000000000E+00 -0.22344375176E+03  0.22344375176E+03  0.00000000000E+00 0.  1.
         25    2    1    2    0    0 -0.45232591445E+01  0.19528914257E+02 -0.19846277564E+02  0.12814424036E+03  0.12500093295E+03 0.  0.
    9000005    1    3    3    0    0  0.22273923473E+02  0.42950969124E+02  0.37103762409E+02  0.60980346018E+02  0.10000000000E+01 0.  0.
    9000005    1    3    3    0    0 -0.26797182617E+02 -0.23422054867E+02 -0.56950039973E+02  0.67163894343E+02  0.10000000000E+01 0.  0.
          4    1    1    2  501    0  0.45232591445E+01 -0.19528914257E+02 -0.14878098074E+03  0.15013071469E+03  0.12700000000E+01 0.  1.
<mgrwt>
<rscale>  1 0.12659807E+03</rscale>
<asrwt>0</asrwt>
<pdfrwt beam="2">  1       21 0.34375962E-01 0.12659807E+03</pdfrwt>
<pdfrwt beam="1">  1        4 0.84347159E-02 0.12659807E+03</pdfrwt>
<totfact> 0.33356268E+04</totfact>
</mgrwt>
</event>
<event>
 6    4  0.3189516E-003  0.1359120E+03  0.7818608E-02  0.1218938E+00
         -4   -1    0    0    0  501 -0.00000000000E+00  0.00000000000E+00  0.24046974381E+02  0.24080487472E+02  0.12700000000E+01 0.  1.
         21   -1    0    0  501  502  0.00000000000E+00 -0.00000000000E+00 -0.42020636080E+03  0.42020636080E+03  0.00000000000E+00 0. -1.
         25    2    1    2    0    0  0.34095242658E+01  0.53246544444E+02 -0.20612311298E+03  0.24689835450E+03  0.12500096159E+03 0.  0.
    9000005    1    3    3    0    0  0.42423359270E+02  0.17104510791E+02 -0.14448147000E+02  0.47979731688E+02  0.10000000000E+01 0.  0.
    9000005    1    3    3    0    0 -0.39013835004E+02  0.36142033653E+02 -0.19167496598E+03  0.19891862281E+03  0.10000000000E+01 0.  0.
         -4    1    1    2    0  502 -0.34095242658E+01 -0.53246544444E+02 -0.19003627344E+03  0.19738849377E+03  0.12700000000E+01 0. -1.
<mgrwt>
<rscale>  1 0.13591196E+03</rscale>
<asrwt>0</asrwt>
<pdfrwt beam="2">  1       21 0.64647127E-01 0.13591196E+03</pdfrwt>
<pdfrwt beam="1">  1       -4 0.37022604E-02 0.13591196E+03</pdfrwt>
<totfact> 0.34905975E+04</totfact>
</mgrwt>
</event>
<event>
 6    4  0.3189516E-003  0.1271231E+03  0.7818608E-02  0.1231788E+00
         21   -1    0    0  501  502  0.00000000000E+00  0.00000000000E+00  0.49758516259E+03  0.49758516259E+03  0.00000000000E+00 0.  1.
         -4   -1    0    0    0  501 -0.00000000000E+00 -0.00000000000E+00 -0.14422866517E+02  0.14478673233E+02  0.12700000000E+01 0. -1.
         25    2    1    2    0    0  0.22921613302E+01 -0.23025773612E+02  0.27906955903E+03  0.30665960396E+03  0.12499941468E+03 0.  0.
    9000005    1    3    3    0    0 -0.26001750406E+02  0.16199192391E+02  0.24637028655E+03  0.24826965774E+03  0.10000000000E+01 0.  0.
    9000005    1    3    3    0    0  0.28293911736E+02 -0.39224966003E+02  0.32699272484E+02  0.58389946225E+02  0.10000000000E+01 0.  0.
         -4    1    1    2    0  502 -0.22921613302E+01  0.23025773612E+02  0.20409273704E+03  0.20540423186E+03  0.12700000000E+01 0.  1.
<mgrwt>
<rscale>  1 0.12712314E+03</rscale>
<asrwt>0</asrwt>
<pdfrwt beam="1">  1       21 0.76551550E-01 0.12712314E+03</pdfrwt>
<pdfrwt beam="2">  1       -4 0.22233204E-02 0.12712314E+03</pdfrwt>
<totfact> 0.53183049E+04</totfact>
</mgrwt>
</event>
<event>
 6    4  0.3189516E-003  0.1402188E+03  0.7818608E-02  0.1213035E+00
         21   -1    0    0  501  502  0.00000000000E+00  0.00000000000E+00  0.28306504920E+02  0.28306504920E+02  0.00000000000E+00 0. -1.
         -4   -1    0    0    0  501 -0.00000000000E+00 -0.00000000000E+00 -0.36708642113E+03  0.36708861802E+03  0.12700000000E+01 0.  1.
         25    2    1    2    0    0  0.36554530435E+02 -0.51985368973E+02 -0.22749394172E+03  0.26723548303E+03  0.12499038999E+03 0.  0.
    9000005    1    3    3    0    0  0.78659248147E+02 -0.54134478916E+02 -0.17969675980E+03  0.20349384415E+03  0.10000000000E+01 0.  0.
    9000005    1    3    3    0    0 -0.42104717712E+02  0.21491099428E+01 -0.47797181921E+02  0.63741638877E+02  0.10000000000E+01 0.  0.
         -4    1    1    2    0  502 -0.36554530435E+02  0.51985368973E+02 -0.11128597449E+03  0.12815963991E+03  0.12700000000E+01 0. -1.
<mgrwt>
<rscale>  1 0.14021879E+03</rscale>
<asrwt>0</asrwt>
<pdfrwt beam="1">  1       21 0.43548473E-02 0.14021879E+03</pdfrwt>
<pdfrwt beam="2">  1       -4 0.56477189E-01 0.14021879E+03</pdfrwt>
<totfact> 0.41569127E+04</totfact>
</mgrwt>
</event>
<event>
 6    4  0.3189516E-003  0.1294429E+03  0.7818608E-02  0.1228285E+00
         -4   -1    0    0    0  501 -0.00000000000E+00  0.00000000000E+00  0.21387845198E+03  0.21388222255E+03  0.12700000000E+01 0.  1.
         21   -1    0    0  501  502  0.00000000000E+00 -0.00000000000E+00 -0.38560816364E+02  0.38560816364E+02  0.00000000000E+00 0. -1.
         25    2    1    2    0    0  0.33514995040E+02 -0.26471503186E+01  0.17638161181E+03  0.21878286596E+03  0.12500082862E+03 0.  0.
    9000005    1    3    3    0    0  0.41176932366E+02  0.21297344834E+02  0.18611579608E+03  0.19180512560E+03  0.10000000000E+01 0.  0.
    9000005    1    3    3    0    0 -0.76619373261E+01 -0.23944495153E+02 -0.97341842670E+01  0.26977740362E+02  0.10000000000E+01 0.  0.
         -4    1    1    2    0  502 -0.33514995040E+02  0.26471503186E+01 -0.10639761985E+01  0.33660172945E+02  0.12700000000E+01 0. -1.
<mgrwt>
<rscale>  1 0.12944292E+03</rscale>
<asrwt>0</asrwt>
<pdfrwt beam="2">  1       21 0.59324334E-02 0.12944292E+03</pdfrwt>
<pdfrwt beam="1">  1       -4 0.32906275E-01 0.12944292E+03</pdfrwt>
<totfact> 0.71720546E+04</totfact>
</mgrwt>
</event>
<event>
 6    4  0.3189516E-003  0.1298911E+03  0.7818608E-02  0.1227617E+00
         21   -1    0    0  501  502  0.00000000000E+00  0.00000000000E+00  0.20459591710E+02  0.20459591710E+02  0.00000000000E+00 0. -1.
         -4   -1    0    0    0  501 -0.00000000000E+00 -0.00000000000E+00 -0.37505251754E+03  0.37505466777E+03  0.12700000000E+01 0. -1.
         25    2    1    2    0    0  0.12789377591E+01  0.35315513175E+02 -0.32283306713E+03  0.34798403039E+03  0.12499149979E+03 0.  0.
    9000005    1    3    3    0    0  0.25224946617E+02  0.66695163047E+02 -0.28319247737E+03  0.29203342608E+03  0.10000000000E+01 0.  0.
    9000005    1    3    3    0    0 -0.23946008858E+02 -0.31379649873E+02 -0.39640589754E+02  0.55950604308E+02  0.10000000000E+01 0.  0.
         -4    1    1    2    0  502 -0.12789377591E+01 -0.35315513175E+02 -0.31759858702E+02  0.47530229090E+02  0.12700000000E+01 0.  1.
<mgrwt>
<rscale>  1 0.12989109E+03</rscale>
<asrwt>0</asrwt>
<pdfrwt beam="1">  1       21 0.31476296E-02 0.12989109E+03</pdfrwt>
<pdfrwt beam="2">  1       -4 0.57703582E-01 0.12989109E+03</pdfrwt>
<totfact> 0.67410856E+04</totfact>
</mgrwt>
</event>
<event>
 6    4  0.3189516E-003  0.1340093E+03  0.7818608E-02  0.1221625E+00
         21   -1    0    0  501  502  0.00000000000E+00  0.00000000000E+00  0.18718610226E+02  0.18718610226E+02  0.00000000000E+00 0. -1.
         -4   -1    0    0    0  501 -0.00000000000E+00 -0.00000000000E+00 -0.79031901362E+03  0.79032003403E+03  0.12700000000E+01 0.  1.
         25    2    1    2    0    0 -0.46531789202E+02 -0.13019306328E+02 -0.73824951152E+03  0.75031382300E+03  0.12499512778E+03 0.  0.
    9000005    1    3    3    0    0 -0.15197261758E+02 -0.68290126607E+02 -0.35446644724E+03  0.36130590969E+03  0.10000000000E+01 0.  0.
    9000005    1    3    3    0    0 -0.31334527444E+02  0.55270820279E+02 -0.38378306428E+03  0.38900791331E+03  0.10000000000E+01 0.  0.
         -4    1    1    2    0  502  0.46531789202E+02  0.13019306328E+02 -0.33350891874E+02  0.58724821263E+02  0.12700000000E+01 0. -1.
<mgrwt>
<rscale>  1 0.13400930E+03</rscale>
<asrwt>0</asrwt>
<pdfrwt beam="1">  1       21 0.28797868E-02 0.13400930E+03</pdfrwt>
<pdfrwt beam="2">  1       -4 0.12159091E+00 0.13400930E+03</pdfrwt>
<totfact> 0.14805852E+04</totfact>
</mgrwt>
</event>
<event>
 6    4  0.3189516E-003  0.1271977E+03  0.7818608E-02  0.1231674E+00
          4   -1    0    0  502    0 -0.00000000000E+00  0.00000000000E+00  0.56306937102E+03  0.56307080326E+03  0.12700000000E+01 0.  1.
         21   -1    0    0  501  502  0.00000000000E+00 -0.00000000000E+00 -0.15416469251E+02  0.15416469251E+02  0.00000000000E+00 0. -1.
         25    2    1    2    0    0  0.19155125075E+01  0.23457243791E+02  0.53830961330E+03  0.55313334946E+03  0.12500140415E+03 0.  0.
    9000005    1    3    3    0    0  0.54685210746E+02 -0.51527086091E+01  0.37762103607E+03  0.38159621272E+03  0.10000000000E+01 0.  0.
    9000005    1    3    3    0    0 -0.52769698239E+02  0.28609952400E+02  0.16068857723E+03  0.17153713674E+03  0.10000000000E+01 0.  0.
          4    1    1    2  501    0 -0.19155125075E+01 -0.23457243791E+02  0.93432884670E+01  0.25353923046E+02  0.12700000000E+01 0. -1.
<mgrwt>
<rscale>  1 0.12719773E+03</rscale>
<asrwt>0</asrwt>
<pdfrwt beam="2">  1       21 0.23717649E-02 0.12719773E+03</pdfrwt>
<pdfrwt beam="1">  1        4 0.86630175E-01 0.12719773E+03</pdfrwt>
<totfact> 0.44370684E+04</totfact>
</mgrwt>
</event>
<event>
 6    4  0.3189516E-003  0.1275027E+03  0.7818608E-02  0.1231209E+00
         -4   -1    0    0    0  501 -0.00000000000E+00  0.00000000000E+00  0.59658191935E+02  0.59671708245E+02  0.12700000000E+01 0.  1.
         21   -1    0    0  501  502  0.00000000000E+00 -0.00000000000E+00 -0.10631130737E+03  0.10631130737E+03  0.00000000000E+00 0.  1.
         25    2    1    2    0    0 -0.16418405940E+02  0.19037526464E+02 -0.19547795132E+02  0.12899243903E+03  0.12499976626E+03 0.  0.
    9000005    1    3    3    0    0  0.68590419049E+01  0.42984888677E+02  0.41020484654E+02  0.59819957136E+02  0.10000000000E+01 0.  0.
    9000005    1    3    3    0    0 -0.23277447845E+02 -0.23947362214E+02 -0.60568279786E+02  0.69172481894E+02  0.10000000000E+01 0.  0.
         -4    1    1    2    0  502  0.16418405940E+02 -0.19037526464E+02 -0.27105320308E+02  0.36990576590E+02  0.12700000000E+01 0. -1.
<mgrwt>
<rscale>  1 0.12750268E+03</rscale>
<asrwt>0</asrwt>
<pdfrwt beam="2">  1       21 0.16355585E-01 0.12750268E+03</pdfrwt>
<pdfrwt beam="1">  1       -4 0.91798068E-02 0.12750268E+03</pdfrwt>
<totfact> 0.11731119E+05</totfact>
</mgrwt>
</event>
<event>
 6    4  0.3189516E-003  0.1377260E+03  0.7818608E-02  0.1216422E+00
         21   -1    0    0  501  502  0.00000000000E+00  0.00000000000E+00  0.63427283476E+02  0.63427283476E+02  0.00000000000E+00 0.  1.
          4   -1    0    0  502    0 -0.00000000000E+00 -0.00000000000E+00 -0.21275821638E+03  0.21276200680E+03  0.12700000000E+01 0. -1.
         25    2    1    2    0    0 -0.57814981817E+02 -0.48345577961E+00 -0.16629423166E+03  0.21592178446E+03  0.12500255866E+03 0.  0.
    9000005    1    3    3    0    0  0.28798261307E+02 -0.30626952182E+01 -0.65692371900E+00  0.28985367085E+02  0.10000000000E+01 0.  0.
    9000005    1    3    3    0    0 -0.86613243124E+02  0.25792394386E+01 -0.16563730794E+03  0.18693641738E+03  0.10000000000E+01 0.  0.
          4    1    1    2  501    0  0.57814981817E+02  0.48345577961E+00  0.16963298756E+02  0.60267505811E+02  0.12700000000E+01 0.  1.
<mgrwt>
<rscale>  1 0.13772598E+03</rscale>
<asrwt>0</asrwt>
<pdfrwt beam="1">  1       21 0.97580435E-02 0.13772598E+03</pdfrwt>
<pdfrwt beam="2">  1        4 0.32733303E-01 0.13772598E+03</pdfrwt>
<totfact> 0.31001178E+04</totfact>
</mgrwt>
</event>
<event>
 6    4  0.3189516E-003  0.1276074E+03  0.7818608E-02  0.1231050E+00
         21   -1    0    0  501  502  0.00000000000E+00  0.00000000000E+00  0.49612923024E+02  0.49612923024E+02  0.00000000000E+00 0. -1.
         -4   -1    0    0    0  501 -0.00000000000E+00 -0.00000000000E+00 -0.27759807400E+03  0.27760097908E+03  0.12700000000E+01 0.  1.
         25    2    1    2    0    0  0.19671412619E+02 -0.16541512786E+02 -0.25790650875E+03  0.28774889646E+03  0.12499229592E+03 0.  0.
    9000005    1    3    3    0    0  0.34365950136E+02  0.21370014443E+02 -0.23986169608E+03  0.24325363161E+03  0.10000000000E+01 0.  0.
    9000005    1    3    3    0    0 -0.14694537517E+02 -0.37911527229E+02 -0.18044812672E+02  0.44495264850E+02  0.10000000000E+01 0.  0.
         -4    1    1    2    0  502 -0.19671412619E+02  0.16541512786E+02  0.29921357775E+02  0.39465005647E+02  0.12700000000E+01 0. -1.
<mgrwt>
<rscale>  1 0.12760745E+03</rscale>
<asrwt>0</asrwt>
<pdfrwt beam="1">  1       21 0.76327574E-02 0.12760745E+03</pdfrwt>
<pdfrwt beam="2">  1       -4 0.42708870E-01 0.12760745E+03</pdfrwt>
<totfact> 0.28024775E+04</totfact>
</mgrwt>
</event>
<event>
 6    4  0.3189516E-003  0.1759573E+03  0.7818608E-02  0.1171774E+00
          4   -1    0    0  502    0 -0.00000000000E+00  0.00000000000E+00  0.59452241512E+02  0.59465804634E+02  0.12700000000E+01 0. -1.
         21   -1    0    0  501  502  0.00000000000E+00 -0.00000000000E+00 -0.41758985129E+03  0.41758985129E+03  0.00000000000E+00 0.  1.
         25    2    1    2    0    0 -0.54115778783E+02 -0.11138941208E+03 -0.13472036990E+03  0.22160899885E+03  0.12499940666E+03 0.  0.
    9000005    1    3    3    0    0 -0.18306152880E+02 -0.83802022292E+02 -0.69393219644E+01  0.86064210696E+02  0.10000000000E+01 0.  0.
    9000005    1    3    3    0    0 -0.35809625903E+02 -0.27587389792E+02 -0.12778104794E+03  0.13554478815E+03  0.10000000000E+01 0.  0.
          4    1    1    2  501    0  0.54115778783E+02  0.11138941208E+03 -0.22341723987E+03  0.25544665707E+03  0.12700000000E+01 0.  1.
<mgrwt>
<rscale>  1 0.17595730E+03</rscale>
<asrwt>0</asrwt>
<pdfrwt beam="2">  1       21 0.64244591E-01 0.17595730E+03</pdfrwt>
<pdfrwt beam="1">  1        4 0.91476908E-02 0.17595730E+03</pdfrwt>
<totfact> 0.82625595E+03</totfact>
</mgrwt>
</event>
<event>
 6    4  0.3189516E-003  0.1696112E+03  0.7818608E-02  0.1178254E+00
         21   -1    0    0  501  502  0.00000000000E+00  0.00000000000E+00  0.84922764306E+03  0.84922764306E+03  0.00000000000E+00 0. -1.
          4   -1    0    0  502    0 -0.00000000000E+00 -0.00000000000E+00 -0.24565285359E+02  0.24598092300E+02  0.12700000000E+01 0.  1.
         25    2    1    2    0    0 -0.10371575358E+03  0.48852275194E+02  0.56657307090E+03  0.59141611231E+03  0.12499788355E+03 0.  0.
    9000005    1    3    3    0    0 -0.31404458386E+02  0.50561271976E+02  0.45209934575E+03  0.45600164546E+03  0.10000000000E+01 0.  0.
    9000005    1    3    3    0    0 -0.72311295194E+02 -0.17089967817E+01  0.11447372515E+03  0.13541446685E+03  0.10000000000E+01 0.  0.
          4    1    1    2  501    0  0.10371575358E+03 -0.48852275194E+02  0.25808928680E+03  0.28240962306E+03  0.12700000000E+01 0. -1.
<mgrwt>
<rscale>  1 0.16961124E+03</rscale>
<asrwt>0</asrwt>
<pdfrwt beam="1">  1       21 0.13065038E+00 0.16961124E+03</pdfrwt>
<pdfrwt beam="2">  1        4 0.37818720E-02 0.16961124E+03</pdfrwt>
<totfact> 0.67021788E+03</totfact>
</mgrwt>
</event>
<event>
 6    4  0.3189516E-003  0.1368745E+03  0.7818608E-02  0.1217597E+00
         21   -1    0    0  501  502  0.00000000000E+00  0.00000000000E+00  0.25169032005E+02  0.25169032005E+02  0.00000000000E+00 0. -1.
          4   -1    0    0  502    0 -0.00000000000E+00 -0.00000000000E+00 -0.19176670166E+04  0.19176674371E+04  0.12700000000E+01 0.  1.
         25    2    1    2    0    0 -0.44307783034E+02  0.33861607595E+02 -0.18808872605E+04  0.18858609488E+04  0.12499937272E+03 0.  0.
    9000005    1    3    3    0    0  0.56610256946E+01 -0.33213775758E+02 -0.10980746514E+04  0.10985918906E+04  0.10000000000E+01 0.  0.
    9000005    1    3    3    0    0 -0.49968808729E+02  0.67075383353E+02 -0.78281260916E+03  0.78726905817E+03  0.10000000000E+01 0.  0.
          4    1    1    2  501    0  0.44307783034E+02 -0.33861607595E+02 -0.11610724047E+02  0.56975520351E+02  0.12700000000E+01 0. -1.
<mgrwt>
<rscale>  1 0.13687451E+03</rscale>
<asrwt>0</asrwt>
<pdfrwt beam="1">  1       21 0.38721575E-02 0.13687451E+03</pdfrwt>
<pdfrwt beam="2">  1        4 0.29502829E+00 0.13687451E+03</pdfrwt>
<totfact> 0.69388327E+02</totfact>
</mgrwt>
</event>
<event>
 6    4  0.3189516E-003  0.1276019E+03  0.7818608E-02  0.1231058E+00
         -4   -1    0    0    0  501 -0.00000000000E+00  0.00000000000E+00  0.16943151330E+02  0.16990682063E+02  0.12700000000E+01 0. -1.
         21   -1    0    0  501  502  0.00000000000E+00 -0.00000000000E+00 -0.86884644181E+03  0.86884644181E+03  0.00000000000E+00 0.  1.
         25    2    1    2    0    0  0.11632921267E+02 -0.22839187280E+02 -0.22699073159E+03  0.26039786025E+03  0.12500120023E+03 0.  0.
    9000005    1    3    3    0    0 -0.48619603447E+02 -0.15871121699E+02 -0.16863740046E+03  0.17622522855E+03  0.10000000000E+01 0.  0.
    9000005    1    3    3    0    0  0.60252524714E+02 -0.69680655812E+01 -0.58353331134E+02  0.84172631697E+02  0.10000000000E+01 0.  0.
         -4    1    1    2    0  502 -0.11632921267E+02  0.22839187280E+02 -0.62491255889E+03  0.62543926363E+03  0.12700000000E+01 0.  1.
<mgrwt>
<rscale>  1 0.12760193E+03</rscale>
<asrwt>0</asrwt>
<pdfrwt beam="2">  1       21 0.13366867E+00 0.12760193E+03</pdfrwt>
<pdfrwt beam="1">  1       -4 0.26103666E-02 0.12760193E+03</pdfrwt>
<totfact> 0.11199378E+04</totfact>
</mgrwt>
</event>
<event>
 6    4  0.3189516E-003  0.1333267E+03  0.7818608E-02  0.1222601E+00
         -4   -1    0    0    0  501 -0.00000000000E+00  0.00000000000E+00  0.29919104473E+02  0.29946046692E+02  0.12700000000E+01 0.  1.
         21   -1    0    0  501  502  0.00000000000E+00 -0.00000000000E+00 -0.27018078865E+03  0.27018078865E+03  0.00000000000E+00 0.  1.
         25    2    1    2    0    0  0.21358891652E+00 -0.46377739650E+02 -0.17296633718E+03  0.21838812368E+03  0.12500031366E+03 0.  0.
    9000005    1    3    3    0    0 -0.53631637246E+02 -0.55698392918E+02 -0.11627827494E+03  0.13964347715E+03  0.10000000000E+01 0.  0.
    9000005    1    3    3    0    0  0.53845226163E+02  0.93206532684E+01 -0.56688062232E+02  0.78744646532E+02  0.10000000000E+01 0.  0.
         -4    1    1    2    0  502 -0.21358891652E+00  0.46377739650E+02 -0.67295346997E+02  0.81738711653E+02  0.12700000000E+01 0. -1.
<mgrwt>
<rscale>  1 0.13332674E+03</rscale>
<asrwt>0</asrwt>
<pdfrwt beam="2">  1       21 0.41566273E-01 0.13332674E+03</pdfrwt>
<pdfrwt beam="1">  1       -4 0.46052415E-02 0.13332674E+03</pdfrwt>
<totfact> 0.61658788E+04</totfact>
</mgrwt>
</event>
<event>
 6    4  0.3189516E-003  0.1279911E+03  0.7818608E-02  0.1230467E+00
         21   -1    0    0  501  502  0.00000000000E+00  0.00000000000E+00  0.10780499481E+02  0.10780499481E+02  0.00000000000E+00 0. -1.
          4   -1    0    0  502    0 -0.00000000000E+00 -0.00000000000E+00 -0.75210492537E+03  0.75210599763E+03  0.12700000000E+01 0. -1.
         25    2    1    2    0    0  0.20189740260E+02 -0.18694992807E+02 -0.70880854552E+03  0.72027166702E+03  0.12499836691E+03 0.  0.
    9000005    1    3    3    0    0 -0.79596132266E+01 -0.62246337313E+02 -0.22178540595E+03  0.23049452975E+03  0.10000000000E+01 0.  0.
    9000005    1    3    3    0    0  0.28149353487E+02  0.43551344506E+02 -0.48702313958E+03  0.48977713727E+03  0.10000000000E+01 0.  0.
          4    1    1    2  501    0 -0.20189740260E+02  0.18694992807E+02 -0.32515880365E+02  0.42614830091E+02  0.12700000000E+01 0.  1.
<mgrwt>
<rscale>  1 0.12799109E+03</rscale>
<asrwt>0</asrwt>
<pdfrwt beam="1">  1       21 0.16585385E-02 0.12799109E+03</pdfrwt>
<pdfrwt beam="2">  1        4 0.11571428E+00 0.12799109E+03</pdfrwt>
<totfact> 0.40531538E+04</totfact>
</mgrwt>
</event>
<event>
 6    4  0.3189516E-003  0.1362993E+03  0.7818608E-02  0.1218397E+00
         -4   -1    0    0    0  501 -0.00000000000E+00  0.00000000000E+00  0.81146173362E+03  0.81146272745E+03  0.12700000000E+01 0.  1.
         21   -1    0    0  501  502  0.00000000000E+00 -0.00000000000E+00 -0.17243775522E+02  0.17243775522E+02  0.00000000000E+00 0. -1.
         25    2    1    2    0    0  0.73438537126E+01 -0.53843939414E+02  0.73809848871E+03  0.75057770070E+03  0.12499761500E+03 0.  0.
    9000005    1    3    3    0    0  0.41401483278E+02 -0.73959211664E+02  0.62575827931E+03  0.63147325512E+03  0.10000000000E+01 0.  0.
    9000005    1    3    3    0    0 -0.34057629565E+02  0.20115272250E+02  0.11234020940E+03  0.11910444558E+03  0.10000000000E+01 0.  0.
         -4    1    1    2    0  502 -0.73438537126E+01  0.53843939414E+02  0.56119469397E+02  0.78128802272E+02  0.12700000000E+01 0. -1.
<mgrwt>
<rscale>  1 0.13629932E+03</rscale>
<asrwt>0</asrwt>
<pdfrwt beam="2">  1       21 0.26528892E-02 0.13629932E+03</pdfrwt>
<pdfrwt beam="1">  1       -4 0.12484391E+00 0.13629932E+03</pdfrwt>
<totfact> 0.15910337E+04</totfact>
</mgrwt>
</event>
<event>
 6    4  0.3189516E-003  0.1463612E+03  0.7818608E-02  0.1205017E+00
         21   -1    0    0  501  502  0.00000000000E+00  0.00000000000E+00  0.66656866703E+02  0.66656866703E+02  0.00000000000E+00 0. -1.
          4   -1    0    0  502    0 -0.00000000000E+00 -0.00000000000E+00 -0.87885030246E+03  0.87885122008E+03  0.12700000000E+01 0.  1.
         25    2    1    2    0    0  0.26707390291E+02  0.71295128108E+02 -0.84858519889E+03  0.86111464325E+03  0.12500123625E+03 0.  0.
    9000005    1    3    3    0    0 -0.43113126801E+02  0.48070532284E+02 -0.25787392868E+03  0.26583732031E+03  0.10000000000E+01 0.  0.
    9000005    1    3    3    0    0  0.69820517092E+02  0.23224595823E+02 -0.59071127021E+03  0.59527732294E+03  0.10000000000E+01 0.  0.
          4    1    1    2  501    0 -0.26707390291E+02 -0.71295128108E+02  0.36391763126E+02  0.84393443534E+02  0.12700000000E+01 0. -1.
<mgrwt>
<rscale>  1 0.14636116E+03</rscale>
<asrwt>0</asrwt>
<pdfrwt beam="1">  1       21 0.10254904E-01 0.14636116E+03</pdfrwt>
<pdfrwt beam="2">  1        4 0.13520873E+00 0.14636116E+03</pdfrwt>
<totfact> 0.13386358E+03</totfact>
</mgrwt>
</event>
<event>
 6    4  0.3189516E-003  0.1451090E+03  0.7818608E-02  0.1206615E+00
         21   -1    0    0  501  502  0.00000000000E+00  0.00000000000E+00  0.23980095133E+02  0.23980095133E+02  0.00000000000E+00 0. -1.
          4   -1    0    0  502    0 -0.00000000000E+00 -0.00000000000E+00 -0.56160778203E+03  0.56160921800E+03  0.12700000000E+01 0. -1.
         25    2    1    2    0    0 -0.49761754756E+02 -0.54395877188E+02 -0.43957189198E+03  0.46290396148E+03  0.12498594179E+03 0.  0.
    9000005    1    3    3    0    0 -0.44692480701E+02 -0.56301763047E+02 -0.44750711742E+03  0.45324488579E+03  0.10000000000E+01 0.  0.
    9000005    1    3    3    0    0 -0.50692740554E+01  0.19058858585E+01  0.79352254424E+01  0.96590756895E+01  0.10000000000E+01 0.  0.
          4    1    1    2  501    0  0.49761754756E+02  0.54395877188E+02 -0.98055794919E+02  0.12268535165E+03  0.12700000000E+01 0.  1.
<mgrwt>
<rscale>  1 0.14510903E+03</rscale>
<asrwt>0</asrwt>
<pdfrwt beam="1">  1       21 0.36892453E-02 0.14510903E+03</pdfrwt>
<pdfrwt beam="2">  1        4 0.86403896E-01 0.14510903E+03</pdfrwt>
<totfact> 0.21952244E+04</totfact>
</mgrwt>
</event>
<event>
 6    4  0.3189516E-003  0.1349608E+03  0.7818608E-02  0.1220275E+00
         21   -1    0    0  501  502  0.00000000000E+00  0.00000000000E+00  0.97892200303E+01  0.97892200303E+01  0.00000000000E+00 0.  1.
         -4   -1    0    0    0  501 -0.00000000000E+00 -0.00000000000E+00 -0.10469828715E+04  0.10469836418E+04  0.12700000000E+01 0. -1.
         25    2    1    2    0    0  0.23852250454E+02 -0.44955687363E+02 -0.90690147351E+03  0.91688859458E+03  0.12499787409E+03 0.  0.
    9000005    1    3    3    0    0 -0.31837803464E+02 -0.42940358318E+02 -0.71663696377E+03  0.71862859527E+03  0.10000000000E+01 0.  0.
    9000005    1    3    3    0    0  0.55690053918E+02 -0.20153290450E+01 -0.19026450974E+03  0.19825999930E+03  0.10000000000E+01 0.  0.
         -4    1    1    2    0  502 -0.23852250454E+02  0.44955687363E+02 -0.13029217800E+03  0.13988426726E+03  0.12700000000E+01 0.  1.
<mgrwt>
<rscale>  1 0.13496078E+03</rscale>
<asrwt>0</asrwt>
<pdfrwt beam="1">  1       21 0.15060356E-02 0.13496078E+03</pdfrwt>
<pdfrwt beam="2">  1       -4 0.16108049E+00 0.13496078E+03</pdfrwt>
<totfact> 0.20929693E+04</totfact>
</mgrwt>
</event>
<event>
 6    4  0.3189516E-003  0.1281973E+03  0.7818608E-02  0.1230155E+00
         -4   -1    0    0    0  501 -0.00000000000E+00  0.00000000000E+00  0.52955267792E+02  0.52970494494E+02  0.12700000000E+01 0. -1.
         21   -1    0    0  501  502  0.00000000000E+00 -0.00000000000E+00 -0.11891373038E+03  0.11891373038E+03  0.00000000000E+00 0. -1.
         25    2    1    2    0    0 -0.11023840036E+02 -0.26231605686E+02 -0.64131212680E+02  0.14334348333E+03  0.12499967835E+03 0.  0.
    9000005    1    3    3    0    0  0.14099234582E+02 -0.66042420597E+02 -0.68325016791E+02  0.96071315457E+02  0.10000000000E+01 0.  0.
    9000005    1    3    3    0    0 -0.25123074619E+02  0.39810814911E+02  0.41938041111E+01  0.47272167870E+02  0.10000000000E+01 0.  0.
         -4    1    1    2    0  502  0.11023840036E+02  0.26231605686E+02 -0.18272499122E+01  0.28540741550E+02  0.12700000000E+01 0.  1.
<mgrwt>
<rscale>  1 0.12819728E+03</rscale>
<asrwt>0</asrwt>
<pdfrwt beam="2">  1       21 0.18294420E-01 0.12819728E+03</pdfrwt>
<pdfrwt beam="1">  1       -4 0.81486574E-02 0.12819728E+03</pdfrwt>
<totfact> 0.11669544E+05</totfact>
</mgrwt>
</event>
<event>
 6    4  0.3189516E-003  0.1392996E+03  0.7818608E-02  0.1214275E+00
         21   -1    0    0  501  502  0.00000000000E+00  0.00000000000E+00  0.79271386890E+02  0.79271386890E+02  0.00000000000E+00 0.  1.
         -4   -1    0    0    0  501 -0.00000000000E+00 -0.00000000000E+00 -0.17207891639E+03  0.17208360284E+03  0.12700000000E+01 0.  1.
         25    2    1    2    0    0 -0.45264548676E+01 -0.61334962307E+02 -0.12022509357E+03  0.18400662587E+03  0.12498759476E+03 0.  0.
    9000005    1    3    3    0    0  0.16347642473E+02 -0.95662436780E+02 -0.98669528439E+02  0.13840239545E+03  0.10000000000E+01 0.  0.
    9000005    1    3    3    0    0 -0.20874097341E+02  0.34327474473E+02 -0.21555565134E+02  0.45604230415E+02  0.10000000000E+01 0.  0.
         -4    1    1    2    0  502  0.45264548676E+01  0.61334962307E+02  0.27417564073E+02  0.67348363860E+02  0.12700000000E+01 0. -1.
<mgrwt>
<rscale>  1 0.13929955E+03</rscale>
<asrwt>0</asrwt>
<pdfrwt beam="1">  1       21 0.12195598E-01 0.13929955E+03</pdfrwt>
<pdfrwt beam="2">  1       -4 0.26474822E-01 0.13929955E+03</pdfrwt>
<totfact> 0.31261587E+04</totfact>
</mgrwt>
</event>
<event>
 6    4  0.3189516E-003  0.1393068E+03  0.7818608E-02  0.1214265E+00
         21   -1    0    0  501  502  0.00000000000E+00  0.00000000000E+00  0.68317203810E+02  0.68317203810E+02  0.00000000000E+00 0.  1.
          4   -1    0    0  502    0 -0.00000000000E+00 -0.00000000000E+00 -0.30199769669E+03  0.30200036706E+03  0.12700000000E+01 0. -1.
         25    2    1    2    0    0 -0.53053662804E+02 -0.31094302158E+02 -0.26641768212E+03  0.30064057881E+03  0.12499931808E+03 0.  0.
    9000005    1    3    3    0    0 -0.83160871235E+02 -0.28032822708E+02 -0.10707813609E+03  0.13844961857E+03  0.10000000000E+01 0.  0.
    9000005    1    3    3    0    0  0.30107208431E+02 -0.30614794505E+01 -0.15933954603E+03  0.16219096024E+03  0.10000000000E+01 0.  0.
          4    1    1    2  501    0  0.53053662804E+02  0.31094302158E+02  0.32737189237E+02  0.69676992062E+02  0.12700000000E+01 0.  1.
<mgrwt>
<rscale>  1 0.13930677E+03</rscale>
<asrwt>0</asrwt>
<pdfrwt beam="1">  1       21 0.10510339E-01 0.13930677E+03</pdfrwt>
<pdfrwt beam="2">  1        4 0.46462298E-01 0.13930677E+03</pdfrwt>
<totfact> 0.13704396E+04</totfact>
</mgrwt>
</event>
<event>
 6    4  0.3189516E-003  0.1560549E+03  0.7818608E-02  0.1193224E+00
         -4   -1    0    0    0  501 -0.00000000000E+00  0.00000000000E+00  0.29048079614E+03  0.29048357239E+03  0.12700000000E+01 0.  1.
         21   -1    0    0  501  502  0.00000000000E+00 -0.00000000000E+00 -0.54621630430E+02  0.54621630430E+02  0.00000000000E+00 0. -1.
         25    2    1    2    0    0 -0.46145863423E+02  0.81236100246E+02  0.17015117386E+03  0.23087780773E+03  0.12499758176E+03 0.  0.
    9000005    1    3    3    0    0 -0.66880741334E+02  0.82627164146E+02  0.17906435773E+03  0.20824342973E+03  0.10000000000E+01 0.  0.
    9000005    1    3    3    0    0  0.20734877911E+02 -0.13910638997E+01 -0.89131838762E+01  0.22634378002E+02  0.10000000000E+01 0.  0.
         -4    1    1    2    0  502  0.46145863423E+02 -0.81236100246E+02  0.65707991857E+02  0.11422739509E+03  0.12700000000E+01 0. -1.
<mgrwt>
<rscale>  1 0.15605493E+03</rscale>
<asrwt>0</asrwt>
<pdfrwt beam="2">  1       21 0.84033279E-02 0.15605493E+03</pdfrwt>
<pdfrwt beam="1">  1       -4 0.44690702E-01 0.15605493E+03</pdfrwt>
<totfact> 0.22152230E+04</totfact>
</mgrwt>
</event>
<event>
 6    4  0.3189516E-003  0.1272747E+03  0.7818608E-02  0.1231557E+00
         -4   -1    0    0    0  501 -0.00000000000E+00  0.00000000000E+00  0.25984479164E+03  0.25984789520E+03  0.12700000000E+01 0. -1.
         21   -1    0    0  501  502  0.00000000000E+00 -0.00000000000E+00 -0.22015273607E+02  0.22015273607E+02  0.00000000000E+00 0. -1.
         25    2    1    2    0    0 -0.10542818047E+01  0.23936818887E+02  0.20102594684E+03  0.23792914371E+03  0.12499905327E+03 0.  0.
    9000005    1    3    3    0    0  0.21423605886E+02  0.54862272679E+02  0.37131731407E+02  0.69631927518E+02  0.10000000000E+01 0.  0.
    9000005    1    3    3    0    0 -0.22477887691E+02 -0.30925453792E+02  0.16389421543E+03  0.16829721620E+03  0.10000000000E+01 0.  0.
         -4    1    1    2    0  502  0.10542818047E+01 -0.23936818887E+02  0.36803571191E+02  0.43934025094E+02  0.12700000000E+01 0.  1.
<mgrwt>
<rscale>  1 0.12727469E+03</rscale>
<asrwt>0</asrwt>
<pdfrwt beam="2">  1       21 0.33869654E-02 0.12727469E+03</pdfrwt>
<pdfrwt beam="1">  1       -4 0.39979176E-01 0.12727469E+03</pdfrwt>
<totfact> 0.12513200E+05</totfact>
</mgrwt>
</event>
<event>
 6    4  0.3189516E-003  0.1274316E+03  0.7818608E-02  0.1231317E+00
         -4   -1    0    0    0  501 -0.00000000000E+00  0.00000000000E+00  0.13431454954E+02  0.13491363244E+02  0.12700000000E+01 0. -1.
         21   -1    0    0  501  502  0.00000000000E+00 -0.00000000000E+00 -0.85128368844E+03  0.85128368844E+03  0.00000000000E+00 0.  1.
         25    2    1    2    0    0 -0.23587125661E+02 -0.76174890666E+01 -0.29489031276E+03  0.32124617582E+03  0.12499772112E+03 0.  0.
    9000005    1    3    3    0    0  0.15024246418E+02 -0.52201135957E+02 -0.21607935051E+03  0.22280478516E+03  0.10000000000E+01 0.  0.
    9000005    1    3    3    0    0 -0.38611372079E+02  0.44583646890E+02 -0.78810962252E+02  0.98441390659E+02  0.10000000000E+01 0.  0.
         -4    1    1    2    0  502  0.23587125661E+02  0.76174890666E+01 -0.54296192072E+03  0.54352887586E+03  0.12700000000E+01 0.  1.
<mgrwt>
<rscale>  1 0.12743159E+03</rscale>
<asrwt>0</asrwt>
<pdfrwt beam="2">  1       21 0.13096676E+00 0.12743159E+03</pdfrwt>
<pdfrwt beam="1">  1       -4 0.20710583E-02 0.12743159E+03</pdfrwt>
<totfact> 0.16858952E+04</totfact>
</mgrwt>
</event>
<event>
 6    4  0.3189516E-003  0.1278715E+03  0.7818608E-02  0.1230649E+00
         21   -1    0    0  501  502  0.00000000000E+00  0.00000000000E+00  0.40963484133E+02  0.40963484133E+02  0.00000000000E+00 0. -1.
         -4   -1    0    0    0  501 -0.00000000000E+00 -0.00000000000E+00 -0.45159023630E+03  0.45159202209E+03  0.12700000000E+01 0.  1.
         25    2    1    2    0    0 -0.25350740605E+02  0.91563595289E+01 -0.43669812366E+03  0.45503446838E+03  0.12499846894E+03 0.  0.
    9000005    1    3    3    0    0 -0.54968941097E+02  0.37071008541E+02 -0.13293118830E+03  0.14855148933E+03  0.10000000000E+01 0.  0.
    9000005    1    3    3    0    0  0.29618200492E+02 -0.27914649012E+02 -0.30376693536E+03  0.30648297905E+03  0.10000000000E+01 0.  0.
         -4    1    1    2    0  502  0.25350740605E+02 -0.91563595289E+01  0.26071371498E+02  0.37521037843E+02  0.12700000000E+01 0. -1.
<mgrwt>
<rscale>  1 0.12787148E+03</rscale>
<asrwt>0</asrwt>
<pdfrwt beam="1">  1       21 0.63020742E-02 0.12787148E+03</pdfrwt>
<pdfrwt beam="2">  1       -4 0.69477076E-01 0.12787148E+03</pdfrwt>
<totfact> 0.14239935E+04</totfact>
</mgrwt>
</event>
<event>
 6    4  0.3189516E-003  0.1419223E+03  0.7818608E-02  0.1210766E+00
         21   -1    0    0  501  502  0.00000000000E+00  0.00000000000E+00  0.18049226219E+03  0.18049226219E+03  0.00000000000E+00 0.  1.
         -4   -1    0    0    0  501 -0.00000000000E+00 -0.00000000000E+00 -0.10703993565E+03  0.10704746948E+03  0.12700000000E+01 0. -1.
         25    2    1    2    0    0  0.28259737139E+02  0.60997895883E+02 -0.47075036655E+02  0.14952591271E+03  0.12499033343E+03 0.  0.
    9000005    1    3    3    0    0  0.18902300387E+02  0.58825705466E+02  0.32188019299E+02  0.69676604179E+02  0.10000000000E+01 0.  0.
    9000005    1    3    3    0    0  0.93574367514E+01  0.21721904175E+01 -0.79263055954E+02  0.79849308532E+02  0.10000000000E+01 0.  0.
         -4    1    1    2    0  502 -0.28259737139E+02 -0.60997895883E+02  0.12052736320E+03  0.13801381897E+03  0.12700000000E+01 0.  1.
<mgrwt>
<rscale>  1 0.14192230E+03</rscale>
<asrwt>0</asrwt>
<pdfrwt beam="1">  1       21 0.27768040E-01 0.14192230E+03</pdfrwt>
<pdfrwt beam="2">  1       -4 0.16468606E-01 0.14192230E+03</pdfrwt>
<totfact> 0.16254731E+04</totfact>
</mgrwt>
</event>
<event>
 6    4  0.3189516E-003  0.1269302E+03  0.7818608E-02  0.1232083E+00
         21   -1    0    0  501  502  0.00000000000E+00  0.00000000000E+00  0.18481200946E+02  0.18481200946E+02  0.00000000000E+00 0.  1.
         -4   -1    0    0    0  501 -0.00000000000E+00 -0.00000000000E+00 -0.66845404685E+03  0.66845525329E+03  0.12700000000E+01 0. -1.
         25    2    1    2    0    0 -0.65107942989E+01 -0.21079067449E+02 -0.65246623850E+03  0.66469803178E+03  0.12499825412E+03 0.  0.
    9000005    1    3    3    0    0  0.23613872479E+02 -0.67505060315E+02 -0.35807929193E+03  0.36515247151E+03  0.10000000000E+01 0.  0.
    9000005    1    3    3    0    0 -0.30124666778E+02  0.46425992866E+02 -0.29438694658E+03  0.29954556027E+03  0.10000000000E+01 0.  0.
         -4    1    1    2    0  502  0.65107942989E+01  0.21079067449E+02  0.24933925962E+01  0.22238422461E+02  0.12700000000E+01 0.  1.
<mgrwt>
<rscale>  1 0.12693022E+03</rscale>
<asrwt>0</asrwt>
<pdfrwt beam="1">  1       21 0.28432622E-02 0.12693022E+03</pdfrwt>
<pdfrwt beam="2">  1       -4 0.10284252E+00 0.12693022E+03</pdfrwt>
<totfact> 0.22326410E+04</totfact>
</mgrwt>
</event>
<event>
 6    4  0.3189516E-003  0.1301142E+03  0.7818608E-02  0.1227286E+00
         21   -1    0    0  501  502  0.00000000000E+00  0.00000000000E+00  0.23122135158E+02  0.23122135158E+02  0.00000000000E+00 0.  1.
          4   -1    0    0  502    0 -0.00000000000E+00 -0.00000000000E+00 -0.69652970762E+03  0.69653086543E+03  0.12700000000E+01 0. -1.
         25    2    1    2    0    0 -0.37286957083E+01  0.35928316832E+02 -0.67092390214E+03  0.68342416345E+03  0.12499983037E+03 0.  0.
    9000005    1    3    3    0    0 -0.47347424472E+02 -0.39619938115E+01 -0.50596811052E+03  0.50819504609E+03  0.10000000000E+01 0.  0.
    9000005    1    3    3    0    0  0.43618728763E+02  0.39890310643E+02 -0.16495579162E+03  0.17522911736E+03  0.10000000000E+01 0.  0.
          4    1    1    2  501    0  0.37286957083E+01 -0.35928316832E+02 -0.24836703141E+01  0.36228837137E+02  0.12700000000E+01 0.  1.
<mgrwt>
<rscale>  1 0.13011420E+03</rscale>
<asrwt>0</asrwt>
<pdfrwt beam="1">  1       21 0.35572519E-02 0.13011420E+03</pdfrwt>
<pdfrwt beam="2">  1        4 0.10716118E+00 0.13011420E+03</pdfrwt>
<totfact> 0.14070652E+04</totfact>
</mgrwt>
</event>
<event>
 6    4  0.3189516E-003  0.1413007E+03  0.7818608E-02  0.1211589E+00
         21   -1    0    0  501  502  0.00000000000E+00  0.00000000000E+00  0.29446358305E+02  0.29446358305E+02  0.00000000000E+00 0. -1.
         -4   -1    0    0    0  501 -0.00000000000E+00 -0.00000000000E+00 -0.38881863289E+03  0.38882070699E+03  0.12700000000E+01 0.  1.
         25    2    1    2    0    0  0.60058931918E+02  0.27124426065E+02 -0.28990070088E+03  0.32250317729E+03  0.12499229256E+03 0.  0.
    9000005    1    3    3    0    0 -0.26077625748E+02 -0.99820398299E+01 -0.14316764993E+02  0.31395118151E+02  0.10000000000E+01 0.  0.
    9000005    1    3    3    0    0  0.86136557666E+02  0.37106465895E+02 -0.27558393588E+03  0.29110805914E+03  0.10000000000E+01 0.  0.
         -4    1    1    2    0  502 -0.60058931918E+02 -0.27124426065E+02 -0.69471573712E+02  0.95763888008E+02  0.12700000000E+01 0. -1.
<mgrwt>
<rscale>  1 0.14130068E+03</rscale>
<asrwt>0</asrwt>
<pdfrwt beam="1">  1       21 0.45302092E-02 0.14130068E+03</pdfrwt>
<pdfrwt beam="2">  1       -4 0.59820514E-01 0.14130068E+03</pdfrwt>
<totfact> 0.34535596E+04</totfact>
</mgrwt>
</event>
<event>
 6    4  0.3189516E-003  0.1267619E+03  0.7818608E-02  0.1232341E+00
         21   -1    0    0  501  502  0.00000000000E+00  0.00000000000E+00  0.81928299191E+03  0.81928299191E+03  0.00000000000E+00 0. -1.
         -4   -1    0    0    0  501 -0.00000000000E+00 -0.00000000000E+00 -0.28700980326E+02  0.28729064928E+02  0.12700000000E+01 0.  1.
         25    2    1    2    0    0 -0.20516036837E+02  0.47296500401E+01  0.11214883967E+03  0.16925108344E+03  0.12500115859E+03 0.  0.
    9000005    1    3    3    0    0  0.22754962037E+02  0.48613409549E+02  0.17811080722E+02  0.56562235473E+02  0.10000000000E+01 0.  0.
    9000005    1    3    3    0    0 -0.43270998873E+02 -0.43883759509E+02  0.94337758946E+02  0.11268884796E+03  0.10000000000E+01 0.  0.
         -4    1    1    2    0  502  0.20516036837E+02 -0.47296500401E+01  0.67843317191E+03  0.67876097340E+03  0.12700000000E+01 0. -1.
<mgrwt>
<rscale>  1 0.12676185E+03</rscale>
<asrwt>0</asrwt>
<pdfrwt beam="1">  1       21 0.12604352E+00 0.12676185E+03</pdfrwt>
<pdfrwt beam="2">  1       -4 0.44177721E-02 0.12676185E+03</pdfrwt>
<totfact> 0.56599984E+03</totfact>
</mgrwt>
</event>
<event>
 6    4  0.3189516E-003  0.1313884E+03  0.7818608E-02  0.1225410E+00
          4   -1    0    0  502    0 -0.00000000000E+00  0.00000000000E+00  0.13234166715E+03  0.13234776071E+03  0.12700000000E+01 0. -1.
         21   -1    0    0  501  502  0.00000000000E+00 -0.00000000000E+00 -0.58459663398E+02  0.58459663398E+02  0.00000000000E+00 0. -1.
         25    2    1    2    0    0 -0.13066824536E+01  0.40456256873E+02  0.72988078971E+02  0.15030028720E+03  0.12499800206E+03 0.  0.
    9000005    1    3    3    0    0  0.10463953474E+02  0.17612880480E+02  0.10627498187E+03  0.10823622154E+03  0.10000000000E+01 0.  0.
    9000005    1    3    3    0    0 -0.11770635927E+02  0.22843376393E+02 -0.33286902899E+02  0.42064065659E+02  0.10000000000E+01 0.  0.
          4    1    1    2  501    0  0.13066824536E+01 -0.40456256873E+02  0.89392478271E+00  0.40507136911E+02  0.12700000000E+01 0.  1.
<mgrwt>
<rscale>  1 0.13138842E+03</rscale>
<asrwt>0</asrwt>
<pdfrwt beam="2">  1       21 0.89937944E-02 0.13138842E+03</pdfrwt>
<pdfrwt beam="1">  1        4 0.20361786E-01 0.13138842E+03</pdfrwt>
<totfact> 0.85704670E+04</totfact>
</mgrwt>
</event>
<event>
 6    4  0.3189516E-003  0.1274396E+03  0.7818608E-02  0.1231305E+00
          4   -1    0    0  502    0 -0.00000000000E+00  0.00000000000E+00  0.31832781757E+03  0.31833035095E+03  0.12700000000E+01 0. -1.
         21   -1    0    0  501  502  0.00000000000E+00 -0.00000000000E+00 -0.18212583478E+02  0.18212583478E+02  0.00000000000E+00 0. -1.
         25    2    1    2    0    0 -0.16880813043E+02 -0.18188333421E+02  0.25047620871E+03  0.28103236730E+03  0.12500033209E+03 0.  0.
    9000005    1    3    3    0    0  0.18674885426E+02 -0.39880514660E+02  0.23078499955E+03  0.23495089447E+03  0.10000000000E+01 0.  0.
    9000005    1    3    3    0    0 -0.35555698469E+02  0.21692181240E+02  0.19691209158E+02  0.46081472835E+02  0.10000000000E+01 0.  0.
          4    1    1    2  501    0  0.16880813043E+02  0.18188333421E+02  0.49639025382E+02  0.55510567125E+02  0.12700000000E+01 0.  1.
<mgrwt>
<rscale>  1 0.12743963E+03</rscale>
<asrwt>0</asrwt>
<pdfrwt beam="2">  1       21 0.28019362E-02 0.12743963E+03</pdfrwt>
<pdfrwt beam="1">  1        4 0.48977107E-01 0.12743963E+03</pdfrwt>
<totfact> 0.11394416E+05</totfact>
</mgrwt>
</event>
<event>
 6    4  0.3189516E-003  0.1272114E+03  0.7818608E-02  0.1231653E+00
         -4   -1    0    0    0  501 -0.00000000000E+00  0.00000000000E+00  0.29717445327E+02  0.29744570207E+02  0.12700000000E+01 0. -1.
         21   -1    0    0  501  502  0.00000000000E+00 -0.00000000000E+00 -0.38520714846E+03  0.38520714846E+03  0.00000000000E+00 0.  1.
         25    2    1    2    0    0  0.14683107950E+02 -0.18528964876E+02 -0.10956658457E+03  0.16789158562E+03  0.12499532739E+03 0.  0.
    9000005    1    3    3    0    0 -0.31444873337E+02  0.38796706074E+02 -0.64580931418E+02  0.81643500441E+02  0.10000000000E+01 0.  0.
    9000005    1    3    3    0    0  0.46127981288E+02 -0.57325670950E+02 -0.44985653155E+02  0.86248085181E+02  0.10000000000E+01 0.  0.
         -4    1    1    2    0  502 -0.14683107950E+02  0.18528964876E+02 -0.24592311856E+03  0.24706013305E+03  0.12700000000E+01 0.  1.
<mgrwt>
<rscale>  1 0.12721143E+03</rscale>
<asrwt>0</asrwt>
<pdfrwt beam="2">  1       21 0.59262639E-01 0.12721143E+03</pdfrwt>
<pdfrwt beam="1">  1       -4 0.45741622E-02 0.12721143E+03</pdfrwt>
<totfact> 0.29840460E+04</totfact>
</mgrwt>
</event>
<event>
 6    4  0.3189516E-003  0.1266398E+03  0.7818608E-02  0.1232529E+00
         -4   -1    0    0    0  501 -0.00000000000E+00  0.00000000000E+00  0.12642649086E+02  0.12706277028E+02  0.12700000000E+01 0.  1.
         21   -1    0    0  501  502  0.00000000000E+00 -0.00000000000E+00 -0.50732257074E+03  0.50732257074E+03  0.00000000000E+00 0.  1.
         25    2    1    2    0    0  0.10677168834E+02  0.17260501974E+02 -0.31966167711E+03  0.34383314496E+03  0.12500286757E+03 0.  0.
    9000005    1    3    3    0    0  0.26235348528E+02  0.38648236606E+02 -0.31309758487E+03  0.31656449162E+03  0.10000000000E+01 0.  0.
    9000005    1    3    3    0    0 -0.15558179694E+02 -0.21387734633E+02 -0.65640922377E+01  0.27268653340E+02  0.10000000000E+01 0.  0.
         -4    1    1    2    0  502 -0.10677168834E+02 -0.17260501974E+02 -0.17501824455E+03  0.17619570281E+03  0.12700000000E+01 0. -1.
<mgrwt>
<rscale>  1 0.12663982E+03</rscale>
<asrwt>0</asrwt>
<pdfrwt beam="2">  1       21 0.78049610E-01 0.12663982E+03</pdfrwt>
<pdfrwt beam="1">  1       -4 0.19500401E-02 0.12663982E+03</pdfrwt>
<totfact> 0.62327617E+04</totfact>
</mgrwt>
</event>
<event>
 6    4  0.3189516E-003  0.1312591E+03  0.7818608E-02  0.1225599E+00
         21   -1    0    0  501  502  0.00000000000E+00  0.00000000000E+00  0.58431239044E+01  0.58431239044E+01  0.00000000000E+00 0. -1.
         -4   -1    0    0    0  501 -0.00000000000E+00 -0.00000000000E+00 -0.13471023888E+04  0.13471029875E+04  0.12700000000E+01 0. -1.
         25    2    1    2    0    0  0.25100060462E+02  0.31219542022E+02 -0.11543192548E+04  0.11617581067E+04  0.12499713484E+03 0.  0.
    9000005    1    3    3    0    0 -0.19628146227E+02 -0.40977217446E+02 -0.46862682695E+03  0.47082533854E+03  0.10000000000E+01 0.  0.
    9000005    1    3    3    0    0  0.44728206689E+02  0.72196759468E+02 -0.68569242780E+03  0.69093276815E+03  0.10000000000E+01 0.  0.
         -4    1    1    2    0  502 -0.25100060462E+02 -0.31219542022E+02 -0.18694001016E+03  0.19118800469E+03  0.12700000000E+01 0.  1.
<mgrwt>
<rscale>  1 0.13125912E+03</rscale>
<asrwt>0</asrwt>
<pdfrwt beam="1">  1       21 0.89894152E-03 0.13125912E+03</pdfrwt>
<pdfrwt beam="2">  1       -4 0.20725733E+00 0.13125912E+03</pdfrwt>
<totfact> 0.23669195E+04</totfact>
</mgrwt>
</event>
<event>
 6    4  0.3189516E-003  0.1325436E+03  0.7818608E-02  0.1223730E+00
         21   -1    0    0  501  502  0.00000000000E+00  0.00000000000E+00  0.37329050272E+03  0.37329050272E+03  0.00000000000E+00 0.  1.
          4   -1    0    0  502    0 -0.00000000000E+00 -0.00000000000E+00 -0.23128751972E+02  0.23163593585E+02  0.12700000000E+01 0.  1.
         25    2    1    2    0    0 -0.97461400735E+01  0.42986357521E+02  0.30859541057E+03  0.33585551782E+03  0.12499994897E+03 0.  0.
    9000005    1    3    3    0    0  0.57534101595E+02  0.21453789046E+02  0.12930238460E+03  0.14314518704E+03  0.10000000000E+01 0.  0.
    9000005    1    3    3    0    0 -0.67280241669E+02  0.21532568475E+02  0.17929302597E+03  0.19271033077E+03  0.10000000000E+01 0.  0.
          4    1    1    2  501    0  0.97461400735E+01 -0.42986357521E+02  0.41566340182E+02  0.60598578494E+02  0.12700000000E+01 0. -1.
<mgrwt>
<rscale>  1 0.13254358E+03</rscale>
<asrwt>0</asrwt>
<pdfrwt beam="1">  1       21 0.57429304E-01 0.13254358E+03</pdfrwt>
<pdfrwt beam="2">  1        4 0.35611161E-02 0.13254358E+03</pdfrwt>
<totfact> 0.47655393E+04</totfact>
</mgrwt>
</event>
<event>
 6    4  0.3189516E-003  0.1314537E+03  0.7818608E-02  0.1225315E+00
         -4   -1    0    0    0  501 -0.00000000000E+00  0.00000000000E+00  0.13091017575E+03  0.13091633594E+03  0.12700000000E+01 0. -1.
         21   -1    0    0  501  502  0.00000000000E+00 -0.00000000000E+00 -0.76561943731E+02  0.76561943731E+02  0.00000000000E+00 0. -1.
         25    2    1    2    0    0  0.76532414667E+01  0.39936874271E+02  0.84999490633E+02  0.15654068465E+03  0.12500618590E+03 0.  0.
    9000005    1    3    3    0    0 -0.32890485846E+02 -0.19103596868E+01  0.92113320283E+02  0.97833007246E+02  0.10000000000E+01 0.  0.
    9000005    1    3    3    0    0  0.40543727312E+02  0.41847233958E+02 -0.71138296493E+01  0.58707677407E+02  0.10000000000E+01 0.  0.
         -4    1    1    2    0  502 -0.76532414667E+01 -0.39936874271E+02 -0.30651258613E+02  0.50937595016E+02  0.12700000000E+01 0.  1.
<mgrwt>
<rscale>  1 0.13145369E+03</rscale>
<asrwt>0</asrwt>
<pdfrwt beam="2">  1       21 0.11778761E-01 0.13145369E+03</pdfrwt>
<pdfrwt beam="1">  1       -4 0.20141311E-01 0.13145369E+03</pdfrwt>
<totfact> 0.54460580E+04</totfact>
</mgrwt>
</event>
<event>
 6    4  0.3189516E-003  0.1277738E+03  0.7818608E-02  0.1230797E+00
         21   -1    0    0  501  502  0.00000000000E+00  0.00000000000E+00  0.21595520224E+02  0.21595520224E+02  0.00000000000E+00 0.  1.
          4   -1    0    0  502    0 -0.00000000000E+00 -0.00000000000E+00 -0.30392116957E+03  0.30392382305E+03  0.12700000000E+01 0. -1.
         25    2    1    2    0    0  0.26479885487E+02 -0.11569308618E+01 -0.26392615747E+03  0.29322883343E+03  0.12499443720E+03 0.  0.
    9000005    1    3    3    0    0  0.28445311909E+02  0.36693716455E+02 -0.27897078343E+02  0.54173901253E+02  0.10000000000E+01 0.  0.
    9000005    1    3    3    0    0 -0.19654264222E+01 -0.37850647317E+02 -0.23602907913E+03  0.23905493218E+03  0.10000000000E+01 0.  0.
          4    1    1    2  501    0 -0.26479885487E+02  0.11569308618E+01 -0.18399491877E+02  0.32290509840E+02  0.12700000000E+01 0.  1.
<mgrwt>
<rscale>  1 0.12777375E+03</rscale>
<asrwt>0</asrwt>
<pdfrwt beam="1">  1       21 0.33223877E-02 0.12777375E+03</pdfrwt>
<pdfrwt beam="2">  1        4 0.46760180E-01 0.12777375E+03</pdfrwt>
<totfact> 0.94644152E+04</totfact>
</mgrwt>
</event>
<event>
 6    4  0.3189516E-003  0.1269520E+03  0.7818608E-02  0.1232050E+00
         21   -1    0    0  501  502  0.00000000000E+00  0.00000000000E+00  0.60365297747E+03  0.60365297747E+03  0.00000000000E+00 0.  1.
         -4   -1    0    0    0  501 -0.00000000000E+00 -0.00000000000E+00 -0.12274359156E+02  0.12339886251E+02  0.12700000000E+01 0.  1.
         25    2    1    2    0    0 -0.13908063550E+02 -0.17274563064E+02  0.57376874372E+03  0.58764563557E+03  0.12499990788E+03 0.  0.
    9000005    1    3    3    0    0  0.34915079834E+02 -0.49856785510E+02  0.19285033585E+03  0.20223010136E+03  0.10000000000E+01 0.  0.
    9000005    1    3    3    0    0 -0.48823143384E+02  0.32582222445E+02  0.38091840787E+03  0.38541553420E+03  0.10000000000E+01 0.  0.
         -4    1    1    2    0  502  0.13908063550E+02  0.17274563064E+02  0.17609874595E+02  0.28347228154E+02  0.12700000000E+01 0. -1.
<mgrwt>
<rscale>  1 0.12695205E+03</rscale>
<asrwt>0</asrwt>
<pdfrwt beam="1">  1       21 0.92869666E-01 0.12695205E+03</pdfrwt>
<pdfrwt beam="2">  1       -4 0.18935067E-02 0.12695205E+03</pdfrwt>
<totfact> 0.44029218E+04</totfact>
</mgrwt>
</event>
<event>
 6    4  0.3189516E-003  0.1289295E+03  0.7818608E-02  0.1229053E+00
         21   -1    0    0  501  502  0.00000000000E+00  0.00000000000E+00  0.12927736536E+03  0.12927736536E+03  0.00000000000E+00 0. -1.
         -4   -1    0    0    0  501 -0.00000000000E+00 -0.00000000000E+00 -0.46892846344E+03  0.46893018321E+03  0.12700000000E+01 0.  1.
         25    2    1    2    0    0  0.20349566666E+02 -0.24117118274E+02 -0.45795657094E+03  0.47575944500E+03  0.12500835325E+03 0.  0.
    9000005    1    3    3    0    0 -0.25251898552E+02 -0.54838551019E+02 -0.13146156187E+03  0.14466536319E+03  0.10000000000E+01 0.  0.
    9000005    1    3    3    0    0  0.45601465218E+02  0.30721432744E+02 -0.32649500907E+03  0.33109408181E+03  0.10000000000E+01 0.  0.
         -4    1    1    2    0  502 -0.20349566666E+02  0.24117118274E+02  0.11830547286E+03  0.12244810357E+03  0.12700000000E+01 0. -1.
<mgrwt>
<rscale>  1 0.12892955E+03</rscale>
<asrwt>0</asrwt>
<pdfrwt beam="1">  1       21 0.19888826E-01 0.12892955E+03</pdfrwt>
<pdfrwt beam="2">  1       -4 0.72143452E-01 0.12892955E+03</pdfrwt>
<totfact> 0.17251320E+03</totfact>
</mgrwt>
</event>
<event>
 6    4  0.3189516E-003  0.1266888E+03  0.7818608E-02  0.1232453E+00
          4   -1    0    0  502    0 -0.00000000000E+00  0.00000000000E+00  0.56611968455E+02  0.56626211884E+02  0.12700000000E+01 0. -1.
         21   -1    0    0  501  502  0.00000000000E+00 -0.00000000000E+00 -0.11513336695E+03  0.11513336695E+03  0.00000000000E+00 0. -1.
         25    2    1    2    0    0  0.19518831305E+02 -0.66475319850E+01 -0.20289624553E+02  0.12830321111E+03  0.12499948264E+03 0.  0.
    9000005    1    3    3    0    0  0.69899485697E+02 -0.23179987513E+02 -0.11182103605E+02  0.74493552492E+02  0.10000000000E+01 0.  0.
    9000005    1    3    3    0    0 -0.50380654393E+02  0.16532455528E+02 -0.91075209485E+01  0.53809658619E+02  0.10000000000E+01 0.  0.
          4    1    1    2  501    0 -0.19518831305E+02  0.66475319850E+01 -0.38231773940E+02  0.43456367722E+02  0.12700000000E+01 0.  1.
<mgrwt>
<rscale>  1 0.12668877E+03</rscale>
<asrwt>0</asrwt>
<pdfrwt beam="2">  1       21 0.17712826E-01 0.12668877E+03</pdfrwt>
<pdfrwt beam="1">  1        4 0.87111681E-02 0.12668877E+03</pdfrwt>
<totfact> 0.11062743E+05</totfact>
</mgrwt>
</event>
<event>
 6    4  0.3189516E-003  0.1289965E+03  0.7818608E-02  0.1228952E+00
         21   -1    0    0  501  502  0.00000000000E+00  0.00000000000E+00  0.18849060605E+03  0.18849060605E+03  0.00000000000E+00 0.  1.
         -4   -1    0    0    0  501 -0.00000000000E+00 -0.00000000000E+00 -0.60531369954E+02  0.60544691332E+02  0.12700000000E+01 0. -1.
         25    2    1    2    0    0 -0.28233712983E+02  0.14760768269E+02  0.12899992740E+02  0.12963988202E+03  0.12500026547E+03 0.  0.
    9000005    1    3    3    0    0  0.26113557574E+02  0.11946921624E+02 -0.42936288907E+02  0.51664027433E+02  0.10000000000E+01 0.  0.
    9000005    1    3    3    0    0 -0.54347270557E+02  0.28138466448E+01  0.55836281646E+02  0.77975854583E+02  0.10000000000E+01 0.  0.
         -4    1    1    2    0  502  0.28233712983E+02 -0.14760768269E+02  0.11505924336E+03  0.11939541537E+03  0.12700000000E+01 0.  1.
<mgrwt>
<rscale>  1 0.12899647E+03</rscale>
<asrwt>0</asrwt>
<pdfrwt beam="1">  1       21 0.28998554E-01 0.12899647E+03</pdfrwt>
<pdfrwt beam="2">  1       -4 0.93138724E-02 0.12899647E+03</pdfrwt>
<totfact> 0.39410908E+04</totfact>
</mgrwt>
</event>
<event>
 6    4  0.3189516E-003  0.1286361E+03  0.7818608E-02  0.1229494E+00
          4   -1    0    0  502    0 -0.00000000000E+00  0.00000000000E+00  0.46330829283E+02  0.46348232351E+02  0.12700000000E+01 0. -1.
         21   -1    0    0  501  502  0.00000000000E+00 -0.00000000000E+00 -0.14074163482E+03  0.14074163482E+03  0.00000000000E+00 0.  1.
         25    2    1    2    0    0  0.30142840594E+02  0.37528896660E+01 -0.62502404737E+02  0.14301681462E+03  0.12499833457E+03 0.  0.
    9000005    1    3    3    0    0  0.18360502156E+01  0.61144137944E+02 -0.14124076592E+02  0.62789061347E+02  0.10000000000E+01 0.  0.
    9000005    1    3    3    0    0  0.28306790378E+02 -0.57391248278E+02 -0.48378328145E+02  0.80227753269E+02  0.10000000000E+01 0.  0.
          4    1    1    2  501    0 -0.30142840594E+02 -0.37528896660E+01 -0.31908400803E+02  0.44073052557E+02  0.12700000000E+01 0.  1.
<mgrwt>
<rscale>  1 0.12863615E+03</rscale>
<asrwt>0</asrwt>
<pdfrwt beam="2">  1       21 0.21652559E-01 0.12863615E+03</pdfrwt>
<pdfrwt beam="1">  1        4 0.71295994E-02 0.12863615E+03</pdfrwt>
<totfact> 0.10658531E+05</totfact>
</mgrwt>
</event>
<event>
 6    4  0.3189516E-003  0.1363103E+03  0.7818608E-02  0.1218382E+00
         21   -1    0    0  501  502  0.00000000000E+00  0.00000000000E+00  0.13825206519E+03  0.13825206519E+03  0.00000000000E+00 0.  1.
         -4   -1    0    0    0  501 -0.00000000000E+00 -0.00000000000E+00 -0.65972855201E+02  0.65985078036E+02  0.12700000000E+01 0.  1.
         25    2    1    2    0    0 -0.44031664748E+02  0.31900019233E+02  0.46260329861E+02  0.14394623387E+03  0.12499640554E+03 0.  0.
    9000005    1    3    3    0    0  0.29258039203E+02  0.41383986767E+02 -0.92308296274E+01  0.51525483349E+02  0.10000000000E+01 0.  0.
    9000005    1    3    3    0    0 -0.73289703951E+02 -0.94839675334E+01  0.55491159489E+02  0.92420750521E+02  0.10000000000E+01 0.  0.
         -4    1    1    2    0  502  0.44031664748E+02 -0.31900019233E+02  0.26018880123E+02  0.60290909351E+02  0.12700000000E+01 0. -1.
<mgrwt>
<rscale>  1 0.13631031E+03</rscale>
<asrwt>0</asrwt>
<pdfrwt beam="1">  1       21 0.21269548E-01 0.13631031E+03</pdfrwt>
<pdfrwt beam="2">  1       -4 0.10151059E-01 0.13631031E+03</pdfrwt>
<totfact> 0.61669963E+04</totfact>
</mgrwt>
</event>
<event>
 6    4  0.3189516E-003  0.1506481E+03  0.7818608E-02  0.1199679E+00
          4   -1    0    0  502    0 -0.00000000000E+00  0.00000000000E+00  0.10475269335E+03  0.10476039167E+03  0.12700000000E+01 0.  1.
         21   -1    0    0  501  502  0.00000000000E+00 -0.00000000000E+00 -0.25420535686E+03  0.25420535686E+03  0.00000000000E+00 0. -1.
         25    2    1    2    0    0  0.81583961216E+02  0.20333454586E+02  0.36392844136E+02  0.15498153905E+03  0.12500178495E+03 0.  0.
    9000005    1    3    3    0    0  0.80692841989E+02 -0.87822959806E+01  0.72320115983E+02  0.10871827191E+03  0.10000000000E+01 0.  0.
    9000005    1    3    3    0    0  0.89111922688E+00  0.29115750566E+02 -0.35927271847E+02  0.46263267144E+02  0.10000000000E+01 0.  0.
          4    1    1    2  501    0 -0.81583961216E+02 -0.20333454586E+02 -0.18584550765E+03  0.20398420948E+03  0.12700000000E+01 0. -1.
<mgrwt>
<rscale>  1 0.15064806E+03</rscale>
<asrwt>0</asrwt>
<pdfrwt beam="2">  1       21 0.39108516E-01 0.15064806E+03</pdfrwt>
<pdfrwt beam="1">  1        4 0.16116635E-01 0.15064806E+03</pdfrwt>
<totfact> 0.86782611E+03</totfact>
</mgrwt>
</event>
<event>
 6    4  0.3189516E-003  0.1295628E+03  0.7818608E-02  0.1228106E+00
         -4   -1    0    0    0  501 -0.00000000000E+00  0.00000000000E+00  0.28352030563E+03  0.28352315004E+03  0.12700000000E+01 0.  1.
         21   -1    0    0  501  502  0.00000000000E+00 -0.00000000000E+00 -0.11524705151E+03  0.11524705151E+03  0.00000000000E+00 0. -1.
         25    2    1    2    0    0 -0.53243112849E+01 -0.33668255805E+02  0.26566669592E+03  0.29557623299E+03  0.12499846578E+03 0.  0.
    9000005    1    3    3    0    0  0.46800833670E+02 -0.42239843658E+02  0.76319985643E+02  0.98996275854E+02  0.10000000000E+01 0.  0.
    9000005    1    3    3    0    0 -0.52125144955E+02  0.85715878539E+01  0.18934671028E+03  0.19657995714E+03  0.10000000000E+01 0.  0.
         -4    1    1    2    0  502  0.53243112849E+01  0.33668255805E+02 -0.97393441799E+02  0.10319396855E+03  0.12700000000E+01 0. -1.
<mgrwt>
<rscale>  1 0.12956279E+03</rscale>
<asrwt>0</asrwt>
<pdfrwt beam="2">  1       21 0.17730316E-01 0.12956279E+03</pdfrwt>
<pdfrwt beam="1">  1       -4 0.43619266E-01 0.12956279E+03</pdfrwt>
<totfact> 0.60566639E+03</totfact>
</mgrwt>
</event>
<event>
 6    4  0.3189516E-003  0.1283221E+03  0.7818608E-02  0.1229967E+00
         -4   -1    0    0    0  501 -0.00000000000E+00  0.00000000000E+00  0.82249756407E+02  0.82259560714E+02  0.12700000000E+01 0.  1.
         21   -1    0    0  501  502  0.00000000000E+00 -0.00000000000E+00 -0.76796100211E+02  0.76796100211E+02  0.00000000000E+00 0.  1.
         25    2    1    2    0    0  0.27583633541E+02  0.90373805815E+01  0.13164677863E+02  0.12899565690E+03  0.12499615861E+03 0.  0.
    9000005    1    3    3    0    0 -0.43990525202E+02  0.25493907452E+02 -0.10307390257E+02  0.51887839795E+02  0.10000000000E+01 0.  0.
    9000005    1    3    3    0    0  0.71574158743E+02 -0.16456526870E+02  0.23472068119E+02  0.77107817101E+02  0.10000000000E+01 0.  0.
         -4    1    1    2    0  502 -0.27583633541E+02 -0.90373805815E+01 -0.77110216672E+01  0.30060004029E+02  0.12700000000E+01 0. -1.
<mgrwt>
<rscale>  1 0.12832214E+03</rscale>
<asrwt>0</asrwt>
<pdfrwt beam="2">  1       21 0.11814785E-01 0.12832214E+03</pdfrwt>
<pdfrwt beam="1">  1       -4 0.12655371E-01 0.12832214E+03</pdfrwt>
<totfact> 0.12208957E+05</totfact>
</mgrwt>
</event>
<event>
 6    4  0.3189516E-003  0.1320809E+03  0.7818608E-02  0.1224400E+00
         21   -1    0    0  501  502  0.00000000000E+00  0.00000000000E+00  0.24830519809E+02  0.24830519809E+02  0.00000000000E+00 0.  1.
         -4   -1    0    0    0  501 -0.00000000000E+00 -0.00000000000E+00 -0.33524585163E+03  0.33524825717E+03  0.12700000000E+01 0.  1.
         25    2    1    2    0    0 -0.28833334157E+02 -0.31434796315E+02 -0.18285079904E+03  0.22556546722E+03  0.12500343081E+03 0.  0.
    9000005    1    3    3    0    0 -0.55472115239E+02 -0.67289900590E+02 -0.11511449240E+03  0.14442102566E+03  0.10000000000E+01 0.  0.
    9000005    1    3    3    0    0  0.26638781082E+02  0.35855104275E+02 -0.67736306634E+02  0.81144441562E+02  0.10000000000E+01 0.  0.
         -4    1    1    2    0  502  0.28833334157E+02  0.31434796315E+02 -0.12756453278E+03  0.13451330975E+03  0.12700000000E+01 0. -1.
<mgrwt>
<rscale>  1 0.13208090E+03</rscale>
<asrwt>0</asrwt>
<pdfrwt beam="1">  1       21 0.38200803E-02 0.13208090E+03</pdfrwt>
<pdfrwt beam="2">  1       -4 0.51578964E-01 0.13208090E+03</pdfrwt>
<totfact> 0.61877233E+04</totfact>
</mgrwt>
</event>
<event>
 6    4  0.3189516E-003  0.1289415E+03  0.7818608E-02  0.1229035E+00
         21   -1    0    0  501  502  0.00000000000E+00  0.00000000000E+00  0.15452574370E+03  0.15452574370E+03  0.00000000000E+00 0. -1.
         -4   -1    0    0    0  501 -0.00000000000E+00 -0.00000000000E+00 -0.72219976069E+02  0.72231141784E+02  0.12700000000E+01 0. -1.
         25    2    1    2    0    0 -0.24046982844E+02 -0.20559313648E+02 -0.98462332653E+01  0.12931691971E+03  0.12499989860E+03 0.  0.
    9000005    1    3    3    0    0 -0.54889430432E+02 -0.58373869469E+02 -0.62737858056E+01  0.80378595399E+02  0.10000000000E+01 0.  0.
    9000005    1    3    3    0    0  0.30842447588E+02  0.37814555821E+02 -0.35724474597E+01  0.48938324307E+02  0.10000000000E+01 0.  0.
         -4    1    1    2    0  502  0.24046982844E+02  0.20559313648E+02  0.92152000900E+02  0.97439965781E+02  0.12700000000E+01 0.  1.
<mgrwt>
<rscale>  1 0.12894153E+03</rscale>
<asrwt>0</asrwt>
<pdfrwt beam="1">  1       21 0.23773191E-01 0.12894153E+03</pdfrwt>
<pdfrwt beam="2">  1       -4 0.11112026E-01 0.12894153E+03</pdfrwt>
<totfact> 0.42690846E+04</totfact>
</mgrwt>
</event>
<event>
 6    4  0.3189516E-003  0.1367259E+03  0.7818608E-02  0.1217804E+00
          4   -1    0    0  502    0 -0.00000000000E+00  0.00000000000E+00  0.87759436174E+03  0.87759528067E+03  0.12700000000E+01 0.  1.
         21   -1    0    0  501  502  0.00000000000E+00 -0.00000000000E+00 -0.12622150025E+02  0.12622150025E+02  0.00000000000E+00 0.  1.
         25    2    1    2    0    0 -0.29215241002E+02 -0.47066071933E+02  0.41727214278E+03  0.43910135909E+03  0.12500086793E+03 0.  0.
    9000005    1    3    3    0    0 -0.21439504356E+02  0.16868065081E+02  0.13927305464E+02  0.30645616393E+02  0.10000000000E+01 0.  0.
    9000005    1    3    3    0    0 -0.77757366462E+01 -0.63934137015E+02  0.40334483732E+03  0.40845574270E+03  0.10000000000E+01 0.  0.
          4    1    1    2  501    0  0.29215241002E+02  0.47066071933E+02  0.44770006893E+03  0.45111607160E+03  0.12700000000E+01 0. -1.
<mgrwt>
<rscale>  1 0.13672587E+03</rscale>
<asrwt>0</asrwt>
<pdfrwt beam="2">  1       21 0.19418699E-02 0.13672587E+03</pdfrwt>
<pdfrwt beam="1">  1        4 0.13501945E+00 0.13672587E+03</pdfrwt>
<totfact> 0.21804472E+04</totfact>
</mgrwt>
</event>
<event>
 6    4  0.3189516E-003  0.1400346E+03  0.7818608E-02  0.1213282E+00
          4   -1    0    0  502    0 -0.00000000000E+00  0.00000000000E+00  0.48945809540E+03  0.48945974304E+03  0.12700000000E+01 0.  1.
         21   -1    0    0  501  502  0.00000000000E+00 -0.00000000000E+00 -0.65028564376E+02  0.65028564376E+02  0.00000000000E+00 0. -1.
         25    2    1    2    0    0 -0.56471859436E+02 -0.28208120122E+02  0.46081101650E+03  0.48161859948E+03  0.12499965393E+03 0.  0.
    9000005    1    3    3    0    0 -0.36650525717E+02  0.45958282399E+02  0.14191889223E+03  0.15361444180E+03  0.10000000000E+01 0.  0.
    9000005    1    3    3    0    0 -0.19821333719E+02 -0.74166402521E+02  0.31889212427E+03  0.32800415768E+03  0.10000000000E+01 0.  0.
          4    1    1    2  501    0  0.56471859436E+02  0.28208120122E+02 -0.36381485478E+02  0.72869707936E+02  0.12700000000E+01 0. -1.
<mgrwt>
<rscale>  1 0.14003458E+03</rscale>
<asrwt>0</asrwt>
<pdfrwt beam="2">  1       21 0.10004395E-01 0.14003458E+03</pdfrwt>
<pdfrwt beam="1">  1        4 0.75302324E-01 0.14003458E+03</pdfrwt>
<totfact> 0.54293911E+03</totfact>
</mgrwt>
</event>
<event>
 6    4  0.3189516E-003  0.1295517E+03  0.7818608E-02  0.1228122E+00
         21   -1    0    0  501  502  0.00000000000E+00  0.00000000000E+00  0.17237251096E+02  0.17237251096E+02  0.00000000000E+00 0.  1.
         -4   -1    0    0    0  501 -0.00000000000E+00 -0.00000000000E+00 -0.51163211884E+03  0.51163369507E+03  0.12700000000E+01 0.  1.
         25    2    1    2    0    0  0.92190798025E+01 -0.32849389090E+02 -0.46832550723E+03  0.48591401129E+03  0.12497828552E+03 0.  0.
    9000005    1    3    3    0    0 -0.62421725096E+01 -0.60765545693E+02 -0.43677681862E+03  0.44102880354E+03  0.10000000000E+01 0.  0.
    9000005    1    3    3    0    0  0.15461252312E+02  0.27916156603E+02 -0.31548688609E+02  0.44885207758E+02  0.10000000000E+01 0.  0.
         -4    1    1    2    0  502 -0.92190798025E+01  0.32849389090E+02 -0.26069360512E+02  0.42956934871E+02  0.12700000000E+01 0. -1.
<mgrwt>
<rscale>  1 0.12955171E+03</rscale>
<asrwt>0</asrwt>
<pdfrwt beam="1">  1       21 0.26518848E-02 0.12955171E+03</pdfrwt>
<pdfrwt beam="2">  1       -4 0.78716355E-01 0.12955171E+03</pdfrwt>
<totfact> 0.45881305E+04</totfact>
</mgrwt>
</event>
<event>
 6    4  0.3189516E-003  0.1276401E+03  0.7818608E-02  0.1231000E+00
          4   -1    0    0  502    0 -0.00000000000E+00  0.00000000000E+00  0.39019957284E+02  0.39040619442E+02  0.12700000000E+01 0. -1.
         21   -1    0    0  501  502  0.00000000000E+00 -0.00000000000E+00 -0.22043468212E+03  0.22043468212E+03  0.00000000000E+00 0.  1.
         25    2    1    2    0    0 -0.24527789418E+02  0.80501465844E+01 -0.70963864957E+02  0.14604063904E+03  0.12500232321E+03 0.  0.
    9000005    1    3    3    0    0  0.20959312514E+02  0.19443567953E+02 -0.90737364811E+02  0.95139973137E+02  0.10000000000E+01 0.  0.
    9000005    1    3    3    0    0 -0.45487101932E+02 -0.11393421369E+02  0.19773499854E+02  0.50900665901E+02  0.10000000000E+01 0.  0.
          4    1    1    2  501    0  0.24527789418E+02 -0.80501465844E+01 -0.11045085988E+03  0.11343466252E+03  0.12700000000E+01 0.  1.
<mgrwt>
<rscale>  1 0.12764011E+03</rscale>
<asrwt>0</asrwt>
<pdfrwt beam="2">  1       21 0.33913028E-01 0.12764011E+03</pdfrwt>
<pdfrwt beam="1">  1        4 0.60049411E-02 0.12764011E+03</pdfrwt>
<totfact> 0.59884111E+04</totfact>
</mgrwt>
</event>
<event>
 6    4  0.3189516E-003  0.1309021E+03  0.7818608E-02  0.1226123E+00
         21   -1    0    0  501  502  0.00000000000E+00  0.00000000000E+00  0.12386195836E+03  0.12386195836E+03  0.00000000000E+00 0. -1.
          4   -1    0    0  502    0 -0.00000000000E+00 -0.00000000000E+00 -0.81117508738E+02  0.81127449879E+02  0.12700000000E+01 0. -1.
         25    2    1    2    0    0  0.37971129422E+02 -0.82962237355E+01 -0.18742615626E+02  0.13223704683E+03  0.12499886766E+03 0.  0.
    9000005    1    3    3    0    0 -0.28227022882E+02  0.39533053949E+02 -0.69302267098E+00  0.48591228177E+02  0.10000000000E+01 0.  0.
    9000005    1    3    3    0    0  0.66198152303E+02 -0.47829277685E+02 -0.18049592955E+02  0.83645818652E+02  0.10000000000E+01 0.  0.
          4    1    1    2  501    0 -0.37971129422E+02  0.82962237355E+01  0.61487065247E+02  0.72752361408E+02  0.12700000000E+01 0.  1.
<mgrwt>
<rscale>  1 0.13090207E+03</rscale>
<asrwt>0</asrwt>
<pdfrwt beam="1">  1       21 0.19055686E-01 0.13090207E+03</pdfrwt>
<pdfrwt beam="2">  1        4 0.12480882E-01 0.13090207E+03</pdfrwt>
<totfact> 0.52937283E+04</totfact>
</mgrwt>
</event>
<event>
 6    4  0.3189516E-003  0.1269529E+03  0.7818608E-02  0.1232048E+00
         -4   -1    0    0    0  501 -0.00000000000E+00  0.00000000000E+00  0.10651131391E+03  0.10651888513E+03  0.12700000000E+01 0. -1.
         21   -1    0    0  501  502  0.00000000000E+00 -0.00000000000E+00 -0.11522413961E+03  0.11522413961E+03  0.00000000000E+00 0. -1.
         25    2    1    2    0    0 -0.20242790002E+02 -0.90526615313E+01  0.66502645646E+02  0.14331661811E+03  0.12500131967E+03 0.  0.
    9000005    1    3    3    0    0 -0.31315730590E+02 -0.63795133883E+02  0.38466506511E+02  0.80815630993E+02  0.10000000000E+01 0.  0.
    9000005    1    3    3    0    0  0.11072940588E+02  0.54742472352E+02  0.28036139136E+02  0.62500987113E+02  0.10000000000E+01 0.  0.
         -4    1    1    2    0  502  0.20242790002E+02  0.90526615313E+01 -0.75215471353E+02  0.78426406642E+02  0.12700000000E+01 0.  1.
<mgrwt>
<rscale>  1 0.12695295E+03</rscale>
<asrwt>0</asrwt>
<pdfrwt beam="2">  1       21 0.17726791E-01 0.12695295E+03</pdfrwt>
<pdfrwt beam="1">  1       -4 0.16387477E-01 0.12695295E+03</pdfrwt>
<totfact> 0.37529085E+04</totfact>
</mgrwt>
</event>
<event>
 6    4  0.3189516E-003  0.1279317E+03  0.7818608E-02  0.1230557E+00
         -4   -1    0    0    0  501 -0.00000000000E+00  0.00000000000E+00  0.18702374210E+03  0.18702805406E+03  0.12700000000E+01 0.  1.
         21   -1    0    0  501  502  0.00000000000E+00 -0.00000000000E+00 -0.82896207478E+02  0.82896207478E+02  0.00000000000E+00 0. -1.
         25    2    1    2    0    0  0.27065263606E+02 -0.31172726878E+01  0.16171808956E+03  0.20620196716E+03  0.12499705950E+03 0.  0.
    9000005    1    3    3    0    0 -0.35782777967E+02  0.15011340175E+02  0.86903212709E+01  0.39777747758E+02  0.10000000000E+01 0.  0.
    9000005    1    3    3    0    0  0.62848041574E+02 -0.18128612863E+02  0.15302776829E+03  0.16642421940E+03  0.10000000000E+01 0.  0.
         -4    1    1    2    0  502 -0.27065263606E+02  0.31172726878E+01 -0.57590554945E+02  0.63722294387E+02  0.12700000000E+01 0. -1.
<mgrwt>
<rscale>  1 0.12793166E+03</rscale>
<asrwt>0</asrwt>
<pdfrwt beam="2">  1       21 0.12753263E-01 0.12793166E+03</pdfrwt>
<pdfrwt beam="1">  1       -4 0.28773963E-01 0.12793166E+03</pdfrwt>
<totfact> 0.24483884E+04</totfact>
</mgrwt>
</event>
<event>
 6    4  0.3189516E-003  0.1305005E+03  0.7818608E-02  0.1226715E+00
         21   -1    0    0  501  502  0.00000000000E+00  0.00000000000E+00  0.49069482026E+02  0.49069482026E+02  0.00000000000E+00 0.  1.
         -4   -1    0    0    0  501 -0.00000000000E+00 -0.00000000000E+00 -0.21359704102E+03  0.21360081655E+03  0.12700000000E+01 0.  1.
         25    2    1    2    0    0 -0.31419538539E+02  0.20438309317E+02 -0.17980729559E+03  0.22217344511E+03  0.12500185709E+03 0.  0.
    9000005    1    3    3    0    0 -0.74812437137E+02 -0.44529487997E+01 -0.74982164543E+02  0.10601912329E+03  0.10000000000E+01 0.  0.
    9000005    1    3    3    0    0  0.43392898598E+02  0.24891258117E+02 -0.10482513105E+03  0.11615432183E+03  0.10000000000E+01 0.  0.
         -4    1    1    2    0  502  0.31419538539E+02 -0.20438309317E+02  0.15279736601E+02  0.40496853462E+02  0.12700000000E+01 0. -1.
<mgrwt>
<rscale>  1 0.13050048E+03</rscale>
<asrwt>0</asrwt>
<pdfrwt beam="1">  1       21 0.75491511E-02 0.13050048E+03</pdfrwt>
<pdfrwt beam="2">  1       -4 0.32862638E-01 0.13050048E+03</pdfrwt>
<totfact> 0.47708305E+04</totfact>
</mgrwt>
</event>
<event>
 6    4  0.3189516E-003  0.1295173E+03  0.7818608E-02  0.1228174E+00
         21   -1    0    0  501  502  0.00000000000E+00  0.00000000000E+00  0.11933104335E+02  0.11933104335E+02  0.00000000000E+00 0.  1.
          4   -1    0    0  502    0 -0.00000000000E+00 -0.00000000000E+00 -0.79188787150E+03  0.79188888989E+03  0.12700000000E+01 0.  1.
         25    2    1    2    0    0  0.29996463456E+02  0.15819104011E+02 -0.74067195748E+03  0.75191068613E+03  0.12499879778E+03 0.  0.
    9000005    1    3    3    0    0  0.75832727923E+02 -0.50368689370E+01 -0.36117587466E+03  0.36908669050E+03  0.10000000000E+01 0.  0.
    9000005    1    3    3    0    0 -0.45836264467E+02  0.20855972948E+02 -0.37949608282E+03  0.38282399562E+03  0.10000000000E+01 0.  0.
          4    1    1    2  501    0 -0.29996463456E+02 -0.15819104011E+02 -0.39282809688E+02  0.51911308099E+02  0.12700000000E+01 0. -1.
<mgrwt>
<rscale>  1 0.12951730E+03</rscale>
<asrwt>0</asrwt>
<pdfrwt beam="1">  1       21 0.18358614E-02 0.12951730E+03</pdfrwt>
<pdfrwt beam="2">  1        4 0.12183423E+00 0.12951730E+03</pdfrwt>
<totfact> 0.30482993E+04</totfact>
</mgrwt>
</event>
<event>
 6    4  0.3189516E-003  0.1272226E+03  0.7818608E-02  0.1231636E+00
         21   -1    0    0  501  502  0.00000000000E+00  0.00000000000E+00  0.12397109624E+02  0.12397109624E+02  0.00000000000E+00 0.  1.
         -4   -1    0    0    0  501 -0.00000000000E+00 -0.00000000000E+00 -0.46119407470E+03  0.46119582331E+03  0.12700000000E+01 0.  1.
         25    2    1    2    0    0  0.12261866518E+02  0.20556346996E+02 -0.38161347553E+03  0.40226165691E+03  0.12495070683E+03 0.  0.
    9000005    1    3    3    0    0  0.34198833203E+02  0.63283989114E+02 -0.15891167761E+03  0.17443722295E+03  0.10000000000E+01 0.  0.
    9000005    1    3    3    0    0 -0.21936966685E+02 -0.42727642119E+02 -0.22270179793E+03  0.22782443396E+03  0.10000000000E+01 0.  0.
         -4    1    1    2    0  502 -0.12261866518E+02 -0.20556346996E+02 -0.67183489542E+02  0.71331276025E+02  0.12700000000E+01 0. -1.
<mgrwt>
<rscale>  1 0.12722262E+03</rscale>
<asrwt>0</asrwt>
<pdfrwt beam="1">  1       21 0.19072474E-02 0.12722262E+03</pdfrwt>
<pdfrwt beam="2">  1       -4 0.70958080E-01 0.12722262E+03</pdfrwt>
<totfact> 0.97902516E+04</totfact>
</mgrwt>
</event>
<event>
 6    4  0.3189516E-003  0.1326368E+03  0.7818608E-02  0.1223595E+00
         21   -1    0    0  501  502  0.00000000000E+00  0.00000000000E+00  0.21002131945E+03  0.21002131945E+03  0.00000000000E+00 0.  1.
         -4   -1    0    0    0  501 -0.00000000000E+00 -0.00000000000E+00 -0.58042427748E+02  0.58056320232E+02  0.12700000000E+01 0. -1.
         25    2    1    2    0    0 -0.37745175179E+02 -0.23293195634E+02  0.26867388598E+02  0.13533061591E+03  0.12500099127E+03 0.  0.
    9000005    1    3    3    0    0 -0.71395916571E+01 -0.40978045171E+02  0.68846449753E+02  0.80442573298E+02  0.10000000000E+01 0.  0.
    9000005    1    3    3    0    0 -0.30605583522E+02  0.17684849537E+02 -0.41979061156E+02  0.54888042608E+02  0.10000000000E+01 0.  0.
         -4    1    1    2    0  502  0.37745175179E+02  0.23293195634E+02  0.12511150311E+03  0.13274702378E+03  0.12700000000E+01 0.  1.
<mgrwt>
<rscale>  1 0.13263679E+03</rscale>
<asrwt>0</asrwt>
<pdfrwt beam="1">  1       21 0.32310972E-01 0.13263679E+03</pdfrwt>
<pdfrwt beam="2">  1       -4 0.89309684E-02 0.13263679E+03</pdfrwt>
<totfact> 0.34401367E+04</totfact>
</mgrwt>
</event>
<event>
 6    4  0.3189516E-003  0.1268298E+03  0.7818608E-02  0.1232237E+00
          4   -1    0    0  502    0 -0.00000000000E+00  0.00000000000E+00  0.82256082872E+01  0.83230722509E+01  0.12700000000E+01 0.  1.
         21   -1    0    0  501  502  0.00000000000E+00 -0.00000000000E+00 -0.66891931326E+03  0.66891931326E+03  0.00000000000E+00 0. -1.
         25    2    1    2    0    0  0.46349193436E+01  0.20950830045E+02 -0.54437913215E+03  0.55895835232E+03  0.12500152140E+03 0.  0.
    9000005    1    3    3    0    0  0.62204362759E+02  0.25065618746E+02 -0.24222715934E+03  0.25134172895E+03  0.10000000000E+01 0.  0.
    9000005    1    3    3    0    0 -0.57569443415E+02 -0.41147887015E+01 -0.30215197281E+03  0.30761662337E+03  0.10000000000E+01 0.  0.
          4    1    1    2  501    0 -0.46349193436E+01 -0.20950830045E+02 -0.11631457282E+03  0.11828403319E+03  0.12700000000E+01 0. -1.
<mgrwt>
<rscale>  1 0.12682981E+03</rscale>
<asrwt>0</asrwt>
<pdfrwt beam="2">  1       21 0.10291066E+00 0.12682981E+03</pdfrwt>
<pdfrwt beam="1">  1        4 0.12730682E-02 0.12682981E+03</pdfrwt>
<totfact> 0.63497651E+04</totfact>
</mgrwt>
</event>
<event>
 6    4  0.3189516E-003  0.1272566E+03  0.7818608E-02  0.1231584E+00
         21   -1    0    0  501  502  0.00000000000E+00  0.00000000000E+00  0.14722643932E+03  0.14722643932E+03  0.00000000000E+00 0.  1.
          4   -1    0    0  502    0 -0.00000000000E+00 -0.00000000000E+00 -0.84277998958E+02  0.84287567341E+02  0.12700000000E+01 0. -1.
         25    2    1    2    0    0 -0.21333439090E+02 -0.10684451669E+02 -0.33954739732E+02  0.13170863434E+03  0.12499986752E+03 0.  0.
    9000005    1    3    3    0    0  0.21080389566E+02 -0.51446665851E+02  0.12201199788E+02  0.56929882555E+02  0.10000000000E+01 0.  0.
    9000005    1    3    3    0    0 -0.42413828656E+02  0.40762214182E+02 -0.46155939520E+02  0.74778751790E+02  0.10000000000E+01 0.  0.
          4    1    1    2  501    0  0.21333439090E+02  0.10684451669E+02  0.96903180099E+02  0.99805372321E+02  0.12700000000E+01 0.  1.
<mgrwt>
<rscale>  1 0.12725659E+03</rscale>
<asrwt>0</asrwt>
<pdfrwt beam="1">  1       21 0.22650221E-01 0.12725659E+03</pdfrwt>
<pdfrwt beam="2">  1        4 0.12967003E-01 0.12725659E+03</pdfrwt>
<totfact> 0.35853914E+04</totfact>
</mgrwt>
</event>
<event>
 6    4  0.3189516E-003  0.1291198E+03  0.7818608E-02  0.1228768E+00
         -4   -1    0    0    0  501 -0.00000000000E+00  0.00000000000E+00  0.59445711443E+02  0.59459276055E+02  0.12700000000E+01 0.  1.
         21   -1    0    0  501  502  0.00000000000E+00 -0.00000000000E+00 -0.11367173438E+03  0.11367173438E+03  0.00000000000E+00 0.  1.
         25    2    1    2    0    0 -0.18865435579E+02  0.26285239384E+02 -0.55916462759E+02  0.14070742403E+03  0.12500043960E+03 0.  0.
    9000005    1    3    3    0    0 -0.59638143942E+02 -0.21499778698E+02 -0.42890028576E+02  0.76547392171E+02  0.10000000000E+01 0.  0.
    9000005    1    3    3    0    0  0.40772708363E+02  0.47785018082E+02 -0.13026434184E+02  0.64160031857E+02  0.10000000000E+01 0.  0.
         -4    1    1    2    0  502  0.18865435579E+02 -0.26285239384E+02  0.16904398176E+01  0.32423586412E+02  0.12700000000E+01 0. -1.
<mgrwt>
<rscale>  1 0.12911982E+03</rscale>
<asrwt>0</asrwt>
<pdfrwt beam="2">  1       21 0.17487959E-01 0.12911982E+03</pdfrwt>
<pdfrwt beam="1">  1       -4 0.91470832E-02 0.12911982E+03</pdfrwt>
<totfact> 0.10465979E+05</totfact>
</mgrwt>
</event>
<event>
 6    4  0.3189516E-003  0.1317342E+03  0.7818608E-02  0.1224905E+00
         -4   -1    0    0    0  501 -0.00000000000E+00  0.00000000000E+00  0.17571162171E+03  0.17571621127E+03  0.12700000000E+01 0. -1.
         21   -1    0    0  501  502  0.00000000000E+00 -0.00000000000E+00 -0.11151668678E+03  0.11151668678E+03  0.00000000000E+00 0. -1.
         25    2    1    2    0    0  0.27517754664E+02  0.31165645637E+02  0.14527319214E+03  0.19610759431E+03  0.12500145559E+03 0.  0.
    9000005    1    3    3    0    0  0.69504603280E+02 -0.97435461618E+01  0.58443508053E+02  0.91337123901E+02  0.10000000000E+01 0.  0.
    9000005    1    3    3    0    0 -0.41986848616E+02  0.40909191799E+02  0.86829684089E+02  0.10477047041E+03  0.10000000000E+01 0.  0.
         -4    1    1    2    0  502 -0.27517754664E+02 -0.31165645637E+02 -0.81078257217E+02  0.91125303748E+02  0.12700000000E+01 0.  1.
<mgrwt>
<rscale>  1 0.13173416E+03</rscale>
<asrwt>0</asrwt>
<pdfrwt beam="2">  1       21 0.17156413E-01 0.13173416E+03</pdfrwt>
<pdfrwt beam="1">  1       -4 0.27033467E-01 0.13173416E+03</pdfrwt>
<totfact> 0.16176608E+04</totfact>
</mgrwt>
</event>
<event>
 6    4  0.3189516E-003  0.1292203E+03  0.7818608E-02  0.1228617E+00
         -4   -1    0    0    0  501 -0.00000000000E+00  0.00000000000E+00  0.13214303234E+04  0.13214309337E+04  0.12700000000E+01 0. -1.
         21   -1    0    0  501  502  0.00000000000E+00 -0.00000000000E+00 -0.81111060626E+01  0.81111060626E+01  0.00000000000E+00 0. -1.
         25    2    1    2    0    0 -0.32754641316E+02 -0.45744843767E+00  0.12623102938E+04  0.12689070749E+04  0.12499924404E+03 0.  0.
    9000005    1    3    3    0    0  0.38159416082E+02 -0.32136710918E+02  0.39861926730E+03  0.40173029446E+03  0.10000000000E+01 0.  0.
    9000005    1    3    3    0    0 -0.70914057398E+02  0.31679262480E+02  0.86369102649E+03  0.86717678039E+03  0.10000000000E+01 0.  0.
         -4    1    1    2    0  502  0.32754641316E+02  0.45744843767E+00  0.51008923552E+02  0.60634964903E+02  0.12700000000E+01 0.  1.
<mgrwt>
<rscale>  1 0.12922030E+03</rscale>
<asrwt>0</asrwt>
<pdfrwt beam="2">  1       21 0.12478635E-02 0.12922030E+03</pdfrwt>
<pdfrwt beam="1">  1       -4 0.20330450E+00 0.12922030E+03</pdfrwt>
<totfact> 0.14887183E+04</totfact>
</mgrwt>
</event>
<event>
 6    4  0.3189516E-003  0.1453893E+03  0.7818608E-02  0.1206256E+00
          4   -1    0    0  502    0 -0.00000000000E+00  0.00000000000E+00  0.39879372021E+02  0.39899589131E+02  0.12700000000E+01 0. -1.
         21   -1    0    0  501  502  0.00000000000E+00 -0.00000000000E+00 -0.53719903734E+03  0.53719903734E+03  0.00000000000E+00 0.  1.
         25    2    1    2    0    0  0.21901986149E+02 -0.70928318195E+02 -0.10891157099E+03  0.18165838577E+03  0.12501006163E+03 0.  0.
    9000005    1    3    3    0    0  0.65858338993E+02 -0.76602917597E+02 -0.77399000399E+02  0.12726717197E+03  0.10000000000E+01 0.  0.
    9000005    1    3    3    0    0 -0.43956352844E+02  0.56745994027E+01 -0.31512570588E+02  0.54391213802E+02  0.10000000000E+01 0.  0.
          4    1    1    2  501    0 -0.21901986149E+02  0.70928318195E+02 -0.38840809433E+03  0.39544024069E+03  0.12700000000E+01 0.  1.
<mgrwt>
<rscale>  1 0.14538927E+03</rscale>
<asrwt>0</asrwt>
<pdfrwt beam="2">  1       21 0.82646001E-01 0.14538927E+03</pdfrwt>
<pdfrwt beam="1">  1        4 0.61369590E-02 0.14538927E+03</pdfrwt>
<totfact> 0.90747752E+03</totfact>
</mgrwt>
</event>
<event>
 6    4  0.3189516E-003  0.1283379E+03  0.7818608E-02  0.1229943E+00
         21   -1    0    0  501  502  0.00000000000E+00  0.00000000000E+00  0.86131502166E+02  0.86131502166E+02  0.00000000000E+00 0. -1.
          4   -1    0    0  502    0 -0.00000000000E+00 -0.00000000000E+00 -0.10597062216E+03  0.10597823202E+03  0.12700000000E+01 0.  1.
         25    2    1    2    0    0 -0.12786921162E+02 -0.26106618625E+02 -0.60682657764E+02  0.14196127094E+03  0.12500222640E+03 0.  0.
    9000005    1    3    3    0    0  0.56177228048E+02 -0.16994071172E+02 -0.25483800617E+02  0.63992995711E+02  0.10000000000E+01 0.  0.
    9000005    1    3    3    0    0 -0.68964149210E+02 -0.91125474529E+01 -0.35198857147E+02  0.77968275226E+02  0.10000000000E+01 0.  0.
          4    1    1    2  501    0  0.12786921162E+02  0.26106618625E+02  0.40843537767E+02  0.50148463248E+02  0.12700000000E+01 0. -1.
<mgrwt>
<rscale>  1 0.12833790E+03</rscale>
<asrwt>0</asrwt>
<pdfrwt beam="1">  1       21 0.13251000E-01 0.12833790E+03</pdfrwt>
<pdfrwt beam="2">  1        4 0.16304478E-01 0.12833790E+03</pdfrwt>
<totfact> 0.64125413E+04</totfact>
</mgrwt>
</event>
<event>
 6    4  0.3189516E-003  0.1280574E+03  0.7818608E-02  0.1230367E+00
         -4   -1    0    0    0  501 -0.00000000000E+00  0.00000000000E+00  0.27818261851E+03  0.27818551749E+03  0.12700000000E+01 0.  1.
         21   -1    0    0  501  502  0.00000000000E+00 -0.00000000000E+00 -0.27933222557E+02  0.27933222557E+02  0.00000000000E+00 0.  1.
         25    2    1    2    0    0 -0.24795820454E+02  0.12573944709E+02  0.12919628322E+03  0.18190760609E+03  0.12500304299E+03 0.  0.
    9000005    1    3    3    0    0 -0.15190961385E+02 -0.56327008800E+02  0.63099427516E+02  0.85942044315E+02  0.10000000000E+01 0.  0.
    9000005    1    3    3    0    0 -0.96048590685E+01  0.68900953509E+02  0.66096855704E+02  0.95965561772E+02  0.10000000000E+01 0.  0.
         -4    1    1    2    0  502  0.24795820454E+02 -0.12573944709E+02  0.12105311273E+03  0.12421113396E+03  0.12700000000E+01 0. -1.
<mgrwt>
<rscale>  1 0.12805740E+03</rscale>
<asrwt>0</asrwt>
<pdfrwt beam="2">  1       21 0.42974190E-02 0.12805740E+03</pdfrwt>
<pdfrwt beam="1">  1       -4 0.42799768E-01 0.12805740E+03</pdfrwt>
<totfact> 0.73780371E+04</totfact>
</mgrwt>
</event>
<event>
 6    4  0.3189516E-003  0.1271071E+03  0.7818608E-02  0.1231813E+00
          4   -1    0    0  502    0 -0.00000000000E+00  0.00000000000E+00  0.26470147135E+02  0.26500596019E+02  0.12700000000E+01 0. -1.
         21   -1    0    0  501  502  0.00000000000E+00 -0.00000000000E+00 -0.50186682880E+03  0.50186682880E+03  0.00000000000E+00 0.  1.
         25    2    1    2    0    0 -0.15077114597E+02 -0.17439438571E+02 -0.12864279020E+03  0.18084573118E+03  0.12499903045E+03 0.  0.
    9000005    1    3    3    0    0  0.20032045157E+02 -0.51959309209E+02 -0.11796803072E+03  0.13045500726E+03  0.10000000000E+01 0.  0.
    9000005    1    3    3    0    0 -0.35109159754E+02  0.34519870637E+02 -0.10674759477E+02  0.50390723922E+02  0.10000000000E+01 0.  0.
          4    1    1    2  501    0  0.15077114597E+02  0.17439438571E+02 -0.34675389147E+03  0.34752169364E+03  0.12700000000E+01 0.  1.
<mgrwt>
<rscale>  1 0.12710708E+03</rscale>
<asrwt>0</asrwt>
<pdfrwt beam="2">  1       21 0.77210283E-01 0.12710708E+03</pdfrwt>
<pdfrwt beam="1">  1        4 0.40747961E-02 0.12710708E+03</pdfrwt>
<totfact> 0.20218212E+04</totfact>
</mgrwt>
</event>
<event>
 6    4  0.3189516E-003  0.1292300E+03  0.7818608E-02  0.1228603E+00
         21   -1    0    0  501  502  0.00000000000E+00  0.00000000000E+00  0.25412386177E+03  0.25412386177E+03  0.00000000000E+00 0. -1.
         -4   -1    0    0    0  501 -0.00000000000E+00 -0.00000000000E+00 -0.30829633126E+02  0.30855780312E+02  0.12700000000E+01 0.  1.
         25    2    1    2    0    0 -0.32736398743E+02 -0.16548664982E+01  0.11909284445E+03  0.17573701417E+03  0.12500392859E+03 0.  0.
    9000005    1    3    3    0    0 -0.19310481680E+02 -0.46422553788E+02  0.27619276736E+01  0.50364436335E+02  0.10000000000E+01 0.  0.
    9000005    1    3    3    0    0 -0.13425917063E+02  0.44767687290E+02  0.11633091678E+03  0.12537257783E+03  0.10000000000E+01 0.  0.
         -4    1    1    2    0  502  0.32736398743E+02  0.16548664982E+01  0.10420138420E+03  0.10924262792E+03  0.12700000000E+01 0. -1.
<mgrwt>
<rscale>  1 0.12923000E+03</rscale>
<asrwt>0</asrwt>
<pdfrwt beam="1">  1       21 0.39095977E-01 0.12923000E+03</pdfrwt>
<pdfrwt beam="2">  1       -4 0.47452761E-02 0.12923000E+03</pdfrwt>
<totfact> 0.66200012E+04</totfact>
</mgrwt>
</event>
<event>
 6    4  0.3189516E-003  0.1288953E+03  0.7818608E-02  0.1229104E+00
         21   -1    0    0  501  502  0.00000000000E+00  0.00000000000E+00  0.13925521451E+02  0.13925521451E+02  0.00000000000E+00 0. -1.
          4   -1    0    0  502    0 -0.00000000000E+00 -0.00000000000E+00 -0.10337921554E+04  0.10337929355E+04  0.12700000000E+01 0.  1.
         25    2    1    2    0    0  0.28619340828E+02 -0.13028209880E+02 -0.10044281845E+04  0.10126647903E+04  0.12500079534E+03 0.  0.
    9000005    1    3    3    0    0  0.26629105681E+02  0.33538337559E+02 -0.12760251284E+03  0.13460063388E+03  0.10000000000E+01 0.  0.
    9000005    1    3    3    0    0  0.19902351465E+01 -0.46566547439E+02 -0.87682567166E+03  0.87806415646E+03  0.10000000000E+01 0.  0.
          4    1    1    2  501    0 -0.28619340828E+02  0.13028209880E+02 -0.15438449466E+02  0.35053666627E+02  0.12700000000E+01 0. -1.
<mgrwt>
<rscale>  1 0.12889531E+03</rscale>
<asrwt>0</asrwt>
<pdfrwt beam="1">  1       21 0.21423877E-02 0.12889531E+03</pdfrwt>
<pdfrwt beam="2">  1        4 0.15904948E+00 0.12889531E+03</pdfrwt>
<totfact> 0.12218158E+04</totfact>
</mgrwt>
</event>
<event>
 6    4  0.3189516E-003  0.1284351E+03  0.7818608E-02  0.1229796E+00
         -4   -1    0    0    0  501 -0.00000000000E+00  0.00000000000E+00  0.56090600092E+02  0.56104975882E+02  0.12700000000E+01 0.  1.
         21   -1    0    0  501  502  0.00000000000E+00 -0.00000000000E+00 -0.11360902158E+03  0.11360902158E+03  0.00000000000E+00 0.  1.
         25    2    1    2    0    0 -0.94382370790E+01  0.27978671635E+02 -0.36742801464E+02  0.13358747434E+03  0.12499477371E+03 0.  0.
    9000005    1    3    3    0    0 -0.54949355374E+02  0.53117850275E+02 -0.21992741036E+02  0.79533755929E+02  0.10000000000E+01 0.  0.
    9000005    1    3    3    0    0  0.45511118295E+02 -0.25139178639E+02 -0.14750060428E+02  0.54053718408E+02  0.10000000000E+01 0.  0.
         -4    1    1    2    0  502  0.94382370790E+01 -0.27978671635E+02 -0.20775620020E+02  0.36126523122E+02  0.12700000000E+01 0. -1.
<mgrwt>
<rscale>  1 0.12843512E+03</rscale>
<asrwt>0</asrwt>
<pdfrwt beam="2">  1       21 0.17478311E-01 0.12843512E+03</pdfrwt>
<pdfrwt beam="1">  1       -4 0.86309750E-02 0.12843512E+03</pdfrwt>
<totfact> 0.11533362E+05</totfact>
</mgrwt>
</event>
<event>
 6    4  0.3189516E-003  0.1280734E+03  0.7818608E-02  0.1230343E+00
         21   -1    0    0  501  502  0.00000000000E+00  0.00000000000E+00  0.13946338194E+02  0.13946338194E+02  0.00000000000E+00 0.  1.
          4   -1    0    0  502    0 -0.00000000000E+00 -0.00000000000E+00 -0.43646328265E+03  0.43646513034E+03  0.12700000000E+01 0.  1.
         25    2    1    2    0    0 -0.30389468841E+00  0.27877739928E+02 -0.35171378752E+03  0.37430653658E+03  0.12500213702E+03 0.  0.
    9000005    1    3    3    0    0  0.14329102975E+02  0.64359628142E+02 -0.31018309724E+03  0.31711518213E+03  0.10000000000E+01 0.  0.
    9000005    1    3    3    0    0 -0.14632997663E+02 -0.36481888215E+02 -0.41530690287E+02  0.57191354452E+02  0.10000000000E+01 0.  0.
          4    1    1    2  501    0  0.30389468841E+00 -0.27877739928E+02 -0.70803156931E+02  0.76104931948E+02  0.12700000000E+01 0. -1.
<mgrwt>
<rscale>  1 0.12807340E+03</rscale>
<asrwt>0</asrwt>
<pdfrwt beam="1">  1       21 0.21455903E-02 0.12807340E+03</pdfrwt>
<pdfrwt beam="2">  1        4 0.67152794E-01 0.12807340E+03</pdfrwt>
<totfact> 0.91231517E+04</totfact>
</mgrwt>
</event>
<event>
 6    4  0.3189516E-003  0.1449937E+03  0.7818608E-02  0.1206763E+00
         21   -1    0    0  501  502  0.00000000000E+00  0.00000000000E+00  0.66073878301E+03  0.66073878301E+03  0.00000000000E+00 0. -1.
         -4   -1    0    0    0  501 -0.00000000000E+00 -0.00000000000E+00 -0.46058029812E+02  0.46075535918E+02  0.12700000000E+01 0.  1.
         25    2    1    2    0    0 -0.73227803401E+02 -0.60030175704E+01  0.77068884703E+02  0.16420351784E+03  0.12499933948E+03 0.  0.
    9000005    1    3    3    0    0  0.32682538834E+02  0.15856140723E+02  0.25476158239E+02  0.44380177803E+02  0.10000000000E+01 0.  0.
    9000005    1    3    3    0    0 -0.10591034223E+03 -0.21859158293E+02  0.51592726464E+02  0.11982334004E+03  0.10000000000E+01 0.  0.
         -4    1    1    2    0  502  0.73227803401E+02  0.60030175704E+01  0.53761186850E+03  0.54261080109E+03  0.12700000000E+01 0. -1.
<mgrwt>
<rscale>  1 0.14499373E+03</rscale>
<asrwt>0</asrwt>
<pdfrwt beam="1">  1       21 0.10165211E+00 0.14499373E+03</pdfrwt>
<pdfrwt beam="2">  1       -4 0.70872917E-02 0.14499373E+03</pdfrwt>
<totfact> 0.44480498E+03</totfact>
</mgrwt>
</event>
<event>
 6    4  0.3189516E-003  0.1271081E+03  0.7818608E-02  0.1231811E+00
          4   -1    0    0  502    0 -0.00000000000E+00  0.00000000000E+00  0.20644339465E+02  0.20683366552E+02  0.12700000000E+01 0. -1.
         21   -1    0    0  501  502  0.00000000000E+00 -0.00000000000E+00 -0.29985062712E+03  0.29985062712E+03  0.00000000000E+00 0. -1.
         25    2    1    2    0    0 -0.19745992484E+02 -0.11895794780E+02 -0.19153804003E+03  0.22987667905E+03  0.12500021056E+03 0.  0.
    9000005    1    3    3    0    0 -0.63378060802E+02 -0.18061292695E+02 -0.53244080694E+02  0.84728513582E+02  0.10000000000E+01 0.  0.
    9000005    1    3    3    0    0  0.43632068318E+02  0.61654979148E+01 -0.13829395934E+03  0.14514816547E+03  0.10000000000E+01 0.  0.
          4    1    1    2  501    0  0.19745992484E+02  0.11895794780E+02 -0.87668247627E+02  0.90657314623E+02  0.12700000000E+01 0.  1.
<mgrwt>
<rscale>  1 0.12710809E+03</rscale>
<asrwt>0</asrwt>
<pdfrwt beam="2">  1       21 0.46130869E-01 0.12710809E+03</pdfrwt>
<pdfrwt beam="1">  1        4 0.31792610E-02 0.12710809E+03</pdfrwt>
<totfact> 0.89272096E+04</totfact>
</mgrwt>
</event>
<event>
 6    4  0.3189516E-003  0.1544715E+03  0.7818608E-02  0.1195084E+00
         -4   -1    0    0    0  501 -0.00000000000E+00  0.00000000000E+00  0.51621305263E+03  0.51621461487E+03  0.12700000000E+01 0.  1.
         21   -1    0    0  501  502  0.00000000000E+00 -0.00000000000E+00 -0.15235102014E+03  0.15235102014E+03  0.00000000000E+00 0. -1.
         25    2    1    2    0    0 -0.81567353943E+02 -0.39786833279E+02  0.48965755282E+03  0.51344519418E+03  0.12500089222E+03 0.  0.
    9000005    1    3    3    0    0 -0.11277512824E+03 -0.47090159356E+02  0.37722293200E+03  0.39652724129E+03  0.10000000000E+01 0.  0.
    9000005    1    3    3    0    0  0.31207774292E+02  0.73033260769E+01  0.11243462082E+03  0.11691795289E+03  0.10000000000E+01 0.  0.
         -4    1    1    2    0  502  0.81567353943E+02  0.39786833279E+02 -0.12579552032E+03  0.15512044084E+03  0.12700000000E+01 0. -1.
<mgrwt>
<rscale>  1 0.15447151E+03</rscale>
<asrwt>0</asrwt>
<pdfrwt beam="2">  1       21 0.23438619E-01 0.15447151E+03</pdfrwt>
<pdfrwt beam="1">  1       -4 0.79417919E-01 0.15447151E+03</pdfrwt>
<totfact> 0.10356509E+03</totfact>
</mgrwt>
</event>
<event>
 6    4  0.3189516E-003  0.1299028E+03  0.7818608E-02  0.1227600E+00
          4   -1    0    0  502    0 -0.00000000000E+00  0.00000000000E+00  0.42145183068E+02  0.42164313771E+02  0.12700000000E+01 0. -1.
         21   -1    0    0  501  502  0.00000000000E+00 -0.00000000000E+00 -0.36215677403E+03  0.36215677403E+03  0.00000000000E+00 0.  1.
         25    2    1    2    0    0  0.10581182842E+02 -0.33730700424E+02 -0.62079019791E+02  0.14397411595E+03  0.12500007913E+03 0.  0.
    9000005    1    3    3    0    0 -0.35797287558E+02  0.31404713392E+02 -0.36528400032E+02  0.60025209942E+02  0.10000000000E+01 0.  0.
    9000005    1    3    3    0    0  0.46378470401E+02 -0.65135413816E+02 -0.25550619759E+02  0.83948906007E+02  0.10000000000E+01 0.  0.
          4    1    1    2  501    0 -0.10581182842E+02  0.33730700424E+02 -0.25793257117E+03  0.26034697185E+03  0.12700000000E+01 0.  1.
<mgrwt>
<rscale>  1 0.12990282E+03</rscale>
<asrwt>0</asrwt>
<pdfrwt beam="2">  1       21 0.55716428E-01 0.12990282E+03</pdfrwt>
<pdfrwt beam="1">  1        4 0.64855170E-02 0.12990282E+03</pdfrwt>
<totfact> 0.19382065E+04</totfact>
</mgrwt>
</event>
<event>
 6    4  0.3189516E-003  0.1297075E+03  0.7818608E-02  0.1227890E+00
         21   -1    0    0  501  502  0.00000000000E+00  0.00000000000E+00  0.27218610648E+02  0.27218610648E+02  0.00000000000E+00 0. -1.
          4   -1    0    0  502    0 -0.00000000000E+00 -0.00000000000E+00 -0.24817163845E+03  0.24817488800E+03  0.12700000000E+01 0. -1.
         25    2    1    2    0    0  0.25918147775E+01  0.34532925278E+02 -0.17256381206E+03  0.21587569012E+03  0.12499921566E+03 0.  0.
    9000005    1    3    3    0    0 -0.26238920840E+01  0.47415616094E+02 -0.50309977994E+01  0.47764384201E+02  0.10000000000E+01 0.  0.
    9000005    1    3    3    0    0  0.52157068615E+01 -0.12882690816E+02 -0.16753281427E+03  0.16811130591E+03  0.10000000000E+01 0.  0.
          4    1    1    2  501    0 -0.25918147775E+01 -0.34532925278E+02 -0.48389215742E+02  0.59517808530E+02  0.12700000000E+01 0.  1.
<mgrwt>
<rscale>  1 0.12970753E+03</rscale>
<asrwt>0</asrwt>
<pdfrwt beam="1">  1       21 0.41874787E-02 0.12970753E+03</pdfrwt>
<pdfrwt beam="2">  1        4 0.38182780E-01 0.12970753E+03</pdfrwt>
<totfact> 0.96626768E+04</totfact>
</mgrwt>
</event>
<event>
 6    4  0.3189516E-003  0.1320634E+03  0.7818608E-02  0.1224426E+00
         -4   -1    0    0    0  501 -0.00000000000E+00  0.00000000000E+00  0.68631989196E+02  0.68643738541E+02  0.12700000000E+01 0. -1.
         21   -1    0    0  501  502  0.00000000000E+00 -0.00000000000E+00 -0.13868679196E+03  0.13868679196E+03  0.00000000000E+00 0.  1.
         25    2    1    2    0    0  0.11181852562E+02 -0.41147679076E+02 -0.83653186002E+01  0.13232805936E+03  0.12499028530E+03 0.  0.
    9000005    1    3    3    0    0  0.11839929209E+01  0.20169052589E+02 -0.52401980535E+02  0.56170811687E+02  0.10000000000E+01 0.  0.
    9000005    1    3    3    0    0  0.99978596415E+01 -0.61316731665E+02  0.44036661935E+02  0.76157247678E+02  0.10000000000E+01 0.  0.
         -4    1    1    2    0  502 -0.11181852562E+02  0.41147679076E+02 -0.61689484161E+02  0.75002471134E+02  0.12700000000E+01 0.  1.
<mgrwt>
<rscale>  1 0.13206338E+03</rscale>
<asrwt>0</asrwt>
<pdfrwt beam="2">  1       21 0.21336429E-01 0.13206338E+03</pdfrwt>
<pdfrwt beam="1">  1       -4 0.10560119E-01 0.13206338E+03</pdfrwt>
<totfact> 0.57138687E+04</totfact>
</mgrwt>
</event>
<event>
 6    4  0.3189516E-003  0.1312709E+03  0.7818608E-02  0.1225582E+00
         -4   -1    0    0    0  501 -0.00000000000E+00  0.00000000000E+00  0.23232499985E+02  0.23267186240E+02  0.12700000000E+01 0. -1.
         21   -1    0    0  501  502  0.00000000000E+00 -0.00000000000E+00 -0.32154178396E+03  0.32154178396E+03  0.00000000000E+00 0.  1.
         25    2    1    2    0    0 -0.32185342075E+02 -0.23889121624E+02 -0.20746806217E+03  0.24550979168E+03  0.12500189843E+03 0.  0.
    9000005    1    3    3    0    0  0.76667507542E+01  0.26045505371E+02 -0.16848404788E+03  0.17066054555E+03  0.10000000000E+01 0.  0.
    9000005    1    3    3    0    0 -0.39852092829E+02 -0.49934626995E+02 -0.38984014295E+02  0.74849246132E+02  0.10000000000E+01 0.  0.
         -4    1    1    2    0  502  0.32185342075E+02  0.23889121624E+02 -0.90841221800E+02  0.99299178519E+02  0.12700000000E+01 0.  1.
<mgrwt>
<rscale>  1 0.13127094E+03</rscale>
<asrwt>0</asrwt>
<pdfrwt beam="2">  1       21 0.49467967E-01 0.13127094E+03</pdfrwt>
<pdfrwt beam="1">  1       -4 0.35770919E-02 0.13127094E+03</pdfrwt>
<totfact> 0.64516487E+04</totfact>
</mgrwt>
</event>
<event>
 6    4  0.3189516E-003  0.1295243E+03  0.7818608E-02  0.1228163E+00
         21   -1    0    0  501  502  0.00000000000E+00  0.00000000000E+00  0.14205370702E+03  0.14205370702E+03  0.00000000000E+00 0. -1.
          4   -1    0    0  502    0 -0.00000000000E+00 -0.00000000000E+00 -0.61712680648E+02  0.61725747081E+02  0.12700000000E+01 0. -1.
         25    2    1    2    0    0 -0.29664387481E+01  0.33803079472E+02  0.15322129344E+02  0.13042744110E+03  0.12500040721E+03 0.  0.
    9000005    1    3    3    0    0  0.38438236774E+02 -0.32902334038E+02  0.11017067466E+02  0.51792252384E+02  0.10000000000E+01 0.  0.
    9000005    1    3    3    0    0 -0.41404675522E+02  0.66705413510E+02  0.43050618779E+01  0.78635188716E+02  0.10000000000E+01 0.  0.
          4    1    1    2  501    0  0.29664387481E+01 -0.33803079472E+02  0.65018897030E+02  0.73352013003E+02  0.12700000000E+01 0.  1.
<mgrwt>
<rscale>  1 0.12952432E+03</rscale>
<asrwt>0</asrwt>
<pdfrwt beam="1">  1       21 0.21854416E-01 0.12952432E+03</pdfrwt>
<pdfrwt beam="2">  1        4 0.94957004E-02 0.12952432E+03</pdfrwt>
<totfact> 0.65186897E+04</totfact>
</mgrwt>
</event>
<event>
 6    4  0.3189516E-003  0.1340247E+03  0.7818608E-02  0.1221603E+00
          4   -1    0    0  502    0 -0.00000000000E+00  0.00000000000E+00  0.12175896155E+03  0.12176558470E+03  0.12700000000E+01 0.  1.
         21   -1    0    0  501  502  0.00000000000E+00 -0.00000000000E+00 -0.71651132338E+02  0.71651132338E+02  0.00000000000E+00 0. -1.
         25    2    1    2    0    0 -0.48217870722E+02 -0.40347745851E+01  0.54782109696E+02  0.14478849210E+03  0.12498554092E+03 0.  0.
    9000005    1    3    3    0    0 -0.42625483575E+02 -0.55969529248E+02  0.18040451727E+01  0.70383056436E+02  0.10000000000E+01 0.  0.
    9000005    1    3    3    0    0 -0.55923871465E+01  0.51934754663E+02  0.52978064523E+02  0.74405435665E+02  0.10000000000E+01 0.  0.
          4    1    1    2  501    0  0.48217870722E+02  0.40347745851E+01 -0.46742804810E+01  0.48628224941E+02  0.12700000000E+01 0. -1.
<mgrwt>
<rscale>  1 0.13402473E+03</rscale>
<asrwt>0</asrwt>
<pdfrwt beam="2">  1       21 0.11023251E-01 0.13402473E+03</pdfrwt>
<pdfrwt beam="1">  1        4 0.18733523E-01 0.13402473E+03</pdfrwt>
<totfact> 0.69888385E+04</totfact>
</mgrwt>
</event>
<event>
 6    4  0.3189516E-003  0.1268926E+03  0.7818608E-02  0.1232141E+00
         -4   -1    0    0    0  501 -0.00000000000E+00  0.00000000000E+00  0.49678949350E+03  0.49679111682E+03  0.12700000000E+01 0.  1.
         21   -1    0    0  501  502  0.00000000000E+00 -0.00000000000E+00 -0.14527396355E+02  0.14527396355E+02  0.00000000000E+00 0.  1.
         25    2    1    2    0    0 -0.20906719012E+02  0.64021715969E+01  0.46866428074E+03  0.48553882714E+03  0.12499466355E+03 0.  0.
    9000005    1    3    3    0    0 -0.46590822467E+01 -0.48329853212E+02  0.87087219206E+02  0.99712915452E+02  0.10000000000E+01 0.  0.
    9000005    1    3    3    0    0 -0.16247636765E+02  0.54732024809E+02  0.38157706153E+03  0.38582591169E+03  0.10000000000E+01 0.  0.
         -4    1    1    2    0  502  0.20906719012E+02 -0.64021715969E+01  0.13597816399E+02  0.25779686031E+02  0.12700000000E+01 0. -1.
<mgrwt>
<rscale>  1 0.12689265E+03</rscale>
<asrwt>0</asrwt>
<pdfrwt beam="2">  1       21 0.22349844E-02 0.12689265E+03</pdfrwt>
<pdfrwt beam="1">  1       -4 0.76433535E-01 0.12689265E+03</pdfrwt>
<totfact> 0.64448814E+04</totfact>
</mgrwt>
</event>
<event>
 6    4  0.3189516E-003  0.1279213E+03  0.7818608E-02  0.1230573E+00
          4   -1    0    0  502    0 -0.00000000000E+00  0.00000000000E+00  0.82451467225E+02  0.82461247551E+02  0.12700000000E+01 0. -1.
         21   -1    0    0  501  502  0.00000000000E+00 -0.00000000000E+00 -0.74151766173E+02  0.74151766173E+02  0.00000000000E+00 0. -1.
         25    2    1    2    0    0 -0.14942676859E+02 -0.22718993564E+02  0.14358762958E+02  0.12872463996E+03  0.12499769037E+03 0.  0.
    9000005    1    3    3    0    0 -0.27376643901E+02 -0.44652793955E+02 -0.41889979487E+02  0.67075502389E+02  0.10000000000E+01 0.  0.
    9000005    1    3    3    0    0  0.12433967042E+02  0.21933800391E+02  0.56248742445E+02  0.61649137567E+02  0.10000000000E+01 0.  0.
          4    1    1    2  501    0  0.14942676859E+02  0.22718993564E+02 -0.60590619058E+01  0.27888373768E+02  0.12700000000E+01 0.  1.
<mgrwt>
<rscale>  1 0.12792130E+03</rscale>
<asrwt>0</asrwt>
<pdfrwt beam="2">  1       21 0.11407964E-01 0.12792130E+03</pdfrwt>
<pdfrwt beam="1">  1        4 0.12686430E-01 0.12792130E+03</pdfrwt>
<totfact> 0.12928298E+05</totfact>
</mgrwt>
</event>
<event>
 6    4  0.3189516E-003  0.1284553E+03  0.7818608E-02  0.1229766E+00
          4   -1    0    0  502    0 -0.00000000000E+00  0.00000000000E+00  0.19013256792E+03  0.19013680938E+03  0.12700000000E+01 0. -1.
         21   -1    0    0  501  502  0.00000000000E+00 -0.00000000000E+00 -0.11594546351E+03  0.11594546351E+03  0.00000000000E+00 0.  1.
         25    2    1    2    0    0  0.13309920306E+02 -0.26426789050E+02  0.16583571344E+03  0.20976711523E+03  0.12500091848E+03 0.  0.
    9000005    1    3    3    0    0 -0.18922241473E+02 -0.55080970439E+02  0.15457012501E+03  0.16518137932E+03  0.10000000000E+01 0.  0.
    9000005    1    3    3    0    0  0.32232161779E+02  0.28654181389E+02  0.11265588431E+02  0.44585735911E+02  0.10000000000E+01 0.  0.
          4    1    1    2  501    0 -0.13309920306E+02  0.26426789050E+02 -0.91648609035E+02  0.96315157666E+02  0.12700000000E+01 0.  1.
<mgrwt>
<rscale>  1 0.12845528E+03</rscale>
<asrwt>0</asrwt>
<pdfrwt beam="2">  1       21 0.17837764E-01 0.12845528E+03</pdfrwt>
<pdfrwt beam="1">  1        4 0.29252026E-01 0.12845528E+03</pdfrwt>
<totfact> 0.12965850E+04</totfact>
</mgrwt>
</event>
<event>
 6    4  0.3189516E-003  0.1279402E+03  0.7818608E-02  0.1230544E+00
         -4   -1    0    0    0  501 -0.00000000000E+00  0.00000000000E+00  0.99723778016E+02  0.99731864526E+02  0.12700000000E+01 0.  1.
         21   -1    0    0  501  502  0.00000000000E+00 -0.00000000000E+00 -0.68607305853E+02  0.68607305853E+02  0.00000000000E+00 0.  1.
         25    2    1    2    0    0  0.17395000959E+02 -0.21015918835E+02  0.47520907553E+02  0.13648052472E+03  0.12499776826E+03 0.  0.
    9000005    1    3    3    0    0  0.12364172806E+02  0.38727853270E+02  0.62600939466E+02  0.74649829270E+02  0.10000000000E+01 0.  0.
    9000005    1    3    3    0    0  0.50308281530E+01 -0.59743772105E+02 -0.15080031913E+02  0.61830695449E+02  0.10000000000E+01 0.  0.
         -4    1    1    2    0  502 -0.17395000959E+02  0.21015918835E+02 -0.16404435389E+02  0.31858645660E+02  0.12700000000E+01 0. -1.
<mgrwt>
<rscale>  1 0.12794021E+03</rscale>
<asrwt>0</asrwt>
<pdfrwt beam="2">  1       21 0.10554970E-01 0.12794021E+03</pdfrwt>
<pdfrwt beam="1">  1       -4 0.15343646E-01 0.12794021E+03</pdfrwt>
<totfact> 0.10663603E+05</totfact>
</mgrwt>
</event>
<event>
 6    4  0.3189516E-003  0.1270552E+03  0.7818608E-02  0.1231892E+00
         21   -1    0    0  501  502  0.00000000000E+00  0.00000000000E+00  0.17353067677E+03  0.17353067677E+03  0.00000000000E+00 0.  1.
          4   -1    0    0  502    0 -0.00000000000E+00 -0.00000000000E+00 -0.48623021876E+02  0.48639604813E+02  0.12700000000E+01 0.  1.
         25    2    1    2    0    0 -0.22779013864E+02 -0.58455131407E-01  0.38439112289E+02  0.13274260885E+03  0.12499659180E+03 0.  0.
    9000005    1    3    3    0    0 -0.72060509485E+02  0.16236344883E+02  0.13301634637E+02  0.75061770606E+02  0.10000000000E+01 0.  0.
    9000005    1    3    3    0    0  0.49281495621E+02 -0.16294800015E+02  0.25137477652E+02  0.57680838247E+02  0.10000000000E+01 0.  0.
          4    1    1    2  501    0  0.22779013864E+02  0.58455131407E-01  0.86468542601E+02  0.89427672726E+02  0.12700000000E+01 0. -1.
<mgrwt>
<rscale>  1 0.12705524E+03</rscale>
<asrwt>0</asrwt>
<pdfrwt beam="1">  1       21 0.26697027E-01 0.12705524E+03</pdfrwt>
<pdfrwt beam="2">  1        4 0.74820981E-02 0.12705524E+03</pdfrwt>
<totfact> 0.66276759E+04</totfact>
</mgrwt>
</event>
<event>
 6    4  0.3189516E-003  0.1299740E+03  0.7818608E-02  0.1227494E+00
         21   -1    0    0  501  502  0.00000000000E+00  0.00000000000E+00  0.62269217854E+03  0.62269217854E+03  0.00000000000E+00 0. -1.
         -4   -1    0    0    0  501 -0.00000000000E+00 -0.00000000000E+00 -0.43417242677E+02  0.43435813124E+02  0.12700000000E+01 0.  1.
         25    2    1    2    0    0  0.28265664693E+02  0.21665286401E+02  0.55807061070E+02  0.14144850734E+03  0.12499967891E+03 0.  0.
    9000005    1    3    3    0    0  0.31813346162E+02 -0.49269387773E+02  0.20573814837E+02  0.62159821609E+02  0.10000000000E+01 0.  0.
    9000005    1    3    3    0    0 -0.35476814686E+01  0.70934674174E+02  0.35233246234E+02  0.79288685726E+02  0.10000000000E+01 0.  0.
         -4    1    1    2    0  502 -0.28265664693E+02 -0.21665286401E+02  0.52346787479E+03  0.52467948433E+03  0.12700000000E+01 0. -1.
<mgrwt>
<rscale>  1 0.12997404E+03</rscale>
<asrwt>0</asrwt>
<pdfrwt beam="1">  1       21 0.95798790E-01 0.12997404E+03</pdfrwt>
<pdfrwt beam="2">  1       -4 0.66811044E-02 0.12997404E+03</pdfrwt>
<totfact> 0.56014078E+03</totfact>
</mgrwt>
</event>
<event>
 6    4  0.3189516E-003  0.1291369E+03  0.7818608E-02  0.1228742E+00
          4   -1    0    0  502    0 -0.00000000000E+00  0.00000000000E+00  0.10988801890E+04  0.10988809229E+04  0.12700000000E+01 0.  1.
         21   -1    0    0  501  502  0.00000000000E+00 -0.00000000000E+00 -0.17045175176E+02  0.17045175176E+02  0.00000000000E+00 0. -1.
         25    2    1    2    0    0 -0.22254110286E+02  0.23553465690E+02  0.10750713556E+04  0.10827995054E+04  0.12500535205E+03 0.  0.
    9000005    1    3    3    0    0 -0.69370695084E+02  0.30637982886E+02  0.80415112011E+03  0.80771963162E+03  0.10000000000E+01 0.  0.
    9000005    1    3    3    0    0  0.47116584798E+02 -0.70845171957E+01  0.27092023546E+03  0.27507987373E+03  0.10000000000E+01 0.  0.
          4    1    1    2  501    0  0.22254110286E+02 -0.23553465690E+02  0.67636582316E+01  0.33126592691E+02  0.12700000000E+01 0. -1.
<mgrwt>
<rscale>  1 0.12913694E+03</rscale>
<asrwt>0</asrwt>
<pdfrwt beam="2">  1       21 0.26223355E-02 0.12913694E+03</pdfrwt>
<pdfrwt beam="1">  1        4 0.16906213E+00 0.12913694E+03</pdfrwt>
<totfact> 0.74983055E+03</totfact>
</mgrwt>
</event>
<event>
 6    4  0.3189516E-003  0.1267351E+03  0.7818608E-02  0.1232382E+00
         21   -1    0    0  501  502  0.00000000000E+00  0.00000000000E+00  0.18063528318E+04  0.18063528318E+04  0.00000000000E+00 0. -1.
         -4   -1    0    0    0  501 -0.00000000000E+00 -0.00000000000E+00 -0.62888972088E+01  0.64158497569E+01  0.12700000000E+01 0.  1.
         25    2    1    2    0    0  0.46365510062E+01 -0.20364800040E+02  0.63535077886E+03  0.64786758244E+03  0.12500227796E+03 0.  0.
    9000005    1    3    3    0    0  0.40021154397E+02 -0.58698990987E+02  0.28885445684E+03  0.29746455517E+03  0.10000000000E+01 0.  0.
    9000005    1    3    3    0    0 -0.35384603391E+02  0.38334190947E+02  0.34649632201E+03  0.35040302727E+03  0.10000000000E+01 0.  0.
         -4    1    1    2    0  502 -0.46365510062E+01  0.20364800040E+02  0.11647131558E+04  0.11649010991E+04  0.12700000000E+01 0. -1.
<mgrwt>
<rscale>  1 0.12673513E+03</rscale>
<asrwt>0</asrwt>
<pdfrwt beam="1">  1       21 0.27790003E+00 0.12673513E+03</pdfrwt>
<pdfrwt beam="2">  1       -4 0.97732401E-03 0.12673513E+03</pdfrwt>
<totfact> 0.59689154E+03</totfact>
</mgrwt>
</event>
<event>
 6    4  0.3189516E-003  0.1668895E+03  0.7818608E-02  0.1181131E+00
          4   -1    0    0  502    0 -0.00000000000E+00  0.00000000000E+00  0.47523859693E+02  0.47540826035E+02  0.12700000000E+01 0. -1.
         21   -1    0    0  501  502  0.00000000000E+00 -0.00000000000E+00 -0.49033256329E+03  0.49033256329E+03  0.00000000000E+00 0.  1.
         25    2    1    2    0    0 -0.67831490748E+02  0.87336320019E+02 -0.14820699920E+03  0.22319812645E+03  0.12499338025E+03 0.  0.
    9000005    1    3    3    0    0 -0.36336348435E+02  0.66639184587E+01  0.13836897478E+02  0.39461345120E+02  0.10000000000E+01 0.  0.
    9000005    1    3    3    0    0 -0.31495142313E+02  0.80672401560E+02 -0.16204389668E+03  0.18373678133E+03  0.10000000000E+01 0.  0.
          4    1    1    2  501    0  0.67831490748E+02 -0.87336320019E+02 -0.29460170440E+03  0.31467526288E+03  0.12700000000E+01 0.  1.
<mgrwt>
<rscale>  1 0.16688945E+03</rscale>
<asrwt>0</asrwt>
<pdfrwt beam="2">  1       21 0.75435784E-01 0.16688945E+03</pdfrwt>
<pdfrwt beam="1">  1        4 0.73127942E-02 0.16688945E+03</pdfrwt>
<totfact> 0.84139726E+03</totfact>
</mgrwt>
</event>
<event>
 6    4  0.3189516E-003  0.1268628E+03  0.7818608E-02  0.1232186E+00
         21   -1    0    0  501  502  0.00000000000E+00  0.00000000000E+00  0.12184415583E+02  0.12184415583E+02  0.00000000000E+00 0.  1.
         -4   -1    0    0    0  501 -0.00000000000E+00 -0.00000000000E+00 -0.45936778949E+03  0.45936954505E+03  0.12700000000E+01 0.  1.
         25    2    1    2    0    0 -0.11785980169E+02  0.18165809410E+02 -0.39971831861E+03  0.41936727331E+03  0.12500107890E+03 0.  0.
    9000005    1    3    3    0    0 -0.18105778614E+02 -0.74002278362E+01 -0.82326481897E+00  0.19602559940E+02  0.10000000000E+01 0.  0.
    9000005    1    3    3    0    0  0.63197984450E+01  0.25566037246E+02 -0.39889505380E+03  0.39976471337E+03  0.10000000000E+01 0.  0.
         -4    1    1    2    0  502  0.11785980169E+02 -0.18165809410E+02 -0.47465055288E+02  0.52186687322E+02  0.12700000000E+01 0. -1.
<mgrwt>
<rscale>  1 0.12686282E+03</rscale>
<asrwt>0</asrwt>
<pdfrwt beam="1">  1       21 0.18745257E-02 0.12686282E+03</pdfrwt>
<pdfrwt beam="2">  1       -4 0.70677184E-01 0.12686282E+03</pdfrwt>
<totfact> 0.10148983E+05</totfact>
</mgrwt>
</event>
<event>
 6    4  0.3189516E-003  0.1271061E+03  0.7818608E-02  0.1231814E+00
         21   -1    0    0  501  502  0.00000000000E+00  0.00000000000E+00  0.65229223210E+02  0.65229223210E+02  0.00000000000E+00 0.  1.
          4   -1    0    0  502    0 -0.00000000000E+00 -0.00000000000E+00 -0.68205540507E+03  0.68205658745E+03  0.12700000000E+01 0. -1.
         25    2    1    2    0    0 -0.19260709904E+02 -0.12649871414E+02 -0.67386881825E+03  0.68575151568E+03  0.12499985144E+03 0.  0.
    9000005    1    3    3    0    0  0.53036183751E+02  0.14145216654E+01 -0.30873956670E+03  0.31326659206E+03  0.10000000000E+01 0.  0.
    9000005    1    3    3    0    0 -0.72296893654E+02 -0.14064393079E+02 -0.36512925155E+03  0.37248492362E+03  0.10000000000E+01 0.  0.
          4    1    1    2  501    0  0.19260709904E+02  0.12649871414E+02  0.57042636387E+02  0.61534294981E+02  0.12700000000E+01 0.  1.
<mgrwt>
<rscale>  1 0.12710609E+03</rscale>
<asrwt>0</asrwt>
<pdfrwt beam="1">  1       21 0.10035265E-01 0.12710609E+03</pdfrwt>
<pdfrwt beam="2">  1        4 0.10493264E+00 0.12710609E+03</pdfrwt>
<totfact> 0.25376533E+03</totfact>
</mgrwt>
</event>
<event>
 6    4  0.3189516E-003  0.1688137E+03  0.7818608E-02  0.1179091E+00
         -4   -1    0    0    0  501 -0.00000000000E+00  0.00000000000E+00  0.14584491239E+03  0.14585044179E+03  0.12700000000E+01 0. -1.
         21   -1    0    0  501  502  0.00000000000E+00 -0.00000000000E+00 -0.13664178464E+03  0.13664178464E+03  0.00000000000E+00 0.  1.
         25    2    1    2    0    0 -0.99336876214E+02 -0.54822276253E+02  0.26264389632E+01  0.16883413088E+03  0.12499907447E+03 0.  0.
    9000005    1    3    3    0    0 -0.11509354674E+03 -0.21715661712E+02 -0.28705783642E+02  0.12059484434E+03  0.10000000000E+01 0.  0.
    9000005    1    3    3    0    0  0.15756670530E+02 -0.33106614541E+02  0.31332222606E+02  0.48239286541E+02  0.10000000000E+01 0.  0.
         -4    1    1    2    0  502  0.99336876214E+02  0.54822276253E+02  0.65766887929E+01  0.11365809555E+03  0.12700000000E+01 0.  1.
<mgrwt>
<rscale>  1 0.16881370E+03</rscale>
<asrwt>0</asrwt>
<pdfrwt beam="2">  1       21 0.21021813E-01 0.16881370E+03</pdfrwt>
<pdfrwt beam="1">  1       -4 0.22438558E-01 0.16881370E+03</pdfrwt>
<totfact> 0.16019212E+04</totfact>
</mgrwt>
</event>
<event>
 6    4  0.3189516E-003  0.1266232E+03  0.7818608E-02  0.1232554E+00
         -4   -1    0    0    0  501 -0.00000000000E+00  0.00000000000E+00  0.90574406313E+02  0.90583309605E+02  0.12700000000E+01 0. -1.
         21   -1    0    0  501  502  0.00000000000E+00 -0.00000000000E+00 -0.65384319418E+02  0.65384319418E+02  0.00000000000E+00 0. -1.
         25    2    1    2    0    0  0.21945757831E+01 -0.20068006962E+02  0.37783488458E+02  0.13214017156E+03  0.12500356744E+03 0.  0.
    9000005    1    3    3    0    0 -0.24105286831E+02  0.13109484264E+02  0.72407429738E+02  0.77438745549E+02  0.10000000000E+01 0.  0.
    9000005    1    3    3    0    0  0.26299862614E+02 -0.33177491227E+02 -0.34623941280E+02  0.54701426009E+02  0.10000000000E+01 0.  0.
         -4    1    1    2    0  502 -0.21945757831E+01  0.20068006962E+02 -0.12593401563E+02  0.23827457465E+02  0.12700000000E+01 0.  1.
<mgrwt>
<rscale>  1 0.12662319E+03</rscale>
<asrwt>0</asrwt>
<pdfrwt beam="2">  1       21 0.10059126E-01 0.12662319E+03</pdfrwt>
<pdfrwt beam="1">  1       -4 0.13936158E-01 0.12662319E+03</pdfrwt>
<totfact> 0.13694442E+05</totfact>
</mgrwt>
</event>
<event>
 6    4  0.3189516E-003  0.1401307E+03  0.7818608E-02  0.1213153E+00
          4   -1    0    0  502    0 -0.00000000000E+00  0.00000000000E+00  0.62030859863E+02  0.62043859288E+02  0.12700000000E+01 0.  1.
         21   -1    0    0  501  502  0.00000000000E+00 -0.00000000000E+00 -0.26809518259E+03  0.26809518259E+03  0.00000000000E+00 0. -1.
         25    2    1    2    0    0 -0.56995325342E+02 -0.27675596095E+02 -0.30395911810E+02  0.14338945226E+03  0.12498887084E+03 0.  0.
    9000005    1    3    3    0    0 -0.62528287681E+02  0.29156812428E+02 -0.47505650902E+02  0.83771673845E+02  0.10000000000E+01 0.  0.
    9000005    1    3    3    0    0  0.55329623395E+01 -0.56832408523E+02  0.17109739092E+02  0.59617778410E+02  0.10000000000E+01 0.  0.
          4    1    1    2  501    0  0.56995325342E+02  0.27675596095E+02 -0.17566841091E+03  0.18674958962E+03  0.12700000000E+01 0. -1.
<mgrwt>
<rscale>  1 0.14013074E+03</rscale>
<asrwt>0</asrwt>
<pdfrwt beam="2">  1       21 0.41245413E-01 0.14013074E+03</pdfrwt>
<pdfrwt beam="1">  1        4 0.95444404E-02 0.14013074E+03</pdfrwt>
<totfact> 0.19087607E+04</totfact>
</mgrwt>
</event>
<event>
 6    4  0.3189516E-003  0.1276072E+03  0.7818608E-02  0.1231050E+00
         -4   -1    0    0    0  501 -0.00000000000E+00  0.00000000000E+00  0.30950946764E+03  0.30951207320E+03  0.12700000000E+01 0. -1.
         21   -1    0    0  501  502  0.00000000000E+00 -0.00000000000E+00 -0.19874279034E+02  0.19874279034E+02  0.00000000000E+00 0.  1.
         25    2    1    2    0    0  0.74643694565E+01  0.24555331143E+02  0.26329530450E+03  0.29258847874E+03  0.12499967769E+03 0.  0.
    9000005    1    3    3    0    0 -0.24812763240E+02  0.37945040764E+02  0.25080274618E+02  0.51821998351E+02  0.10000000000E+01 0.  0.
    9000005    1    3    3    0    0  0.32277132697E+02 -0.13389709621E+02  0.23821502988E+03  0.24076648039E+03  0.10000000000E+01 0.  0.
         -4    1    1    2    0  502 -0.74643694565E+01 -0.24555331143E+02  0.26339884107E+02  0.36797873494E+02  0.12700000000E+01 0.  1.
<mgrwt>
<rscale>  1 0.12760721E+03</rscale>
<asrwt>0</asrwt>
<pdfrwt beam="2">  1       21 0.30575816E-02 0.12760721E+03</pdfrwt>
<pdfrwt beam="1">  1       -4 0.47620159E-01 0.12760721E+03</pdfrwt>
<totfact> 0.10455840E+05</totfact>
</mgrwt>
</event>
<event>
 6    4  0.3189516E-003  0.1348129E+03  0.7818608E-02  0.1220484E+00
         -4   -1    0    0    0  501 -0.00000000000E+00  0.00000000000E+00  0.16758957958E+04  0.16758962771E+04  0.12700000000E+01 0.  1.
         21   -1    0    0  501  502  0.00000000000E+00 -0.00000000000E+00 -0.88941767573E+01  0.88941767573E+01  0.00000000000E+00 0. -1.
         25    2    1    2    0    0 -0.19531988707E+02  0.46570734357E+02  0.15666625332E+04  0.15724522282E+04  0.12499674030E+03 0.  0.
    9000005    1    3    3    0    0  0.66777066740E+01 -0.26052834239E+02  0.10208854253E+04  0.10212401253E+04  0.10000000000E+01 0.  0.
    9000005    1    3    3    0    0 -0.26209695381E+02  0.72623568595E+02  0.54577710790E+03  0.55121210287E+03  0.10000000000E+01 0.  0.
         -4    1    1    2    0  502  0.19531988707E+02 -0.46570734357E+02  0.10033908590E+03  0.11233822564E+03  0.12700000000E+01 0. -1.
<mgrwt>
<rscale>  1 0.13481290E+03</rscale>
<asrwt>0</asrwt>
<pdfrwt beam="2">  1       21 0.13683362E-02 0.13481290E+03</pdfrwt>
<pdfrwt beam="1">  1       -4 0.25783688E+00 0.13481290E+03</pdfrwt>
<totfact> 0.61524348E+03</totfact>
</mgrwt>
</event>
<event>
 6    4  0.3189516E-003  0.1286543E+03  0.7818608E-02  0.1229466E+00
          4   -1    0    0  502    0 -0.00000000000E+00  0.00000000000E+00  0.10635655941E+03  0.10636414166E+03  0.12700000000E+01 0.  1.
         21   -1    0    0  501  502  0.00000000000E+00 -0.00000000000E+00 -0.63140143977E+03  0.63140143977E+03  0.00000000000E+00 0. -1.
         25    2    1    2    0    0  0.30364953947E+02  0.14604270509E+01  0.66920890729E+02  0.14501837535E+03  0.12501104070E+03 0.  0.
    9000005    1    3    3    0    0  0.55737916541E+02 -0.32002150654E+02 -0.19938735055E+01  0.64310407543E+02  0.10000000000E+01 0.  0.
    9000005    1    3    3    0    0 -0.25372962594E+02  0.33462577705E+02  0.68914764235E+02  0.80707967804E+02  0.10000000000E+01 0.  0.
          4    1    1    2  501    0 -0.30364953947E+02 -0.14604270509E+01 -0.59196577109E+03  0.59274720608E+03  0.12700000000E+01 0. -1.
<mgrwt>
<rscale>  1 0.12865428E+03</rscale>
<asrwt>0</asrwt>
<pdfrwt beam="2">  1       21 0.97138683E-01 0.12865428E+03</pdfrwt>
<pdfrwt beam="1">  1        4 0.16363229E-01 0.12865428E+03</pdfrwt>
<totfact> 0.11912719E+03</totfact>
</mgrwt>
</event>
<event>
 6    4  0.3189516E-003  0.1638167E+03  0.7818608E-02  0.1184454E+00
         -4   -1    0    0    0  501 -0.00000000000E+00  0.00000000000E+00  0.14467862916E+04  0.14467868490E+04  0.12700000000E+01 0.  1.
         21   -1    0    0  501  502  0.00000000000E+00 -0.00000000000E+00 -0.16263599199E+02  0.16263599199E+02  0.00000000000E+00 0. -1.
         25    2    1    2    0    0  0.97744125873E+02 -0.40707571513E+02  0.11763652990E+04  0.11877168069E+04  0.12499950460E+03 0.  0.
    9000005    1    3    3    0    0  0.10492836862E+03 -0.73471919376E+02  0.84463488163E+03  0.85429337393E+03  0.10000000000E+01 0.  0.
    9000005    1    3    3    0    0 -0.71842427493E+01  0.32764347863E+02  0.33173041739E+03  0.33342343298E+03  0.10000000000E+01 0.  0.
         -4    1    1    2    0  502 -0.97744125873E+02  0.40707571513E+02  0.25415739338E+03  0.27533364130E+03  0.12700000000E+01 0. -1.
<mgrwt>
<rscale>  1 0.16381666E+03</rscale>
<asrwt>0</asrwt>
<pdfrwt beam="2">  1       21 0.25020933E-02 0.16381666E+03</pdfrwt>
<pdfrwt beam="1">  1       -4 0.22258626E+00 0.16381666E+03</pdfrwt>
<totfact> 0.37661497E+03</totfact>
</mgrwt>
</event>
<event>
 6    4  0.3189516E-003  0.1268602E+03  0.7818608E-02  0.1232190E+00
         -4   -1    0    0    0  501 -0.00000000000E+00  0.00000000000E+00  0.21068411007E+02  0.21106653983E+02  0.12700000000E+01 0.  1.
         21   -1    0    0  501  502  0.00000000000E+00 -0.00000000000E+00 -0.68289026402E+03  0.68289026402E+03  0.00000000000E+00 0. -1.
         25    2    1    2    0    0  0.57060263812E+01 -0.21016376449E+02 -0.17217214617E+03  0.21386153351E+03  0.12497704103E+03 0.  0.
    9000005    1    3    3    0    0 -0.37247131134E+01  0.47678730818E+02 -0.11297486876E+03  0.12268437485E+03  0.10000000000E+01 0.  0.
    9000005    1    3    3    0    0  0.94307394946E+01 -0.68695107268E+02 -0.59197277407E+02  0.91177158665E+02  0.10000000000E+01 0.  0.
         -4    1    1    2    0  502 -0.57060263812E+01  0.21016376449E+02 -0.48964970685E+03  0.49013538449E+03  0.12700000000E+01 0. -1.
<mgrwt>
<rscale>  1 0.12686019E+03</rscale>
<asrwt>0</asrwt>
<pdfrwt beam="2">  1       21 0.10506006E+00 0.12686019E+03</pdfrwt>
<pdfrwt beam="1">  1       -4 0.32443260E-02 0.12686019E+03</pdfrwt>
<totfact> 0.14314880E+04</totfact>
</mgrwt>
</event>
<event>
 6    4  0.3189516E-003  0.1267290E+03  0.7818608E-02  0.1232392E+00
         21   -1    0    0  501  502  0.00000000000E+00  0.00000000000E+00  0.41057728096E+02  0.41057728096E+02  0.00000000000E+00 0.  1.
          4   -1    0    0  502    0 -0.00000000000E+00 -0.00000000000E+00 -0.18499264714E+03  0.18499700645E+03  0.12700000000E+01 0. -1.
         25    2    1    2    0    0  0.20819661281E+02 -0.49373718295E-02 -0.15675256096E+03  0.20157283992E+03  0.12500714423E+03 0.  0.
    9000005    1    3    3    0    0  0.60474466136E+01  0.41111158998E+02 -0.29363509946E+01  0.41669187199E+02  0.10000000000E+01 0.  0.
    9000005    1    3    3    0    0  0.14772214667E+02 -0.41116096370E+02 -0.15381620996E+03  0.15990365272E+03  0.10000000000E+01 0.  0.
          4    1    1    2  501    0 -0.20819661281E+02  0.49373718295E-02  0.12817641913E+02  0.24481894625E+02  0.12700000000E+01 0.  1.
<mgrwt>
<rscale>  1 0.12672902E+03</rscale>
<asrwt>0</asrwt>
<pdfrwt beam="1">  1       21 0.63165736E-02 0.12672902E+03</pdfrwt>
<pdfrwt beam="2">  1        4 0.28462253E-01 0.12672902E+03</pdfrwt>
<totfact> 0.84596523E+04</totfact>
</mgrwt>
</event>
<event>
 6    4  0.3189516E-003  0.1435355E+03  0.7818608E-02  0.1208649E+00
          4   -1    0    0  502    0 -0.00000000000E+00  0.00000000000E+00  0.41186359741E+03  0.41186555546E+03  0.12700000000E+01 0. -1.
         21   -1    0    0  501  502  0.00000000000E+00 -0.00000000000E+00 -0.37387036908E+02  0.37387036908E+02  0.00000000000E+00 0.  1.
         25    2    1    2    0    0 -0.59063565091E+02 -0.38591313629E+02  0.34331699858E+03  0.37211423998E+03  0.12499860750E+03 0.  0.
    9000005    1    3    3    0    0 -0.31161875955E+01 -0.43467595834E+02  0.27944028002E+02  0.51778482149E+02  0.10000000000E+01 0.  0.
    9000005    1    3    3    0    0 -0.55947377496E+02  0.48762822052E+01  0.31537297058E+03  0.32033575783E+03  0.10000000000E+01 0.  0.
          4    1    1    2  501    0  0.59063565091E+02  0.38591313629E+02  0.31159561924E+02  0.77138352382E+02  0.12700000000E+01 0.  1.
<mgrwt>
<rscale>  1 0.14353552E+03</rscale>
<asrwt>0</asrwt>
<pdfrwt beam="2">  1       21 0.57518521E-02 0.14353552E+03</pdfrwt>
<pdfrwt beam="1">  1        4 0.63365437E-01 0.14353552E+03</pdfrwt>
<totfact> 0.20486228E+04</totfact>
</mgrwt>
</event>
<event>
 6    4  0.3189516E-003  0.1429782E+03  0.7818608E-02  0.1209377E+00
         21   -1    0    0  501  502  0.00000000000E+00  0.00000000000E+00  0.36563015552E+03  0.36563015552E+03  0.00000000000E+00 0.  1.
         -4   -1    0    0    0  501 -0.00000000000E+00 -0.00000000000E+00 -0.38756670054E+02  0.38777472503E+02  0.12700000000E+01 0.  1.
         25    2    1    2    0    0 -0.53429713656E+02 -0.44296459272E+02  0.12153260984E+03  0.18765108554E+03  0.12500337613E+03 0.  0.
    9000005    1    3    3    0    0 -0.30769355799E+02  0.31373842512E+02  0.15312738231E+01  0.43981996882E+02  0.10000000000E+01 0.  0.
    9000005    1    3    3    0    0 -0.22660357858E+02 -0.75670301784E+02  0.12000133601E+03  0.14366908866E+03  0.10000000000E+01 0.  0.
         -4    1    1    2    0  502  0.53429713656E+02  0.44296459272E+02  0.20534087563E+03  0.21675654248E+03  0.12700000000E+01 0. -1.
<mgrwt>
<rscale>  1 0.14297816E+03</rscale>
<asrwt>0</asrwt>
<pdfrwt beam="1">  1       21 0.56250791E-01 0.14297816E+03</pdfrwt>
<pdfrwt beam="2">  1       -4 0.59643347E-02 0.14297816E+03</pdfrwt>
<totfact> 0.21954555E+04</totfact>
</mgrwt>
</event>
<event>
 6    4  0.3189516E-003  0.1308919E+03  0.7818608E-02  0.1226138E+00
         21   -1    0    0  501  502  0.00000000000E+00  0.00000000000E+00  0.44735376610E+02  0.44735376610E+02  0.00000000000E+00 0. -1.
          4   -1    0    0  502    0 -0.00000000000E+00 -0.00000000000E+00 -0.36600054850E+03  0.36600275190E+03  0.12700000000E+01 0.  1.
         25    2    1    2    0    0  0.34287957083E+02 -0.18216348755E+02 -0.34236319282E+03  0.36653135584E+03  0.12500071859E+03 0.  0.
    9000005    1    3    3    0    0  0.16540676435E+02  0.20736293451E+02 -0.56908026631E+01  0.27147248073E+02  0.10000000000E+01 0.  0.
    9000005    1    3    3    0    0  0.17747280648E+02 -0.38952642206E+02 -0.33667239016E+03  0.33938410776E+03  0.10000000000E+01 0.  0.
          4    1    1    2  501    0 -0.34287957083E+02  0.18216348755E+02  0.21098020938E+02  0.44206772676E+02  0.12700000000E+01 0. -1.
<mgrwt>
<rscale>  1 0.13089186E+03</rscale>
<asrwt>0</asrwt>
<pdfrwt beam="1">  1       21 0.68823657E-02 0.13089186E+03</pdfrwt>
<pdfrwt beam="2">  1        4 0.56309332E-01 0.13089186E+03</pdfrwt>
<totfact> 0.19152510E+04</totfact>
</mgrwt>
</event>
<event>
 6    4  0.3189516E-003  0.1304187E+03  0.7818608E-02  0.1226836E+00
         -4   -1    0    0    0  501 -0.00000000000E+00  0.00000000000E+00  0.15602933393E+03  0.15603450243E+03  0.12700000000E+01 0. -1.
         21   -1    0    0  501  502  0.00000000000E+00 -0.00000000000E+00 -0.46860095573E+02  0.46860095573E+02  0.00000000000E+00 0. -1.
         25    2    1    2    0    0 -0.35463817640E+02  0.11229672114E+02  0.66910551677E+02  0.14658121240E+03  0.12500096802E+03 0.  0.
    9000005    1    3    3    0    0 -0.36309382115E+02  0.31404077890E+02  0.98210347698E+02  0.10931998780E+03  0.10000000000E+01 0.  0.
    9000005    1    3    3    0    0  0.84556447570E+00 -0.20174405777E+02 -0.31299796022E+02  0.37261224600E+02  0.10000000000E+01 0.  0.
         -4    1    1    2    0  502  0.35463817640E+02 -0.11229672114E+02  0.42258686682E+02  0.56313385597E+02  0.12700000000E+01 0.  1.
<mgrwt>
<rscale>  1 0.13041867E+03</rscale>
<asrwt>0</asrwt>
<pdfrwt beam="2">  1       21 0.72092456E-02 0.13041867E+03</pdfrwt>
<pdfrwt beam="1">  1       -4 0.24006234E-01 0.13041867E+03</pdfrwt>
<totfact> 0.92954614E+04</totfact>
</mgrwt>
</event>
<event>
 6    4  0.3189516E-003  0.1266886E+03  0.7818608E-02  0.1232454E+00
          4   -1    0    0  502    0 -0.00000000000E+00  0.00000000000E+00  0.49271198236E+02  0.49287563092E+02  0.12700000000E+01 0.  1.
         21   -1    0    0  501  502  0.00000000000E+00 -0.00000000000E+00 -0.17482124735E+03  0.17482124735E+03  0.00000000000E+00 0.  1.
         25    2    1    2    0    0  0.19603888350E+02  0.63762977706E+01 -0.35284441799E+02  0.13151041750E+03  0.12500011386E+03 0.  0.
    9000005    1    3    3    0    0  0.31724747933E+02  0.57781893093E+02  0.34347445239E+01  0.66015182123E+02  0.10000000000E+01 0.  0.
    9000005    1    3    3    0    0 -0.12120859583E+02 -0.51405595322E+02 -0.38719186323E+02  0.65495235376E+02  0.10000000000E+01 0.  0.
          4    1    1    2  501    0 -0.19603888350E+02 -0.63762977706E+01 -0.90265607314E+02  0.92598392943E+02  0.12700000000E+01 0. -1.
<mgrwt>
<rscale>  1 0.12668859E+03</rscale>
<asrwt>0</asrwt>
<pdfrwt beam="2">  1       21 0.26895577E-01 0.12668859E+03</pdfrwt>
<pdfrwt beam="1">  1        4 0.75817979E-02 0.12668859E+03</pdfrwt>
<totfact> 0.63916260E+04</totfact>
</mgrwt>
</event>
<event>
 6    4  0.3189516E-003  0.1284060E+03  0.7818608E-02  0.1229840E+00
         21   -1    0    0  501  502  0.00000000000E+00  0.00000000000E+00  0.62077438026E+02  0.62077438026E+02  0.00000000000E+00 0.  1.
          4   -1    0    0  502    0 -0.00000000000E+00 -0.00000000000E+00 -0.24846016172E+03  0.24846340749E+03  0.12700000000E+01 0. -1.
         25    2    1    2    0    0  0.12951469186E+02 -0.26373726088E+02 -0.22675781077E+03  0.26059012442E+03  0.12499917686E+03 0.  0.
    9000005    1    3    3    0    0 -0.34355599191E+02  0.34693641315E+02 -0.11276333877E+03  0.12288419961E+03  0.10000000000E+01 0.  0.
    9000005    1    3    3    0    0  0.47307068377E+02 -0.61067367403E+02 -0.11399447200E+03  0.13770592480E+03  0.10000000000E+01 0.  0.
          4    1    1    2  501    0 -0.12951469186E+02  0.26373726088E+02  0.40375087077E+02  0.49950721099E+02  0.12700000000E+01 0.  1.
<mgrwt>
<rscale>  1 0.12840603E+03</rscale>
<asrwt>0</asrwt>
<pdfrwt beam="1">  1       21 0.95503752E-02 0.12840603E+03</pdfrwt>
<pdfrwt beam="2">  1        4 0.38225889E-01 0.12840603E+03</pdfrwt>
<totfact> 0.23668158E+04</totfact>
</mgrwt>
</event>
<event>
 6    4  0.3189516E-003  0.1294437E+03  0.7818608E-02  0.1228284E+00
         21   -1    0    0  501  502  0.00000000000E+00  0.00000000000E+00  0.62209944440E+01  0.62209944440E+01  0.00000000000E+00 0.  1.
         -4   -1    0    0    0  501 -0.00000000000E+00 -0.00000000000E+00 -0.32995016095E+04  0.32995018539E+04  0.12700000000E+01 0. -1.
         25    2    1    2    0    0 -0.20049499519E+02 -0.27020380347E+02 -0.32407087791E+04  0.32432929339E+04  0.12499432253E+03 0.  0.
    9000005    1    3    3    0    0 -0.98074306139E+01 -0.70375557908E+02 -0.12030305715E+04  0.12051275704E+04  0.10000000000E+01 0.  0.
    9000005    1    3    3    0    0 -0.10242068906E+02  0.43355177561E+02 -0.20376782076E+04  0.20381653635E+04  0.10000000000E+01 0.  0.
         -4    1    1    2    0  502  0.20049499519E+02  0.27020380347E+02 -0.52571835929E+02  0.62429914448E+02  0.12700000000E+01 0.  1.
<mgrwt>
<rscale>  1 0.12944367E+03</rscale>
<asrwt>0</asrwt>
<pdfrwt beam="1">  1       21 0.95707435E-03 0.12944367E+03</pdfrwt>
<pdfrwt beam="2">  1       -4 0.50762654E+00 0.12944367E+03</pdfrwt>
<totfact> 0.25566133E+02</totfact>
</mgrwt>
</event>
<event>
 6    4  0.3189516E-003  0.1305303E+03  0.7818608E-02  0.1226671E+00
         21   -1    0    0  501  502  0.00000000000E+00  0.00000000000E+00  0.34092625295E+02  0.34092625295E+02  0.00000000000E+00 0. -1.
         -4   -1    0    0    0  501 -0.00000000000E+00 -0.00000000000E+00 -0.39633650377E+03  0.39633853853E+03  0.12700000000E+01 0.  1.
         25    2    1    2    0    0 -0.33146901317E+02 -0.17732880997E+02 -0.36971669709E+03  0.39208239522E+03  0.12499998560E+03 0.  0.
    9000005    1    3    3    0    0  0.44914372938E+02  0.98772009856E+01 -0.16390182704E+03  0.17023415903E+03  0.10000000000E+01 0.  0.
    9000005    1    3    3    0    0 -0.78061274255E+02 -0.27610081982E+02 -0.20581487005E+03  0.22184823619E+03  0.10000000000E+01 0.  0.
         -4    1    1    2    0  502  0.33146901317E+02  0.17732880997E+02  0.74728186101E+01  0.38348768603E+02  0.12700000000E+01 0. -1.
<mgrwt>
<rscale>  1 0.13053034E+03</rscale>
<asrwt>0</asrwt>
<pdfrwt beam="1">  1       21 0.52450189E-02 0.13053034E+03</pdfrwt>
<pdfrwt beam="2">  1       -4 0.60976827E-01 0.13053034E+03</pdfrwt>
<totfact> 0.25703480E+04</totfact>
</mgrwt>
</event>
<event>
 6    4  0.3189516E-003  0.1268798E+03  0.7818608E-02  0.1232160E+00
          4   -1    0    0  502    0 -0.00000000000E+00  0.00000000000E+00  0.15448303657E+02  0.15500418893E+02  0.12700000000E+01 0. -1.
         21   -1    0    0  501  502  0.00000000000E+00 -0.00000000000E+00 -0.11495808151E+04  0.11495808151E+04  0.00000000000E+00 0. -1.
         25    2    1    2    0    0 -0.16781245110E+02  0.13865502551E+02 -0.24701413522E+03  0.27769490962E+03  0.12499846992E+03 0.  0.
    9000005    1    3    3    0    0 -0.39334737823E+02  0.17557088863E+02 -0.25082964260E+03  0.25450340385E+03  0.10000000000E+01 0.  0.
    9000005    1    3    3    0    0  0.22553492714E+02 -0.36915863112E+01  0.38155073779E+01  0.23191505765E+02  0.10000000000E+01 0.  0.
          4    1    1    2  501    0  0.16781245110E+02 -0.13865502551E+02 -0.88711837619E+03  0.88738632434E+03  0.12700000000E+01 0.  1.
<mgrwt>
<rscale>  1 0.12687978E+03</rscale>
<asrwt>0</asrwt>
<pdfrwt beam="2">  1       21 0.17685867E+00 0.12687978E+03</pdfrwt>
<pdfrwt beam="1">  1        4 0.23807239E-02 0.12687978E+03</pdfrwt>
<totfact> 0.62099239E+03</totfact>
</mgrwt>
</event>
<event>
 6    4  0.3189516E-003  0.1268786E+03  0.7818608E-02  0.1232162E+00
         -4   -1    0    0    0  501 -0.00000000000E+00  0.00000000000E+00  0.20322662165E+02  0.20362305799E+02  0.12700000000E+01 0. -1.
         21   -1    0    0  501  502  0.00000000000E+00 -0.00000000000E+00 -0.33291961005E+03  0.33291961005E+03  0.00000000000E+00 0. -1.
         25    2    1    2    0    0 -0.17330333482E+02  0.13144295249E+02 -0.18809241805E+03  0.22688530274E+03  0.12500027966E+03 0.  0.
    9000005    1    3    3    0    0  0.24435136827E+01 -0.53143111424E+00 -0.20001320305E+03  0.20003133398E+03  0.10000000000E+01 0.  0.
    9000005    1    3    3    0    0 -0.19773847165E+02  0.13675726363E+02  0.11920785000E+02  0.26853968762E+02  0.10000000000E+01 0.  0.
         -4    1    1    2    0  502  0.17330333482E+02 -0.13144295249E+02 -0.12450452984E+03  0.12639661311E+03  0.12700000000E+01 0.  1.
<mgrwt>
<rscale>  1 0.12687861E+03</rscale>
<asrwt>0</asrwt>
<pdfrwt beam="2">  1       21 0.51218400E-01 0.12687861E+03</pdfrwt>
<pdfrwt beam="1">  1       -4 0.31297993E-02 0.12687861E+03</pdfrwt>
<totfact> 0.73788710E+04</totfact>
</mgrwt>
</event>
<event>
 6    4  0.3189516E-003  0.1267133E+03  0.7818608E-02  0.1232416E+00
         21   -1    0    0  501  502  0.00000000000E+00  0.00000000000E+00  0.11667955255E+03  0.11667955255E+03  0.00000000000E+00 0.  1.
         -4   -1    0    0    0  501 -0.00000000000E+00 -0.00000000000E+00 -0.10770637497E+03  0.10771386220E+03  0.12700000000E+01 0. -1.
         25    2    1    2    0    0 -0.19084422916E+02 -0.81997027189E+01 -0.68590592090E+02  0.14408649358E+03  0.12499919195E+03 0.  0.
    9000005    1    3    3    0    0 -0.62148631208E+02  0.52859031200E+01 -0.76023596120E+02  0.98341142458E+02  0.10000000000E+01 0.  0.
    9000005    1    3    3    0    0  0.43064208292E+02 -0.13485605839E+02  0.74330040303E+01  0.45745351126E+02  0.10000000000E+01 0.  0.
         -4    1    1    2    0  502  0.19084422916E+02  0.81997027189E+01  0.77563769667E+02  0.80306921169E+02  0.12700000000E+01 0.  1.
<mgrwt>
<rscale>  1 0.12671325E+03</rscale>
<asrwt>0</asrwt>
<pdfrwt beam="1">  1       21 0.17950700E-01 0.12671325E+03</pdfrwt>
<pdfrwt beam="2">  1       -4 0.16571319E-01 0.12671325E+03</pdfrwt>
<totfact> 0.35956785E+04</totfact>
</mgrwt>
</event>
<event>
 6    4  0.3189516E-003  0.1297751E+03  0.7818608E-02  0.1227790E+00
         21   -1    0    0  501  502  0.00000000000E+00  0.00000000000E+00  0.80116235686E+02  0.80116235686E+02  0.00000000000E+00 0. -1.
          4   -1    0    0  502    0 -0.00000000000E+00 -0.00000000000E+00 -0.17604579497E+03  0.17605037582E+03  0.12700000000E+01 0.  1.
         25    2    1    2    0    0  0.34892029886E+02  0.27325111291E+00 -0.14586243804E+03  0.19523686757E+03  0.12499622080E+03 0.  0.
    9000005    1    3    3    0    0 -0.36802744381E+02 -0.30633556823E+02 -0.79276270832E+02  0.92620645186E+02  0.10000000000E+01 0.  0.
    9000005    1    3    3    0    0  0.71694774267E+02  0.30906807935E+02 -0.66586167207E+02  0.10261622239E+03  0.10000000000E+01 0.  0.
          4    1    1    2  501    0 -0.34892029886E+02 -0.27325111291E+00  0.49932878752E+02  0.60929743936E+02  0.12700000000E+01 0. -1.
<mgrwt>
<rscale>  1 0.12977513E+03</rscale>
<asrwt>0</asrwt>
<pdfrwt beam="1">  1       21 0.12325575E-01 0.12977513E+03</pdfrwt>
<pdfrwt beam="2">  1        4 0.27085095E-01 0.12977513E+03</pdfrwt>
<totfact> 0.29176859E+04</totfact>
</mgrwt>
</event>
<event>
 6    4  0.3189516E-003  0.1274992E+03  0.7818608E-02  0.1231214E+00
         21   -1    0    0  501  502  0.00000000000E+00  0.00000000000E+00  0.10527768202E+03  0.10527768202E+03  0.00000000000E+00 0. -1.
          4   -1    0    0  502    0 -0.00000000000E+00 -0.00000000000E+00 -0.62478501509E+02  0.62491407815E+02  0.12700000000E+01 0. -1.
         25    2    1    2    0    0 -0.96863599877E+01  0.23181825694E+02  0.12089290494E+02  0.12807106901E+03  0.12499930064E+03 0.  0.
    9000005    1    3    3    0    0 -0.58500329555E+01 -0.12743627786E+02  0.63605425477E+02  0.65140410536E+02  0.10000000000E+01 0.  0.
    9000005    1    3    3    0    0 -0.38363270322E+01  0.35925453479E+02 -0.51516134983E+02  0.62930658477E+02  0.10000000000E+01 0.  0.
          4    1    1    2  501    0  0.96863599877E+01 -0.23181825694E+02  0.30709890016E+02  0.39698020821E+02  0.12700000000E+01 0.  1.
<mgrwt>
<rscale>  1 0.12749921E+03</rscale>
<asrwt>0</asrwt>
<pdfrwt beam="1">  1       21 0.16196566E-01 0.12749921E+03</pdfrwt>
<pdfrwt beam="2">  1        4 0.96136592E-02 0.12749921E+03</pdfrwt>
<totfact> 0.11052279E+05</totfact>
</mgrwt>
</event>
<event>
 6    4  0.3189516E-003  0.1271451E+03  0.7818608E-02  0.1231754E+00
         21   -1    0    0  501  502  0.00000000000E+00  0.00000000000E+00  0.12692289524E+03  0.12692289524E+03  0.00000000000E+00 0. -1.
          4   -1    0    0  502    0 -0.00000000000E+00 -0.00000000000E+00 -0.76611418197E+02  0.76621943972E+02  0.12700000000E+01 0.  1.
         25    2    1    2    0    0 -0.13946567918E+02 -0.18621840297E+02 -0.20690453133E+02  0.12881755717E+03  0.12499835395E+03 0.  0.
    9000005    1    3    3    0    0 -0.10686200809E+02 -0.72432329262E+02 -0.11448915195E+02  0.74112852254E+02  0.10000000000E+01 0.  0.
    9000005    1    3    3    0    0 -0.32603671098E+01  0.53810488965E+02 -0.92415379388E+01  0.54704704915E+02  0.10000000000E+01 0.  0.
          4    1    1    2  501    0  0.13946567918E+02  0.18621840297E+02  0.71001930177E+02  0.74727282043E+02  0.12700000000E+01 0. -1.
<mgrwt>
<rscale>  1 0.12714507E+03</rscale>
<asrwt>0</asrwt>
<pdfrwt beam="1">  1       21 0.19526599E-01 0.12714507E+03</pdfrwt>
<pdfrwt beam="2">  1        4 0.11787670E-01 0.12714507E+03</pdfrwt>
<totfact> 0.55602429E+04</totfact>
</mgrwt>
</event>
<event>
 6    4  0.3189516E-003  0.1275232E+03  0.7818608E-02  0.1231178E+00
         21   -1    0    0  501  502  0.00000000000E+00  0.00000000000E+00  0.77359189170E+02  0.77359189170E+02  0.00000000000E+00 0.  1.
         -4   -1    0    0    0  501 -0.00000000000E+00 -0.00000000000E+00 -0.78824997492E+02  0.78835227719E+02  0.12700000000E+01 0.  1.
         25    2    1    2    0    0  0.22345438127E+02  0.11717634185E+02 -0.13454171224E+02  0.12823095321E+03  0.12500216431E+03 0.  0.
    9000005    1    3    3    0    0  0.55565754442E+02 -0.59894148944E+01  0.35688898801E+02  0.66318350818E+02  0.10000000000E+01 0.  0.
    9000005    1    3    3    0    0 -0.33220316315E+02  0.17707049080E+02 -0.49143070025E+02  0.61912602390E+02  0.10000000000E+01 0.  0.
         -4    1    1    2    0  502 -0.22345438127E+02 -0.11717634185E+02  0.11988362902E+02  0.27963463681E+02  0.12700000000E+01 0. -1.
<mgrwt>
<rscale>  1 0.12752318E+03</rscale>
<asrwt>0</asrwt>
<pdfrwt beam="1">  1       21 0.11901414E-01 0.12752318E+03</pdfrwt>
<pdfrwt beam="2">  1       -4 0.12128511E-01 0.12752318E+03</pdfrwt>
<totfact> 0.12950917E+05</totfact>
</mgrwt>
</event>
<event>
 6    4  0.3189516E-003  0.1384294E+03  0.7818608E-02  0.1215458E+00
         21   -1    0    0  501  502  0.00000000000E+00  0.00000000000E+00  0.63216637460E+03  0.63216637460E+03  0.00000000000E+00 0.  1.
          4   -1    0    0  502    0 -0.00000000000E+00 -0.00000000000E+00 -0.32996266073E+02  0.33020697672E+02  0.12700000000E+01 0. -1.
         25    2    1    2    0    0 -0.57373807179E+02  0.15697048112E+02  0.12259150759E+03  0.18490910397E+03  0.12499819169E+03 0.  0.
    9000005    1    3    3    0    0  0.27280744431E+02 -0.57699330348E+01  0.85646334809E+02  0.90076777308E+02  0.10000000000E+01 0.  0.
    9000005    1    3    3    0    0 -0.84654551610E+02  0.21466981147E+02  0.36945172785E+02  0.94832326661E+02  0.10000000000E+01 0.  0.
          4    1    1    2  501    0  0.57373807179E+02 -0.15697048112E+02  0.47657860094E+03  0.48027796831E+03  0.12700000000E+01 0.  1.
<mgrwt>
<rscale>  1 0.13842940E+03</rscale>
<asrwt>0</asrwt>
<pdfrwt beam="1">  1       21 0.97256357E-01 0.13842940E+03</pdfrwt>
<pdfrwt beam="2">  1        4 0.50783266E-02 0.13842940E+03</pdfrwt>
<totfact> 0.84675086E+03</totfact>
</mgrwt>
</event>
<event>
 6    4  0.3189516E-003  0.1299296E+03  0.7818608E-02  0.1227560E+00
         21   -1    0    0  501  502  0.00000000000E+00  0.00000000000E+00  0.18271786667E+02  0.18271786667E+02  0.00000000000E+00 0. -1.
         -4   -1    0    0    0  501 -0.00000000000E+00 -0.00000000000E+00 -0.65139142093E+03  0.65139265897E+03  0.12700000000E+01 0. -1.
         25    2    1    2    0    0 -0.13215526950E+02  0.32888262401E+02 -0.61730656383E+03  0.63083206156E+03  0.12500163275E+03 0.  0.
    9000005    1    3    3    0    0  0.32241099418E+02  0.64315487634E+02 -0.28393577668E+03  0.29291038855E+03  0.10000000000E+01 0.  0.
    9000005    1    3    3    0    0 -0.45456626368E+02 -0.31427225233E+02 -0.33337078716E+03  0.33792167302E+03  0.10000000000E+01 0.  0.
         -4    1    1    2    0  502  0.13215526950E+02 -0.32888262401E+02 -0.15813070429E+02  0.38832384072E+02  0.12700000000E+01 0.  1.
<mgrwt>
<rscale>  1 0.12992958E+03</rscale>
<asrwt>0</asrwt>
<pdfrwt beam="1">  1       21 0.28110441E-02 0.12992958E+03</pdfrwt>
<pdfrwt beam="2">  1       -4 0.10021756E+00 0.12992958E+03</pdfrwt>
<totfact> 0.24220085E+04</totfact>
</mgrwt>
</event>
<event>
 6    4  0.3189516E-003  0.1623673E+03  0.7818608E-02  0.1186050E+00
          4   -1    0    0  502    0 -0.00000000000E+00  0.00000000000E+00  0.31382041094E+03  0.31382298072E+03  0.12700000000E+01 0. -1.
         21   -1    0    0  501  502  0.00000000000E+00 -0.00000000000E+00 -0.76997093328E+02  0.76997093328E+02  0.00000000000E+00 0.  1.
         25    2    1    2    0    0  0.15120963788E+02 -0.10251572781E+03  0.23688281841E+03  0.28718738405E+03  0.12500002362E+03 0.  0.
    9000005    1    3    3    0    0 -0.47472606811E+02 -0.58434320806E+02  0.16839248936E+03  0.18445934164E+03  0.10000000000E+01 0.  0.
    9000005    1    3    3    0    0  0.62593570599E+02 -0.44081407007E+02  0.68490329057E+02  0.10272804241E+03  0.10000000000E+01 0.  0.
          4    1    1    2  501    0 -0.15120963788E+02  0.10251572781E+03 -0.59500795585E-01  0.10363268999E+03  0.12700000000E+01 0.  1.
<mgrwt>
<rscale>  1 0.16236725E+03</rscale>
<asrwt>0</asrwt>
<pdfrwt beam="2">  1       21 0.11845707E-01 0.16236725E+03</pdfrwt>
<pdfrwt beam="1">  1        4 0.48281066E-01 0.16236725E+03</pdfrwt>
<totfact> 0.10397643E+04</totfact>
</mgrwt>
</event>
<event>
 6    4  0.3189516E-003  0.1339482E+03  0.7818608E-02  0.1221712E+00
         21   -1    0    0  501  502  0.00000000000E+00  0.00000000000E+00  0.28168138718E+03  0.28168138718E+03  0.00000000000E+00 0.  1.
          4   -1    0    0  502    0 -0.00000000000E+00 -0.00000000000E+00 -0.15044128327E+03  0.15044664374E+03  0.12700000000E+01 0. -1.
         25    2    1    2    0    0 -0.43505663724E+02  0.20591798221E+02 -0.11785924820E+03  0.17841783197E+03  0.12500142179E+03 0.  0.
    9000005    1    3    3    0    0 -0.48680499355E+02 -0.37997029710E+02 -0.98921617759E+02  0.11661925975E+03  0.10000000000E+01 0.  0.
    9000005    1    3    3    0    0  0.51748356310E+01  0.58588827931E+02 -0.18937630444E+02  0.61798572224E+02  0.10000000000E+01 0.  0.
          4    1    1    2  501    0  0.43505663724E+02 -0.20591798221E+02  0.24909935210E+03  0.25371019895E+03  0.12700000000E+01 0.  1.
<mgrwt>
<rscale>  1 0.13394820E+03</rscale>
<asrwt>0</asrwt>
<pdfrwt beam="1">  1       21 0.43335598E-01 0.13394820E+03</pdfrwt>
<pdfrwt beam="2">  1        4 0.23145445E-01 0.13394820E+03</pdfrwt>
<totfact> 0.36611575E+03</totfact>
</mgrwt>
</event>
<event>
 6    4  0.3189516E-003  0.1532406E+03  0.7818608E-02  0.1196547E+00
         21   -1    0    0  501  502  0.00000000000E+00  0.00000000000E+00  0.11700024361E+04  0.11700024361E+04  0.00000000000E+00 0.  1.
         -4   -1    0    0    0  501 -0.00000000000E+00 -0.00000000000E+00 -0.27662662719E+02  0.27691800388E+02  0.12700000000E+01 0. -1.
         25    2    1    2    0    0  0.42404651239E+02 -0.77843519902E+02  0.20383974042E+03  0.25501629954E+03  0.12499962088E+03 0.  0.
    9000005    1    3    3    0    0 -0.51316706510E+01  0.62819811273E+01 -0.14277900052E+02  0.16451618779E+02  0.10000000000E+01 0.  0.
    9000005    1    3    3    0    0  0.47536321890E+02 -0.84125501030E+02  0.21811764047E+03  0.23856468076E+03  0.10000000000E+01 0.  0.
         -4    1    1    2    0  502 -0.42404651239E+02  0.77843519902E+02  0.93850003293E+03  0.94267793692E+03  0.12700000000E+01 0.  1.
<mgrwt>
<rscale>  1 0.15324057E+03</rscale>
<asrwt>0</asrwt>
<pdfrwt beam="1">  1       21 0.18000034E+00 0.15324057E+03</pdfrwt>
<pdfrwt beam="2">  1       -4 0.42580895E-02 0.15324057E+03</pdfrwt>
<totfact> 0.23766368E+03</totfact>
</mgrwt>
</event>
<event>
 6    4  0.3189516E-003  0.1304275E+03  0.7818608E-02  0.1226823E+00
         21   -1    0    0  501  502  0.00000000000E+00  0.00000000000E+00  0.11018040812E+02  0.11018040812E+02  0.00000000000E+00 0. -1.
         -4   -1    0    0    0  501 -0.00000000000E+00 -0.00000000000E+00 -0.68792243585E+03  0.68792360814E+03  0.12700000000E+01 0. -1.
         25    2    1    2    0    0 -0.30456749573E+02  0.21410423961E+02 -0.43326106923E+03  0.45246710066E+03  0.12500121288E+03 0.  0.
    9000005    1    3    3    0    0 -0.16567971134E+02 -0.13746572167E+02 -0.44678168653E+01  0.22009709253E+02  0.10000000000E+01 0.  0.
    9000005    1    3    3    0    0 -0.13888778439E+02  0.35156996128E+02 -0.42879325236E+03  0.43045739140E+03  0.10000000000E+01 0.  0.
         -4    1    1    2    0  502  0.30456749573E+02 -0.21410423961E+02 -0.24364332581E+03  0.24647454830E+03  0.12700000000E+01 0.  1.
<mgrwt>
<rscale>  1 0.13042746E+03</rscale>
<asrwt>0</asrwt>
<pdfrwt beam="1">  1       21 0.16950831E-02 0.13042746E+03</pdfrwt>
<pdfrwt beam="2">  1       -4 0.10583995E+00 0.13042746E+03</pdfrwt>
<totfact> 0.48410768E+04</totfact>
</mgrwt>
</event>
<event>
 6    4  0.3189516E-003  0.1282073E+03  0.7818608E-02  0.1230140E+00
         21   -1    0    0  501  502  0.00000000000E+00  0.00000000000E+00  0.23082078008E+03  0.23082078008E+03  0.00000000000E+00 0. -1.
          4   -1    0    0  502    0 -0.00000000000E+00 -0.00000000000E+00 -0.75680294434E+02  0.75690949695E+02  0.12700000000E+01 0.  1.
         25    2    1    2    0    0  0.26200653748E+02 -0.11225262680E+02 -0.19389227584E+02  0.12966514519E+03  0.12499850780E+03 0.  0.
    9000005    1    3    3    0    0  0.28416519625E+02  0.43889976672E+02 -0.44860070942E+02  0.68900323692E+02  0.10000000000E+01 0.  0.
    9000005    1    3    3    0    0 -0.22158658778E+01 -0.55115239352E+02  0.25470843358E+02  0.60764821499E+02  0.10000000000E+01 0.  0.
          4    1    1    2  501    0 -0.26200653748E+02  0.11225262680E+02  0.17452971323E+03  0.17684658458E+03  0.12700000000E+01 0. -1.
<mgrwt>
<rscale>  1 0.12820728E+03</rscale>
<asrwt>0</asrwt>
<pdfrwt beam="1">  1       21 0.35510889E-01 0.12820728E+03</pdfrwt>
<pdfrwt beam="2">  1        4 0.11644211E-01 0.12820728E+03</pdfrwt>
<totfact> 0.18219181E+04</totfact>
</mgrwt>
</event>
<event>
 6    4  0.3189516E-003  0.1327999E+03  0.7818608E-02  0.1223359E+00
         21   -1    0    0  501  502  0.00000000000E+00  0.00000000000E+00  0.44581077164E+03  0.44581077164E+03  0.00000000000E+00 0.  1.
          4   -1    0    0  502    0 -0.00000000000E+00 -0.00000000000E+00 -0.50918247578E+02  0.50934083249E+02  0.12700000000E+01 0.  1.
         25    2    1    2    0    0 -0.41421037970E+02 -0.17141097113E+02  0.39522303288E+02  0.13855618071E+03  0.12500513253E+03 0.  0.
    9000005    1    3    3    0    0  0.26572298277E+02 -0.82502963860E+01 -0.29981015732E+02  0.40914737327E+02  0.10000000000E+01 0.  0.
    9000005    1    3    3    0    0 -0.67993336247E+02 -0.88908007274E+01  0.69503319020E+02  0.97641443385E+02  0.10000000000E+01 0.  0.
          4    1    1    2  501    0  0.41421037970E+02  0.17141097113E+02  0.35537022078E+03  0.35818867418E+03  0.12700000000E+01 0. -1.
<mgrwt>
<rscale>  1 0.13279986E+03</rscale>
<asrwt>0</asrwt>
<pdfrwt beam="1">  1       21 0.68586270E-01 0.13279986E+03</pdfrwt>
<pdfrwt beam="2">  1        4 0.78349341E-02 0.13279986E+03</pdfrwt>
<totfact> 0.91319402E+03</totfact>
</mgrwt>
</event>
<event>
 6    4  0.3189516E-003  0.1332084E+03  0.7818608E-02  0.1222771E+00
         21   -1    0    0  501  502  0.00000000000E+00  0.00000000000E+00  0.84285310350E+01  0.84285310350E+01  0.00000000000E+00 0. -1.
          4   -1    0    0  502    0 -0.00000000000E+00 -0.00000000000E+00 -0.14707616742E+04  0.14707622226E+04  0.12700000000E+01 0.  1.
         25    2    1    2    0    0  0.45346967140E+02  0.71127408131E+01 -0.13659304280E+04  0.13724104422E+04  0.12505018633E+03 0.  0.
    9000005    1    3    3    0    0  0.72109706999E+02  0.46312341318E+02 -0.89216438526E+03  0.89627168489E+03  0.10000000000E+01 0.  0.
    9000005    1    3    3    0    0 -0.26762739859E+02 -0.39199600505E+02 -0.47376604279E+03  0.47613875732E+03  0.10000000000E+01 0.  0.
          4    1    1    2  501    0 -0.45346967140E+02 -0.71127408131E+01 -0.96402715156E+02  0.10678031139E+03  0.12700000000E+01 0. -1.
<mgrwt>
<rscale>  1 0.13320844E+03</rscale>
<asrwt>0</asrwt>
<pdfrwt beam="1">  1       21 0.12966970E-02 0.13320844E+03</pdfrwt>
<pdfrwt beam="2">  1        4 0.22627845E+00 0.13320844E+03</pdfrwt>
<totfact> 0.10215857E+04</totfact>
</mgrwt>
</event>
<event>
 6    4  0.3189516E-003  0.1307920E+03  0.7818608E-02  0.1226285E+00
         21   -1    0    0  501  502  0.00000000000E+00  0.00000000000E+00  0.15685141412E+03  0.15685141412E+03  0.00000000000E+00 0.  1.
          4   -1    0    0  502    0 -0.00000000000E+00 -0.00000000000E+00 -0.50307983473E+02  0.50324011179E+02  0.12700000000E+01 0.  1.
         25    2    1    2    0    0  0.10798501362E+02 -0.36955770140E+02  0.52789571092E+02  0.14104353515E+03  0.12499681361E+03 0.  0.
    9000005    1    3    3    0    0 -0.44914175691E+02 -0.40681320094E+02 -0.48323794590E+01  0.60799711133E+02  0.10000000000E+01 0.  0.
    9000005    1    3    3    0    0  0.55712677053E+02  0.37255499543E+01  0.57621950551E+02  0.80243824013E+02  0.10000000000E+01 0.  0.
          4    1    1    2  501    0 -0.10798501362E+02  0.36955770140E+02  0.53753859559E+02  0.66131890157E+02  0.12700000000E+01 0. -1.
<mgrwt>
<rscale>  1 0.13079197E+03</rscale>
<asrwt>0</asrwt>
<pdfrwt beam="1">  1       21 0.24130987E-01 0.13079197E+03</pdfrwt>
<pdfrwt beam="2">  1        4 0.77413182E-02 0.13079197E+03</pdfrwt>
<totfact> 0.76143950E+04</totfact>
</mgrwt>
</event>
<event>
 6    4  0.3189516E-003  0.1311119E+03  0.7818608E-02  0.1225815E+00
         21   -1    0    0  501  502  0.00000000000E+00  0.00000000000E+00  0.31523047068E+03  0.31523047068E+03  0.00000000000E+00 0. -1.
         -4   -1    0    0    0  501 -0.00000000000E+00 -0.00000000000E+00 -0.25010785518E+02  0.25043008849E+02  0.12700000000E+01 0. -1.
         25    2    1    2    0    0  0.33361519460E+02  0.21279586705E+02  0.17657213090E+03  0.21992734839E+03  0.12499803745E+03 0.  0.
    9000005    1    3    3    0    0 -0.20616773884E+02  0.48555743731E+02  0.13910961040E+03  0.14877901505E+03  0.10000000000E+01 0.  0.
    9000005    1    3    3    0    0  0.53978293344E+02 -0.27276157026E+02  0.37462520508E+02  0.71148333341E+02  0.10000000000E+01 0.  0.
         -4    1    1    2    0  502 -0.33361519460E+02 -0.21279586705E+02  0.11364755426E+03  0.12034613114E+03  0.12700000000E+01 0.  1.
<mgrwt>
<rscale>  1 0.13111187E+03</rscale>
<asrwt>0</asrwt>
<pdfrwt beam="1">  1       21 0.48496993E-01 0.13111187E+03</pdfrwt>
<pdfrwt beam="2">  1       -4 0.38504889E-02 0.13111187E+03</pdfrwt>
<totfact> 0.59806930E+04</totfact>
</mgrwt>
</event>
<event>
 6    4  0.3189516E-003  0.1268856E+03  0.7818608E-02  0.1232152E+00
          4   -1    0    0  502    0 -0.00000000000E+00  0.00000000000E+00  0.56041101856E+03  0.56041245759E+03  0.12700000000E+01 0.  1.
         21   -1    0    0  501  502  0.00000000000E+00 -0.00000000000E+00 -0.13374964939E+02  0.13374964939E+02  0.00000000000E+00 0.  1.
         25    2    1    2    0    0 -0.21613012364E+02  0.25275548992E+01  0.53292297718E+03  0.54782008413E+03  0.12500573637E+03 0.  0.
    9000005    1    3    3    0    0 -0.27355343571E+02  0.37794379161E+02  0.48885623327E+03  0.49107855454E+03  0.10000000000E+01 0.  0.
    9000005    1    3    3    0    0  0.57423312066E+01 -0.35266824262E+02  0.44066743911E+02  0.56741529589E+02  0.10000000000E+01 0.  0.
          4    1    1    2  501    0  0.21613012364E+02 -0.25275548992E+01  0.14113076440E+02  0.25967338405E+02  0.12700000000E+01 0. -1.
<mgrwt>
<rscale>  1 0.12688556E+03</rscale>
<asrwt>0</asrwt>
<pdfrwt beam="2">  1       21 0.20576874E-02 0.12688556E+03</pdfrwt>
<pdfrwt beam="1">  1        4 0.86221810E-01 0.12688556E+03</pdfrwt>
<totfact> 0.56421030E+04</totfact>
</mgrwt>
</event>
<event>
 6    4  0.3189516E-003  0.1372597E+03  0.7818608E-02  0.1217065E+00
         -4   -1    0    0    0  501 -0.00000000000E+00  0.00000000000E+00  0.10628190860E+02  0.10703800304E+02  0.12700000000E+01 0. -1.
         21   -1    0    0  501  502  0.00000000000E+00 -0.00000000000E+00 -0.89674998843E+03  0.89674998843E+03  0.00000000000E+00 0. -1.
         25    2    1    2    0    0 -0.13225052326E+01 -0.56686019827E+02 -0.67721249356E+03  0.69098262653E+03  0.12500069947E+03 0.  0.
    9000005    1    3    3    0    0  0.12655081783E+02 -0.92482133463E+02 -0.38017041744E+03  0.39146346241E+03  0.10000000000E+01 0.  0.
    9000005    1    3    3    0    0 -0.13977587015E+02  0.35796113636E+02 -0.29704207612E+03  0.29951916412E+03  0.10000000000E+01 0.  0.
         -4    1    1    2    0  502  0.13225052326E+01  0.56686019827E+02 -0.20890930400E+03  0.21647116220E+03  0.12700000000E+01 0. -1.
<mgrwt>
<rscale>  1 0.13725971E+03</rscale>
<asrwt>0</asrwt>
<pdfrwt beam="2">  1       21 0.13796152E+00 0.13725971E+03</pdfrwt>
<pdfrwt beam="1">  1       -4 0.16409918E-02 0.13725971E+03</pdfrwt>
<totfact> 0.21250639E+04</totfact>
</mgrwt>
</event>
<event>
 6    4  0.3189516E-003  0.1268444E+03  0.7818608E-02  0.1232215E+00
          4   -1    0    0  502    0 -0.00000000000E+00  0.00000000000E+00  0.33837124855E+03  0.33837363187E+03  0.12700000000E+01 0. -1.
         21   -1    0    0  501  502  0.00000000000E+00 -0.00000000000E+00 -0.27660755448E+02  0.27660755448E+02  0.00000000000E+00 0.  1.
         25    2    1    2    0    0  0.21249654344E+02 -0.35549142512E+01  0.31870458058E+03  0.34301909763E+03  0.12500122570E+03 0.  0.
    9000005    1    3    3    0    0  0.68533012501E+01  0.58745593672E+02  0.19482426791E+03  0.20360625697E+03  0.10000000000E+01 0.  0.
    9000005    1    3    3    0    0  0.14396353094E+02 -0.62300507923E+02  0.12388031268E+03  0.13941284065E+03  0.10000000000E+01 0.  0.
          4    1    1    2  501    0 -0.21249654344E+02  0.35549142512E+01 -0.79940874793E+01  0.23015289694E+02  0.12700000000E+01 0.  1.
<mgrwt>
<rscale>  1 0.12684436E+03</rscale>
<asrwt>0</asrwt>
<pdfrwt beam="2">  1       21 0.42555011E-02 0.12684436E+03</pdfrwt>
<pdfrwt beam="1">  1        4 0.52059538E-01 0.12684436E+03</pdfrwt>
<totfact> 0.50464807E+04</totfact>
</mgrwt>
</event>
<event>
 6    4  0.3189516E-003  0.1273485E+03  0.7818608E-02  0.1231444E+00
         21   -1    0    0  501  502  0.00000000000E+00  0.00000000000E+00  0.66413489046E+02  0.66413489046E+02  0.00000000000E+00 0.  1.
          4   -1    0    0  502    0 -0.00000000000E+00 -0.00000000000E+00 -0.10826503502E+03  0.10827248362E+03  0.12700000000E+01 0.  1.
         25    2    1    2    0    0 -0.24362567309E+02  0.22165987418E+01 -0.63221883258E+02  0.14217824725E+03  0.12497679574E+03 0.  0.
    9000005    1    3    3    0    0 -0.37363375005E+02  0.42434655531E+02  0.10192837526E+02  0.57459687770E+02  0.10000000000E+01 0.  0.
    9000005    1    3    3    0    0  0.13000807696E+02 -0.40218056789E+02 -0.73414720784E+02  0.84718559480E+02  0.10000000000E+01 0.  0.
          4    1    1    2  501    0  0.24362567309E+02 -0.22165987418E+01  0.21370337282E+02  0.32507725411E+02  0.12700000000E+01 0. -1.
<mgrwt>
<rscale>  1 0.12734853E+03</rscale>
<asrwt>0</asrwt>
<pdfrwt beam="1">  1       21 0.10217460E-01 0.12734853E+03</pdfrwt>
<pdfrwt beam="2">  1        4 0.16657666E-01 0.12734853E+03</pdfrwt>
<totfact> 0.97666692E+04</totfact>
</mgrwt>
</event>
<event>
 6    4  0.3189516E-003  0.1291763E+03  0.7818608E-02  0.1228683E+00
         -4   -1    0    0    0  501 -0.00000000000E+00  0.00000000000E+00  0.16272951188E+02  0.16322433653E+02  0.12700000000E+01 0. -1.
         21   -1    0    0  501  502  0.00000000000E+00 -0.00000000000E+00 -0.11251243961E+04  0.11251243961E+04  0.00000000000E+00 0.  1.
         25    2    1    2    0    0  0.56325993006E+00  0.32584942136E+02 -0.24489975777E+03  0.27687975524E+03  0.12499764714E+03 0.  0.
    9000005    1    3    3    0    0  0.16258318591E+02  0.77481982351E+02 -0.17775206921E+03  0.19458825407E+03  0.10000000000E+01 0.  0.
    9000005    1    3    3    0    0 -0.15695058661E+02 -0.44897040215E+02 -0.67147688558E+02  0.82291501172E+02  0.10000000000E+01 0.  0.
         -4    1    1    2    0  502 -0.56325993006E+00 -0.32584942136E+02 -0.86395168718E+03  0.86456707455E+03  0.12700000000E+01 0.  1.
<mgrwt>
<rscale>  1 0.12917627E+03</rscale>
<asrwt>0</asrwt>
<pdfrwt beam="2">  1       21 0.17309604E+00 0.12917627E+03</pdfrwt>
<pdfrwt beam="1">  1       -4 0.25073927E-02 0.12917627E+03</pdfrwt>
<totfact> 0.60804085E+03</totfact>
</mgrwt>
</event>
<event>
 6    4  0.3189516E-003  0.1281687E+03  0.7818608E-02  0.1230199E+00
         21   -1    0    0  501  502  0.00000000000E+00  0.00000000000E+00  0.49785614030E+03  0.49785614030E+03  0.00000000000E+00 0. -1.
          4   -1    0    0  502    0 -0.00000000000E+00 -0.00000000000E+00 -0.13264725538E+02  0.13325383432E+02  0.12700000000E+01 0. -1.
         25    2    1    2    0    0  0.22330912226E+02  0.17407152329E+02  0.44049213994E+03  0.45875979605E+03  0.12500218611E+03 0.  0.
    9000005    1    3    3    0    0  0.15231971921E+02 -0.12527250452E+01  0.43839274119E+03  0.43866020769E+03  0.10000000000E+01 0.  0.
    9000005    1    3    3    0    0  0.70989403048E+01  0.18659877375E+02  0.20993987522E+01  0.20099588359E+02  0.10000000000E+01 0.  0.
          4    1    1    2  501    0 -0.22330912226E+02 -0.17407152329E+02  0.44099274828E+02  0.52421727685E+02  0.12700000000E+01 0.  1.
<mgrwt>
<rscale>  1 0.12816874E+03</rscale>
<asrwt>0</asrwt>
<pdfrwt beam="1">  1       21 0.76593238E-01 0.12816874E+03</pdfrwt>
<pdfrwt beam="2">  1        4 0.20455180E-02 0.12816874E+03</pdfrwt>
<totfact> 0.60459000E+04</totfact>
</mgrwt>
</event>
<event>
 6    4  0.3189516E-003  0.1380214E+03  0.7818608E-02  0.1216016E+00
         21   -1    0    0  501  502  0.00000000000E+00  0.00000000000E+00  0.97273512321E+02  0.97273512321E+02  0.00000000000E+00 0.  1.
          4   -1    0    0  502    0 -0.00000000000E+00 -0.00000000000E+00 -0.10920252760E+03  0.10920991225E+03  0.12700000000E+01 0.  1.
         25    2    1    2    0    0 -0.57475060396E+01  0.58250485728E+02 -0.36845530355E+02  0.14285482615E+03  0.12499502124E+03 0.  0.
    9000005    1    3    3    0    0  0.33056553533E+02  0.10009684849E+02 -0.65937365913E+02  0.74442365262E+02  0.10000000000E+01 0.  0.
    9000005    1    3    3    0    0 -0.38804059573E+02  0.48240800879E+02  0.29091835558E+02  0.68412460889E+02  0.10000000000E+01 0.  0.
          4    1    1    2  501    0  0.57475060396E+01 -0.58250485728E+02  0.24916515079E+02  0.63628598420E+02  0.12700000000E+01 0. -1.
<mgrwt>
<rscale>  1 0.13802141E+03</rscale>
<asrwt>0</asrwt>
<pdfrwt beam="1">  1       21 0.14965156E-01 0.13802141E+03</pdfrwt>
<pdfrwt beam="2">  1        4 0.16801594E-01 0.13802141E+03</pdfrwt>
<totfact> 0.49326531E+04</totfact>
</mgrwt>
</event>
<event>
 6    4  0.3189516E-003  0.1437549E+03  0.7818608E-02  0.1208364E+00
         -4   -1    0    0    0  501 -0.00000000000E+00  0.00000000000E+00  0.12257980219E+02  0.12323594405E+02  0.12700000000E+01 0. -1.
         21   -1    0    0  501  502  0.00000000000E+00 -0.00000000000E+00 -0.94379125705E+03  0.94379125705E+03  0.00000000000E+00 0. -1.
         25    2    1    2    0    0 -0.36409124714E+02  0.60980529738E+02 -0.58841833803E+03  0.60572403608E+03  0.12498487104E+03 0.  0.
    9000005    1    3    3    0    0 -0.51661652006E+02  0.92140425542E+02 -0.49295792691E+03  0.50415007886E+03  0.10000000000E+01 0.  0.
    9000005    1    3    3    0    0  0.15252527292E+02 -0.31159895804E+02 -0.95460411117E+02  0.10157395722E+03  0.10000000000E+01 0.  0.
         -4    1    1    2    0  502  0.36409124714E+02 -0.60980529738E+02 -0.34311493880E+03  0.35039081537E+03  0.12700000000E+01 0.  1.
<mgrwt>
<rscale>  1 0.14375489E+03</rscale>
<asrwt>0</asrwt>
<pdfrwt beam="2">  1       21 0.14519868E+00 0.14375489E+03</pdfrwt>
<pdfrwt beam="1">  1       -4 0.18909558E-02 0.14375489E+03</pdfrwt>
<totfact> 0.15038966E+04</totfact>
</mgrwt>
</event>
<event>
 6    4  0.3189516E-003  0.1300140E+03  0.7818608E-02  0.1227435E+00
         21   -1    0    0  501  502  0.00000000000E+00  0.00000000000E+00  0.12490749326E+02  0.12490749326E+02  0.00000000000E+00 0. -1.
          4   -1    0    0  502    0 -0.00000000000E+00 -0.00000000000E+00 -0.67789528248E+03  0.67789647212E+03  0.12700000000E+01 0. -1.
         25    2    1    2    0    0 -0.90928199258E+01  0.34589928569E+02 -0.35745623449E+03  0.38036639943E+03  0.12499798281E+03 0.  0.
    9000005    1    3    3    0    0  0.24739290372E+02  0.47025547202E+02 -0.33200086987E+03  0.33622761959E+03  0.10000000000E+01 0.  0.
    9000005    1    3    3    0    0 -0.33832110298E+02 -0.12435618633E+02 -0.25455364616E+02  0.44138779840E+02  0.10000000000E+01 0.  0.
          4    1    1    2  501    0  0.90928199258E+01 -0.34589928569E+02 -0.30794829867E+03  0.31002082202E+03  0.12700000000E+01 0.  1.
<mgrwt>
<rscale>  1 0.13001399E+03</rscale>
<asrwt>0</asrwt>
<pdfrwt beam="1">  1       21 0.19216534E-02 0.13001399E+03</pdfrwt>
<pdfrwt beam="2">  1        4 0.10429666E+00 0.13001399E+03</pdfrwt>
<totfact> 0.40933080E+04</totfact>
</mgrwt>
</event>
<event>
 6    4  0.3189516E-003  0.1437762E+03  0.7818608E-02  0.1208336E+00
         -4   -1    0    0    0  501 -0.00000000000E+00  0.00000000000E+00  0.40273431727E+02  0.40293451119E+02  0.12700000000E+01 0.  1.
         21   -1    0    0  501  502  0.00000000000E+00 -0.00000000000E+00 -0.35639325961E+03  0.35639325961E+03  0.00000000000E+00 0. -1.
         25    2    1    2    0    0 -0.63472191761E+02  0.31905130696E+02 -0.11730952781E+03  0.18556161794E+03  0.12499972898E+03 0.  0.
    9000005    1    3    3    0    0 -0.47772015068E+02 -0.40007171876E+02 -0.24166338406E+02  0.66841238298E+02  0.10000000000E+01 0.  0.
    9000005    1    3    3    0    0 -0.15700176693E+02  0.71912302572E+02 -0.93143189408E+02  0.11872037964E+03  0.10000000000E+01 0.  0.
         -4    1    1    2    0  502  0.63472191761E+02 -0.31905130696E+02 -0.19881030007E+03  0.21112509279E+03  0.12700000000E+01 0. -1.
<mgrwt>
<rscale>  1 0.14377618E+03</rscale>
<asrwt>0</asrwt>
<pdfrwt beam="2">  1       21 0.54829732E-01 0.14377618E+03</pdfrwt>
<pdfrwt beam="1">  1       -4 0.61976266E-02 0.14377618E+03</pdfrwt>
<totfact> 0.21774932E+04</totfact>
</mgrwt>
</event>
<event>
 6    4  0.3189516E-003  0.1272740E+03  0.7818608E-02  0.1231558E+00
         -4   -1    0    0    0  501 -0.00000000000E+00  0.00000000000E+00  0.54924736935E+03  0.54924883763E+03  0.12700000000E+01 0. -1.
         21   -1    0    0  501  502  0.00000000000E+00 -0.00000000000E+00 -0.11426471712E+02  0.11426471712E+02  0.00000000000E+00 0. -1.
         25    2    1    2    0    0  0.23195595916E+02 -0.59468110672E+01  0.49958444102E+03  0.51554173264E+03  0.12500105657E+03 0.  0.
    9000005    1    3    3    0    0  0.14319299594E+02  0.13668563327E+02  0.49243456891E+03  0.49283331525E+03  0.10000000000E+01 0.  0.
    9000005    1    3    3    0    0  0.88762963217E+01 -0.19615374394E+02  0.71498721183E+01  0.22708417389E+02  0.10000000000E+01 0.  0.
         -4    1    1    2    0  502 -0.23195595916E+02  0.59468110672E+01  0.38236456613E+02  0.45133576704E+02  0.12700000000E+01 0.  1.
<mgrwt>
<rscale>  1 0.12727397E+03</rscale>
<asrwt>0</asrwt>
<pdfrwt beam="2">  1       21 0.17579192E-02 0.12727397E+03</pdfrwt>
<pdfrwt beam="1">  1       -4 0.84505117E-01 0.12727397E+03</pdfrwt>
<totfact> 0.76071125E+04</totfact>
</mgrwt>
</event>
<event>
 6    4  0.3189516E-003  0.1360661E+03  0.7818608E-02  0.1218723E+00
         -4   -1    0    0    0  501 -0.00000000000E+00  0.00000000000E+00  0.19222717532E+03  0.19223137057E+03  0.12700000000E+01 0. -1.
         21   -1    0    0  501  502  0.00000000000E+00 -0.00000000000E+00 -0.66425615193E+03  0.66425615193E+03  0.00000000000E+00 0.  1.
         25    2    1    2    0    0 -0.83327285581E+00 -0.53742500123E+02  0.16687996214E+03  0.21532046504E+03  0.12500012095E+03 0.  0.
    9000005    1    3    3    0    0 -0.51398166297E+01 -0.39724492692E+02  0.18652790404E+03  0.19078289237E+03  0.10000000000E+01 0.  0.
    9000005    1    3    3    0    0  0.43065437739E+01 -0.14018007431E+02 -0.19647941901E+02  0.24537572671E+02  0.10000000000E+01 0.  0.
         -4    1    1    2    0  502  0.83327285581E+00  0.53742500123E+02 -0.63890893875E+03  0.64116705746E+03  0.12700000000E+01 0.  1.
<mgrwt>
<rscale>  1 0.13606609E+03</rscale>
<asrwt>0</asrwt>
<pdfrwt beam="2">  1       21 0.10219325E+00 0.13606609E+03</pdfrwt>
<pdfrwt beam="1">  1       -4 0.29573828E-01 0.13606609E+03</pdfrwt>
<totfact> 0.36051236E+02</totfact>
</mgrwt>
</event>
<event>
 6    4  0.3189516E-003  0.1321082E+03  0.7818608E-02  0.1224361E+00
         21   -1    0    0  501  502  0.00000000000E+00  0.00000000000E+00  0.78217651885E+03  0.78217651885E+03  0.00000000000E+00 0. -1.
         -4   -1    0    0    0  501 -0.00000000000E+00 -0.00000000000E+00 -0.10306625668E+02  0.10384576672E+02  0.12700000000E+01 0. -1.
         25    2    1    2    0    0  0.39655187900E+02 -0.15993177719E+02  0.65297203485E+03  0.66620196734E+03  0.12499706925E+03 0.  0.
    9000005    1    3    3    0    0 -0.14299635198E+02  0.17107218199E+02  0.50197453796E+03  0.50247047002E+03  0.10000000000E+01 0.  0.
    9000005    1    3    3    0    0  0.53954823098E+02 -0.33100395917E+02  0.15099749690E+03  0.16373149732E+03  0.10000000000E+01 0.  0.
         -4    1    1    2    0  502 -0.39655187900E+02  0.15993177719E+02  0.11889785833E+03  0.12635912818E+03  0.12700000000E+01 0.  1.
<mgrwt>
<rscale>  1 0.13210822E+03</rscale>
<asrwt>0</asrwt>
<pdfrwt beam="1">  1       21 0.12033480E+00 0.13210822E+03</pdfrwt>
<pdfrwt beam="2">  1       -4 0.15917109E-02 0.13210822E+03</pdfrwt>
<totfact> 0.31195591E+04</totfact>
</mgrwt>
</event>
<event>
 6    4  0.3189516E-003  0.1269159E+03  0.7818608E-02  0.1232105E+00
         -4   -1    0    0    0  501 -0.00000000000E+00  0.00000000000E+00  0.12238197507E+03  0.12238856450E+03  0.12700000000E+01 0.  1.
         21   -1    0    0  501  502  0.00000000000E+00 -0.00000000000E+00 -0.53861352363E+02  0.53861352363E+02  0.00000000000E+00 0.  1.
         25    2    1    2    0    0 -0.20678889463E+02  0.74112948528E+01  0.81378406264E+02  0.15076503392E+03  0.12500042674E+03 0.  0.
    9000005    1    3    3    0    0 -0.30529624834E+02 -0.31123421415E+02 -0.15304031340E+02  0.46216217158E+02  0.10000000000E+01 0.  0.
    9000005    1    3    3    0    0  0.98507353711E+01  0.38534716268E+02  0.96682437604E+02  0.10454881676E+03  0.10000000000E+01 0.  0.
         -4    1    1    2    0  502  0.20678889463E+02 -0.74112948528E+01 -0.12857783560E+02  0.25484882948E+02  0.12700000000E+01 0. -1.
<mgrwt>
<rscale>  1 0.12691592E+03</rscale>
<asrwt>0</asrwt>
<pdfrwt beam="2">  1       21 0.82863620E-02 0.12691592E+03</pdfrwt>
<pdfrwt beam="1">  1       -4 0.18829655E-01 0.12691592E+03</pdfrwt>
<totfact> 0.11308029E+05</totfact>
</mgrwt>
</event>
<event>
 6    4  0.3189516E-003  0.1322797E+03  0.7818608E-02  0.1224112E+00
         21   -1    0    0  501  502  0.00000000000E+00  0.00000000000E+00  0.16441879781E+03  0.16441879781E+03  0.00000000000E+00 0.  1.
          4   -1    0    0  502    0 -0.00000000000E+00 -0.00000000000E+00 -0.14544189891E+03  0.14544744363E+03  0.12700000000E+01 0. -1.
         25    2    1    2    0    0 -0.41548429083E+02 -0.12258059530E+02 -0.11110883354E+03  0.17275153521E+03  0.12498555134E+03 0.  0.
    9000005    1    3    3    0    0  0.37405607523E+02 -0.22110299325E+02 -0.10931496176E+02  0.44816764933E+02  0.10000000000E+01 0.  0.
    9000005    1    3    3    0    0 -0.78954036605E+02  0.98522397951E+01 -0.10017733736E+03  0.12793477028E+03  0.10000000000E+01 0.  0.
          4    1    1    2  501    0  0.41548429083E+02  0.12258059530E+02  0.13008573243E+03  0.13711470623E+03  0.12700000000E+01 0.  1.
<mgrwt>
<rscale>  1 0.13227970E+03</rscale>
<asrwt>0</asrwt>
<pdfrwt beam="1">  1       21 0.25295200E-01 0.13227970E+03</pdfrwt>
<pdfrwt beam="2">  1        4 0.22376480E-01 0.13227970E+03</pdfrwt>
<totfact> 0.11144436E+04</totfact>
</mgrwt>
</event>
<event>
 6    4  0.3189516E-003  0.1295294E+03  0.7818608E-02  0.1228156E+00
          4   -1    0    0  502    0 -0.00000000000E+00  0.00000000000E+00  0.18913127026E+03  0.18913553418E+03  0.12700000000E+01 0. -1.
         21   -1    0    0  501  502  0.00000000000E+00 -0.00000000000E+00 -0.49928645079E+02  0.49928645079E+02  0.00000000000E+00 0.  1.
         25    2    1    2    0    0  0.20402558833E+02 -0.27157655438E+02  0.15464885509E+03  0.20172784877E+03  0.12499621568E+03 0.  0.
    9000005    1    3    3    0    0 -0.41138183216E+02 -0.46989661141E+02  0.56696404502E+02  0.84355560907E+02  0.10000000000E+01 0.  0.
    9000005    1    3    3    0    0  0.61540742049E+02  0.19832005703E+02  0.97952450587E+02  0.11737228786E+03  0.10000000000E+01 0.  0.
          4    1    1    2  501    0 -0.20402558833E+02  0.27157655438E+02 -0.15446229910E+02  0.37336330487E+02  0.12700000000E+01 0.  1.
<mgrwt>
<rscale>  1 0.12952937E+03</rscale>
<asrwt>0</asrwt>
<pdfrwt beam="2">  1       21 0.76813301E-02 0.12952937E+03</pdfrwt>
<pdfrwt beam="1">  1        4 0.29098689E-01 0.12952937E+03</pdfrwt>
<totfact> 0.58259278E+04</totfact>
</mgrwt>
</event>
<event>
 6    4  0.3189516E-003  0.1320616E+03  0.7818608E-02  0.1224428E+00
         -4   -1    0    0    0  501 -0.00000000000E+00  0.00000000000E+00  0.56797678845E+03  0.56797820831E+03  0.12700000000E+01 0. -1.
         21   -1    0    0  501  502  0.00000000000E+00 -0.00000000000E+00 -0.17405379659E+02  0.17405379659E+02  0.00000000000E+00 0.  1.
         25    2    1    2    0    0 -0.24296434808E+02 -0.34994216905E+02  0.50897498051E+03  0.52582867460E+03  0.12500140913E+03 0.  0.
    9000005    1    3    3    0    0 -0.15883406381E+02 -0.69803849376E+02  0.16333883639E+03  0.17834078462E+03  0.10000000000E+01 0.  0.
    9000005    1    3    3    0    0 -0.84130284271E+01  0.34809632471E+02  0.34563614411E+03  0.34748788997E+03  0.10000000000E+01 0.  0.
         -4    1    1    2    0  502  0.24296434808E+02  0.34994216905E+02  0.41596428286E+02  0.59554913377E+02  0.12700000000E+01 0.  1.
<mgrwt>
<rscale>  1 0.13206159E+03</rscale>
<asrwt>0</asrwt>
<pdfrwt beam="2">  1       21 0.26777512E-02 0.13206159E+03</pdfrwt>
<pdfrwt beam="1">  1       -4 0.87384703E-01 0.13206159E+03</pdfrwt>
<totfact> 0.35889129E+04</totfact>
</mgrwt>
</event>
<event>
 6    4  0.3189516E-003  0.1319526E+03  0.7818608E-02  0.1224587E+00
         21   -1    0    0  501  502  0.00000000000E+00  0.00000000000E+00  0.65124118741E+03  0.65124118741E+03  0.00000000000E+00 0.  1.
         -4   -1    0    0    0  501 -0.00000000000E+00 -0.00000000000E+00 -0.15525948806E+02  0.15577804284E+02  0.12700000000E+01 0. -1.
         25    2    1    2    0    0  0.36425144582E+02  0.21445720137E+02  0.29099530323E+03  0.31951486443E+03  0.12499908808E+03 0.  0.
    9000005    1    3    3    0    0 -0.19241189365E+02  0.49332898256E+02  0.58891273853E+02  0.79203158741E+02  0.10000000000E+01 0.  0.
    9000005    1    3    3    0    0  0.55666333947E+02 -0.27887178118E+02  0.23210402938E+03  0.24031170569E+03  0.10000000000E+01 0.  0.
         -4    1    1    2    0  502 -0.36425144582E+02 -0.21445720137E+02  0.34471993537E+03  0.34730412726E+03  0.12700000000E+01 0.  1.
<mgrwt>
<rscale>  1 0.13195258E+03</rscale>
<asrwt>0</asrwt>
<pdfrwt beam="1">  1       21 0.10019093E+00 0.13195258E+03</pdfrwt>
<pdfrwt beam="2">  1       -4 0.23926922E-02 0.13195258E+03</pdfrwt>
<totfact> 0.25822812E+04</totfact>
</mgrwt>
</event>
<event>
 6    4  0.3189516E-003  0.1345941E+03  0.7818608E-02  0.1220794E+00
          4   -1    0    0  502    0 -0.00000000000E+00  0.00000000000E+00  0.19782384081E+03  0.19782791737E+03  0.12700000000E+01 0.  1.
         21   -1    0    0  501  502  0.00000000000E+00 -0.00000000000E+00 -0.48709069390E+02  0.48709069390E+02  0.00000000000E+00 0. -1.
         25    2    1    2    0    0 -0.11378586033E+02  0.48587389411E+02  0.14278000572E+03  0.19621851315E+03  0.12500147295E+03 0.  0.
    9000005    1    3    3    0    0  0.57030266872E+02  0.23935088601E+02  0.67066913485E+02  0.91237660482E+02  0.10000000000E+01 0.  0.
    9000005    1    3    3    0    0 -0.68408852906E+02  0.24652300810E+02  0.75713092239E+02  0.10498085267E+03  0.10000000000E+01 0.  0.
          4    1    1    2  501    0  0.11378586033E+02 -0.48587389411E+02  0.63347656936E+01  0.50318473609E+02  0.12700000000E+01 0. -1.
<mgrwt>
<rscale>  1 0.13459411E+03</rscale>
<asrwt>0</asrwt>
<pdfrwt beam="2">  1       21 0.74937031E-02 0.13459411E+03</pdfrwt>
<pdfrwt beam="1">  1        4 0.30436024E-01 0.13459411E+03</pdfrwt>
<totfact> 0.56126629E+04</totfact>
</mgrwt>
</event>
<event>
 6    4  0.3189516E-003  0.1274508E+03  0.7818608E-02  0.1231288E+00
         -4   -1    0    0    0  501 -0.00000000000E+00  0.00000000000E+00  0.11079965235E+03  0.11080693057E+03  0.12700000000E+01 0. -1.
         21   -1    0    0  501  502  0.00000000000E+00 -0.00000000000E+00 -0.59333367749E+02  0.59333367749E+02  0.00000000000E+00 0. -1.
         25    2    1    2    0    0 -0.24125911395E+02 -0.60554703195E+01  0.63596566375E+02  0.14243677945E+03  0.12499993826E+03 0.  0.
    9000005    1    3    3    0    0 -0.14807495140E+02 -0.17128472397E+02 -0.35590784845E+02  0.42194199185E+02  0.10000000000E+01 0.  0.
    9000005    1    3    3    0    0 -0.93184162552E+01  0.11073002077E+02  0.99187351220E+02  0.10024258027E+03  0.10000000000E+01 0.  0.
         -4    1    1    2    0  502  0.24125911395E+02  0.60554703195E+01 -0.12130281772E+02  0.27703518862E+02  0.12700000000E+01 0.  1.
<mgrwt>
<rscale>  1 0.12745083E+03</rscale>
<asrwt>0</asrwt>
<pdfrwt beam="2">  1       21 0.91282105E-02 0.12745083E+03</pdfrwt>
<pdfrwt beam="1">  1       -4 0.17047706E-01 0.12745083E+03</pdfrwt>
<totfact> 0.11415363E+05</totfact>
</mgrwt>
</event>
<event>
 6    4  0.3189516E-003  0.1268452E+03  0.7818608E-02  0.1232213E+00
         -4   -1    0    0    0  501 -0.00000000000E+00  0.00000000000E+00  0.76378868926E+02  0.76389426745E+02  0.12700000000E+01 0. -1.
         21   -1    0    0  501  502  0.00000000000E+00 -0.00000000000E+00 -0.10663351295E+03  0.10663351295E+03  0.00000000000E+00 0. -1.
         25    2    1    2    0    0  0.14145353001E+02 -0.16240020672E+02  0.19926357220E+02  0.12840082816E+03  0.12500353466E+03 0.  0.
    9000005    1    3    3    0    0 -0.83459858010E+00 -0.69217464958E+02  0.23786206549E+02  0.73202032978E+02  0.10000000000E+01 0.  0.
    9000005    1    3    3    0    0  0.14979951581E+02  0.52977444287E+02 -0.38598493285E+01  0.55198795180E+02  0.10000000000E+01 0.  0.
         -4    1    1    2    0  502 -0.14145353001E+02  0.16240020672E+02 -0.50181001244E+02  0.54622111537E+02  0.12700000000E+01 0.  1.
<mgrwt>
<rscale>  1 0.12684523E+03</rscale>
<asrwt>0</asrwt>
<pdfrwt beam="2">  1       21 0.16405156E-01 0.12684523E+03</pdfrwt>
<pdfrwt beam="1">  1       -4 0.11751989E-01 0.12684523E+03</pdfrwt>
<totfact> 0.76837117E+04</totfact>
</mgrwt>
</event>
<event>
 6    4  0.3189516E-003  0.1403295E+03  0.7818608E-02  0.1212886E+00
         -4   -1    0    0    0  501 -0.00000000000E+00  0.00000000000E+00  0.20063002886E+04  0.20063006905E+04  0.12700000000E+01 0. -1.
         21   -1    0    0  501  502  0.00000000000E+00 -0.00000000000E+00 -0.54371332899E+01  0.54371332899E+01  0.00000000000E+00 0. -1.
         25    2    1    2    0    0  0.62996810369E+02 -0.99175109222E+01  0.11596341939E+04  0.11680940995E+04  0.12500162636E+03 0.  0.
    9000005    1    3    3    0    0  0.40504466031E+01 -0.43572515800E+02  0.15203362536E+03  0.15820933440E+03  0.10000000000E+01 0.  0.
    9000005    1    3    3    0    0  0.58946363766E+02  0.33655004878E+02  0.10076005685E+04  0.10098847651E+04  0.10000000000E+01 0.  0.
         -4    1    1    2    0  502 -0.62996810369E+02  0.99175109222E+01  0.84122896143E+03  0.84364372432E+03  0.12700000000E+01 0.  1.
<mgrwt>
<rscale>  1 0.14032948E+03</rscale>
<asrwt>0</asrwt>
<pdfrwt beam="2">  1       21 0.83648365E-03 0.14032948E+03</pdfrwt>
<pdfrwt beam="1">  1       -4 0.30867243E+00 0.14032948E+03</pdfrwt>
<totfact> 0.68385874E+03</totfact>
</mgrwt>
</event>
<event>
 6    4  0.3189516E-003  0.1347393E+03  0.7818608E-02  0.1220588E+00
         21   -1    0    0  501  502  0.00000000000E+00  0.00000000000E+00  0.16615555227E+03  0.16615555227E+03  0.00000000000E+00 0. -1.
          4   -1    0    0  502    0 -0.00000000000E+00 -0.00000000000E+00 -0.53046909952E+02  0.53062110356E+02  0.12700000000E+01 0. -1.
         25    2    1    2    0    0  0.21034438258E+02 -0.45696056985E+02  0.64993952385E+02  0.14959572999E+03  0.12499636542E+03 0.  0.
    9000005    1    3    3    0    0 -0.14961407411E+02 -0.39596126692E+02  0.93908981055E+02  0.10301258993E+03  0.10000000000E+01 0.  0.
    9000005    1    3    3    0    0  0.35995845669E+02 -0.60999302929E+01 -0.28915028671E+02  0.46583140062E+02  0.10000000000E+01 0.  0.
          4    1    1    2  501    0 -0.21034438258E+02  0.45696056985E+02  0.48114689935E+02  0.69621932638E+02  0.12700000000E+01 0.  1.
<mgrwt>
<rscale>  1 0.13473926E+03</rscale>
<asrwt>0</asrwt>
<pdfrwt beam="1">  1       21 0.25562392E-01 0.13473926E+03</pdfrwt>
<pdfrwt beam="2">  1        4 0.81626058E-02 0.13473926E+03</pdfrwt>
<totfact> 0.62780990E+04</totfact>
</mgrwt>
</event>
<event>
 6    4  0.3189516E-003  0.1289914E+03  0.7818608E-02  0.1228960E+00
         21   -1    0    0  501  502  0.00000000000E+00  0.00000000000E+00  0.42977288317E+03  0.42977288317E+03  0.00000000000E+00 0. -1.
         -4   -1    0    0    0  501 -0.00000000000E+00 -0.00000000000E+00 -0.15078869209E+02  0.15132256825E+02  0.12700000000E+01 0. -1.
         25    2    1    2    0    0 -0.31784443023E+02  0.16848441744E+01  0.32118544056E+03  0.34611973765E+03  0.12500278413E+03 0.  0.
    9000005    1    3    3    0    0 -0.72231081854E+01 -0.23340098317E+02  0.14819388144E+01  0.24497543223E+02  0.10000000000E+01 0.  0.
    9000005    1    3    3    0    0 -0.24561334838E+02  0.25024942491E+02  0.31970350175E+03  0.32162219442E+03  0.10000000000E+01 0.  0.
         -4    1    1    2    0  502  0.31784443023E+02 -0.16848441744E+01  0.93508573397E+02  0.98785402348E+02  0.12700000000E+01 0.  1.
<mgrwt>
<rscale>  1 0.12899142E+03</rscale>
<asrwt>0</asrwt>
<pdfrwt beam="1">  1       21 0.66118896E-01 0.12899142E+03</pdfrwt>
<pdfrwt beam="2">  1       -4 0.23240774E-02 0.12899142E+03</pdfrwt>
<totfact> 0.68519364E+04</totfact>
</mgrwt>
</event>
<event>
 6    4  0.3189516E-003  0.1359803E+03  0.7818608E-02  0.1218842E+00
          4   -1    0    0  502    0 -0.00000000000E+00  0.00000000000E+00  0.23308715976E+03  0.23309061960E+03  0.12700000000E+01 0.  1.
         21   -1    0    0  501  502  0.00000000000E+00 -0.00000000000E+00 -0.50783359643E+02  0.50783359643E+02  0.00000000000E+00 0. -1.
         25    2    1    2    0    0 -0.35339270073E+02 -0.40208989852E+02  0.18576489170E+03  0.23021562547E+03  0.12500004940E+03 0.  0.
    9000005    1    3    3    0    0  0.31831758167E+02 -0.81323084280E+01  0.31619954077E+01  0.33021106634E+02  0.10000000000E+01 0.  0.
    9000005    1    3    3    0    0 -0.67171028240E+02 -0.32076681424E+02  0.18260289629E+03  0.19719451884E+03  0.10000000000E+01 0.  0.
          4    1    1    2  501    0  0.35339270073E+02  0.40208989852E+02 -0.34610915834E+01  0.53658353768E+02  0.12700000000E+01 0. -1.
<mgrwt>
<rscale>  1 0.13598029E+03</rscale>
<asrwt>0</asrwt>
<pdfrwt beam="2">  1       21 0.78128247E-02 0.13598029E+03</pdfrwt>
<pdfrwt beam="1">  1        4 0.35861050E-01 0.13598029E+03</pdfrwt>
<totfact> 0.38205885E+04</totfact>
</mgrwt>
</event>
<event>
 6    4  0.3189516E-003  0.1272328E+03  0.7818608E-02  0.1231620E+00
         21   -1    0    0  501  502  0.00000000000E+00  0.00000000000E+00  0.36077650501E+02  0.36077650501E+02  0.00000000000E+00 0.  1.
          4   -1    0    0  502    0 -0.00000000000E+00 -0.00000000000E+00 -0.23658674283E+03  0.23659015149E+03  0.12700000000E+01 0.  1.
         25    2    1    2    0    0 -0.59234292904E+00  0.23730316340E+02 -0.21123085181E+03  0.24659007567E+03  0.12499885553E+03 0.  0.
    9000005    1    3    3    0    0 -0.33482028605E+02  0.93591600301E+01 -0.25835076230E+01  0.34875702539E+02  0.10000000000E+01 0.  0.
    9000005    1    3    3    0    0  0.32889685676E+02  0.14371156310E+02 -0.20864734418E+03  0.21171437314E+03  0.10000000000E+01 0.  0.
          4    1    1    2  501    0  0.59234292904E+00 -0.23730316340E+02  0.10721759476E+02  0.26077726320E+02  0.12700000000E+01 0. -1.
<mgrwt>
<rscale>  1 0.12723283E+03</rscale>
<asrwt>0</asrwt>
<pdfrwt beam="1">  1       21 0.55504079E-02 0.12723283E+03</pdfrwt>
<pdfrwt beam="2">  1        4 0.36399941E-01 0.12723283E+03</pdfrwt>
<totfact> 0.65939670E+04</totfact>
</mgrwt>
</event>
<event>
 6    4  0.3189516E-003  0.1335799E+03  0.7818608E-02  0.1222238E+00
         21   -1    0    0  501  502  0.00000000000E+00  0.00000000000E+00  0.61364331115E+02  0.61364331115E+02  0.00000000000E+00 0. -1.
         -4   -1    0    0    0  501 -0.00000000000E+00 -0.00000000000E+00 -0.18159764353E+03  0.18160208434E+03  0.12700000000E+01 0. -1.
         25    2    1    2    0    0 -0.35663481875E+02 -0.30768389575E+02 -0.13850890738E+03  0.19242744031E+03  0.12500009850E+03 0.  0.
    9000005    1    3    3    0    0  0.87205018556E+01 -0.43138246861E+01 -0.14037388403E+03  0.14071419101E+03  0.10000000000E+01 0.  0.
    9000005    1    3    3    0    0 -0.44383983731E+02 -0.26454564889E+02  0.18649766439E+01  0.51713249300E+02  0.10000000000E+01 0.  0.
         -4    1    1    2    0  502  0.35663481875E+02  0.30768389575E+02  0.18275594969E+02  0.50538975137E+02  0.12700000000E+01 0.  1.
<mgrwt>
<rscale>  1 0.13357995E+03</rscale>
<asrwt>0</asrwt>
<pdfrwt beam="1">  1       21 0.94406666E-02 0.13357995E+03</pdfrwt>
<pdfrwt beam="2">  1       -4 0.27939451E-01 0.13357995E+03</pdfrwt>
<totfact> 0.44165413E+04</totfact>
</mgrwt>
</event>
<event>
 6    4  0.3189516E-003  0.1275749E+03  0.7818608E-02  0.1231099E+00
         21   -1    0    0  501  502  0.00000000000E+00  0.00000000000E+00  0.12773144220E+03  0.12773144220E+03  0.00000000000E+00 0. -1.
          4   -1    0    0  502    0 -0.00000000000E+00 -0.00000000000E+00 -0.46217564702E+02  0.46235010403E+02  0.12700000000E+01 0. -1.
         25    2    1    2    0    0 -0.11646310338E+02 -0.22624672986E+02  0.61818604602E+02  0.14176351723E+03  0.12501136976E+03 0.  0.
    9000005    1    3    3    0    0 -0.60829038107E+02 -0.24300183311E+02  0.65199098576E+02  0.92426150202E+02  0.10000000000E+01 0.  0.
    9000005    1    3    3    0    0  0.49182727769E+02  0.16755103252E+01 -0.33804939747E+01  0.49337367027E+02  0.10000000000E+01 0.  0.
          4    1    1    2  501    0  0.11646310338E+02  0.22624672986E+02  0.19695272896E+02  0.32202935373E+02  0.12700000000E+01 0.  1.
<mgrwt>
<rscale>  1 0.12757490E+03</rscale>
<asrwt>0</asrwt>
<pdfrwt beam="1">  1       21 0.19650991E-01 0.12757490E+03</pdfrwt>
<pdfrwt beam="2">  1        4 0.71122222E-02 0.12757490E+03</pdfrwt>
<totfact> 0.12794822E+05</totfact>
</mgrwt>
</event>
<event>
 6    4  0.3189516E-003  0.1405925E+03  0.7818608E-02  0.1212534E+00
         21   -1    0    0  501  502  0.00000000000E+00  0.00000000000E+00  0.15154208967E+03  0.15154208967E+03  0.00000000000E+00 0.  1.
         -4   -1    0    0    0  501 -0.00000000000E+00 -0.00000000000E+00 -0.80720281957E+02  0.80730272012E+02  0.12700000000E+01 0. -1.
         25    2    1    2    0    0  0.61454684708E+02  0.19120067645E+02  0.57055723114E+01  0.14070821874E+03  0.12499597596E+03 0.  0.
    9000005    1    3    3    0    0  0.39476246739E+02 -0.36668889152E+02 -0.38480666104E+02  0.66217393124E+02  0.10000000000E+01 0.  0.
    9000005    1    3    3    0    0  0.21978437969E+02  0.55788956797E+02  0.44186238416E+02  0.74490825619E+02  0.10000000000E+01 0.  0.
         -4    1    1    2    0  502 -0.61454684708E+02 -0.19120067645E+02  0.65116235399E+02  0.91564142937E+02  0.12700000000E+01 0.  1.
<mgrwt>
<rscale>  1 0.14059249E+03</rscale>
<asrwt>0</asrwt>
<pdfrwt beam="1">  1       21 0.23314168E-01 0.14059249E+03</pdfrwt>
<pdfrwt beam="2">  1       -4 0.12419683E-01 0.14059249E+03</pdfrwt>
<totfact> 0.36974950E+04</totfact>
</mgrwt>
</event>
<event>
 6    4  0.3189516E-003  0.1277548E+03  0.7818608E-02  0.1230826E+00
         -4   -1    0    0    0  501 -0.00000000000E+00  0.00000000000E+00  0.26353534916E+02  0.26384118378E+02  0.12700000000E+01 0.  1.
         21   -1    0    0  501  502  0.00000000000E+00 -0.00000000000E+00 -0.30905931688E+03  0.30905931688E+03  0.00000000000E+00 0. -1.
         25    2    1    2    0    0  0.81383335051E+01 -0.25102298183E+02 -0.13685010539E+03  0.18721439244E+03  0.12499967818E+03 0.  0.
    9000005    1    3    3    0    0 -0.47221043581E+02 -0.16134475371E+02 -0.13491546951E+02  0.51702708744E+02  0.10000000000E+01 0.  0.
    9000005    1    3    3    0    0  0.55359377086E+02 -0.89678228129E+01 -0.12335855844E+03  0.13551168369E+03  0.10000000000E+01 0.  0.
         -4    1    1    2    0  502 -0.81383335051E+01  0.25102298183E+02 -0.14585567657E+03  0.14822904282E+03  0.12700000000E+01 0. -1.
<mgrwt>
<rscale>  1 0.12775475E+03</rscale>
<asrwt>0</asrwt>
<pdfrwt beam="2">  1       21 0.47547587E-01 0.12775475E+03</pdfrwt>
<pdfrwt beam="1">  1       -4 0.40569433E-02 0.12775475E+03</pdfrwt>
<totfact> 0.57161343E+04</totfact>
</mgrwt>
</event>
<event>
 6    4  0.3189516E-003  0.1272359E+03  0.7818608E-02  0.1231616E+00
          4   -1    0    0  502    0 -0.00000000000E+00  0.00000000000E+00  0.65270957979E+02  0.65283312228E+02  0.12700000000E+01 0. -1.
         21   -1    0    0  501  502  0.00000000000E+00 -0.00000000000E+00 -0.25916585475E+03  0.25916585475E+03  0.00000000000E+00 0.  1.
         25    2    1    2    0    0  0.18347768074E+02 -0.15060938652E+02  0.18666946598E+01  0.12724955733E+03  0.12500197128E+03 0.  0.
    9000005    1    3    3    0    0 -0.19521167638E+01  0.37300038385E+02  0.43492996304E+02  0.57338855507E+02  0.10000000000E+01 0.  0.
    9000005    1    3    3    0    0  0.20299884838E+02 -0.52360977037E+02 -0.41626301644E+02  0.69910701822E+02  0.10000000000E+01 0.  0.
          4    1    1    2  501    0 -0.18347768074E+02  0.15060938652E+02 -0.19576159143E+03  0.19719960965E+03  0.12700000000E+01 0.  1.
<mgrwt>
<rscale>  1 0.12723586E+03</rscale>
<asrwt>0</asrwt>
<pdfrwt beam="2">  1       21 0.39871670E-01 0.12723586E+03</pdfrwt>
<pdfrwt beam="1">  1        4 0.10042875E-01 0.12723586E+03</pdfrwt>
<totfact> 0.18592156E+04</totfact>
</mgrwt>
</event>
<event>
 6    4  0.3189516E-003  0.1292595E+03  0.7818608E-02  0.1228559E+00
         21   -1    0    0  501  502  0.00000000000E+00  0.00000000000E+00  0.61331216981E+03  0.61331216981E+03  0.00000000000E+00 0.  1.
         -4   -1    0    0    0  501 -0.00000000000E+00 -0.00000000000E+00 -0.14039580290E+02  0.14096904438E+02  0.12700000000E+01 0.  1.
         25    2    1    2    0    0  0.11516243564E+01 -0.32894086982E+02  0.30446700247E+03  0.33076906641E+03  0.12499869000E+03 0.  0.
    9000005    1    3    3    0    0 -0.16589552707E+02  0.37890884493E+02  0.44548310935E+02  0.60798720331E+02  0.10000000000E+01 0.  0.
    9000005    1    3    3    0    0  0.17741177064E+02 -0.70784971475E+02  0.25991869154E+03  0.26997034608E+03  0.10000000000E+01 0.  0.
         -4    1    1    2    0  502 -0.11516243564E+01  0.32894086982E+02  0.29480558704E+03  0.29664000783E+03  0.12700000000E+01 0. -1.
<mgrwt>
<rscale>  1 0.12925951E+03</rscale>
<asrwt>0</asrwt>
<pdfrwt beam="1">  1       21 0.94355698E-01 0.12925951E+03</pdfrwt>
<pdfrwt beam="2">  1       -4 0.21644466E-02 0.12925951E+03</pdfrwt>
<totfact> 0.34608321E+04</totfact>
</mgrwt>
</event>
<event>
 6    4  0.3189516E-003  0.1307344E+03  0.7818608E-02  0.1226370E+00
         21   -1    0    0  501  502  0.00000000000E+00  0.00000000000E+00  0.27152511595E+03  0.27152511595E+03  0.00000000000E+00 0.  1.
         -4   -1    0    0    0  501 -0.00000000000E+00 -0.00000000000E+00 -0.16146815373E+03  0.16147314814E+03  0.12700000000E+01 0. -1.
         25    2    1    2    0    0  0.12181305447E+02 -0.36309881786E+02 -0.13326090367E+03  0.18668141838E+03  0.12499876721E+03 0.  0.
    9000005    1    3    3    0    0 -0.17125714627E+02 -0.82979502578E+01  0.20307615108E+02  0.27848614173E+02  0.10000000000E+01 0.  0.
    9000005    1    3    3    0    0  0.29307020074E+02 -0.28011931528E+02 -0.15356851878E+03  0.15883280421E+03  0.10000000000E+01 0.  0.
         -4    1    1    2    0  502 -0.12181305447E+02  0.36309881786E+02  0.24331786589E+03  0.24631684571E+03  0.12700000000E+01 0.  1.
<mgrwt>
<rscale>  1 0.13073440E+03</rscale>
<asrwt>0</asrwt>
<pdfrwt beam="1">  1       21 0.41773095E-01 0.13073440E+03</pdfrwt>
<pdfrwt beam="2">  1       -4 0.24841867E-01 0.13073440E+03</pdfrwt>
<totfact> 0.34580194E+03</totfact>
</mgrwt>
</event>
<event>
 6    4  0.3189516E-003  0.1304119E+03  0.7818608E-02  0.1226846E+00
         21   -1    0    0  501  502  0.00000000000E+00  0.00000000000E+00  0.38197849179E+03  0.38197849179E+03  0.00000000000E+00 0.  1.
          4   -1    0    0  502    0 -0.00000000000E+00 -0.00000000000E+00 -0.52313034188E+02  0.52328447769E+02  0.12700000000E+01 0. -1.
         25    2    1    2    0    0  0.35259016004E+02  0.11635652848E+02  0.31931664805E+02  0.13426425776E+03  0.12501469141E+03 0.  0.
    9000005    1    3    3    0    0 -0.12926761101E+02 -0.32693020015E+02 -0.28416062141E+02  0.45215122446E+02  0.10000000000E+01 0.  0.
    9000005    1    3    3    0    0  0.48185777104E+02  0.44328672863E+02  0.60347726946E+02  0.89049135316E+02  0.10000000000E+01 0.  0.
          4    1    1    2  501    0 -0.35259016004E+02 -0.11635652848E+02  0.29773379279E+03  0.30004268179E+03  0.12700000000E+01 0.  1.
<mgrwt>
<rscale>  1 0.13041188E+03</rscale>
<asrwt>0</asrwt>
<pdfrwt beam="1">  1       21 0.58765920E-01 0.13041188E+03</pdfrwt>
<pdfrwt beam="2">  1        4 0.80495074E-02 0.13041188E+03</pdfrwt>
<totfact> 0.12149302E+04</totfact>
</mgrwt>
</event>
<event>
 6    4  0.3189516E-003  0.1325412E+03  0.7818608E-02  0.1223733E+00
         21   -1    0    0  501  502  0.00000000000E+00  0.00000000000E+00  0.22538823097E+03  0.22538823097E+03  0.00000000000E+00 0. -1.
          4   -1    0    0  502    0 -0.00000000000E+00 -0.00000000000E+00 -0.34748886914E+02  0.34772087107E+02  0.12700000000E+01 0. -1.
         25    2    1    2    0    0  0.57450919454E+01  0.43694707941E+02  0.15041651846E+03  0.20048015234E+03  0.12499971549E+03 0.  0.
    9000005    1    3    3    0    0 -0.27058281964E+02 -0.26910284420E+02  0.92715760836E+01  0.39284553625E+02  0.10000000000E+01 0.  0.
    9000005    1    3    3    0    0  0.32803373910E+02  0.70604992361E+02  0.14114494238E+03  0.16119559872E+03  0.10000000000E+01 0.  0.
          4    1    1    2  501    0 -0.57450919454E+01 -0.43694707941E+02  0.40222825593E+02  0.59680165735E+02  0.12700000000E+01 0.  1.
<mgrwt>
<rscale>  1 0.13254117E+03</rscale>
<asrwt>0</asrwt>
<pdfrwt beam="1">  1       21 0.34675112E-01 0.13254117E+03</pdfrwt>
<pdfrwt beam="2">  1        4 0.53480426E-02 0.13254117E+03</pdfrwt>
<totfact> 0.69468537E+04</totfact>
</mgrwt>
</event>
<event>
 6    4  0.3189516E-003  0.1293597E+03  0.7818608E-02  0.1228409E+00
         21   -1    0    0  501  502  0.00000000000E+00  0.00000000000E+00  0.31961649306E+02  0.31961649306E+02  0.00000000000E+00 0. -1.
          4   -1    0    0  502    0 -0.00000000000E+00 -0.00000000000E+00 -0.20869426495E+03  0.20869812918E+03  0.12700000000E+01 0. -1.
         25    2    1    2    0    0  0.28447990736E+02 -0.17332760965E+02 -0.14879457678E+03  0.19716426498E+03  0.12499683407E+03 0.  0.
    9000005    1    3    3    0    0  0.73862796891E+01 -0.15850210311E+02  0.20266729584E+02  0.26786687413E+02  0.10000000000E+01 0.  0.
    9000005    1    3    3    0    0  0.21061711047E+02 -0.14825506539E+01 -0.16906130636E+03  0.17037757757E+03  0.10000000000E+01 0.  0.
          4    1    1    2  501    0 -0.28447990736E+02  0.17332760965E+02 -0.27938038867E+02  0.43495513508E+02  0.12700000000E+01 0.  1.
<mgrwt>
<rscale>  1 0.12935966E+03</rscale>
<asrwt>0</asrwt>
<pdfrwt beam="1">  1       21 0.49171769E-02 0.12935966E+03</pdfrwt>
<pdfrwt beam="2">  1        4 0.32109047E-01 0.12935966E+03</pdfrwt>
<totfact> 0.10313178E+05</totfact>
</mgrwt>
</event>
<event>
 6    4  0.3189516E-003  0.1275138E+03  0.7818608E-02  0.1231192E+00
         -4   -1    0    0    0  501 -0.00000000000E+00  0.00000000000E+00  0.11442619976E+03  0.11443324732E+03  0.12700000000E+01 0. -1.
         21   -1    0    0  501  502  0.00000000000E+00 -0.00000000000E+00 -0.66242036576E+02  0.66242036576E+02  0.00000000000E+00 0.  1.
         25    2    1    2    0    0  0.23603904627E+02  0.88258671894E+01  0.71609775379E+02  0.14624546467E+03  0.12499894304E+03 0.  0.
    9000005    1    3    3    0    0 -0.25506905605E+02  0.24549685666E+02 -0.20323327814E+02  0.40832915072E+02  0.10000000000E+01 0.  0.
    9000005    1    3    3    0    0  0.49110810232E+02 -0.15723818477E+02  0.91933103192E+02  0.10541254959E+03  0.10000000000E+01 0.  0.
         -4    1    1    2    0  502 -0.23603904627E+02 -0.88258671894E+01 -0.23425612196E+02  0.34429819227E+02  0.12700000000E+01 0.  1.
<mgrwt>
<rscale>  1 0.12751383E+03</rscale>
<asrwt>0</asrwt>
<pdfrwt beam="2">  1       21 0.10191083E-01 0.12751383E+03</pdfrwt>
<pdfrwt beam="1">  1       -4 0.17605509E-01 0.12751383E+03</pdfrwt>
<totfact> 0.88987768E+04</totfact>
</mgrwt>
</event>
<event>
 6    4  0.3189516E-003  0.1280617E+03  0.7818608E-02  0.1230360E+00
         21   -1    0    0  501  502  0.00000000000E+00  0.00000000000E+00  0.14844723685E+02  0.14844723685E+02  0.00000000000E+00 0. -1.
          4   -1    0    0  502    0 -0.00000000000E+00 -0.00000000000E+00 -0.12604617165E+04  0.12604623563E+04  0.12700000000E+01 0.  1.
         25    2    1    2    0    0  0.21707105956E+02  0.17553080589E+02 -0.12402592080E+04  0.12468531198E+04  0.12498196053E+03 0.  0.
    9000005    1    3    3    0    0  0.31396537655E+02  0.68496617279E+02 -0.80317739130E+03  0.80670468640E+03  0.10000000000E+01 0.  0.
    9000005    1    3    3    0    0 -0.96894316983E+01 -0.50943536690E+02 -0.43708181666E+03  0.44014843345E+03  0.10000000000E+01 0.  0.
          4    1    1    2  501    0 -0.21707105956E+02 -0.17553080589E+02 -0.53577848116E+01  0.28453960098E+02  0.12700000000E+01 0. -1.
<mgrwt>
<rscale>  1 0.12806170E+03</rscale>
<asrwt>0</asrwt>
<pdfrwt beam="1">  1       21 0.22838038E-02 0.12806170E+03</pdfrwt>
<pdfrwt beam="2">  1        4 0.19392140E+00 0.12806170E+03</pdfrwt>
<totfact> 0.64548604E+03</totfact>
</mgrwt>
</event>
<event>
 6    4  0.3189516E-003  0.1271474E+03  0.7818608E-02  0.1231751E+00
         21   -1    0    0  501  502  0.00000000000E+00  0.00000000000E+00  0.17891604548E+03  0.17891604548E+03  0.00000000000E+00 0.  1.
          4   -1    0    0  502    0 -0.00000000000E+00 -0.00000000000E+00 -0.31791061741E+02  0.31816418822E+02  0.12700000000E+01 0.  1.
         25    2    1    2    0    0 -0.97958606611E+01  0.21121584124E+02  0.11843670907E+03  0.17376342042E+03  0.12499756805E+03 0.  0.
    9000005    1    3    3    0    0 -0.16091487805E+02 -0.50425773106E+02  0.67117457492E+02  0.85483610553E+02  0.10000000000E+01 0.  0.
    9000005    1    3    3    0    0  0.62956271438E+01  0.71547357230E+02  0.51319251579E+02  0.88279809868E+02  0.10000000000E+01 0.  0.
          4    1    1    2  501    0  0.97958606611E+01 -0.21121584124E+02  0.28688274671E+02  0.36969043883E+02  0.12700000000E+01 0. -1.
<mgrwt>
<rscale>  1 0.12714744E+03</rscale>
<asrwt>0</asrwt>
<pdfrwt beam="1">  1       21 0.27525545E-01 0.12714744E+03</pdfrwt>
<pdfrwt beam="2">  1        4 0.48932299E-02 0.12714744E+03</pdfrwt>
<totfact> 0.12464244E+05</totfact>
</mgrwt>
</event>
<event>
 6    4  0.3189516E-003  0.1410453E+03  0.7818608E-02  0.1211929E+00
         21   -1    0    0  501  502  0.00000000000E+00  0.00000000000E+00  0.36437480877E+03  0.36437480877E+03  0.00000000000E+00 0.  1.
          4   -1    0    0  502    0 -0.00000000000E+00 -0.00000000000E+00 -0.29309313573E+02  0.29336815814E+02  0.12700000000E+01 0. -1.
         25    2    1    2    0    0 -0.63955667214E+02 -0.13368925851E+02  0.23928701982E+03  0.27776256339E+03  0.12499883286E+03 0.  0.
    9000005    1    3    3    0    0 -0.21999418050E+02  0.47817884515E+02  0.43179061937E+02  0.68087854011E+02  0.10000000000E+01 0.  0.
    9000005    1    3    3    0    0 -0.41956249164E+02 -0.61186810365E+02  0.19610795789E+03  0.20967470938E+03  0.10000000000E+01 0.  0.
          4    1    1    2  501    0  0.63955667214E+02  0.13368925851E+02  0.95778475373E+02  0.11594906119E+03  0.12700000000E+01 0.  1.
<mgrwt>
<rscale>  1 0.14104525E+03</rscale>
<asrwt>0</asrwt>
<pdfrwt beam="1">  1       21 0.56057660E-01 0.14104525E+03</pdfrwt>
<pdfrwt beam="2">  1        4 0.45114112E-02 0.14104525E+03</pdfrwt>
<totfact> 0.34648593E+04</totfact>
</mgrwt>
</event>
<event>
 6    4  0.3189516E-003  0.1275102E+03  0.7818608E-02  0.1231198E+00
          4   -1    0    0  502    0 -0.00000000000E+00  0.00000000000E+00  0.74303541299E+02  0.74314393960E+02  0.12700000000E+01 0. -1.
         21   -1    0    0  501  502  0.00000000000E+00 -0.00000000000E+00 -0.85664406011E+02  0.85664406011E+02  0.00000000000E+00 0. -1.
         25    2    1    2    0    0  0.11903143401E+02 -0.22181564339E+02 -0.26970280660E+02  0.13033131465E+03  0.12500059568E+03 0.  0.
    9000005    1    3    3    0    0  0.50712684750E+02 -0.40166090568E+02  0.19097350125E+02  0.67459617608E+02  0.10000000000E+01 0.  0.
    9000005    1    3    3    0    0 -0.38809541349E+02  0.17984526229E+02 -0.46067630785E+02  0.62871697046E+02  0.10000000000E+01 0.  0.
          4    1    1    2  501    0 -0.11903143401E+02  0.22181564339E+02  0.15609415948E+02  0.29647485317E+02  0.12700000000E+01 0.  1.
<mgrwt>
<rscale>  1 0.12751022E+03</rscale>
<asrwt>0</asrwt>
<pdfrwt beam="2">  1       21 0.13179139E-01 0.12751022E+03</pdfrwt>
<pdfrwt beam="1">  1        4 0.11432873E-01 0.12751022E+03</pdfrwt>
<totfact> 0.11949650E+05</totfact>
</mgrwt>
</event>
<event>
 6    4  0.3189516E-003  0.1303154E+03  0.7818608E-02  0.1226988E+00
         21   -1    0    0  501  502  0.00000000000E+00  0.00000000000E+00  0.33990767568E+03  0.33990767568E+03  0.00000000000E+00 0.  1.
          4   -1    0    0  502    0 -0.00000000000E+00 -0.00000000000E+00 -0.10195373225E+03  0.10196164190E+03  0.12700000000E+01 0. -1.
         25    2    1    2    0    0  0.20785735276E+02  0.30417935195E+02 -0.58705626260E+02  0.14292816826E+03  0.12499925261E+03 0.  0.
    9000005    1    3    3    0    0 -0.13213674490E+02  0.65610192212E+02 -0.65337367817E+02  0.93537533369E+02  0.10000000000E+01 0.  0.
    9000005    1    3    3    0    0  0.33999409766E+02 -0.35192257016E+02  0.66317415571E+01  0.49390634886E+02  0.10000000000E+01 0.  0.
          4    1    1    2  501    0 -0.20785735276E+02 -0.30417935195E+02  0.29665956969E+03  0.29894114933E+03  0.12700000000E+01 0.  1.
<mgrwt>
<rscale>  1 0.13031543E+03</rscale>
<asrwt>0</asrwt>
<pdfrwt beam="1">  1       21 0.52293488E-01 0.13031543E+03</pdfrwt>
<pdfrwt beam="2">  1        4 0.15685981E-01 0.13031543E+03</pdfrwt>
<totfact> 0.49878714E+03</totfact>
</mgrwt>
</event>
<event>
 6    4  0.3189516E-003  0.1360477E+03  0.7818608E-02  0.1218748E+00
         -4   -1    0    0    0  501 -0.00000000000E+00  0.00000000000E+00  0.92253732277E+03  0.92253819694E+03  0.12700000000E+01 0.  1.
         21   -1    0    0  501  502  0.00000000000E+00 -0.00000000000E+00 -0.12777553324E+02  0.12777553324E+02  0.00000000000E+00 0. -1.
         25    2    1    2    0    0  0.44397384143E+02 -0.30207698911E+02  0.81596641031E+03  0.82723041401E+03  0.12500136931E+03 0.  0.
    9000005    1    3    3    0    0  0.27389583185E+02 -0.13303603557E+02  0.79433939957E+03  0.79492342829E+03  0.10000000000E+01 0.  0.
    9000005    1    3    3    0    0  0.17007800958E+02 -0.16904095354E+02  0.21627010733E+02  0.32306985722E+02  0.10000000000E+01 0.  0.
         -4    1    1    2    0  502 -0.44397384143E+02  0.30207698911E+02  0.93793359141E+02  0.10808533624E+03  0.12700000000E+01 0. -1.
<mgrwt>
<rscale>  1 0.13604769E+03</rscale>
<asrwt>0</asrwt>
<pdfrwt beam="2">  1       21 0.19657782E-02 0.13604769E+03</pdfrwt>
<pdfrwt beam="1">  1       -4 0.14193369E+00 0.13604769E+03</pdfrwt>
<totfact> 0.18866941E+04</totfact>
</mgrwt>
</event>
<event>
 6    4  0.3189516E-003  0.1289234E+03  0.7818608E-02  0.1229062E+00
         -4   -1    0    0    0  501 -0.00000000000E+00  0.00000000000E+00  0.57258351220E+01  0.58649883073E+01  0.12700000000E+01 0.  1.
         21   -1    0    0  501  502  0.00000000000E+00 -0.00000000000E+00 -0.12025461988E+04  0.12025461988E+04  0.00000000000E+00 0.  1.
         25    2    1    2    0    0  0.27934698229E+02  0.14678368717E+02 -0.79850802247E+03  0.80884875653E+03  0.12500178843E+03 0.  0.
    9000005    1    3    3    0    0  0.50696106960E+02 -0.23655234455E+02 -0.67884234472E+03  0.68114432712E+03  0.10000000000E+01 0.  0.
    9000005    1    3    3    0    0 -0.22761408731E+02  0.38333603171E+02 -0.11966567775E+03  0.12770442941E+03  0.10000000000E+01 0.  0.
         -4    1    1    2    0  502 -0.27934698229E+02 -0.14678368717E+02 -0.39831234124E+03  0.39956243061E+03  0.12700000000E+01 0. -1.
<mgrwt>
<rscale>  1 0.12892342E+03</rscale>
<asrwt>0</asrwt>
<pdfrwt beam="2">  1       21 0.18500751E+00 0.12892342E+03</pdfrwt>
<pdfrwt beam="1">  1       -4 0.89165147E-03 0.12892342E+03</pdfrwt>
<totfact> 0.24457485E+04</totfact>
</mgrwt>
</event>
<event>
 6    4  0.3189516E-003  0.1268502E+03  0.7818608E-02  0.1232206E+00
         21   -1    0    0  501  502  0.00000000000E+00  0.00000000000E+00  0.49076925449E+02  0.49076925449E+02  0.00000000000E+00 0. -1.
          4   -1    0    0  502    0 -0.00000000000E+00 -0.00000000000E+00 -0.12287337508E+03  0.12287993816E+03  0.12700000000E+01 0. -1.
         25    2    1    2    0    0 -0.19317869893E+02 -0.96140376330E+01 -0.79369601894E+02  0.14963461590E+03  0.12500149901E+03 0.  0.
    9000005    1    3    3    0    0 -0.46445513891E+02  0.43694876039E+02 -0.24067855179E+02  0.68166631174E+02  0.10000000000E+01 0.  0.
    9000005    1    3    3    0    0  0.27127643998E+02 -0.53308913672E+02 -0.55301746714E+02  0.81467984726E+02  0.10000000000E+01 0.  0.
          4    1    1    2  501    0  0.19317869893E+02  0.96140376330E+01  0.55731522638E+01  0.22322247713E+02  0.12700000000E+01 0.  1.
<mgrwt>
<rscale>  1 0.12685024E+03</rscale>
<asrwt>0</asrwt>
<pdfrwt beam="1">  1       21 0.75502964E-02 0.12685024E+03</pdfrwt>
<pdfrwt beam="2">  1        4 0.18905365E-01 0.12685024E+03</pdfrwt>
<totfact> 0.13177053E+05</totfact>
</mgrwt>
</event>
<event>
 6    4  0.3189516E-003  0.1291326E+03  0.7818608E-02  0.1228748E+00
         21   -1    0    0  501  502  0.00000000000E+00  0.00000000000E+00  0.50928752011E+02  0.50928752011E+02  0.00000000000E+00 0. -1.
         -4   -1    0    0    0  501 -0.00000000000E+00 -0.00000000000E+00 -0.17548631586E+03  0.17549091132E+03  0.12700000000E+01 0.  1.
         25    2    1    2    0    0 -0.32396911180E+02 -0.15537281012E+01 -0.14001192398E+03  0.19046936330E+03  0.12499306211E+03 0.  0.
    9000005    1    3    3    0    0 -0.74030897984E+02 -0.25751339691E+02 -0.10447537921E+03  0.13061320841E+03  0.10000000000E+01 0.  0.
    9000005    1    3    3    0    0  0.41633986804E+02  0.24197611590E+02 -0.35536544773E+02  0.59856154890E+02  0.10000000000E+01 0.  0.
         -4    1    1    2    0  502  0.32396911180E+02  0.15537281012E+01  0.15454360126E+02  0.35950300026E+02  0.12700000000E+01 0. -1.
<mgrwt>
<rscale>  1 0.12913264E+03</rscale>
<asrwt>0</asrwt>
<pdfrwt beam="1">  1       21 0.78351927E-02 0.12913264E+03</pdfrwt>
<pdfrwt beam="2">  1       -4 0.26999466E-01 0.12913264E+03</pdfrwt>
<totfact> 0.64746229E+04</totfact>
</mgrwt>
</event>
<event>
 6    4  0.3189516E-003  0.1394841E+03  0.7818608E-02  0.1214025E+00
         21   -1    0    0  501  502  0.00000000000E+00  0.00000000000E+00  0.85599716167E+02  0.85599716167E+02  0.00000000000E+00 0.  1.
         -4   -1    0    0    0  501 -0.00000000000E+00 -0.00000000000E+00 -0.22813348966E+03  0.22813702462E+03  0.12700000000E+01 0. -1.
         25    2    1    2    0    0  0.37042821436E+02 -0.49582719908E+02 -0.19001823109E+03  0.23571749094E+03  0.12500076261E+03 0.  0.
    9000005    1    3    3    0    0  0.68507720377E+02 -0.73060832295E+02 -0.13935225826E+03  0.17161364995E+03  0.10000000000E+01 0.  0.
    9000005    1    3    3    0    0 -0.31464898941E+02  0.23478112387E+02 -0.50665972835E+02  0.64103840992E+02  0.10000000000E+01 0.  0.
         -4    1    1    2    0  502 -0.37042821436E+02  0.49582719908E+02  0.47484457602E+02  0.78019249850E+02  0.12700000000E+01 0.  1.
<mgrwt>
<rscale>  1 0.13948408E+03</rscale>
<asrwt>0</asrwt>
<pdfrwt beam="1">  1       21 0.13169187E-01 0.13948408E+03</pdfrwt>
<pdfrwt beam="2">  1       -4 0.35098456E-01 0.13948408E+03</pdfrwt>
<totfact> 0.15977950E+04</totfact>
</mgrwt>
</event>
<event>
 6    4  0.3189516E-003  0.1274025E+03  0.7818608E-02  0.1231362E+00
         21   -1    0    0  501  502  0.00000000000E+00  0.00000000000E+00  0.22007470549E+03  0.22007470549E+03  0.00000000000E+00 0.  1.
          4   -1    0    0  502    0 -0.00000000000E+00 -0.00000000000E+00 -0.23490123249E+03  0.23490466561E+03  0.12700000000E+01 0. -1.
         25    2    1    2    0    0  0.69157797172E+01 -0.23632546794E+02 -0.21682343076E+03  0.25148321068E+03  0.12500031939E+03 0.  0.
    9000005    1    3    3    0    0  0.26160328577E+02  0.46605404779E+02 -0.75666297288E+02  0.92643483803E+02  0.10000000000E+01 0.  0.
    9000005    1    3    3    0    0 -0.19244548860E+02 -0.70237951573E+02 -0.14115713348E+03  0.15883972687E+03  0.10000000000E+01 0.  0.
          4    1    1    2  501    0 -0.69157797172E+01  0.23632546794E+02  0.20199690376E+03  0.20349616042E+03  0.12700000000E+01 0.  1.
<mgrwt>
<rscale>  1 0.12740253E+03</rscale>
<asrwt>0</asrwt>
<pdfrwt beam="1">  1       21 0.33857647E-01 0.12740253E+03</pdfrwt>
<pdfrwt beam="2">  1        4 0.36139197E-01 0.12740253E+03</pdfrwt>
<totfact> 0.25806621E+03</totfact>
</mgrwt>
</event>
<event>
 6    4  0.3189516E-003  0.1322150E+03  0.7818608E-02  0.1224206E+00
         -4   -1    0    0    0  501 -0.00000000000E+00  0.00000000000E+00  0.29255393965E+03  0.29255669622E+03  0.12700000000E+01 0. -1.
         21   -1    0    0  501  502  0.00000000000E+00 -0.00000000000E+00 -0.19171454125E+03  0.19171454125E+03  0.00000000000E+00 0.  1.
         25    2    1    2    0    0  0.57957417629E+01  0.42686010270E+02  0.27485322910E+03  0.30500017937E+03  0.12500050310E+03 0.  0.
    9000005    1    3    3    0    0  0.55971992350E+02  0.22835125280E+02  0.66961203682E+02  0.90217014320E+02  0.10000000000E+01 0.  0.
    9000005    1    3    3    0    0 -0.50176250587E+02  0.19850884990E+02  0.20789202542E+03  0.21478316505E+03  0.10000000000E+01 0.  0.
         -4    1    1    2    0  502 -0.57957417629E+01 -0.42686010270E+02 -0.17401383070E+03  0.17927105810E+03  0.12700000000E+01 0.  1.
<mgrwt>
<rscale>  1 0.13221502E+03</rscale>
<asrwt>0</asrwt>
<pdfrwt beam="2">  1       21 0.29494545E-01 0.13221502E+03</pdfrwt>
<pdfrwt beam="1">  1       -4 0.45008834E-01 0.13221502E+03</pdfrwt>
<totfact> 0.21939036E+03</totfact>
</mgrwt>
</event>
<event>
 6    4  0.3189516E-003  0.1285830E+03  0.7818608E-02  0.1229574E+00
         21   -1    0    0  501  502  0.00000000000E+00  0.00000000000E+00  0.58927109630E+02  0.58927109630E+02  0.00000000000E+00 0.  1.
          4   -1    0    0  502    0 -0.00000000000E+00 -0.00000000000E+00 -0.13607236992E+03  0.13607829641E+03  0.12700000000E+01 0.  1.
         25    2    1    2    0    0 -0.28783884359E+02  0.88333338929E+01 -0.95096940347E+02  0.15992812702E+03  0.12500815159E+03 0.  0.
    9000005    1    3    3    0    0  0.35914326729E+02 -0.12064276279E+02 -0.82479817548E+02  0.90770622611E+02  0.10000000000E+01 0.  0.
    9000005    1    3    3    0    0 -0.64698211088E+02  0.20897610172E+02 -0.12617122799E+02  0.69157504413E+02  0.10000000000E+01 0.  0.
          4    1    1    2  501    0  0.28783884359E+02 -0.88333338929E+01  0.17951680060E+02  0.35077279020E+02  0.12700000000E+01 0. -1.
<mgrwt>
<rscale>  1 0.12858296E+03</rscale>
<asrwt>0</asrwt>
<pdfrwt beam="1">  1       21 0.90657092E-02 0.12858296E+03</pdfrwt>
<pdfrwt beam="2">  1        4 0.20935719E-01 0.12858296E+03</pdfrwt>
<totfact> 0.80150722E+04</totfact>
</mgrwt>
</event>
<event>
 6    4  0.3189516E-003  0.1369724E+03  0.7818608E-02  0.1217462E+00
         21   -1    0    0  501  502  0.00000000000E+00  0.00000000000E+00  0.11795629270E+03  0.11795629270E+03  0.00000000000E+00 0. -1.
          4   -1    0    0  502    0 -0.00000000000E+00 -0.00000000000E+00 -0.78999549670E+02  0.79009757297E+02  0.12700000000E+01 0. -1.
         25    2    1    2    0    0 -0.49011191631E+02 -0.27070873373E+02  0.24795747894E+02  0.13919862168E+03  0.12500599216E+03 0.  0.
    9000005    1    3    3    0    0 -0.38250709007E+01 -0.44290621253E+02 -0.38996414845E+02  0.59143982527E+02  0.10000000000E+01 0.  0.
    9000005    1    3    3    0    0 -0.45186120730E+02  0.17219747879E+02  0.63792162739E+02  0.80054639157E+02  0.10000000000E+01 0.  0.
          4    1    1    2  501    0  0.49011191631E+02  0.27070873373E+02  0.14160995132E+02  0.57767428309E+02  0.12700000000E+01 0.  1.
<mgrwt>
<rscale>  1 0.13697236E+03</rscale>
<asrwt>0</asrwt>
<pdfrwt beam="1">  1       21 0.18147122E-01 0.13697236E+03</pdfrwt>
<pdfrwt beam="2">  1        4 0.12155088E-01 0.13697236E+03</pdfrwt>
<totfact> 0.60924665E+04</totfact>
</mgrwt>
</event>
<event>
 6    4  0.3189516E-003  0.1288938E+03  0.7818608E-02  0.1229106E+00
         -4   -1    0    0    0  501 -0.00000000000E+00  0.00000000000E+00  0.12107895305E+04  0.12107901966E+04  0.12700000000E+01 0.  1.
         21   -1    0    0  501  502  0.00000000000E+00 -0.00000000000E+00 -0.33462996482E+02  0.33462996482E+02  0.00000000000E+00 0. -1.
         25    2    1    2    0    0 -0.25801588011E+02  0.17945874323E+02  0.11990937230E+04  0.12060013988E+04  0.12500336441E+03 0.  0.
    9000005    1    3    3    0    0 -0.39441351301E+02 -0.36659604540E+02  0.27676227297E+03  0.28195372410E+03  0.10000000000E+01 0.  0.
    9000005    1    3    3    0    0  0.13639763291E+02  0.54605478863E+02  0.92233145003E+03  0.92404767473E+03  0.10000000000E+01 0.  0.
         -4    1    1    2    0  502  0.25801588011E+02 -0.17945874323E+02 -0.21767188932E+02  0.38251794247E+02  0.12700000000E+01 0. -1.
<mgrwt>
<rscale>  1 0.12889382E+03</rscale>
<asrwt>0</asrwt>
<pdfrwt beam="2">  1       21 0.51481542E-02 0.12889382E+03</pdfrwt>
<pdfrwt beam="1">  1       -4 0.18627718E+00 0.12889382E+03</pdfrwt>
<totfact> 0.18886379E+03</totfact>
</mgrwt>
</event>
<event>
 6    4  0.3189516E-003  0.1606666E+03  0.7818608E-02  0.1187946E+00
         21   -1    0    0  501  502  0.00000000000E+00  0.00000000000E+00  0.10855027246E+03  0.10855027246E+03  0.00000000000E+00 0.  1.
         -4   -1    0    0    0  501 -0.00000000000E+00 -0.00000000000E+00 -0.17623011911E+03  0.17623469517E+03  0.12700000000E+01 0. -1.
         25    2    1    2    0    0  0.96709383360E+02  0.28914610427E+02 -0.85928026146E+02  0.18220149683E+03  0.12500000098E+03 0.  0.
    9000005    1    3    3    0    0 -0.88884422125E+01  0.41866950285E+02 -0.58206481204E+02  0.72255383088E+02  0.10000000000E+01 0.  0.
    9000005    1    3    3    0    0  0.10559782557E+03 -0.12952339858E+02 -0.27721544943E+02  0.10994611374E+03  0.10000000000E+01 0.  0.
         -4    1    1    2    0  502 -0.96709383360E+02 -0.28914610427E+02  0.18248179492E+02  0.10258347080E+03  0.12700000000E+01 0.  1.
<mgrwt>
<rscale>  1 0.16066661E+03</rscale>
<asrwt>0</asrwt>
<pdfrwt beam="1">  1       21 0.16700042E-01 0.16066661E+03</pdfrwt>
<pdfrwt beam="2">  1       -4 0.27113249E-01 0.16066661E+03</pdfrwt>
<totfact> 0.17208847E+04</totfact>
</mgrwt>
</event>
<event>
 6    4  0.3189516E-003  0.1361445E+03  0.7818608E-02  0.1218613E+00
          4   -1    0    0  502    0 -0.00000000000E+00  0.00000000000E+00  0.71852302014E+02  0.71863524856E+02  0.12700000000E+01 0. -1.
         21   -1    0    0  501  502  0.00000000000E+00 -0.00000000000E+00 -0.12607432987E+03  0.12607432987E+03  0.00000000000E+00 0.  1.
         25    2    1    2    0    0 -0.52500416329E+02 -0.12666478791E+02 -0.42887551610E+02  0.14273987785E+03  0.12497438635E+03 0.  0.
    9000005    1    3    3    0    0 -0.66391019298E+02 -0.53692372940E+02 -0.55933853737E+01  0.85574086705E+02  0.10000000000E+01 0.  0.
    9000005    1    3    3    0    0  0.13890602969E+02  0.41025894149E+02 -0.37294166236E+02  0.57165791141E+02  0.10000000000E+01 0.  0.
          4    1    1    2  501    0  0.52500416329E+02  0.12666478791E+02 -0.11334476245E+02  0.55197976878E+02  0.12700000000E+01 0.  1.
<mgrwt>
<rscale>  1 0.13614452E+03</rscale>
<asrwt>0</asrwt>
<pdfrwt beam="2">  1       21 0.19396051E-01 0.13614452E+03</pdfrwt>
<pdfrwt beam="1">  1        4 0.11055556E-01 0.13614452E+03</pdfrwt>
<totfact> 0.63316219E+04</totfact>
</mgrwt>
</event>
<event>
 6    4  0.3189516E-003  0.1589504E+03  0.7818608E-02  0.1189887E+00
          4   -1    0    0  502    0 -0.00000000000E+00  0.00000000000E+00  0.24497825204E+02  0.24530722364E+02  0.12700000000E+01 0. -1.
         21   -1    0    0  501  502  0.00000000000E+00 -0.00000000000E+00 -0.70374495979E+03  0.70374495979E+03  0.00000000000E+00 0. -1.
         25    2    1    2    0    0 -0.65313595942E+02  0.73289806385E+02 -0.48907357782E+03  0.51425499127E+03  0.12501187938E+03 0.  0.
    9000005    1    3    3    0    0 -0.69189359534E+02  0.24819159211E+01 -0.36351987779E+03  0.37005544034E+03  0.10000000000E+01 0.  0.
    9000005    1    3    3    0    0  0.38757635921E+01  0.70807890464E+02 -0.12555370003E+03  0.14419955093E+03  0.10000000000E+01 0.  0.
          4    1    1    2  501    0  0.65313595942E+02 -0.73289806385E+02 -0.19017355677E+03  0.21402069089E+03  0.12700000000E+01 0.  1.
<mgrwt>
<rscale>  1 0.15895041E+03</rscale>
<asrwt>0</asrwt>
<pdfrwt beam="2">  1       21 0.10826846E+00 0.15895041E+03</pdfrwt>
<pdfrwt beam="1">  1        4 0.37715147E-02 0.15895041E+03</pdfrwt>
<totfact> 0.10649791E+04</totfact>
</mgrwt>
</event>
<event>
 6    4  0.3189516E-003  0.1640972E+03  0.7818608E-02  0.1184147E+00
          4   -1    0    0  502    0 -0.00000000000E+00  0.00000000000E+00  0.10125137981E+04  0.10125145946E+04  0.12700000000E+01 0. -1.
         21   -1    0    0  501  502  0.00000000000E+00 -0.00000000000E+00 -0.18593190090E+02  0.18593190090E+02  0.00000000000E+00 0.  1.
         25    2    1    2    0    0  0.10269973224E+03 -0.27539818903E+02  0.68562339233E+03  0.70498746528E+03  0.12498885333E+03 0.  0.
    9000005    1    3    3    0    0  0.10837845416E+03  0.13554201678E+02  0.59972905732E+03  0.60959457667E+03  0.10000000000E+01 0.  0.
    9000005    1    3    3    0    0 -0.56787219164E+01 -0.41094020581E+02  0.85894335009E+02  0.95392888607E+02  0.10000000000E+01 0.  0.
          4    1    1    2  501    0 -0.10269973224E+03  0.27539818903E+02  0.30829721567E+03  0.32612031939E+03  0.12700000000E+01 0.  1.
<mgrwt>
<rscale>  1 0.16409720E+03</rscale>
<asrwt>0</asrwt>
<pdfrwt beam="2">  1       21 0.28604916E-02 0.16409720E+03</pdfrwt>
<pdfrwt beam="1">  1        4 0.15577471E+00 0.16409720E+03</pdfrwt>
<totfact> 0.82082945E+03</totfact>
</mgrwt>
</event>
<event>
 6    4  0.3189516E-003  0.1298874E+03  0.7818608E-02  0.1227623E+00
         -4   -1    0    0    0  501 -0.00000000000E+00  0.00000000000E+00  0.81599405038E+02  0.81609287478E+02  0.12700000000E+01 0. -1.
         21   -1    0    0  501  502  0.00000000000E+00 -0.00000000000E+00 -0.87991708476E+02  0.87991708476E+02  0.00000000000E+00 0. -1.
         25    2    1    2    0    0  0.13927401821E+02  0.32427899018E+02  0.10776458883E+02  0.13033370096E+03  0.12500080154E+03 0.  0.
    9000005    1    3    3    0    0 -0.25104129174E+02 -0.37523755162E+02  0.20578317431E+02  0.49625766003E+02  0.10000000000E+01 0.  0.
    9000005    1    3    3    0    0  0.39031530996E+02  0.69951654181E+02 -0.98018585485E+01  0.80707934960E+02  0.10000000000E+01 0.  0.
         -4    1    1    2    0  502 -0.13927401821E+02 -0.32427899018E+02 -0.17168762321E+02  0.39267294990E+02  0.12700000000E+01 0.  1.
<mgrwt>
<rscale>  1 0.12988742E+03</rscale>
<asrwt>0</asrwt>
<pdfrwt beam="2">  1       21 0.13537186E-01 0.12988742E+03</pdfrwt>
<pdfrwt beam="1">  1       -4 0.12555220E-01 0.12988742E+03</pdfrwt>
<totfact> 0.97325739E+04</totfact>
</mgrwt>
</event>
<event>
 6    4  0.3189516E-003  0.1336983E+03  0.7818608E-02  0.1222069E+00
         -4   -1    0    0    0  501 -0.00000000000E+00  0.00000000000E+00  0.18377766655E+03  0.18378205468E+03  0.12700000000E+01 0.  1.
         21   -1    0    0  501  502  0.00000000000E+00 -0.00000000000E+00 -0.44676979302E+02  0.44676979302E+02  0.00000000000E+00 0.  1.
         25    2    1    2    0    0  0.45097828049E+02  0.14747227480E+02  0.99889766455E+02  0.16689277681E+03  0.12499575471E+03 0.  0.
    9000005    1    3    3    0    0 -0.48275578259E+00 -0.52174479997E+02  0.46523022350E+02  0.69912810162E+02  0.10000000000E+01 0.  0.
    9000005    1    3    3    0    0  0.45580583832E+02  0.66921707477E+02  0.53366744104E+02  0.96979966644E+02  0.10000000000E+01 0.  0.
         -4    1    1    2    0  502 -0.45097828049E+02 -0.14747227480E+02  0.39210920792E+02  0.61566257174E+02  0.12700000000E+01 0. -1.
<mgrwt>
<rscale>  1 0.13369829E+03</rscale>
<asrwt>0</asrwt>
<pdfrwt beam="2">  1       21 0.68733815E-02 0.13369829E+03</pdfrwt>
<pdfrwt beam="1">  1       -4 0.28275213E-01 0.13369829E+03</pdfrwt>
<totfact> 0.74714146E+04</totfact>
</mgrwt>
</event>
<event>
 6    4  0.3189516E-003  0.1372230E+03  0.7818608E-02  0.1217115E+00
         -4   -1    0    0    0  501 -0.00000000000E+00  0.00000000000E+00  0.47620675767E+03  0.47620845115E+03  0.12700000000E+01 0. -1.
         21   -1    0    0  501  502  0.00000000000E+00 -0.00000000000E+00 -0.26095388044E+02  0.26095388044E+02  0.00000000000E+00 0.  1.
         25    2    1    2    0    0 -0.30079369673E+01  0.56532872774E+02  0.41147115470E+03  0.43374953592E+03  0.12500054146E+03 0.  0.
    9000005    1    3    3    0    0  0.49627654735E+02  0.15055010527E+02  0.29368212021E+03  0.29822767341E+03  0.10000000000E+01 0.  0.
    9000005    1    3    3    0    0 -0.52635591702E+02  0.41477862247E+02  0.11778903449E+03  0.13552186251E+03  0.10000000000E+01 0.  0.
         -4    1    1    2    0  502  0.30079369673E+01 -0.56532872774E+02  0.38640214919E+02  0.68554303277E+02  0.12700000000E+01 0.  1.
<mgrwt>
<rscale>  1 0.13722299E+03</rscale>
<asrwt>0</asrwt>
<pdfrwt beam="2">  1       21 0.40146754E-02 0.13722299E+03</pdfrwt>
<pdfrwt beam="1">  1       -4 0.73265079E-01 0.13722299E+03</pdfrwt>
<totfact> 0.27302252E+04</totfact>
</mgrwt>
</event>
<event>
 6    4  0.3189516E-003  0.1349800E+03  0.7818608E-02  0.1220248E+00
         -4   -1    0    0    0  501 -0.00000000000E+00  0.00000000000E+00  0.15941605580E+03  0.15942111449E+03  0.12700000000E+01 0.  1.
         21   -1    0    0  501  502  0.00000000000E+00 -0.00000000000E+00 -0.63868894661E+02  0.63868894661E+02  0.00000000000E+00 0. -1.
         25    2    1    2    0    0 -0.50850492936E+02  0.29645927525E+01  0.10556974362E+03  0.17136095658E+03  0.12500018091E+03 0.  0.
    9000005    1    3    3    0    0  0.36576254157E+02  0.25324346500E+02  0.30172536756E+02  0.53763620303E+02  0.10000000000E+01 0.  0.
    9000005    1    3    3    0    0 -0.87426747093E+02 -0.22359753748E+02  0.75397206869E+02  0.11759733627E+03  0.10000000000E+01 0.  0.
         -4    1    1    2    0  502  0.50850492936E+02 -0.29645927525E+01 -0.10022582487E+02  0.51929052579E+02  0.12700000000E+01 0. -1.
<mgrwt>
<rscale>  1 0.13498002E+03</rscale>
<asrwt>0</asrwt>
<pdfrwt beam="2">  1       21 0.98259839E-02 0.13498002E+03</pdfrwt>
<pdfrwt beam="1">  1       -4 0.24526907E-01 0.13498002E+03</pdfrwt>
<totfact> 0.52516569E+04</totfact>
</mgrwt>
</event>
<event>
 6    4  0.3189516E-003  0.1517961E+03  0.7818608E-02  0.1198283E+00
          4   -1    0    0  502    0 -0.00000000000E+00  0.00000000000E+00  0.24001806320E+03  0.24002142313E+03  0.12700000000E+01 0. -1.
         21   -1    0    0  501  502  0.00000000000E+00 -0.00000000000E+00 -0.14976344665E+03  0.14976344665E+03  0.00000000000E+00 0.  1.
         25    2    1    2    0    0 -0.44679629782E+02  0.73623214704E+02  0.19949166585E+03  0.25067702349E+03  0.12500159320E+03 0.  0.
    9000005    1    3    3    0    0  0.32326786661E+02  0.67119747989E+02  0.98764873039E+02  0.12371573001E+03  0.10000000000E+01 0.  0.
    9000005    1    3    3    0    0 -0.77006416443E+02  0.65034667153E+01  0.10072679281E+03  0.12696129348E+03  0.10000000000E+01 0.  0.
          4    1    1    2  501    0  0.44679629782E+02 -0.73623214704E+02 -0.10923704930E+03  0.13910784629E+03  0.12700000000E+01 0.  1.
<mgrwt>
<rscale>  1 0.15179607E+03</rscale>
<asrwt>0</asrwt>
<pdfrwt beam="2">  1       21 0.23040530E-01 0.15179607E+03</pdfrwt>
<pdfrwt beam="1">  1        4 0.36926528E-01 0.15179607E+03</pdfrwt>
<totfact> 0.52291251E+03</totfact>
</mgrwt>
</event>
<event>
 6    4  0.3189516E-003  0.1270227E+03  0.7818608E-02  0.1231942E+00
         21   -1    0    0  501  502  0.00000000000E+00  0.00000000000E+00  0.15120538489E+02  0.15120538489E+02  0.00000000000E+00 0. -1.
          4   -1    0    0  502    0 -0.00000000000E+00 -0.00000000000E+00 -0.55318621591E+03  0.55318767374E+03  0.12700000000E+01 0. -1.
         25    2    1    2    0    0  0.22092789618E+02  0.46586467110E+01 -0.52884583086E+03  0.54388664772E+03  0.12499991362E+03 0.  0.
    9000005    1    3    3    0    0  0.96142593121E+01 -0.40307222227E+01 -0.52854112522E+03  0.52864487300E+03  0.10000000000E+01 0.  0.
    9000005    1    3    3    0    0  0.12478530306E+02  0.86893689337E+01 -0.30470564499E+00  0.15241774719E+02  0.10000000000E+01 0.  0.
          4    1    1    2  501    0 -0.22092789618E+02 -0.46586467110E+01 -0.92198465596E+01  0.24421564505E+02  0.12700000000E+01 0.  1.
<mgrwt>
<rscale>  1 0.12702273E+03</rscale>
<asrwt>0</asrwt>
<pdfrwt beam="1">  1       21 0.23262367E-02 0.12702273E+03</pdfrwt>
<pdfrwt beam="2">  1        4 0.85109785E-01 0.12702273E+03</pdfrwt>
<totfact> 0.47628976E+04</totfact>
</mgrwt>
</event>
<event>
 6    4  0.3189516E-003  0.1294680E+03  0.7818608E-02  0.1228247E+00
         21   -1    0    0  501  502  0.00000000000E+00  0.00000000000E+00  0.40715368687E+02  0.40715368687E+02  0.00000000000E+00 0. -1.
          4   -1    0    0  502    0 -0.00000000000E+00 -0.00000000000E+00 -0.16365642248E+03  0.16366135011E+03  0.12700000000E+01 0. -1.
         25    2    1    2    0    0 -0.31912607830E+02  0.10867015582E+02 -0.95245229884E+02  0.16072837257E+03  0.12500179746E+03 0.  0.
    9000005    1    3    3    0    0 -0.35114408133E+02 -0.45455071301E+01 -0.12343985408E+03  0.12842149691E+03  0.10000000000E+01 0.  0.
    9000005    1    3    3    0    0  0.32018003032E+01  0.15412522712E+02  0.28194624194E+02  0.32306875661E+02  0.10000000000E+01 0.  0.
          4    1    1    2  501    0  0.31912607830E+02 -0.10867015582E+02 -0.27695823912E+02  0.43648346226E+02  0.12700000000E+01 0.  1.
<mgrwt>
<rscale>  1 0.12946797E+03</rscale>
<asrwt>0</asrwt>
<pdfrwt beam="1">  1       21 0.62639029E-02 0.12946797E+03</pdfrwt>
<pdfrwt beam="2">  1        4 0.25179814E-01 0.12946797E+03</pdfrwt>
<totfact> 0.10810854E+05</totfact>
</mgrwt>
</event>
<event>
 6    4  0.3189516E-003  0.1437406E+03  0.7818608E-02  0.1208383E+00
         21   -1    0    0  501  502  0.00000000000E+00  0.00000000000E+00  0.23317973219E+02  0.23317973219E+02  0.00000000000E+00 0. -1.
         -4   -1    0    0    0  501 -0.00000000000E+00 -0.00000000000E+00 -0.12167753800E+04  0.12167760428E+04  0.12700000000E+01 0.  1.
         25    2    1    2    0    0 -0.18939571925E+00 -0.70969853195E+02 -0.11453772416E+04  0.11543614602E+04  0.12499839742E+03 0.  0.
    9000005    1    3    3    0    0  0.39692961052E+02  0.19541065784E+02 -0.30813734744E+03  0.31129890668E+03  0.10000000000E+01 0.  0.
    9000005    1    3    3    0    0 -0.39882356771E+02 -0.90510918979E+02 -0.83723989415E+03  0.84306255354E+03  0.10000000000E+01 0.  0.
         -4    1    1    2    0  502  0.18939571925E+00  0.70969853195E+02 -0.48080165168E+02  0.85732555752E+02  0.12700000000E+01 0. -1.
<mgrwt>
<rscale>  1 0.14374058E+03</rscale>
<asrwt>0</asrwt>
<pdfrwt beam="1">  1       21 0.35873814E-02 0.14374058E+03</pdfrwt>
<pdfrwt beam="2">  1       -4 0.18719888E+00 0.14374058E+03</pdfrwt>
<totfact> 0.34225557E+03</totfact>
</mgrwt>
</event>
<event>
 6    4  0.3189516E-003  0.1276549E+03  0.7818608E-02  0.1230978E+00
         21   -1    0    0  501  502  0.00000000000E+00  0.00000000000E+00  0.54035162225E+02  0.54035162225E+02  0.00000000000E+00 0.  1.
         -4   -1    0    0    0  501 -0.00000000000E+00 -0.00000000000E+00 -0.19851203354E+03  0.19851609597E+03  0.12700000000E+01 0. -1.
         25    2    1    2    0    0  0.18700577266E+02  0.17914254989E+02 -0.17235436145E+03  0.21448027871E+03  0.12500052769E+03 0.  0.
    9000005    1    3    3    0    0 -0.20629264318E+02 -0.45561636549E+02 -0.47423808865E+02  0.68930740012E+02  0.10000000000E+01 0.  0.
    9000005    1    3    3    0    0  0.39329841584E+02  0.63475891538E+02 -0.12493055259E+03  0.14554953870E+03  0.10000000000E+01 0.  0.
         -4    1    1    2    0  502 -0.18700577266E+02 -0.17914254989E+02  0.27877490144E+02  0.38070979481E+02  0.12700000000E+01 0.  1.
<mgrwt>
<rscale>  1 0.12765486E+03</rscale>
<asrwt>0</asrwt>
<pdfrwt beam="1">  1       21 0.83131017E-02 0.12765486E+03</pdfrwt>
<pdfrwt beam="2">  1       -4 0.30541774E-01 0.12765486E+03</pdfrwt>
<totfact> 0.46314248E+04</totfact>
</mgrwt>
</event>
<event>
 6    4  0.3189516E-003  0.1356560E+03  0.7818608E-02  0.1219297E+00
         21   -1    0    0  501  502  0.00000000000E+00  0.00000000000E+00  0.24731284761E+02  0.24731284761E+02  0.00000000000E+00 0.  1.
          4   -1    0    0  502    0 -0.00000000000E+00 -0.00000000000E+00 -0.36490365438E+03  0.36490586441E+03  0.12700000000E+01 0.  1.
         25    2    1    2    0    0 -0.12538249322E+02  0.51192026794E+02 -0.26655779608E+03  0.29909130641E+03  0.12499887847E+03 0.  0.
    9000005    1    3    3    0    0 -0.15671268648E+01  0.85699880693E+02 -0.23799377527E+03  0.25296039710E+03  0.10000000000E+01 0.  0.
    9000005    1    3    3    0    0 -0.10971122458E+02 -0.34507853899E+02 -0.28564020813E+02  0.46130909309E+02  0.10000000000E+01 0.  0.
          4    1    1    2  501    0  0.12538249322E+02 -0.51192026794E+02 -0.73614573543E+02  0.90545842761E+02  0.12700000000E+01 0. -1.
<mgrwt>
<rscale>  1 0.13565600E+03</rscale>
<asrwt>0</asrwt>
<pdfrwt beam="1">  1       21 0.38048130E-02 0.13565600E+03</pdfrwt>
<pdfrwt beam="2">  1        4 0.56141703E-01 0.13565600E+03</pdfrwt>
<totfact> 0.52484770E+04</totfact>
</mgrwt>
</event>
<event>
 6    4  0.3189516E-003  0.1297418E+03  0.7818608E-02  0.1227839E+00
          4   -1    0    0  502    0 -0.00000000000E+00  0.00000000000E+00  0.42652235505E+02  0.42671138883E+02  0.12700000000E+01 0. -1.
         21   -1    0    0  501  502  0.00000000000E+00 -0.00000000000E+00 -0.19418400512E+03  0.19418400512E+03  0.00000000000E+00 0. -1.
         25    2    1    2    0    0  0.26090094786E+02 -0.22759768007E+02 -0.68127038084E+02  0.14654090245E+03  0.12503696528E+03 0.  0.
    9000005    1    3    3    0    0  0.58596718907E+02 -0.57527873109E+02 -0.44084439430E+02  0.93206595534E+02  0.10000000000E+01 0.  0.
    9000005    1    3    3    0    0 -0.32506624121E+02  0.34768105102E+02 -0.24042598655E+02  0.53334306916E+02  0.10000000000E+01 0.  0.
          4    1    1    2  501    0 -0.26090094786E+02  0.22759768007E+02 -0.83404731533E+02  0.90314241555E+02  0.12700000000E+01 0.  1.
<mgrwt>
<rscale>  1 0.12974183E+03</rscale>
<asrwt>0</asrwt>
<pdfrwt beam="2">  1       21 0.29874462E-01 0.12974183E+03</pdfrwt>
<pdfrwt beam="1">  1        4 0.65636560E-02 0.12974183E+03</pdfrwt>
<totfact> 0.66407281E+04</totfact>
</mgrwt>
</event>
<event>
 6    4  0.3189516E-003  0.1270623E+03  0.7818608E-02  0.1231881E+00
         21   -1    0    0  501  502  0.00000000000E+00  0.00000000000E+00  0.31912614535E+03  0.31912614535E+03  0.00000000000E+00 0.  1.
         -4   -1    0    0    0  501 -0.00000000000E+00 -0.00000000000E+00 -0.26546968770E+02  0.26577329642E+02  0.12700000000E+01 0. -1.
         25    2    1    2    0    0  0.15646501413E+02  0.16573727878E+02  0.13092342602E+03  0.18244387787E+03  0.12500129451E+03 0.  0.
    9000005    1    3    3    0    0  0.17745390575E+02  0.70245974989E+02  0.64447147727E+02  0.96973350664E+02  0.10000000000E+01 0.  0.
    9000005    1    3    3    0    0 -0.20988891615E+01 -0.53672247111E+02  0.66476278292E+02  0.85470527208E+02  0.10000000000E+01 0.  0.
         -4    1    1    2    0  502 -0.15646501413E+02 -0.16573727878E+02  0.16165575057E+03  0.16325959712E+03  0.12700000000E+01 0.  1.
<mgrwt>
<rscale>  1 0.12706229E+03</rscale>
<asrwt>0</asrwt>
<pdfrwt beam="1">  1       21 0.49096327E-01 0.12706229E+03</pdfrwt>
<pdfrwt beam="2">  1       -4 0.40866791E-02 0.12706229E+03</pdfrwt>
<totfact> 0.52872996E+04</totfact>
</mgrwt>
</event>
<event>
 6    4  0.3189516E-003  0.1371250E+03  0.7818608E-02  0.1217251E+00
          4   -1    0    0  502    0 -0.00000000000E+00  0.00000000000E+00  0.12519351353E+04  0.12519357795E+04  0.12700000000E+01 0. -1.
         21   -1    0    0  501  502  0.00000000000E+00 -0.00000000000E+00 -0.10247763502E+02  0.10247763502E+02  0.00000000000E+00 0.  1.
         25    2    1    2    0    0 -0.49300072989E+02 -0.27352034326E+02  0.11163934809E+04  0.11247833866E+04  0.12499852617E+03 0.  0.
    9000005    1    3    3    0    0 -0.70006119658E+02  0.26696488194E+02  0.48663412019E+03  0.49236909550E+03  0.10000000000E+01 0.  0.
    9000005    1    3    3    0    0  0.20706046669E+02 -0.54048522519E+02  0.62975936072E+03  0.63241429108E+03  0.10000000000E+01 0.  0.
          4    1    1    2  501    0  0.49300072989E+02  0.27352034326E+02  0.12529389088E+03  0.13740015637E+03  0.12700000000E+01 0.  1.
<mgrwt>
<rscale>  1 0.13712499E+03</rscale>
<asrwt>0</asrwt>
<pdfrwt beam="2">  1       21 0.15765800E-02 0.13712499E+03</pdfrwt>
<pdfrwt beam="1">  1        4 0.19261139E+00 0.13712499E+03</pdfrwt>
<totfact> 0.12017976E+04</totfact>
</mgrwt>
</event>
<event>
 6    4  0.3189516E-003  0.1282242E+03  0.7818608E-02  0.1230115E+00
         21   -1    0    0  501  502  0.00000000000E+00  0.00000000000E+00  0.86925925689E+02  0.86925925689E+02  0.00000000000E+00 0.  1.
         -4   -1    0    0    0  501 -0.00000000000E+00 -0.00000000000E+00 -0.96620062496E+02  0.96628408746E+02  0.12700000000E+01 0.  1.
         25    2    1    2    0    0 -0.26364103864E+02 -0.11029687869E+02 -0.46979240860E+02  0.13655952758E+03  0.12499894205E+03 0.  0.
    9000005    1    3    3    0    0  0.36538424375E+02 -0.23122111005E+02  0.16576649835E+02  0.46319259417E+02  0.10000000000E+01 0.  0.
    9000005    1    3    3    0    0 -0.62902528239E+02  0.12092423137E+02 -0.63555890695E+02  0.90240268164E+02  0.10000000000E+01 0.  0.
         -4    1    1    2    0  502  0.26364103864E+02  0.11029687869E+02  0.37285104053E+02  0.46994806855E+02  0.12700000000E+01 0. -1.
<mgrwt>
<rscale>  1 0.12822424E+03</rscale>
<asrwt>0</asrwt>
<pdfrwt beam="1">  1       21 0.13373219E-01 0.12822424E+03</pdfrwt>
<pdfrwt beam="2">  1       -4 0.14865981E-01 0.12822424E+03</pdfrwt>
<totfact> 0.74142600E+04</totfact>
</mgrwt>
</event>
<event>
 6    4  0.3189516E-003  0.1571633E+03  0.7818608E-02  0.1191937E+00
         21   -1    0    0  501  502  0.00000000000E+00  0.00000000000E+00  0.14215823657E+03  0.14215823657E+03  0.00000000000E+00 0. -1.
         -4   -1    0    0    0  501 -0.00000000000E+00 -0.00000000000E+00 -0.15594604803E+03  0.15595121929E+03  0.12700000000E+01 0.  1.
         25    2    1    2    0    0  0.28508027161E+01 -0.95221773968E+02 -0.85452472692E+02  0.17889221766E+03  0.12499994854E+03 0.  0.
    9000005    1    3    3    0    0  0.43882769914E+02 -0.16473142447E+01  0.26070073981E+01  0.44002359336E+02  0.10000000000E+01 0.  0.
    9000005    1    3    3    0    0 -0.41031967198E+02 -0.93574459724E+02 -0.88059480090E+02  0.13488985832E+03  0.10000000000E+01 0.  0.
         -4    1    1    2    0  502 -0.28508027161E+01  0.95221773968E+02  0.71664661226E+02  0.11921723819E+03  0.12700000000E+01 0. -1.
<mgrwt>
<rscale>  1 0.15716329E+03</rscale>
<asrwt>0</asrwt>
<pdfrwt beam="1">  1       21 0.21870498E-01 0.15716329E+03</pdfrwt>
<pdfrwt beam="2">  1       -4 0.23992534E-01 0.15716329E+03</pdfrwt>
<totfact> 0.13083136E+04</totfact>
</mgrwt>
</event>
<event>
 6    4  0.3189516E-003  0.1274085E+03  0.7818608E-02  0.1231352E+00
         -4   -1    0    0    0  501 -0.00000000000E+00  0.00000000000E+00  0.11381591417E+03  0.11382299952E+03  0.12700000000E+01 0. -1.
         21   -1    0    0  501  502  0.00000000000E+00 -0.00000000000E+00 -0.54840096658E+02  0.54840096658E+02  0.00000000000E+00 0. -1.
         25    2    1    2    0    0  0.65038369648E+01  0.23818483515E+02  0.30607549451E+02  0.13103343254E+03  0.12499327305E+03 0.  0.
    9000005    1    3    3    0    0 -0.33402726496E+02 -0.15069262001E+02  0.58249921660E+02  0.68824982151E+02  0.10000000000E+01 0.  0.
    9000005    1    3    3    0    0  0.39906563461E+02  0.38887745516E+02 -0.27642372209E+02  0.62208450390E+02  0.10000000000E+01 0.  0.
         -4    1    1    2    0  502 -0.65038369648E+01 -0.23818483515E+02  0.28368268063E+02  0.37629663633E+02  0.12700000000E+01 0.  1.
<mgrwt>
<rscale>  1 0.12740855E+03</rscale>
<asrwt>0</asrwt>
<pdfrwt beam="2">  1       21 0.84369380E-02 0.12740855E+03</pdfrwt>
<pdfrwt beam="1">  1       -4 0.17511817E-01 0.12740855E+03</pdfrwt>
<totfact> 0.12477589E+05</totfact>
</mgrwt>
</event>
<event>
 6    4  0.3189516E-003  0.1347339E+03  0.7818608E-02  0.1220596E+00
          4   -1    0    0  502    0 -0.00000000000E+00  0.00000000000E+00  0.23564418525E+03  0.23564760754E+03  0.12700000000E+01 0.  1.
         21   -1    0    0  501  502  0.00000000000E+00 -0.00000000000E+00 -0.35379903768E+03  0.35379903768E+03  0.00000000000E+00 0. -1.
         25    2    1    2    0    0  0.50225755112E+02 -0.24064880999E+01  0.21433949350E+03  0.25316919930E+03  0.12499922936E+03 0.  0.
    9000005    1    3    3    0    0  0.29749136405E+02  0.61075984662E+02  0.10378958791E+03  0.12405065730E+03  0.10000000000E+01 0.  0.
    9000005    1    3    3    0    0  0.20476618707E+02 -0.63482472762E+02  0.11054990559E+03  0.12911854200E+03  0.10000000000E+01 0.  0.
          4    1    1    2  501    0 -0.50225755112E+02  0.24064880999E+01 -0.33249434593E+03  0.33627744593E+03  0.12700000000E+01 0. -1.
<mgrwt>
<rscale>  1 0.13473390E+03</rscale>
<asrwt>0</asrwt>
<pdfrwt beam="2">  1       21 0.54430621E-01 0.13473390E+03</pdfrwt>
<pdfrwt beam="1">  1        4 0.36253390E-01 0.13473390E+03</pdfrwt>
<totfact> 0.98479128E+02</totfact>
</mgrwt>
</event>
<event>
 6    4  0.3189516E-003  0.1267573E+03  0.7818608E-02  0.1232348E+00
          4   -1    0    0  502    0 -0.00000000000E+00  0.00000000000E+00  0.64653126824E+02  0.64665599109E+02  0.12700000000E+01 0.  1.
         21   -1    0    0  501  502  0.00000000000E+00 -0.00000000000E+00 -0.16767666680E+03  0.16767666680E+03  0.00000000000E+00 0. -1.
         25    2    1    2    0    0  0.70373608744E+01  0.19828804801E+02  0.43513784067E+00  0.12675809634E+03  0.12499887878E+03 0.  0.
    9000005    1    3    3    0    0 -0.36680502157E+01  0.37156403678E+02 -0.55683033757E+02  0.67049632177E+02  0.10000000000E+01 0.  0.
    9000005    1    3    3    0    0  0.10705411090E+02 -0.17327598877E+02  0.56118171597E+02  0.59708464165E+02  0.10000000000E+01 0.  0.
          4    1    1    2  501    0 -0.70373608744E+01 -0.19828804801E+02 -0.10345867782E+03  0.10558416957E+03  0.12700000000E+01 0. -1.
<mgrwt>
<rscale>  1 0.12675735E+03</rscale>
<asrwt>0</asrwt>
<pdfrwt beam="2">  1       21 0.25796410E-01 0.12675735E+03</pdfrwt>
<pdfrwt beam="1">  1        4 0.99479645E-02 0.12675735E+03</pdfrwt>
<totfact> 0.44026603E+04</totfact>
</mgrwt>
</event>
<event>
 6    4  0.3189516E-003  0.1308882E+03  0.7818608E-02  0.1226144E+00
         -4   -1    0    0    0  501 -0.00000000000E+00  0.00000000000E+00  0.11668964412E+04  0.11668971323E+04  0.12700000000E+01 0.  1.
         21   -1    0    0  501  502  0.00000000000E+00 -0.00000000000E+00 -0.82025914185E+02  0.82025914185E+02  0.00000000000E+00 0. -1.
         25    2    1    2    0    0  0.23627359360E+02 -0.30795344014E+02  0.11583982139E+04  0.11657693397E+04  0.12500050466E+03 0.  0.
    9000005    1    3    3    0    0  0.21949070036E+02  0.46808932331E+02  0.55353225682E+03  0.55594226064E+03  0.10000000000E+01 0.  0.
    9000005    1    3    3    0    0  0.16782893243E+01 -0.77604276345E+02  0.60486595704E+03  0.60982707905E+03  0.10000000000E+01 0.  0.
         -4    1    1    2    0  502 -0.23627359360E+02  0.30795344014E+02 -0.73527686840E+02  0.83153706805E+02  0.12700000000E+01 0. -1.
<mgrwt>
<rscale>  1 0.13088824E+03</rscale>
<asrwt>0</asrwt>
<pdfrwt beam="2">  1       21 0.12619372E-01 0.13088824E+03</pdfrwt>
<pdfrwt beam="1">  1       -4 0.17952333E+00 0.13088824E+03</pdfrwt>
<totfact> 0.44438969E+02</totfact>
</mgrwt>
</event>
<event>
 6    4  0.3189516E-003  0.1270761E+03  0.7818608E-02  0.1231860E+00
         21   -1    0    0  501  502  0.00000000000E+00  0.00000000000E+00  0.19830409553E+02  0.19830409553E+02  0.00000000000E+00 0.  1.
         -4   -1    0    0    0  501 -0.00000000000E+00 -0.00000000000E+00 -0.29020177224E+03  0.29020455116E+03  0.12700000000E+01 0.  1.
         25    2    1    2    0    0  0.22753493111E+02  0.25684813332E+01 -0.24383874183E+03  0.27496486783E+03  0.12499611185E+03 0.  0.
    9000005    1    3    3    0    0 -0.17429731152E+02  0.99139525172E+01  0.66620262415E+01  0.21153358508E+02  0.10000000000E+01 0.  0.
    9000005    1    3    3    0    0  0.40183224263E+02 -0.73454711840E+01 -0.25050076807E+03  0.25381150932E+03  0.10000000000E+01 0.  0.
         -4    1    1    2    0  502 -0.22753493111E+02 -0.25684813332E+01 -0.26532620859E+02  0.35070092882E+02  0.12700000000E+01 0. -1.
<mgrwt>
<rscale>  1 0.12707614E+03</rscale>
<asrwt>0</asrwt>
<pdfrwt beam="1">  1       21 0.30508324E-02 0.12707614E+03</pdfrwt>
<pdfrwt beam="2">  1       -4 0.44649766E-01 0.12707614E+03</pdfrwt>
<totfact> 0.11935261E+05</totfact>
</mgrwt>
</event>
<event>
 6    4  0.3189516E-003  0.1287895E+03  0.7818608E-02  0.1229263E+00
         21   -1    0    0  501  502  0.00000000000E+00  0.00000000000E+00  0.60495470710E+02  0.60495470710E+02  0.00000000000E+00 0.  1.
          4   -1    0    0  502    0 -0.00000000000E+00 -0.00000000000E+00 -0.17427638338E+03  0.17428101074E+03  0.12700000000E+01 0. -1.
         25    2    1    2    0    0  0.17924060232E+02 -0.25309771162E+02 -0.14279034280E+03  0.19229099700E+03  0.12499955632E+03 0.  0.
    9000005    1    3    3    0    0 -0.15284238176E+02  0.46618598536E+02 -0.62873500050E+02  0.79755743834E+02  0.10000000000E+01 0.  0.
    9000005    1    3    3    0    0  0.33208298408E+02 -0.71928369697E+02 -0.79916842753E+02  0.11253525317E+03  0.10000000000E+01 0.  0.
          4    1    1    2  501    0 -0.17924060232E+02  0.25309771162E+02  0.29009430136E+02  0.42485484442E+02  0.12700000000E+01 0.  1.
<mgrwt>
<rscale>  1 0.12878954E+03</rscale>
<asrwt>0</asrwt>
<pdfrwt beam="1">  1       21 0.93069956E-02 0.12878954E+03</pdfrwt>
<pdfrwt beam="2">  1        4 0.26813132E-01 0.12878954E+03</pdfrwt>
<totfact> 0.48667176E+04</totfact>
</mgrwt>
</event>
<event>
 6    4  0.3189516E-003  0.1267091E+03  0.7818608E-02  0.1232422E+00
         21   -1    0    0  501  502  0.00000000000E+00  0.00000000000E+00  0.48146417563E+02  0.48146417563E+02  0.00000000000E+00 0. -1.
         -4   -1    0    0    0  501 -0.00000000000E+00 -0.00000000000E+00 -0.11315770174E+03  0.11316482830E+03  0.12700000000E+01 0. -1.
         25    2    1    2    0    0  0.19687124225E+02 -0.65140332808E+01 -0.58304988555E+02  0.13948001156E+03  0.12500074578E+03 0.  0.
    9000005    1    3    3    0    0 -0.36433858925E+02 -0.36753597600E+02 -0.55163044381E+02  0.75645320266E+02  0.10000000000E+01 0.  0.
    9000005    1    3    3    0    0  0.56120983150E+02  0.30239564319E+02 -0.31419441734E+01  0.63834691298E+02  0.10000000000E+01 0.  0.
         -4    1    1    2    0  502 -0.19687124225E+02  0.65140332808E+01 -0.67062956225E+01  0.21831234294E+02  0.12700000000E+01 0.  1.
<mgrwt>
<rscale>  1 0.12670912E+03</rscale>
<asrwt>0</asrwt>
<pdfrwt beam="1">  1       21 0.74071412E-02 0.12670912E+03</pdfrwt>
<pdfrwt beam="2">  1       -4 0.17410714E-01 0.12670912E+03</pdfrwt>
<totfact> 0.15760898E+05</totfact>
</mgrwt>
</event>
<event>
 6    4  0.3189516E-003  0.1296106E+03  0.7818608E-02  0.1228035E+00
         21   -1    0    0  501  502  0.00000000000E+00  0.00000000000E+00  0.19332236920E+03  0.19332236920E+03  0.00000000000E+00 0. -1.
          4   -1    0    0  502    0 -0.00000000000E+00 -0.00000000000E+00 -0.75166132480E+02  0.75176860616E+02  0.12700000000E+01 0.  1.
         25    2    1    2    0    0  0.99301485570E+01  0.32790488941E+02 -0.15483130386E+02  0.13053214187E+03  0.12500035488E+03 0.  0.
    9000005    1    3    3    0    0 -0.36915045948E+02  0.11907368559E+02  0.39475760770E+02  0.55351980378E+02  0.10000000000E+01 0.  0.
    9000005    1    3    3    0    0  0.46845194505E+02  0.20883120382E+02 -0.54958891156E+02  0.75180161494E+02  0.10000000000E+01 0.  0.
          4    1    1    2  501    0 -0.99301485570E+01 -0.32790488941E+02  0.13363936710E+03  0.13796708794E+03  0.12700000000E+01 0. -1.
<mgrwt>
<rscale>  1 0.12961062E+03</rscale>
<asrwt>0</asrwt>
<pdfrwt beam="1">  1       21 0.29741903E-01 0.12961062E+03</pdfrwt>
<pdfrwt beam="2">  1        4 0.11565167E-01 0.12961062E+03</pdfrwt>
<totfact> 0.26058289E+04</totfact>
</mgrwt>
</event>
<event>
 6    4  0.3189516E-003  0.1472102E+03  0.7818608E-02  0.1203944E+00
         21   -1    0    0  501  502  0.00000000000E+00  0.00000000000E+00  0.65023621436E+02  0.65023621436E+02  0.00000000000E+00 0. -1.
          4   -1    0    0  502    0 -0.00000000000E+00 -0.00000000000E+00 -0.26690029568E+03  0.26690331720E+03  0.12700000000E+01 0.  1.
         25    2    1    2    0    0 -0.32010423592E+02 -0.70858950883E+02 -0.20698479876E+03  0.25399514811E+03  0.12500068083E+03 0.  0.
    9000005    1    3    3    0    0 -0.20740927811E+02 -0.52743372905E+01  0.12388676647E+02  0.24748414684E+02  0.10000000000E+01 0.  0.
    9000005    1    3    3    0    0 -0.11269495781E+02 -0.65584613593E+02 -0.21937347541E+03  0.22924673343E+03  0.10000000000E+01 0.  0.
          4    1    1    2  501    0  0.32010423592E+02  0.70858950883E+02  0.51081245148E+01  0.77931790528E+02  0.12700000000E+01 0. -1.
<mgrwt>
<rscale>  1 0.14721015E+03</rscale>
<asrwt>0</asrwt>
<pdfrwt beam="1">  1       21 0.10003634E-01 0.14721015E+03</pdfrwt>
<pdfrwt beam="2">  1        4 0.41062771E-01 0.14721015E+03</pdfrwt>
<totfact> 0.19228729E+04</totfact>
</mgrwt>
</event>
<event>
 6    4  0.3189516E-003  0.1289568E+03  0.7818608E-02  0.1229012E+00
         -4   -1    0    0    0  501 -0.00000000000E+00  0.00000000000E+00  0.78581219395E+02  0.78591481355E+02  0.12700000000E+01 0.  1.
         21   -1    0    0  501  502  0.00000000000E+00 -0.00000000000E+00 -0.84852660976E+02  0.84852660976E+02  0.00000000000E+00 0.  1.
         25    2    1    2    0    0 -0.13889432442E+02 -0.28502358360E+02 -0.16720192551E+02  0.13003620821E+03  0.12499819935E+03 0.  0.
    9000005    1    3    3    0    0 -0.36781344424E+02 -0.21616794549E+02 -0.64072022528E+02  0.76982966785E+02  0.10000000000E+01 0.  0.
    9000005    1    3    3    0    0  0.22891911982E+02 -0.68855638110E+01  0.47351829977E+02  0.53053241421E+02  0.10000000000E+01 0.  0.
         -4    1    1    2    0  502  0.13889432442E+02  0.28502358360E+02  0.10448750971E+02  0.33407934125E+02  0.12700000000E+01 0. -1.
<mgrwt>
<rscale>  1 0.12895678E+03</rscale>
<asrwt>0</asrwt>
<pdfrwt beam="2">  1       21 0.13054256E-01 0.12895678E+03</pdfrwt>
<pdfrwt beam="1">  1       -4 0.12090939E-01 0.12895678E+03</pdfrwt>
<totfact> 0.11065926E+05</totfact>
</mgrwt>
</event>
<event>
 6    4  0.3189516E-003  0.1276149E+03  0.7818608E-02  0.1231038E+00
         21   -1    0    0  501  502  0.00000000000E+00  0.00000000000E+00  0.18166532607E+02  0.18166532607E+02  0.00000000000E+00 0.  1.
          4   -1    0    0  502    0 -0.00000000000E+00 -0.00000000000E+00 -0.35751019323E+03  0.35751244896E+03  0.12700000000E+01 0.  1.
         25    2    1    2    0    0 -0.23913902808E+02  0.94417672799E+01 -0.31651419265E+03  0.34127230744E+03  0.12499812782E+03 0.  0.
    9000005    1    3    3    0    0 -0.37421761256E+01 -0.52132870676E+01  0.11018624046E+02  0.12790321344E+02  0.10000000000E+01 0.  0.
    9000005    1    3    3    0    0 -0.20171726683E+02  0.14655054347E+02 -0.32753281670E+03  0.32848198610E+03  0.10000000000E+01 0.  0.
          4    1    1    2  501    0  0.23913902808E+02 -0.94417672799E+01 -0.22829467970E+02  0.34406674130E+02  0.12700000000E+01 0. -1.
<mgrwt>
<rscale>  1 0.12761486E+03</rscale>
<asrwt>0</asrwt>
<pdfrwt beam="1">  1       21 0.27948515E-02 0.12761486E+03</pdfrwt>
<pdfrwt beam="2">  1        4 0.55005151E-01 0.12761486E+03</pdfrwt>
<totfact> 0.90240276E+04</totfact>
</mgrwt>
</event>
<event>
 6    4  0.3189516E-003  0.1269305E+03  0.7818608E-02  0.1232083E+00
         21   -1    0    0  501  502  0.00000000000E+00  0.00000000000E+00  0.21683271003E+03  0.21683271003E+03  0.00000000000E+00 0. -1.
         -4   -1    0    0    0  501 -0.00000000000E+00 -0.00000000000E+00 -0.29272961227E+02  0.29300497590E+02  0.12700000000E+01 0. -1.
         25    2    1    2    0    0  0.46623254070E+01 -0.21578046751E+02  0.11860469182E+03  0.17371938184E+03  0.12499600524E+03 0.  0.
    9000005    1    3    3    0    0 -0.95046036814E+01  0.38914868272E+02  0.28112290990E+00  0.40072228462E+02  0.10000000000E+01 0.  0.
    9000005    1    3    3    0    0  0.14166929088E+02 -0.60492915023E+02  0.11832356891E+03  0.13364715338E+03  0.10000000000E+01 0.  0.
         -4    1    1    2    0  502 -0.46623254070E+01  0.21578046751E+02  0.68955056984E+02  0.72413825776E+02  0.12700000000E+01 0.  1.
<mgrwt>
<rscale>  1 0.12693050E+03</rscale>
<asrwt>0</asrwt>
<pdfrwt beam="1">  1       21 0.33358877E-01 0.12693050E+03</pdfrwt>
<pdfrwt beam="2">  1       -4 0.45059369E-02 0.12693050E+03</pdfrwt>
<totfact> 0.98108845E+04</totfact>
</mgrwt>
</event>
<event>
 6    4  0.3189516E-003  0.1288374E+03  0.7818608E-02  0.1229191E+00
         21   -1    0    0  501  502  0.00000000000E+00  0.00000000000E+00  0.51241969616E+01  0.51241969616E+01  0.00000000000E+00 0. -1.
          4   -1    0    0  502    0 -0.00000000000E+00 -0.00000000000E+00 -0.13047679449E+04  0.13047685630E+04  0.12700000000E+01 0. -1.
         25    2    1    2    0    0 -0.12665171212E+02  0.28533294314E+02 -0.92190111831E+03  0.93086022494E+03  0.12499812398E+03 0.  0.
    9000005    1    3    3    0    0 -0.48845024396E+02 -0.70300694019E+01 -0.75010522008E+03  0.75172741036E+03  0.10000000000E+01 0.  0.
    9000005    1    3    3    0    0  0.36179853184E+02  0.35563363716E+02 -0.17179589822E+03  0.17913281459E+03  0.10000000000E+01 0.  0.
          4    1    1    2  501    0  0.12665171212E+02 -0.28533294314E+02 -0.37774262963E+03  0.37903253499E+03  0.12700000000E+01 0.  1.
<mgrwt>
<rscale>  1 0.12883744E+03</rscale>
<asrwt>0</asrwt>
<pdfrwt beam="1">  1       21 0.78833793E-03 0.12883744E+03</pdfrwt>
<pdfrwt beam="2">  1        4 0.20074570E+00 0.12883744E+03</pdfrwt>
<totfact> 0.31820182E+04</totfact>
</mgrwt>
</event>
<event>
 6    4  0.3189516E-003  0.1374592E+03  0.7818608E-02  0.1216789E+00
         21   -1    0    0  501  502  0.00000000000E+00  0.00000000000E+00  0.99311159303E+03  0.99311159303E+03  0.00000000000E+00 0.  1.
          4   -1    0    0  502    0 -0.00000000000E+00 -0.00000000000E+00 -0.10202576702E+02  0.10281316616E+02  0.12700000000E+01 0.  1.
         25    2    1    2    0    0 -0.10324010643E+02 -0.56247617837E+02  0.80078773956E+03  0.81249987138E+03  0.12499862979E+03 0.  0.
    9000005    1    3    3    0    0 -0.32951655199E+02 -0.53828291771E+02  0.77701858274E+03  0.77957820294E+03  0.10000000000E+01 0.  0.
    9000005    1    3    3    0    0  0.22627644556E+02 -0.24193260662E+01  0.23769156824E+02  0.32921668440E+02  0.10000000000E+01 0.  0.
          4    1    1    2  501    0  0.10324010643E+02  0.56247617837E+02  0.18212127676E+03  0.19089303827E+03  0.12700000000E+01 0. -1.
<mgrwt>
<rscale>  1 0.13745922E+03</rscale>
<asrwt>0</asrwt>
<pdfrwt beam="1">  1       21 0.15278632E+00 0.13745922E+03</pdfrwt>
<pdfrwt beam="2">  1        4 0.15757474E-02 0.13745922E+03</pdfrwt>
<totfact> 0.17386980E+04</totfact>
</mgrwt>
</event>
<event>
 6    4  0.3189516E-003  0.1270437E+03  0.7818608E-02  0.1231909E+00
          4   -1    0    0  502    0 -0.00000000000E+00  0.00000000000E+00  0.88021626371E+03  0.88021717990E+03  0.12700000000E+01 0.  1.
         21   -1    0    0  501  502  0.00000000000E+00 -0.00000000000E+00 -0.11149076612E+02  0.11149076612E+02  0.00000000000E+00 0.  1.
         25    2    1    2    0    0  0.21835316559E+02  0.60964476905E+01  0.85557136512E+03  0.86495228607E+03  0.12500459450E+03 0.  0.
    9000005    1    3    3    0    0 -0.65036906284E+01  0.13153000161E+01 -0.19194423847E+01  0.69794172386E+01  0.10000000000E+01 0.  0.
    9000005    1    3    3    0    0  0.28339007187E+02  0.47811476743E+01  0.85749080751E+03  0.85797286884E+03  0.10000000000E+01 0.  0.
          4    1    1    2  501    0 -0.21835316559E+02 -0.60964476905E+01  0.13495821977E+02  0.26413970442E+02  0.12700000000E+01 0. -1.
<mgrwt>
<rscale>  1 0.12704368E+03</rscale>
<asrwt>0</asrwt>
<pdfrwt beam="2">  1       21 0.17152432E-02 0.12704368E+03</pdfrwt>
<pdfrwt beam="1">  1        4 0.13542347E+00 0.12704368E+03</pdfrwt>
<totfact> 0.26211966E+04</totfact>
</mgrwt>
</event>
<event>
 6    4  0.3189516E-003  0.1324246E+03  0.7818608E-02  0.1223902E+00
         21   -1    0    0  501  502  0.00000000000E+00  0.00000000000E+00  0.19659253598E+03  0.19659253598E+03  0.00000000000E+00 0. -1.
          4   -1    0    0  502    0 -0.00000000000E+00 -0.00000000000E+00 -0.50776630766E+02  0.50792510589E+02  0.12700000000E+01 0. -1.
         25    2    1    2    0    0  0.42098042636E+02  0.11350540718E+02  0.49005138533E+02  0.14120116166E+03  0.12504073130E+03 0.  0.
    9000005    1    3    3    0    0  0.81955715979E+02  0.31429129410E+02  0.32050031549E+02  0.93449098869E+02  0.10000000000E+01 0.  0.
    9000005    1    3    3    0    0 -0.39857673344E+02 -0.20078588692E+02  0.16955106984E+02  0.47752062794E+02  0.10000000000E+01 0.  0.
          4    1    1    2  501    0 -0.42098042636E+02 -0.11350540718E+02  0.96810766683E+02  0.10618388491E+03  0.12700000000E+01 0.  1.
<mgrwt>
<rscale>  1 0.13242456E+03</rscale>
<asrwt>0</asrwt>
<pdfrwt beam="1">  1       21 0.30245005E-01 0.13242456E+03</pdfrwt>
<pdfrwt beam="2">  1        4 0.78133265E-02 0.13242456E+03</pdfrwt>
<totfact> 0.48819811E+04</totfact>
</mgrwt>
</event>
<event>
 6    4  0.3189516E-003  0.1273624E+03  0.7818608E-02  0.1231423E+00
         -4   -1    0    0    0  501 -0.00000000000E+00  0.00000000000E+00  0.33926989569E+03  0.33927227269E+03  0.12700000000E+01 0. -1.
         21   -1    0    0  501  502  0.00000000000E+00 -0.00000000000E+00 -0.17227507565E+02  0.17227507565E+02  0.00000000000E+00 0. -1.
         25    2    1    2    0    0  0.22202694724E+02  0.10246506850E+02  0.25310909370E+03  0.28334677256E+03  0.12499291840E+03 0.  0.
    9000005    1    3    3    0    0 -0.29505539795E+01  0.64715342166E+02  0.10293013070E+03  0.12162398237E+03  0.10000000000E+01 0.  0.
    9000005    1    3    3    0    0  0.25153248704E+02 -0.54468835316E+02  0.15017896299E+03  0.16172279019E+03  0.10000000000E+01 0.  0.
         -4    1    1    2    0  502 -0.22202694724E+02 -0.10246506850E+02  0.68933294426E+02  0.73153007703E+02  0.12700000000E+01 0.  1.
<mgrwt>
<rscale>  1 0.12736240E+03</rscale>
<asrwt>0</asrwt>
<pdfrwt beam="2">  1       21 0.26503860E-02 0.12736240E+03</pdfrwt>
<pdfrwt beam="1">  1       -4 0.52199147E-01 0.12736240E+03</pdfrwt>
<totfact> 0.10956916E+05</totfact>
</mgrwt>
</event>
<event>
 6    4  0.3189516E-003  0.1335370E+03  0.7818608E-02  0.1222300E+00
         21   -1    0    0  501  502  0.00000000000E+00  0.00000000000E+00  0.33505970471E+03  0.33505970471E+03  0.00000000000E+00 0.  1.
          4   -1    0    0  502    0 -0.00000000000E+00 -0.00000000000E+00 -0.31452369983E+02  0.31477999897E+02  0.12700000000E+01 0. -1.
         25    2    1    2    0    0 -0.19801848953E+02  0.42597434030E+02  0.12882309289E+03  0.18554654819E+03  0.12500191068E+03 0.  0.
    9000005    1    3    3    0    0 -0.20381646136E+02  0.86605833140E+02  0.93827288350E+02  0.12930793430E+03  0.10000000000E+01 0.  0.
    9000005    1    3    3    0    0  0.57979718321E+00 -0.44008399110E+02  0.34995804544E+02  0.56238613894E+02  0.10000000000E+01 0.  0.
          4    1    1    2  501    0  0.19801848953E+02 -0.42597434030E+02  0.17478424183E+03  0.18099115641E+03  0.12700000000E+01 0.  1.
<mgrwt>
<rscale>  1 0.13353701E+03</rscale>
<asrwt>0</asrwt>
<pdfrwt beam="1">  1       21 0.51547644E-01 0.13353701E+03</pdfrwt>
<pdfrwt beam="2">  1        4 0.48409831E-02 0.13353701E+03</pdfrwt>
<totfact> 0.36680747E+04</totfact>
</mgrwt>
</event>
<event>
 6    4  0.3189516E-003  0.1583023E+03  0.7818608E-02  0.1190627E+00
         -4   -1    0    0    0  501 -0.00000000000E+00  0.00000000000E+00  0.34886281076E+03  0.34886512241E+03  0.12700000000E+01 0.  1.
         21   -1    0    0  501  502  0.00000000000E+00 -0.00000000000E+00 -0.80004020347E+02  0.80004020347E+02  0.00000000000E+00 0. -1.
         25    2    1    2    0    0 -0.88386392779E+02 -0.40261375582E+02  0.28914298734E+03  0.32964115105E+03  0.12500595405E+03 0.  0.
    9000005    1    3    3    0    0 -0.72428930478E+02  0.23457065970E+02  0.22616031801E+03  0.23863292597E+03  0.10000000000E+01 0.  0.
    9000005    1    3    3    0    0 -0.15957462301E+02 -0.63718441552E+02  0.62982669331E+02  0.91008225084E+02  0.10000000000E+01 0.  0.
         -4    1    1    2    0  502  0.88386392779E+02  0.40261375582E+02 -0.20284196926E+02  0.99227991702E+02  0.12700000000E+01 0. -1.
<mgrwt>
<rscale>  1 0.15830231E+03</rscale>
<asrwt>0</asrwt>
<pdfrwt beam="2">  1       21 0.12308311E-01 0.15830231E+03</pdfrwt>
<pdfrwt beam="1">  1       -4 0.53672154E-01 0.15830231E+03</pdfrwt>
<totfact> 0.78026069E+03</totfact>
</mgrwt>
</event>
<event>
 6    4  0.3189516E-003  0.1320505E+03  0.7818608E-02  0.1224445E+00
         21   -1    0    0  501  502  0.00000000000E+00  0.00000000000E+00  0.64348597896E+03  0.64348597896E+03  0.00000000000E+00 0.  1.
         -4   -1    0    0    0  501 -0.00000000000E+00 -0.00000000000E+00 -0.16286009268E+02  0.16335452179E+02  0.12700000000E+01 0. -1.
         25    2    1    2    0    0  0.11850174687E+02  0.40893976146E+02  0.27506709775E+03  0.30512167595E+03  0.12499833978E+03 0.  0.
    9000005    1    3    3    0    0  0.34181586815E+02 -0.33721045968E+02  0.63109353370E+02  0.79304982827E+02  0.10000000000E+01 0.  0.
    9000005    1    3    3    0    0 -0.22331412128E+02  0.74615022114E+02  0.21195774438E+03  0.22581669313E+03  0.10000000000E+01 0.  0.
         -4    1    1    2    0  502 -0.11850174687E+02 -0.40893976146E+02  0.35213287194E+03  0.35469975518E+03  0.12700000000E+01 0.  1.
<mgrwt>
<rscale>  1 0.13205048E+03</rscale>
<asrwt>0</asrwt>
<pdfrwt beam="1">  1       21 0.98997823E-01 0.13205048E+03</pdfrwt>
<pdfrwt beam="2">  1       -4 0.25094401E-02 0.13205048E+03</pdfrwt>
<totfact> 0.24665575E+04</totfact>
</mgrwt>
</event>
<event>
 6    4  0.3189516E-003  0.1293433E+03  0.7818608E-02  0.1228433E+00
         -4   -1    0    0    0  501 -0.00000000000E+00  0.00000000000E+00  0.64267635301E+02  0.64280182383E+02  0.12700000000E+01 0.  1.
         21   -1    0    0  501  502  0.00000000000E+00 -0.00000000000E+00 -0.14345139516E+03  0.14345139516E+03  0.00000000000E+00 0. -1.
         25    2    1    2    0    0  0.90973832484E+01  0.31969804625E+02 -0.85120702642E+01  0.12962311833E+03  0.12499946671E+03 0.  0.
    9000005    1    3    3    0    0  0.60221102206E+02  0.23074350333E+02 -0.32755137789E+02  0.72338826682E+02  0.10000000000E+01 0.  0.
    9000005    1    3    3    0    0 -0.51123718957E+02  0.88954542916E+01  0.24243067525E+02  0.57284291652E+02  0.10000000000E+01 0.  0.
         -4    1    1    2    0  502 -0.90973832484E+01 -0.31969804625E+02 -0.70671689590E+02  0.78108459204E+02  0.12700000000E+01 0. -1.
<mgrwt>
<rscale>  1 0.12934333E+03</rscale>
<asrwt>0</asrwt>
<pdfrwt beam="2">  1       21 0.22069445E-01 0.12934333E+03</pdfrwt>
<pdfrwt beam="1">  1       -4 0.98887262E-02 0.12934333E+03</pdfrwt>
<totfact> 0.59782750E+04</totfact>
</mgrwt>
</event>
<event>
 6    4  0.3189516E-003  0.1292471E+03  0.7818608E-02  0.1228577E+00
         21   -1    0    0  501  502  0.00000000000E+00  0.00000000000E+00  0.34593688904E+03  0.34593688904E+03  0.00000000000E+00 0. -1.
          4   -1    0    0  502    0 -0.00000000000E+00 -0.00000000000E+00 -0.42191675248E+02  0.42210784881E+02  0.12700000000E+01 0.  1.
         25    2    1    2    0    0  0.30302776829E+02  0.12795382012E+02  0.60537055449E+02  0.14272191881E+03  0.12499132347E+03 0.  0.
    9000005    1    3    3    0    0  0.51726775657E+02  0.58586906123E+02  0.42959260388E+02  0.89188468661E+02  0.10000000000E+01 0.  0.
    9000005    1    3    3    0    0 -0.21423998828E+02 -0.45791524111E+02  0.17577795061E+02  0.53533450154E+02  0.10000000000E+01 0.  0.
          4    1    1    2  501    0 -0.30302776829E+02 -0.12795382012E+02  0.24320815835E+03  0.24542575511E+03  0.12700000000E+01 0. -1.
<mgrwt>
<rscale>  1 0.12924709E+03</rscale>
<asrwt>0</asrwt>
<pdfrwt beam="1">  1       21 0.53221058E-01 0.12924709E+03</pdfrwt>
<pdfrwt beam="2">  1        4 0.64926765E-02 0.12924709E+03</pdfrwt>
<totfact> 0.21281920E+04</totfact>
</mgrwt>
</event>
<event>
 6    4  0.3189516E-003  0.1275499E+03  0.7818608E-02  0.1231137E+00
          4   -1    0    0  502    0 -0.00000000000E+00  0.00000000000E+00  0.91215431648E+02  0.91224272377E+02  0.12700000000E+01 0.  1.
         21   -1    0    0  501  502  0.00000000000E+00 -0.00000000000E+00 -0.25440521823E+03  0.25440521823E+03  0.00000000000E+00 0. -1.
         25    2    1    2    0    0  0.99018983739E+01  0.23366680520E+02  0.45481966408E+02  0.13541635413E+03  0.12499972139E+03 0.  0.
    9000005    1    3    3    0    0 -0.18682642851E+01 -0.33997546843E+02 -0.26110496330E+02  0.42919478345E+02  0.10000000000E+01 0.  0.
    9000005    1    3    3    0    0  0.11770162659E+02  0.57364227363E+02  0.71592462738E+02  0.92496875790E+02  0.10000000000E+01 0.  0.
          4    1    1    2  501    0 -0.99018983739E+01 -0.23366680520E+02 -0.20867175299E+03  0.21021313647E+03  0.12700000000E+01 0. -1.
<mgrwt>
<rscale>  1 0.12754991E+03</rscale>
<asrwt>0</asrwt>
<pdfrwt beam="2">  1       21 0.39139265E-01 0.12754991E+03</pdfrwt>
<pdfrwt beam="1">  1        4 0.14034067E-01 0.12754991E+03</pdfrwt>
<totfact> 0.10899467E+04</totfact>
</mgrwt>
</event>
<event>
 6    4  0.3189516E-003  0.1266117E+03  0.7818608E-02  0.1232572E+00
         21   -1    0    0  501  502  0.00000000000E+00  0.00000000000E+00  0.24493116640E+03  0.24493116640E+03  0.00000000000E+00 0. -1.
         -4   -1    0    0    0  501 -0.00000000000E+00 -0.00000000000E+00 -0.12066358171E+03  0.12067026498E+03  0.12700000000E+01 0.  1.
         25    2    1    2    0    0 -0.14036422005E+02 -0.14918388368E+02 -0.86819401430E+02  0.15351911702E+03  0.12494371282E+03 0.  0.
    9000005    1    3    3    0    0 -0.40327761860E+02  0.45428077318E+02 -0.40140408038E+02  0.72816831453E+02  0.10000000000E+01 0.  0.
    9000005    1    3    3    0    0  0.26291339855E+02 -0.60346465686E+02 -0.46678993393E+02  0.80702285570E+02  0.10000000000E+01 0.  0.
         -4    1    1    2    0  502  0.14036422005E+02  0.14918388368E+02  0.21108698612E+03  0.21208231436E+03  0.12700000000E+01 0. -1.
<mgrwt>
<rscale>  1 0.12661165E+03</rscale>
<asrwt>0</asrwt>
<pdfrwt beam="1">  1       21 0.37681718E-01 0.12661165E+03</pdfrwt>
<pdfrwt beam="2">  1       -4 0.18564395E-01 0.12661165E+03</pdfrwt>
<totfact> 0.71861469E+03</totfact>
</mgrwt>
</event>
<event>
 6    4  0.3189516E-003  0.1379758E+03  0.7818608E-02  0.1216079E+00
         -4   -1    0    0    0  501 -0.00000000000E+00  0.00000000000E+00  0.40881081525E+03  0.40881278792E+03  0.12700000000E+01 0.  1.
         21   -1    0    0  501  502  0.00000000000E+00 -0.00000000000E+00 -0.24740721497E+02  0.24740721497E+02  0.00000000000E+00 0.  1.
         25    2    1    2    0    0 -0.58207930365E+02 -0.48864609821E+01  0.22321603106E+03  0.26241706373E+03  0.12500111261E+03 0.  0.
    9000005    1    3    3    0    0 -0.61669529062E+02  0.20533164793E+02  0.37728196284E+02  0.75160883882E+02  0.10000000000E+01 0.  0.
    9000005    1    3    3    0    0  0.34615986961E+01 -0.25419625775E+02  0.18548783477E+03  0.18725617984E+03  0.10000000000E+01 0.  0.
         -4    1    1    2    0  502  0.58207930365E+02  0.48864609821E+01  0.16085406269E+03  0.17113644569E+03  0.12700000000E+01 0. -1.
<mgrwt>
<rscale>  1 0.13797579E+03</rscale>
<asrwt>0</asrwt>
<pdfrwt beam="2">  1       21 0.38062652E-02 0.13797579E+03</pdfrwt>
<pdfrwt beam="1">  1       -4 0.62896625E-01 0.13797579E+03</pdfrwt>
<totfact> 0.41419038E+04</totfact>
</mgrwt>
</event>
<event>
 6    4  0.3189516E-003  0.1281210E+03  0.7818608E-02  0.1230271E+00
         -4   -1    0    0    0  501 -0.00000000000E+00  0.00000000000E+00  0.73944271777E+03  0.73944380838E+03  0.12700000000E+01 0.  1.
         21   -1    0    0  501  502  0.00000000000E+00 -0.00000000000E+00 -0.12428409903E+02  0.12428409903E+02  0.00000000000E+00 0.  1.
         25    2    1    2    0    0  0.18627158247E+02 -0.21067476464E+02  0.70385239111E+03  0.71541818042E+03  0.12499669923E+03 0.  0.
    9000005    1    3    3    0    0  0.33477046065E+02 -0.64586914581E+02  0.28871742287E+03  0.29774306443E+03  0.10000000000E+01 0.  0.
    9000005    1    3    3    0    0 -0.14849887818E+02  0.43519438116E+02  0.41513496824E+03  0.41767511599E+03  0.10000000000E+01 0.  0.
         -4    1    1    2    0  502 -0.18627158247E+02  0.21067476464E+02  0.23161916751E+02  0.36454037863E+02  0.12700000000E+01 0. -1.
<mgrwt>
<rscale>  1 0.12812098E+03</rscale>
<asrwt>0</asrwt>
<pdfrwt beam="2">  1       21 0.19120636E-02 0.12812098E+03</pdfrwt>
<pdfrwt beam="1">  1       -4 0.11376546E+00 0.12812098E+03</pdfrwt>
<totfact> 0.33580244E+04</totfact>
</mgrwt>
</event>
<event>
 6    4  0.3189516E-003  0.1277112E+03  0.7818608E-02  0.1230892E+00
         21   -1    0    0  501  502  0.00000000000E+00  0.00000000000E+00  0.95848171349E+02  0.95848171349E+02  0.00000000000E+00 0. -1.
         -4   -1    0    0    0  501 -0.00000000000E+00 -0.00000000000E+00 -0.12173428468E+03  0.12174090917E+03  0.12700000000E+01 0.  1.
         25    2    1    2    0    0 -0.12216597415E+02  0.23150408673E+02 -0.84669274250E+02  0.15322869222E+03  0.12499983777E+03 0.  0.
    9000005    1    3    3    0    0 -0.91509350566E+01  0.69648883257E+02 -0.79870739172E+02  0.10637218399E+03  0.10000000000E+01 0.  0.
    9000005    1    3    3    0    0 -0.30656623585E+01 -0.46498474584E+02 -0.47985350782E+01  0.46856508227E+02  0.10000000000E+01 0.  0.
         -4    1    1    2    0  502  0.12216597415E+02 -0.23150408673E+02  0.58783160923E+02  0.64360388301E+02  0.12700000000E+01 0. -1.
<mgrwt>
<rscale>  1 0.12771118E+03</rscale>
<asrwt>0</asrwt>
<pdfrwt beam="1">  1       21 0.14745873E-01 0.12771118E+03</pdfrwt>
<pdfrwt beam="2">  1       -4 0.18729508E-01 0.12771118E+03</pdfrwt>
<totfact> 0.41393015E+04</totfact>
</mgrwt>
</event>
<event>
 6    4  0.3189516E-003  0.1296181E+03  0.7818608E-02  0.1228023E+00
         -4   -1    0    0    0  501 -0.00000000000E+00  0.00000000000E+00  0.24143259143E+02  0.24176638766E+02  0.12700000000E+01 0. -1.
         21   -1    0    0  501  502  0.00000000000E+00 -0.00000000000E+00 -0.36638468995E+03  0.36638468995E+03  0.00000000000E+00 0.  1.
         25    2    1    2    0    0 -0.11026196402E+02  0.32379042881E+02 -0.16387261981E+03  0.20893802332E+03  0.12502352835E+03 0.  0.
    9000005    1    3    3    0    0 -0.30879213289E+02 -0.20874867713E+02 -0.19608357126E+01  0.37338060904E+02  0.10000000000E+01 0.  0.
    9000005    1    3    3    0    0  0.19853016887E+02  0.53253910594E+02 -0.16191178410E+03  0.17159996242E+03  0.10000000000E+01 0.  0.
         -4    1    1    2    0  502  0.11026196402E+02 -0.32379042881E+02 -0.17836881100E+03  0.18162330539E+03  0.12700000000E+01 0.  1.
<mgrwt>
<rscale>  1 0.12961814E+03</rscale>
<asrwt>0</asrwt>
<pdfrwt beam="2">  1       21 0.56366873E-01 0.12961814E+03</pdfrwt>
<pdfrwt beam="1">  1       -4 0.37170847E-02 0.12961814E+03</pdfrwt>
<totfact> 0.46210646E+04</totfact>
</mgrwt>
</event>
<event>
 6    4  0.3189516E-003  0.1294073E+03  0.7818608E-02  0.1228338E+00
         21   -1    0    0  501  502  0.00000000000E+00  0.00000000000E+00  0.17426810089E+03  0.17426810089E+03  0.00000000000E+00 0.  1.
          4   -1    0    0  502    0 -0.00000000000E+00 -0.00000000000E+00 -0.48377647392E+02  0.48394314409E+02  0.12700000000E+01 0. -1.
         25    2    1    2    0    0  0.11923025565E+02 -0.31294427182E+02  0.48270866256E+02  0.13811708465E+03  0.12499901132E+03 0.  0.
    9000005    1    3    3    0    0 -0.31883119600E+02 -0.13958612501E+02  0.75890524722E+02  0.83496993485E+02  0.10000000000E+01 0.  0.
    9000005    1    3    3    0    0  0.43806145165E+02 -0.17335814681E+02 -0.27619658466E+02  0.54620091163E+02  0.10000000000E+01 0.  0.
          4    1    1    2  501    0 -0.11923025565E+02  0.31294427182E+02  0.77619587243E+02  0.84545330652E+02  0.12700000000E+01 0.  1.
<mgrwt>
<rscale>  1 0.12940731E+03</rscale>
<asrwt>0</asrwt>
<pdfrwt beam="1">  1       21 0.26810477E-01 0.12940731E+03</pdfrwt>
<pdfrwt beam="2">  1        4 0.74443531E-02 0.12940731E+03</pdfrwt>
<totfact> 0.66446325E+04</totfact>
</mgrwt>
</event>
<event>
 6    4  0.3189516E-003  0.1319333E+03  0.7818608E-02  0.1224615E+00
         -4   -1    0    0    0  501 -0.00000000000E+00  0.00000000000E+00  0.25195796552E+03  0.25196116623E+03  0.12700000000E+01 0.  1.
         21   -1    0    0  501  502  0.00000000000E+00 -0.00000000000E+00 -0.30262686634E+02  0.30262686634E+02  0.00000000000E+00 0.  1.
         25    2    1    2    0    0  0.29751980335E+02 -0.29931208015E+02  0.17670666554E+03  0.22052583200E+03  0.12500135755E+03 0.  0.
    9000005    1    3    3    0    0  0.22425915923E+02 -0.67704402993E+02  0.16584344099E+03  0.18053214343E+03  0.10000000000E+01 0.  0.
    9000005    1    3    3    0    0  0.73260644118E+01  0.37773194978E+02  0.10863224542E+02  0.39993688578E+02  0.10000000000E+01 0.  0.
         -4    1    1    2    0  502 -0.29751980335E+02  0.29931208015E+02  0.44988613353E+02  0.61698020864E+02  0.12700000000E+01 0. -1.
<mgrwt>
<rscale>  1 0.13193330E+03</rscale>
<asrwt>0</asrwt>
<pdfrwt beam="2">  1       21 0.46557981E-02 0.13193330E+03</pdfrwt>
<pdfrwt beam="1">  1       -4 0.38765058E-01 0.13193330E+03</pdfrwt>
<totfact> 0.78784024E+04</totfact>
</mgrwt>
</event>
<event>
 6    4  0.3189516E-003  0.1501667E+03  0.7818608E-02  0.1200268E+00
         21   -1    0    0  501  502  0.00000000000E+00  0.00000000000E+00  0.26421549148E+02  0.26421549148E+02  0.00000000000E+00 0.  1.
          4   -1    0    0  502    0 -0.00000000000E+00 -0.00000000000E+00 -0.70398222737E+03  0.70398337293E+03  0.12700000000E+01 0. -1.
         25    2    1    2    0    0  0.39355919412E+02  0.73317005770E+02 -0.59316665099E+03  0.61187966544E+03  0.12500310956E+03 0.  0.
    9000005    1    3    3    0    0 -0.21432119696E+02  0.80984361089E+02 -0.26126746299E+03  0.27437108032E+03  0.10000000000E+01 0.  0.
    9000005    1    3    3    0    0  0.60788039108E+02 -0.76673553184E+01 -0.33189918800E+03  0.33750858512E+03  0.10000000000E+01 0.  0.
          4    1    1    2  501    0 -0.39355919412E+02 -0.73317005770E+02 -0.84394027234E+02  0.11852525664E+03  0.12700000000E+01 0.  1.
<mgrwt>
<rscale>  1 0.15016674E+03</rscale>
<asrwt>0</asrwt>
<pdfrwt beam="1">  1       21 0.40648540E-02 0.15016674E+03</pdfrwt>
<pdfrwt beam="2">  1        4 0.10830739E+00 0.15016674E+03</pdfrwt>
<totfact> 0.11145689E+04</totfact>
</mgrwt>
</event>
<event>
 6    4  0.3189516E-003  0.1281919E+03  0.7818608E-02  0.1230164E+00
          4   -1    0    0  502    0 -0.00000000000E+00  0.00000000000E+00  0.32281015986E+02  0.32305988502E+02  0.12700000000E+01 0. -1.
         21   -1    0    0  501  502  0.00000000000E+00 -0.00000000000E+00 -0.61971945711E+03  0.61971945711E+03  0.00000000000E+00 0.  1.
         25    2    1    2    0    0  0.22845860707E+02  0.16935121100E+02 -0.96983353193E+02  0.16074493729E+03  0.12499772954E+03 0.  0.
    9000005    1    3    3    0    0 -0.36884041235E+02  0.13138836811E+02  0.79248735000E+01  0.39960795169E+02  0.10000000000E+01 0.  0.
    9000005    1    3    3    0    0  0.59729901942E+02  0.37962842895E+01 -0.10490822669E+03  0.12078414212E+03  0.10000000000E+01 0.  0.
          4    1    1    2  501    0 -0.22845860707E+02 -0.16935121100E+02 -0.49045508793E+03  0.49128050832E+03  0.12700000000E+01 0.  1.
<mgrwt>
<rscale>  1 0.12819190E+03</rscale>
<asrwt>0</asrwt>
<pdfrwt beam="2">  1       21 0.95341450E-01 0.12819190E+03</pdfrwt>
<pdfrwt beam="1">  1        4 0.49683315E-02 0.12819190E+03</pdfrwt>
<totfact> 0.91434698E+03</totfact>
</mgrwt>
</event>
<event>
 6    4  0.3189516E-003  0.1272159E+03  0.7818608E-02  0.1231646E+00
          4   -1    0    0  502    0 -0.00000000000E+00  0.00000000000E+00  0.92198912864E+02  0.92207659299E+02  0.12700000000E+01 0. -1.
         21   -1    0    0  501  502  0.00000000000E+00 -0.00000000000E+00 -0.63460511584E+02  0.63460511584E+02  0.00000000000E+00 0. -1.
         25    2    1    2    0    0  0.21873032279E+02  0.89022887299E+01  0.33481072426E+02  0.13154792803E+03  0.12500477940E+03 0.  0.
    9000005    1    3    3    0    0 -0.51253663625E+01 -0.29945923109E+02  0.66990986764E+02  0.73565073226E+02  0.10000000000E+01 0.  0.
    9000005    1    3    3    0    0  0.26998398641E+02  0.38848211839E+02 -0.33509914337E+02  0.57982854803E+02  0.10000000000E+01 0.  0.
          4    1    1    2  501    0 -0.21873032279E+02 -0.89022887299E+01 -0.47426711459E+01  0.24120242853E+02  0.12700000000E+01 0.  1.
<mgrwt>
<rscale>  1 0.12721586E+03</rscale>
<asrwt>0</asrwt>
<pdfrwt beam="2">  1       21 0.97631556E-02 0.12721586E+03</pdfrwt>
<pdfrwt beam="1">  1        4 0.14186099E-01 0.12721586E+03</pdfrwt>
<totfact> 0.14000312E+05</totfact>
</mgrwt>
</event>
<event>
 6    4  0.3189516E-003  0.1296448E+03  0.7818608E-02  0.1227984E+00
          4   -1    0    0  502    0 -0.00000000000E+00  0.00000000000E+00  0.70385422731E+01  0.71522008732E+01  0.12700000000E+01 0.  1.
         21   -1    0    0  501  502  0.00000000000E+00 -0.00000000000E+00 -0.13197536878E+04  0.13197536878E+04  0.00000000000E+00 0. -1.
         25    2    1    2    0    0  0.34375667056E+02  0.89264495866E+00 -0.62368736821E+03  0.63701939503E+03  0.12500117230E+03 0.  0.
    9000005    1    3    3    0    0 -0.30282227977E+02  0.60101018820E+01 -0.45868833916E+03  0.45972723123E+03  0.10000000000E+01 0.  0.
    9000005    1    3    3    0    0  0.64657895033E+02 -0.51174569233E+01 -0.16499902905E+03  0.17729216380E+03  0.10000000000E+01 0.  0.
          4    1    1    2  501    0 -0.34375667056E+02 -0.89264495866E+00 -0.68902777731E+03  0.68988649364E+03  0.12700000000E+01 0. -1.
<mgrwt>
<rscale>  1 0.12964481E+03</rscale>
<asrwt>0</asrwt>
<pdfrwt beam="2">  1       21 0.20303900E+00 0.12964481E+03</pdfrwt>
<pdfrwt beam="1">  1        4 0.10916428E-02 0.12964481E+03</pdfrwt>
<totfact> 0.13837716E+04</totfact>
</mgrwt>
</event>
<event>
 6    4  0.3189516E-003  0.1278486E+03  0.7818608E-02  0.1230683E+00
          4   -1    0    0  502    0 -0.00000000000E+00  0.00000000000E+00  0.60641644711E+02  0.60654941870E+02  0.12700000000E+01 0.  1.
         21   -1    0    0  501  502  0.00000000000E+00 -0.00000000000E+00 -0.99776823687E+02  0.99776823687E+02  0.00000000000E+00 0.  1.
         25    2    1    2    0    0  0.10863197071E+02 -0.24533138490E+02 -0.25730728588E+02  0.13041216987E+03  0.12500151888E+03 0.  0.
    9000005    1    3    3    0    0  0.44817554342E+02 -0.22502926498E+02 -0.62614461135E+02  0.80228209637E+02  0.10000000000E+01 0.  0.
    9000005    1    3    3    0    0 -0.33954357272E+02 -0.20302119925E+01  0.36883732547E+02  0.50183960237E+02  0.10000000000E+01 0.  0.
          4    1    1    2  501    0 -0.10863197071E+02  0.24533138490E+02 -0.13404450388E+02  0.30019595683E+02  0.12700000000E+01 0. -1.
<mgrwt>
<rscale>  1 0.12784860E+03</rscale>
<asrwt>0</asrwt>
<pdfrwt beam="2">  1       21 0.15350281E-01 0.12784860E+03</pdfrwt>
<pdfrwt beam="1">  1        4 0.93311284E-02 0.12784860E+03</pdfrwt>
<totfact> 0.12808665E+05</totfact>
</mgrwt>
</event>
<event>
 6    4  0.3189516E-003  0.1277688E+03  0.7818608E-02  0.1230804E+00
          4   -1    0    0  502    0 -0.00000000000E+00  0.00000000000E+00  0.39707698833E+03  0.39707901929E+03  0.12700000000E+01 0.  1.
         21   -1    0    0  501  502  0.00000000000E+00 -0.00000000000E+00 -0.14986334423E+02  0.14986334423E+02  0.00000000000E+00 0.  1.
         25    2    1    2    0    0 -0.25270402207E+02 -0.78330048904E+01  0.31957236449E+03  0.34416764680E+03  0.12499969504E+03 0.  0.
    9000005    1    3    3    0    0 -0.18584569444E+02 -0.59188052676E+02  0.24907599293E+03  0.25668747935E+03  0.10000000000E+01 0.  0.
    9000005    1    3    3    0    0 -0.66858327631E+01  0.51355047786E+02  0.70496371557E+02  0.87480167441E+02  0.10000000000E+01 0.  0.
          4    1    1    2  501    0  0.25270402207E+02  0.78330048904E+01  0.62518289414E+02  0.67897706917E+02  0.12700000000E+01 0. -1.
<mgrwt>
<rscale>  1 0.12776883E+03</rscale>
<asrwt>0</asrwt>
<pdfrwt beam="2">  1       21 0.23055902E-02 0.12776883E+03</pdfrwt>
<pdfrwt beam="1">  1        4 0.61093055E-01 0.12776883E+03</pdfrwt>
<totfact> 0.99199894E+04</totfact>
</mgrwt>
</event>
<event>
 6    4  0.3189516E-003  0.1785341E+03  0.7818608E-02  0.1169229E+00
         21   -1    0    0  501  502  0.00000000000E+00  0.00000000000E+00  0.62861668962E+03  0.62861668962E+03  0.00000000000E+00 0. -1.
          4   -1    0    0  502    0 -0.00000000000E+00 -0.00000000000E+00 -0.13213300521E+03  0.13213910838E+03  0.12700000000E+01 0.  1.
         25    2    1    2    0    0 -0.46902893006E+02  0.11852903635E+03 -0.61165841088E+02  0.18872116616E+03  0.12500161843E+03 0.  0.
    9000005    1    3    3    0    0 -0.75604163440E+02  0.23895110657E+02 -0.21431459487E+02  0.82141787772E+02  0.10000000000E+01 0.  0.
    9000005    1    3    3    0    0  0.28701270434E+02  0.94633925695E+02 -0.39734381601E+02  0.10657937839E+03  0.10000000000E+01 0.  0.
          4    1    1    2  501    0  0.46902893006E+02 -0.11852903635E+03  0.55764952550E+03  0.57203463184E+03  0.12700000000E+01 0. -1.
<mgrwt>
<rscale>  1 0.17853408E+03</rscale>
<asrwt>0</asrwt>
<pdfrwt beam="1">  1       21 0.96710258E-01 0.17853408E+03</pdfrwt>
<pdfrwt beam="2">  1        4 0.20328723E-01 0.17853408E+03</pdfrwt>
<totfact> 0.81879067E+02</totfact>
</mgrwt>
</event>
<event>
 6    4  0.3189516E-003  0.1286446E+03  0.7818608E-02  0.1229481E+00
          4   -1    0    0  502    0 -0.00000000000E+00  0.00000000000E+00  0.86436998472E+03  0.86437091771E+03  0.12700000000E+01 0. -1.
         21   -1    0    0  501  502  0.00000000000E+00 -0.00000000000E+00 -0.13178346582E+02  0.13178346582E+02  0.00000000000E+00 0.  1.
         25    2    1    2    0    0 -0.30417724375E+02  0.50934743334E+00  0.83126385192E+03  0.84115933499E+03  0.12499575172E+03 0.  0.
    9000005    1    3    3    0    0 -0.30425487430E+02  0.60808281128E+02  0.41016288563E+03  0.41576189109E+03  0.10000000000E+01 0.  0.
    9000005    1    3    3    0    0  0.77630542992E-02 -0.60298933694E+02  0.42110096629E+03  0.42539744390E+03  0.10000000000E+01 0.  0.
          4    1    1    2  501    0  0.30417724375E+02 -0.50934743334E+00  0.19927786224E+02  0.36389929304E+02  0.12700000000E+01 0.  1.
<mgrwt>
<rscale>  1 0.12864461E+03</rscale>
<asrwt>0</asrwt>
<pdfrwt beam="2">  1       21 0.20274386E-02 0.12864461E+03</pdfrwt>
<pdfrwt beam="1">  1        4 0.13298473E+00 0.12864461E+03</pdfrwt>
<totfact> 0.20974131E+04</totfact>
</mgrwt>
</event>
<event>
 6    4  0.3189516E-003  0.1677642E+03  0.7818608E-02  0.1180200E+00
         21   -1    0    0  501  502  0.00000000000E+00  0.00000000000E+00  0.78345692660E+03  0.78345692660E+03  0.00000000000E+00 0.  1.
          4   -1    0    0  502    0 -0.00000000000E+00 -0.00000000000E+00 -0.28270179161E+02  0.28298691309E+02  0.12700000000E+01 0. -1.
         25    2    1    2    0    0  0.10997224138E+03  0.20585244420E+02  0.30737705358E+03  0.35017920931E+03  0.12500871731E+03 0.  0.
    9000005    1    3    3    0    0  0.64244197342E+01 -0.43938983874E+02  0.63616727361E+02  0.77588629791E+02  0.10000000000E+01 0.  0.
    9000005    1    3    3    0    0  0.10354782164E+03  0.64524228293E+02  0.24376032622E+03  0.27259057952E+03  0.10000000000E+01 0.  0.
          4    1    1    2  501    0 -0.10997224138E+03 -0.20585244420E+02  0.44780969386E+03  0.46157640860E+03  0.12700000000E+01 0.  1.
<mgrwt>
<rscale>  1 0.16776420E+03</rscale>
<asrwt>0</asrwt>
<pdfrwt beam="1">  1       21 0.12053182E+00 0.16776420E+03</pdfrwt>
<pdfrwt beam="2">  1        4 0.43515314E-02 0.16776420E+03</pdfrwt>
<totfact> 0.65473667E+03</totfact>
</mgrwt>
</event>
<event>
 6    4  0.3189516E-003  0.1268877E+03  0.7818608E-02  0.1232148E+00
          4   -1    0    0  502    0 -0.00000000000E+00  0.00000000000E+00  0.37338019194E+03  0.37338235180E+03  0.12700000000E+01 0.  1.
         21   -1    0    0  501  502  0.00000000000E+00 -0.00000000000E+00 -0.30587804836E+02  0.30587804836E+02  0.00000000000E+00 0.  1.
         25    2    1    2    0    0  0.17617259589E+02 -0.12879743658E+02  0.35633653131E+03  0.37825416211E+03  0.12499692788E+03 0.  0.
    9000005    1    3    3    0    0 -0.15458029116E+02  0.39187349944E+02  0.26311424487E+03  0.26646708035E+03  0.10000000000E+01 0.  0.
    9000005    1    3    3    0    0  0.33075288705E+02 -0.52067093601E+02  0.93222286443E+02  0.11178708176E+03  0.10000000000E+01 0.  0.
          4    1    1    2  501    0 -0.17617259589E+02  0.12879743658E+02 -0.13544144203E+02  0.25715994523E+02  0.12700000000E+01 0. -1.
<mgrwt>
<rscale>  1 0.12688770E+03</rscale>
<asrwt>0</asrwt>
<pdfrwt beam="2">  1       21 0.47058164E-02 0.12688770E+03</pdfrwt>
<pdfrwt beam="1">  1        4 0.57445297E-01 0.12688770E+03</pdfrwt>
<totfact> 0.34818567E+04</totfact>
</mgrwt>
</event>
<event>
 6    4  0.3189516E-003  0.1296443E+03  0.7818608E-02  0.1227985E+00
         21   -1    0    0  501  502  0.00000000000E+00  0.00000000000E+00  0.11118018473E+04  0.11118018473E+04  0.00000000000E+00 0. -1.
         -4   -1    0    0    0  501 -0.00000000000E+00 -0.00000000000E+00 -0.98133637536E+01  0.98952012694E+01  0.12700000000E+01 0. -1.
         25    2    1    2    0    0 -0.90613824519E+01  0.32949795656E+02  0.43688377719E+03  0.45571380479E+03  0.12505934357E+03 0.  0.
    9000005    1    3    3    0    0 -0.11603718370E+02 -0.19108773798E+02  0.37112238527E+03  0.37179647170E+03  0.10000000000E+01 0.  0.
    9000005    1    3    3    0    0  0.25423359178E+01  0.52058569454E+02  0.65761391919E+02  0.83917333088E+02  0.10000000000E+01 0.  0.
         -4    1    1    2    0  502  0.90613824519E+01 -0.32949795656E+02  0.66510470638E+03  0.66598324381E+03  0.12700000000E+01 0.  1.
<mgrwt>
<rscale>  1 0.12964427E+03</rscale>
<asrwt>0</asrwt>
<pdfrwt beam="1">  1       21 0.17104634E+00 0.12964427E+03</pdfrwt>
<pdfrwt beam="2">  1       -4 0.15161001E-02 0.12964427E+03</pdfrwt>
<totfact> 0.13614904E+04</totfact>
</mgrwt>
</event>
<event>
 6    4  0.3189516E-003  0.1275914E+03  0.7818608E-02  0.1231074E+00
         21   -1    0    0  501  502  0.00000000000E+00  0.00000000000E+00  0.65749271363E+02  0.65749271363E+02  0.00000000000E+00 0. -1.
         -4   -1    0    0    0  501 -0.00000000000E+00 -0.00000000000E+00 -0.47988915246E+03  0.47989083295E+03  0.12700000000E+01 0.  1.
         25    2    1    2    0    0 -0.19571869526E+02 -0.16477541340E+02 -0.46849113454E+03  0.48555483910E+03  0.12499996475E+03 0.  0.
    9000005    1    3    3    0    0 -0.65783743609E+02 -0.14051458634E+02 -0.37771199398E+03  0.38365648021E+03  0.10000000000E+01 0.  0.
    9000005    1    3    3    0    0  0.46211874083E+02 -0.24260827053E+01 -0.90779140559E+02  0.10189835889E+03  0.10000000000E+01 0.  0.
         -4    1    1    2    0  502  0.19571869526E+02  0.16477541340E+02  0.54351253439E+02  0.60085265213E+02  0.12700000000E+01 0. -1.
<mgrwt>
<rscale>  1 0.12759137E+03</rscale>
<asrwt>0</asrwt>
<pdfrwt beam="1">  1       21 0.10115272E-01 0.12759137E+03</pdfrwt>
<pdfrwt beam="2">  1       -4 0.73830174E-01 0.12759137E+03</pdfrwt>
<totfact> 0.55210335E+03</totfact>
</mgrwt>
</event>
<event>
 6    4  0.3189516E-003  0.1282337E+03  0.7818608E-02  0.1230100E+00
         21   -1    0    0  501  502  0.00000000000E+00  0.00000000000E+00  0.15147070159E+02  0.15147070159E+02  0.00000000000E+00 0. -1.
         -4   -1    0    0    0  501 -0.00000000000E+00 -0.00000000000E+00 -0.50767777810E+03  0.50767936661E+03  0.12700000000E+01 0.  1.
         25    2    1    2    0    0 -0.27646190009E+02  0.71362819074E+01 -0.46771610254E+03  0.48497652418E+03  0.12501455151E+03 0.  0.
    9000005    1    3    3    0    0 -0.16499816436E+02  0.17394968590E+02 -0.46911704342E+03  0.46973037936E+03  0.10000000000E+01 0.  0.
    9000005    1    3    3    0    0 -0.11146373573E+02 -0.10258686682E+02  0.14009408804E+01  0.15246144812E+02  0.10000000000E+01 0.  0.
         -4    1    1    2    0  502  0.27646190009E+02 -0.71362819074E+01 -0.24814605406E+02  0.37849912588E+02  0.12700000000E+01 0. -1.
<mgrwt>
<rscale>  1 0.12823368E+03</rscale>
<asrwt>0</asrwt>
<pdfrwt beam="1">  1       21 0.23303188E-02 0.12823368E+03</pdfrwt>
<pdfrwt beam="2">  1       -4 0.78108479E-01 0.12823368E+03</pdfrwt>
<totfact> 0.57516015E+04</totfact>
</mgrwt>
</event>
<event>
 6    4  0.3189516E-003  0.1308507E+03  0.7818608E-02  0.1226199E+00
         -4   -1    0    0    0  501 -0.00000000000E+00  0.00000000000E+00  0.34238208638E+02  0.34261754636E+02  0.12700000000E+01 0.  1.
         21   -1    0    0  501  502  0.00000000000E+00 -0.00000000000E+00 -0.27226317891E+03  0.27226317891E+03  0.00000000000E+00 0.  1.
         25    2    1    2    0    0  0.38096215937E+02  0.66662087939E+01 -0.10435761298E+03  0.16736913844E+03  0.12500462833E+03 0.  0.
    9000005    1    3    3    0    0  0.62453526379E+02 -0.33953669914E+02 -0.95689732088E+02  0.11920914178E+03  0.10000000000E+01 0.  0.
    9000005    1    3    3    0    0 -0.24357310443E+02  0.40619878708E+02 -0.86678808970E+01  0.48159996652E+02  0.10000000000E+01 0.  0.
         -4    1    1    2    0  502 -0.38096215937E+02 -0.66662087939E+01 -0.13366735729E+03  0.13915579511E+03  0.12700000000E+01 0. -1.
<mgrwt>
<rscale>  1 0.13085074E+03</rscale>
<asrwt>0</asrwt>
<pdfrwt beam="2">  1       21 0.41886643E-01 0.13085074E+03</pdfrwt>
<pdfrwt beam="1">  1       -4 0.52694558E-02 0.13085074E+03</pdfrwt>
<totfact> 0.48800179E+04</totfact>
</mgrwt>
</event>
<event>
 6    4  0.3189516E-003  0.1274761E+03  0.7818608E-02  0.1231249E+00
          4   -1    0    0  502    0 -0.00000000000E+00  0.00000000000E+00  0.60379699393E+02  0.60393054227E+02  0.12700000000E+01 0. -1.
         21   -1    0    0  501  502  0.00000000000E+00 -0.00000000000E+00 -0.30446286899E+03  0.30446286899E+03  0.00000000000E+00 0.  1.
         25    2    1    2    0    0  0.10972505034E+02  0.22439853671E+02 -0.82958548928E+01  0.12774579358E+03  0.12500489459E+03 0.  0.
    9000005    1    3    3    0    0 -0.43479414628E+02 -0.61360191980E+01 -0.39239919952E+02  0.58897211699E+02  0.10000000000E+01 0.  0.
    9000005    1    3    3    0    0  0.54451919663E+02  0.28575872869E+02  0.30944065059E+02  0.68848581885E+02  0.10000000000E+01 0.  0.
          4    1    1    2  501    0 -0.10972505034E+02 -0.22439853671E+02 -0.23578731470E+03  0.23711012963E+03  0.12700000000E+01 0.  1.
<mgrwt>
<rscale>  1 0.12747614E+03</rscale>
<asrwt>0</asrwt>
<pdfrwt beam="2">  1       21 0.46840442E-01 0.12747614E+03</pdfrwt>
<pdfrwt beam="1">  1        4 0.92904154E-02 0.12747614E+03</pdfrwt>
<totfact> 0.15305548E+04</totfact>
</mgrwt>
</event>
<event>
 6    4  0.3189516E-003  0.1269118E+03  0.7818608E-02  0.1232111E+00
         21   -1    0    0  501  502  0.00000000000E+00  0.00000000000E+00  0.55477920118E+03  0.55477920118E+03  0.00000000000E+00 0.  1.
         -4   -1    0    0    0  501 -0.00000000000E+00 -0.00000000000E+00 -0.10344665178E+02  0.10422331680E+02  0.12700000000E+01 0.  1.
         25    2    1    2    0    0  0.18165986363E+02  0.12317479444E+02  0.41701254745E+03  0.43589685612E+03  0.12499952434E+03 0.  0.
    9000005    1    3    3    0    0  0.52846165854E+01  0.28343188886E+02  0.13485843639E+02  0.31845431499E+02  0.10000000000E+01 0.  0.
    9000005    1    3    3    0    0  0.12881369778E+02 -0.16025709442E+02  0.40352670381E+03  0.40405142462E+03  0.10000000000E+01 0.  0.
         -4    1    1    2    0  502 -0.18165986363E+02 -0.12317479444E+02  0.12742198856E+03  0.12930467674E+03  0.12700000000E+01 0. -1.
<mgrwt>
<rscale>  1 0.12691180E+03</rscale>
<asrwt>0</asrwt>
<pdfrwt beam="1">  1       21 0.85350623E-01 0.12691180E+03</pdfrwt>
<pdfrwt beam="2">  1       -4 0.15975735E-02 0.12691180E+03</pdfrwt>
<totfact> 0.69231297E+04</totfact>
</mgrwt>
</event>
<event>
 6    4  0.3189516E-003  0.1266792E+03  0.7818608E-02  0.1232468E+00
          4   -1    0    0  502    0 -0.00000000000E+00  0.00000000000E+00  0.38319000567E+03  0.38319211023E+03  0.12700000000E+01 0.  1.
         21   -1    0    0  501  502  0.00000000000E+00 -0.00000000000E+00 -0.16826401295E+02  0.16826401295E+02  0.00000000000E+00 0.  1.
         25    2    1    2    0    0 -0.20369707783E+02 -0.45644248770E+01  0.23470901873E+03  0.26671321610E+03  0.12494741773E+03 0.  0.
    9000005    1    3    3    0    0 -0.17217234312E+02  0.52400631323E+02  0.53948329538E+02  0.77160103553E+02  0.10000000000E+01 0.  0.
    9000005    1    3    3    0    0 -0.31524734705E+01 -0.56965056200E+02  0.18076068919E+03  0.18955311254E+03  0.10000000000E+01 0.  0.
          4    1    1    2  501    0  0.20369707783E+02  0.45644248770E+01  0.13165458564E+03  0.13330529543E+03  0.12700000000E+01 0. -1.
<mgrwt>
<rscale>  1 0.12667919E+03</rscale>
<asrwt>0</asrwt>
<pdfrwt beam="2">  1       21 0.25886774E-02 0.12667919E+03</pdfrwt>
<pdfrwt beam="1">  1        4 0.58956150E-01 0.12667919E+03</pdfrwt>
<totfact> 0.88434196E+04</totfact>
</mgrwt>
</event>
<event>
 6    4  0.3189516E-003  0.1267399E+03  0.7818608E-02  0.1232375E+00
         21   -1    0    0  501  502  0.00000000000E+00  0.00000000000E+00  0.27661492662E+03  0.27661492662E+03  0.00000000000E+00 0.  1.
          4   -1    0    0  502    0 -0.00000000000E+00 -0.00000000000E+00 -0.19705943924E+02  0.19746825718E+02  0.12700000000E+01 0.  1.
         25    2    1    2    0    0  0.19692396485E+02  0.70605219630E+01  0.21784533291E+03  0.25203091562E+03  0.12500140762E+03 0.  0.
    9000005    1    3    3    0    0 -0.26021246324E+02  0.42789107493E+02  0.16872778170E+03  0.17600590132E+03  0.10000000000E+01 0.  0.
    9000005    1    3    3    0    0  0.45713642808E+02 -0.35728585530E+02  0.49117551210E+02  0.76025014302E+02  0.10000000000E+01 0.  0.
          4    1    1    2  501    0 -0.19692396485E+02 -0.70605219630E+01  0.39063649784E+02  0.44330836719E+02  0.12700000000E+01 0. -1.
<mgrwt>
<rscale>  1 0.12673986E+03</rscale>
<asrwt>0</asrwt>
<pdfrwt beam="1">  1       21 0.42556140E-01 0.12673986E+03</pdfrwt>
<pdfrwt beam="2">  1        4 0.30350529E-02 0.12673986E+03</pdfrwt>
<totfact> 0.11301518E+05</totfact>
</mgrwt>
</event>
<event>
 6    4  0.3189516E-003  0.1278361E+03  0.7818608E-02  0.1230702E+00
         21   -1    0    0  501  502  0.00000000000E+00  0.00000000000E+00  0.25834027793E+02  0.25834027793E+02  0.00000000000E+00 0. -1.
         -4   -1    0    0    0  501 -0.00000000000E+00 -0.00000000000E+00 -0.23869987701E+03  0.23870325550E+03  0.12700000000E+01 0. -1.
         25    2    1    2    0    0 -0.23649758478E+02  0.12707578647E+02 -0.15637421530E+03  0.20197762189E+03  0.12498508273E+03 0.  0.
    9000005    1    3    3    0    0 -0.55145413028E+01  0.73818067987E+01 -0.17510424943E+03  0.17534936385E+03  0.10000000000E+01 0.  0.
    9000005    1    3    3    0    0 -0.18135217175E+02  0.53257718485E+01  0.18730034127E+02  0.26628258038E+02  0.10000000000E+01 0.  0.
         -4    1    1    2    0  502  0.23649758478E+02 -0.12707578647E+02 -0.56491633919E+02  0.62559661396E+02  0.12700000000E+01 0.  1.
<mgrwt>
<rscale>  1 0.12783608E+03</rscale>
<asrwt>0</asrwt>
<pdfrwt beam="1">  1       21 0.39744659E-02 0.12783608E+03</pdfrwt>
<pdfrwt beam="2">  1       -4 0.36725718E-01 0.12783608E+03</pdfrwt>
<totfact> 0.11343232E+05</totfact>
</mgrwt>
</event>
<event>
 6    4  0.3189516E-003  0.1266636E+03  0.7818608E-02  0.1232492E+00
          4   -1    0    0  502    0 -0.00000000000E+00  0.00000000000E+00  0.11742730832E+02  0.11811207702E+02  0.12700000000E+01 0.  1.
         21   -1    0    0  501  502  0.00000000000E+00 -0.00000000000E+00 -0.46012458513E+03  0.46012458513E+03  0.00000000000E+00 0.  1.
         25    2    1    2    0    0 -0.19800063410E+02 -0.51537271795E+01 -0.39076598871E+03  0.41078185361E+03  0.12500027963E+03 0.  0.
    9000005    1    3    3    0    0  0.80138832602E+01 -0.69642335361E+00  0.77829073637E+01  0.11237480920E+02  0.10000000000E+01 0.  0.
    9000005    1    3    3    0    0 -0.27813946670E+02 -0.44573038259E+01 -0.39854889608E+03  0.39954437269E+03  0.10000000000E+01 0.  0.
          4    1    1    2  501    0  0.19800063410E+02  0.51537271795E+01 -0.57615865586E+02  0.61153939219E+02  0.12700000000E+01 0. -1.
<mgrwt>
<rscale>  1 0.12666362E+03</rscale>
<asrwt>0</asrwt>
<pdfrwt beam="2">  1       21 0.70788403E-01 0.12666362E+03</pdfrwt>
<pdfrwt beam="1">  1        4 0.18119761E-02 0.12666362E+03</pdfrwt>
<totfact> 0.86506056E+04</totfact>
</mgrwt>
</event>
<event>
 6    4  0.3189516E-003  0.1331760E+03  0.7818608E-02  0.1222818E+00
         21   -1    0    0  501  502  0.00000000000E+00  0.00000000000E+00  0.32998098008E+02  0.32998098008E+02  0.00000000000E+00 0.  1.
         -4   -1    0    0    0  501 -0.00000000000E+00 -0.00000000000E+00 -0.32203586069E+03  0.32203836490E+03  0.12700000000E+01 0. -1.
         25    2    1    2    0    0 -0.30367750520E+02  0.34470262176E+02 -0.27727368483E+03  0.30759802202E+03  0.12500179041E+03 0.  0.
    9000005    1    3    3    0    0 -0.47372410865E+02  0.75079387630E+02 -0.19570484388E+03  0.21490101367E+03  0.10000000000E+01 0.  0.
    9000005    1    3    3    0    0  0.17004660344E+02 -0.40609125453E+02 -0.81568840952E+02  0.92697008354E+02  0.10000000000E+01 0.  0.
         -4    1    1    2    0  502  0.30367750520E+02 -0.34470262176E+02 -0.11764077848E+02  0.47438440887E+02  0.12700000000E+01 0.  1.
<mgrwt>
<rscale>  1 0.13317600E+03</rscale>
<asrwt>0</asrwt>
<pdfrwt beam="1">  1       21 0.50766303E-02 0.13317600E+03</pdfrwt>
<pdfrwt beam="2">  1       -4 0.49546053E-01 0.13317600E+03</pdfrwt>
<totfact> 0.41815749E+04</totfact>
</mgrwt>
</event>
<event>
 6    4  0.3189516E-003  0.1270538E+03  0.7818608E-02  0.1231894E+00
          4   -1    0    0  502    0 -0.00000000000E+00  0.00000000000E+00  0.73511468598E+01  0.74600442461E+01  0.12700000000E+01 0. -1.
         21   -1    0    0  501  502  0.00000000000E+00 -0.00000000000E+00 -0.12160595483E+04  0.12160595483E+04  0.00000000000E+00 0. -1.
         25    2    1    2    0    0 -0.19660539285E+02 -0.11427007250E+02 -0.55268135207E+03  0.56709730796E+03  0.12500226585E+03 0.  0.
    9000005    1    3    3    0    0  0.24476297402E+02  0.47200905191E+02 -0.20815022870E+03  0.21483605911E+03  0.10000000000E+01 0.  0.
    9000005    1    3    3    0    0 -0.44136836687E+02 -0.58627912440E+02 -0.34453112337E+03  0.35226124885E+03  0.10000000000E+01 0.  0.
          4    1    1    2  501    0  0.19660539285E+02  0.11427007250E+02 -0.65602704932E+03  0.65642228454E+03  0.12700000000E+01 0.  1.
<mgrwt>
<rscale>  1 0.12705385E+03</rscale>
<asrwt>0</asrwt>
<pdfrwt beam="2">  1       21 0.18708614E+00 0.12705385E+03</pdfrwt>
<pdfrwt beam="1">  1        4 0.11393731E-02 0.12705385E+03</pdfrwt>
<totfact> 0.16382455E+04</totfact>
</mgrwt>
</event>
<event>
 6    4  0.3189516E-003  0.1334547E+03  0.7818608E-02  0.1222418E+00
         -4   -1    0    0    0  501 -0.00000000000E+00  0.00000000000E+00  0.58755838163E+03  0.58755975417E+03  0.12700000000E+01 0.  1.
         21   -1    0    0  501  502  0.00000000000E+00 -0.00000000000E+00 -0.13830924889E+02  0.13830924889E+02  0.00000000000E+00 0. -1.
         25    2    1    2    0    0 -0.41560569042E+02 -0.21392095223E+02  0.43276201018E+03  0.45287208541E+03  0.12500106259E+03 0.  0.
    9000005    1    3    3    0    0 -0.43079370832E+02 -0.27954898403E+02  0.43996865581E+03  0.44295679996E+03  0.10000000000E+01 0.  0.
    9000005    1    3    3    0    0  0.15188017896E+01  0.65628031794E+01 -0.72066456239E+01  0.99152854521E+01  0.10000000000E+01 0.  0.
         -4    1    1    2    0  502  0.41560569042E+02  0.21392095223E+02  0.14096544656E+03  0.14851859365E+03  0.12700000000E+01 0. -1.
<mgrwt>
<rscale>  1 0.13345474E+03</rscale>
<asrwt>0</asrwt>
<pdfrwt beam="2">  1       21 0.21278351E-02 0.13345474E+03</pdfrwt>
<pdfrwt beam="1">  1       -4 0.90398169E-01 0.13345474E+03</pdfrwt>
<totfact> 0.48379571E+04</totfact>
</mgrwt>
</event>
<event>
 6    4  0.3189516E-003  0.1276064E+03  0.7818608E-02  0.1231051E+00
         21   -1    0    0  501  502  0.00000000000E+00  0.00000000000E+00  0.35853271964E+03  0.35853271964E+03  0.00000000000E+00 0. -1.
          4   -1    0    0  502    0 -0.00000000000E+00 -0.00000000000E+00 -0.26459018772E+02  0.26489480447E+02  0.12700000000E+01 0. -1.
         25    2    1    2    0    0 -0.77850831318E+01 -0.24445955009E+02  0.13306636613E+03  0.18436392237E+03  0.12500074336E+03 0.  0.
    9000005    1    3    3    0    0 -0.13075826458E-02  0.47507482686E+02  0.23404739556E+02  0.52969262280E+02  0.10000000000E+01 0.  0.
    9000005    1    3    3    0    0 -0.77837755491E+01 -0.71953437694E+02  0.10966162657E+03  0.13139466009E+03  0.10000000000E+01 0.  0.
          4    1    1    2  501    0  0.77850831318E+01  0.24445955009E+02  0.19900733474E+03  0.20065827772E+03  0.12700000000E+01 0.  1.
<mgrwt>
<rscale>  1 0.12760642E+03</rscale>
<asrwt>0</asrwt>
<pdfrwt beam="1">  1       21 0.55158876E-01 0.12760642E+03</pdfrwt>
<pdfrwt beam="2">  1        4 0.40731348E-02 0.12760642E+03</pdfrwt>
<totfact> 0.41765277E+04</totfact>
</mgrwt>
</event>
<event>
 6    4  0.3189516E-003  0.1297001E+03  0.7818608E-02  0.1227901E+00
          4   -1    0    0  502    0 -0.00000000000E+00  0.00000000000E+00  0.95189626113E+03  0.95189710833E+03  0.12700000000E+01 0.  1.
         21   -1    0    0  501  502  0.00000000000E+00 -0.00000000000E+00 -0.26289861624E+02  0.26289861624E+02  0.00000000000E+00 0. -1.
         25    2    1    2    0    0  0.32126508182E+02  0.12872867437E+02  0.93366359148E+03  0.94262920728E+03  0.12499718848E+03 0.  0.
    9000005    1    3    3    0    0  0.30101482669E+02 -0.54450069398E+02  0.46815800069E+03  0.47227515595E+03  0.10000000000E+01 0.  0.
    9000005    1    3    3    0    0  0.20250255138E+01  0.67322936835E+02  0.46550559079E+03  0.47035405134E+03  0.10000000000E+01 0.  0.
          4    1    1    2  501    0 -0.32126508182E+02 -0.12872867437E+02 -0.80571919708E+01  0.35557762675E+02  0.12700000000E+01 0. -1.
<mgrwt>
<rscale>  1 0.12970012E+03</rscale>
<asrwt>0</asrwt>
<pdfrwt beam="2">  1       21 0.40445948E-02 0.12970012E+03</pdfrwt>
<pdfrwt beam="1">  1        4 0.14644798E+00 0.12970012E+03</pdfrwt>
<totfact> 0.53279863E+03</totfact>
</mgrwt>
</event>
<event>
 6    4  0.3189516E-003  0.1304874E+03  0.7818608E-02  0.1226734E+00
         21   -1    0    0  501  502  0.00000000000E+00  0.00000000000E+00  0.29319187977E+02  0.29319187977E+02  0.00000000000E+00 0.  1.
          4   -1    0    0  502    0 -0.00000000000E+00 -0.00000000000E+00 -0.70356675686E+03  0.70356790309E+03  0.12700000000E+01 0. -1.
         25    2    1    2    0    0  0.30728171612E+02 -0.21345872898E+02 -0.68224037578E+03  0.69460700900E+03  0.12500839886E+03 0.  0.
    9000005    1    3    3    0    0 -0.16821377106E+02 -0.55763682546E+01 -0.58451960707E+03  0.58478904372E+03  0.10000000000E+01 0.  0.
    9000005    1    3    3    0    0  0.47549548718E+02 -0.15769504644E+02 -0.97720768716E+02  0.10981796528E+03  0.10000000000E+01 0.  0.
          4    1    1    2  501    0 -0.30728171612E+02  0.21345872898E+02  0.79928069041E+01  0.38280082061E+02  0.12700000000E+01 0.  1.
<mgrwt>
<rscale>  1 0.13048742E+03</rscale>
<asrwt>0</asrwt>
<pdfrwt beam="1">  1       21 0.45106442E-02 0.13048742E+03</pdfrwt>
<pdfrwt beam="2">  1        4 0.10824325E+00 0.13048742E+03</pdfrwt>
<totfact> 0.92647170E+03</totfact>
</mgrwt>
</event>
<event>
 6    4  0.3189516E-003  0.1269938E+03  0.7818608E-02  0.1231986E+00
         21   -1    0    0  501  502  0.00000000000E+00  0.00000000000E+00  0.44692794465E+02  0.44692794465E+02  0.00000000000E+00 0. -1.
          4   -1    0    0  502    0 -0.00000000000E+00 -0.00000000000E+00 -0.14025665481E+03  0.14026240451E+03  0.12700000000E+01 0. -1.
         25    2    1    2    0    0  0.80713285213E+00 -0.22413807874E+02 -0.10050650120E+03  0.16195361543E+03  0.12499754605E+03 0.  0.
    9000005    1    3    3    0    0 -0.36694795750E+02 -0.51108646431E+02 -0.15656572401E+02  0.64843889724E+02  0.10000000000E+01 0.  0.
    9000005    1    3    3    0    0  0.37501928602E+02  0.28694838558E+02 -0.84849928804E+02  0.97109725706E+02  0.10000000000E+01 0.  0.
          4    1    1    2  501    0 -0.80713285213E+00  0.22413807874E+02  0.49426408588E+01  0.23001583543E+02  0.12700000000E+01 0.  1.
<mgrwt>
<rscale>  1 0.12699377E+03</rscale>
<asrwt>0</asrwt>
<pdfrwt beam="1">  1       21 0.68758146E-02 0.12699377E+03</pdfrwt>
<pdfrwt beam="2">  1        4 0.21579777E-01 0.12699377E+03</pdfrwt>
<totfact> 0.12194223E+05</totfact>
</mgrwt>
</event>
<event>
 6    4  0.3189516E-003  0.1302443E+03  0.7818608E-02  0.1227094E+00
         21   -1    0    0  501  502  0.00000000000E+00  0.00000000000E+00  0.31949239720E+03  0.31949239720E+03  0.00000000000E+00 0.  1.
          4   -1    0    0  502    0 -0.00000000000E+00 -0.00000000000E+00 -0.25091344161E+02  0.25123464168E+02  0.12700000000E+01 0. -1.
         25    2    1    2    0    0  0.17060665825E+02 -0.32355213692E+02  0.16540904162E+03  0.21053201417E+03  0.12500260704E+03 0.  0.
    9000005    1    3    3    0    0 -0.29221607472E+02 -0.33645793468E+02  0.15732853403E+03  0.16352128113E+03  0.10000000000E+01 0.  0.
    9000005    1    3    3    0    0  0.46282273297E+02  0.12905797758E+01  0.80805075899E+01  0.47010733036E+02  0.10000000000E+01 0.  0.
          4    1    1    2  501    0 -0.17060665825E+02  0.32355213692E+02  0.12899201142E+03  0.13408384720E+03  0.12700000000E+01 0.  1.
<mgrwt>
<rscale>  1 0.13024430E+03</rscale>
<asrwt>0</asrwt>
<pdfrwt beam="1">  1       21 0.49152674E-01 0.13024430E+03</pdfrwt>
<pdfrwt beam="2">  1        4 0.38628720E-02 0.13024430E+03</pdfrwt>
<totfact> 0.57838688E+04</totfact>
</mgrwt>
</event>
<event>
 6    4  0.3189516E-003  0.1844170E+03  0.7818608E-02  0.1163595E+00
         21   -1    0    0  501  502  0.00000000000E+00  0.00000000000E+00  0.11685989603E+03  0.11685989603E+03  0.00000000000E+00 0. -1.
          4   -1    0    0  502    0 -0.00000000000E+00 -0.00000000000E+00 -0.53021463040E+03  0.53021615139E+03  0.12700000000E+01 0.  1.
         25    2    1    2    0    0  0.41228744585E+02 -0.12916603056E+03 -0.46635423290E+03  0.50149365640E+03  0.12500377610E+03 0.  0.
    9000005    1    3    3    0    0 -0.53666620617E+01  0.92611005313E+01 -0.17735780544E+03  0.17768331434E+03  0.10000000000E+01 0.  0.
    9000005    1    3    3    0    0  0.46595406647E+02 -0.13842713109E+03 -0.28899642746E+03  0.32381034206E+03  0.10000000000E+01 0.  0.
          4    1    1    2  501    0 -0.41228744585E+02  0.12916603056E+03  0.52999498526E+02  0.14558239102E+03  0.12700000000E+01 0. -1.
<mgrwt>
<rscale>  1 0.18441696E+03</rscale>
<asrwt>0</asrwt>
<pdfrwt beam="1">  1       21 0.17978445E-01 0.18441696E+03</pdfrwt>
<pdfrwt beam="2">  1        4 0.81572130E-01 0.18441696E+03</pdfrwt>
<totfact> 0.16078867E+03</totfact>
</mgrwt>
</event>
<event>
 6    4  0.3189516E-003  0.1315722E+03  0.7818608E-02  0.1225141E+00
         21   -1    0    0  501  502  0.00000000000E+00  0.00000000000E+00  0.71552048336E+02  0.71552048336E+02  0.00000000000E+00 0. -1.
         -4   -1    0    0    0  501 -0.00000000000E+00 -0.00000000000E+00 -0.19811543033E+03  0.19811950089E+03  0.12700000000E+01 0.  1.
         25    2    1    2    0    0  0.29103327211E+02 -0.28966865279E+02 -0.16661224113E+03  0.21229902134E+03  0.12500061051E+03 0.  0.
    9000005    1    3    3    0    0 -0.21937170242E+02  0.29375876058E+02 -0.11096822041E+03  0.11687226991E+03  0.10000000000E+01 0.  0.
    9000005    1    3    3    0    0  0.51040497454E+02 -0.58342741338E+02 -0.55644020719E+02  0.95426751432E+02  0.10000000000E+01 0.  0.
         -4    1    1    2    0  502 -0.29103327211E+02  0.28966865279E+02  0.40048859134E+02  0.57372527893E+02  0.12700000000E+01 0. -1.
<mgrwt>
<rscale>  1 0.13157217E+03</rscale>
<asrwt>0</asrwt>
<pdfrwt beam="1">  1       21 0.11008008E-01 0.13157217E+03</pdfrwt>
<pdfrwt beam="2">  1       -4 0.30480477E-01 0.13157217E+03</pdfrwt>
<totfact> 0.28591369E+04</totfact>
</mgrwt>
</event>
<event>
 6    4  0.3189516E-003  0.1412260E+03  0.7818608E-02  0.1211689E+00
         21   -1    0    0  501  502  0.00000000000E+00  0.00000000000E+00  0.51597287895E+02  0.51597287895E+02  0.00000000000E+00 0. -1.
         -4   -1    0    0    0  501 -0.00000000000E+00 -0.00000000000E+00 -0.28374519447E+03  0.28374803662E+03  0.12700000000E+01 0. -1.
         25    2    1    2    0    0  0.24956558531E+02  0.60800375510E+02 -0.22960461853E+03  0.26956085302E+03  0.12500102861E+03 0.  0.
    9000005    1    3    3    0    0  0.19949305465E+02  0.53288578042E+02 -0.20849394194E+02  0.60608123024E+02  0.10000000000E+01 0.  0.
    9000005    1    3    3    0    0  0.50072530664E+01  0.75117974678E+01 -0.20875522433E+03  0.20895272999E+03  0.10000000000E+01 0.  0.
         -4    1    1    2    0  502 -0.24956558531E+02 -0.60800375510E+02 -0.25432880452E+01  0.65784471496E+02  0.12700000000E+01 0.  1.
<mgrwt>
<rscale>  1 0.14122596E+03</rscale>
<asrwt>0</asrwt>
<pdfrwt beam="1">  1       21 0.79380444E-02 0.14122596E+03</pdfrwt>
<pdfrwt beam="2">  1       -4 0.43654527E-01 0.14122596E+03</pdfrwt>
<totfact> 0.25360112E+04</totfact>
</mgrwt>
</event>
<event>
 6    4  0.3189516E-003  0.1371930E+03  0.7818608E-02  0.1217157E+00
         -4   -1    0    0    0  501 -0.00000000000E+00  0.00000000000E+00  0.83690551499E+03  0.83690647860E+03  0.12700000000E+01 0. -1.
         21   -1    0    0  501  502  0.00000000000E+00 -0.00000000000E+00 -0.15986079544E+02  0.15986079544E+02  0.00000000000E+00 0.  1.
         25    2    1    2    0    0  0.12189295826E+02 -0.55214965852E+02  0.74867884572E+03  0.76114514897E+03  0.12499860951E+03 0.  0.
    9000005    1    3    3    0    0  0.52089612573E+02 -0.38868359712E+02  0.65260425264E+03  0.65583335359E+03  0.10000000000E+01 0.  0.
    9000005    1    3    3    0    0 -0.39900316748E+02 -0.16346606140E+02  0.96074593087E+02  0.10531179538E+03  0.10000000000E+01 0.  0.
         -4    1    1    2    0  502 -0.12189295826E+02  0.55214965852E+02  0.72240589727E+02  0.91747409178E+02  0.12700000000E+01 0.  1.
<mgrwt>
<rscale>  1 0.13719302E+03</rscale>
<asrwt>0</asrwt>
<pdfrwt beam="2">  1       21 0.24593975E-02 0.13719302E+03</pdfrwt>
<pdfrwt beam="1">  1       -4 0.12875862E+00 0.13719302E+03</pdfrwt>
<totfact> 0.16708660E+04</totfact>
</mgrwt>
</event>
<event>
 6    4  0.3189516E-003  0.1268574E+03  0.7818608E-02  0.1232195E+00
         21   -1    0    0  501  502  0.00000000000E+00  0.00000000000E+00  0.36549814944E+02  0.36549814944E+02  0.00000000000E+00 0.  1.
         -4   -1    0    0    0  501 -0.00000000000E+00 -0.00000000000E+00 -0.17430773247E+03  0.17431235900E+03  0.12700000000E+01 0.  1.
         25    2    1    2    0    0  0.62304620501E+01 -0.20710600280E+02 -0.82023394423E+02  0.15106503700E+03  0.12500024219E+03 0.  0.
    9000005    1    3    3    0    0  0.64131320988E+02 -0.19309233252E+02 -0.30740995334E+02  0.73699943111E+02  0.10000000000E+01 0.  0.
    9000005    1    3    3    0    0 -0.57900858938E+02 -0.14013670277E+01 -0.51282399089E+02  0.77365093884E+02  0.10000000000E+01 0.  0.
         -4    1    1    2    0  502 -0.62304620501E+01  0.20710600280E+02 -0.55734523107E+02  0.59797136949E+02  0.12700000000E+01 0. -1.
<mgrwt>
<rscale>  1 0.12685743E+03</rscale>
<asrwt>0</asrwt>
<pdfrwt beam="1">  1       21 0.56230484E-02 0.12685743E+03</pdfrwt>
<pdfrwt beam="2">  1       -4 0.26818628E-01 0.12685743E+03</pdfrwt>
<totfact> 0.11513951E+05</totfact>
</mgrwt>
</event>
<event>
 6    4  0.3189516E-003  0.1280603E+03  0.7818608E-02  0.1230363E+00
         21   -1    0    0  501  502  0.00000000000E+00  0.00000000000E+00  0.16870423679E+03  0.16870423679E+03  0.00000000000E+00 0.  1.
         -4   -1    0    0    0  501 -0.00000000000E+00 -0.00000000000E+00 -0.82176131951E+02  0.82185945042E+02  0.12700000000E+01 0. -1.
         25    2    1    2    0    0 -0.28893468980E+01  0.27674109331E+02 -0.29626544420E+02  0.13144261971E+03  0.12500090195E+03 0.  0.
    9000005    1    3    3    0    0 -0.53452460058E+02  0.40680846321E+02  0.71706429433E+01  0.67561193476E+02  0.10000000000E+01 0.  0.
    9000005    1    3    3    0    0  0.50563113160E+02 -0.13006736990E+02 -0.36797187363E+02  0.63881426232E+02  0.10000000000E+01 0.  0.
         -4    1    1    2    0  502  0.28893468980E+01 -0.27674109331E+02  0.11615464926E+03  0.11944756212E+03  0.12700000000E+01 0.  1.
<mgrwt>
<rscale>  1 0.12806026E+03</rscale>
<asrwt>0</asrwt>
<pdfrwt beam="1">  1       21 0.25954498E-01 0.12806026E+03</pdfrwt>
<pdfrwt beam="2">  1       -4 0.12643604E-01 0.12806026E+03</pdfrwt>
<totfact> 0.28993549E+04</totfact>
</mgrwt>
</event>
<event>
 6    4  0.3189516E-003  0.1271735E+03  0.7818608E-02  0.1231711E+00
         21   -1    0    0  501  502  0.00000000000E+00  0.00000000000E+00  0.16335717333E+02  0.16335717333E+02  0.00000000000E+00 0.  1.
          4   -1    0    0  502    0 -0.00000000000E+00 -0.00000000000E+00 -0.34726459306E+03  0.34726691534E+03  0.12700000000E+01 0.  1.
         25    2    1    2    0    0 -0.17505082227E+02 -0.15542437001E+02 -0.28176463394E+03  0.30913492829E+03  0.12500039877E+03 0.  0.
    9000005    1    3    3    0    0 -0.39107854924E+02 -0.56908126193E+02 -0.10037956803E+03  0.12184012813E+03  0.10000000000E+01 0.  0.
    9000005    1    3    3    0    0  0.21602772697E+02  0.41365689192E+02 -0.18138506591E+03  0.18729480016E+03  0.10000000000E+01 0.  0.
          4    1    1    2  501    0  0.17505082227E+02  0.15542437001E+02 -0.49164241781E+02  0.54467704390E+02  0.12700000000E+01 0. -1.
<mgrwt>
<rscale>  1 0.12717348E+03</rscale>
<asrwt>0</asrwt>
<pdfrwt beam="1">  1       21 0.25131873E-02 0.12717348E+03</pdfrwt>
<pdfrwt beam="2">  1        4 0.53429299E-01 0.12717348E+03</pdfrwt>
<totfact> 0.11387640E+05</totfact>
</mgrwt>
</event>
<event>
 6    4  0.3189516E-003  0.1367901E+03  0.7818608E-02  0.1217715E+00
         -4   -1    0    0    0  501 -0.00000000000E+00  0.00000000000E+00  0.76595522570E+02  0.76606050530E+02  0.12700000000E+01 0. -1.
         21   -1    0    0  501  502  0.00000000000E+00 -0.00000000000E+00 -0.12681179853E+03  0.12681179853E+03  0.00000000000E+00 0.  1.
         25    2    1    2    0    0 -0.16175974066E+02  0.53147591152E+02 -0.14954799269E+02  0.13760513585E+03  0.12500079523E+03 0.  0.
    9000005    1    3    3    0    0 -0.26850597693E+02 -0.17205677608E+02  0.37470633627E+02  0.49214208546E+02  0.10000000000E+01 0.  0.
    9000005    1    3    3    0    0  0.10674623627E+02  0.70353268760E+02 -0.52425432896E+02  0.88390927301E+02  0.10000000000E+01 0.  0.
         -4    1    1    2    0  502  0.16175974066E+02 -0.53147591152E+02 -0.35261476693E+02  0.65812713216E+02  0.12700000000E+01 0.  1.
<mgrwt>
<rscale>  1 0.13679009E+03</rscale>
<asrwt>0</asrwt>
<pdfrwt beam="2">  1       21 0.19509507E-01 0.13679009E+03</pdfrwt>
<pdfrwt beam="1">  1       -4 0.11785226E-01 0.13679009E+03</pdfrwt>
<totfact> 0.56207880E+04</totfact>
</mgrwt>
</event>
<event>
 6    4  0.3189516E-003  0.1266942E+03  0.7818608E-02  0.1232445E+00
          4   -1    0    0  502    0 -0.00000000000E+00  0.00000000000E+00  0.15525069718E+04  0.15525074913E+04  0.12700000000E+01 0.  1.
         21   -1    0    0  501  502  0.00000000000E+00 -0.00000000000E+00 -0.14948934182E+02  0.14948934182E+02  0.00000000000E+00 0.  1.
         25    2    1    2    0    0 -0.20271630469E+02  0.43045893259E+01  0.15411813984E+04  0.15463801323E+04  0.12498776797E+03 0.  0.
    9000005    1    3    3    0    0 -0.28280708392E+01 -0.52884247058E+02  0.38170478204E+03  0.38536253347E+03  0.10000000000E+01 0.  0.
    9000005    1    3    3    0    0 -0.17443559629E+02  0.57188836384E+02  0.11594766164E+04  0.11610175988E+04  0.10000000000E+01 0.  0.
          4    1    1    2  501    0  0.20271630469E+02 -0.43045893259E+01 -0.36233607804E+01  0.21076293186E+02  0.12700000000E+01 0. -1.
<mgrwt>
<rscale>  1 0.12669416E+03</rscale>
<asrwt>0</asrwt>
<pdfrwt beam="2">  1       21 0.22998373E-02 0.12669416E+03</pdfrwt>
<pdfrwt beam="1">  1        4 0.23885129E+00 0.12669416E+03</pdfrwt>
<totfact> 0.34264072E+03</totfact>
</mgrwt>
</event>
<event>
 6    4  0.3189516E-003  0.1329443E+03  0.7818608E-02  0.1223151E+00
         -4   -1    0    0    0  501 -0.00000000000E+00  0.00000000000E+00  0.29931539966E+03  0.29931809396E+03  0.12700000000E+01 0.  1.
         21   -1    0    0  501  502  0.00000000000E+00 -0.00000000000E+00 -0.54909424098E+02  0.54909424098E+02  0.00000000000E+00 0. -1.
         25    2    1    2    0    0 -0.33386800862E+02 -0.30573099652E+02  0.27089709292E+03  0.30176052755E+03  0.12499915254E+03 0.  0.
    9000005    1    3    3    0    0  0.37570181544E+02 -0.39009122615E+02  0.16772620929E+03  0.17625637994E+03  0.10000000000E+01 0.  0.
    9000005    1    3    3    0    0 -0.70956982405E+02  0.84360229630E+01  0.10317088363E+03  0.12550414760E+03  0.10000000000E+01 0.  0.
         -4    1    1    2    0  502  0.33386800862E+02  0.30573099652E+02 -0.26491117364E+02  0.52466990511E+02  0.12700000000E+01 0. -1.
<mgrwt>
<rscale>  1 0.13294428E+03</rscale>
<asrwt>0</asrwt>
<pdfrwt beam="2">  1       21 0.84476039E-02 0.13294428E+03</pdfrwt>
<pdfrwt beam="1">  1       -4 0.46049859E-01 0.13294428E+03</pdfrwt>
<totfact> 0.20335335E+04</totfact>
</mgrwt>
</event>
<event>
 6    4  0.3189516E-003  0.1321272E+03  0.7818608E-02  0.1224333E+00
         21   -1    0    0  501  502  0.00000000000E+00  0.00000000000E+00  0.16657002937E+03  0.16657002937E+03  0.00000000000E+00 0.  1.
         -4   -1    0    0    0  501 -0.00000000000E+00 -0.00000000000E+00 -0.49891503929E+02  0.49907665386E+02  0.12700000000E+01 0. -1.
         25    2    1    2    0    0  0.42803510661E+02  0.90487836015E+00  0.59169530256E+02  0.14477095339E+03  0.12499854521E+03 0.  0.
    9000005    1    3    3    0    0  0.45971778795E+02  0.26373659785E+02  0.90118139396E+02  0.10455263471E+03  0.10000000000E+01 0.  0.
    9000005    1    3    3    0    0 -0.31682681348E+01 -0.25468781425E+02 -0.30948609139E+02  0.40218318685E+02  0.10000000000E+01 0.  0.
         -4    1    1    2    0  502 -0.42803510661E+02 -0.90487836015E+00  0.57508995181E+02  0.71706741360E+02  0.12700000000E+01 0.  1.
<mgrwt>
<rscale>  1 0.13212719E+03</rscale>
<asrwt>0</asrwt>
<pdfrwt beam="1">  1       21 0.25626158E-01 0.13212719E+03</pdfrwt>
<pdfrwt beam="2">  1       -4 0.76772317E-02 0.13212719E+03</pdfrwt>
<totfact> 0.68995743E+04</totfact>
</mgrwt>
</event>
<event>
 6    4  0.3189516E-003  0.1552056E+03  0.7818608E-02  0.1194218E+00
          4   -1    0    0  502    0 -0.00000000000E+00  0.00000000000E+00  0.58377692394E+02  0.58391505112E+02  0.12700000000E+01 0.  1.
         21   -1    0    0  501  502  0.00000000000E+00 -0.00000000000E+00 -0.39944031627E+03  0.39944031627E+03  0.00000000000E+00 0. -1.
         25    2    1    2    0    0  0.80491233043E+02 -0.44550996163E+02 -0.67567458039E+02  0.16927533039E+03  0.12500058495E+03 0.  0.
    9000005    1    3    3    0    0  0.85674172195E+02 -0.45512191150E+02  0.43911579869E+01  0.97116968615E+02  0.10000000000E+01 0.  0.
    9000005    1    3    3    0    0 -0.51829391518E+01  0.96119498733E+00 -0.71958616025E+02  0.72158361777E+02  0.10000000000E+01 0.  0.
          4    1    1    2  501    0 -0.80491233043E+02  0.44550996163E+02 -0.27349516584E+03  0.28855649099E+03  0.12700000000E+01 0. -1.
<mgrwt>
<rscale>  1 0.15520559E+03</rscale>
<asrwt>0</asrwt>
<pdfrwt beam="2">  1       21 0.61452354E-01 0.15520559E+03</pdfrwt>
<pdfrwt beam="1">  1        4 0.89824015E-02 0.15520559E+03</pdfrwt>
<totfact> 0.93133351E+03</totfact>
</mgrwt>
</event>
<event>
 6    4  0.3189516E-003  0.1393084E+03  0.7818608E-02  0.1214263E+00
          4   -1    0    0  502    0 -0.00000000000E+00  0.00000000000E+00  0.95388031144E+01  0.96229758836E+01  0.12700000000E+01 0.  1.
         21   -1    0    0  501  502  0.00000000000E+00 -0.00000000000E+00 -0.10521993016E+04  0.10521993016E+04  0.00000000000E+00 0.  1.
         25    2    1    2    0    0  0.58829411806E+02 -0.17885002022E+02 -0.72597883933E+03  0.73922398372E+03  0.12500419980E+03 0.  0.
    9000005    1    3    3    0    0  0.91690264305E+02 -0.13466112710E+02 -0.35976372069E+03  0.37150959003E+03  0.10000000000E+01 0.  0.
    9000005    1    3    3    0    0 -0.32860852499E+02 -0.44188893127E+01 -0.36621511864E+03  0.36771439370E+03  0.10000000000E+01 0.  0.
          4    1    1    2  501    0 -0.58829411806E+02  0.17885002022E+02 -0.31668165919E+03  0.32259829380E+03  0.12700000000E+01 0. -1.
<mgrwt>
<rscale>  1 0.13930837E+03</rscale>
<asrwt>0</asrwt>
<pdfrwt beam="2">  1       21 0.16187690E+00 0.13930837E+03</pdfrwt>
<pdfrwt beam="1">  1        4 0.14740412E-02 0.13930837E+03</pdfrwt>
<totfact> 0.16536481E+04</totfact>
</mgrwt>
</event>
<event>
 6    4  0.3189516E-003  0.1309301E+03  0.7818608E-02  0.1226082E+00
         21   -1    0    0  501  502  0.00000000000E+00  0.00000000000E+00  0.53660620534E+03  0.53660620534E+03  0.00000000000E+00 0. -1.
          4   -1    0    0  502    0 -0.00000000000E+00 -0.00000000000E+00 -0.10150236541E+03  0.10151031023E+03  0.12700000000E+01 0.  1.
         25    2    1    2    0    0 -0.10300463794E+01 -0.38906695491E+02 -0.58196717547E+02  0.14328134619E+03  0.12501157660E+03 0.  0.
    9000005    1    3    3    0    0  0.47684131888E+02 -0.39421920389E+02  0.65765773071E+01  0.62226325700E+02  0.10000000000E+01 0.  0.
    9000005    1    3    3    0    0 -0.48714178268E+02  0.51522489717E+00 -0.64773294854E+02  0.81055020494E+02  0.10000000000E+01 0.  0.
          4    1    1    2  501    0  0.10300463794E+01  0.38906695491E+02  0.49330055747E+03  0.49483516938E+03  0.12700000000E+01 0. -1.
<mgrwt>
<rscale>  1 0.13093008E+03</rscale>
<asrwt>0</asrwt>
<pdfrwt beam="1">  1       21 0.82554799E-01 0.13093008E+03</pdfrwt>
<pdfrwt beam="2">  1        4 0.15616476E-01 0.13093008E+03</pdfrwt>
<totfact> 0.18760913E+03</totfact>
</mgrwt>
</event>
<event>
 6    4  0.3189516E-003  0.1282799E+03  0.7818608E-02  0.1230031E+00
         21   -1    0    0  501  502  0.00000000000E+00  0.00000000000E+00  0.14191404876E+02  0.14191404876E+02  0.00000000000E+00 0.  1.
          4   -1    0    0  502    0 -0.00000000000E+00 -0.00000000000E+00 -0.65328021575E+03  0.65328145022E+03  0.12700000000E+01 0.  1.
         25    2    1    2    0    0 -0.28771933023E+02  0.14031547585E+01 -0.61943303849E+03  0.63257650484E+03  0.12500380923E+03 0.  0.
    9000005    1    3    3    0    0 -0.18710575259E+02 -0.56434530222E+02 -0.43440326355E+03  0.43845425898E+03  0.10000000000E+01 0.  0.
    9000005    1    3    3    0    0 -0.10061357764E+02  0.57837684980E+02 -0.18502977494E+03  0.19412224586E+03  0.10000000000E+01 0.  0.
          4    1    1    2  501    0  0.28771933023E+02 -0.14031547585E+01 -0.19655772385E+02  0.34896350256E+02  0.12700000000E+01 0. -1.
<mgrwt>
<rscale>  1 0.12827995E+03</rscale>
<asrwt>0</asrwt>
<pdfrwt beam="1">  1       21 0.21832928E-02 0.12827995E+03</pdfrwt>
<pdfrwt beam="2">  1        4 0.10050913E+00 0.12827995E+03</pdfrwt>
<totfact> 0.36236929E+04</totfact>
</mgrwt>
</event>
<event>
 6    4  0.3189516E-003  0.1307674E+03  0.7818608E-02  0.1226322E+00
         -4   -1    0    0    0  501 -0.00000000000E+00  0.00000000000E+00  0.79421242149E+02  0.79431395584E+02  0.12700000000E+01 0.  1.
         21   -1    0    0  501  502  0.00000000000E+00 -0.00000000000E+00 -0.97172381450E+02  0.97172381450E+02  0.00000000000E+00 0. -1.
         25    2    1    2    0    0  0.23235229238E+02  0.30580357583E+02 -0.33634131845E+02  0.13502353533E+03  0.12500026449E+03 0.  0.
    9000005    1    3    3    0    0 -0.48964338892E+02  0.29127194048E+02 -0.25222147572E+02  0.62314176914E+02  0.10000000000E+01 0.  0.
    9000005    1    3    3    0    0  0.72199568131E+02  0.14531635350E+01 -0.84119842734E+01  0.72709358420E+02  0.10000000000E+01 0.  0.
         -4    1    1    2    0  502 -0.23235229238E+02 -0.30580357583E+02  0.15882992544E+02  0.41580241700E+02  0.12700000000E+01 0. -1.
<mgrwt>
<rscale>  1 0.13076735E+03</rscale>
<asrwt>0</asrwt>
<pdfrwt beam="2">  1       21 0.14949597E-01 0.13076735E+03</pdfrwt>
<pdfrwt beam="1">  1       -4 0.12220072E-01 0.13076735E+03</pdfrwt>
<totfact> 0.85382855E+04</totfact>
</mgrwt>
</event>
<event>
 6    4  0.3189516E-003  0.1325645E+03  0.7818608E-02  0.1223699E+00
          4   -1    0    0  502    0 -0.00000000000E+00  0.00000000000E+00  0.16743724169E+02  0.16791819409E+02  0.12700000000E+01 0.  1.
         21   -1    0    0  501  502  0.00000000000E+00 -0.00000000000E+00 -0.46700303306E+03  0.46700303306E+03  0.00000000000E+00 0.  1.
         25    2    1    2    0    0 -0.13846653196E+02 -0.41892752548E+02 -0.32561786774E+03  0.35156840174E+03  0.12500645098E+03 0.  0.
    9000005    1    3    3    0    0  0.48954351338E+02  0.11254892040E+02 -0.11902025221E+03  0.12918986626E+03  0.10000000000E+01 0.  0.
    9000005    1    3    3    0    0 -0.62801004533E+02 -0.53147644588E+02 -0.20659761553E+03  0.22237853547E+03  0.10000000000E+01 0.  0.
          4    1    1    2  501    0  0.13846653196E+02  0.41892752548E+02 -0.12464144115E+03  0.13222645073E+03  0.12700000000E+01 0. -1.
<mgrwt>
<rscale>  1 0.13256449E+03</rscale>
<asrwt>0</asrwt>
<pdfrwt beam="2">  1       21 0.71846609E-01 0.13256449E+03</pdfrwt>
<pdfrwt beam="1">  1        4 0.25797904E-02 0.13256449E+03</pdfrwt>
<totfact> 0.48782990E+04</totfact>
</mgrwt>
</event>
<event>
 6    4  0.3189516E-003  0.1435838E+03  0.7818608E-02  0.1208587E+00
         21   -1    0    0  501  502  0.00000000000E+00  0.00000000000E+00  0.14315142738E+02  0.14315142738E+02  0.00000000000E+00 0. -1.
         -4   -1    0    0    0  501 -0.00000000000E+00 -0.00000000000E+00 -0.81204620081E+03  0.81204719392E+03  0.12700000000E+01 0.  1.
         25    2    1    2    0    0  0.61863881903E+02 -0.34117992118E+02 -0.57703555003E+03  0.59463124802E+03  0.12500047141E+03 0.  0.
    9000005    1    3    3    0    0  0.28575640087E+02  0.43444126351E+02 -0.13630661092E+03  0.14589191719E+03  0.10000000000E+01 0.  0.
    9000005    1    3    3    0    0  0.33288241816E+02 -0.77562118469E+02 -0.44072893911E+03  0.44873933083E+03  0.10000000000E+01 0.  0.
         -4    1    1    2    0  502 -0.61863881903E+02  0.34117992118E+02 -0.22069550804E+03  0.23173108863E+03  0.12700000000E+01 0. -1.
<mgrwt>
<rscale>  1 0.14358376E+03</rscale>
<asrwt>0</asrwt>
<pdfrwt beam="1">  1       21 0.22023291E-02 0.14358376E+03</pdfrwt>
<pdfrwt beam="2">  1       -4 0.12493463E+00 0.14358376E+03</pdfrwt>
<totfact> 0.21618996E+04</totfact>
</mgrwt>
</event>
<event>
 6    4  0.3189516E-003  0.1517468E+03  0.7818608E-02  0.1198343E+00
         21   -1    0    0  501  502  0.00000000000E+00  0.00000000000E+00  0.25149455107E+02  0.25149455107E+02  0.00000000000E+00 0.  1.
          4   -1    0    0  502    0 -0.00000000000E+00 -0.00000000000E+00 -0.57461615426E+03  0.57461755771E+03  0.12700000000E+01 0. -1.
         25    2    1    2    0    0  0.71133465037E+02 -0.48393279473E+02 -0.39161831207E+03  0.41999046944E+03  0.12500085090E+03 0.  0.
    9000005    1    3    3    0    0  0.40787064162E+02 -0.89586794799E+02 -0.22260324370E+03  0.24339799200E+03  0.10000000000E+01 0.  0.
    9000005    1    3    3    0    0  0.30346400875E+02  0.41193515326E+02 -0.16901506837E+03  0.17659247744E+03  0.10000000000E+01 0.  0.
          4    1    1    2  501    0 -0.71133465037E+02  0.48393279473E+02 -0.15784838708E+03  0.17977654338E+03  0.12700000000E+01 0.  1.
<mgrwt>
<rscale>  1 0.15174680E+03</rscale>
<asrwt>0</asrwt>
<pdfrwt beam="1">  1       21 0.38691469E-02 0.15174680E+03</pdfrwt>
<pdfrwt beam="2">  1        4 0.88405062E-01 0.15174680E+03</pdfrwt>
<totfact> 0.19352741E+04</totfact>
</mgrwt>
</event>
<event>
 6    4  0.3189516E-003  0.1271195E+03  0.7818608E-02  0.1231794E+00
         -4   -1    0    0    0  501 -0.00000000000E+00  0.00000000000E+00  0.78519755459E+02  0.78530025451E+02  0.12700000000E+01 0.  1.
         21   -1    0    0  501  502  0.00000000000E+00 -0.00000000000E+00 -0.78410030960E+02  0.78410030960E+02  0.00000000000E+00 0.  1.
         25    2    1    2    0    0 -0.92252457142E+01 -0.21191184277E+02 -0.16868625872E+02  0.12823380742E+03  0.12500074951E+03 0.  0.
    9000005    1    3    3    0    0 -0.14964331289E+02  0.45202574111E+02 -0.35069416713E+02  0.59144466400E+02  0.10000000000E+01 0.  0.
    9000005    1    3    3    0    0  0.57390855752E+01 -0.66393758387E+02  0.18200790840E+02  0.69089341025E+02  0.10000000000E+01 0.  0.
         -4    1    1    2    0  502  0.92252457142E+01  0.21191184277E+02  0.16978350371E+02  0.28706248986E+02  0.12700000000E+01 0. -1.
<mgrwt>
<rscale>  1 0.12711947E+03</rscale>
<asrwt>0</asrwt>
<pdfrwt beam="2">  1       21 0.12063082E-01 0.12711947E+03</pdfrwt>
<pdfrwt beam="1">  1       -4 0.12081544E-01 0.12711947E+03</pdfrwt>
<totfact> 0.12723380E+05</totfact>
</mgrwt>
</event>
<event>
 6    4  0.3189516E-003  0.1382077E+03  0.7818608E-02  0.1215761E+00
          4   -1    0    0  502    0 -0.00000000000E+00  0.00000000000E+00  0.24540401802E+03  0.24540730421E+03  0.12700000000E+01 0. -1.
         21   -1    0    0  501  502  0.00000000000E+00 -0.00000000000E+00 -0.97691251532E+02  0.97691251532E+02  0.00000000000E+00 0.  1.
         25    2    1    2    0    0 -0.11245368792E+02  0.57880239140E+02  0.21376270103E+03  0.25455033636E+03  0.12499920395E+03 0.  0.
    9000005    1    3    3    0    0  0.12819667718E+02 -0.66818516250E+00 -0.13487226589E+02  0.18646598426E+02  0.10000000000E+01 0.  0.
    9000005    1    3    3    0    0 -0.24065036510E+02  0.58548424302E+02  0.22724992762E+03  0.23590373794E+03  0.10000000000E+01 0.  0.
          4    1    1    2  501    0  0.11245368792E+02 -0.57880239140E+02 -0.66049934542E+02  0.88548219379E+02  0.12700000000E+01 0.  1.
<mgrwt>
<rscale>  1 0.13820775E+03</rscale>
<asrwt>0</asrwt>
<pdfrwt beam="2">  1       21 0.15029423E-01 0.13820775E+03</pdfrwt>
<pdfrwt beam="1">  1        4 0.37755352E-01 0.13820775E+03</pdfrwt>
<totfact> 0.10927225E+04</totfact>
</mgrwt>
</event>
<event>
 6    4  0.3189516E-003  0.1298332E+03  0.7818608E-02  0.1227703E+00
          4   -1    0    0  502    0 -0.00000000000E+00  0.00000000000E+00  0.61149708317E+03  0.61149840198E+03  0.12700000000E+01 0. -1.
         21   -1    0    0  501  502  0.00000000000E+00 -0.00000000000E+00 -0.11143864325E+02  0.11143864325E+02  0.00000000000E+00 0. -1.
         25    2    1    2    0    0 -0.27270413933E+02 -0.22085969450E+02  0.48329681028E+03  0.50043227814E+03  0.12500077060E+03 0.  0.
    9000005    1    3    3    0    0 -0.43309779337E+01  0.78473534383E+01 -0.52469935383E+01  0.10434043657E+02  0.10000000000E+01 0.  0.
    9000005    1    3    3    0    0 -0.22939435999E+02 -0.29933322888E+02  0.48854380382E+03  0.48999823448E+03  0.10000000000E+01 0.  0.
          4    1    1    2  501    0  0.27270413933E+02  0.22085969450E+02  0.11705640856E+03  0.12220998817E+03  0.12700000000E+01 0.  1.
<mgrwt>
<rscale>  1 0.12983319E+03</rscale>
<asrwt>0</asrwt>
<pdfrwt beam="2">  1       21 0.17144412E-02 0.12983319E+03</pdfrwt>
<pdfrwt beam="1">  1        4 0.94082116E-01 0.12983319E+03</pdfrwt>
<totfact> 0.62354775E+04</totfact>
</mgrwt>
</event>
<event>
 6    4  0.3189516E-003  0.1269171E+03  0.7818608E-02  0.1232103E+00
         -4   -1    0    0    0  501 -0.00000000000E+00  0.00000000000E+00  0.18246348421E+03  0.18246790395E+03  0.12700000000E+01 0. -1.
         21   -1    0    0  501  502  0.00000000000E+00 -0.00000000000E+00 -0.58527106127E+02  0.58527106127E+02  0.00000000000E+00 0. -1.
         25    2    1    2    0    0 -0.21070252620E+02 -0.62227002760E+01  0.15662309466E+03  0.20159054479E+03  0.12500110569E+03 0.  0.
    9000005    1    3    3    0    0 -0.66358398461E+02  0.25157055165E+02  0.76573248751E+02  0.10440678568E+03  0.10000000000E+01 0.  0.
    9000005    1    3    3    0    0  0.45288145841E+02 -0.31379755441E+02  0.80049845910E+02  0.97183759114E+02  0.10000000000E+01 0.  0.
         -4    1    1    2    0  502  0.21070252620E+02  0.62227002760E+01 -0.32686716574E+02  0.39404465287E+02  0.12700000000E+01 0.  1.
<mgrwt>
<rscale>  1 0.12691711E+03</rscale>
<asrwt>0</asrwt>
<pdfrwt beam="2">  1       21 0.90041702E-02 0.12691711E+03</pdfrwt>
<pdfrwt beam="1">  1       -4 0.28072705E-01 0.12691711E+03</pdfrwt>
<totfact> 0.47228824E+04</totfact>
</mgrwt>
</event>
<event>
 6    4  0.3189516E-003  0.2063336E+03  0.7818608E-02  0.1144503E+00
         21   -1    0    0  501  502  0.00000000000E+00  0.00000000000E+00  0.38075085515E+02  0.38075085515E+02  0.00000000000E+00 0.  1.
         -4   -1    0    0    0  501 -0.00000000000E+00 -0.00000000000E+00 -0.11537446702E+04  0.11537453691E+04  0.12700000000E+01 0. -1.
         25    2    1    2    0    0  0.16311223036E+03  0.18536638175E+02 -0.88475930748E+03  0.90850018421E+03  0.12499738352E+03 0.  0.
    9000005    1    3    3    0    0  0.34355251782E+02  0.57030162538E+02 -0.39789248031E+03  0.40342551809E+03  0.10000000000E+01 0.  0.
    9000005    1    3    3    0    0  0.12875697858E+03 -0.38493524363E+02 -0.48686682717E+03  0.50507466611E+03  0.10000000000E+01 0.  0.
         -4    1    1    2    0  502 -0.16311223036E+03 -0.18536638175E+02 -0.23091027717E+03  0.28332027045E+03  0.12700000000E+01 0.  1.
<mgrwt>
<rscale>  1 0.20633360E+03</rscale>
<asrwt>0</asrwt>
<pdfrwt beam="1">  1       21 0.58577053E-02 0.20633360E+03</pdfrwt>
<pdfrwt beam="2">  1       -4 0.17750087E+00 0.20633360E+03</pdfrwt>
<totfact> 0.17570563E+03</totfact>
</mgrwt>
</event>
<event>
 6    4  0.3189516E-003  0.1274937E+03  0.7818608E-02  0.1231223E+00
          4   -1    0    0  502    0 -0.00000000000E+00  0.00000000000E+00  0.51875651944E+02  0.51891195444E+02  0.12700000000E+01 0. -1.
         21   -1    0    0  501  502  0.00000000000E+00 -0.00000000000E+00 -0.11308905237E+03  0.11308905237E+03  0.00000000000E+00 0. -1.
         25    2    1    2    0    0 -0.10833461121E+02 -0.22618775216E+02 -0.45560810079E+02  0.13538988863E+03  0.12500264660E+03 0.  0.
    9000005    1    3    3    0    0  0.53053104415E+02 -0.20470012802E+02  0.20236239741E-01  0.56874016226E+02  0.10000000000E+01 0.  0.
    9000005    1    3    3    0    0 -0.63886565536E+02 -0.21487624138E+01 -0.45581046319E+02  0.78515872405E+02  0.10000000000E+01 0.  0.
          4    1    1    2  501    0  0.10833461121E+02  0.22618775216E+02 -0.15652590349E+02  0.29590359187E+02  0.12700000000E+01 0.  1.
<mgrwt>
<rscale>  1 0.12749366E+03</rscale>
<asrwt>0</asrwt>
<pdfrwt beam="2">  1       21 0.17398316E-01 0.12749366E+03</pdfrwt>
<pdfrwt beam="1">  1        4 0.79826137E-02 0.12749366E+03</pdfrwt>
<totfact> 0.13225032E+05</totfact>
</mgrwt>
</event>
<event>
 6    4  0.3189516E-003  0.1343719E+03  0.7818608E-02  0.1221109E+00
          4   -1    0    0  502    0 -0.00000000000E+00  0.00000000000E+00  0.64166410639E+02  0.64178977511E+02  0.12700000000E+01 0.  1.
         21   -1    0    0  501  502  0.00000000000E+00 -0.00000000000E+00 -0.15688816813E+03  0.15688816813E+03  0.00000000000E+00 0. -1.
         25    2    1    2    0    0 -0.43629472688E+02 -0.23005511728E+02 -0.24048344798E+02  0.13650690103E+03  0.12499210649E+03 0.  0.
    9000005    1    3    3    0    0  0.31094031043E+02 -0.38766329705E+02  0.13350683059E+02  0.51467541455E+02  0.10000000000E+01 0.  0.
    9000005    1    3    3    0    0 -0.74723503730E+02  0.15760817977E+02 -0.37399027856E+02  0.85039359579E+02  0.10000000000E+01 0.  0.
          4    1    1    2  501    0  0.43629472688E+02  0.23005511728E+02 -0.68673412694E+02  0.84560244606E+02  0.12700000000E+01 0. -1.
<mgrwt>
<rscale>  1 0.13437191E+03</rscale>
<asrwt>0</asrwt>
<pdfrwt beam="2">  1       21 0.24136641E-01 0.13437191E+03</pdfrwt>
<pdfrwt beam="1">  1        4 0.98731177E-02 0.13437191E+03</pdfrwt>
<totfact> 0.50907161E+04</totfact>
</mgrwt>
</event>
<event>
 6    4  0.3189516E-003  0.1276948E+03  0.7818608E-02  0.1230917E+00
         -4   -1    0    0    0  501 -0.00000000000E+00  0.00000000000E+00  0.65706753039E+02  0.65719025365E+02  0.12700000000E+01 0.  1.
         21   -1    0    0  501  502  0.00000000000E+00 -0.00000000000E+00 -0.92883606399E+02  0.92883606399E+02  0.00000000000E+00 0.  1.
         25    2    1    2    0    0  0.18972872809E+02  0.17909151583E+02 -0.11674053411E+02  0.12822735696E+03  0.12500105574E+03 0.  0.
    9000005    1    3    3    0    0  0.92696256754E+01  0.37035986049E+02  0.50003179150E+02  0.62919854958E+02  0.10000000000E+01 0.  0.
    9000005    1    3    3    0    0  0.97032471339E+01 -0.19126834466E+02 -0.61677232561E+02  0.65307502004E+02  0.10000000000E+01 0.  0.
         -4    1    1    2    0  502 -0.18972872809E+02 -0.17909151583E+02 -0.15502799949E+02  0.30375274802E+02  0.12700000000E+01 0. -1.
<mgrwt>
<rscale>  1 0.12769484E+03</rscale>
<asrwt>0</asrwt>
<pdfrwt beam="2">  1       21 0.14289786E-01 0.12769484E+03</pdfrwt>
<pdfrwt beam="1">  1       -4 0.10110343E-01 0.12769484E+03</pdfrwt>
<totfact> 0.12732816E+05</totfact>
</mgrwt>
</event>
<event>
 6    4  0.3189516E-003  0.1358260E+03  0.7818608E-02  0.1219058E+00
          4   -1    0    0  502    0 -0.00000000000E+00  0.00000000000E+00  0.14909598992E+03  0.14910139876E+03  0.12700000000E+01 0.  1.
         21   -1    0    0  501  502  0.00000000000E+00 -0.00000000000E+00 -0.74856292019E+02  0.74856292019E+02  0.00000000000E+00 0. -1.
         25    2    1    2    0    0  0.46944030222E+02 -0.24920245161E+02  0.96194133755E+02  0.16643925247E+03  0.12499581113E+03 0.  0.
    9000005    1    3    3    0    0 -0.27602534102E+02  0.26596955984E+02  0.54622428072E+02  0.66737602631E+02  0.10000000000E+01 0.  0.
    9000005    1    3    3    0    0  0.74546564323E+02 -0.51517201145E+02  0.41571705683E+02  0.99701649834E+02  0.10000000000E+01 0.  0.
          4    1    1    2  501    0 -0.46944030222E+02  0.24920245161E+02 -0.21954435850E+02  0.57518438312E+02  0.12700000000E+01 0. -1.
<mgrwt>
<rscale>  1 0.13582604E+03</rscale>
<asrwt>0</asrwt>
<pdfrwt beam="2">  1       21 0.11516353E-01 0.13582604E+03</pdfrwt>
<pdfrwt beam="1">  1        4 0.22939089E-01 0.13582604E+03</pdfrwt>
<totfact> 0.44945046E+04</totfact>
</mgrwt>
</event>
<event>
 6    4  0.3189516E-003  0.1345671E+03  0.7818608E-02  0.1220832E+00
         -4   -1    0    0    0  501 -0.00000000000E+00  0.00000000000E+00  0.30052214630E+02  0.30079037621E+02  0.12700000000E+01 0.  1.
         21   -1    0    0  501  502  0.00000000000E+00 -0.00000000000E+00 -0.29340717739E+03  0.29340717739E+03  0.00000000000E+00 0.  1.
         25    2    1    2    0    0  0.25148882021E+02 -0.43025953203E+02 -0.16251608399E+03  0.21099714315E+03  0.12499847178E+03 0.  0.
    9000005    1    3    3    0    0 -0.12249518306E+02  0.40564845853E+02 -0.42418438854E+02  0.59965668283E+02  0.10000000000E+01 0.  0.
    9000005    1    3    3    0    0  0.37398400328E+02 -0.83590799056E+02 -0.12009764513E+03  0.15103147487E+03  0.10000000000E+01 0.  0.
         -4    1    1    2    0  502 -0.25148882021E+02  0.43025953203E+02 -0.10083887877E+03  0.11248907186E+03  0.12700000000E+01 0. -1.
<mgrwt>
<rscale>  1 0.13456715E+03</rscale>
<asrwt>0</asrwt>
<pdfrwt beam="2">  1       21 0.45139566E-01 0.13456715E+03</pdfrwt>
<pdfrwt beam="1">  1       -4 0.46256923E-02 0.13456715E+03</pdfrwt>
<totfact> 0.51866416E+04</totfact>
</mgrwt>
</event>
<event>
 6    4  0.3189516E-003  0.1281267E+03  0.7818608E-02  0.1230262E+00
         -4   -1    0    0    0  501 -0.00000000000E+00  0.00000000000E+00  0.15550065637E+03  0.15550584244E+03  0.12700000000E+01 0.  1.
         21   -1    0    0  501  502  0.00000000000E+00 -0.00000000000E+00 -0.41375378853E+02  0.41375378853E+02  0.00000000000E+00 0.  1.
         25    2    1    2    0    0 -0.24770456793E+02 -0.13324324149E+02  0.10909494717E+03  0.16827999287E+03  0.12500134143E+03 0.  0.
    9000005    1    3    3    0    0  0.92783282453E+01 -0.27987207049E+02  0.12462858868E+03  0.12807285524E+03  0.10000000000E+01 0.  0.
    9000005    1    3    3    0    0 -0.34048785038E+02  0.14662882900E+02 -0.15533641513E+02  0.40207137627E+02  0.10000000000E+01 0.  0.
         -4    1    1    2    0  502  0.24770456793E+02  0.13324324149E+02  0.50303303516E+01  0.28601228421E+02  0.12700000000E+01 0. -1.
<mgrwt>
<rscale>  1 0.12812669E+03</rscale>
<asrwt>0</asrwt>
<pdfrwt beam="2">  1       21 0.63654430E-02 0.12812669E+03</pdfrwt>
<pdfrwt beam="1">  1       -4 0.23925076E-01 0.12812669E+03</pdfrwt>
<totfact> 0.11538682E+05</totfact>
</mgrwt>
</event>
<event>
 6    4  0.3189516E-003  0.1440296E+03  0.7818608E-02  0.1208007E+00
          4   -1    0    0  502    0 -0.00000000000E+00  0.00000000000E+00  0.67692686246E+02  0.67704598597E+02  0.12700000000E+01 0. -1.
         21   -1    0    0  501  502  0.00000000000E+00 -0.00000000000E+00 -0.17530490242E+03  0.17530490242E+03  0.00000000000E+00 0. -1.
         25    2    1    2    0    0 -0.16144007323E+02  0.69696068274E+02 -0.54905376114E+02  0.15413996296E+03  0.12500542768E+03 0.  0.
    9000005    1    3    3    0    0 -0.58646407002E+01 -0.29874116003E+02  0.13060970907E+02  0.33142808851E+02  0.10000000000E+01 0.  0.
    9000005    1    3    3    0    0 -0.10279366623E+02  0.99570184277E+02 -0.67966347021E+02  0.12099715411E+03  0.10000000000E+01 0.  0.
          4    1    1    2  501    0  0.16144007323E+02 -0.69696068274E+02 -0.52706840059E+02  0.88869538056E+02  0.12700000000E+01 0.  1.
<mgrwt>
<rscale>  1 0.14402961E+03</rscale>
<asrwt>0</asrwt>
<pdfrwt beam="2">  1       21 0.26969985E-01 0.14402961E+03</pdfrwt>
<pdfrwt beam="1">  1        4 0.10415530E-01 0.14402961E+03</pdfrwt>
<totfact> 0.37964819E+04</totfact>
</mgrwt>
</event>
<event>
 6    4  0.3189516E-003  0.1268193E+03  0.7818608E-02  0.1232253E+00
         21   -1    0    0  501  502  0.00000000000E+00  0.00000000000E+00  0.28515741830E+02  0.28515741830E+02  0.00000000000E+00 0. -1.
          4   -1    0    0  502    0 -0.00000000000E+00 -0.00000000000E+00 -0.20724218036E+03  0.20724607167E+03  0.12700000000E+01 0. -1.
         25    2    1    2    0    0  0.15302002785E+02  0.14943333212E+02 -0.17119390164E+03  0.21305043950E+03  0.12500273324E+03 0.  0.
    9000005    1    3    3    0    0 -0.38696356159E+02  0.16947396557E+00 -0.66961957485E+01  0.39284548348E+02  0.10000000000E+01 0.  0.
    9000005    1    3    3    0    0  0.53998358944E+02  0.14773859247E+02 -0.16449770589E+03  0.17376589115E+03  0.10000000000E+01 0.  0.
          4    1    1    2  501    0 -0.15302002785E+02 -0.14943333212E+02 -0.75325368968E+01  0.22711373997E+02  0.12700000000E+01 0.  1.
<mgrwt>
<rscale>  1 0.12681931E+03</rscale>
<asrwt>0</asrwt>
<pdfrwt beam="1">  1       21 0.43870375E-02 0.12681931E+03</pdfrwt>
<pdfrwt beam="2">  1        4 0.31885885E-01 0.12681931E+03</pdfrwt>
<totfact> 0.12611171E+05</totfact>
</mgrwt>
</event>
<event>
 6    4  0.3189516E-003  0.1270472E+03  0.7818608E-02  0.1231904E+00
         21   -1    0    0  501  502  0.00000000000E+00  0.00000000000E+00  0.75187659407E+02  0.75187659407E+02  0.00000000000E+00 0.  1.
          4   -1    0    0  502    0 -0.00000000000E+00 -0.00000000000E+00 -0.83766015675E+02  0.83775642535E+02  0.12700000000E+01 0.  1.
         25    2    1    2    0    0 -0.77693196075E+00  0.22710657599E+02 -0.26758001210E+02  0.12983445057E+03  0.12499846533E+03 0.  0.
    9000005    1    3    3    0    0  0.93818004279E+01  0.73871258312E+02 -0.10609588751E+02  0.75223296639E+02  0.10000000000E+01 0.  0.
    9000005    1    3    3    0    0 -0.10158732389E+02 -0.51160600712E+02 -0.16148412460E+02  0.54611153934E+02  0.10000000000E+01 0.  0.
          4    1    1    2  501    0  0.77693196075E+00 -0.22710657599E+02  0.18179644942E+02  0.29128851369E+02  0.12700000000E+01 0. -1.
<mgrwt>
<rscale>  1 0.12704721E+03</rscale>
<asrwt>0</asrwt>
<pdfrwt beam="1">  1       21 0.11567332E-01 0.12704721E+03</pdfrwt>
<pdfrwt beam="2">  1        4 0.12888645E-01 0.12704721E+03</pdfrwt>
<totfact> 0.12265061E+05</totfact>
</mgrwt>
</event>
<event>
 6    4  0.3189516E-003  0.1284023E+03  0.7818608E-02  0.1229846E+00
         21   -1    0    0  501  502  0.00000000000E+00  0.00000000000E+00  0.16873104976E+03  0.16873104976E+03  0.00000000000E+00 0.  1.
         -4   -1    0    0    0  501 -0.00000000000E+00 -0.00000000000E+00 -0.80889462238E+02  0.80899431402E+02  0.12700000000E+01 0. -1.
         25    2    1    2    0    0  0.92666336622E+01  0.27857247537E+02 -0.26896627948E+02  0.13118907063E+03  0.12500098767E+03 0.  0.
    9000005    1    3    3    0    0  0.52840862551E+02  0.50012140373E+02  0.47998327592E+01  0.72920568664E+02  0.10000000000E+01 0.  0.
    9000005    1    3    3    0    0 -0.43574228889E+02 -0.22154892837E+02 -0.31696460708E+02  0.58268501965E+02  0.10000000000E+01 0.  0.
         -4    1    1    2    0  502 -0.92666336622E+01 -0.27857247537E+02  0.11473821547E+03  0.11844141053E+03  0.12700000000E+01 0.  1.
<mgrwt>
<rscale>  1 0.12840227E+03</rscale>
<asrwt>0</asrwt>
<pdfrwt beam="1">  1       21 0.25958623E-01 0.12840227E+03</pdfrwt>
<pdfrwt beam="2">  1       -4 0.12445667E-01 0.12840227E+03</pdfrwt>
<totfact> 0.29788445E+04</totfact>
</mgrwt>
</event>
<event>
 6    4  0.3189516E-003  0.1267096E+03  0.7818608E-02  0.1232421E+00
         21   -1    0    0  501  502  0.00000000000E+00  0.00000000000E+00  0.65145390345E+02  0.65145390345E+02  0.00000000000E+00 0.  1.
          4   -1    0    0  502    0 -0.00000000000E+00 -0.00000000000E+00 -0.99665555368E+02  0.99673646601E+02  0.12700000000E+01 0.  1.
         25    2    1    2    0    0 -0.77532048471E+01 -0.19238536730E+02 -0.26072013781E+01  0.12673644736E+03  0.12500038444E+03 0.  0.
    9000005    1    3    3    0    0  0.32184080853E+02  0.33749365232E+02 -0.29436805308E+02  0.55157594406E+02  0.10000000000E+01 0.  0.
    9000005    1    3    3    0    0 -0.39937285700E+02 -0.52987901962E+02  0.26829603930E+02  0.71578852956E+02  0.10000000000E+01 0.  0.
          4    1    1    2  501    0  0.77532048471E+01  0.19238536730E+02 -0.31912963645E+02  0.38082589585E+02  0.12700000000E+01 0. -1.
<mgrwt>
<rscale>  1 0.12670963E+03</rscale>
<asrwt>0</asrwt>
<pdfrwt beam="1">  1       21 0.10022368E-01 0.12670963E+03</pdfrwt>
<pdfrwt beam="2">  1        4 0.15334737E-01 0.12670963E+03</pdfrwt>
<totfact> 0.11671661E+05</totfact>
</mgrwt>
</event>
<event>
 6    4  0.3189516E-003  0.1273878E+03  0.7818608E-02  0.1231384E+00
         21   -1    0    0  501  502  0.00000000000E+00  0.00000000000E+00  0.48079449031E+02  0.48079449031E+02  0.00000000000E+00 0.  1.
          4   -1    0    0  502    0 -0.00000000000E+00 -0.00000000000E+00 -0.12052026615E+03  0.12052695737E+03  0.12700000000E+01 0. -1.
         25    2    1    2    0    0  0.18367115965E+02 -0.16412209501E+02 -0.63808506702E+02  0.14247517504E+03  0.12498375256E+03 0.  0.
    9000005    1    3    3    0    0  0.35041481518E+00  0.55283390877E+01  0.37161336686E+02  0.37585240027E+02  0.10000000000E+01 0.  0.
    9000005    1    3    3    0    0  0.18016701150E+02 -0.21940548589E+02 -0.10096984339E+03  0.10488993501E+03  0.10000000000E+01 0.  0.
          4    1    1    2  501    0 -0.18367115965E+02  0.16412209501E+02 -0.86323104209E+01  0.26131231368E+02  0.12700000000E+01 0.  1.
<mgrwt>
<rscale>  1 0.12738779E+03</rscale>
<asrwt>0</asrwt>
<pdfrwt beam="1">  1       21 0.73968384E-02 0.12738779E+03</pdfrwt>
<pdfrwt beam="2">  1        4 0.18543384E-01 0.12738779E+03</pdfrwt>
<totfact> 0.14137697E+05</totfact>
</mgrwt>
</event>
<event>
 6    4  0.3189516E-003  0.1317298E+03  0.7818608E-02  0.1224911E+00
         21   -1    0    0  501  502  0.00000000000E+00  0.00000000000E+00  0.47505251839E+03  0.47505251839E+03  0.00000000000E+00 0.  1.
          4   -1    0    0  502    0 -0.00000000000E+00 -0.00000000000E+00 -0.15840395979E+02  0.15891225402E+02  0.12700000000E+01 0.  1.
         25    2    1    2    0    0 -0.38182881347E+02  0.16424569753E+02  0.36137038017E+03  0.38463138165E+03  0.12500019666E+03 0.  0.
    9000005    1    3    3    0    0 -0.48135386053E+02  0.25626990751E+02  0.36617554594E+03  0.37021519214E+03  0.10000000000E+01 0.  0.
    9000005    1    3    3    0    0  0.99525047063E+01 -0.92024209975E+01 -0.48051657647E+01  0.14416189516E+02  0.10000000000E+01 0.  0.
          4    1    1    2  501    0  0.38182881347E+02 -0.16424569753E+02  0.97841742240E+02  0.10631236214E+03  0.12700000000E+01 0. -1.
<mgrwt>
<rscale>  1 0.13172983E+03</rscale>
<asrwt>0</asrwt>
<pdfrwt beam="1">  1       21 0.73084992E-01 0.13172983E+03</pdfrwt>
<pdfrwt beam="2">  1        4 0.24410249E-02 0.13172983E+03</pdfrwt>
<totfact> 0.51167334E+04</totfact>
</mgrwt>
</event>
<event>
 6    4  0.3189516E-003  0.1280289E+03  0.7818608E-02  0.1230410E+00
         -4   -1    0    0    0  501 -0.00000000000E+00  0.00000000000E+00  0.16452784271E+03  0.16453274424E+03  0.12700000000E+01 0.  1.
         21   -1    0    0  501  502  0.00000000000E+00 -0.00000000000E+00 -0.37282632114E+02  0.37282632114E+02  0.00000000000E+00 0.  1.
         25    2    1    2    0    0  0.24780479585E+02 -0.12381421382E+02  0.11236515678E+03  0.17034474456E+03  0.12499612705E+03 0.  0.
    9000005    1    3    3    0    0  0.58795296130E+02 -0.47230725286E+02  0.87946129814E+02  0.11585831868E+03  0.10000000000E+01 0.  0.
    9000005    1    3    3    0    0 -0.34014816545E+02  0.34849303903E+02  0.24419026971E+02  0.54486425882E+02  0.10000000000E+01 0.  0.
         -4    1    1    2    0  502 -0.24780479585E+02  0.12381421382E+02  0.14880053808E+02  0.31470631789E+02  0.12700000000E+01 0. -1.
<mgrwt>
<rscale>  1 0.12802892E+03</rscale>
<asrwt>0</asrwt>
<pdfrwt beam="2">  1       21 0.57357897E-02 0.12802892E+03</pdfrwt>
<pdfrwt beam="1">  1       -4 0.25314016E-01 0.12802892E+03</pdfrwt>
<totfact> 0.12408625E+05</totfact>
</mgrwt>
</event>
<event>
 6    4  0.3189516E-003  0.1281627E+03  0.7818608E-02  0.1230208E+00
         -4   -1    0    0    0  501 -0.00000000000E+00  0.00000000000E+00  0.69628367787E+02  0.69639949029E+02  0.12700000000E+01 0. -1.
         21   -1    0    0  501  502  0.00000000000E+00 -0.00000000000E+00 -0.10212492552E+03  0.10212492552E+03  0.00000000000E+00 0. -1.
         25    2    1    2    0    0  0.60960618445E+01 -0.27624779479E+02  0.65617967224E+00  0.12816433202E+03  0.12500150007E+03 0.  0.
    9000005    1    3    3    0    0  0.12025449659E+02 -0.75911965642E+02 -0.12217637420E+02  0.77829998273E+02  0.10000000000E+01 0.  0.
    9000005    1    3    3    0    0 -0.59293878145E+01  0.48287186163E+02  0.12873817092E+02  0.50334333749E+02  0.10000000000E+01 0.  0.
         -4    1    1    2    0  502 -0.60960618445E+01  0.27624779479E+02 -0.33152737409E+02  0.43600542531E+02  0.12700000000E+01 0.  1.
<mgrwt>
<rscale>  1 0.12816265E+03</rscale>
<asrwt>0</asrwt>
<pdfrwt beam="2">  1       21 0.15711527E-01 0.12816265E+03</pdfrwt>
<pdfrwt beam="1">  1       -4 0.10713555E-01 0.12816265E+03</pdfrwt>
<totfact> 0.97369656E+04</totfact>
</mgrwt>
</event>
<event>
 6    4  0.3189516E-003  0.2662633E+03  0.7818608E-02  0.1103437E+00
         21   -1    0    0  501  502  0.00000000000E+00  0.00000000000E+00  0.24334560991E+04  0.24334560991E+04  0.00000000000E+00 0. -1.
         -4   -1    0    0    0  501 -0.00000000000E+00 -0.00000000000E+00 -0.14312037929E+03  0.14312601394E+03  0.12700000000E+01 0.  1.
         25    2    1    2    0    0  0.22793954175E+02  0.23398959687E+03 -0.78728913281E+01  0.26637971303E+03  0.12500189321E+03 0.  0.
    9000005    1    3    3    0    0 -0.17163229524E+02 -0.28140783399E+01  0.17741040786E+02  0.24864432685E+02  0.10000000000E+01 0.  0.
    9000005    1    3    3    0    0  0.39957183699E+02  0.23680367521E+03 -0.25613932114E+02  0.24151528035E+03  0.10000000000E+01 0.  0.
         -4    1    1    2    0  502 -0.22793954175E+02 -0.23398959687E+03  0.22982086112E+04  0.23102024000E+04  0.12700000000E+01 0. -1.
<mgrwt>
<rscale>  1 0.26626335E+03</rscale>
<asrwt>0</asrwt>
<pdfrwt beam="1">  1       21 0.37437783E+00 0.26626335E+03</pdfrwt>
<pdfrwt beam="2">  1       -4 0.22018981E-01 0.26626335E+03</pdfrwt>
<totfact> 0.92848525E+00</totfact>
</mgrwt>
</event>
<event>
 6    4  0.3189516E-003  0.1310917E+03  0.7818608E-02  0.1225845E+00
         -4   -1    0    0    0  501 -0.00000000000E+00  0.00000000000E+00  0.10586989055E+04  0.10586996672E+04  0.12700000000E+01 0.  1.
         21   -1    0    0  501  502  0.00000000000E+00 -0.00000000000E+00 -0.15048478110E+02  0.15048478110E+02  0.00000000000E+00 0. -1.
         25    2    1    2    0    0 -0.11827669455E+02 -0.37678450556E+02  0.10185202932E+04  0.10269219140E+04  0.12500188116E+03 0.  0.
    9000005    1    3    3    0    0  0.19739262046E+02 -0.13138143659E+02  0.92378302545E+03  0.92408783532E+03  0.10000000000E+01 0.  0.
    9000005    1    3    3    0    0 -0.31566931500E+02 -0.24540306898E+02  0.94737267791E+02  0.10283407867E+03  0.10000000000E+01 0.  0.
         -4    1    1    2    0  502  0.11827669455E+02  0.37678450556E+02  0.25130134162E+02  0.46826231367E+02  0.12700000000E+01 0. -1.
<mgrwt>
<rscale>  1 0.13109168E+03</rscale>
<asrwt>0</asrwt>
<pdfrwt beam="2">  1       21 0.23151513E-02 0.13109168E+03</pdfrwt>
<pdfrwt beam="1">  1       -4 0.16288088E+00 0.13109168E+03</pdfrwt>
<totfact> 0.10142742E+04</totfact>
</mgrwt>
</event>
<event>
 6    4  0.3189516E-003  0.1266237E+03  0.7818608E-02  0.1232553E+00
         21   -1    0    0  501  502  0.00000000000E+00  0.00000000000E+00  0.86795251925E+02  0.86795251925E+02  0.00000000000E+00 0. -1.
         -4   -1    0    0    0  501 -0.00000000000E+00 -0.00000000000E+00 -0.62297159136E+02  0.62310103004E+02  0.12700000000E+01 0. -1.
         25    2    1    2    0    0  0.12273060821E+01  0.20232126311E+02  0.23391353368E+02  0.12876615663E+03  0.12499088953E+03 0.  0.
    9000005    1    3    3    0    0  0.50979408680E+02  0.17637643665E+02  0.48873881026E+02  0.72798645797E+02  0.10000000000E+01 0.  0.
    9000005    1    3    3    0    0 -0.49752102597E+02  0.25944826459E+01 -0.25482527658E+02  0.55967510833E+02  0.10000000000E+01 0.  0.
         -4    1    1    2    0  502 -0.12273060821E+01 -0.20232126311E+02  0.11067394203E+01  0.20339198299E+02  0.12700000000E+01 0.  1.
<mgrwt>
<rscale>  1 0.12662372E+03</rscale>
<asrwt>0</asrwt>
<pdfrwt beam="1">  1       21 0.13353116E-01 0.12662372E+03</pdfrwt>
<pdfrwt beam="2">  1       -4 0.95858886E-02 0.12662372E+03</pdfrwt>
<totfact> 0.15702772E+05</totfact>
</mgrwt>
</event>
<event>
 6    4  0.3189516E-003  0.1266370E+03  0.7818608E-02  0.1232533E+00
         21   -1    0    0  501  502  0.00000000000E+00  0.00000000000E+00  0.58698455958E+02  0.58698455958E+02  0.00000000000E+00 0. -1.
         -4   -1    0    0    0  501 -0.00000000000E+00 -0.00000000000E+00 -0.11405331350E+03  0.11406038410E+03  0.12700000000E+01 0. -1.
         25    2    1    2    0    0  0.43245748503E+01 -0.19831564105E+02 -0.72707106111E+02  0.14602484834E+03  0.12499976069E+03 0.  0.
    9000005    1    3    3    0    0 -0.24810467346E+02 -0.33308888478E+02  0.21296645708E+02  0.46686062803E+02  0.10000000000E+01 0.  0.
    9000005    1    3    3    0    0  0.29135042197E+02  0.13477324373E+02 -0.94003751819E+02  0.99338785538E+02  0.10000000000E+01 0.  0.
         -4    1    1    2    0  502 -0.43245748503E+01  0.19831564105E+02  0.17352248570E+02  0.26733991713E+02  0.12700000000E+01 0.  1.
<mgrwt>
<rscale>  1 0.12663701E+03</rscale>
<asrwt>0</asrwt>
<pdfrwt beam="1">  1       21 0.90305316E-02 0.12663701E+03</pdfrwt>
<pdfrwt beam="2">  1       -4 0.17548264E-01 0.12663701E+03</pdfrwt>
<totfact> 0.11040168E+05</totfact>
</mgrwt>
</event>
<event>
 6    4  0.3189516E-003  0.1283844E+03  0.7818608E-02  0.1229873E+00
         21   -1    0    0  501  502  0.00000000000E+00  0.00000000000E+00  0.24925383094E+03  0.24925383094E+03  0.00000000000E+00 0.  1.
          4   -1    0    0  502    0 -0.00000000000E+00 -0.00000000000E+00 -0.26187044828E+02  0.26217822504E+02  0.12700000000E+01 0.  1.
         25    2    1    2    0    0 -0.22545957367E+02 -0.18655352550E+02  0.15429796311E+03  0.20072470509E+03  0.12500481366E+03 0.  0.
    9000005    1    3    3    0    0 -0.26650966999E+02  0.43638335420E+02  0.11775150340E+03  0.12837832727E+03  0.10000000000E+01 0.  0.
    9000005    1    3    3    0    0  0.41050096324E+01 -0.62293687971E+02  0.36546459714E+02  0.72346377813E+02  0.10000000000E+01 0.  0.
          4    1    1    2  501    0  0.22545957367E+02  0.18655352550E+02  0.68768822996E+02  0.74746948356E+02  0.12700000000E+01 0. -1.
<mgrwt>
<rscale>  1 0.12838437E+03</rscale>
<asrwt>0</asrwt>
<pdfrwt beam="1">  1       21 0.38346742E-01 0.12838437E+03</pdfrwt>
<pdfrwt beam="2">  1        4 0.40313927E-02 0.12838437E+03</pdfrwt>
<totfact> 0.89145625E+04</totfact>
</mgrwt>
</event>
<event>
 6    4  0.3189516E-003  0.1275887E+03  0.7818608E-02  0.1231078E+00
         21   -1    0    0  501  502  0.00000000000E+00  0.00000000000E+00  0.39050000312E+03  0.39050000312E+03  0.00000000000E+00 0.  1.
         -4   -1    0    0    0  501 -0.00000000000E+00 -0.00000000000E+00 -0.15211365998E+02  0.15264290207E+02  0.12700000000E+01 0.  1.
         25    2    1    2    0    0  0.18490596007E+02 -0.17647388649E+02  0.32897146836E+03  0.35284713647E+03  0.12500216902E+03 0.  0.
    9000005    1    3    3    0    0 -0.42220367178E+02  0.12114472149E+02  0.22191907682E+03  0.22622642750E+03  0.10000000000E+01 0.  0.
    9000005    1    3    3    0    0  0.60710963185E+02 -0.29761860798E+02  0.10705239153E+03  0.12662070898E+03  0.10000000000E+01 0.  0.
         -4    1    1    2    0  502 -0.18490596007E+02  0.17647388649E+02  0.46317168762E+02  0.52917156848E+02  0.12700000000E+01 0. -1.
<mgrwt>
<rscale>  1 0.12758869E+03</rscale>
<asrwt>0</asrwt>
<pdfrwt beam="1">  1       21 0.60076916E-01 0.12758869E+03</pdfrwt>
<pdfrwt beam="2">  1       -4 0.23444404E-02 0.12758869E+03</pdfrwt>
<totfact> 0.82890439E+04</totfact>
</mgrwt>
</event>
<event>
 6    4  0.3189516E-003  0.1271464E+03  0.7818608E-02  0.1231752E+00
         21   -1    0    0  501  502  0.00000000000E+00  0.00000000000E+00  0.80845133864E+01  0.80845133864E+01  0.00000000000E+00 0.  1.
          4   -1    0    0  502    0 -0.00000000000E+00 -0.00000000000E+00 -0.13951166492E+04  0.13951172272E+04  0.12700000000E+01 0. -1.
         25    2    1    2    0    0 -0.14998320971E+02  0.17840826903E+02 -0.13656200436E+04  0.13715262718E+04  0.12499186295E+03 0.  0.
    9000005    1    3    3    0    0  0.38178317673E+02 -0.18701925476E+02 -0.21891689474E+03  0.22300886252E+03  0.10000000000E+01 0.  0.
    9000005    1    3    3    0    0 -0.53176638644E+02  0.36542752379E+02 -0.11467031489E+04  0.11485174092E+04  0.10000000000E+01 0.  0.
          4    1    1    2  501    0  0.14998320971E+02 -0.17840826903E+02 -0.21412092134E+02  0.31675468838E+02  0.12700000000E+01 0.  1.
<mgrwt>
<rscale>  1 0.12714641E+03</rscale>
<asrwt>0</asrwt>
<pdfrwt beam="1">  1       21 0.12437712E-02 0.12714641E+03</pdfrwt>
<pdfrwt beam="2">  1        4 0.21464107E+00 0.12714641E+03</pdfrwt>
<totfact> 0.12753255E+04</totfact>
</mgrwt>
</event>
<event>
 6    4  0.3189516E-003  0.1305500E+03  0.7818608E-02  0.1226642E+00
         -4   -1    0    0    0  501 -0.00000000000E+00  0.00000000000E+00  0.15481128785E+02  0.15533133890E+02  0.12700000000E+01 0. -1.
         21   -1    0    0  501  502  0.00000000000E+00 -0.00000000000E+00 -0.47794720882E+03  0.47794720882E+03  0.00000000000E+00 0.  1.
         25    2    1    2    0    0  0.36407659205E+02  0.96487336469E+01 -0.39733147139E+03  0.41822912443E+03  0.12499874660E+03 0.  0.
    9000005    1    3    3    0    0  0.28327781488E+02 -0.99961727187E+01 -0.39576681488E+03  0.39690648575E+03  0.10000000000E+01 0.  0.
    9000005    1    3    3    0    0  0.80798777167E+01  0.19644906366E+02 -0.15646565116E+01  0.21322638674E+02  0.10000000000E+01 0.  0.
         -4    1    1    2    0  502 -0.36407659205E+02 -0.96487336469E+01 -0.65134608639E+02  0.75251218278E+02  0.12700000000E+01 0.  1.
<mgrwt>
<rscale>  1 0.13055000E+03</rscale>
<asrwt>0</asrwt>
<pdfrwt beam="2">  1       21 0.73530350E-01 0.13055000E+03</pdfrwt>
<pdfrwt beam="1">  1       -4 0.23858420E-02 0.13055000E+03</pdfrwt>
<totfact> 0.52261486E+04</totfact>
</mgrwt>
</event>
<event>
 6    4  0.3189516E-003  0.1300040E+03  0.7818608E-02  0.1227450E+00
         -4   -1    0    0    0  501 -0.00000000000E+00  0.00000000000E+00  0.78919596453E+03  0.78919698639E+03  0.12700000000E+01 0.  1.
         21   -1    0    0  501  502  0.00000000000E+00 -0.00000000000E+00 -0.93712379573E+01  0.93712379573E+01  0.00000000000E+00 0. -1.
         25    2    1    2    0    0 -0.24719758781E+02  0.25790325755E+02  0.68504375863E+03  0.69727038547E+03  0.12499932737E+03 0.  0.
    9000005    1    3    3    0    0 -0.28069956119E+00 -0.19548517171E+02  0.57944717848E+03  0.57977776429E+03  0.10000000000E+01 0.  0.
    9000005    1    3    3    0    0 -0.24439059219E+02  0.45338842926E+02  0.10559658015E+03  0.11749262118E+03  0.10000000000E+01 0.  0.
         -4    1    1    2    0  502  0.24719758781E+02 -0.25790325755E+02  0.94780967941E+02  0.10129783887E+03  0.12700000000E+01 0. -1.
<mgrwt>
<rscale>  1 0.13000400E+03</rscale>
<asrwt>0</asrwt>
<pdfrwt beam="2">  1       21 0.14417295E-02 0.13000400E+03</pdfrwt>
<pdfrwt beam="1">  1       -4 0.12142141E+00 0.13000400E+03</pdfrwt>
<totfact> 0.45282923E+04</totfact>
</mgrwt>
</event>
<event>
 6    4  0.3189516E-003  0.1315051E+03  0.7818608E-02  0.1225239E+00
          4   -1    0    0  502    0 -0.00000000000E+00  0.00000000000E+00  0.28107811516E+03  0.28108098427E+03  0.12700000000E+01 0. -1.
         21   -1    0    0  501  502  0.00000000000E+00 -0.00000000000E+00 -0.64126720631E+02  0.64126720631E+02  0.00000000000E+00 0.  1.
         25    2    1    2    0    0 -0.21977315016E+02  0.34439132001E+02  0.25655462814E+03  0.28829474328E+03  0.12499810238E+03 0.  0.
    9000005    1    3    3    0    0 -0.39999303491E+02 -0.19109957143E+02  0.21128789218E+03  0.21589050031E+03  0.10000000000E+01 0.  0.
    9000005    1    3    3    0    0  0.18021988474E+02  0.53549089144E+02  0.45266735960E+02  0.72404242978E+02  0.10000000000E+01 0.  0.
          4    1    1    2  501    0  0.21977315016E+02 -0.34439132001E+02 -0.39603233610E+02  0.56912961623E+02  0.12700000000E+01 0.  1.
<mgrwt>
<rscale>  1 0.13150506E+03</rscale>
<asrwt>0</asrwt>
<pdfrwt beam="2">  1       21 0.98656495E-02 0.13150506E+03</pdfrwt>
<pdfrwt beam="1">  1        4 0.43243974E-01 0.13150506E+03</pdfrwt>
<totfact> 0.17582964E+04</totfact>
</mgrwt>
</event>
<event>
 6    4  0.3189516E-003  0.1306405E+03  0.7818608E-02  0.1226508E+00
          4   -1    0    0  502    0 -0.00000000000E+00  0.00000000000E+00  0.40771988365E+02  0.40791763080E+02  0.12700000000E+01 0.  1.
         21   -1    0    0  501  502  0.00000000000E+00 -0.00000000000E+00 -0.21226272161E+03  0.21226272161E+03  0.00000000000E+00 0. -1.
         25    2    1    2    0    0  0.26494071232E+02 -0.27212119220E+02 -0.78044557924E+02  0.15217715411E+03  0.12499799186E+03 0.  0.
    9000005    1    3    3    0    0  0.60016962923E+02 -0.11449610315E+02  0.49274277931E+01  0.61305863989E+02  0.10000000000E+01 0.  0.
    9000005    1    3    3    0    0 -0.33522891691E+02 -0.15762508905E+02 -0.82971985717E+02  0.90871290121E+02  0.10000000000E+01 0.  0.
          4    1    1    2  501    0 -0.26494071232E+02  0.27212119220E+02 -0.93446175320E+02  0.10087733058E+03  0.12700000000E+01 0. -1.
<mgrwt>
<rscale>  1 0.13064047E+03</rscale>
<asrwt>0</asrwt>
<pdfrwt beam="2">  1       21 0.32655802E-01 0.13064047E+03</pdfrwt>
<pdfrwt beam="1">  1        4 0.62744272E-02 0.13064047E+03</pdfrwt>
<totfact> 0.60195101E+04</totfact>
</mgrwt>
</event>
<event>
 6    4  0.3189516E-003  0.1292342E+03  0.7818608E-02  0.1228596E+00
         21   -1    0    0  501  502  0.00000000000E+00  0.00000000000E+00  0.29951795560E+02  0.29951795560E+02  0.00000000000E+00 0.  1.
          4   -1    0    0  502    0 -0.00000000000E+00 -0.00000000000E+00 -0.29471529954E+03  0.29471803589E+03  0.12700000000E+01 0. -1.
         25    2    1    2    0    0 -0.21279602108E+01 -0.32742572600E+02 -0.26147575354E+03  0.29166943027E+03  0.12499953036E+03 0.  0.
    9000005    1    3    3    0    0 -0.49763993679E+02 -0.43632123318E+02 -0.80542792543E+02  0.10425142053E+03  0.10000000000E+01 0.  0.
    9000005    1    3    3    0    0  0.47636033468E+02  0.10889550718E+02 -0.18093296100E+03  0.18741800974E+03  0.10000000000E+01 0.  0.
          4    1    1    2  501    0  0.21279602108E+01  0.32742572600E+02 -0.32877504328E+01  0.33000401180E+02  0.12700000000E+01 0.  1.
<mgrwt>
<rscale>  1 0.12923423E+03</rscale>
<asrwt>0</asrwt>
<pdfrwt beam="1">  1       21 0.46079685E-02 0.12923423E+03</pdfrwt>
<pdfrwt beam="2">  1        4 0.45343098E-01 0.12923423E+03</pdfrwt>
<totfact> 0.58599293E+04</totfact>
</mgrwt>
</event>
<event>
 6    4  0.3189516E-003  0.1295794E+03  0.7818608E-02  0.1228081E+00
         21   -1    0    0  501  502  0.00000000000E+00  0.00000000000E+00  0.87382672965E+02  0.87382672965E+02  0.00000000000E+00 0. -1.
         -4   -1    0    0    0  501 -0.00000000000E+00 -0.00000000000E+00 -0.15993773587E+03  0.15994277807E+03  0.12700000000E+01 0.  1.
         25    2    1    2    0    0  0.24832467570E+02 -0.23425281770E+02 -0.12803973860E+03  0.18216750901E+03  0.12500172562E+03 0.  0.
    9000005    1    3    3    0    0  0.45485162672E+02  0.41023038854E+02 -0.51863417530E+02  0.80265832195E+02  0.10000000000E+01 0.  0.
    9000005    1    3    3    0    0 -0.20652695102E+02 -0.64448320625E+02 -0.76176321071E+02  0.10190167682E+03  0.10000000000E+01 0.  0.
         -4    1    1    2    0  502 -0.24832467570E+02  0.23425281770E+02  0.55484675693E+02  0.65157942020E+02  0.12700000000E+01 0. -1.
<mgrwt>
<rscale>  1 0.12957942E+03</rscale>
<asrwt>0</asrwt>
<pdfrwt beam="1">  1       21 0.13443488E-01 0.12957942E+03</pdfrwt>
<pdfrwt beam="2">  1       -4 0.24606903E-01 0.12957942E+03</pdfrwt>
<totfact> 0.29851440E+04</totfact>
</mgrwt>
</event>
<event>
 6    4  0.3189516E-003  0.1441198E+03  0.7818608E-02  0.1207891E+00
          4   -1    0    0  502    0 -0.00000000000E+00  0.00000000000E+00  0.10560263913E+04  0.10560271550E+04  0.12700000000E+01 0.  1.
         21   -1    0    0  501  502  0.00000000000E+00 -0.00000000000E+00 -0.11086466226E+02  0.11086466226E+02  0.00000000000E+00 0. -1.
         25    2    1    2    0    0 -0.95164709601E+01 -0.71085557230E+02  0.73281919002E+03  0.74685640298E+03  0.12500720676E+03 0.  0.
    9000005    1    3    3    0    0 -0.55346147532E+02 -0.86128058866E+01  0.45492545821E+03  0.45836181014E+03  0.10000000000E+01 0.  0.
    9000005    1    3    3    0    0  0.45829676572E+02 -0.62472751343E+02  0.27789373181E+03  0.28849459284E+03  0.10000000000E+01 0.  0.
          4    1    1    2  501    0  0.95164709601E+01  0.71085557230E+02  0.31212073510E+03  0.32025721826E+03  0.12700000000E+01 0. -1.
<mgrwt>
<rscale>  1 0.14411982E+03</rscale>
<asrwt>0</asrwt>
<pdfrwt beam="2">  1       21 0.17056110E-02 0.14411982E+03</pdfrwt>
<pdfrwt beam="1">  1        4 0.16247117E+00 0.14411982E+03</pdfrwt>
<totfact> 0.16868546E+04</totfact>
</mgrwt>
</event>
<event>
 6    4  0.3189516E-003  0.1292489E+03  0.7818608E-02  0.1228574E+00
          4   -1    0    0  502    0 -0.00000000000E+00  0.00000000000E+00  0.67788128343E+03  0.67788247310E+03  0.12700000000E+01 0.  1.
         21   -1    0    0  501  502  0.00000000000E+00 -0.00000000000E+00 -0.99530132520E+01  0.99530132520E+01  0.00000000000E+00 0.  1.
         25    2    1    2    0    0 -0.19406891381E+02 -0.26525971694E+02  0.57214200152E+03  0.58655924643E+03  0.12500010025E+03 0.  0.
    9000005    1    3    3    0    0  0.50395251867E+02 -0.30200351315E+02  0.28923172873E+03  0.29514019641E+03  0.10000000000E+01 0.  0.
    9000005    1    3    3    0    0 -0.69802143248E+02  0.36743796208E+01  0.28291027279E+03  0.29141905002E+03  0.10000000000E+01 0.  0.
          4    1    1    2  501    0  0.19406891381E+02  0.26525971694E+02  0.95786268662E+02  0.10127623992E+03  0.12700000000E+01 0. -1.
<mgrwt>
<rscale>  1 0.12924891E+03</rscale>
<asrwt>0</asrwt>
<pdfrwt beam="2">  1       21 0.15312333E-02 0.12924891E+03</pdfrwt>
<pdfrwt beam="1">  1        4 0.10429572E+00 0.12924891E+03</pdfrwt>
<totfact> 0.58886149E+04</totfact>
</mgrwt>
</event>
<event>
 6    4  0.3189516E-003  0.1285467E+03  0.7818608E-02  0.1229628E+00
          4   -1    0    0  502    0 -0.00000000000E+00  0.00000000000E+00  0.21301902750E+03  0.21302281328E+03  0.12700000000E+01 0.  1.
         21   -1    0    0  501  502  0.00000000000E+00 -0.00000000000E+00 -0.39286556633E+02  0.39286556633E+02  0.00000000000E+00 0.  1.
         25    2    1    2    0    0  0.27976075937E+02 -0.10800069905E+02  0.18044707421E+03  0.22155223849E+03  0.12499978183E+03 0.  0.
    9000005    1    3    3    0    0 -0.17808720728E+02 -0.27213194650E+02  0.16829201460E+03  0.17140860736E+03  0.10000000000E+01 0.  0.
    9000005    1    3    3    0    0  0.45784796665E+02  0.16413124745E+02  0.12155059602E+02  0.50143631136E+02  0.10000000000E+01 0.  0.
          4    1    1    2  501    0 -0.27976075937E+02  0.10800069905E+02 -0.67146033424E+01  0.30757131415E+02  0.12700000000E+01 0. -1.
<mgrwt>
<rscale>  1 0.12854668E+03</rscale>
<asrwt>0</asrwt>
<pdfrwt beam="2">  1       21 0.60440858E-02 0.12854668E+03</pdfrwt>
<pdfrwt beam="1">  1        4 0.32774028E-01 0.12854668E+03</pdfrwt>
<totfact> 0.69958036E+04</totfact>
</mgrwt>
</event>
<event>
 6    4  0.3189516E-003  0.1278256E+03  0.7818608E-02  0.1230718E+00
         21   -1    0    0  501  502  0.00000000000E+00  0.00000000000E+00  0.35552793438E+03  0.35552793438E+03  0.00000000000E+00 0.  1.
          4   -1    0    0  502    0 -0.00000000000E+00 -0.00000000000E+00 -0.46108216771E+02  0.46125703829E+02  0.12700000000E+01 0. -1.
         25    2    1    2    0    0 -0.20928727142E+02 -0.16649372470E+02  0.44448319081E+02  0.13533302661E+03  0.12499664715E+03 0.  0.
    9000005    1    3    3    0    0 -0.30572775442E+02 -0.51830122684E+02  0.68840707711E+02  0.91439046658E+02  0.10000000000E+01 0.  0.
    9000005    1    3    3    0    0  0.96440482992E+01  0.35180750213E+02 -0.24392388629E+02  0.43893979954E+02  0.10000000000E+01 0.  0.
          4    1    1    2  501    0  0.20928727142E+02  0.16649372470E+02  0.26497139853E+03  0.26632061160E+03  0.12700000000E+01 0.  1.
<mgrwt>
<rscale>  1 0.12782556E+03</rscale>
<asrwt>0</asrwt>
<pdfrwt beam="1">  1       21 0.54696604E-01 0.12782556E+03</pdfrwt>
<pdfrwt beam="2">  1        4 0.70950917E-02 0.12782556E+03</pdfrwt>
<totfact> 0.17367646E+04</totfact>
</mgrwt>
</event>
<event>
 6    4  0.3189516E-003  0.1283579E+03  0.7818608E-02  0.1229913E+00
         21   -1    0    0  501  502  0.00000000000E+00  0.00000000000E+00  0.27360818377E+02  0.27360818377E+02  0.00000000000E+00 0. -1.
          4   -1    0    0  502    0 -0.00000000000E+00 -0.00000000000E+00 -0.24638397580E+03  0.24638724892E+03  0.12700000000E+01 0. -1.
         25    2    1    2    0    0 -0.29071573538E+02 -0.22301880689E+01 -0.20374421421E+03  0.24080585832E+03  0.12500250577E+03 0.  0.
    9000005    1    3    3    0    0 -0.36365105178E+02 -0.59292057996E+02 -0.12808216339E+03  0.14575324901E+03  0.10000000000E+01 0.  0.
    9000005    1    3    3    0    0  0.72935316404E+01  0.57061869927E+02 -0.75662050813E+02  0.95052609310E+02  0.10000000000E+01 0.  0.
          4    1    1    2  501    0  0.29071573538E+02  0.22301880689E+01 -0.15278943216E+02  0.32942208982E+02  0.12700000000E+01 0.  1.
<mgrwt>
<rscale>  1 0.12835792E+03</rscale>
<asrwt>0</asrwt>
<pdfrwt beam="1">  1       21 0.42093569E-02 0.12835792E+03</pdfrwt>
<pdfrwt beam="2">  1        4 0.37907744E-01 0.12835792E+03</pdfrwt>
<totfact> 0.97002553E+04</totfact>
</mgrwt>
</event>
<event>
 6    4  0.3189516E-003  0.1298927E+03  0.7818608E-02  0.1227615E+00
         -4   -1    0    0    0  501 -0.00000000000E+00  0.00000000000E+00  0.15071978336E+03  0.15072513392E+03  0.12700000000E+01 0. -1.
         21   -1    0    0  501  502  0.00000000000E+00 -0.00000000000E+00 -0.87662019077E+02  0.87662019077E+02  0.00000000000E+00 0. -1.
         25    2    1    2    0    0 -0.25228985233E+02  0.24706146326E+02  0.11639145051E+03  0.17441067021E+03  0.12500086708E+03 0.  0.
    9000005    1    3    3    0    0 -0.60148214624E+02  0.36779588629E+02  0.23314852059E+02  0.74263909059E+02  0.10000000000E+01 0.  0.
    9000005    1    3    3    0    0  0.34919229391E+02 -0.12073442304E+02  0.93076598453E+02  0.10014676116E+03  0.10000000000E+01 0.  0.
         -4    1    1    2    0  502  0.25228985233E+02 -0.24706146326E+02 -0.53333686232E+02  0.63976482783E+02  0.12700000000E+01 0.  1.
<mgrwt>
<rscale>  1 0.12989269E+03</rscale>
<asrwt>0</asrwt>
<pdfrwt beam="2">  1       21 0.13486464E-01 0.12989269E+03</pdfrwt>
<pdfrwt beam="1">  1       -4 0.23188778E-01 0.12989269E+03</pdfrwt>
<totfact> 0.33105122E+04</totfact>
</mgrwt>
</event>
<event>
 6    4  0.3189516E-003  0.1427019E+03  0.7818608E-02  0.1209739E+00
         -4   -1    0    0    0  501 -0.00000000000E+00  0.00000000000E+00  0.62768343133E+03  0.62768471614E+03  0.12700000000E+01 0.  1.
         21   -1    0    0  501  502  0.00000000000E+00 -0.00000000000E+00 -0.17871460964E+02  0.17871460964E+02  0.00000000000E+00 0.  1.
         25    2    1    2    0    0  0.68762867942E+02  0.32251347530E+01  0.39556208189E+03  0.42051537832E+03  0.12500035709E+03 0.  0.
    9000005    1    3    3    0    0 -0.33276467533E+01 -0.50911827140E+02  0.17347346873E+03  0.18082348224E+03  0.10000000000E+01 0.  0.
    9000005    1    3    3    0    0  0.72090514695E+02  0.54136961893E+02  0.22208861315E+03  0.23969189608E+03  0.10000000000E+01 0.  0.
         -4    1    1    2    0  502 -0.68762867942E+02 -0.32251347530E+01  0.21424988848E+03  0.22504079878E+03  0.12700000000E+01 0. -1.
<mgrwt>
<rscale>  1 0.14270187E+03</rscale>
<asrwt>0</asrwt>
<pdfrwt beam="2">  1       21 0.27494560E-02 0.14270187E+03</pdfrwt>
<pdfrwt beam="1">  1       -4 0.96570235E-01 0.14270187E+03</pdfrwt>
<totfact> 0.27640349E+04</totfact>
</mgrwt>
</event>
<event>
 6    4  0.3189516E-003  0.1285373E+03  0.7818608E-02  0.1229642E+00
         21   -1    0    0  501  502  0.00000000000E+00  0.00000000000E+00  0.32641120514E+03  0.32641120514E+03  0.00000000000E+00 0.  1.
         -4   -1    0    0    0  501 -0.00000000000E+00 -0.00000000000E+00 -0.35857628441E+02  0.35880111725E+02  0.12700000000E+01 0.  1.
         25    2    1    2    0    0  0.21616809503E+02 -0.20710857081E+02  0.83943692989E+02  0.15351995149E+03  0.12500242341E+03 0.  0.
    9000005    1    3    3    0    0  0.71173630010E+02 -0.21014608728E+02  0.70017224813E+02  0.10203289254E+03  0.10000000000E+01 0.  0.
    9000005    1    3    3    0    0 -0.49556820507E+02  0.30375164641E+00  0.13926468176E+02  0.51487058953E+02  0.10000000000E+01 0.  0.
         -4    1    1    2    0  502 -0.21616809503E+02  0.20710857081E+02  0.20660988371E+03  0.20877136537E+03  0.12700000000E+01 0. -1.
<mgrwt>
<rscale>  1 0.12853728E+03</rscale>
<asrwt>0</asrwt>
<pdfrwt beam="1">  1       21 0.50217106E-01 0.12853728E+03</pdfrwt>
<pdfrwt beam="2">  1       -4 0.55184780E-02 0.12853728E+03</pdfrwt>
<totfact> 0.31239261E+04</totfact>
</mgrwt>
</event>
<event>
 6    4  0.3189516E-003  0.1280023E+03  0.7818608E-02  0.1230450E+00
         21   -1    0    0  501  502  0.00000000000E+00  0.00000000000E+00  0.10825905386E+02  0.10825905386E+02  0.00000000000E+00 0. -1.
         -4   -1    0    0    0  501 -0.00000000000E+00 -0.00000000000E+00 -0.57576606545E+03  0.57576746610E+03  0.12700000000E+01 0. -1.
         25    2    1    2    0    0  0.26894079616E+02  0.66738412482E+01 -0.49676036450E+03  0.51298678823E+03  0.12496700961E+03 0.  0.
    9000005    1    3    3    0    0  0.59412864346E+02 -0.16828132637E+02 -0.43479492690E+03  0.43915908616E+03  0.10000000000E+01 0.  0.
    9000005    1    3    3    0    0 -0.32518784730E+02  0.23501973885E+02 -0.61965437598E+02  0.73827702074E+02  0.10000000000E+01 0.  0.
         -4    1    1    2    0  502 -0.26894079616E+02 -0.66738412482E+01 -0.68179795567E+02  0.73606583258E+02  0.12700000000E+01 0.  1.
<mgrwt>
<rscale>  1 0.12800229E+03</rscale>
<asrwt>0</asrwt>
<pdfrwt beam="1">  1       21 0.16655237E-02 0.12800229E+03</pdfrwt>
<pdfrwt beam="2">  1       -4 0.88585241E-01 0.12800229E+03</pdfrwt>
<totfact> 0.74701826E+04</totfact>
</mgrwt>
</event>
<event>
 6    4  0.3189516E-003  0.1289273E+03  0.7818608E-02  0.1229056E+00
         21   -1    0    0  501  502  0.00000000000E+00  0.00000000000E+00  0.11658496695E+03  0.11658496695E+03  0.00000000000E+00 0.  1.
         -4   -1    0    0    0  501 -0.00000000000E+00 -0.00000000000E+00 -0.56614899359E+02  0.56629142051E+02  0.12700000000E+01 0. -1.
         25    2    1    2    0    0  0.30138455078E+02  0.93727486295E+01  0.36916534076E+02  0.13410844190E+03  0.12500427517E+03 0.  0.
    9000005    1    3    3    0    0  0.16679951629E+02 -0.48055688006E+02  0.52483321708E+02  0.73096299452E+02  0.10000000000E+01 0.  0.
    9000005    1    3    3    0    0  0.13458503449E+02  0.57428436635E+02 -0.15566787632E+02  0.61012142453E+02  0.10000000000E+01 0.  0.
         -4    1    1    2    0  502 -0.30138455078E+02 -0.93727486295E+01  0.23053533511E+02  0.39105667092E+02  0.12700000000E+01 0.  1.
<mgrwt>
<rscale>  1 0.12892728E+03</rscale>
<asrwt>0</asrwt>
<pdfrwt beam="1">  1       21 0.17936149E-01 0.12892728E+03</pdfrwt>
<pdfrwt beam="2">  1       -4 0.87116122E-02 0.12892728E+03</pdfrwt>
<totfact> 0.10837863E+05</totfact>
</mgrwt>
</event>
<event>
 6    4  0.3189516E-003  0.1285401E+03  0.7818608E-02  0.1229638E+00
         21   -1    0    0  501  502  0.00000000000E+00  0.00000000000E+00  0.24080531104E+03  0.24080531104E+03  0.00000000000E+00 0.  1.
         -4   -1    0    0    0  501 -0.00000000000E+00 -0.00000000000E+00 -0.26950178501E+02  0.26980085642E+02  0.12700000000E+01 0.  1.
         25    2    1    2    0    0 -0.95666391922E+01 -0.28399141046E+02  0.19031438940E+03  0.22965651937E+03  0.12499807310E+03 0.  0.
    9000005    1    3    3    0    0 -0.48138233920E+02 -0.34426154982E+02  0.17968574717E+03  0.18918355491E+03  0.10000000000E+01 0.  0.
    9000005    1    3    3    0    0  0.38571594728E+02  0.60270139358E+01  0.10628642235E+02  0.40472964465E+02  0.10000000000E+01 0.  0.
         -4    1    1    2    0  502  0.95666391922E+01  0.28399141046E+02  0.23540743139E+02  0.38128877313E+02  0.12700000000E+01 0. -1.
<mgrwt>
<rscale>  1 0.12854007E+03</rscale>
<asrwt>0</asrwt>
<pdfrwt beam="1">  1       21 0.37046970E-01 0.12854007E+03</pdfrwt>
<pdfrwt beam="2">  1       -4 0.41487396E-02 0.12854007E+03</pdfrwt>
<totfact> 0.91214814E+04</totfact>
</mgrwt>
</event>
<event>
 6    4  0.3189516E-003  0.1518699E+03  0.7818608E-02  0.1198194E+00
          4   -1    0    0  502    0 -0.00000000000E+00  0.00000000000E+00  0.27064277617E+03  0.27064575591E+03  0.12700000000E+01 0.  1.
         21   -1    0    0  501  502  0.00000000000E+00 -0.00000000000E+00 -0.55092323212E+02  0.55092323212E+02  0.00000000000E+00 0.  1.
         25    2    1    2    0    0  0.15055925519E+02 -0.84881388658E+02  0.10108204784E+03  0.18243364896E+03  0.12503169536E+03 0.  0.
    9000005    1    3    3    0    0 -0.47740751033E+02 -0.26939047941E+01  0.24534675911E+02  0.53753016235E+02  0.10000000000E+01 0.  0.
    9000005    1    3    3    0    0  0.62796676552E+02 -0.82187483864E+02  0.76547371934E+02  0.12868063273E+03  0.10000000000E+01 0.  0.
          4    1    1    2  501    0 -0.15055925519E+02  0.84881388658E+02  0.11446840511E+03  0.14330443016E+03  0.12700000000E+01 0. -1.
<mgrwt>
<rscale>  1 0.15186986E+03</rscale>
<asrwt>0</asrwt>
<pdfrwt beam="2">  1       21 0.84757422E-02 0.15186986E+03</pdfrwt>
<pdfrwt beam="1">  1        4 0.41638705E-01 0.15186986E+03</pdfrwt>
<totfact> 0.25062804E+04</totfact>
</mgrwt>
</event>
<event>
 6    4  0.3189516E-003  0.1288767E+03  0.7818608E-02  0.1229132E+00
         21   -1    0    0  501  502  0.00000000000E+00  0.00000000000E+00  0.35411213116E+02  0.35411213116E+02  0.00000000000E+00 0.  1.
         -4   -1    0    0    0  501 -0.00000000000E+00 -0.00000000000E+00 -0.29513771286E+03  0.29514044530E+03  0.12700000000E+01 0. -1.
         25    2    1    2    0    0 -0.31090737868E+02 -0.40655294055E+01 -0.26861877827E+03  0.29793497514E+03  0.12500415537E+03 0.  0.
    9000005    1    3    3    0    0 -0.42797284278E+02  0.28323607339E+02 -0.25623009450E+03  0.26132105847E+03  0.10000000000E+01 0.  0.
    9000005    1    3    3    0    0  0.11706546410E+02 -0.32389136744E+02 -0.12388683772E+02  0.36613916664E+02  0.10000000000E+01 0.  0.
         -4    1    1    2    0  502  0.31090737868E+02  0.40655294055E+01  0.88922785301E+01  0.32616683277E+02  0.12700000000E+01 0.  1.
<mgrwt>
<rscale>  1 0.12887669E+03</rscale>
<asrwt>0</asrwt>
<pdfrwt beam="1">  1       21 0.54478789E-02 0.12887669E+03</pdfrwt>
<pdfrwt beam="2">  1       -4 0.45407764E-01 0.12887669E+03</pdfrwt>
<totfact> 0.44090143E+04</totfact>
</mgrwt>
</event>
<event>
 6    4  0.3189516E-003  0.1283355E+03  0.7818608E-02  0.1229947E+00
         -4   -1    0    0    0  501 -0.00000000000E+00  0.00000000000E+00  0.55868573759E+02  0.55883006664E+02  0.12700000000E+01 0.  1.
         21   -1    0    0  501  502  0.00000000000E+00 -0.00000000000E+00 -0.13285621016E+03  0.13285621016E+03  0.00000000000E+00 0.  1.
         25    2    1    2    0    0 -0.29038752954E+02 -0.15673221633E+01 -0.27382684534E+02  0.13122426380E+03  0.12499716127E+03 0.  0.
    9000005    1    3    3    0    0 -0.36322616602E+01  0.26536726936E+02  0.43356554160E+02  0.50972364963E+02  0.10000000000E+01 0.  0.
    9000005    1    3    3    0    0 -0.25406491294E+02 -0.28104049100E+02 -0.70739238694E+02  0.80251898836E+02  0.10000000000E+01 0.  0.
         -4    1    1    2    0  502  0.29038752954E+02  0.15673221633E+01 -0.49604951869E+02  0.57514953028E+02  0.12700000000E+01 0. -1.
<mgrwt>
<rscale>  1 0.12833548E+03</rscale>
<asrwt>0</asrwt>
<pdfrwt beam="2">  1       21 0.20439417E-01 0.12833548E+03</pdfrwt>
<pdfrwt beam="1">  1       -4 0.85967424E-02 0.12833548E+03</pdfrwt>
<totfact> 0.87055574E+04</totfact>
</mgrwt>
</event>
<event>
 6    4  0.3189516E-003  0.1283456E+03  0.7818608E-02  0.1229931E+00
         21   -1    0    0  501  502  0.00000000000E+00  0.00000000000E+00  0.75311241455E+01  0.75311241455E+01  0.00000000000E+00 0.  1.
          4   -1    0    0  502    0 -0.00000000000E+00 -0.00000000000E+00 -0.83948816862E+03  0.83948912927E+03  0.12700000000E+01 0.  1.
         25    2    1    2    0    0 -0.24155275998E+02  0.16246132974E+02 -0.62689377337E+03  0.63989716863E+03  0.12500067651E+03 0.  0.
    9000005    1    3    3    0    0  0.20781759449E+02 -0.86222144127E+01 -0.52779919348E+03  0.52827948355E+03  0.10000000000E+01 0.  0.
    9000005    1    3    3    0    0 -0.44937035448E+02  0.24868347387E+02 -0.99094579893E+02  0.11161768507E+03  0.10000000000E+01 0.  0.
          4    1    1    2  501    0  0.24155275998E+02 -0.16246132974E+02 -0.20506327110E+03  0.20712308478E+03  0.12700000000E+01 0. -1.
<mgrwt>
<rscale>  1 0.12834556E+03</rscale>
<asrwt>0</asrwt>
<pdfrwt beam="1">  1       21 0.11586347E-02 0.12834556E+03</pdfrwt>
<pdfrwt beam="2">  1        4 0.12916032E+00 0.12834556E+03</pdfrwt>
<totfact> 0.55070863E+04</totfact>
</mgrwt>
</event>
<event>
 6    4  0.3189516E-003  0.1271731E+03  0.7818608E-02  0.1231712E+00
         21   -1    0    0  501  502  0.00000000000E+00  0.00000000000E+00  0.49660534918E+02  0.49660534918E+02  0.00000000000E+00 0. -1.
          4   -1    0    0  502    0 -0.00000000000E+00 -0.00000000000E+00 -0.10816642480E+04  0.10816649936E+04  0.12700000000E+01 0.  1.
         25    2    1    2    0    0 -0.23210097944E+02  0.31493888428E+01 -0.10749201190E+04  0.10824168576E+04  0.12499745669E+03 0.  0.
    9000005    1    3    3    0    0  0.57591618051E+01 -0.54435294663E+02 -0.68682038033E+03  0.68899898700E+03  0.10000000000E+01 0.  0.
    9000005    1    3    3    0    0 -0.28969259750E+02  0.57584683506E+02 -0.38809973863E+03  0.39341787061E+03  0.10000000000E+01 0.  0.
          4    1    1    2  501    0  0.23210097944E+02 -0.31493888428E+01  0.42916405861E+02  0.48908670895E+02  0.12700000000E+01 0. -1.
<mgrwt>
<rscale>  1 0.12717308E+03</rscale>
<asrwt>0</asrwt>
<pdfrwt beam="1">  1       21 0.76400828E-02 0.12717308E+03</pdfrwt>
<pdfrwt beam="2">  1        4 0.16641118E+00 0.12717308E+03</pdfrwt>
<totfact> 0.13073013E+03</totfact>
</mgrwt>
</event>
<event>
 6    4  0.3189516E-003  0.1372350E+03  0.7818608E-02  0.1217099E+00
         21   -1    0    0  501  502  0.00000000000E+00  0.00000000000E+00  0.35816819119E+03  0.35816819119E+03  0.00000000000E+00 0. -1.
          4   -1    0    0  502    0 -0.00000000000E+00 -0.00000000000E+00 -0.26330582142E+02  0.26361192233E+02  0.12700000000E+01 0. -1.
         25    2    1    2    0    0 -0.52410306197E+02  0.21493505651E+02  0.22352046170E+03  0.26228770358E+03  0.12499852667E+03 0.  0.
    9000005    1    3    3    0    0 -0.14143302350E+02  0.43790241562E+02  0.13964180518E+02  0.48100068555E+02  0.10000000000E+01 0.  0.
    9000005    1    3    3    0    0 -0.38267003848E+02 -0.22296735911E+02  0.20955628118E+03  0.21418763503E+03  0.10000000000E+01 0.  0.
          4    1    1    2  501    0  0.52410306197E+02 -0.21493505651E+02  0.10831714734E+03  0.12224167984E+03  0.12700000000E+01 0.  1.
<mgrwt>
<rscale>  1 0.13723499E+03</rscale>
<asrwt>0</asrwt>
<pdfrwt beam="1">  1       21 0.55102795E-01 0.13723499E+03</pdfrwt>
<pdfrwt beam="2">  1        4 0.40533869E-02 0.13723499E+03</pdfrwt>
<totfact> 0.42496288E+04</totfact>
</mgrwt>
</event>
<event>
 6    4  0.3189516E-003  0.1297956E+03  0.7818608E-02  0.1227759E+00
         21   -1    0    0  501  502  0.00000000000E+00  0.00000000000E+00  0.13681108375E+03  0.13681108375E+03  0.00000000000E+00 0. -1.
          4   -1    0    0  502    0 -0.00000000000E+00 -0.00000000000E+00 -0.62533176770E+02  0.62546071795E+02  0.12700000000E+01 0.  1.
         25    2    1    2    0    0 -0.12066335539E+02  0.32888333891E+02  0.15227939991E+02  0.13068583358E+03  0.12497863010E+03 0.  0.
    9000005    1    3    3    0    0  0.20855735545E+02  0.13793596052E+02  0.64055268952E+02  0.68769924224E+02  0.10000000000E+01 0.  0.
    9000005    1    3    3    0    0 -0.32922071084E+02  0.19094737839E+02 -0.48827328961E+02  0.61915909354E+02  0.10000000000E+01 0.  0.
          4    1    1    2  501    0  0.12066335539E+02 -0.32888333891E+02  0.59049966992E+02  0.68671321971E+02  0.12700000000E+01 0. -1.
<mgrwt>
<rscale>  1 0.12979560E+03</rscale>
<asrwt>0</asrwt>
<pdfrwt beam="1">  1       21 0.21047859E-01 0.12979560E+03</pdfrwt>
<pdfrwt beam="2">  1        4 0.96219342E-02 0.12979560E+03</pdfrwt>
<totfact> 0.68399977E+04</totfact>
</mgrwt>
</event>
<event>
 6    4  0.3189516E-003  0.1926837E+03  0.7818608E-02  0.1156063E+00
         21   -1    0    0  501  502  0.00000000000E+00  0.00000000000E+00  0.29913136397E+03  0.29913136397E+03  0.00000000000E+00 0. -1.
          4   -1    0    0  502    0 -0.00000000000E+00 -0.00000000000E+00 -0.13326821780E+03  0.13327426899E+03  0.12700000000E+01 0.  1.
         25    2    1    2    0    0  0.14405107478E+03 -0.27335462987E+02 -0.22176285335E+02  0.19395567934E+03  0.12501631187E+03 0.  0.
    9000005    1    3    3    0    0  0.11524067054E+03 -0.11355305889E+02  0.40877993187E+02  0.12280621094E+03  0.10000000000E+01 0.  0.
    9000005    1    3    3    0    0  0.28810404235E+02 -0.15980157097E+02 -0.63054278522E+02  0.71149468395E+02  0.10000000000E+01 0.  0.
          4    1    1    2  501    0 -0.14405107478E+03  0.27335462987E+02  0.18803943151E+03  0.23844995362E+03  0.12700000000E+01 0. -1.
<mgrwt>
<rscale>  1 0.19268373E+03</rscale>
<asrwt>0</asrwt>
<pdfrwt beam="1">  1       21 0.46020210E-01 0.19268373E+03</pdfrwt>
<pdfrwt beam="2">  1        4 0.20503476E-01 0.19268373E+03</pdfrwt>
<totfact> 0.41041258E+03</totfact>
</mgrwt>
</event>
<event>
 6    4  0.3189516E-003  0.1274469E+03  0.7818608E-02  0.1231294E+00
         21   -1    0    0  501  502  0.00000000000E+00  0.00000000000E+00  0.19381222162E+03  0.19381222162E+03  0.00000000000E+00 0.  1.
         -4   -1    0    0    0  501 -0.00000000000E+00 -0.00000000000E+00 -0.79442792781E+02  0.79452943462E+02  0.12700000000E+01 0. -1.
         25    2    1    2    0    0  0.17506492639E+00 -0.24865908915E+02 -0.26533158511E+02  0.13017954003E+03  0.12499744025E+03 0.  0.
    9000005    1    3    3    0    0 -0.56306809117E+02  0.14924446873E+02 -0.97081956567E+01  0.59063058931E+02  0.10000000000E+01 0.  0.
    9000005    1    3    3    0    0  0.56481874043E+02 -0.39790355788E+02 -0.16824962855E+02  0.71116481102E+02  0.10000000000E+01 0.  0.
         -4    1    1    2    0  502 -0.17506492639E+00  0.24865908915E+02  0.14090258735E+03  0.14308562505E+03  0.12700000000E+01 0.  1.
<mgrwt>
<rscale>  1 0.12744687E+03</rscale>
<asrwt>0</asrwt>
<pdfrwt beam="1">  1       21 0.29817265E-01 0.12744687E+03</pdfrwt>
<pdfrwt beam="2">  1       -4 0.12223069E-01 0.12744687E+03</pdfrwt>
<totfact> 0.23553582E+04</totfact>
</mgrwt>
</event>
<event>
 6    4  0.3189516E-003  0.1282960E+03  0.7818608E-02  0.1230006E+00
          4   -1    0    0  502    0 -0.00000000000E+00  0.00000000000E+00  0.14304694359E+02  0.14360960299E+02  0.12700000000E+01 0. -1.
         21   -1    0    0  501  502  0.00000000000E+00 -0.00000000000E+00 -0.43203320719E+03  0.43203320719E+03  0.00000000000E+00 0. -1.
         25    2    1    2    0    0  0.30759671727E+01 -0.28713814408E+02 -0.33222109274E+03  0.35613301027E+03  0.12500368727E+03 0.  0.
    9000005    1    3    3    0    0 -0.42610829143E+02  0.31980101342E+01 -0.39653990125E+02  0.58303936076E+02  0.10000000000E+01 0.  0.
    9000005    1    3    3    0    0  0.45686796316E+02 -0.31911824542E+02 -0.29256710262E+03  0.29782907420E+03  0.10000000000E+01 0.  0.
          4    1    1    2  501    0 -0.30759671727E+01  0.28713814408E+02 -0.85507420087E+02  0.90261157215E+02  0.12700000000E+01 0.  1.
<mgrwt>
<rscale>  1 0.12829601E+03</rscale>
<asrwt>0</asrwt>
<pdfrwt beam="2">  1       21 0.66466641E-01 0.12829601E+03</pdfrwt>
<pdfrwt beam="1">  1        4 0.22051942E-02 0.12829601E+03</pdfrwt>
<totfact> 0.73432144E+04</totfact>
</mgrwt>
</event>
<event>
 6    4  0.3189516E-003  0.1272753E+03  0.7818608E-02  0.1231556E+00
         21   -1    0    0  501  502  0.00000000000E+00  0.00000000000E+00  0.94498931770E+02  0.94498931770E+02  0.00000000000E+00 0.  1.
         -4   -1    0    0    0  501 -0.00000000000E+00 -0.00000000000E+00 -0.63798922254E+02  0.63811561498E+02  0.12700000000E+01 0.  1.
         25    2    1    2    0    0  0.64733439451E+01 -0.23074664965E+02  0.38673977990E+02  0.13302133713E+03  0.12499862084E+03 0.  0.
    9000005    1    3    3    0    0  0.58688851440E+02  0.16095687950E+02  0.98385499664E+01  0.61654274137E+02  0.10000000000E+01 0.  0.
    9000005    1    3    3    0    0 -0.52215507495E+02 -0.39170352916E+02  0.28835428023E+02  0.71367062990E+02  0.10000000000E+01 0.  0.
         -4    1    1    2    0  502 -0.64733439451E+01  0.23074664965E+02 -0.79739684739E+01  0.25289156141E+02  0.12700000000E+01 0. -1.
<mgrwt>
<rscale>  1 0.12727529E+03</rscale>
<asrwt>0</asrwt>
<pdfrwt beam="1">  1       21 0.14538297E-01 0.12727529E+03</pdfrwt>
<pdfrwt beam="2">  1       -4 0.98168476E-02 0.12727529E+03</pdfrwt>
<totfact> 0.12965415E+05</totfact>
</mgrwt>
</event>
<event>
 6    4  0.3189516E-003  0.1270340E+03  0.7818608E-02  0.1231924E+00
          4   -1    0    0  502    0 -0.00000000000E+00  0.00000000000E+00  0.21878478383E+03  0.21878846984E+03  0.12700000000E+01 0. -1.
         21   -1    0    0  501  502  0.00000000000E+00 -0.00000000000E+00 -0.52499178244E+02  0.52499178244E+02  0.00000000000E+00 0.  1.
         25    2    1    2    0    0 -0.69145453425E+01 -0.21549761870E+02  0.19621230235E+03  0.23374536189E+03  0.12500169373E+03 0.  0.
    9000005    1    3    3    0    0 -0.14645361917E+02  0.12520433148E+02  0.19781920013E+03  0.19875785220E+03  0.10000000000E+01 0.  0.
    9000005    1    3    3    0    0  0.77308165747E+01 -0.34070195018E+02 -0.16068977763E+01  0.34987509685E+02  0.10000000000E+01 0.  0.
          4    1    1    2  501    0  0.69145453425E+01  0.21549761870E+02 -0.29926696765E+02  0.37542286202E+02  0.12700000000E+01 0.  1.
<mgrwt>
<rscale>  1 0.12703396E+03</rscale>
<asrwt>0</asrwt>
<pdfrwt beam="2">  1       21 0.80767968E-02 0.12703396E+03</pdfrwt>
<pdfrwt beam="1">  1        4 0.33660662E-01 0.12703396E+03</pdfrwt>
<totfact> 0.40424721E+04</totfact>
</mgrwt>
</event>
<event>
 6    4  0.3189516E-003  0.1267598E+03  0.7818608E-02  0.1232344E+00
          4   -1    0    0  502    0 -0.00000000000E+00  0.00000000000E+00  0.23673690252E+02  0.23707731021E+02  0.12700000000E+01 0.  1.
         21   -1    0    0  501  502  0.00000000000E+00 -0.00000000000E+00 -0.25521491046E+03  0.25521491046E+03  0.00000000000E+00 0.  1.
         25    2    1    2    0    0 -0.20672986063E+02 -0.42240316077E+01 -0.15888944160E+03  0.20325819388E+03  0.12499129542E+03 0.  0.
    9000005    1    3    3    0    0  0.42447162597E+02  0.47611998186E+01 -0.14003252836E+02  0.44961335904E+02  0.10000000000E+01 0.  0.
    9000005    1    3    3    0    0 -0.63120148660E+02 -0.89852314263E+01 -0.14488618876E+03  0.15829685798E+03  0.10000000000E+01 0.  0.
          4    1    1    2  501    0  0.20672986063E+02  0.42240316077E+01 -0.72651778606E+02  0.75664447599E+02  0.12700000000E+01 0. -1.
<mgrwt>
<rscale>  1 0.12675977E+03</rscale>
<asrwt>0</asrwt>
<pdfrwt beam="2">  1       21 0.39263834E-01 0.12675977E+03</pdfrwt>
<pdfrwt beam="1">  1        4 0.36449677E-02 0.12675977E+03</pdfrwt>
<totfact> 0.99594173E+04</totfact>
</mgrwt>
</event>
<event>
 6    4  0.3189516E-003  0.1289573E+03  0.7818608E-02  0.1229011E+00
         21   -1    0    0  501  502  0.00000000000E+00  0.00000000000E+00  0.10480488790E+04  0.10480488790E+04  0.00000000000E+00 0. -1.
          4   -1    0    0  502    0 -0.00000000000E+00 -0.00000000000E+00 -0.78403370832E+01  0.79425301748E+01  0.12700000000E+01 0. -1.
         25    2    1    2    0    0 -0.91346513657E+01 -0.30349345669E+02  0.55659524043E+03  0.57133899464E+03  0.12500184195E+03 0.  0.
    9000005    1    3    3    0    0 -0.62964167100E+02 -0.33365677282E+01  0.36782066945E+03  0.37318717006E+03  0.10000000000E+01 0.  0.
    9000005    1    3    3    0    0  0.53829515734E+02 -0.27012777941E+02  0.18877457098E+03  0.19815182458E+03  0.10000000000E+01 0.  0.
          4    1    1    2  501    0  0.91346513657E+01  0.30349345669E+02  0.48361330152E+03  0.48465241456E+03  0.12700000000E+01 0.  1.
<mgrwt>
<rscale>  1 0.12895730E+03</rscale>
<asrwt>0</asrwt>
<pdfrwt beam="1">  1       21 0.16123818E+00 0.12895730E+03</pdfrwt>
<pdfrwt beam="2">  1        4 0.12141267E-02 0.12895730E+03</pdfrwt>
<totfact> 0.22343013E+04</totfact>
</mgrwt>
</event>
<event>
 6    4  0.3189516E-003  0.1317294E+03  0.7818608E-02  0.1224912E+00
         21   -1    0    0  501  502  0.00000000000E+00  0.00000000000E+00  0.94051757991E+02  0.94051757991E+02  0.00000000000E+00 0. -1.
         -4   -1    0    0    0  501 -0.00000000000E+00 -0.00000000000E+00 -0.19053882648E+03  0.19054305890E+03  0.12700000000E+01 0.  1.
         25    2    1    2    0    0 -0.41262473337E+02 -0.50170687527E+01 -0.16088655428E+03  0.20793537941E+03  0.12499950392E+03 0.  0.
    9000005    1    3    3    0    0 -0.10397921670E+02 -0.97194329977E+01  0.19890813358E+02  0.24479146409E+02  0.10000000000E+01 0.  0.
    9000005    1    3    3    0    0 -0.30864551667E+02  0.47023642450E+01 -0.18077736763E+03  0.18345623300E+03  0.10000000000E+01 0.  0.
         -4    1    1    2    0  502  0.41262473337E+02  0.50170687527E+01  0.64399485790E+02  0.76659437480E+02  0.12700000000E+01 0. -1.
<mgrwt>
<rscale>  1 0.13172941E+03</rscale>
<asrwt>0</asrwt>
<pdfrwt beam="1">  1       21 0.14469501E-01 0.13172941E+03</pdfrwt>
<pdfrwt beam="2">  1       -4 0.29314651E-01 0.13172941E+03</pdfrwt>
<totfact> 0.18921278E+04</totfact>
</mgrwt>
</event>
<event>
 6    4  0.3189516E-003  0.1398915E+03  0.7818608E-02  0.1213475E+00
         21   -1    0    0  501  502  0.00000000000E+00  0.00000000000E+00  0.11636396787E+03  0.11636396787E+03  0.00000000000E+00 0.  1.
          4   -1    0    0  502    0 -0.00000000000E+00 -0.00000000000E+00 -0.88392778850E+02  0.88401901862E+02  0.12700000000E+01 0. -1.
         25    2    1    2    0    0  0.53606978452E+01  0.62579037677E+02  0.15855218995E+02  0.14078710242E+03  0.12499898879E+03 0.  0.
    9000005    1    3    3    0    0 -0.47223801633E+02  0.29310658448E+02  0.45516959992E+02  0.71847030462E+02  0.10000000000E+01 0.  0.
    9000005    1    3    3    0    0  0.52584499478E+02  0.33268379229E+02 -0.29661740997E+02  0.68940071953E+02  0.10000000000E+01 0.  0.
          4    1    1    2  501    0 -0.53606978452E+01 -0.62579037677E+02  0.12115970027E+02  0.63978767319E+02  0.12700000000E+01 0.  1.
<mgrwt>
<rscale>  1 0.13989146E+03</rscale>
<asrwt>0</asrwt>
<pdfrwt beam="1">  1       21 0.17902149E-01 0.13989146E+03</pdfrwt>
<pdfrwt beam="2">  1        4 0.13600124E-01 0.13989146E+03</pdfrwt>
<totfact> 0.51604877E+04</totfact>
</mgrwt>
</event>
<event>
 6    4  0.3189516E-003  0.1269377E+03  0.7818608E-02  0.1232072E+00
         -4   -1    0    0    0  501 -0.00000000000E+00  0.00000000000E+00  0.59324982343E+02  0.59338574553E+02  0.12700000000E+01 0. -1.
         21   -1    0    0  501  502  0.00000000000E+00 -0.00000000000E+00 -0.97952298581E+02  0.97952298581E+02  0.00000000000E+00 0. -1.
         25    2    1    2    0    0 -0.19983017966E+02 -0.94180689850E+01 -0.44303152315E+02  0.13444685760E+03  0.12500066873E+03 0.  0.
    9000005    1    3    3    0    0  0.19055298884E+02 -0.16733081026E+02  0.36469859552E+02  0.44431419873E+02  0.10000000000E+01 0.  0.
    9000005    1    3    3    0    0 -0.39038316850E+02  0.73150120411E+01 -0.80773011867E+02  0.90015437730E+02  0.10000000000E+01 0.  0.
         -4    1    1    2    0  502  0.19983017966E+02  0.94180689850E+01  0.56758360763E+01  0.22844015532E+02  0.12700000000E+01 0.  1.
<mgrwt>
<rscale>  1 0.12693773E+03</rscale>
<asrwt>0</asrwt>
<pdfrwt beam="2">  1       21 0.15069584E-01 0.12693773E+03</pdfrwt>
<pdfrwt beam="1">  1       -4 0.91285992E-02 0.12693773E+03</pdfrwt>
<totfact> 0.13722972E+05</totfact>
</mgrwt>
</event>
<event>
 6    4  0.3189516E-003  0.1303027E+03  0.7818608E-02  0.1227007E+00
         -4   -1    0    0    0  501 -0.00000000000E+00  0.00000000000E+00  0.84903679536E+02  0.84913177415E+02  0.12700000000E+01 0.  1.
         21   -1    0    0  501  502  0.00000000000E+00 -0.00000000000E+00 -0.92991203130E+02  0.92991203130E+02  0.00000000000E+00 0. -1.
         25    2    1    2    0    0 -0.11638097230E+02 -0.34936758379E+02  0.19661889557E+02  0.13177775891E+03  0.12499106148E+03 0.  0.
    9000005    1    3    3    0    0 -0.26626657826E+02 -0.77626689536E+02 -0.88226629607E+00  0.82077160216E+02  0.10000000000E+01 0.  0.
    9000005    1    3    3    0    0  0.14988560596E+02  0.42689931158E+02  0.20544155853E+02  0.49700598695E+02  0.10000000000E+01 0.  0.
         -4    1    1    2    0  502  0.11638097230E+02  0.34936758379E+02 -0.27749413150E+02  0.46126621633E+02  0.12700000000E+01 0. -1.
<mgrwt>
<rscale>  1 0.13030268E+03</rscale>
<asrwt>0</asrwt>
<pdfrwt beam="2">  1       21 0.14306339E-01 0.13030268E+03</pdfrwt>
<pdfrwt beam="1">  1       -4 0.13063502E-01 0.13030268E+03</pdfrwt>
<totfact> 0.82370853E+04</totfact>
</mgrwt>
</event>
<event>
 6    4  0.3189516E-003  0.1274485E+03  0.7818608E-02  0.1231292E+00
         21   -1    0    0  501  502  0.00000000000E+00  0.00000000000E+00  0.16429897450E+03  0.16429897450E+03  0.00000000000E+00 0.  1.
          4   -1    0    0  502    0 -0.00000000000E+00 -0.00000000000E+00 -0.39573050750E+02  0.39593424273E+02  0.12700000000E+01 0.  1.
         25    2    1    2    0    0 -0.24800416937E+02  0.17829713273E+01  0.73969945261E+02  0.14735902881E+03  0.12499956361E+03 0.  0.
    9000005    1    3    3    0    0 -0.44358689546E+02  0.49172260085E+02  0.12655892666E+02  0.67429786588E+02  0.10000000000E+01 0.  0.
    9000005    1    3    3    0    0  0.19558272609E+02 -0.47389288758E+02  0.61314052595E+02  0.79929242221E+02  0.10000000000E+01 0.  0.
          4    1    1    2  501    0  0.24800416937E+02 -0.17829713273E+01  0.50755978493E+02  0.56533369967E+02  0.12700000000E+01 0. -1.
<mgrwt>
<rscale>  1 0.12744854E+03</rscale>
<asrwt>0</asrwt>
<pdfrwt beam="1">  1       21 0.25276765E-01 0.12744854E+03</pdfrwt>
<pdfrwt beam="2">  1        4 0.60901065E-02 0.12744854E+03</pdfrwt>
<totfact> 0.10298548E+05</totfact>
</mgrwt>
</event>
<event>
 6    4  0.3189516E-003  0.1565680E+03  0.7818608E-02  0.1192627E+00
         -4   -1    0    0    0  501 -0.00000000000E+00  0.00000000000E+00  0.40454069267E+03  0.40454268616E+03  0.12700000000E+01 0. -1.
         21   -1    0    0  501  502  0.00000000000E+00 -0.00000000000E+00 -0.42469264469E+02  0.42469264469E+02  0.00000000000E+00 0.  1.
         25    2    1    2    0    0  0.32481882131E+02  0.88502827118E+02  0.28525027993E+03  0.32539400460E+03  0.12500285179E+03 0.  0.
    9000005    1    3    3    0    0  0.40222633914E+02  0.53516822009E+02  0.40964081170E+02  0.78491824179E+02  0.10000000000E+01 0.  0.
    9000005    1    3    3    0    0 -0.77407517832E+01  0.34986005109E+02  0.24428619876E+03  0.24690218042E+03  0.10000000000E+01 0.  0.
         -4    1    1    2    0  502 -0.32481882131E+02 -0.88502827118E+02  0.76821148265E+02  0.12161794602E+03  0.12700000000E+01 0.  1.
<mgrwt>
<rscale>  1 0.15656799E+03</rscale>
<asrwt>0</asrwt>
<pdfrwt beam="2">  1       21 0.65337333E-02 0.15656799E+03</pdfrwt>
<pdfrwt beam="1">  1       -4 0.62238641E-01 0.15656799E+03</pdfrwt>
<totfact> 0.17276940E+04</totfact>
</mgrwt>
</event>
<event>
 6    4  0.3189516E-003  0.1316940E+03  0.7818608E-02  0.1224964E+00
         21   -1    0    0  501  502  0.00000000000E+00  0.00000000000E+00  0.83932590984E+02  0.83932590984E+02  0.00000000000E+00 0. -1.
          4   -1    0    0  502    0 -0.00000000000E+00 -0.00000000000E+00 -0.21682045557E+03  0.21682417497E+03  0.12700000000E+01 0.  1.
         25    2    1    2    0    0 -0.40308090801E+02  0.96542490352E+01 -0.18938614154E+03  0.23067385144E+03  0.12500147368E+03 0.  0.
    9000005    1    3    3    0    0 -0.18730201815E+02 -0.28527917268E+02  0.21198028097E+01  0.34207544309E+02  0.10000000000E+01 0.  0.
    9000005    1    3    3    0    0 -0.21577888986E+02  0.38182166304E+02 -0.19150594435E+03  0.19646630713E+03  0.10000000000E+01 0.  0.
          4    1    1    2  501    0  0.40308090801E+02 -0.96542490352E+01  0.56498276955E+02  0.70082914518E+02  0.12700000000E+01 0. -1.
<mgrwt>
<rscale>  1 0.13169402E+03</rscale>
<asrwt>0</asrwt>
<pdfrwt beam="1">  1       21 0.12912707E-01 0.13169402E+03</pdfrwt>
<pdfrwt beam="2">  1        4 0.33358018E-01 0.13169402E+03</pdfrwt>
<totfact> 0.18150307E+04</totfact>
</mgrwt>
</event>
<event>
 6    4  0.3189516E-003  0.1290187E+03  0.7818608E-02  0.1228919E+00
         21   -1    0    0  501  502  0.00000000000E+00  0.00000000000E+00  0.61081953499E+01  0.61081953499E+01  0.00000000000E+00 0.  1.
          4   -1    0    0  502    0 -0.00000000000E+00 -0.00000000000E+00 -0.10614683584E+04  0.10614691182E+04  0.12700000000E+01 0.  1.
         25    2    1    2    0    0 -0.15864758689E+02  0.27730779928E+02 -0.83438684096E+03  0.84430279928E+03  0.12500051913E+03 0.  0.
    9000005    1    3    3    0    0  0.49659383133E+02 -0.80664033098E+01 -0.44367412355E+03  0.44651858763E+03  0.10000000000E+01 0.  0.
    9000005    1    3    3    0    0 -0.65524141823E+02  0.35797183238E+02 -0.39071271742E+03  0.39778421165E+03  0.10000000000E+01 0.  0.
          4    1    1    2  501    0  0.15864758689E+02 -0.27730779928E+02 -0.22097332210E+03  0.22327451423E+03  0.12700000000E+01 0. -1.
<mgrwt>
<rscale>  1 0.12901867E+03</rscale>
<asrwt>0</asrwt>
<pdfrwt beam="1">  1       21 0.93972219E-03 0.12901867E+03</pdfrwt>
<pdfrwt beam="2">  1        4 0.16331307E+00 0.12901867E+03</pdfrwt>
<totfact> 0.42432465E+04</totfact>
</mgrwt>
</event>
<event>
 6    4  0.3189516E-003  0.1333038E+03  0.7818608E-02  0.1222634E+00
         21   -1    0    0  501  502  0.00000000000E+00  0.00000000000E+00  0.24619457208E+02  0.24619457208E+02  0.00000000000E+00 0. -1.
         -4   -1    0    0    0  501 -0.00000000000E+00 -0.00000000000E+00 -0.33140900578E+03  0.33141143917E+03  0.12700000000E+01 0. -1.
         25    2    1    2    0    0 -0.38263903133E+02  0.26098089947E+02 -0.21024372978E+03  0.24894240676E+03  0.12499863755E+03 0.  0.
    9000005    1    3    3    0    0 -0.54633135466E+02 -0.98983636386E+01 -0.20071412165E+03  0.20825444946E+03  0.10000000000E+01 0.  0.
    9000005    1    3    3    0    0  0.16369232333E+02  0.35996453586E+02 -0.95296081357E+01  0.40687957299E+02  0.10000000000E+01 0.  0.
         -4    1    1    2    0  502  0.38263903133E+02 -0.26098089947E+02 -0.96545818795E+02  0.10708848962E+03  0.12700000000E+01 0.  1.
<mgrwt>
<rscale>  1 0.13330377E+03</rscale>
<asrwt>0</asrwt>
<pdfrwt beam="1">  1       21 0.37876091E-02 0.13330377E+03</pdfrwt>
<pdfrwt beam="2">  1       -4 0.50988704E-01 0.13330377E+03</pdfrwt>
<totfact> 0.64332707E+04</totfact>
</mgrwt>
</event>
<event>
 6    4  0.3189516E-003  0.1331430E+03  0.7818608E-02  0.1222865E+00
         21   -1    0    0  501  502  0.00000000000E+00  0.00000000000E+00  0.23367601839E+03  0.23367601839E+03  0.00000000000E+00 0.  1.
         -4   -1    0    0    0  501 -0.00000000000E+00 -0.00000000000E+00 -0.44586083247E+02  0.44604167062E+02  0.12700000000E+01 0.  1.
         25    2    1    2    0    0  0.45713817345E+02 -0.34816682038E+01  0.69486603505E+02  0.15018473296E+03  0.12500076335E+03 0.  0.
    9000005    1    3    3    0    0  0.76999506697E+02 -0.38078793454E+02  0.38245658398E+02  0.94035359992E+02  0.10000000000E+01 0.  0.
    9000005    1    3    3    0    0 -0.31285689352E+02  0.34597125250E+02  0.31240945108E+02  0.56149372971E+02  0.10000000000E+01 0.  0.
         -4    1    1    2    0  502 -0.45713817345E+02  0.34816682038E+01  0.11960333164E+03  0.12809545249E+03  0.12700000000E+01 0. -1.
<mgrwt>
<rscale>  1 0.13314303E+03</rscale>
<asrwt>0</asrwt>
<pdfrwt beam="1">  1       21 0.35950156E-01 0.13314303E+03</pdfrwt>
<pdfrwt beam="2">  1       -4 0.68610541E-02 0.13314303E+03</pdfrwt>
<totfact> 0.43177644E+04</totfact>
</mgrwt>
</event>
<event>
 6    4  0.3189516E-003  0.1310100E+03  0.7818608E-02  0.1225965E+00
          4   -1    0    0  502    0 -0.00000000000E+00  0.00000000000E+00  0.79615293825E+03  0.79615395118E+03  0.12700000000E+01 0.  1.
         21   -1    0    0  501  502  0.00000000000E+00 -0.00000000000E+00 -0.36224284082E+02  0.36224284082E+02  0.00000000000E+00 0. -1.
         25    2    1    2    0    0 -0.57340333349E+01  0.38798038651E+02  0.77815891775E+03  0.78911020605E+03  0.12500179632E+03 0.  0.
    9000005    1    3    3    0    0 -0.59503496513E+02  0.45503733048E+02  0.51582771535E+03  0.52123937662E+03  0.10000000000E+01 0.  0.
    9000005    1    3    3    0    0  0.53769463178E+02 -0.67056943965E+01  0.26233120240E+03  0.26787082943E+03  0.10000000000E+01 0.  0.
          4    1    1    2  501    0  0.57340333349E+01 -0.38798038651E+02 -0.18230263583E+02  0.43268029210E+02  0.12700000000E+01 0. -1.
<mgrwt>
<rscale>  1 0.13100998E+03</rscale>
<asrwt>0</asrwt>
<pdfrwt beam="2">  1       21 0.55729674E-02 0.13100998E+03</pdfrwt>
<pdfrwt beam="1">  1        4 0.12248684E+00 0.13100998E+03</pdfrwt>
<totfact> 0.48421030E+03</totfact>
</mgrwt>
</event>
<event>
 6    4  0.3189516E-003  0.1371928E+03  0.7818608E-02  0.1217157E+00
         21   -1    0    0  501  502  0.00000000000E+00  0.00000000000E+00  0.34932268359E+03  0.34932268359E+03  0.00000000000E+00 0. -1.
          4   -1    0    0  502    0 -0.00000000000E+00 -0.00000000000E+00 -0.26882897760E+02  0.26912879667E+02  0.12700000000E+01 0. -1.
         25    2    1    2    0    0  0.52457508943E+02  0.21086453354E+02  0.23441472003E+03  0.27161026102E+03  0.12500177664E+03 0.  0.
    9000005    1    3    3    0    0  0.21787905014E+02 -0.31027110563E+02  0.19673147713E+03  0.20035385818E+03  0.10000000000E+01 0.  0.
    9000005    1    3    3    0    0  0.30669603929E+02  0.52113563917E+02  0.37683242896E+02  0.71256402831E+02  0.10000000000E+01 0.  0.
          4    1    1    2  501    0 -0.52457508943E+02 -0.21086453354E+02  0.88025065803E+02  0.10462530224E+03  0.12700000000E+01 0.  1.
<mgrwt>
<rscale>  1 0.13719283E+03</rscale>
<asrwt>0</asrwt>
<pdfrwt beam="1">  1       21 0.53741948E-01 0.13719283E+03</pdfrwt>
<pdfrwt beam="2">  1        4 0.41383146E-02 0.13719283E+03</pdfrwt>
<totfact> 0.43325797E+04</totfact>
</mgrwt>
</event>
<event>
 6    4  0.3189516E-003  0.1277887E+03  0.7818608E-02  0.1230774E+00
          4   -1    0    0  502    0 -0.00000000000E+00  0.00000000000E+00  0.25055191586E+02  0.25087357880E+02  0.12700000000E+01 0.  1.
         21   -1    0    0  501  502  0.00000000000E+00 -0.00000000000E+00 -0.29593700159E+03  0.29593700159E+03  0.00000000000E+00 0.  1.
         25    2    1    2    0    0  0.25092073904E+02 -0.80363231156E+01 -0.14887303454E+03  0.19619668284E+03  0.12504304572E+03 0.  0.
    9000005    1    3    3    0    0  0.71955946534E+02  0.74891895963E+01 -0.11654435103E+03  0.13717628060E+03  0.10000000000E+01 0.  0.
    9000005    1    3    3    0    0 -0.46863872630E+02 -0.15525512712E+02 -0.32328683503E+02  0.59020402235E+02  0.10000000000E+01 0.  0.
          4    1    1    2  501    0 -0.25092073904E+02  0.80363231156E+01 -0.12200877547E+03  0.12482767663E+03  0.12700000000E+01 0. -1.
<mgrwt>
<rscale>  1 0.12778872E+03</rscale>
<asrwt>0</asrwt>
<pdfrwt beam="2">  1       21 0.45528773E-01 0.12778872E+03</pdfrwt>
<pdfrwt beam="1">  1        4 0.38573285E-02 0.12778872E+03</pdfrwt>
<totfact> 0.67656895E+04</totfact>
</mgrwt>
</event>
<event>
 6    4  0.3189516E-003  0.1341867E+03  0.7818608E-02  0.1221372E+00
         21   -1    0    0  501  502  0.00000000000E+00  0.00000000000E+00  0.17085729789E+02  0.17085729789E+02  0.00000000000E+00 0. -1.
          4   -1    0    0  502    0 -0.00000000000E+00 -0.00000000000E+00 -0.14672416255E+04  0.14672421751E+04  0.12700000000E+01 0.  1.
         25    2    1    2    0    0  0.13899947595E+02 -0.46791824359E+02 -0.14212781161E+04  0.14275985261E+04  0.12499353976E+03 0.  0.
    9000005    1    3    3    0    0 -0.46782608563E+02  0.13257320809E+02 -0.48131936346E+03  0.48377029535E+03  0.10000000000E+01 0.  0.
    9000005    1    3    3    0    0  0.60682556158E+02 -0.60049145168E+02 -0.93995875262E+03  0.94382823071E+03  0.10000000000E+01 0.  0.
          4    1    1    2  501    0 -0.13899947595E+02  0.46791824359E+02 -0.28877779623E+02  0.56729378861E+02  0.12700000000E+01 0. -1.
<mgrwt>
<rscale>  1 0.13418669E+03</rscale>
<asrwt>0</asrwt>
<pdfrwt beam="1">  1       21 0.26285750E-02 0.13418669E+03</pdfrwt>
<pdfrwt beam="2">  1        4 0.22573305E+00 0.13418669E+03</pdfrwt>
<totfact> 0.32994363E+03</totfact>
</mgrwt>
</event>
<event>
 6    4  0.3189516E-003  0.1655285E+03  0.7818608E-02  0.1182593E+00
         -4   -1    0    0    0  501 -0.00000000000E+00  0.00000000000E+00  0.14350769449E+03  0.14351331394E+03  0.12700000000E+01 0.  1.
         21   -1    0    0  501  502  0.00000000000E+00 -0.00000000000E+00 -0.42428447511E+03  0.42428447511E+03  0.00000000000E+00 0. -1.
         25    2    1    2    0    0 -0.60142285316E+02  0.90316600337E+02  0.85131659238E+02  0.18613723038E+03  0.12500194538E+03 0.  0.
    9000005    1    3    3    0    0 -0.26910658999E+02  0.11701284837E+03  0.77253722125E+02  0.14277719648E+03  0.10000000000E+01 0.  0.
    9000005    1    3    3    0    0 -0.33231626317E+02 -0.26696248034E+02  0.78779371127E+01  0.43360033901E+02  0.10000000000E+01 0.  0.
         -4    1    1    2    0  502  0.60142285316E+02 -0.90316600337E+02 -0.36590843986E+03  0.38166055867E+03  0.12700000000E+01 0. -1.
<mgrwt>
<rscale>  1 0.16552845E+03</rscale>
<asrwt>0</asrwt>
<pdfrwt beam="2">  1       21 0.65274535E-01 0.16552845E+03</pdfrwt>
<pdfrwt beam="1">  1       -4 0.22078685E-01 0.16552845E+03</pdfrwt>
<totfact> 0.17071374E+03</totfact>
</mgrwt>
</event>
<event>
 6    4  0.3189516E-003  0.1762669E+03  0.7818608E-02  0.1171466E+00
         21   -1    0    0  501  502  0.00000000000E+00  0.00000000000E+00  0.81464120700E+02  0.81464120700E+02  0.00000000000E+00 0. -1.
          4   -1    0    0  502    0 -0.00000000000E+00 -0.00000000000E+00 -0.75859201026E+03  0.75859307335E+03  0.12700000000E+01 0.  1.
         25    2    1    2    0    0 -0.92788258525E+02  0.82681247049E+02 -0.69272071258E+03  0.71479507463E+03  0.12499665413E+03 0.  0.
    9000005    1    3    3    0    0 -0.46565145834E+02  0.10428250374E+03 -0.57888821034E+03  0.59004721291E+03  0.10000000000E+01 0.  0.
    9000005    1    3    3    0    0 -0.46223112691E+02 -0.21601256688E+02 -0.11383250224E+03  0.12474786172E+03  0.10000000000E+01 0.  0.
          4    1    1    2  501    0  0.92788258525E+02 -0.82681247049E+02  0.15592823011E+02  0.12526211943E+03  0.12700000000E+01 0. -1.
<mgrwt>
<rscale>  1 0.17626688E+03</rscale>
<asrwt>0</asrwt>
<pdfrwt beam="1">  1       21 0.12532942E-01 0.17626688E+03</pdfrwt>
<pdfrwt beam="2">  1        4 0.11670731E+00 0.17626688E+03</pdfrwt>
<totfact> 0.13505879E+03</totfact>
</mgrwt>
</event>
<event>
 6    4  0.3189516E-003  0.1300768E+03  0.7818608E-02  0.1227342E+00
         -4   -1    0    0    0  501 -0.00000000000E+00  0.00000000000E+00  0.77172094049E+02  0.77182543363E+02  0.12700000000E+01 0. -1.
         21   -1    0    0  501  502  0.00000000000E+00 -0.00000000000E+00 -0.12946452507E+03  0.12946452507E+03  0.00000000000E+00 0.  1.
         25    2    1    2    0    0  0.35576337121E+02  0.54041123039E+01  0.14383831747E+02  0.13086965023E+03  0.12500036217E+03 0.  0.
    9000005    1    3    3    0    0 -0.10703152302E+02  0.22443784901E+02 -0.46362118736E+02  0.52618694431E+02  0.10000000000E+01 0.  0.
    9000005    1    3    3    0    0  0.46279489424E+02 -0.17039672597E+02  0.60745950483E+02  0.78250955800E+02  0.10000000000E+01 0.  0.
         -4    1    1    2    0  502 -0.35576337121E+02 -0.54041123039E+01 -0.66676262772E+02  0.75777418206E+02  0.12700000000E+01 0.  1.
<mgrwt>
<rscale>  1 0.13007679E+03</rscale>
<asrwt>0</asrwt>
<pdfrwt beam="2">  1       21 0.19917619E-01 0.13007679E+03</pdfrwt>
<pdfrwt beam="1">  1       -4 0.11873913E-01 0.13007679E+03</pdfrwt>
<totfact> 0.53090988E+04</totfact>
</mgrwt>
</event>
<event>
 6    4  0.3189516E-003  0.1268401E+03  0.7818608E-02  0.1232221E+00
         21   -1    0    0  501  502  0.00000000000E+00  0.00000000000E+00  0.22115105499E+04  0.22115105499E+04  0.00000000000E+00 0.  1.
         -4   -1    0    0    0  501 -0.00000000000E+00 -0.00000000000E+00 -0.23680177892E+01  0.26870817349E+01  0.12700000000E+01 0. -1.
         25    2    1    2    0    0 -0.15657980762E+02 -0.14759215939E+02  0.17795213650E+04  0.17840360725E+04  0.12500165086E+03 0.  0.
    9000005    1    3    3    0    0 -0.43229722875E+02 -0.52455230892E+02  0.14001703846E+04  0.14018196982E+04  0.10000000000E+01 0.  0.
    9000005    1    3    3    0    0  0.27571742114E+02  0.37696014953E+02  0.37935098034E+03  0.38221637431E+03  0.10000000000E+01 0.  0.
         -4    1    1    2    0  502  0.15657980762E+02  0.14759215939E+02  0.42962116709E+03  0.43016155910E+03  0.12700000000E+01 0.  1.
<mgrwt>
<rscale>  1 0.12684013E+03</rscale>
<asrwt>0</asrwt>
<pdfrwt beam="1">  1       21 0.34023084E+00 0.12684013E+03</pdfrwt>
<pdfrwt beam="2">  1       -4 0.38888363E-03 0.12684013E+03</pdfrwt>
<totfact> 0.10440203E+04</totfact>
</mgrwt>
</event>
<event>
 6    4  0.3189516E-003  0.1343745E+03  0.7818608E-02  0.1221105E+00
         21   -1    0    0  501  502  0.00000000000E+00  0.00000000000E+00  0.15821100748E+03  0.15821100748E+03  0.00000000000E+00 0. -1.
         -4   -1    0    0    0  501 -0.00000000000E+00 -0.00000000000E+00 -0.35682192908E+03  0.35682418917E+03  0.12700000000E+01 0.  1.
         25    2    1    2    0    0 -0.48126561655E+02  0.11068798594E+02 -0.33982614217E+03  0.36542892786E+03  0.12497123738E+03 0.  0.
    9000005    1    3    3    0    0 -0.78945595982E+02 -0.25907945837E+02 -0.17519280581E+03  0.19389984010E+03  0.10000000000E+01 0.  0.
    9000005    1    3    3    0    0  0.30819034327E+02  0.36976744431E+02 -0.16463333637E+03  0.17152908776E+03  0.10000000000E+01 0.  0.
         -4    1    1    2    0  502  0.48126561655E+02 -0.11068798594E+02  0.14121522057E+03  0.14960626879E+03  0.12700000000E+01 0. -1.
<mgrwt>
<rscale>  1 0.13437446E+03</rscale>
<asrwt>0</asrwt>
<pdfrwt beam="1">  1       21 0.24340155E-01 0.13437446E+03</pdfrwt>
<pdfrwt beam="2">  1       -4 0.54896247E-01 0.13437446E+03</pdfrwt>
<totfact> 0.21138024E+03</totfact>
</mgrwt>
</event>
<event>
 6    4  0.3189516E-003  0.1628712E+03  0.7818608E-02  0.1185493E+00
         -4   -1    0    0    0  501 -0.00000000000E+00  0.00000000000E+00  0.17902983887E+03  0.17903434337E+03  0.12700000000E+01 0. -1.
         21   -1    0    0  501  502  0.00000000000E+00 -0.00000000000E+00 -0.60893929491E+03  0.60893929491E+03  0.00000000000E+00 0.  1.
         25    2    1    2    0    0 -0.10106340259E+03 -0.26227880804E+02  0.13620005503E+03  0.21231462072E+03  0.12500132042E+03 0.  0.
    9000005    1    3    3    0    0 -0.45656825961E+02 -0.20394914195E+01 -0.16088449548E+02  0.48461773502E+02  0.10000000000E+01 0.  0.
    9000005    1    3    3    0    0 -0.55406576631E+02 -0.24188389385E+02  0.15228850458E+03  0.16385284722E+03  0.10000000000E+01 0.  0.
         -4    1    1    2    0  502  0.10106340259E+03  0.26227880804E+02 -0.56610951107E+03  0.57565901756E+03  0.12700000000E+01 0.  1.
<mgrwt>
<rscale>  1 0.16287125E+03</rscale>
<asrwt>0</asrwt>
<pdfrwt beam="2">  1       21 0.93682968E-01 0.16287125E+03</pdfrwt>
<pdfrwt beam="1">  1       -4 0.27543501E-01 0.16287125E+03</pdfrwt>
<totfact> 0.50429449E+02</totfact>
</mgrwt>
</event>
<event>
 6    4  0.3189516E-003  0.1331933E+03  0.7818608E-02  0.1222793E+00
          4   -1    0    0  502    0 -0.00000000000E+00  0.00000000000E+00  0.39482776774E+03  0.39482981027E+03  0.12700000000E+01 0.  1.
         21   -1    0    0  501  502  0.00000000000E+00 -0.00000000000E+00 -0.49654363931E+02  0.49654363931E+02  0.00000000000E+00 0. -1.
         25    2    1    2    0    0 -0.16124902711E+02 -0.43086233794E+02  0.36925467524E+03  0.39254231668E+03  0.12499607661E+03 0.  0.
    9000005    1    3    3    0    0  0.45792803404E+02 -0.35044026734E+02  0.93907650761E+02  0.11020304680E+03  0.10000000000E+01 0.  0.
    9000005    1    3    3    0    0 -0.61917706115E+02 -0.80422070600E+01  0.27534702447E+03  0.28233926987E+03  0.10000000000E+01 0.  0.
          4    1    1    2  501    0  0.16124902711E+02  0.43086233794E+02 -0.24081271424E+02  0.51941857528E+02  0.12700000000E+01 0. -1.
<mgrwt>
<rscale>  1 0.13319330E+03</rscale>
<asrwt>0</asrwt>
<pdfrwt beam="2">  1       21 0.76391332E-02 0.13319330E+03</pdfrwt>
<pdfrwt beam="1">  1        4 0.60744138E-01 0.13319330E+03</pdfrwt>
<totfact> 0.13693375E+04</totfact>
</mgrwt>
</event>
<event>
 6    4  0.3189516E-003  0.1288450E+03  0.7818608E-02  0.1229180E+00
         21   -1    0    0  501  502  0.00000000000E+00  0.00000000000E+00  0.21198488211E+03  0.21198488211E+03  0.00000000000E+00 0. -1.
          4   -1    0    0  502    0 -0.00000000000E+00 -0.00000000000E+00 -0.36856249189E+02  0.36878123654E+02  0.12700000000E+01 0.  1.
         25    2    1    2    0    0  0.81460352276E+01 -0.30166127578E+02  0.87305877388E+02  0.15563853241E+03  0.12499873360E+03 0.  0.
    9000005    1    3    3    0    0 -0.49819283965E+02 -0.10220115116E+02  0.24158093563E+01  0.50923942725E+02  0.10000000000E+01 0.  0.
    9000005    1    3    3    0    0  0.57965319193E+02 -0.19946012462E+02  0.84890068032E+02  0.10471458968E+03  0.10000000000E+01 0.  0.
          4    1    1    2  501    0 -0.81460352276E+01  0.30166127578E+02  0.87822755534E+02  0.93224473357E+02  0.12700000000E+01 0. -1.
<mgrwt>
<rscale>  1 0.12884501E+03</rscale>
<asrwt>0</asrwt>
<pdfrwt beam="1">  1       21 0.32613058E-01 0.12884501E+03</pdfrwt>
<pdfrwt beam="2">  1        4 0.56721676E-02 0.12884501E+03</pdfrwt>
<totfact> 0.70968315E+04</totfact>
</mgrwt>
</event>
<event>
 6    4  0.3189516E-003  0.1272506E+03  0.7818608E-02  0.1231593E+00
         21   -1    0    0  501  502  0.00000000000E+00  0.00000000000E+00  0.11796081672E+02  0.11796081672E+02  0.00000000000E+00 0. -1.
         -4   -1    0    0    0  501 -0.00000000000E+00 -0.00000000000E+00 -0.54810082741E+03  0.54810229876E+03  0.12700000000E+01 0. -1.
         25    2    1    2    0    0  0.62195831439E+01 -0.22995113894E+02 -0.50353590015E+03  0.51936606470E+03  0.12500099177E+03 0.  0.
    9000005    1    3    3    0    0 -0.25556634353E+02  0.86651119125E+01 -0.19631228581E+02  0.33385788286E+02  0.10000000000E+01 0.  0.
    9000005    1    3    3    0    0  0.31776217496E+02 -0.31660225806E+02 -0.48390467157E+03  0.48598027642E+03  0.10000000000E+01 0.  0.
         -4    1    1    2    0  502 -0.62195831439E+01  0.22995113894E+02 -0.32768845580E+02  0.40532315726E+02  0.12700000000E+01 0.  1.
<mgrwt>
<rscale>  1 0.12725057E+03</rscale>
<asrwt>0</asrwt>
<pdfrwt beam="1">  1       21 0.18147820E-02 0.12725057E+03</pdfrwt>
<pdfrwt beam="2">  1       -4 0.84328568E-01 0.12725057E+03</pdfrwt>
<totfact> 0.72614834E+04</totfact>
</mgrwt>
</event>
<event>
 6    4  0.3189516E-003  0.1314655E+03  0.7818608E-02  0.1225297E+00
          4   -1    0    0  502    0 -0.00000000000E+00  0.00000000000E+00  0.11337075296E+04  0.11337082409E+04  0.12700000000E+01 0. -1.
         21   -1    0    0  501  502  0.00000000000E+00 -0.00000000000E+00 -0.11137738655E+02  0.11137738655E+02  0.00000000000E+00 0.  1.
         25    2    1    2    0    0  0.38034430554E+02 -0.14549542507E+02  0.10714092502E+04  0.10794447493E+04  0.12499951308E+03 0.  0.
    9000005    1    3    3    0    0  0.84463714774E+01 -0.18399016877E+02  0.10184399042E+04  0.10186415972E+04  0.10000000000E+01 0.  0.
    9000005    1    3    3    0    0  0.29588059076E+02  0.38494743704E+01  0.52969346001E+02  0.60803152127E+02  0.10000000000E+01 0.  0.
          4    1    1    2  501    0 -0.38034430554E+02  0.14549542507E+02  0.51160540717E+02  0.65401230273E+02  0.12700000000E+01 0.  1.
<mgrwt>
<rscale>  1 0.13146553E+03</rscale>
<asrwt>0</asrwt>
<pdfrwt beam="2">  1       21 0.17134991E-02 0.13146553E+03</pdfrwt>
<pdfrwt beam="1">  1        4 0.17442208E+00 0.13146553E+03</pdfrwt>
<totfact> 0.13755610E+04</totfact>
</mgrwt>
</event>
<event>
 6    4  0.3189516E-003  0.1281611E+03  0.7818608E-02  0.1230210E+00
         21   -1    0    0  501  502  0.00000000000E+00  0.00000000000E+00  0.19604554681E+03  0.19604554681E+03  0.00000000000E+00 0.  1.
          4   -1    0    0  502    0 -0.00000000000E+00 -0.00000000000E+00 -0.71460169237E+02  0.71471453654E+02  0.12700000000E+01 0. -1.
         25    2    1    2    0    0 -0.84149968898E+01  0.26734225623E+02 -0.11400368147E+02  0.12866720057E+03  0.12505898255E+03 0.  0.
    9000005    1    3    3    0    0  0.36114835248E+02  0.57258193117E+01 -0.52866479337E+02  0.64287875756E+02  0.10000000000E+01 0.  0.
    9000005    1    3    3    0    0 -0.44529832138E+02  0.21008406312E+02  0.41466111189E+02  0.64379324811E+02  0.10000000000E+01 0.  0.
          4    1    1    2  501    0  0.84149968898E+01 -0.26734225623E+02  0.13598574572E+03  0.13884979989E+03  0.12700000000E+01 0.  1.
<mgrwt>
<rscale>  1 0.12816115E+03</rscale>
<asrwt>0</asrwt>
<pdfrwt beam="1">  1       21 0.30160853E-01 0.12816115E+03</pdfrwt>
<pdfrwt beam="2">  1        4 0.10995057E-01 0.12816115E+03</pdfrwt>
<totfact> 0.27607885E+04</totfact>
</mgrwt>
</event>
<event>
 6    4  0.3189516E-003  0.1280256E+03  0.7818608E-02  0.1230415E+00
         -4   -1    0    0    0  501 -0.00000000000E+00  0.00000000000E+00  0.18350734329E+02  0.18394628303E+02  0.12700000000E+01 0. -1.
         21   -1    0    0  501  502  0.00000000000E+00 -0.00000000000E+00 -0.76708009266E+03  0.76708009266E+03  0.00000000000E+00 0.  1.
         25    2    1    2    0    0 -0.11206583876E+02 -0.25515191933E+02 -0.20948123366E+03  0.24550549461E+03  0.12495578453E+03 0.  0.
    9000005    1    3    3    0    0 -0.40356610850E+02 -0.15350995274E+02 -0.21021849815E+03  0.21460924039E+03  0.10000000000E+01 0.  0.
    9000005    1    3    3    0    0  0.29150026974E+02 -0.10164196659E+02  0.73726449007E+00  0.30896254227E+02  0.10000000000E+01 0.  0.
         -4    1    1    2    0  502  0.11206583876E+02  0.25515191933E+02 -0.53924812467E+03  0.53996922635E+03  0.12700000000E+01 0.  1.
<mgrwt>
<rscale>  1 0.12802562E+03</rscale>
<asrwt>0</asrwt>
<pdfrwt beam="2">  1       21 0.11801232E+00 0.12802562E+03</pdfrwt>
<pdfrwt beam="1">  1       -4 0.28266473E-02 0.12802562E+03</pdfrwt>
<totfact> 0.13457052E+04</totfact>
</mgrwt>
</event>
<event>
 6    4  0.3189516E-003  0.1296282E+03  0.7818608E-02  0.1228008E+00
         21   -1    0    0  501  502  0.00000000000E+00  0.00000000000E+00  0.92254355422E+02  0.92254355422E+02  0.00000000000E+00 0.  1.
         -4   -1    0    0    0  501 -0.00000000000E+00 -0.00000000000E+00 -0.78668397663E+02  0.78678648252E+02  0.12700000000E+01 0. -1.
         25    2    1    2    0    0 -0.26966657710E+02  0.21237412184E+02 -0.88110295910E+01  0.12992731813E+03  0.12500098180E+03 0.  0.
    9000005    1    3    3    0    0 -0.57307981848E+02 -0.27096799051E+02 -0.28553484441E+02  0.69532314617E+02  0.10000000000E+01 0.  0.
    9000005    1    3    3    0    0  0.30341324138E+02  0.48334211235E+02  0.19742454850E+02  0.60395003516E+02  0.10000000000E+01 0.  0.
         -4    1    1    2    0  502  0.26966657710E+02 -0.21237412184E+02  0.22396987351E+02  0.41005685542E+02  0.12700000000E+01 0.  1.
<mgrwt>
<rscale>  1 0.12962821E+03</rscale>
<asrwt>0</asrwt>
<pdfrwt beam="1">  1       21 0.14192978E-01 0.12962821E+03</pdfrwt>
<pdfrwt beam="2">  1       -4 0.12104291E-01 0.12962821E+03</pdfrwt>
<totfact> 0.95169913E+04</totfact>
</mgrwt>
</event>
<event>
 6    4  0.3189516E-003  0.1365623E+03  0.7818608E-02  0.1218031E+00
         21   -1    0    0  501  502  0.00000000000E+00  0.00000000000E+00  0.11579834101E+03  0.11579834101E+03  0.00000000000E+00 0. -1.
         -4   -1    0    0    0  501 -0.00000000000E+00 -0.00000000000E+00 -0.23271591586E+03  0.23271938122E+03  0.12700000000E+01 0.  1.
         25    2    1    2    0    0  0.41160456525E+02  0.36488545174E+02 -0.20401211209E+03  0.24549991588E+03  0.12499467872E+03 0.  0.
    9000005    1    3    3    0    0  0.34018837326E+02  0.17081851900E+02  0.23023125058E+01  0.38149332893E+02  0.10000000000E+01 0.  0.
    9000005    1    3    3    0    0  0.71416191993E+01  0.19406693274E+02 -0.20631442459E+03  0.20735058298E+03  0.10000000000E+01 0.  0.
         -4    1    1    2    0  502 -0.41160456525E+02 -0.36488545174E+02  0.87094537229E+02  0.10301780635E+03  0.12700000000E+01 0. -1.
<mgrwt>
<rscale>  1 0.13656232E+03</rscale>
<asrwt>0</asrwt>
<pdfrwt beam="1">  1       21 0.17815130E-01 0.13656232E+03</pdfrwt>
<pdfrwt beam="2">  1       -4 0.35803250E-01 0.13656232E+03</pdfrwt>
<totfact> 0.88840313E+03</totfact>
</mgrwt>
</event>
<event>
 6    4  0.3189516E-003  0.1439290E+03  0.7818608E-02  0.1208138E+00
         -4   -1    0    0    0  501 -0.00000000000E+00  0.00000000000E+00  0.72732118095E+03  0.72732228974E+03  0.12700000000E+01 0. -1.
         21   -1    0    0  501  502  0.00000000000E+00 -0.00000000000E+00 -0.27484517528E+02  0.27484517528E+02  0.00000000000E+00 0.  1.
         25    2    1    2    0    0  0.26393902764E+02  0.66292876902E+02  0.65477147787E+03  0.67040380093E+03  0.12499673770E+03 0.  0.
    9000005    1    3    3    0    0  0.16485531449E+02  0.79851388734E+02  0.20942225146E+03  0.22473694943E+03  0.10000000000E+01 0.  0.
    9000005    1    3    3    0    0  0.99083713154E+01 -0.13558511832E+02  0.44534922641E+03  0.44566685150E+03  0.10000000000E+01 0.  0.
         -4    1    1    2    0  502 -0.26393902764E+02 -0.66292876902E+02  0.45065185550E+02  0.84403006343E+02  0.12700000000E+01 0.  1.
<mgrwt>
<rscale>  1 0.14392904E+03</rscale>
<asrwt>0</asrwt>
<pdfrwt beam="2">  1       21 0.42283879E-02 0.14392904E+03</pdfrwt>
<pdfrwt beam="1">  1       -4 0.11189789E+00 0.14392904E+03</pdfrwt>
<totfact> 0.96262139E+03</totfact>
</mgrwt>
</event>
<event>
 6    4  0.3189516E-003  0.1273937E+03  0.7818608E-02  0.1231375E+00
         21   -1    0    0  501  502  0.00000000000E+00  0.00000000000E+00  0.97970958705E+02  0.97970958705E+02  0.00000000000E+00 0.  1.
         -4   -1    0    0    0  501 -0.00000000000E+00 -0.00000000000E+00 -0.10976338466E+03  0.10977073158E+03  0.12700000000E+01 0. -1.
         25    2    1    2    0    0 -0.15669228714E+02  0.18938928710E+02 -0.69418258616E+02  0.14507944296E+03  0.12499976957E+03 0.  0.
    9000005    1    3    3    0    0  0.37286131649E+02 -0.10975808671E+02 -0.74503132055E+02  0.84038328608E+02  0.10000000000E+01 0.  0.
    9000005    1    3    3    0    0 -0.52955360362E+02  0.29914737381E+02  0.50848734389E+01  0.61041114354E+02  0.10000000000E+01 0.  0.
         -4    1    1    2    0  502  0.15669228714E+02 -0.18938928710E+02  0.57625832664E+02  0.62662247322E+02  0.12700000000E+01 0.  1.
<mgrwt>
<rscale>  1 0.12739368E+03</rscale>
<asrwt>0</asrwt>
<pdfrwt beam="1">  1       21 0.15072455E-01 0.12739368E+03</pdfrwt>
<pdfrwt beam="2">  1       -4 0.16887873E-01 0.12739368E+03</pdfrwt>
<totfact> 0.47795479E+04</totfact>
</mgrwt>
</event>
<event>
 6    4  0.3189516E-003  0.1350326E+03  0.7818608E-02  0.1220174E+00
         21   -1    0    0  501  502  0.00000000000E+00  0.00000000000E+00  0.15236497436E+03  0.15236497436E+03  0.00000000000E+00 0. -1.
          4   -1    0    0  502    0 -0.00000000000E+00 -0.00000000000E+00 -0.57837157539E+02  0.57851099317E+02  0.12700000000E+01 0. -1.
         25    2    1    2    0    0  0.25022383611E+02  0.44530263725E+02  0.55822307702E+02  0.14611620312E+03  0.12499900283E+03 0.  0.
    9000005    1    3    3    0    0 -0.25039756760E+02 -0.33553194511E+02  0.12251828070E+02  0.43633858087E+02  0.10000000000E+01 0.  0.
    9000005    1    3    3    0    0  0.50062140371E+02  0.78083458237E+02  0.43570479632E+02  0.10248234504E+03  0.10000000000E+01 0.  0.
          4    1    1    2  501    0 -0.25022383611E+02 -0.44530263725E+02  0.38705509122E+02  0.64099870557E+02  0.12700000000E+01 0.  1.
<mgrwt>
<rscale>  1 0.13503264E+03</rscale>
<asrwt>0</asrwt>
<pdfrwt beam="1">  1       21 0.23440765E-01 0.13503264E+03</pdfrwt>
<pdfrwt beam="2">  1        4 0.88995039E-02 0.13503264E+03</pdfrwt>
<totfact> 0.64050167E+04</totfact>
</mgrwt>
</event>
<event>
 6    4  0.3189516E-003  0.1288297E+03  0.7818608E-02  0.1229203E+00
         21   -1    0    0  501  502  0.00000000000E+00  0.00000000000E+00  0.21778440004E+03  0.21778440004E+03  0.00000000000E+00 0.  1.
          4   -1    0    0  502    0 -0.00000000000E+00 -0.00000000000E+00 -0.33357193383E+02  0.33381360823E+02  0.12700000000E+01 0.  1.
         25    2    1    2    0    0  0.25077921436E+02 -0.18530000869E+02  0.17728695635E+03  0.21915233945E+03  0.12499927968E+03 0.  0.
    9000005    1    3    3    0    0  0.53896498594E+02 -0.58029909842E+02  0.12061804557E+03  0.14429835728E+03  0.10000000000E+01 0.  0.
    9000005    1    3    3    0    0 -0.28818577158E+02  0.39499908973E+02  0.56668910778E+02  0.74853982172E+02  0.10000000000E+01 0.  0.
          4    1    1    2  501    0 -0.25077921436E+02  0.18530000869E+02  0.71402503062E+01  0.32013421407E+02  0.12700000000E+01 0. -1.
<mgrwt>
<rscale>  1 0.12882967E+03</rscale>
<asrwt>0</asrwt>
<pdfrwt beam="1">  1       21 0.33505291E-01 0.12882967E+03</pdfrwt>
<pdfrwt beam="2">  1        4 0.51340199E-02 0.12882967E+03</pdfrwt>
<totfact> 0.79071565E+04</totfact>
</mgrwt>
</event>
<event>
 6    4  0.3189516E-003  0.1269360E+03  0.7818608E-02  0.1232074E+00
          4   -1    0    0  502    0 -0.00000000000E+00  0.00000000000E+00  0.39075992319E+03  0.39076198698E+03  0.12700000000E+01 0. -1.
         21   -1    0    0  501  502  0.00000000000E+00 -0.00000000000E+00 -0.17396232343E+02  0.17396232343E+02  0.00000000000E+00 0. -1.
         25    2    1    2    0    0  0.19072725421E+02 -0.11108452167E+02  0.36134945684E+03  0.38299631790E+03  0.12500233199E+03 0.  0.
    9000005    1    3    3    0    0  0.22977508300E+02 -0.98149188125E+01  0.36489946182E+01  0.25270806886E+02  0.10000000000E+01 0.  0.
    9000005    1    3    3    0    0 -0.39047828790E+01 -0.12935333542E+01  0.35770046222E+03  0.35772551102E+03  0.10000000000E+01 0.  0.
          4    1    1    2  501    0 -0.19072725421E+02  0.11108452167E+02  0.12014234005E+02  0.25161901424E+02  0.12700000000E+01 0.  1.
<mgrwt>
<rscale>  1 0.12693601E+03</rscale>
<asrwt>0</asrwt>
<pdfrwt beam="2">  1       21 0.26763437E-02 0.12693601E+03</pdfrwt>
<pdfrwt beam="1">  1        4 0.60120629E-01 0.12693601E+03</pdfrwt>
<totfact> 0.80423468E+04</totfact>
</mgrwt>
</event>
<event>
 6    4  0.3189516E-003  0.1355335E+03  0.7818608E-02  0.1219469E+00
          4   -1    0    0  502    0 -0.00000000000E+00  0.00000000000E+00  0.15659799448E+03  0.15660314421E+03  0.12700000000E+01 0.  1.
         21   -1    0    0  501  502  0.00000000000E+00 -0.00000000000E+00 -0.63748333303E+02  0.63748333303E+02  0.00000000000E+00 0.  1.
         25    2    1    2    0    0 -0.25136462019E+02 -0.45963678537E+02  0.98641545126E+02  0.16762899381E+03  0.12499929469E+03 0.  0.
    9000005    1    3    3    0    0 -0.57496708233E+02 -0.51541539769E+02  0.10863926059E+03  0.13328874941E+03  0.10000000000E+01 0.  0.
    9000005    1    3    3    0    0  0.32360246215E+02  0.55778612321E+01 -0.99977154596E+01  0.34340244399E+02  0.10000000000E+01 0.  0.
          4    1    1    2  501    0  0.25136462019E+02  0.45963678537E+02 -0.57918839493E+01  0.52722483696E+02  0.12700000000E+01 0. -1.
<mgrwt>
<rscale>  1 0.13553348E+03</rscale>
<asrwt>0</asrwt>
<pdfrwt beam="2">  1       21 0.98074360E-02 0.13553348E+03</pdfrwt>
<pdfrwt beam="1">  1        4 0.24093368E-01 0.13553348E+03</pdfrwt>
<totfact> 0.54474783E+04</totfact>
</mgrwt>
</event>
<event>
 6    4  0.3189516E-003  0.1287108E+03  0.7818608E-02  0.1229381E+00
         21   -1    0    0  501  502  0.00000000000E+00  0.00000000000E+00  0.16197684181E+03  0.16197684181E+03  0.00000000000E+00 0.  1.
         -4   -1    0    0    0  501 -0.00000000000E+00 -0.00000000000E+00 -0.10756430804E+03  0.10757180515E+03  0.12700000000E+01 0. -1.
         25    2    1    2    0    0  0.23895762218E+02  0.19247324921E+02 -0.66445617947E+02  0.14484991920E+03  0.12500004792E+03 0.  0.
    9000005    1    3    3    0    0  0.34259290888E+02  0.69317178305E+02 -0.35620950487E+02  0.85137666952E+02  0.10000000000E+01 0.  0.
    9000005    1    3    3    0    0 -0.10363528670E+02 -0.50069853384E+02 -0.30824667459E+02  0.59712252247E+02  0.10000000000E+01 0.  0.
         -4    1    1    2    0  502 -0.23895762218E+02 -0.19247324921E+02  0.12085815172E+03  0.12469872776E+03  0.12700000000E+01 0.  1.
<mgrwt>
<rscale>  1 0.12871083E+03</rscale>
<asrwt>0</asrwt>
<pdfrwt beam="1">  1       21 0.24919514E-01 0.12871083E+03</pdfrwt>
<pdfrwt beam="2">  1       -4 0.16549315E-01 0.12871083E+03</pdfrwt>
<totfact> 0.19623224E+04</totfact>
</mgrwt>
</event>
<event>
 6    4  0.3189516E-003  0.1267020E+03  0.7818608E-02  0.1232433E+00
         -4   -1    0    0    0  501 -0.00000000000E+00  0.00000000000E+00  0.21043368273E+03  0.21043751502E+03  0.12700000000E+01 0. -1.
         21   -1    0    0  501  502  0.00000000000E+00 -0.00000000000E+00 -0.38931600258E+02  0.38931600258E+02  0.00000000000E+00 0. -1.
         25    2    1    2    0    0 -0.21347437750E+01  0.20590353604E+02  0.18528761713E+03  0.22446582919E+03  0.12499955047E+03 0.  0.
    9000005    1    3    3    0    0 -0.11154896524E+01 -0.45485650536E+02  0.13181954067E+03  0.13945458050E+03  0.10000000000E+01 0.  0.
    9000005    1    3    3    0    0 -0.10192541226E+01  0.66076004140E+02  0.53468076461E+02  0.85011248682E+02  0.10000000000E+01 0.  0.
         -4    1    1    2    0  502  0.21347437750E+01 -0.20590353604E+02 -0.13785534655E+02  0.24903286093E+02  0.12700000000E+01 0.  1.
<mgrwt>
<rscale>  1 0.12670204E+03</rscale>
<asrwt>0</asrwt>
<pdfrwt beam="2">  1       21 0.59894771E-02 0.12670204E+03</pdfrwt>
<pdfrwt beam="1">  1       -4 0.32376300E-01 0.12670204E+03</pdfrwt>
<totfact> 0.72571008E+04</totfact>
</mgrwt>
</event>
<event>
 6    4  0.3189516E-003  0.1270121E+03  0.7818608E-02  0.1231958E+00
          4   -1    0    0  502    0 -0.00000000000E+00  0.00000000000E+00  0.41909478965E+02  0.41928717213E+02  0.12700000000E+01 0. -1.
         21   -1    0    0  501  502  0.00000000000E+00 -0.00000000000E+00 -0.13404817355E+03  0.13404817355E+03  0.00000000000E+00 0. -1.
         25    2    1    2    0    0  0.70850409719E+01  0.21360149964E+02 -0.73628393814E+02  0.14681016406E+03  0.12500252030E+03 0.  0.
    9000005    1    3    3    0    0  0.66527589408E+01 -0.52274764965E+02 -0.38166865262E+02  0.65073956831E+02  0.10000000000E+01 0.  0.
    9000005    1    3    3    0    0  0.43228203116E+00  0.73634914929E+02 -0.35461528552E+02  0.81736207226E+02  0.10000000000E+01 0.  0.
          4    1    1    2  501    0 -0.70850409719E+01 -0.21360149964E+02 -0.18510300766E+02  0.29166726702E+02  0.12700000000E+01 0.  1.
<mgrwt>
<rscale>  1 0.12701214E+03</rscale>
<asrwt>0</asrwt>
<pdfrwt beam="2">  1       21 0.20622796E-01 0.12701214E+03</pdfrwt>
<pdfrwt beam="1">  1        4 0.64495548E-02 0.12701214E+03</pdfrwt>
<totfact> 0.13723687E+05</totfact>
</mgrwt>
</event>
<event>
 6    4  0.3189516E-003  0.1296697E+03  0.7818608E-02  0.1227947E+00
          4   -1    0    0  502    0 -0.00000000000E+00  0.00000000000E+00  0.33724918130E+03  0.33725157255E+03  0.12700000000E+01 0.  1.
         21   -1    0    0  501  502  0.00000000000E+00 -0.00000000000E+00 -0.20876308415E+02  0.20876308415E+02  0.00000000000E+00 0.  1.
         25    2    1    2    0    0 -0.20927382493E+02 -0.27388501563E+02  0.27657292176E+03  0.30546162644E+03  0.12500455521E+03 0.  0.
    9000005    1    3    3    0    0 -0.17070519840E+02 -0.41523353231E+02  0.28500919430E+03  0.28852527159E+03  0.10000000000E+01 0.  0.
    9000005    1    3    3    0    0 -0.38568626530E+01  0.14134851668E+02 -0.84362725428E+01  0.16936354850E+02  0.10000000000E+01 0.  0.
          4    1    1    2  501    0  0.20927382493E+02  0.27388501563E+02  0.39799951131E+02  0.52666254527E+02  0.12700000000E+01 0. -1.
<mgrwt>
<rscale>  1 0.12966967E+03</rscale>
<asrwt>0</asrwt>
<pdfrwt beam="2">  1       21 0.32117400E-02 0.12966967E+03</pdfrwt>
<pdfrwt beam="1">  1        4 0.51887641E-01 0.12966967E+03</pdfrwt>
<totfact> 0.81193458E+04</totfact>
</mgrwt>
</event>
<event>
 6    4  0.3189516E-003  0.1292065E+03  0.7818608E-02  0.1228638E+00
          4   -1    0    0  502    0 -0.00000000000E+00  0.00000000000E+00  0.11264385313E+04  0.11264392473E+04  0.12700000000E+01 0.  1.
         21   -1    0    0  501  502  0.00000000000E+00 -0.00000000000E+00 -0.62133644633E+01  0.62133644633E+01  0.00000000000E+00 0.  1.
         25    2    1    2    0    0 -0.28539008857E+02 -0.15997893937E+02  0.98900768227E+03  0.99741190483E+03  0.12499561860E+03 0.  0.
    9000005    1    3    3    0    0  0.48019842025E+02 -0.13287941826E+02  0.29392561608E+03  0.29812034888E+03  0.10000000000E+01 0.  0.
    9000005    1    3    3    0    0 -0.76558850882E+02 -0.27099521104E+01  0.69508206619E+03  0.69929155596E+03  0.10000000000E+01 0.  0.
          4    1    1    2  501    0  0.28539008857E+02  0.15997893937E+02  0.13121748461E+03  0.13524070690E+03  0.12700000000E+01 0. -1.
<mgrwt>
<rscale>  1 0.12920647E+03</rscale>
<asrwt>0</asrwt>
<pdfrwt beam="2">  1       21 0.95590312E-03 0.12920647E+03</pdfrwt>
<pdfrwt beam="1">  1        4 0.17330811E+00 0.12920647E+03</pdfrwt>
<totfact> 0.35309697E+04</totfact>
</mgrwt>
</event>
<event>
 6    4  0.3189516E-003  0.1284919E+03  0.7818608E-02  0.1229711E+00
         -4   -1    0    0    0  501 -0.00000000000E+00  0.00000000000E+00  0.19200637874E+03  0.19201057882E+03  0.12700000000E+01 0.  1.
         21   -1    0    0  501  502  0.00000000000E+00 -0.00000000000E+00 -0.66982889396E+02  0.66982889396E+02  0.00000000000E+00 0. -1.
         25    2    1    2    0    0 -0.16579821416E+02 -0.24688507209E+02  0.16501424753E+03  0.20914082028E+03  0.12500307177E+03 0.  0.
    9000005    1    3    3    0    0 -0.27000300593E+02 -0.67992185529E+02  0.14020747969E+03  0.15814895158E+03  0.10000000000E+01 0.  0.
    9000005    1    3    3    0    0  0.10420479177E+02  0.43303678320E+02  0.24806767841E+02  0.50991868696E+02  0.10000000000E+01 0.  0.
         -4    1    1    2    0  502  0.16579821416E+02  0.24688507209E+02 -0.39990758183E+02  0.49852647938E+02  0.12700000000E+01 0. -1.
<mgrwt>
<rscale>  1 0.12849195E+03</rscale>
<asrwt>0</asrwt>
<pdfrwt beam="2">  1       21 0.10305060E-01 0.12849195E+03</pdfrwt>
<pdfrwt beam="1">  1       -4 0.29540692E-01 0.12849195E+03</pdfrwt>
<totfact> 0.33967531E+04</totfact>
</mgrwt>
</event>
<event>
 6    4  0.3189516E-003  0.1279965E+03  0.7818608E-02  0.1230459E+00
         -4   -1    0    0    0  501 -0.00000000000E+00  0.00000000000E+00  0.10147352617E+02  0.10226517742E+02  0.12700000000E+01 0.  1.
         21   -1    0    0  501  502  0.00000000000E+00 -0.00000000000E+00 -0.71362079642E+03  0.71362079642E+03  0.00000000000E+00 0.  1.
         25    2    1    2    0    0  0.11191416632E+02 -0.25113433507E+02 -0.42077361176E+03  0.43981080192E+03  0.12500870683E+03 0.  0.
    9000005    1    3    3    0    0  0.64345522737E+02  0.26135434131E+01 -0.16551537261E+03  0.17760494215E+03  0.10000000000E+01 0.  0.
    9000005    1    3    3    0    0 -0.53154106105E+02 -0.27726976920E+02 -0.25525823915E+03  0.26220585977E+03  0.10000000000E+01 0.  0.
         -4    1    1    2    0  502 -0.11191416632E+02  0.25113433507E+02 -0.28269983204E+03  0.28403651224E+03  0.12700000000E+01 0. -1.
<mgrwt>
<rscale>  1 0.12799652E+03</rscale>
<asrwt>0</asrwt>
<pdfrwt beam="2">  1       21 0.10978782E+00 0.12799652E+03</pdfrwt>
<pdfrwt beam="1">  1       -4 0.15673077E-02 0.12799652E+03</pdfrwt>
<totfact> 0.39737694E+04</totfact>
</mgrwt>
</event>
<event>
 6    4  0.3189516E-003  0.1284678E+03  0.7818608E-02  0.1229747E+00
         21   -1    0    0  501  502  0.00000000000E+00  0.00000000000E+00  0.54790142068E+03  0.54790142068E+03  0.00000000000E+00 0. -1.
         -4   -1    0    0    0  501 -0.00000000000E+00 -0.00000000000E+00 -0.16914165369E+02  0.16961777328E+02  0.12700000000E+01 0.  1.
         25    2    1    2    0    0  0.26651293834E+02  0.12972332565E+02  0.23870770647E+03  0.27108178190E+03  0.12500156190E+03 0.  0.
    9000005    1    3    3    0    0  0.29036844008E+02 -0.50592686666E+02  0.15725914721E+03  0.16773251812E+03  0.10000000000E+01 0.  0.
    9000005    1    3    3    0    0 -0.23855501739E+01  0.63565019232E+02  0.81448559258E+02  0.10334926378E+03  0.10000000000E+01 0.  0.
         -4    1    1    2    0  502 -0.26651293834E+02 -0.12972332565E+02  0.29227954885E+03  0.29378141611E+03  0.12700000000E+01 0. -1.
<mgrwt>
<rscale>  1 0.12846775E+03</rscale>
<asrwt>0</asrwt>
<pdfrwt beam="1">  1       21 0.84292513E-01 0.12846775E+03</pdfrwt>
<pdfrwt beam="2">  1       -4 0.26059554E-02 0.12846775E+03</pdfrwt>
<totfact> 0.33560381E+04</totfact>
</mgrwt>
</event>
<event>
 6    4  0.3189516E-003  0.1273927E+03  0.7818608E-02  0.1231377E+00
         21   -1    0    0  501  502  0.00000000000E+00  0.00000000000E+00  0.21764085397E+03  0.21764085397E+03  0.00000000000E+00 0. -1.
         -4   -1    0    0    0  501 -0.00000000000E+00 -0.00000000000E+00 -0.47603706154E+02  0.47620644049E+02  0.12700000000E+01 0.  1.
         25    2    1    2    0    0  0.20116077345E+02  0.14150374132E+02  0.40900339012E+02  0.13379736624E+03  0.12499603124E+03 0.  0.
    9000005    1    3    3    0    0  0.69819589079E+02  0.16954055138E+02  0.43394752379E+02  0.83942358430E+02  0.10000000000E+01 0.  0.
    9000005    1    3    3    0    0 -0.49703511734E+02 -0.28036810059E+01 -0.24944133665E+01  0.49855007812E+02  0.10000000000E+01 0.  0.
         -4    1    1    2    0  502 -0.20116077345E+02 -0.14150374132E+02  0.12913680881E+03  0.13146413178E+03  0.12700000000E+01 0. -1.
<mgrwt>
<rscale>  1 0.12739269E+03</rscale>
<asrwt>0</asrwt>
<pdfrwt beam="1">  1       21 0.33483208E-01 0.12739269E+03</pdfrwt>
<pdfrwt beam="2">  1       -4 0.73252352E-02 0.12739269E+03</pdfrwt>
<totfact> 0.44364352E+04</totfact>
</mgrwt>
</event>
<event>
 6    4  0.3189516E-003  0.1292431E+03  0.7818608E-02  0.1228583E+00
         21   -1    0    0  501  502  0.00000000000E+00  0.00000000000E+00  0.30127349511E+02  0.30127349511E+02  0.00000000000E+00 0. -1.
          4   -1    0    0  502    0 -0.00000000000E+00 -0.00000000000E+00 -0.54772906227E+03  0.54773053462E+03  0.12700000000E+01 0.  1.
         25    2    1    2    0    0 -0.32371677564E+02  0.54430156887E+01 -0.52785284035E+03  0.54344494406E+03  0.12500493681E+03 0.  0.
    9000005    1    3    3    0    0  0.56941033158E+01  0.56419202335E+02 -0.34972718445E+03  0.35429599595E+03  0.10000000000E+01 0.  0.
    9000005    1    3    3    0    0 -0.38065780880E+02 -0.50976186647E+02 -0.17812565590E+03  0.18914894811E+03  0.10000000000E+01 0.  0.
          4    1    1    2  501    0  0.32371677564E+02 -0.54430156887E+01  0.10251127586E+02  0.34412940079E+02  0.12700000000E+01 0. -1.
<mgrwt>
<rscale>  1 0.12924313E+03</rscale>
<asrwt>0</asrwt>
<pdfrwt beam="1">  1       21 0.46349772E-02 0.12924313E+03</pdfrwt>
<pdfrwt beam="2">  1        4 0.84268176E-01 0.12924313E+03</pdfrwt>
<totfact> 0.15682220E+04</totfact>
</mgrwt>
</event>
<event>
 6    4  0.3189516E-003  0.1749641E+03  0.7818608E-02  0.1172768E+00
         21   -1    0    0  501  502  0.00000000000E+00  0.00000000000E+00  0.12211461207E+02  0.12211461207E+02  0.00000000000E+00 0. -1.
         -4   -1    0    0    0  501 -0.00000000000E+00 -0.00000000000E+00 -0.23127036496E+04  0.23127039983E+04  0.12700000000E+01 0.  1.
         25    2    1    2    0    0  0.62322776053E+02 -0.10537278585E+03 -0.18442902825E+04  0.18525709409E+04  0.12499957029E+03 0.  0.
    9000005    1    3    3    0    0  0.31938448029E+02 -0.36941210631E+02 -0.17744854301E+03  0.18404809948E+03  0.10000000000E+01 0.  0.
    9000005    1    3    3    0    0  0.30384328024E+02 -0.68431575218E+02 -0.16668417394E+04  0.16685228414E+04  0.10000000000E+01 0.  0.
         -4    1    1    2    0  502 -0.62322776053E+02  0.10537278585E+03 -0.45620190591E+03  0.47234451862E+03  0.12700000000E+01 0. -1.
<mgrwt>
<rscale>  1 0.17496412E+03</rscale>
<asrwt>0</asrwt>
<pdfrwt beam="1">  1       21 0.18786869E-02 0.17496412E+03</pdfrwt>
<pdfrwt beam="2">  1       -4 0.35580557E+00 0.17496412E+03</pdfrwt>
<totfact> 0.98339218E+02</totfact>
</mgrwt>
</event>
<event>
 6    4  0.3189516E-003  0.1272105E+03  0.7818608E-02  0.1231655E+00
         21   -1    0    0  501  502  0.00000000000E+00  0.00000000000E+00  0.12870856403E+04  0.12870856403E+04  0.00000000000E+00 0.  1.
         -4   -1    0    0    0  501 -0.00000000000E+00 -0.00000000000E+00 -0.45273310078E+01  0.47020874146E+01  0.12700000000E+01 0.  1.
         25    2    1    2    0    0  0.22343913946E+02 -0.76792801798E+01  0.96490224909E+03  0.97325169001E+03  0.12499711985E+03 0.  0.
    9000005    1    3    3    0    0  0.22067753067E+02  0.55331836073E+02  0.59967400964E+03  0.60262634828E+03  0.10000000000E+01 0.  0.
    9000005    1    3    3    0    0  0.27616087852E+00 -0.63011116253E+02  0.36522823945E+03  0.37062534172E+03  0.10000000000E+01 0.  0.
         -4    1    1    2    0  502 -0.22343913946E+02  0.76792801798E+01  0.31765606018E+03  0.31853603769E+03  0.12700000000E+01 0. -1.
<mgrwt>
<rscale>  1 0.12721046E+03</rscale>
<asrwt>0</asrwt>
<pdfrwt beam="1">  1       21 0.19801289E+00 0.12721046E+03</pdfrwt>
<pdfrwt beam="2">  1       -4 0.71000449E-03 0.12721046E+03</pdfrwt>
<totfact> 0.28332622E+04</totfact>
</mgrwt>
</event>
<event>
 6    4  0.3189516E-003  0.1420338E+03  0.7818608E-02  0.1210618E+00
         -4   -1    0    0    0  501 -0.00000000000E+00  0.00000000000E+00  0.26217013361E+02  0.26247755896E+02  0.12700000000E+01 0.  1.
         21   -1    0    0  501  502  0.00000000000E+00 -0.00000000000E+00 -0.46469240724E+03  0.46469240724E+03  0.00000000000E+00 0. -1.
         25    2    1    2    0    0 -0.36512154084E+02 -0.56707222315E+02 -0.21642520026E+03  0.25886959662E+03  0.12499901714E+03 0.  0.
    9000005    1    3    3    0    0 -0.53012753843E+02 -0.83473517090E+02 -0.20060775213E+03  0.22365743971E+03  0.10000000000E+01 0.  0.
    9000005    1    3    3    0    0  0.16500599760E+02  0.26766294774E+02 -0.15817448134E+02  0.35212156904E+02  0.10000000000E+01 0.  0.
         -4    1    1    2    0  502  0.36512154084E+02  0.56707222315E+02 -0.22205019361E+03  0.23207056651E+03  0.12700000000E+01 0. -1.
<mgrwt>
<rscale>  1 0.14203380E+03</rscale>
<asrwt>0</asrwt>
<pdfrwt beam="2">  1       21 0.71491135E-01 0.14203380E+03</pdfrwt>
<pdfrwt beam="1">  1       -4 0.40358852E-02 0.14203380E+03</pdfrwt>
<totfact> 0.24555800E+04</totfact>
</mgrwt>
</event>
<event>
 6    4  0.3189516E-003  0.1274670E+03  0.7818608E-02  0.1231263E+00
          4   -1    0    0  502    0 -0.00000000000E+00  0.00000000000E+00  0.23103706047E+02  0.23138585374E+02  0.12700000000E+01 0.  1.
         21   -1    0    0  501  502  0.00000000000E+00 -0.00000000000E+00 -0.31318489237E+03  0.31318489237E+03  0.00000000000E+00 0.  1.
         25    2    1    2    0    0 -0.24362093460E+02 -0.53980951561E+01 -0.16358533462E+03  0.20738370720E+03  0.12500075712E+03 0.  0.
    9000005    1    3    3    0    0 -0.85160331377E+01 -0.57397602401E+02 -0.13274424444E+03  0.14487595388E+03  0.10000000000E+01 0.  0.
    9000005    1    3    3    0    0 -0.15846060323E+02  0.51999507244E+02 -0.30841090180E+02  0.62507753318E+02  0.10000000000E+01 0.  0.
          4    1    1    2  501    0  0.24362093460E+02  0.53980951561E+01 -0.12649585171E+03  0.12893977054E+03  0.12700000000E+01 0. -1.
<mgrwt>
<rscale>  1 0.12746702E+03</rscale>
<asrwt>0</asrwt>
<pdfrwt beam="2">  1       21 0.48182290E-01 0.12746702E+03</pdfrwt>
<pdfrwt beam="1">  1        4 0.35572975E-02 0.12746702E+03</pdfrwt>
<totfact> 0.68468228E+04</totfact>
</mgrwt>
</event>
<event>
 6    4  0.3189516E-003  0.1283281E+03  0.7818608E-02  0.1229958E+00
         21   -1    0    0  501  502  0.00000000000E+00  0.00000000000E+00  0.50920864106E+02  0.50920864106E+02  0.00000000000E+00 0. -1.
         -4   -1    0    0    0  501 -0.00000000000E+00 -0.00000000000E+00 -0.23366092350E+03  0.23366437484E+03  0.12700000000E+01 0.  1.
         25    2    1    2    0    0  0.11912591463E+02 -0.26488039559E+02 -0.20910277092E+03  0.24534072935E+03  0.12499831437E+03 0.  0.
    9000005    1    3    3    0    0 -0.54538950791E+02 -0.51736850758E+01 -0.63481360473E+02  0.83857899438E+02  0.10000000000E+01 0.  0.
    9000005    1    3    3    0    0  0.66451542254E+02 -0.21314354484E+02 -0.14562141044E+03  0.16148282991E+03  0.10000000000E+01 0.  0.
         -4    1    1    2    0  502 -0.11912591463E+02  0.26488039559E+02  0.26362711525E+02  0.39244509603E+02  0.12700000000E+01 0. -1.
<mgrwt>
<rscale>  1 0.12832811E+03</rscale>
<asrwt>0</asrwt>
<pdfrwt beam="1">  1       21 0.78339790E-02 0.12832811E+03</pdfrwt>
<pdfrwt beam="2">  1       -4 0.35949318E-01 0.12832811E+03</pdfrwt>
<totfact> 0.37585441E+04</totfact>
</mgrwt>
</event>
<event>
 6    4  0.3189516E-003  0.1272738E+03  0.7818608E-02  0.1231558E+00
          4   -1    0    0  502    0 -0.00000000000E+00  0.00000000000E+00  0.11775890515E+03  0.11776575326E+03  0.12700000000E+01 0. -1.
         21   -1    0    0  501  502  0.00000000000E+00 -0.00000000000E+00 -0.62437006859E+02  0.62437006859E+02  0.00000000000E+00 0.  1.
         25    2    1    2    0    0  0.30699960617E+01  0.23716309971E+02  0.76277425041E+02  0.14838083001E+03  0.12500694745E+03 0.  0.
    9000005    1    3    3    0    0 -0.95372205284E+01  0.65930742206E+02  0.79806504264E+01  0.67100760983E+02  0.10000000000E+01 0.  0.
    9000005    1    3    3    0    0  0.12607216590E+02 -0.42214432235E+02  0.68296774614E+02  0.81280069032E+02  0.10000000000E+01 0.  0.
          4    1    1    2  501    0 -0.30699960617E+01 -0.23716309971E+02 -0.20955526750E+02  0.31821930108E+02  0.12700000000E+01 0.  1.
<mgrwt>
<rscale>  1 0.12727382E+03</rscale>
<asrwt>0</asrwt>
<pdfrwt beam="2">  1       21 0.96056934E-02 0.12727382E+03</pdfrwt>
<pdfrwt beam="1">  1        4 0.18118275E-01 0.12727382E+03</pdfrwt>
<totfact> 0.93753989E+04</totfact>
</mgrwt>
</event>
<event>
 6    4  0.3189516E-003  0.1269872E+03  0.7818608E-02  0.1231996E+00
         21   -1    0    0  501  502  0.00000000000E+00  0.00000000000E+00  0.41341322936E+03  0.41341322936E+03  0.00000000000E+00 0.  1.
         -4   -1    0    0    0  501 -0.00000000000E+00 -0.00000000000E+00 -0.13708603804E+02  0.13767306137E+02  0.12700000000E+01 0.  1.
         25    2    1    2    0    0 -0.19717819921E+02 -0.10524045280E+02  0.31671440899E+03  0.34122393658E+03  0.12500484024E+03 0.  0.
    9000005    1    3    3    0    0 -0.70292555118E+02  0.76030472202E+01  0.21277064670E+03  0.22421239424E+03  0.10000000000E+01 0.  0.
    9000005    1    3    3    0    0  0.50574735198E+02 -0.18127092501E+02  0.10394376229E+03  0.11701154234E+03  0.10000000000E+01 0.  0.
         -4    1    1    2    0  502  0.19717819921E+02  0.10524045280E+02  0.82990216562E+02  0.85956598912E+02  0.12700000000E+01 0. -1.
<mgrwt>
<rscale>  1 0.12698724E+03</rscale>
<asrwt>0</asrwt>
<pdfrwt beam="1">  1       21 0.63602026E-01 0.12698724E+03</pdfrwt>
<pdfrwt beam="2">  1       -4 0.21136819E-02 0.12698724E+03</pdfrwt>
<totfact> 0.86088255E+04</totfact>
</mgrwt>
</event>
<event>
 6    4  0.3189516E-003  0.1274555E+03  0.7818608E-02  0.1231281E+00
         21   -1    0    0  501  502  0.00000000000E+00  0.00000000000E+00  0.11337124985E+02  0.11337124985E+02  0.00000000000E+00 0. -1.
         -4   -1    0    0    0  501 -0.00000000000E+00 -0.00000000000E+00 -0.77658091768E+03  0.77658195614E+03  0.12700000000E+01 0.  1.
         25    2    1    2    0    0 -0.35586308173E+01 -0.24667403634E+02 -0.74489139297E+03  0.75571694254E+03  0.12499506094E+03 0.  0.
    9000005    1    3    3    0    0  0.14592737907E+02 -0.13510795266E+02 -0.13597024965E+02  0.24111588008E+02  0.10000000000E+01 0.  0.
    9000005    1    3    3    0    0 -0.18151368725E+02 -0.11156608368E+02 -0.73129436801E+03  0.73160535453E+03  0.10000000000E+01 0.  0.
         -4    1    1    2    0  502  0.35586308173E+01  0.24667403634E+02 -0.20352399726E+02  0.32202138593E+02  0.12700000000E+01 0. -1.
<mgrwt>
<rscale>  1 0.12745552E+03</rscale>
<asrwt>0</asrwt>
<pdfrwt beam="1">  1       21 0.17441727E-02 0.12745552E+03</pdfrwt>
<pdfrwt beam="2">  1       -4 0.11947956E+00 0.12745552E+03</pdfrwt>
<totfact> 0.34622562E+04</totfact>
</mgrwt>
</event>
<event>
 6    4  0.3189516E-003  0.1295707E+03  0.7818608E-02  0.1228094E+00
          4   -1    0    0  502    0 -0.00000000000E+00  0.00000000000E+00  0.93824369145E+01  0.94679999184E+01  0.12700000000E+01 0. -1.
         21   -1    0    0  501  502  0.00000000000E+00 -0.00000000000E+00 -0.15060688146E+04  0.15060688146E+04  0.00000000000E+00 0. -1.
         25    2    1    2    0    0  0.34089209223E+02 -0.16646073416E+01 -0.44971977102E+03  0.46801329045E+03  0.12499488985E+03 0.  0.
    9000005    1    3    3    0    0 -0.97453872525E+01  0.52934250089E+02 -0.12982080190E+03  0.14053984492E+03  0.10000000000E+01 0.  0.
    9000005    1    3    3    0    0  0.43834596475E+02 -0.54598857431E+02 -0.31989896912E+03  0.32747344553E+03  0.10000000000E+01 0.  0.
          4    1    1    2  501    0 -0.34089209223E+02  0.16646073416E+01 -0.10469666066E+04  0.10475235240E+04  0.12700000000E+01 0.  1.
<mgrwt>
<rscale>  1 0.12957070E+03</rscale>
<asrwt>0</asrwt>
<pdfrwt beam="2">  1       21 0.23170275E+00 0.12957070E+03</pdfrwt>
<pdfrwt beam="1">  1        4 0.14500757E-02 0.12957070E+03</pdfrwt>
<totfact> 0.60408394E+03</totfact>
</mgrwt>
</event>
<event>
 6    4  0.3189516E-003  0.1270268E+03  0.7818608E-02  0.1231935E+00
         -4   -1    0    0    0  501 -0.00000000000E+00  0.00000000000E+00  0.33627917937E+03  0.33628157751E+03  0.12700000000E+01 0.  1.
         21   -1    0    0  501  502  0.00000000000E+00 -0.00000000000E+00 -0.51753855078E+02  0.51753855078E+02  0.00000000000E+00 0. -1.
         25    2    1    2    0    0 -0.17393305107E+02 -0.14446746410E+02  0.32093389672E+03  0.34515848551E+03  0.12499831402E+03 0.  0.
    9000005    1    3    3    0    0 -0.41501653378E+02  0.44422476315E+02  0.19172976205E+03  0.20113936783E+03  0.10000000000E+01 0.  0.
    9000005    1    3    3    0    0  0.24108348271E+02 -0.58869222725E+02  0.12920413467E+03  0.14401911767E+03  0.10000000000E+01 0.  0.
         -4    1    1    2    0  502  0.17393305107E+02  0.14446746410E+02 -0.36408572434E+02  0.42876947082E+02  0.12700000000E+01 0. -1.
<mgrwt>
<rscale>  1 0.12702682E+03</rscale>
<asrwt>0</asrwt>
<pdfrwt beam="2">  1       21 0.79621318E-02 0.12702682E+03</pdfrwt>
<pdfrwt beam="1">  1       -4 0.51736640E-01 0.12702682E+03</pdfrwt>
<totfact> 0.17699917E+04</totfact>
</mgrwt>
</event>
<event>
 6    4  0.3189516E-003  0.1272210E+03  0.7818608E-02  0.1231638E+00
         21   -1    0    0  501  502  0.00000000000E+00  0.00000000000E+00  0.17826223482E+03  0.17826223482E+03  0.00000000000E+00 0. -1.
          4   -1    0    0  502    0 -0.00000000000E+00 -0.00000000000E+00 -0.38670739189E+02  0.38691587838E+02  0.12700000000E+01 0.  1.
         25    2    1    2    0    0  0.68502274205E+01 -0.22597237294E+02  0.73880172767E+02  0.14711721620E+03  0.12501053806E+03 0.  0.
    9000005    1    3    3    0    0  0.24877883398E+02 -0.71008700635E+02  0.38767536258E+02  0.84646715918E+02  0.10000000000E+01 0.  0.
    9000005    1    3    3    0    0 -0.18027655977E+02  0.48411463341E+02  0.35112636509E+02  0.62470500281E+02  0.10000000000E+01 0.  0.
          4    1    1    2  501    0 -0.68502274205E+01  0.22597237294E+02  0.65711322863E+02  0.69836606457E+02  0.12700000000E+01 0. -1.
<mgrwt>
<rscale>  1 0.12722105E+03</rscale>
<asrwt>0</asrwt>
<pdfrwt beam="1">  1       21 0.27424959E-01 0.12722105E+03</pdfrwt>
<pdfrwt beam="2">  1        4 0.59512963E-02 0.12722105E+03</pdfrwt>
<totfact> 0.91545580E+04</totfact>
</mgrwt>
</event>
<event>
 6    4  0.3189516E-003  0.1379892E+03  0.7818608E-02  0.1216061E+00
         21   -1    0    0  501  502  0.00000000000E+00  0.00000000000E+00  0.28155578379E+02  0.28155578379E+02  0.00000000000E+00 0.  1.
         -4   -1    0    0    0  501 -0.00000000000E+00 -0.00000000000E+00 -0.34603369768E+03  0.34603602822E+03  0.12700000000E+01 0.  1.
         25    2    1    2    0    0 -0.10950664404E+02  0.57422899418E+02 -0.23947044001E+03  0.27638218221E+03  0.12499485020E+03 0.  0.
    9000005    1    3    3    0    0 -0.34601398823E+02  0.64948399421E+02 -0.24051254118E+03  0.25152104057E+03  0.10000000000E+01 0.  0.
    9000005    1    3    3    0    0  0.23650734419E+02 -0.75255000037E+01  0.10421011621E+01  0.24861141641E+02  0.10000000000E+01 0.  0.
         -4    1    1    2    0  502  0.10950664404E+02 -0.57422899418E+02 -0.78407679285E+02  0.97809424389E+02  0.12700000000E+01 0. -1.
<mgrwt>
<rscale>  1 0.13798920E+03</rscale>
<asrwt>0</asrwt>
<pdfrwt beam="1">  1       21 0.43316273E-02 0.13798920E+03</pdfrwt>
<pdfrwt beam="2">  1       -4 0.53238338E-01 0.13798920E+03</pdfrwt>
<totfact> 0.47302042E+04</totfact>
</mgrwt>
</event>
<event>
 6    4  0.3189516E-003  0.1904395E+03  0.7818608E-02  0.1158066E+00
          4   -1    0    0  502    0 -0.00000000000E+00  0.00000000000E+00  0.30912084047E+02  0.30938161551E+02  0.12700000000E+01 0.  1.
         21   -1    0    0  501  502  0.00000000000E+00 -0.00000000000E+00 -0.15449040558E+04  0.15449040558E+04  0.00000000000E+00 0. -1.
         25    2    1    2    0    0 -0.14362629193E+03  0.38636621055E+01 -0.31369972187E+03  0.36698054716E+03  0.12499506741E+03 0.  0.
    9000005    1    3    3    0    0  0.63506579696E+00 -0.15828251770E+02  0.49620856245E+01  0.16630067841E+02  0.10000000000E+01 0.  0.
    9000005    1    3    3    0    0 -0.14426135773E+03  0.19691913876E+02 -0.31866180749E+03  0.35035047932E+03  0.10000000000E+01 0.  0.
          4    1    1    2  501    0  0.14362629193E+03 -0.38636621055E+01 -0.12002922499E+04  0.12088616702E+04  0.12700000000E+01 0. -1.
<mgrwt>
<rscale>  1 0.19043951E+03</rscale>
<asrwt>0</asrwt>
<pdfrwt beam="2">  1       21 0.23767752E+00 0.19043951E+03</pdfrwt>
<pdfrwt beam="1">  1        4 0.47577519E-02 0.19043951E+03</pdfrwt>
<totfact> 0.85783837E+02</totfact>
</mgrwt>
</event>
<event>
 6    4  0.3189516E-003  0.1310747E+03  0.7818608E-02  0.1225870E+00
         21   -1    0    0  501  502  0.00000000000E+00  0.00000000000E+00  0.92545682911E+03  0.92545682911E+03  0.00000000000E+00 0.  1.
          4   -1    0    0  502    0 -0.00000000000E+00 -0.00000000000E+00 -0.19345484954E+02  0.19387126866E+02  0.12700000000E+01 0. -1.
         25    2    1    2    0    0  0.35998624658E+02 -0.16092592980E+02  0.20955857917E+03  0.24717480814E+03  0.12500286057E+03 0.  0.
    9000005    1    3    3    0    0 -0.13648382110E+02 -0.30699027216E+02  0.24546372960E+01  0.33700650594E+02  0.10000000000E+01 0.  0.
    9000005    1    3    3    0    0  0.49647006768E+02  0.14606434236E+02  0.20710394187E+03  0.21347415755E+03  0.10000000000E+01 0.  0.
          4    1    1    2  501    0 -0.35998624658E+02  0.16092592980E+02  0.69655276499E+03  0.69766914784E+03  0.12700000000E+01 0.  1.
<mgrwt>
<rscale>  1 0.13107474E+03</rscale>
<asrwt>0</asrwt>
<pdfrwt beam="1">  1       21 0.14237794E+00 0.13107474E+03</pdfrwt>
<pdfrwt beam="2">  1        4 0.29794994E-02 0.13107474E+03</pdfrwt>
<totfact> 0.77771913E+03</totfact>
</mgrwt>
</event>
<event>
 6    4  0.3189516E-003  0.1365245E+03  0.7818608E-02  0.1218084E+00
          4   -1    0    0  502    0 -0.00000000000E+00  0.00000000000E+00  0.47555493059E+02  0.47572448120E+02  0.12700000000E+01 0.  1.
         21   -1    0    0  501  502  0.00000000000E+00 -0.00000000000E+00 -0.22975722278E+03  0.22975722278E+03  0.00000000000E+00 0. -1.
         25    2    1    2    0    0  0.51748379626E+02 -0.18327662072E+02 -0.72333151477E+02  0.15450249404E+03  0.12500055148E+03 0.  0.
    9000005    1    3    3    0    0  0.84824587377E+02  0.18303782656E+02 -0.40535453161E+02  0.95782890154E+02  0.10000000000E+01 0.  0.
    9000005    1    3    3    0    0 -0.33076207751E+02 -0.36631444728E+02 -0.31797698316E+02  0.58719603883E+02  0.10000000000E+01 0.  0.
          4    1    1    2  501    0 -0.51748379626E+02  0.18327662072E+02 -0.10986857824E+03  0.12282717686E+03  0.12700000000E+01 0. -1.
<mgrwt>
<rscale>  1 0.13652449E+03</rscale>
<asrwt>0</asrwt>
<pdfrwt beam="2">  1       21 0.35347264E-01 0.13652449E+03</pdfrwt>
<pdfrwt beam="1">  1        4 0.73178041E-02 0.13652449E+03</pdfrwt>
<totfact> 0.40262479E+04</totfact>
</mgrwt>
</event>
<event>
 6    4  0.3189516E-003  0.1293955E+03  0.7818608E-02  0.1228356E+00
         21   -1    0    0  501  502  0.00000000000E+00  0.00000000000E+00  0.85650751017E+01  0.85650751017E+01  0.00000000000E+00 0.  1.
         -4   -1    0    0    0  501 -0.00000000000E+00 -0.00000000000E+00 -0.95225333322E+03  0.95225418011E+03  0.12700000000E+01 0. -1.
         25    2    1    2    0    0 -0.26968455416E+02  0.19779712113E+02 -0.87381974293E+03  0.88334824829E+03  0.12499860006E+03 0.  0.
    9000005    1    3    3    0    0 -0.58520113185E+02  0.14826201850E+01 -0.78697797160E+03  0.78915279229E+03  0.10000000000E+01 0.  0.
    9000005    1    3    3    0    0  0.31551657769E+02  0.18297091928E+02 -0.86841771336E+02  0.94195455994E+02  0.10000000000E+01 0.  0.
         -4    1    1    2    0  502  0.26968455416E+02 -0.19779712113E+02 -0.69868515191E+02  0.77471006924E+02  0.12700000000E+01 0.  1.
<mgrwt>
<rscale>  1 0.12939546E+03</rscale>
<asrwt>0</asrwt>
<pdfrwt beam="1">  1       21 0.13177039E-02 0.12939546E+03</pdfrwt>
<pdfrwt beam="2">  1       -4 0.14650782E+00 0.12939546E+03</pdfrwt>
<totfact> 0.32877408E+04</totfact>
</mgrwt>
</event>
<event>
 6    4  0.3189516E-003  0.1320794E+03  0.7818608E-02  0.1224403E+00
         21   -1    0    0  501  502  0.00000000000E+00  0.00000000000E+00  0.29860035697E+03  0.29860035697E+03  0.00000000000E+00 0.  1.
         -4   -1    0    0    0  501 -0.00000000000E+00 -0.00000000000E+00 -0.39997747534E+02  0.40017904840E+02  0.12700000000E+01 0. -1.
         25    2    1    2    0    0  0.41832787980E+02 -0.85226427604E+01  0.78772802518E+02  0.15378593253E+03  0.12498936370E+03 0.  0.
    9000005    1    3    3    0    0 -0.23626187951E+02  0.31160435923E+02 -0.59858753890E+01  0.39572720758E+02  0.10000000000E+01 0.  0.
    9000005    1    3    3    0    0  0.65458975931E+02 -0.39683078683E+02  0.84758677907E+02  0.11421321178E+03  0.10000000000E+01 0.  0.
         -4    1    1    2    0  502 -0.41832787980E+02  0.85226427604E+01  0.17982980692E+03  0.18483232928E+03  0.12700000000E+01 0.  1.
<mgrwt>
<rscale>  1 0.13207936E+03</rscale>
<asrwt>0</asrwt>
<pdfrwt beam="1">  1       21 0.45938515E-01 0.13207936E+03</pdfrwt>
<pdfrwt beam="2">  1       -4 0.61552581E-02 0.13207936E+03</pdfrwt>
<totfact> 0.31504522E+04</totfact>
</mgrwt>
</event>
<event>
 6    4  0.3189516E-003  0.1269449E+03  0.7818608E-02  0.1232061E+00
          4   -1    0    0  502    0 -0.00000000000E+00  0.00000000000E+00  0.39375227336E+02  0.39395703163E+02  0.12700000000E+01 0.  1.
         21   -1    0    0  501  502  0.00000000000E+00 -0.00000000000E+00 -0.17324257876E+03  0.17324257876E+03  0.00000000000E+00 0.  1.
         25    2    1    2    0    0 -0.33955806924E+01  0.21886910146E+02 -0.69865873857E+02  0.14490078245E+03  0.12499771846E+03 0.  0.
    9000005    1    3    3    0    0  0.43214129428E+02  0.50277624540E+02 -0.60019331353E+02  0.89435007953E+02  0.10000000000E+01 0.  0.
    9000005    1    3    3    0    0 -0.46609710120E+02 -0.28390714394E+02 -0.98465425038E+01  0.55465774497E+02  0.10000000000E+01 0.  0.
          4    1    1    2  501    0  0.33955806924E+01 -0.21886910146E+02 -0.64001477568E+02  0.67737499473E+02  0.12700000000E+01 0. -1.
<mgrwt>
<rscale>  1 0.12694486E+03</rscale>
<asrwt>0</asrwt>
<pdfrwt beam="2">  1       21 0.26652704E-01 0.12694486E+03</pdfrwt>
<pdfrwt beam="1">  1        4 0.60596605E-02 0.12694486E+03</pdfrwt>
<totfact> 0.93848101E+04</totfact>
</mgrwt>
</event>
<event>
 6    4  0.3189516E-003  0.1278505E+03  0.7818608E-02  0.1230680E+00
         -4   -1    0    0    0  501 -0.00000000000E+00  0.00000000000E+00  0.12644249565E+04  0.12644255943E+04  0.12700000000E+01 0.  1.
         21   -1    0    0  501  502  0.00000000000E+00 -0.00000000000E+00 -0.19818482273E+02  0.19818482273E+02  0.00000000000E+00 0. -1.
         25    2    1    2    0    0  0.25286890491E+02  0.89970524690E+01  0.12502649958E+04  0.12567849151E+04  0.12500155688E+03 0.  0.
    9000005    1    3    3    0    0  0.25661628182E+02 -0.25584249483E+02  0.11526518532E+04  0.11532217339E+04  0.10000000000E+01 0.  0.
    9000005    1    3    3    0    0 -0.37473769128E+00  0.34581301952E+02  0.97613142629E+02  0.10356318114E+03  0.10000000000E+01 0.  0.
         -4    1    1    2    0  502 -0.25286890491E+02 -0.89970524690E+01 -0.56585215816E+01  0.27459161501E+02  0.12700000000E+01 0. -1.
<mgrwt>
<rscale>  1 0.12785055E+03</rscale>
<asrwt>0</asrwt>
<pdfrwt beam="2">  1       21 0.30489983E-02 0.12785055E+03</pdfrwt>
<pdfrwt beam="1">  1       -4 0.19453003E+00 0.12785055E+03</pdfrwt>
<totfact> 0.39932863E+03</totfact>
</mgrwt>
</event>
<event>
 6    4  0.3189516E-003  0.1295321E+03  0.7818608E-02  0.1228152E+00
         -4   -1    0    0    0  501 -0.00000000000E+00  0.00000000000E+00  0.18112609450E+03  0.18113054687E+03  0.12700000000E+01 0. -1.
         21   -1    0    0  501  502  0.00000000000E+00 -0.00000000000E+00 -0.84148415326E+02  0.84148415326E+02  0.00000000000E+00 0.  1.
         25    2    1    2    0    0  0.14619109625E+02  0.30668231469E+02  0.15255411645E+03  0.20012827481E+03  0.12499723654E+03 0.  0.
    9000005    1    3    3    0    0  0.43945209932E+01 -0.47780941380E+02  0.39602256638E+02  0.62222736236E+02  0.10000000000E+01 0.  0.
    9000005    1    3    3    0    0  0.10224588632E+02  0.78449172848E+02  0.11295185981E+03  0.13790553857E+03  0.10000000000E+01 0.  0.
         -4    1    1    2    0  502 -0.14619109625E+02 -0.30668231469E+02 -0.55576437273E+02  0.65150687392E+02  0.12700000000E+01 0.  1.
<mgrwt>
<rscale>  1 0.12953211E+03</rscale>
<asrwt>0</asrwt>
<pdfrwt beam="2">  1       21 0.12945910E-01 0.12953211E+03</pdfrwt>
<pdfrwt beam="1">  1       -4 0.27866632E-01 0.12953211E+03</pdfrwt>
<totfact> 0.25349022E+04</totfact>
</mgrwt>
</event>
<event>
 6    4  0.3189516E-003  0.1282955E+03  0.7818608E-02  0.1230007E+00
         -4   -1    0    0    0  501 -0.00000000000E+00  0.00000000000E+00  0.19284237430E+02  0.19326011313E+02  0.12700000000E+01 0. -1.
         21   -1    0    0  501  502  0.00000000000E+00 -0.00000000000E+00 -0.32787592289E+03  0.32787592289E+03  0.00000000000E+00 0. -1.
         25    2    1    2    0    0 -0.15533066300E+02 -0.24398499553E+02 -0.22872186051E+03  0.26224685921E+03  0.12499265083E+03 0.  0.
    9000005    1    3    3    0    0 -0.23624703005E+02 -0.49072751943E+01  0.73406939955E+01  0.25240715724E+02  0.10000000000E+01 0.  0.
    9000005    1    3    3    0    0  0.80916367046E+01 -0.19491224359E+02 -0.23606255450E+03  0.23700614349E+03  0.10000000000E+01 0.  0.
         -4    1    1    2    0  502  0.15533066300E+02  0.24398499553E+02 -0.79869824948E+02  0.84955074989E+02  0.12700000000E+01 0.  1.
<mgrwt>
<rscale>  1 0.12829546E+03</rscale>
<asrwt>0</asrwt>
<pdfrwt beam="2">  1       21 0.50442448E-01 0.12829546E+03</pdfrwt>
<pdfrwt beam="1">  1       -4 0.29702084E-02 0.12829546E+03</pdfrwt>
<totfact> 0.82768621E+04</totfact>
</mgrwt>
</event>
<event>
 6    4  0.3189516E-003  0.1272116E+03  0.7818608E-02  0.1231653E+00
         21   -1    0    0  501  502  0.00000000000E+00  0.00000000000E+00  0.51394334650E+02  0.51394334650E+02  0.00000000000E+00 0.  1.
         -4   -1    0    0    0  501 -0.00000000000E+00 -0.00000000000E+00 -0.21957780942E+03  0.21958148212E+03  0.12700000000E+01 0. -1.
         25    2    1    2    0    0  0.21741108391E+02 -0.92279483951E+01 -0.19649816617E+03  0.23408184063E+03  0.12499979192E+03 0.  0.
    9000005    1    3    3    0    0  0.77616886932E+01  0.40076753627E+01 -0.21023010694E+03  0.21041388532E+03  0.10000000000E+01 0.  0.
    9000005    1    3    3    0    0  0.13979419698E+02 -0.13235623758E+02  0.13731940766E+02  0.23667955310E+02  0.10000000000E+01 0.  0.
         -4    1    1    2    0  502 -0.21741108391E+02  0.92279483951E+01  0.28314691405E+02  0.36893976135E+02  0.12700000000E+01 0.  1.
<mgrwt>
<rscale>  1 0.12721155E+03</rscale>
<asrwt>0</asrwt>
<pdfrwt beam="1">  1       21 0.79068208E-02 0.12721155E+03</pdfrwt>
<pdfrwt beam="2">  1       -4 0.33782691E-01 0.12721155E+03</pdfrwt>
<totfact> 0.41651319E+04</totfact>
</mgrwt>
</event>
<event>
 6    4  0.3189516E-003  0.1269701E+03  0.7818608E-02  0.1232022E+00
         -4   -1    0    0    0  501 -0.00000000000E+00  0.00000000000E+00  0.27038348522E+03  0.27038646782E+03  0.12700000000E+01 0.  1.
         21   -1    0    0  501  502  0.00000000000E+00 -0.00000000000E+00 -0.31735354441E+02  0.31735354441E+02  0.00000000000E+00 0.  1.
         25    2    1    2    0    0  0.38881063622E+01 -0.21948891487E+02  0.24744905188E+03  0.27812306561E+03  0.12499814055E+03 0.  0.
    9000005    1    3    3    0    0 -0.12567525355E+01  0.51787413195E+02  0.83333015927E+02  0.98126994939E+02  0.10000000000E+01 0.  0.
    9000005    1    3    3    0    0  0.51448588977E+01 -0.73736304682E+02  0.16411603595E+03  0.17999607067E+03  0.10000000000E+01 0.  0.
         -4    1    1    2    0  502 -0.38881063622E+01  0.21948891487E+02 -0.88009210975E+01  0.23998756651E+02  0.12700000000E+01 0. -1.
<mgrwt>
<rscale>  1 0.12697010E+03</rscale>
<asrwt>0</asrwt>
<pdfrwt beam="2">  1       21 0.48823624E-02 0.12697010E+03</pdfrwt>
<pdfrwt beam="1">  1       -4 0.41599642E-01 0.12697010E+03</pdfrwt>
<totfact> 0.62984268E+04</totfact>
</mgrwt>
</event>
<event>
 6    4  0.3189516E-003  0.1294336E+03  0.7818608E-02  0.1228299E+00
         21   -1    0    0  501  502  0.00000000000E+00  0.00000000000E+00  0.15432881349E+02  0.15432881349E+02  0.00000000000E+00 0.  1.
         -4   -1    0    0    0  501 -0.00000000000E+00 -0.00000000000E+00 -0.64865492147E+03  0.64865616473E+03  0.12700000000E+01 0. -1.
         25    2    1    2    0    0 -0.29246457276E+02  0.16501546412E+02 -0.60915724240E+03  0.62275644773E+03  0.12500156370E+03 0.  0.
    9000005    1    3    3    0    0 -0.39695207657E+01 -0.31484135739E+02 -0.40230010112E+02  0.51249015717E+02  0.10000000000E+01 0.  0.
    9000005    1    3    3    0    0 -0.25276936510E+02  0.47985682151E+02 -0.56892723228E+03  0.57150743201E+03  0.10000000000E+01 0.  0.
         -4    1    1    2    0  502  0.29246457276E+02 -0.16501546412E+02 -0.24064797725E+02  0.41332598354E+02  0.12700000000E+01 0.  1.
<mgrwt>
<rscale>  1 0.12943356E+03</rscale>
<asrwt>0</asrwt>
<pdfrwt beam="1">  1       21 0.23742891E-02 0.12943356E+03</pdfrwt>
<pdfrwt beam="2">  1       -4 0.99797194E-01 0.12943356E+03</pdfrwt>
<totfact> 0.32190007E+04</totfact>
</mgrwt>
</event>
<event>
 6    4  0.3189516E-003  0.1514698E+03  0.7818608E-02  0.1198678E+00
         -4   -1    0    0    0  501 -0.00000000000E+00  0.00000000000E+00  0.16183594665E+02  0.16233349509E+02  0.12700000000E+01 0. -1.
         21   -1    0    0  501  502  0.00000000000E+00 -0.00000000000E+00 -0.11077765735E+04  0.11077765735E+04  0.00000000000E+00 0. -1.
         25    2    1    2    0    0  0.33234680564E+02 -0.78825151770E+02 -0.41030103895E+03  0.43736717107E+03  0.12500060488E+03 0.  0.
    9000005    1    3    3    0    0  0.64244360256E+02 -0.90724745324E+02 -0.24918086823E+03  0.27285604690E+03  0.10000000000E+01 0.  0.
    9000005    1    3    3    0    0 -0.31009679692E+02  0.11899593553E+02 -0.16112017072E+03  0.16451112416E+03  0.10000000000E+01 0.  0.
         -4    1    1    2    0  502 -0.33234680564E+02  0.78825151770E+02 -0.68129193991E+03  0.68664275197E+03  0.12700000000E+01 0.  1.
<mgrwt>
<rscale>  1 0.15146980E+03</rscale>
<asrwt>0</asrwt>
<pdfrwt beam="2">  1       21 0.17042718E+00 0.15146980E+03</pdfrwt>
<pdfrwt beam="1">  1       -4 0.24936668E-02 0.15146980E+03</pdfrwt>
<totfact> 0.64230959E+03</totfact>
</mgrwt>
</event>
<event>
 6    4  0.3189516E-003  0.1780821E+03  0.7818608E-02  0.1169672E+00
          4   -1    0    0  502    0 -0.00000000000E+00  0.00000000000E+00  0.28055387728E+02  0.28084117942E+02  0.12700000000E+01 0.  1.
         21   -1    0    0  501  502  0.00000000000E+00 -0.00000000000E+00 -0.82818085408E+03  0.82818085408E+03  0.00000000000E+00 0. -1.
         25    2    1    2    0    0 -0.12100785882E+03  0.38012686997E+02 -0.46317114786E+03  0.49622651308E+03  0.12500149520E+03 0.  0.
    9000005    1    3    3    0    0 -0.39935404144E+02  0.54257781450E+02 -0.34789511398E+03  0.35435963890E+03  0.10000000000E+01 0.  0.
    9000005    1    3    3    0    0 -0.81072454676E+02 -0.16245094453E+02 -0.11527603388E+03  0.14186687418E+03  0.10000000000E+01 0.  0.
          4    1    1    2  501    0  0.12100785882E+03 -0.38012686997E+02 -0.33695431849E+03  0.36003845894E+03  0.12700000000E+01 0. -1.
<mgrwt>
<rscale>  1 0.17808212E+03</rscale>
<asrwt>0</asrwt>
<pdfrwt beam="2">  1       21 0.12741244E+00 0.17808212E+03</pdfrwt>
<pdfrwt beam="1">  1        4 0.43184985E-02 0.17808212E+03</pdfrwt>
<totfact> 0.57820510E+03</totfact>
</mgrwt>
</event>
<event>
 6    4  0.3189516E-003  0.1273413E+03  0.7818608E-02  0.1231455E+00
         21   -1    0    0  501  502  0.00000000000E+00  0.00000000000E+00  0.13960523990E+03  0.13960523990E+03  0.00000000000E+00 0. -1.
         -4   -1    0    0    0  501 -0.00000000000E+00 -0.00000000000E+00 -0.18260799984E+03  0.18261241608E+03  0.12700000000E+01 0.  1.
         25    2    1    2    0    0 -0.13412855816E+02  0.20261614321E+02 -0.15899329617E+03  0.20370244551E+03  0.12500152144E+03 0.  0.
    9000005    1    3    3    0    0  0.13826352812E+02  0.51611624273E+02 -0.17494693181E+02  0.56231593270E+02  0.10000000000E+01 0.  0.
    9000005    1    3    3    0    0 -0.27239208628E+02 -0.31350009952E+02 -0.14149860299E+03  0.14747085224E+03  0.10000000000E+01 0.  0.
         -4    1    1    2    0  502  0.13412855816E+02 -0.20261614321E+02  0.11599053623E+03  0.11851521046E+03  0.12700000000E+01 0. -1.
<mgrwt>
<rscale>  1 0.12734134E+03</rscale>
<asrwt>0</asrwt>
<pdfrwt beam="1">  1       21 0.21477729E-01 0.12734134E+03</pdfrwt>
<pdfrwt beam="2">  1       -4 0.28094323E-01 0.12734134E+03</pdfrwt>
<totfact> 0.99217611E+03</totfact>
</mgrwt>
</event>
<event>
 6    4  0.3189516E-003  0.1273153E+03  0.7818608E-02  0.1231495E+00
         21   -1    0    0  501  502  0.00000000000E+00  0.00000000000E+00  0.41698904892E+03  0.41698904892E+03  0.00000000000E+00 0. -1.
         -4   -1    0    0    0  501 -0.00000000000E+00 -0.00000000000E+00 -0.17436215057E+02  0.17482405312E+02  0.12700000000E+01 0. -1.
         25    2    1    2    0    0  0.23358050624E+02  0.61883037736E+01  0.22729948399E+03  0.26052685652E+03  0.12500117564E+03 0.  0.
    9000005    1    3    3    0    0  0.18802111725E+02 -0.58746904392E+02  0.12239928805E+03  0.13706678626E+03  0.10000000000E+01 0.  0.
    9000005    1    3    3    0    0  0.45559388990E+01  0.64935208166E+02  0.10490019595E+03  0.12346007026E+03  0.10000000000E+01 0.  0.
         -4    1    1    2    0  502 -0.23358050624E+02 -0.61883037736E+01  0.17225334987E+03  0.17394459772E+03  0.12700000000E+01 0.  1.
<mgrwt>
<rscale>  1 0.12731531E+03</rscale>
<asrwt>0</asrwt>
<pdfrwt beam="1">  1       21 0.64152154E-01 0.12731531E+03</pdfrwt>
<pdfrwt beam="2">  1       -4 0.26861968E-02 0.12731531E+03</pdfrwt>
<totfact> 0.58317029E+04</totfact>
</mgrwt>
</event>
<event>
 6    4  0.3189516E-003  0.1314066E+03  0.7818608E-02  0.1225383E+00
         21   -1    0    0  501  502  0.00000000000E+00  0.00000000000E+00  0.54158207584E+03  0.54158207584E+03  0.00000000000E+00 0.  1.
         -4   -1    0    0    0  501 -0.00000000000E+00 -0.00000000000E+00 -0.69368370364E+02  0.69379995006E+02  0.12700000000E+01 0. -1.
         25    2    1    2    0    0 -0.20949491193E+02  0.34704862635E+02 -0.55078520299E+01  0.13152197232E+03  0.12499753636E+03 0.  0.
    9000005    1    3    3    0    0  0.12061543811E+02  0.64892114596E+02  0.31793986766E+02  0.73268854026E+02  0.10000000000E+01 0.  0.
    9000005    1    3    3    0    0 -0.33011035004E+02 -0.30187251961E+02 -0.37301838796E+02  0.58253118290E+02  0.10000000000E+01 0.  0.
         -4    1    1    2    0  502  0.20949491193E+02 -0.34704862635E+02  0.47772155750E+03  0.47944009853E+03  0.12700000000E+01 0.  1.
<mgrwt>
<rscale>  1 0.13140659E+03</rscale>
<asrwt>0</asrwt>
<pdfrwt beam="1">  1       21 0.83320317E-01 0.13140659E+03</pdfrwt>
<pdfrwt beam="2">  1       -4 0.10673066E-01 0.13140659E+03</pdfrwt>
<totfact> 0.35380119E+03</totfact>
</mgrwt>
</event>
<event>
 6    4  0.3189516E-003  0.1336340E+03  0.7818608E-02  0.1222161E+00
         -4   -1    0    0    0  501 -0.00000000000E+00  0.00000000000E+00  0.11283564065E+03  0.11284278755E+03  0.12700000000E+01 0.  1.
         21   -1    0    0  501  502  0.00000000000E+00 -0.00000000000E+00 -0.38608579354E+03  0.38608579354E+03  0.00000000000E+00 0. -1.
         25    2    1    2    0    0 -0.44034137048E+02  0.17168065924E+02  0.71083954082E+02  0.15136371256E+03  0.12499718893E+03 0.  0.
    9000005    1    3    3    0    0  0.35710931496E+02  0.37021417858E+02  0.27075871328E+02  0.58137413227E+02  0.10000000000E+01 0.  0.
    9000005    1    3    3    0    0 -0.79745068544E+02 -0.19853351933E+02  0.44008082754E+02  0.93226299336E+02  0.10000000000E+01 0.  0.
         -4    1    1    2    0  502  0.44034137048E+02 -0.17168065924E+02 -0.34433410697E+03  0.34756486852E+03  0.12700000000E+01 0. -1.
<mgrwt>
<rscale>  1 0.13363400E+03</rscale>
<asrwt>0</asrwt>
<pdfrwt beam="2">  1       21 0.59397814E-01 0.13363400E+03</pdfrwt>
<pdfrwt beam="1">  1       -4 0.17360040E-01 0.13363400E+03</pdfrwt>
<totfact> 0.31973462E+03</totfact>
</mgrwt>
</event>
<event>
 6    4  0.3189516E-003  0.1378093E+03  0.7818608E-02  0.1216307E+00
         21   -1    0    0  501  502  0.00000000000E+00  0.00000000000E+00  0.22320445281E+03  0.22320445281E+03  0.00000000000E+00 0. -1.
         -4   -1    0    0    0  501 -0.00000000000E+00 -0.00000000000E+00 -0.18656183008E+03  0.18656615272E+03  0.12700000000E+01 0.  1.
         25    2    1    2    0    0  0.19434972163E+02 -0.54660241930E+02 -0.15624960365E+03  0.20833951536E+03  0.12500381927E+03 0.  0.
    9000005    1    3    3    0    0 -0.11178716989E+02 -0.23537152329E+02  0.16031816650E+02  0.30610135550E+02  0.10000000000E+01 0.  0.
    9000005    1    3    3    0    0  0.30613689153E+02 -0.31123089601E+02 -0.17228142029E+03  0.17772937981E+03  0.10000000000E+01 0.  0.
         -4    1    1    2    0  502 -0.19434972163E+02  0.54660241930E+02  0.19289222638E+03  0.20143109017E+03  0.12700000000E+01 0. -1.
<mgrwt>
<rscale>  1 0.13780934E+03</rscale>
<asrwt>0</asrwt>
<pdfrwt beam="1">  1       21 0.34339147E-01 0.13780934E+03</pdfrwt>
<pdfrwt beam="2">  1       -4 0.28702430E-01 0.13780934E+03</pdfrwt>
<totfact> 0.39120295E+03</totfact>
</mgrwt>
</event>
<event>
 6    4  0.3189516E-003  0.1322288E+03  0.7818608E-02  0.1224186E+00
         -4   -1    0    0    0  501 -0.00000000000E+00  0.00000000000E+00  0.39503293513E+02  0.39523702994E+02  0.12700000000E+01 0.  1.
         21   -1    0    0  501  502  0.00000000000E+00 -0.00000000000E+00 -0.19906143527E+03  0.19906143527E+03  0.00000000000E+00 0.  1.
         25    2    1    2    0    0 -0.26871810336E+02 -0.33695271139E+02 -0.10381762217E+03  0.16811469118E+03  0.12500794067E+03 0.  0.
    9000005    1    3    3    0    0  0.35646703747E+02 -0.37771429483E+02 -0.64737758000E+01  0.52347666102E+02  0.10000000000E+01 0.  0.
    9000005    1    3    3    0    0 -0.62518514083E+02  0.40761583447E+01 -0.97343846371E+02  0.11576702508E+03  0.10000000000E+01 0.  0.
         -4    1    1    2    0  502  0.26871810336E+02  0.33695271139E+02 -0.55740519582E+02  0.70470447076E+02  0.12700000000E+01 0. -1.
<mgrwt>
<rscale>  1 0.13222878E+03</rscale>
<asrwt>0</asrwt>
<pdfrwt beam="2">  1       21 0.30624836E-01 0.13222878E+03</pdfrwt>
<pdfrwt beam="1">  1       -4 0.60793114E-02 0.13222878E+03</pdfrwt>
<totfact> 0.71891112E+04</totfact>
</mgrwt>
</event>
<event>
 6    4  0.3189516E-003  0.1376317E+03  0.7818608E-02  0.1216552E+00
         21   -1    0    0  501  502  0.00000000000E+00  0.00000000000E+00  0.11765933357E+03  0.11765933357E+03  0.00000000000E+00 0.  1.
         -4   -1    0    0    0  501 -0.00000000000E+00 -0.00000000000E+00 -0.81450824551E+02  0.81460725016E+02  0.12700000000E+01 0. -1.
         25    2    1    2    0    0  0.29948911779E+02  0.49179044904E+02  0.32435853933E+02  0.14140210990E+03  0.12500782491E+03 0.  0.
    9000005    1    3    3    0    0 -0.39680986583E+02  0.56839184633E+01 -0.19150341844E+02  0.44436732756E+02  0.10000000000E+01 0.  0.
    9000005    1    3    3    0    0  0.69629898362E+02  0.43495126441E+02  0.51586195778E+02  0.96965377145E+02  0.10000000000E+01 0.  0.
         -4    1    1    2    0  502 -0.29948911779E+02 -0.49179044904E+02  0.37726550895E+01  0.57717948689E+02  0.12700000000E+01 0.  1.
<mgrwt>
<rscale>  1 0.13763165E+03</rscale>
<asrwt>0</asrwt>
<pdfrwt beam="1">  1       21 0.18101436E-01 0.13763165E+03</pdfrwt>
<pdfrwt beam="2">  1       -4 0.12532185E-01 0.13763165E+03</pdfrwt>
<totfact> 0.58115487E+04</totfact>
</mgrwt>
</event>
<event>
 6    4  0.3189516E-003  0.1270110E+03  0.7818608E-02  0.1231959E+00
         21   -1    0    0  501  502  0.00000000000E+00  0.00000000000E+00  0.16771696216E+04  0.16771696216E+04  0.00000000000E+00 0.  1.
         -4   -1    0    0    0  501 -0.00000000000E+00 -0.00000000000E+00 -0.35471826574E+01  0.37676789679E+01  0.12700000000E+01 0.  1.
         25    2    1    2    0    0 -0.21873173346E+02 -0.53441025254E+01  0.15558077488E+04  0.15609835209E+04  0.12499922456E+03 0.  0.
    9000005    1    3    3    0    0  0.10180351844E+02  0.54761793628E+02  0.87637468472E+03  0.87814354273E+03  0.10000000000E+01 0.  0.
    9000005    1    3    3    0    0 -0.32053525191E+02 -0.60105896154E+02  0.67943306411E+03  0.68283997820E+03  0.10000000000E+01 0.  0.
         -4    1    1    2    0  502  0.21873173346E+02  0.53441025254E+01  0.11781469014E+03  0.11995377967E+03  0.12700000000E+01 0. -1.
<mgrwt>
<rscale>  1 0.12701103E+03</rscale>
<asrwt>0</asrwt>
<pdfrwt beam="1">  1       21 0.25802548E+00 0.12701103E+03</pdfrwt>
<pdfrwt beam="2">  1       -4 0.56271999E-03 0.12701103E+03</pdfrwt>
<totfact> 0.17611120E+04</totfact>
</mgrwt>
</event>
<event>
 6    4  0.3189516E-003  0.1300799E+03  0.7818608E-02  0.1227337E+00
         21   -1    0    0  501  502  0.00000000000E+00  0.00000000000E+00  0.13082946206E+03  0.13082946206E+03  0.00000000000E+00 0.  1.
          4   -1    0    0  502    0 -0.00000000000E+00 -0.00000000000E+00 -0.57015327174E+02  0.57029469862E+02  0.12700000000E+01 0.  1.
         25    2    1    2    0    0 -0.17933741658E+02  0.31231654729E+02  0.77851134176E+02  0.15159675314E+03  0.12499496439E+03 0.  0.
    9000005    1    3    3    0    0 -0.20632780197E+02 -0.65603008189E+01  0.10355674818E+03  0.10580051635E+03  0.10000000000E+01 0.  0.
    9000005    1    3    3    0    0  0.26990385390E+01  0.37791955547E+02 -0.25705614004E+02  0.45796236793E+02  0.10000000000E+01 0.  0.
          4    1    1    2  501    0  0.17933741658E+02 -0.31231654729E+02 -0.40369992889E+01  0.36262178784E+02  0.12700000000E+01 0. -1.
<mgrwt>
<rscale>  1 0.13007988E+03</rscale>
<asrwt>0</asrwt>
<pdfrwt beam="1">  1       21 0.20127609E-01 0.13007988E+03</pdfrwt>
<pdfrwt beam="2">  1        4 0.87731509E-02 0.13007988E+03</pdfrwt>
<totfact> 0.86747399E+04</totfact>
</mgrwt>
</event>
<event>
 6    4  0.3189516E-003  0.1268719E+03  0.7818608E-02  0.1232173E+00
         -4   -1    0    0    0  501 -0.00000000000E+00  0.00000000000E+00  0.40998473450E+03  0.40998670152E+03  0.12700000000E+01 0.  1.
         21   -1    0    0  501  502  0.00000000000E+00 -0.00000000000E+00 -0.10875226051E+03  0.10875226051E+03  0.00000000000E+00 0. -1.
         25    2    1    2    0    0 -0.12469478461E+02  0.17771451062E+02  0.39894640510E+03  0.41863432877E+03  0.12500061888E+03 0.  0.
    9000005    1    3    3    0    0 -0.25802639949E+02  0.66217098524E+02  0.29112866956E+03  0.29967879906E+03  0.10000000000E+01 0.  0.
    9000005    1    3    3    0    0  0.13333161487E+02 -0.48445647462E+02  0.10781773554E+03  0.11895552972E+03  0.10000000000E+01 0.  0.
         -4    1    1    2    0  502  0.12469478461E+02 -0.17771451062E+02 -0.97713931108E+02  0.10010463325E+03  0.12700000000E+01 0. -1.
<mgrwt>
<rscale>  1 0.12687185E+03</rscale>
<asrwt>0</asrwt>
<pdfrwt beam="2">  1       21 0.16731117E-01 0.12687185E+03</pdfrwt>
<pdfrwt beam="1">  1       -4 0.63075295E-01 0.12687185E+03</pdfrwt>
<totfact> 0.31543208E+03</totfact>
</mgrwt>
</event>
<event>
 6    4  0.3189516E-003  0.1301497E+03  0.7818608E-02  0.1227234E+00
         -4   -1    0    0    0  501 -0.00000000000E+00  0.00000000000E+00  0.61795224651E+02  0.61808273634E+02  0.12700000000E+01 0. -1.
         21   -1    0    0  501  502  0.00000000000E+00 -0.00000000000E+00 -0.58933592003E+03  0.58933592003E+03  0.00000000000E+00 0.  1.
         25    2    1    2    0    0 -0.21640535278E+02  0.29081210613E+02 -0.80603008174E+01  0.13039903256E+03  0.12499963866E+03 0.  0.
    9000005    1    3    3    0    0  0.22157812852E+02 -0.12515439948E+01 -0.55043925870E+02  0.59357971730E+02  0.10000000000E+01 0.  0.
    9000005    1    3    3    0    0 -0.43798348130E+02  0.30332754608E+02  0.46983625052E+02  0.71041060832E+02  0.10000000000E+01 0.  0.
         -4    1    1    2    0  502  0.21640535278E+02 -0.29081210613E+02 -0.51948039456E+03  0.52074516110E+03  0.12700000000E+01 0.  1.
<mgrwt>
<rscale>  1 0.13014968E+03</rscale>
<asrwt>0</asrwt>
<pdfrwt beam="2">  1       21 0.90667068E-01 0.13014968E+03</pdfrwt>
<pdfrwt beam="1">  1       -4 0.95080663E-02 0.13014968E+03</pdfrwt>
<totfact> 0.35462616E+03</totfact>
</mgrwt>
</event>
<event>
 6    4  0.3189516E-003  0.1484770E+03  0.7818608E-02  0.1202357E+00
         -4   -1    0    0    0  501 -0.00000000000E+00  0.00000000000E+00  0.61328389038E+02  0.61341537330E+02  0.12700000000E+01 0.  1.
         21   -1    0    0  501  502  0.00000000000E+00 -0.00000000000E+00 -0.10701523139E+04  0.10701523139E+04  0.00000000000E+00 0. -1.
         25    2    1    2    0    0  0.24913433908E+02  0.76155569469E+02 -0.32635157746E+02  0.15202130343E+03  0.12500029290E+03 0.  0.
    9000005    1    3    3    0    0  0.11094344506E+02 -0.17726266940E+02  0.31255616766E+02  0.37619391264E+02  0.10000000000E+01 0.  0.
    9000005    1    3    3    0    0  0.13819089403E+02  0.93881836409E+02 -0.63890774511E+02  0.11440191217E+03  0.10000000000E+01 0.  0.
         -4    1    1    2    0  502 -0.24913433908E+02 -0.76155569469E+02 -0.97618876713E+03  0.97947254781E+03  0.12700000000E+01 0. -1.
<mgrwt>
<rscale>  1 0.14847701E+03</rscale>
<asrwt>0</asrwt>
<pdfrwt beam="2">  1       21 0.16463881E+00 0.14847701E+03</pdfrwt>
<pdfrwt beam="1">  1       -4 0.94362065E-02 0.14847701E+03</pdfrwt>
<totfact> 0.82567128E+02</totfact>
</mgrwt>
</event>
<event>
 6    4  0.3189516E-003  0.1280296E+03  0.7818608E-02  0.1230409E+00
          4   -1    0    0  502    0 -0.00000000000E+00  0.00000000000E+00  0.64547411550E+03  0.64547536489E+03  0.12700000000E+01 0. -1.
         21   -1    0    0  501  502  0.00000000000E+00 -0.00000000000E+00 -0.95687232582E+01  0.95687232582E+01  0.00000000000E+00 0. -1.
         25    2    1    2    0    0  0.21013615822E+02  0.18251468097E+02  0.55121308608E+03  0.56588643138E+03  0.12496759106E+03 0.  0.
    9000005    1    3    3    0    0  0.34741298110E+02 -0.44036796344E+02  0.16101007086E+03  0.17050349013E+03  0.10000000000E+01 0.  0.
    9000005    1    3    3    0    0 -0.13727682288E+02  0.62288264441E+02  0.39020301522E+03  0.39538294125E+03  0.10000000000E+01 0.  0.
          4    1    1    2  501    0 -0.21013615822E+02 -0.18251468097E+02  0.84692306164E+02  0.89157656772E+02  0.12700000000E+01 0.  1.
<mgrwt>
<rscale>  1 0.12802963E+03</rscale>
<asrwt>0</asrwt>
<pdfrwt beam="2">  1       21 0.14721118E-02 0.12802963E+03</pdfrwt>
<pdfrwt beam="1">  1        4 0.99310255E-01 0.12802963E+03</pdfrwt>
<totfact> 0.70166733E+04</totfact>
</mgrwt>
</event>
<event>
 6    4  0.3189516E-003  0.1269177E+03  0.7818608E-02  0.1232102E+00
         21   -1    0    0  501  502  0.00000000000E+00  0.00000000000E+00  0.37205902422E+02  0.37205902422E+02  0.00000000000E+00 0.  1.
          4   -1    0    0  502    0 -0.00000000000E+00 -0.00000000000E+00 -0.14919563240E+03  0.14920103762E+03  0.12700000000E+01 0.  1.
         25    2    1    2    0    0  0.94404527622E+01 -0.19851021413E+02 -0.97566309366E+02  0.16008521591E+03  0.12499962571E+03 0.  0.
    9000005    1    3    3    0    0  0.50047584779E+02 -0.28494368495E+02 -0.40252863031E+01  0.57739871042E+02  0.10000000000E+01 0.  0.
    9000005    1    3    3    0    0 -0.40607132017E+02  0.86433470822E+01 -0.93541023063E+02  0.10234534486E+03  0.10000000000E+01 0.  0.
          4    1    1    2  501    0 -0.94404527622E+01  0.19851021413E+02 -0.14423420615E+02  0.26321724141E+02  0.12700000000E+01 0. -1.
<mgrwt>
<rscale>  1 0.12691766E+03</rscale>
<asrwt>0</asrwt>
<pdfrwt beam="1">  1       21 0.57239850E-02 0.12691766E+03</pdfrwt>
<pdfrwt beam="2">  1        4 0.22955257E-01 0.12691766E+03</pdfrwt>
<totfact> 0.14880947E+05</totfact>
</mgrwt>
</event>
<event>
 6    4  0.3189516E-003  0.1466404E+03  0.7818608E-02  0.1204663E+00
         21   -1    0    0  501  502  0.00000000000E+00  0.00000000000E+00  0.28835343527E+02  0.28835343527E+02  0.00000000000E+00 0.  1.
         -4   -1    0    0    0  501 -0.00000000000E+00 -0.00000000000E+00 -0.43648217248E+03  0.43648402009E+03  0.12700000000E+01 0.  1.
         25    2    1    2    0    0  0.36891521562E+02  0.67209288111E+02 -0.24561285812E+03  0.28605784132E+03  0.12500135894E+03 0.  0.
    9000005    1    3    3    0    0  0.71226308449E+02  0.28953310627E+02 -0.73279388772E+02  0.10621840721E+03  0.10000000000E+01 0.  0.
    9000005    1    3    3    0    0 -0.34334786888E+02  0.38255977484E+02 -0.17233346934E+03  0.17983943411E+03  0.10000000000E+01 0.  0.
         -4    1    1    2    0  502 -0.36891521562E+02 -0.67209288111E+02 -0.16203397083E+03  0.17926152230E+03  0.12700000000E+01 0. -1.
<mgrwt>
<rscale>  1 0.14664042E+03</rscale>
<asrwt>0</asrwt>
<pdfrwt beam="1">  1       21 0.44362071E-02 0.14664042E+03</pdfrwt>
<pdfrwt beam="2">  1       -4 0.67153391E-01 0.14664042E+03</pdfrwt>
<totfact> 0.28102416E+04</totfact>
</mgrwt>
</event>
<event>
 6    4  0.3189516E-003  0.1315441E+03  0.7818608E-02  0.1225182E+00
         -4   -1    0    0    0  501 -0.00000000000E+00  0.00000000000E+00  0.49647969950E+03  0.49648132383E+03  0.12700000000E+01 0. -1.
         21   -1    0    0  501  502  0.00000000000E+00 -0.00000000000E+00 -0.21334641461E+02  0.21334641461E+02  0.00000000000E+00 0.  1.
         25    2    1    2    0    0 -0.38767461102E+02  0.13272682370E+02  0.45196799178E+03  0.47072170409E+03  0.12499910789E+03 0.  0.
    9000005    1    3    3    0    0 -0.33203680477E+01  0.42433640253E+02  0.39622483753E+03  0.39850565936E+03  0.10000000000E+01 0.  0.
    9000005    1    3    3    0    0 -0.35447093054E+02 -0.29160957884E+02  0.55743154246E+02  0.72216044726E+02  0.10000000000E+01 0.  0.
         -4    1    1    2    0  502  0.38767461102E+02 -0.13272682370E+02  0.23177066259E+02  0.47094261200E+02  0.12700000000E+01 0.  1.
<mgrwt>
<rscale>  1 0.13154413E+03</rscale>
<asrwt>0</asrwt>
<pdfrwt beam="2">  1       21 0.32822529E-02 0.13154413E+03</pdfrwt>
<pdfrwt beam="1">  1       -4 0.76384516E-01 0.13154413E+03</pdfrwt>
<totfact> 0.34621820E+04</totfact>
</mgrwt>
</event>
<event>
 6    4  0.3189516E-003  0.1303589E+03  0.7818608E-02  0.1226924E+00
         21   -1    0    0  501  502  0.00000000000E+00  0.00000000000E+00  0.21509252801E+02  0.21509252801E+02  0.00000000000E+00 0. -1.
         -4   -1    0    0    0  501 -0.00000000000E+00 -0.00000000000E+00 -0.81474930945E+03  0.81475029927E+03  0.12700000000E+01 0.  1.
         25    2    1    2    0    0 -0.24059465179E+00  0.36993635432E+02 -0.78819366988E+03  0.79890094037E+03  0.12499945739E+03 0.  0.
    9000005    1    3    3    0    0  0.42774271518E+02  0.63957362968E+02 -0.54986654899E+03  0.55522464308E+03  0.10000000000E+01 0.  0.
    9000005    1    3    3    0    0 -0.43014866170E+02 -0.26963727537E+02 -0.23832712088E+03  0.24367629729E+03  0.10000000000E+01 0.  0.
         -4    1    1    2    0  502  0.24059465179E+00 -0.36993635432E+02 -0.50463867764E+01  0.37358611694E+02  0.12700000000E+01 0. -1.
<mgrwt>
<rscale>  1 0.13035893E+03</rscale>
<asrwt>0</asrwt>
<pdfrwt beam="1">  1       21 0.33091150E-02 0.13035893E+03</pdfrwt>
<pdfrwt beam="2">  1       -4 0.12534904E+00 0.13035893E+03</pdfrwt>
<totfact> 0.10916472E+04</totfact>
</mgrwt>
</event>
<event>
 6    4  0.3189516E-003  0.1480986E+03  0.7818608E-02  0.1202829E+00
          4   -1    0    0  502    0 -0.00000000000E+00  0.00000000000E+00  0.21670068694E+02  0.21707251719E+02  0.12700000000E+01 0. -1.
         21   -1    0    0  501  502  0.00000000000E+00 -0.00000000000E+00 -0.76603788286E+03  0.76603788286E+03  0.00000000000E+00 0.  1.
         25    2    1    2    0    0  0.41293505852E+02  0.67841913793E+02 -0.63816443021E+03  0.65512367871E+03  0.12500206211E+03 0.  0.
    9000005    1    3    3    0    0  0.34697591122E+01  0.74726875429E+02 -0.17442876827E+03  0.18979604932E+03  0.10000000000E+01 0.  0.
    9000005    1    3    3    0    0  0.37823746740E+02 -0.68849616361E+01 -0.46373566195E+03  0.46532762939E+03  0.10000000000E+01 0.  0.
          4    1    1    2  501    0 -0.41293505852E+02 -0.67841913793E+02 -0.10620338396E+03  0.13262145587E+03  0.12700000000E+01 0.  1.
<mgrwt>
<rscale>  1 0.14809860E+03</rscale>
<asrwt>0</asrwt>
<pdfrwt beam="2">  1       21 0.11785198E+00 0.14809860E+03</pdfrwt>
<pdfrwt beam="1">  1        4 0.33367979E-02 0.14809860E+03</pdfrwt>
<totfact> 0.10496025E+04</totfact>
</mgrwt>
</event>
<event>
 6    4  0.3189516E-003  0.1271451E+03  0.7818608E-02  0.1231754E+00
         21   -1    0    0  501  502  0.00000000000E+00  0.00000000000E+00  0.62917787683E+03  0.62917787683E+03  0.00000000000E+00 0.  1.
          4   -1    0    0  502    0 -0.00000000000E+00 -0.00000000000E+00 -0.16307004392E+02  0.16356383838E+02  0.12700000000E+01 0. -1.
         25    2    1    2    0    0  0.82194429213E+01 -0.21752197141E+02  0.23707540283E+03  0.26901790618E+03  0.12500067957E+03 0.  0.
    9000005    1    3    3    0    0 -0.33920989433E+02  0.21379959511E+02  0.22207385387E+02  0.45846528315E+02  0.10000000000E+01 0.  0.
    9000005    1    3    3    0    0  0.42140432354E+02 -0.43132156652E+02  0.21486801744E+03  0.22317137786E+03  0.10000000000E+01 0.  0.
          4    1    1    2  501    0 -0.82194429213E+01  0.21752197141E+02  0.37579546960E+03  0.37651635449E+03  0.12700000000E+01 0.  1.
<mgrwt>
<rscale>  1 0.12714514E+03</rscale>
<asrwt>0</asrwt>
<pdfrwt beam="1">  1       21 0.96796578E-01 0.12714514E+03</pdfrwt>
<pdfrwt beam="2">  1        4 0.25126674E-02 0.12714514E+03</pdfrwt>
<totfact> 0.25857659E+04</totfact>
</mgrwt>
</event>
<event>
 6    4  0.3189516E-003  0.2124494E+03  0.7818608E-02  0.1139641E+00
         21   -1    0    0  501  502  0.00000000000E+00  0.00000000000E+00  0.13910653881E+03  0.13910653881E+03  0.00000000000E+00 0.  1.
          4   -1    0    0  502    0 -0.00000000000E+00 -0.00000000000E+00 -0.10034878799E+04  0.10034886835E+04  0.12700000000E+01 0. -1.
         25    2    1    2    0    0 -0.13485195489E+03  0.10641820523E+03 -0.93353916451E+03  0.95740801544E+03  0.12499940887E+03 0.  0.
    9000005    1    3    3    0    0 -0.10013553856E+03  0.45179176855E+02 -0.29140471825E+03  0.31142574383E+03  0.10000000000E+01 0.  0.
    9000005    1    3    3    0    0 -0.34716416326E+02  0.61239028371E+02 -0.64213444626E+03  0.64598227161E+03  0.10000000000E+01 0.  0.
          4    1    1    2  501    0  0.13485195489E+03 -0.10641820523E+03  0.69157823473E+02  0.18518720687E+03  0.12700000000E+01 0.  1.
<mgrwt>
<rscale>  1 0.21244937E+03</rscale>
<asrwt>0</asrwt>
<pdfrwt beam="1">  1       21 0.21401005E-01 0.21244937E+03</pdfrwt>
<pdfrwt beam="2">  1        4 0.15438326E+00 0.21244937E+03</pdfrwt>
<totfact> 0.25137002E+02</totfact>
</mgrwt>
</event>
<event>
 6    4  0.3189516E-003  0.1269534E+03  0.7818608E-02  0.1232048E+00
         -4   -1    0    0    0  501 -0.00000000000E+00  0.00000000000E+00  0.14088799776E+03  0.14089372169E+03  0.12700000000E+01 0.  1.
         21   -1    0    0  501  502  0.00000000000E+00 -0.00000000000E+00 -0.51778402626E+02  0.51778402626E+02  0.00000000000E+00 0.  1.
         25    2    1    2    0    0 -0.11107517394E+02  0.19214023606E+02  0.10548791213E+03  0.16506020997E+03  0.12499847065E+03 0.  0.
    9000005    1    3    3    0    0  0.30523987015E+02  0.18299829848E+02 -0.14200513187E+02  0.38330824809E+02  0.10000000000E+01 0.  0.
    9000005    1    3    3    0    0 -0.41631504409E+02  0.91419375855E+00  0.11968842532E+03  0.12672938517E+03  0.10000000000E+01 0.  0.
         -4    1    1    2    0  502  0.11107517394E+02 -0.19214023606E+02 -0.16378317000E+02  0.27611914341E+02  0.12700000000E+01 0. -1.
<mgrwt>
<rscale>  1 0.12695343E+03</rscale>
<asrwt>0</asrwt>
<pdfrwt beam="2">  1       21 0.79659082E-02 0.12695343E+03</pdfrwt>
<pdfrwt beam="1">  1       -4 0.21676715E-01 0.12695343E+03</pdfrwt>
<totfact> 0.93964981E+04</totfact>
</mgrwt>
</event>
<event>
 6    4  0.3189516E-003  0.1285897E+03  0.7818608E-02  0.1229563E+00
         21   -1    0    0  501  502  0.00000000000E+00  0.00000000000E+00  0.13691986267E+03  0.13691986267E+03  0.00000000000E+00 0. -1.
          4   -1    0    0  502    0 -0.00000000000E+00 -0.00000000000E+00 -0.11878440716E+03  0.11879119615E+03  0.12700000000E+01 0. -1.
         25    2    1    2    0    0 -0.21263312913E+02 -0.21374006201E+02 -0.81073811400E+02  0.15201405714E+03  0.12500533611E+03 0.  0.
    9000005    1    3    3    0    0 -0.67698035083E+02  0.82035674408E+01 -0.66040347486E+02  0.94934977584E+02  0.10000000000E+01 0.  0.
    9000005    1    3    3    0    0  0.46434722170E+02 -0.29577573641E+02 -0.15033463914E+02  0.57079079554E+02  0.10000000000E+01 0.  0.
          4    1    1    2  501    0  0.21263312913E+02  0.21374006201E+02  0.99209266911E+02  0.10369700168E+03  0.12700000000E+01 0.  1.
<mgrwt>
<rscale>  1 0.12858970E+03</rscale>
<asrwt>0</asrwt>
<pdfrwt beam="1">  1       21 0.21064594E-01 0.12858970E+03</pdfrwt>
<pdfrwt beam="2">  1        4 0.18275500E-01 0.12858970E+03</pdfrwt>
<totfact> 0.22551785E+04</totfact>
</mgrwt>
</event>
<event>
 6    4  0.3189516E-003  0.1286025E+03  0.7818608E-02  0.1229544E+00
         21   -1    0    0  501  502  0.00000000000E+00  0.00000000000E+00  0.78158504520E+01  0.78158504520E+01  0.00000000000E+00 0.  1.
          4   -1    0    0  502    0 -0.00000000000E+00 -0.00000000000E+00 -0.95141286434E+03  0.95141371197E+03  0.12700000000E+01 0.  1.
         25    2    1    2    0    0  0.20802344929E+02 -0.21921388606E+02 -0.56614793642E+03  0.58057047590E+03  0.12500122692E+03 0.  0.
    9000005    1    3    3    0    0  0.32888664791E+02  0.26004242735E+02 -0.47526650032E+03  0.47711333165E+03  0.10000000000E+01 0.  0.
    9000005    1    3    3    0    0 -0.12086319862E+02 -0.47925631341E+02 -0.90881436104E+02  0.10345714425E+03  0.10000000000E+01 0.  0.
          4    1    1    2  501    0 -0.20802344929E+02  0.21921388606E+02 -0.37744907746E+03  0.37865908653E+03  0.12700000000E+01 0. -1.
<mgrwt>
<rscale>  1 0.12860246E+03</rscale>
<asrwt>0</asrwt>
<pdfrwt beam="1">  1       21 0.12024394E-02 0.12860246E+03</pdfrwt>
<pdfrwt beam="2">  1        4 0.14637910E+00 0.12860246E+03</pdfrwt>
<totfact> 0.38074929E+04</totfact>
</mgrwt>
</event>
<event>
 6    4  0.3189516E-003  0.1278464E+03  0.7818608E-02  0.1230687E+00
         21   -1    0    0  501  502  0.00000000000E+00  0.00000000000E+00  0.30946053478E+01  0.30946053478E+01  0.00000000000E+00 0.  1.
         -4   -1    0    0    0  501 -0.00000000000E+00 -0.00000000000E+00 -0.21099580972E+04  0.21099584794E+04  0.12700000000E+01 0.  1.
         25    2    1    2    0    0 -0.20663482096E+02  0.17100870274E+02 -0.19222786499E+04  0.19265253495E+04  0.12500118000E+03 0.  0.
    9000005    1    3    3    0    0 -0.27936089047E+02 -0.18680270701E+02 -0.17542620377E+04  0.17545841885E+04  0.10000000000E+01 0.  0.
    9000005    1    3    3    0    0  0.72726069516E+01  0.35781140976E+02 -0.16801661225E+03  0.17194116102E+03  0.10000000000E+01 0.  0.
         -4    1    1    2    0  502  0.20663482096E+02 -0.17100870274E+02 -0.18458484189E+03  0.18652773523E+03  0.12700000000E+01 0. -1.
<mgrwt>
<rscale>  1 0.12784645E+03</rscale>
<asrwt>0</asrwt>
<pdfrwt beam="1">  1       21 0.47609435E-03 0.12784645E+03</pdfrwt>
<pdfrwt beam="2">  1       -4 0.32462818E+00 0.12784645E+03</pdfrwt>
<totfact> 0.13197623E+04</totfact>
</mgrwt>
</event>
<event>
 6    4  0.3189516E-003  0.1269396E+03  0.7818608E-02  0.1232069E+00
         21   -1    0    0  501  502  0.00000000000E+00  0.00000000000E+00  0.90873697062E+03  0.90873697062E+03  0.00000000000E+00 0. -1.
          4   -1    0    0  502    0 -0.00000000000E+00 -0.00000000000E+00 -0.21948853060E+02  0.21985564597E+02  0.12700000000E+01 0.  1.
         25    2    1    2    0    0 -0.12502046175E+01  0.22064750320E+02  0.16300890841E+03  0.20660488406E+03  0.12500103071E+03 0.  0.
    9000005    1    3    3    0    0 -0.14327548954E+02  0.22228393081E+02  0.18178486720E+03  0.18370116510E+03  0.10000000000E+01 0.  0.
    9000005    1    3    3    0    0  0.13077344336E+02 -0.16364276178E+00 -0.18775958786E+02  0.22903718959E+02  0.10000000000E+01 0.  0.
          4    1    1    2  501    0  0.12502046175E+01 -0.22064750320E+02  0.72377920915E+03  0.72411765116E+03  0.12700000000E+01 0. -1.
<mgrwt>
<rscale>  1 0.12693965E+03</rscale>
<asrwt>0</asrwt>
<pdfrwt beam="1">  1       21 0.13980566E+00 0.12693965E+03</pdfrwt>
<pdfrwt beam="2">  1        4 0.33796396E-02 0.12693965E+03</pdfrwt>
<totfact> 0.66764654E+03</totfact>
</mgrwt>
</event>
<event>
 6    4  0.3189516E-003  0.1439485E+03  0.7818608E-02  0.1208113E+00
         -4   -1    0    0    0  501 -0.00000000000E+00  0.00000000000E+00  0.99220116348E+01  0.10002960306E+02  0.12700000000E+01 0. -1.
         21   -1    0    0  501  502  0.00000000000E+00 -0.00000000000E+00 -0.12037050873E+04  0.12037050873E+04  0.00000000000E+00 0.  1.
         25    2    1    2    0    0  0.25997220483E+02  0.66487573642E+02 -0.68691830279E+03  0.70183895906E+03  0.12499886732E+03 0.  0.
    9000005    1    3    3    0    0  0.28238591059E+02 -0.25272020854E+01 -0.29957219674E+02  0.41258208710E+02  0.10000000000E+01 0.  0.
    9000005    1    3    3    0    0 -0.22413705763E+01  0.69014775728E+02 -0.65696108311E+03  0.66058075035E+03  0.10000000000E+01 0.  0.
         -4    1    1    2    0  502 -0.25997220483E+02 -0.66487573642E+02 -0.50686477289E+03  0.51186908856E+03  0.12700000000E+01 0.  1.
<mgrwt>
<rscale>  1 0.14394850E+03</rscale>
<asrwt>0</asrwt>
<pdfrwt beam="2">  1       21 0.18518525E+00 0.14394850E+03</pdfrwt>
<pdfrwt beam="1">  1       -4 0.15327429E-02 0.14394850E+03</pdfrwt>
<totfact> 0.10794381E+04</totfact>
</mgrwt>
</event>
<event>
 6    4  0.3189516E-003  0.1277975E+03  0.7818608E-02  0.1230761E+00
          4   -1    0    0  502    0 -0.00000000000E+00  0.00000000000E+00  0.55680748474E+02  0.55695230053E+02  0.12700000000E+01 0.  1.
         21   -1    0    0  501  502  0.00000000000E+00 -0.00000000000E+00 -0.10861455554E+03  0.10861455554E+03  0.00000000000E+00 0.  1.
         25    2    1    2    0    0  0.23774847757E+02  0.11908980464E+02 -0.51068824569E+02  0.13762349208E+03  0.12500053411E+03 0.  0.
    9000005    1    3    3    0    0  0.14553636177E+02 -0.86506689065E+01 -0.90565762983E+02  0.92140109741E+02  0.10000000000E+01 0.  0.
    9000005    1    3    3    0    0  0.92212115796E+01  0.20559649371E+02  0.39496938414E+02  0.45483382342E+02  0.10000000000E+01 0.  0.
          4    1    1    2  501    0 -0.23774847757E+02 -0.11908980464E+02 -0.18649824965E+01  0.26686293509E+02  0.12700000000E+01 0. -1.
<mgrwt>
<rscale>  1 0.12779750E+03</rscale>
<asrwt>0</asrwt>
<pdfrwt beam="2">  1       21 0.16709932E-01 0.12779750E+03</pdfrwt>
<pdfrwt beam="1">  1        4 0.85679541E-02 0.12779750E+03</pdfrwt>
<totfact> 0.12662310E+05</totfact>
</mgrwt>
</event>
<event>
 6    4  0.3189516E-003  0.1274440E+03  0.7818608E-02  0.1231298E+00
         -4   -1    0    0    0  501 -0.00000000000E+00  0.00000000000E+00  0.81358352054E+02  0.81368263770E+02  0.12700000000E+01 0. -1.
         21   -1    0    0  501  502  0.00000000000E+00 -0.00000000000E+00 -0.76178540189E+02  0.76178540189E+02  0.00000000000E+00 0.  1.
         25    2    1    2    0    0  0.62773044774E+01 -0.24078619856E+02  0.19317067303E+02  0.12889965092E+03  0.12499114542E+03 0.  0.
    9000005    1    3    3    0    0 -0.56225606606E+02 -0.13643467267E+02 -0.10581098263E+02  0.58825357438E+02  0.10000000000E+01 0.  0.
    9000005    1    3    3    0    0  0.62502911083E+02 -0.10435152589E+02  0.29898165566E+02  0.70074293487E+02  0.10000000000E+01 0.  0.
         -4    1    1    2    0  502 -0.62773044774E+01  0.24078619856E+02 -0.14137255438E+02  0.28647153035E+02  0.12700000000E+01 0.  1.
<mgrwt>
<rscale>  1 0.12744399E+03</rscale>
<asrwt>0</asrwt>
<pdfrwt beam="2">  1       21 0.11719775E-01 0.12744399E+03</pdfrwt>
<pdfrwt beam="1">  1       -4 0.12518246E-01 0.12744399E+03</pdfrwt>
<totfact> 0.12605472E+05</totfact>
</mgrwt>
</event>
<event>
 6    4  0.3189516E-003  0.1335377E+03  0.7818608E-02  0.1222299E+00
         -4   -1    0    0    0  501 -0.00000000000E+00  0.00000000000E+00  0.28797380713E+03  0.28797660755E+03  0.12700000000E+01 0.  1.
         21   -1    0    0  501  502  0.00000000000E+00 -0.00000000000E+00 -0.63287001656E+02  0.63287001656E+02  0.00000000000E+00 0. -1.
         25    2    1    2    0    0  0.80183140860E+01 -0.46303088264E+02  0.26012078869E+03  0.29239554137E+03  0.12499623419E+03 0.  0.
    9000005    1    3    3    0    0 -0.17020565748E+02  0.46940164354E+01  0.22479266705E+03  0.22548719832E+03  0.10000000000E+01 0.  0.
    9000005    1    3    3    0    0  0.25038879834E+02 -0.50997104699E+02  0.35328121643E+02  0.66908343051E+02  0.10000000000E+01 0.  0.
         -4    1    1    2    0  502 -0.80183140860E+01  0.46303088264E+02 -0.35433983214E+02  0.58868067829E+02  0.12700000000E+01 0. -1.
<mgrwt>
<rscale>  1 0.13353774E+03</rscale>
<asrwt>0</asrwt>
<pdfrwt beam="2">  1       21 0.97364620E-02 0.13353774E+03</pdfrwt>
<pdfrwt beam="1">  1       -4 0.44304857E-01 0.13353774E+03</pdfrwt>
<totfact> 0.17170823E+04</totfact>
</mgrwt>
</event>
<event>
 6    4  0.3189516E-003  0.1271004E+03  0.7818608E-02  0.1231823E+00
         21   -1    0    0  501  502  0.00000000000E+00  0.00000000000E+00  0.26554662967E+03  0.26554662967E+03  0.00000000000E+00 0.  1.
          4   -1    0    0  502    0 -0.00000000000E+00 -0.00000000000E+00 -0.60568154920E+02  0.60581468210E+02  0.12700000000E+01 0. -1.
         25    2    1    2    0    0 -0.10948177807E+02  0.20253116206E+02  0.75143863386E+01  0.12732233734E+03  0.12499784106E+03 0.  0.
    9000005    1    3    3    0    0  0.26371116870E+02 -0.27917290084E+02 -0.35834010905E+02  0.52534628848E+02  0.10000000000E+01 0.  0.
    9000005    1    3    3    0    0 -0.37319294677E+02  0.48170406289E+02  0.43348397244E+02  0.74787708488E+02  0.10000000000E+01 0.  0.
          4    1    1    2  501    0  0.10948177807E+02 -0.20253116206E+02  0.19746408841E+03  0.19880576054E+03  0.12700000000E+01 0.  1.
<mgrwt>
<rscale>  1 0.12710040E+03</rscale>
<asrwt>0</asrwt>
<pdfrwt beam="1">  1       21 0.40853327E-01 0.12710040E+03</pdfrwt>
<pdfrwt beam="2">  1        4 0.93194355E-02 0.12710040E+03</pdfrwt>
<totfact> 0.20074275E+04</totfact>
</mgrwt>
</event>
<event>
 6    4  0.3189516E-003  0.1309664E+03  0.7818608E-02  0.1226029E+00
         21   -1    0    0  501  502  0.00000000000E+00  0.00000000000E+00  0.23011314577E+03  0.23011314577E+03  0.00000000000E+00 0. -1.
         -4   -1    0    0    0  501 -0.00000000000E+00 -0.00000000000E+00 -0.31459614646E+02  0.31485238664E+02  0.12700000000E+01 0. -1.
         25    2    1    2    0    0  0.22360509145E+02  0.32216452401E+02  0.15363821670E+03  0.20188336449E+03  0.12495718888E+03 0.  0.
    9000005    1    3    3    0    0 -0.27303794061E+02  0.65557537320E+02  0.79129768980E+02  0.10632877413E+03  0.10000000000E+01 0.  0.
    9000005    1    3    3    0    0  0.49664303206E+02 -0.33341084919E+02  0.74508447722E+02  0.95554590358E+02  0.10000000000E+01 0.  0.
         -4    1    1    2    0  502 -0.22360509145E+02 -0.32216452401E+02  0.45015314424E+02  0.59715019947E+02  0.12700000000E+01 0.  1.
<mgrwt>
<rscale>  1 0.13096637E+03</rscale>
<asrwt>0</asrwt>
<pdfrwt beam="1">  1       21 0.35402021E-01 0.13096637E+03</pdfrwt>
<pdfrwt beam="2">  1       -4 0.48421815E-02 0.13096637E+03</pdfrwt>
<totfact> 0.78134066E+04</totfact>
</mgrwt>
</event>
<event>
 6    4  0.3189516E-003  0.1274102E+03  0.7818608E-02  0.1231350E+00
         21   -1    0    0  501  502  0.00000000000E+00  0.00000000000E+00  0.97127003776E+02  0.97127003776E+02  0.00000000000E+00 0. -1.
         -4   -1    0    0    0  501 -0.00000000000E+00 -0.00000000000E+00 -0.22156079516E+03  0.22156443499E+03  0.12700000000E+01 0.  1.
         25    2    1    2    0    0  0.23644289018E+02  0.70490236296E+01 -0.20114381959E+03  0.23810122555E+03  0.12499846523E+03 0.  0.
    9000005    1    3    3    0    0 -0.24529119325E+02  0.54414086149E+02 -0.10010840104E+03  0.11655583394E+03  0.10000000000E+01 0.  0.
    9000005    1    3    3    0    0  0.48173408343E+02 -0.47365062520E+02 -0.10103541855E+03  0.12154539161E+03  0.10000000000E+01 0.  0.
         -4    1    1    2    0  502 -0.23644289018E+02 -0.70490236296E+01  0.76710028214E+02  0.80590213214E+02  0.12700000000E+01 0. -1.
<mgrwt>
<rscale>  1 0.12741019E+03</rscale>
<asrwt>0</asrwt>
<pdfrwt beam="1">  1       21 0.14942616E-01 0.12741019E+03</pdfrwt>
<pdfrwt beam="2">  1       -4 0.34087195E-01 0.12741019E+03</pdfrwt>
<totfact> 0.13359382E+04</totfact>
</mgrwt>
</event>
<event>
 6    4  0.3189516E-003  0.1284675E+03  0.7818608E-02  0.1229748E+00
          4   -1    0    0  502    0 -0.00000000000E+00  0.00000000000E+00  0.12969272767E+03  0.12969894568E+03  0.12700000000E+01 0.  1.
         21   -1    0    0  501  502  0.00000000000E+00 -0.00000000000E+00 -0.58505070911E+02  0.58505070911E+02  0.00000000000E+00 0.  1.
         25    2    1    2    0    0  0.23867782998E+02  0.17579063408E+02  0.21387835272E+02  0.13023566613E+03  0.12500077879E+03 0.  0.
    9000005    1    3    3    0    0  0.33601011501E+02  0.58589654166E+02  0.45710594188E+02  0.81561228352E+02  0.10000000000E+01 0.  0.
    9000005    1    3    3    0    0 -0.97332285035E+01 -0.41010590758E+02 -0.24322758915E+02  0.48674437775E+02  0.10000000000E+01 0.  0.
          4    1    1    2  501    0 -0.23867782998E+02 -0.17579063408E+02  0.49799821488E+02  0.57968350467E+02  0.12700000000E+01 0. -1.
<mgrwt>
<rscale>  1 0.12846746E+03</rscale>
<asrwt>0</asrwt>
<pdfrwt beam="2">  1       21 0.90007802E-02 0.12846746E+03</pdfrwt>
<pdfrwt beam="1">  1        4 0.19954266E-01 0.12846746E+03</pdfrwt>
<totfact> 0.88478583E+04</totfact>
</mgrwt>
</event>
<event>
 6    4  0.3189516E-003  0.1282196E+03  0.7818608E-02  0.1230122E+00
         21   -1    0    0  501  502  0.00000000000E+00  0.00000000000E+00  0.63786155643E+02  0.63786155643E+02  0.00000000000E+00 0.  1.
          4   -1    0    0  502    0 -0.00000000000E+00 -0.00000000000E+00 -0.10385468953E+03  0.10386245442E+03  0.12700000000E+01 0.  1.
         25    2    1    2    0    0  0.26460708116E+02  0.10741558219E+02 -0.49653900908E+02  0.13749828157E+03  0.12499886965E+03 0.  0.
    9000005    1    3    3    0    0  0.70294782621E+02  0.33141678168E+02 -0.20909072332E+02  0.80485505536E+02  0.10000000000E+01 0.  0.
    9000005    1    3    3    0    0 -0.43834074505E+02 -0.22400119950E+02 -0.28744828575E+02  0.57012776036E+02  0.10000000000E+01 0.  0.
          4    1    1    2  501    0 -0.26460708116E+02 -0.10741558219E+02  0.95853670202E+01  0.30150328487E+02  0.12700000000E+01 0. -1.
<mgrwt>
<rscale>  1 0.12821961E+03</rscale>
<asrwt>0</asrwt>
<pdfrwt beam="1">  1       21 0.98132548E-02 0.12821961E+03</pdfrwt>
<pdfrwt beam="2">  1        4 0.15979214E-01 0.12821961E+03</pdfrwt>
<totfact> 0.11287197E+05</totfact>
</mgrwt>
</event>
<event>
 6    4  0.3189516E-003  0.1277860E+03  0.7818608E-02  0.1230778E+00
         21   -1    0    0  501  502  0.00000000000E+00  0.00000000000E+00  0.10369422137E+03  0.10369422137E+03  0.00000000000E+00 0. -1.
         -4   -1    0    0    0  501 -0.00000000000E+00 -0.00000000000E+00 -0.21211403031E+03  0.21211783224E+03  0.12700000000E+01 0.  1.
         25    2    1    2    0    0 -0.25104049809E+02 -0.85717365832E+01 -0.19058582460E+03  0.22946070727E+03  0.12500228659E+03 0.  0.
    9000005    1    3    3    0    0  0.13255214956E+02 -0.61211573831E+02 -0.94575413406E+02  0.11343749960E+03  0.10000000000E+01 0.  0.
    9000005    1    3    3    0    0 -0.38359264765E+02  0.52639837247E+02 -0.96010411199E+02  0.11602320767E+03  0.10000000000E+01 0.  0.
         -4    1    1    2    0  502  0.25104049809E+02  0.85717365832E+01  0.82166015664E+02  0.86351346342E+02  0.12700000000E+01 0. -1.
<mgrwt>
<rscale>  1 0.12778599E+03</rscale>
<asrwt>0</asrwt>
<pdfrwt beam="1">  1       21 0.15952957E-01 0.12778599E+03</pdfrwt>
<pdfrwt beam="2">  1       -4 0.32633819E-01 0.12778599E+03</pdfrwt>
<totfact> 0.12906589E+04</totfact>
</mgrwt>
</event>
<event>
 6    4  0.3189516E-003  0.1395048E+03  0.7818608E-02  0.1213997E+00
         21   -1    0    0  501  502  0.00000000000E+00  0.00000000000E+00  0.66785168975E+03  0.66785168975E+03  0.00000000000E+00 0.  1.
          4   -1    0    0  502    0 -0.00000000000E+00 -0.00000000000E+00 -0.29109016064E+02  0.29136707367E+02  0.12700000000E+01 0. -1.
         25    2    1    2    0    0  0.57266046016E+02 -0.23760765988E+02  0.15201183151E+03  0.20632303289E+03  0.12497048834E+03 0.  0.
    9000005    1    3    3    0    0  0.51688394972E+01  0.37377431679E+02  0.40523533098E+01  0.37963283156E+02  0.10000000000E+01 0.  0.
    9000005    1    3    3    0    0  0.52097206519E+02 -0.61138197666E+02  0.14795947820E+03  0.16835974973E+03  0.10000000000E+01 0.  0.
          4    1    1    2  501    0 -0.57266046016E+02  0.23760765988E+02  0.48673084218E+03  0.49066536423E+03  0.12700000000E+01 0.  1.
<mgrwt>
<rscale>  1 0.13950483E+03</rscale>
<asrwt>0</asrwt>
<pdfrwt beam="1">  1       21 0.10274640E+00 0.13950483E+03</pdfrwt>
<pdfrwt beam="2">  1        4 0.44805336E-02 0.13950483E+03</pdfrwt>
<totfact> 0.91033792E+03</totfact>
</mgrwt>
</event>
<event>
 6    4  0.3189516E-003  0.1548491E+03  0.7818608E-02  0.1194638E+00
          4   -1    0    0  502    0 -0.00000000000E+00  0.00000000000E+00  0.75478605403E+02  0.75489289132E+02  0.12700000000E+01 0.  1.
         21   -1    0    0  501  502  0.00000000000E+00 -0.00000000000E+00 -0.28541965757E+03  0.28541965757E+03  0.00000000000E+00 0. -1.
         25    2    1    2    0    0 -0.39887881028E+02 -0.82234629203E+02 -0.28088152790E+02  0.15737598327E+03  0.12499871395E+03 0.  0.
    9000005    1    3    3    0    0 -0.69947739129E+01 -0.18837842232E+02  0.48585136036E+02  0.52586182650E+02  0.10000000000E+01 0.  0.
    9000005    1    3    3    0    0 -0.32893107115E+02 -0.63396786971E+02 -0.76673288826E+02  0.10478980062E+03  0.10000000000E+01 0.  0.
          4    1    1    2  501    0  0.39887881028E+02  0.82234629203E+02 -0.18185289938E+03  0.20353296344E+03  0.12700000000E+01 0. -1.
<mgrwt>
<rscale>  1 0.15484914E+03</rscale>
<asrwt>0</asrwt>
<pdfrwt beam="2">  1       21 0.43910717E-01 0.15484914E+03</pdfrwt>
<pdfrwt beam="1">  1        4 0.11613132E-01 0.15484914E+03</pdfrwt>
<totfact> 0.12155819E+04</totfact>
</mgrwt>
</event>
<event>
 6    4  0.3189516E-003  0.1346527E+03  0.7818608E-02  0.1220711E+00
         -4   -1    0    0    0  501 -0.00000000000E+00  0.00000000000E+00  0.29006967977E+02  0.29034756607E+02  0.12700000000E+01 0. -1.
         21   -1    0    0  501  502  0.00000000000E+00 -0.00000000000E+00 -0.45336991354E+03  0.45336991354E+03  0.00000000000E+00 0.  1.
         25    2    1    2    0    0 -0.29904222873E+02 -0.40187100974E+02 -0.14223966420E+03  0.19586597395E+03  0.12498836766E+03 0.  0.
    9000005    1    3    3    0    0 -0.51067304425E+02  0.13087093144E+02 -0.12742564619E+02  0.54244949454E+02  0.10000000000E+01 0.  0.
    9000005    1    3    3    0    0  0.21163081552E+02 -0.53274194118E+02 -0.12949709958E+03  0.14162102450E+03  0.10000000000E+01 0.  0.
         -4    1    1    2    0  502  0.29904222873E+02  0.40187100974E+02 -0.28212328136E+03  0.28653869619E+03  0.12700000000E+01 0.  1.
<mgrwt>
<rscale>  1 0.13465273E+03</rscale>
<asrwt>0</asrwt>
<pdfrwt beam="2">  1       21 0.69749212E-01 0.13465273E+03</pdfrwt>
<pdfrwt beam="1">  1       -4 0.44648852E-02 0.13465273E+03</pdfrwt>
<totfact> 0.21965009E+04</totfact>
</mgrwt>
</event>
<event>
 6    4  0.3189516E-003  0.1292619E+03  0.7818608E-02  0.1228555E+00
         -4   -1    0    0    0  501 -0.00000000000E+00  0.00000000000E+00  0.52920428913E+03  0.52920581302E+03  0.12700000000E+01 0. -1.
         21   -1    0    0  501  502  0.00000000000E+00 -0.00000000000E+00 -0.13703722931E+02  0.13703722931E+02  0.00000000000E+00 0. -1.
         25    2    1    2    0    0  0.95633417974E+01 -0.31495991226E+02  0.46486827923E+03  0.48250509610E+03  0.12500078304E+03 0.  0.
    9000005    1    3    3    0    0  0.64522468132E+01  0.17244992857E+02  0.37634105872E+01  0.18819790829E+02  0.10000000000E+01 0.  0.
    9000005    1    3    3    0    0  0.31110949842E+01 -0.48740984084E+02  0.46110486864E+03  0.46368530527E+03  0.10000000000E+01 0.  0.
         -4    1    1    2    0  502 -0.95633417974E+01  0.31495991226E+02  0.50632286971E+02  0.60404439850E+02  0.12700000000E+01 0.  1.
<mgrwt>
<rscale>  1 0.12926195E+03</rscale>
<asrwt>0</asrwt>
<pdfrwt beam="2">  1       21 0.21082655E-02 0.12926195E+03</pdfrwt>
<pdfrwt beam="1">  1       -4 0.81420673E-01 0.12926195E+03</pdfrwt>
<totfact> 0.61789997E+04</totfact>
</mgrwt>
</event>
<event>
 6    4  0.3189516E-003  0.1375635E+03  0.7818608E-02  0.1216646E+00
         21   -1    0    0  501  502  0.00000000000E+00  0.00000000000E+00  0.37664422942E+02  0.37664422942E+02  0.00000000000E+00 0. -1.
         -4   -1    0    0    0  501 -0.00000000000E+00 -0.00000000000E+00 -0.27294795324E+03  0.27295090782E+03  0.12700000000E+01 0. -1.
         25    2    1    2    0    0  0.52842095813E+02  0.22502878431E+02 -0.12320097350E+03  0.18466780571E+03  0.12500020787E+03 0.  0.
    9000005    1    3    3    0    0  0.86959663389E+02  0.11569363017E+02 -0.44899531800E+02  0.98553544701E+02  0.10000000000E+01 0.  0.
    9000005    1    3    3    0    0 -0.34117567576E+02  0.10933515413E+02 -0.78301441703E+02  0.86114261010E+02  0.10000000000E+01 0.  0.
         -4    1    1    2    0  502 -0.52842095813E+02 -0.22502878431E+02 -0.11208255680E+03  0.12594752505E+03  0.12700000000E+01 0.  1.
<mgrwt>
<rscale>  1 0.13756351E+03</rscale>
<asrwt>0</asrwt>
<pdfrwt beam="1">  1       21 0.57945269E-02 0.13756351E+03</pdfrwt>
<pdfrwt beam="2">  1       -4 0.41993865E-01 0.13756351E+03</pdfrwt>
<totfact> 0.46798933E+04</totfact>
</mgrwt>
</event>
<event>
 6    4  0.3189516E-003  0.1277885E+03  0.7818608E-02  0.1230775E+00
         21   -1    0    0  501  502  0.00000000000E+00  0.00000000000E+00  0.10461894161E+03  0.10461894161E+03  0.00000000000E+00 0.  1.
         -4   -1    0    0    0  501 -0.00000000000E+00 -0.00000000000E+00 -0.88272688992E+02  0.88281824414E+02  0.12700000000E+01 0. -1.
         25    2    1    2    0    0 -0.25422625780E+02  0.77909576206E+01 -0.37208212456E+02  0.13309522655E+03  0.12499151705E+03 0.  0.
    9000005    1    3    3    0    0 -0.69262536931E+02 -0.24220740705E+02 -0.18605944937E+02  0.75704190699E+02  0.10000000000E+01 0.  0.
    9000005    1    3    3    0    0  0.43839911151E+02  0.32011698325E+02 -0.18602267519E+02  0.57391035853E+02  0.10000000000E+01 0.  0.
         -4    1    1    2    0  502  0.25422625780E+02 -0.77909576206E+01  0.53554465068E+02  0.59805539467E+02  0.12700000000E+01 0.  1.
<mgrwt>
<rscale>  1 0.12778845E+03</rscale>
<asrwt>0</asrwt>
<pdfrwt beam="1">  1       21 0.16095222E-01 0.12778845E+03</pdfrwt>
<pdfrwt beam="2">  1       -4 0.13581709E-01 0.12778845E+03</pdfrwt>
<totfact> 0.62112383E+04</totfact>
</mgrwt>
</event>
<event>
 6    4  0.3189516E-003  0.1411968E+03  0.7818608E-02  0.1211728E+00
         -4   -1    0    0    0  501 -0.00000000000E+00  0.00000000000E+00  0.13366108775E+03  0.13366712116E+03  0.12700000000E+01 0.  1.
         21   -1    0    0  501  502  0.00000000000E+00 -0.00000000000E+00 -0.10087598146E+03  0.10087598146E+03  0.00000000000E+00 0. -1.
         25    2    1    2    0    0 -0.88804035823E+01  0.65057167105E+02  0.71541858958E+02  0.15828698590E+03  0.12500094304E+03 0.  0.
    9000005    1    3    3    0    0 -0.43269997922E+01  0.85535850546E+02  0.20338715888E+01  0.85675208137E+02  0.10000000000E+01 0.  0.
    9000005    1    3    3    0    0 -0.45534037901E+01 -0.20478683440E+02  0.69507987369E+02  0.72611777761E+02  0.10000000000E+01 0.  0.
         -4    1    1    2    0  502  0.88804035823E+01 -0.65057167105E+02 -0.38756752665E+02  0.76256116717E+02  0.12700000000E+01 0. -1.
<mgrwt>
<rscale>  1 0.14119679E+03</rscale>
<asrwt>0</asrwt>
<pdfrwt beam="2">  1       21 0.15519382E-01 0.14119679E+03</pdfrwt>
<pdfrwt beam="1">  1       -4 0.20564324E-01 0.14119679E+03</pdfrwt>
<totfact> 0.32276308E+04</totfact>
</mgrwt>
</event>
<event>
 6    4  0.3189516E-003  0.1467542E+03  0.7818608E-02  0.1204519E+00
         21   -1    0    0  501  502  0.00000000000E+00  0.00000000000E+00  0.25112876498E+03  0.25112876498E+03  0.00000000000E+00 0.  1.
         -4   -1    0    0    0  501 -0.00000000000E+00 -0.00000000000E+00 -0.18483083656E+03  0.18483519968E+03  0.12700000000E+01 0. -1.
         25    2    1    2    0    0 -0.25954283685E+02 -0.72382266479E+02 -0.14791505326E+03  0.20836424638E+03  0.12499591531E+03 0.  0.
    9000005    1    3    3    0    0 -0.62697032377E+02 -0.23512825571E+02 -0.12728759045E+03  0.14382941812E+03  0.10000000000E+01 0.  0.
    9000005    1    3    3    0    0  0.36742748692E+02 -0.48869440908E+02 -0.20627462814E+02  0.64534828257E+02  0.10000000000E+01 0.  0.
         -4    1    1    2    0  502  0.25954283685E+02  0.72382266479E+02  0.21421298168E+03  0.22759971829E+03  0.12700000000E+01 0.  1.
<mgrwt>
<rscale>  1 0.14675420E+03</rscale>
<asrwt>0</asrwt>
<pdfrwt beam="1">  1       21 0.38635194E-01 0.14675420E+03</pdfrwt>
<pdfrwt beam="2">  1       -4 0.28436096E-01 0.14675420E+03</pdfrwt>
<totfact> 0.31629698E+03</totfact>
</mgrwt>
</event>
<event>
 6    4  0.3189516E-003  0.1304120E+03  0.7818608E-02  0.1226846E+00
          4   -1    0    0  502    0 -0.00000000000E+00  0.00000000000E+00  0.66839494680E+03  0.66839615335E+03  0.12700000000E+01 0. -1.
         21   -1    0    0  501  502  0.00000000000E+00 -0.00000000000E+00 -0.70098287833E+02  0.70098287833E+02  0.00000000000E+00 0.  1.
         25    2    1    2    0    0  0.36149645057E+02 -0.90013611546E+01  0.65652767770E+03  0.66935483037E+03  0.12497790212E+03 0.  0.
    9000005    1    3    3    0    0  0.45423782711E+02 -0.60682360852E+02  0.44465700342E+03  0.45107263234E+03  0.10000000000E+01 0.  0.
    9000005    1    3    3    0    0 -0.92741376538E+01  0.51680999697E+02  0.21187067428E+03  0.21828219803E+03  0.10000000000E+01 0.  0.
          4    1    1    2  501    0 -0.36149645057E+02  0.90013611546E+01 -0.58231018730E+02  0.69139610808E+02  0.12700000000E+01 0.  1.
<mgrwt>
<rscale>  1 0.13041203E+03</rscale>
<asrwt>0</asrwt>
<pdfrwt beam="2">  1       21 0.10784352E-01 0.13041203E+03</pdfrwt>
<pdfrwt beam="1">  1        4 0.10283096E+00 0.13041203E+03</pdfrwt>
<totfact> 0.23483747E+03</totfact>
</mgrwt>
</event>
<event>
 6    4  0.3189516E-003  0.1308306E+03  0.7818608E-02  0.1226228E+00
          4   -1    0    0  502    0 -0.00000000000E+00  0.00000000000E+00  0.11048225642E+03  0.11048955554E+03  0.12700000000E+01 0. -1.
         21   -1    0    0  501  502  0.00000000000E+00 -0.00000000000E+00 -0.10888509714E+03  0.10888509714E+03  0.00000000000E+00 0.  1.
         25    2    1    2    0    0  0.20716116039E+02  0.32580339932E+02  0.64261167598E+02  0.14576061290E+03  0.12500409033E+03 0.  0.
    9000005    1    3    3    0    0 -0.46834921924E+01  0.64899176965E+02 -0.49429091091E+01  0.65263087732E+02  0.10000000000E+01 0.  0.
    9000005    1    3    3    0    0  0.25399608231E+02 -0.32318837033E+02  0.69204076707E+02  0.80497525169E+02  0.10000000000E+01 0.  0.
          4    1    1    2  501    0 -0.20716116039E+02 -0.32580339932E+02 -0.62664008321E+02  0.73614039780E+02  0.12700000000E+01 0.  1.
<mgrwt>
<rscale>  1 0.13083065E+03</rscale>
<asrwt>0</asrwt>
<pdfrwt beam="2">  1       21 0.16751553E-01 0.13083065E+03</pdfrwt>
<pdfrwt beam="1">  1        4 0.16998401E-01 0.13083065E+03</pdfrwt>
<totfact> 0.39147461E+04</totfact>
</mgrwt>
</event>
<event>
 6    4  0.3189516E-003  0.3787769E+03  0.7818608E-02  0.1051387E+00
         -4   -1    0    0    0  501 -0.00000000000E+00  0.00000000000E+00  0.14247663773E+04  0.14247669433E+04  0.12700000000E+01 0. -1.
         21   -1    0    0  501  502  0.00000000000E+00 -0.00000000000E+00 -0.14825535956E+03  0.14825535956E+03  0.00000000000E+00 0.  1.
         25    2    1    2    0    0  0.31993976346E+03 -0.15964172230E+03  0.11207182313E+04  0.11829967435E+04  0.12500003805E+03 0.  0.
    9000005    1    3    3    0    0  0.22907455683E+03 -0.74139915246E+02  0.57846567827E+03  0.62657435357E+03  0.10000000000E+01 0.  0.
    9000005    1    3    3    0    0  0.90865206623E+02 -0.85501807052E+02  0.54225255304E+03  0.55642238997E+03  0.10000000000E+01 0.  0.
         -4    1    1    2    0  502 -0.31993976346E+03  0.15964172230E+03  0.15579278646E+03  0.39002555936E+03  0.12700000000E+01 0.  1.
<mgrwt>
<rscale>  1 0.37877690E+03</rscale>
<asrwt>0</asrwt>
<pdfrwt beam="2">  1       21 0.22808518E-01 0.37877690E+03</pdfrwt>
<pdfrwt beam="1">  1       -4 0.21919528E+00 0.37877690E+03</pdfrwt>
<totfact> 0.80048891E+01</totfact>
</mgrwt>
</event>
<event>
 6    4  0.3189516E-003  0.1426662E+03  0.7818608E-02  0.1209786E+00
         -4   -1    0    0    0  501 -0.00000000000E+00  0.00000000000E+00  0.66661251149E+03  0.66661372126E+03  0.12700000000E+01 0.  1.
         21   -1    0    0  501  502  0.00000000000E+00 -0.00000000000E+00 -0.76214367676E+02  0.76214367676E+02  0.00000000000E+00 0. -1.
         25    2    1    2    0    0  0.22579578051E+02  0.64951812316E+02  0.64148242993E+03  0.65715550022E+03  0.12500027317E+03 0.  0.
    9000005    1    3    3    0    0  0.41203429368E+02  0.24631535726E+02  0.75776669171E+02  0.89708075080E+02  0.10000000000E+01 0.  0.
    9000005    1    3    3    0    0 -0.18623851318E+02  0.40320276590E+02  0.56570576076E+03  0.56744742514E+03  0.10000000000E+01 0.  0.
         -4    1    1    2    0  502 -0.22579578051E+02 -0.64951812316E+02 -0.51084286122E+02  0.85672588712E+02  0.12700000000E+01 0. -1.
<mgrwt>
<rscale>  1 0.14266620E+03</rscale>
<asrwt>0</asrwt>
<pdfrwt beam="2">  1       21 0.11725288E-01 0.14266620E+03</pdfrwt>
<pdfrwt beam="1">  1       -4 0.10255667E+00 0.14266620E+03</pdfrwt>
<totfact> 0.20480461E+03</totfact>
</mgrwt>
</event>
<event>
 6    4  0.3189516E-003  0.1274751E+03  0.7818608E-02  0.1231251E+00
         21   -1    0    0  501  502  0.00000000000E+00  0.00000000000E+00  0.12266541694E+03  0.12266541694E+03  0.00000000000E+00 0.  1.
         -4   -1    0    0    0  501 -0.00000000000E+00 -0.00000000000E+00 -0.80452369178E+02  0.80462392497E+02  0.12700000000E+01 0.  1.
         25    2    1    2    0    0 -0.24986708802E+02  0.70229579825E+00 -0.26323037816E+02  0.13016455319E+03  0.12500031900E+03 0.  0.
    9000005    1    3    3    0    0 -0.22419685086E+02 -0.61348249685E+02 -0.11878373851E+02  0.66395374719E+02  0.10000000000E+01 0.  0.
    9000005    1    3    3    0    0 -0.25670237151E+01  0.62050545483E+02 -0.14444663965E+02  0.63769178469E+02  0.10000000000E+01 0.  0.
         -4    1    1    2    0  502  0.24986708802E+02 -0.70229579825E+00  0.68536085582E+02  0.72963256253E+02  0.12700000000E+01 0. -1.
<mgrwt>
<rscale>  1 0.12747513E+03</rscale>
<asrwt>0</asrwt>
<pdfrwt beam="1">  1       21 0.18871603E-01 0.12747513E+03</pdfrwt>
<pdfrwt beam="2">  1       -4 0.12378564E-01 0.12747513E+03</pdfrwt>
<totfact> 0.54477269E+04</totfact>
</mgrwt>
</event>
<event>
 6    4  0.3189516E-003  0.1274674E+03  0.7818608E-02  0.1231263E+00
         21   -1    0    0  501  502  0.00000000000E+00  0.00000000000E+00  0.57754955928E+02  0.57754955928E+02  0.00000000000E+00 0.  1.
          4   -1    0    0  502    0 -0.00000000000E+00 -0.00000000000E+00 -0.10704264734E+03  0.10705018099E+03  0.12700000000E+01 0.  1.
         25    2    1    2    0    0 -0.11737810914E+02 -0.22011535888E+02 -0.55562966879E+02  0.13905099357E+03  0.12500260641E+03 0.  0.
    9000005    1    3    3    0    0 -0.46472373078E+02  0.34775016243E+02 -0.40529635422E+02  0.70799961593E+02  0.10000000000E+01 0.  0.
    9000005    1    3    3    0    0  0.34734562163E+02 -0.56786552131E+02 -0.15033331457E+02  0.68251031980E+02  0.10000000000E+01 0.  0.
          4    1    1    2  501    0  0.11737810914E+02  0.22011535888E+02  0.62752754649E+01  0.25754143344E+02  0.12700000000E+01 0. -1.
<mgrwt>
<rscale>  1 0.12746739E+03</rscale>
<asrwt>0</asrwt>
<pdfrwt beam="1">  1       21 0.88853779E-02 0.12746739E+03</pdfrwt>
<pdfrwt beam="2">  1        4 0.16469753E-01 0.12746739E+03</pdfrwt>
<totfact> 0.12712810E+05</totfact>
</mgrwt>
</event>
<event>
 6    4  0.3189516E-003  0.1296211E+03  0.7818608E-02  0.1228019E+00
         -4   -1    0    0    0  501 -0.00000000000E+00  0.00000000000E+00  0.30933136426E+03  0.30933397132E+03  0.12700000000E+01 0.  1.
         21   -1    0    0  501  502  0.00000000000E+00 -0.00000000000E+00 -0.21885985463E+02  0.21885985463E+02  0.00000000000E+00 0.  1.
         25    2    1    2    0    0  0.21915163965E+02 -0.26379203483E+02  0.21487245950E+03  0.25094182587E+03  0.12500195731E+03 0.  0.
    9000005    1    3    3    0    0  0.22040207895E+02  0.45459232250E+02  0.13155473806E+03  0.14092537623E+03  0.10000000000E+01 0.  0.
    9000005    1    3    3    0    0 -0.12504392976E+00 -0.71838435734E+02  0.83317721441E+02  0.11001644964E+03  0.10000000000E+01 0.  0.
         -4    1    1    2    0  502 -0.21915163965E+02  0.26379203483E+02  0.72572919293E+02  0.80278130913E+02  0.12700000000E+01 0. -1.
<mgrwt>
<rscale>  1 0.12962109E+03</rscale>
<asrwt>0</asrwt>
<pdfrwt beam="2">  1       21 0.33670749E-02 0.12962109E+03</pdfrwt>
<pdfrwt beam="1">  1       -4 0.47592472E-01 0.12962109E+03</pdfrwt>
<totfact> 0.89538393E+04</totfact>
</mgrwt>
</event>
<event>
 6    4  0.3189516E-003  0.1274432E+03  0.7818608E-02  0.1231300E+00
          4   -1    0    0  502    0 -0.00000000000E+00  0.00000000000E+00  0.16579819532E+03  0.16580305929E+03  0.12700000000E+01 0.  1.
         21   -1    0    0  501  502  0.00000000000E+00 -0.00000000000E+00 -0.48789911626E+02  0.48789911626E+02  0.00000000000E+00 0. -1.
         25    2    1    2    0    0 -0.11731776108E+02  0.21894162126E+02  0.13364555273E+03  0.18466972700E+03  0.12499914159E+03 0.  0.
    9000005    1    3    3    0    0 -0.31443436419E+02  0.67609902976E+02  0.99286312480E+02  0.12417149641E+03  0.10000000000E+01 0.  0.
    9000005    1    3    3    0    0  0.19711660311E+02 -0.45715740850E+02  0.34359240251E+02  0.60498230588E+02  0.10000000000E+01 0.  0.
          4    1    1    2  501    0  0.11731776108E+02 -0.21894162126E+02 -0.16637269038E+02  0.29923243924E+02  0.12700000000E+01 0. -1.
<mgrwt>
<rscale>  1 0.12744322E+03</rscale>
<asrwt>0</asrwt>
<pdfrwt beam="2">  1       21 0.75061403E-02 0.12744322E+03</pdfrwt>
<pdfrwt beam="1">  1        4 0.25509060E-01 0.12744322E+03</pdfrwt>
<totfact> 0.77305636E+04</totfact>
</mgrwt>
</event>
<event>
 6    4  0.3189516E-003  0.1277188E+03  0.7818608E-02  0.1230880E+00
         21   -1    0    0  501  502  0.00000000000E+00  0.00000000000E+00  0.80233667116E+02  0.80233667116E+02  0.00000000000E+00 0.  1.
          4   -1    0    0  502    0 -0.00000000000E+00 -0.00000000000E+00 -0.88240258069E+02  0.88249396848E+02  0.12700000000E+01 0.  1.
         25    2    1    2    0    0  0.24604991295E+02  0.90788079233E+01  0.20915312126E+02  0.12942004145E+03  0.12499706596E+03 0.  0.
    9000005    1    3    3    0    0 -0.45373671472E+02 -0.80813671291E+01  0.32544322405E+02  0.56428817800E+02  0.10000000000E+01 0.  0.
    9000005    1    3    3    0    0  0.69978662767E+02  0.17160175052E+02 -0.11629010279E+02  0.72991223654E+02  0.10000000000E+01 0.  0.
          4    1    1    2  501    0 -0.24604991295E+02 -0.90788079233E+01 -0.28921903078E+02  0.39063022510E+02  0.12700000000E+01 0. -1.
<mgrwt>
<rscale>  1 0.12771882E+03</rscale>
<asrwt>0</asrwt>
<pdfrwt beam="1">  1       21 0.12343641E-01 0.12771882E+03</pdfrwt>
<pdfrwt beam="2">  1        4 0.13576900E-01 0.12771882E+03</pdfrwt>
<totfact> 0.10002777E+05</totfact>
</mgrwt>
</event>
<event>
 6    4  0.3189516E-003  0.1269700E+03  0.7818608E-02  0.1232022E+00
         21   -1    0    0  501  502  0.00000000000E+00  0.00000000000E+00  0.41852782481E+02  0.41852782481E+02  0.00000000000E+00 0.  1.
         -4   -1    0    0    0  501 -0.00000000000E+00 -0.00000000000E+00 -0.20418296986E+03  0.20418691946E+03  0.12700000000E+01 0. -1.
         25    2    1    2    0    0  0.39732223713E+01  0.21885166432E+02 -0.17811315447E+03  0.21873655275E+03  0.12500654665E+03 0.  0.
    9000005    1    3    3    0    0 -0.36562347482E+02 -0.10563185315E+02 -0.54825403363E+01  0.38463546195E+02  0.10000000000E+01 0.  0.
    9000005    1    3    3    0    0  0.40535569853E+02  0.32448351747E+02 -0.17263061413E+03  0.18027300655E+03  0.10000000000E+01 0.  0.
         -4    1    1    2    0  502 -0.39732223713E+01 -0.21885166432E+02  0.15782967094E+02  0.27303149197E+02  0.12700000000E+01 0.  1.
<mgrwt>
<rscale>  1 0.12697001E+03</rscale>
<asrwt>0</asrwt>
<pdfrwt beam="1">  1       21 0.64388896E-02 0.12697001E+03</pdfrwt>
<pdfrwt beam="2">  1       -4 0.31414551E-01 0.12697001E+03</pdfrwt>
<totfact> 0.67989852E+04</totfact>
</mgrwt>
</event>
<event>
 6    4  0.3189516E-003  0.1475482E+03  0.7818608E-02  0.1203519E+00
         -4   -1    0    0    0  501 -0.00000000000E+00  0.00000000000E+00  0.73513080050E+03  0.73513189752E+03  0.12700000000E+01 0. -1.
         21   -1    0    0  501  502  0.00000000000E+00 -0.00000000000E+00 -0.25360008041E+02  0.25360008041E+02  0.00000000000E+00 0.  1.
         25    2    1    2    0    0 -0.56337992078E+02 -0.54600892224E+02  0.63566195927E+03  0.65256156302E+03  0.12496095505E+03 0.  0.
    9000005    1    3    3    0    0 -0.65885820514E+02 -0.89608992729E+02  0.47464536146E+03  0.48750377647E+03  0.10000000000E+01 0.  0.
    9000005    1    3    3    0    0  0.95478284354E+01  0.35008100505E+02  0.16101659781E+03  0.16505778655E+03  0.10000000000E+01 0.  0.
         -4    1    1    2    0  502  0.56337992078E+02  0.54600892224E+02  0.74108833191E+02  0.10793034254E+03  0.12700000000E+01 0.  1.
<mgrwt>
<rscale>  1 0.14754819E+03</rscale>
<asrwt>0</asrwt>
<pdfrwt beam="2">  1       21 0.39015403E-02 0.14754819E+03</pdfrwt>
<pdfrwt beam="1">  1       -4 0.11309956E+00 0.14754819E+03</pdfrwt>
<totfact> 0.10756044E+04</totfact>
</mgrwt>
</event>
<event>
 6    4  0.3189516E-003  0.1304881E+03  0.7818608E-02  0.1226733E+00
         21   -1    0    0  501  502  0.00000000000E+00  0.00000000000E+00  0.91463779794E+02  0.91463779794E+02  0.00000000000E+00 0. -1.
          4   -1    0    0  502    0 -0.00000000000E+00 -0.00000000000E+00 -0.78559719780E+02  0.78569984548E+02  0.12700000000E+01 0. -1.
         25    2    1    2    0    0 -0.29601459646E+02  0.22939106308E+02  0.26384723668E+00  0.13048838673E+03  0.12499880177E+03 0.  0.
    9000005    1    3    3    0    0  0.48699684945E+02  0.11412831410E+00  0.36949858359E+01  0.48850028243E+02  0.10000000000E+01 0.  0.
    9000005    1    3    3    0    0 -0.78301144590E+02  0.22824977994E+02 -0.34311385992E+01  0.81638358488E+02  0.10000000000E+01 0.  0.
          4    1    1    2  501    0  0.29601459646E+02 -0.22939106308E+02  0.12640212777E+02  0.39545377612E+02  0.12700000000E+01 0.  1.
<mgrwt>
<rscale>  1 0.13048812E+03</rscale>
<asrwt>0</asrwt>
<pdfrwt beam="1">  1       21 0.14071351E-01 0.13048812E+03</pdfrwt>
<pdfrwt beam="2">  1        4 0.12087579E-01 0.13048812E+03</pdfrwt>
<totfact> 0.96969143E+04</totfact>
</mgrwt>
</event>
<event>
 6    4  0.3189516E-003  0.1295877E+03  0.7818608E-02  0.1228069E+00
         -4   -1    0    0    0  501 -0.00000000000E+00  0.00000000000E+00  0.25471725062E+03  0.25472041666E+03  0.12700000000E+01 0. -1.
         21   -1    0    0  501  502  0.00000000000E+00 -0.00000000000E+00 -0.26534709438E+02  0.26534709438E+02  0.00000000000E+00 0.  1.
         25    2    1    2    0    0  0.34148350235E+02 -0.17266593014E+01  0.19000543112E+03  0.22998919386E+03  0.12499549695E+03 0.  0.
    9000005    1    3    3    0    0  0.24039375072E+02  0.60849888371E+02  0.10890656926E+03  0.12705212040E+03  0.10000000000E+01 0.  0.
    9000005    1    3    3    0    0  0.10108975163E+02 -0.62576547672E+02  0.81098861861E+02  0.10293707346E+03  0.10000000000E+01 0.  0.
         -4    1    1    2    0  502 -0.34148350235E+02  0.17266593014E+01  0.38177110060E+02  0.51265932242E+02  0.12700000000E+01 0.  1.
<mgrwt>
<rscale>  1 0.12958767E+03</rscale>
<asrwt>0</asrwt>
<pdfrwt beam="2">  1       21 0.40822632E-02 0.12958767E+03</pdfrwt>
<pdfrwt beam="1">  1       -4 0.39189849E-01 0.12958767E+03</pdfrwt>
<totfact> 0.95787923E+04</totfact>
</mgrwt>
</event>
<event>
 6    4  0.3189516E-003  0.1313821E+03  0.7818608E-02  0.1225419E+00
          4   -1    0    0  502    0 -0.00000000000E+00  0.00000000000E+00  0.15811986918E+03  0.15812496934E+03  0.12700000000E+01 0.  1.
         21   -1    0    0  501  502  0.00000000000E+00 -0.00000000000E+00 -0.11975213064E+03  0.11975213064E+03  0.00000000000E+00 0. -1.
         25    2    1    2    0    0  0.24937170353E+02  0.31733672390E+02  0.12559535097E+03  0.18175656264E+03  0.12502946632E+03 0.  0.
    9000005    1    3    3    0    0  0.41032940011E+02 -0.40311307975E+02  0.53277901626E+02  0.78410704105E+02  0.10000000000E+01 0.  0.
    9000005    1    3    3    0    0 -0.16095769657E+02  0.72044980365E+02  0.72317449340E+02  0.10334585853E+03  0.10000000000E+01 0.  0.
          4    1    1    2  501    0 -0.24937170353E+02 -0.31733672390E+02 -0.87227612428E+02  0.96120537340E+02  0.12700000000E+01 0. -1.
<mgrwt>
<rscale>  1 0.13138210E+03</rscale>
<asrwt>0</asrwt>
<pdfrwt beam="2">  1       21 0.18423405E-01 0.13138210E+03</pdfrwt>
<pdfrwt beam="1">  1        4 0.24327044E-01 0.13138210E+03</pdfrwt>
<totfact> 0.17256416E+04</totfact>
</mgrwt>
</event>
<event>
 6    4  0.3189516E-003  0.1275239E+03  0.7818608E-02  0.1231177E+00
         21   -1    0    0  501  502  0.00000000000E+00  0.00000000000E+00  0.20065768509E+02  0.20065768509E+02  0.00000000000E+00 0. -1.
          4   -1    0    0  502    0 -0.00000000000E+00 -0.00000000000E+00 -0.12326781391E+04  0.12326787933E+04  0.12700000000E+01 0.  1.
         25    2    1    2    0    0 -0.15289268215E+01  0.25186464112E+02 -0.12198231770E+04  0.12264709206E+04  0.12500256124E+03 0.  0.
    9000005    1    3    3    0    0  0.52320599117E+02  0.46075155374E+02 -0.65326136428E+03  0.65697166993E+03  0.10000000000E+01 0.  0.
    9000005    1    3    3    0    0 -0.53849525938E+02 -0.20888691263E+02 -0.56656181276E+03  0.56949925070E+03  0.10000000000E+01 0.  0.
          4    1    1    2  501    0  0.15289268215E+01 -0.25186464112E+02  0.72108064604E+01  0.26273641192E+02  0.12700000000E+01 0. -1.
<mgrwt>
<rscale>  1 0.12752386E+03</rscale>
<asrwt>0</asrwt>
<pdfrwt beam="1">  1       21 0.30870407E-02 0.12752386E+03</pdfrwt>
<pdfrwt beam="2">  1        4 0.18964597E+00 0.12752386E+03</pdfrwt>
<totfact> 0.42004858E+03</totfact>
</mgrwt>
</event>
<event>
 6    4  0.3189516E-003  0.1277052E+03  0.7818608E-02  0.1230901E+00
          4   -1    0    0  502    0 -0.00000000000E+00  0.00000000000E+00  0.34982036374E+03  0.34982266906E+03  0.12700000000E+01 0. -1.
         21   -1    0    0  501  502  0.00000000000E+00 -0.00000000000E+00 -0.19586480551E+02  0.19586480551E+02  0.00000000000E+00 0.  1.
         25    2    1    2    0    0 -0.25427781351E+02  0.59629846280E+01  0.31311279491E+03  0.33815416899E+03  0.12500596152E+03 0.  0.
    9000005    1    3    3    0    0  0.14745067200E+02  0.57844112484E+02  0.11698391707E+03  0.13133771435E+03  0.10000000000E+01 0.  0.
    9000005    1    3    3    0    0 -0.40172848550E+02 -0.51881127856E+02  0.19612887784E+03  0.20681645464E+03  0.10000000000E+01 0.  0.
          4    1    1    2  501    0  0.25427781351E+02 -0.59629846280E+01  0.17121088283E+02  0.31254980628E+02  0.12700000000E+01 0.  1.
<mgrwt>
<rscale>  1 0.12770521E+03</rscale>
<asrwt>0</asrwt>
<pdfrwt beam="2">  1       21 0.30133050E-02 0.12770521E+03</pdfrwt>
<pdfrwt beam="1">  1        4 0.53821857E-01 0.12770521E+03</pdfrwt>
<totfact> 0.83448007E+04</totfact>
</mgrwt>
</event>
<event>
 6    4  0.3189516E-003  0.1693649E+03  0.7818608E-02  0.1178512E+00
         21   -1    0    0  501  502  0.00000000000E+00  0.00000000000E+00  0.47298711821E+03  0.47298711821E+03  0.00000000000E+00 0.  1.
          4   -1    0    0  502    0 -0.00000000000E+00 -0.00000000000E+00 -0.45507475243E+02  0.45525193058E+02  0.12700000000E+01 0. -1.
         25    2    1    2    0    0  0.90932720103E+02 -0.69212691877E+02  0.18723583905E+03  0.25247123451E+03  0.12500123410E+03 0.  0.
    9000005    1    3    3    0    0 -0.41497045498E+01 -0.73571326128E+02  0.72328493757E+02  0.10325875791E+03  0.10000000000E+01 0.  0.
    9000005    1    3    3    0    0  0.95082424653E+02  0.43586342509E+01  0.11490734529E+03  0.14921247660E+03  0.10000000000E+01 0.  0.
          4    1    1    2  501    0 -0.90932720103E+02  0.69212691877E+02  0.24024380392E+03  0.26604107676E+03  0.12700000000E+01 0.  1.
<mgrwt>
<rscale>  1 0.16936489E+03</rscale>
<asrwt>0</asrwt>
<pdfrwt beam="1">  1       21 0.72767246E-01 0.16936489E+03</pdfrwt>
<pdfrwt beam="2">  1        4 0.70026444E-02 0.16936489E+03</pdfrwt>
<totfact> 0.97972376E+03</totfact>
</mgrwt>
</event>
<event>
 6    4  0.3189516E-003  0.1323712E+03  0.7818608E-02  0.1223979E+00
         -4   -1    0    0    0  501 -0.00000000000E+00  0.00000000000E+00  0.12557511513E+03  0.12558153702E+03  0.12700000000E+01 0. -1.
         21   -1    0    0  501  502  0.00000000000E+00 -0.00000000000E+00 -0.72984963180E+02  0.72984963180E+02  0.00000000000E+00 0.  1.
         25    2    1    2    0    0 -0.12260451462E+02 -0.41793527452E+02  0.72203045156E+02  0.15078265265E+03  0.12500044401E+03 0.  0.
    9000005    1    3    3    0    0  0.96098156322E+01  0.30312506729E+02  0.68275176531E+02  0.75323942748E+02  0.10000000000E+01 0.  0.
    9000005    1    3    3    0    0 -0.21870267094E+02 -0.72106034181E+02  0.39278686248E+01  0.75458709902E+02  0.10000000000E+01 0.  0.
         -4    1    1    2    0  502  0.12260451462E+02  0.41793527452E+02 -0.19612893204E+02  0.47783847551E+02  0.12700000000E+01 0.  1.
<mgrwt>
<rscale>  1 0.13237118E+03</rscale>
<asrwt>0</asrwt>
<pdfrwt beam="2">  1       21 0.11228456E-01 0.13237118E+03</pdfrwt>
<pdfrwt beam="1">  1       -4 0.19320592E-01 0.13237118E+03</pdfrwt>
<totfact> 0.63919376E+04</totfact>
</mgrwt>
</event>
<event>
 6    4  0.3189516E-003  0.1506813E+03  0.7818608E-02  0.1199638E+00
          4   -1    0    0  502    0 -0.00000000000E+00  0.00000000000E+00  0.18879017990E+03  0.18879445153E+03  0.12700000000E+01 0. -1.
         21   -1    0    0  501  502  0.00000000000E+00 -0.00000000000E+00 -0.22951604576E+03  0.22951604576E+03  0.00000000000E+00 0.  1.
         25    2    1    2    0    0  0.79283225575E+02  0.28187096785E+02  0.14828744239E+03  0.21140958893E+03  0.12499802573E+03 0.  0.
    9000005    1    3    3    0    0  0.28088632066E+02 -0.49900072502E+02  0.58491570764E+02  0.81861177230E+02  0.10000000000E+01 0.  0.
    9000005    1    3    3    0    0  0.51194593509E+02  0.78087169287E+02  0.89795871629E+02  0.12954841170E+03  0.10000000000E+01 0.  0.
          4    1    1    2  501    0 -0.79283225575E+02 -0.28187096785E+02 -0.18901330826E+03  0.20690090836E+03  0.12700000000E+01 0.  1.
<mgrwt>
<rscale>  1 0.15068128E+03</rscale>
<asrwt>0</asrwt>
<pdfrwt beam="2">  1       21 0.35310161E-01 0.15068128E+03</pdfrwt>
<pdfrwt beam="1">  1        4 0.29045242E-01 0.15068128E+03</pdfrwt>
<totfact> 0.36385140E+03</totfact>
</mgrwt>
</event>
<event>
 6    4  0.3189516E-003  0.1367444E+03  0.7818608E-02  0.1217778E+00
         -4   -1    0    0    0  501 -0.00000000000E+00  0.00000000000E+00  0.14390980829E+02  0.14446910716E+02  0.12700000000E+01 0. -1.
         21   -1    0    0  501  502  0.00000000000E+00 -0.00000000000E+00 -0.10505628297E+04  0.10505628297E+04  0.00000000000E+00 0.  1.
         25    2    1    2    0    0 -0.43589216134E+02  0.34235316642E+02 -0.33762007233E+03  0.36426137326E+03  0.12500783231E+03 0.  0.
    9000005    1    3    3    0    0 -0.72569533511E+02 -0.26602033785E+01 -0.28338263099E+03  0.29254081668E+03  0.10000000000E+01 0.  0.
    9000005    1    3    3    0    0  0.28980317378E+02  0.36895520020E+02 -0.54237441344E+02  0.71720556582E+02  0.10000000000E+01 0.  0.
         -4    1    1    2    0  502  0.43589216134E+02 -0.34235316642E+02 -0.69855177659E+03  0.70074836721E+03  0.12700000000E+01 0.  1.
<mgrwt>
<rscale>  1 0.13674441E+03</rscale>
<asrwt>0</asrwt>
<pdfrwt beam="2">  1       21 0.16162508E+00 0.13674441E+03</pdfrwt>
<pdfrwt beam="1">  1       -4 0.22183580E-02 0.13674441E+03</pdfrwt>
<totfact> 0.88577279E+03</totfact>
</mgrwt>
</event>
<event>
 6    4  0.3189516E-003  0.1311761E+03  0.7818608E-02  0.1225721E+00
         21   -1    0    0  501  502  0.00000000000E+00  0.00000000000E+00  0.62792153741E+02  0.62792153741E+02  0.00000000000E+00 0.  1.
          4   -1    0    0  502    0 -0.00000000000E+00 -0.00000000000E+00 -0.11878377360E+03  0.11879056264E+03  0.12700000000E+01 0.  1.
         25    2    1    2    0    0 -0.16817652635E+02 -0.36042041574E+02 -0.53642634035E+02  0.14172054339E+03  0.12500127212E+03 0.  0.
    9000005    1    3    3    0    0 -0.12493977299E+02  0.42486796885E+02  0.35977967480E+01  0.44442901792E+02  0.10000000000E+01 0.  0.
    9000005    1    3    3    0    0 -0.43236753361E+01 -0.78528838459E+02 -0.57240430783E+02  0.97277641595E+02  0.10000000000E+01 0.  0.
          4    1    1    2  501    0  0.16817652635E+02  0.36042041574E+02 -0.23489858259E+01  0.39862172989E+02  0.12700000000E+01 0. -1.
<mgrwt>
<rscale>  1 0.13117614E+03</rscale>
<asrwt>0</asrwt>
<pdfrwt beam="1">  1       21 0.96603315E-02 0.13117614E+03</pdfrwt>
<pdfrwt beam="2">  1        4 0.18275937E-01 0.13117614E+03</pdfrwt>
<totfact> 0.91803380E+04</totfact>
</mgrwt>
</event>
<event>
 6    4  0.3189516E-003  0.1317505E+03  0.7818608E-02  0.1224881E+00
         -4   -1    0    0    0  501 -0.00000000000E+00  0.00000000000E+00  0.54964505863E+02  0.54979176102E+02  0.12700000000E+01 0.  1.
         21   -1    0    0  501  502  0.00000000000E+00 -0.00000000000E+00 -0.14165280592E+03  0.14165280592E+03  0.00000000000E+00 0. -1.
         25    2    1    2    0    0 -0.19108529243E+02  0.36964245317E+02 -0.49285904966E+02  0.14066732014E+03  0.12500681263E+03 0.  0.
    9000005    1    3    3    0    0  0.44382365525E+02  0.50000509656E+02 -0.27198994894E+02  0.72184698231E+02  0.10000000000E+01 0.  0.
    9000005    1    3    3    0    0 -0.63490894768E+02 -0.13036264339E+02 -0.22086910072E+02  0.68482621904E+02  0.10000000000E+01 0.  0.
         -4    1    1    2    0  502  0.19108529243E+02 -0.36964245317E+02 -0.37402395094E+02  0.55964661889E+02  0.12700000000E+01 0. -1.
<mgrwt>
<rscale>  1 0.13175050E+03</rscale>
<asrwt>0</asrwt>
<pdfrwt beam="2">  1       21 0.21792739E-01 0.13175050E+03</pdfrwt>
<pdfrwt beam="1">  1       -4 0.84576443E-02 0.13175050E+03</pdfrwt>
<totfact> 0.79676450E+04</totfact>
</mgrwt>
</event>
<event>
 6    4  0.3189516E-003  0.1427008E+03  0.7818608E-02  0.1209740E+00
         21   -1    0    0  501  502  0.00000000000E+00  0.00000000000E+00  0.43285814753E+03  0.43285814753E+03  0.00000000000E+00 0.  1.
         -4   -1    0    0    0  501 -0.00000000000E+00 -0.00000000000E+00 -0.38607000789E+02  0.38627883840E+02  0.12700000000E+01 0. -1.
         25    2    1    2    0    0  0.19056677420E+02  0.66174408767E+02  0.11328327340E+03  0.18219937755E+03  0.12498521439E+03 0.  0.
    9000005    1    3    3    0    0  0.38478980863E+02  0.88972418110E+02  0.43500301316E+02  0.10625440870E+03  0.10000000000E+01 0.  0.
    9000005    1    3    3    0    0 -0.19422303443E+02 -0.22798009343E+02  0.69782972084E+02  0.75944968852E+02  0.10000000000E+01 0.  0.
         -4    1    1    2    0  502 -0.19056677420E+02 -0.66174408767E+02  0.28096787334E+03  0.28928665382E+03  0.12700000000E+01 0.  1.
<mgrwt>
<rscale>  1 0.14270078E+03</rscale>
<asrwt>0</asrwt>
<pdfrwt beam="1">  1       21 0.66593558E-01 0.14270078E+03</pdfrwt>
<pdfrwt beam="2">  1       -4 0.59412886E-02 0.14270078E+03</pdfrwt>
<totfact> 0.15400579E+04</totfact>
</mgrwt>
</event>
<event>
 6    4  0.3189516E-003  0.1454642E+03  0.7818608E-02  0.1206160E+00
         21   -1    0    0  501  502  0.00000000000E+00  0.00000000000E+00  0.71038940891E+03  0.71038940891E+03  0.00000000000E+00 0. -1.
         -4   -1    0    0    0  501 -0.00000000000E+00 -0.00000000000E+00 -0.34107925136E+02  0.34131561011E+02  0.12700000000E+01 0.  1.
         25    2    1    2    0    0 -0.63948193876E+02 -0.38061953729E+02  0.13600256263E+03  0.19913944350E+03  0.12498694770E+03 0.  0.
    9000005    1    3    3    0    0 -0.80323489038E+02 -0.26537351776E+02  0.15168732656E+03  0.17368402048E+03  0.10000000000E+01 0.  0.
    9000005    1    3    3    0    0  0.16375295163E+02 -0.11524601953E+02 -0.15684763932E+02  0.25455423026E+02  0.10000000000E+01 0.  0.
         -4    1    1    2    0  502  0.63948193876E+02  0.38061953729E+02  0.54027892115E+03  0.54538152642E+03  0.12700000000E+01 0. -1.
<mgrwt>
<rscale>  1 0.14546416E+03</rscale>
<asrwt>0</asrwt>
<pdfrwt beam="1">  1       21 0.10929067E+00 0.14546416E+03</pdfrwt>
<pdfrwt beam="2">  1       -4 0.52492791E-02 0.14546416E+03</pdfrwt>
<totfact> 0.61060916E+03</totfact>
</mgrwt>
</event>
<event>
 6    4  0.3189516E-003  0.1339140E+03  0.7818608E-02  0.1221761E+00
          4   -1    0    0  502    0 -0.00000000000E+00  0.00000000000E+00  0.83734501586E+02  0.83744132068E+02  0.12700000000E+01 0.  1.
         21   -1    0    0  501  502  0.00000000000E+00 -0.00000000000E+00 -0.12882596687E+03  0.12882596687E+03  0.00000000000E+00 0.  1.
         25    2    1    2    0    0  0.47913073759E+02  0.32833844354E+01  0.15983195496E+02  0.13486443415E+03  0.12500603910E+03 0.  0.
    9000005    1    3    3    0    0 -0.26044942692E+02 -0.20469897258E+02 -0.29904278202E+02  0.44638790175E+02  0.10000000000E+01 0.  0.
    9000005    1    3    3    0    0  0.73958016451E+02  0.23753281693E+02  0.45887473698E+02  0.90225643976E+02  0.10000000000E+01 0.  0.
          4    1    1    2  501    0 -0.47913073759E+02 -0.32833844354E+01 -0.61074660778E+02  0.77705664784E+02  0.12700000000E+01 0. -1.
<mgrwt>
<rscale>  1 0.13391398E+03</rscale>
<asrwt>0</asrwt>
<pdfrwt beam="2">  1       21 0.19819379E-01 0.13391398E+03</pdfrwt>
<pdfrwt beam="1">  1        4 0.12883453E-01 0.13391398E+03</pdfrwt>
<totfact> 0.46747394E+04</totfact>
</mgrwt>
</event>
<event>
 6    4  0.3189516E-003  0.1266376E+03  0.7818608E-02  0.1232532E+00
          4   -1    0    0  502    0 -0.00000000000E+00  0.00000000000E+00  0.21928197622E+03  0.21928565387E+03  0.12700000000E+01 0.  1.
         21   -1    0    0  501  502  0.00000000000E+00 -0.00000000000E+00 -0.31364459989E+02  0.31364459989E+02  0.00000000000E+00 0.  1.
         25    2    1    2    0    0 -0.15357951358E+02 -0.13281539081E+02  0.19190107741E+03  0.22991975906E+03  0.12499922459E+03 0.  0.
    9000005    1    3    3    0    0  0.36050288876E+02  0.36802912659E+02  0.10686563806E+03  0.11863954781E+03  0.10000000000E+01 0.  0.
    9000005    1    3    3    0    0 -0.51408240234E+02 -0.50084451740E+02  0.85035439352E+02  0.11128021125E+03  0.10000000000E+01 0.  0.
          4    1    1    2  501    0  0.15357951358E+02  0.13281539081E+02 -0.39835611817E+01  0.20730354796E+02  0.12700000000E+01 0. -1.
<mgrwt>
<rscale>  1 0.12663756E+03</rscale>
<asrwt>0</asrwt>
<pdfrwt beam="2">  1       21 0.48253017E-02 0.12663756E+03</pdfrwt>
<pdfrwt beam="1">  1        4 0.33737948E-01 0.12663756E+03</pdfrwt>
<totfact> 0.96535737E+04</totfact>
</mgrwt>
</event>
<event>
 6    4  0.3189516E-003  0.1370098E+03  0.7818608E-02  0.1217410E+00
         21   -1    0    0  501  502  0.00000000000E+00  0.00000000000E+00  0.11144728034E+03  0.11144728034E+03  0.00000000000E+00 0. -1.
         -4   -1    0    0    0  501 -0.00000000000E+00 -0.00000000000E+00 -0.98377334426E+02  0.98385531603E+02  0.12700000000E+01 0.  1.
         25    2    1    2    0    0 -0.42834709168E+02 -0.36229218263E+02 -0.28567999207E+02  0.13995649307E+03  0.12499728320E+03 0.  0.
    9000005    1    3    3    0    0 -0.61989512546E+02 -0.20948794237E+02  0.33284793839E+02  0.73419541994E+02  0.10000000000E+01 0.  0.
    9000005    1    3    3    0    0  0.19154803378E+02 -0.15280424026E+02 -0.61852793046E+02  0.66536951076E+02  0.10000000000E+01 0.  0.
         -4    1    1    2    0  502  0.42834709168E+02  0.36229218263E+02  0.41637945118E+02  0.69876318872E+02  0.12700000000E+01 0. -1.
<mgrwt>
<rscale>  1 0.13700981E+03</rscale>
<asrwt>0</asrwt>
<pdfrwt beam="1">  1       21 0.17145735E-01 0.13700981E+03</pdfrwt>
<pdfrwt beam="2">  1       -4 0.15136162E-01 0.13700981E+03</pdfrwt>
<totfact> 0.46251029E+04</totfact>
</mgrwt>
</event>
<event>
 6    4  0.3189516E-003  0.1276595E+03  0.7818608E-02  0.1230971E+00
         21   -1    0    0  501  502  0.00000000000E+00  0.00000000000E+00  0.15235366186E+03  0.15235366186E+03  0.00000000000E+00 0. -1.
         -4   -1    0    0    0  501 -0.00000000000E+00 -0.00000000000E+00 -0.39551539124E+02  0.39571923722E+02  0.12700000000E+01 0. -1.
         25    2    1    2    0    0  0.13433650250E+02  0.22181862799E+02  0.82388627244E+02  0.15193694214E+03  0.12499780195E+03 0.  0.
    9000005    1    3    3    0    0  0.14403663711E+02 -0.48776705611E+02  0.12612111622E+02  0.52408948645E+02  0.10000000000E+01 0.  0.
    9000005    1    3    3    0    0 -0.97001346143E+00  0.70958568409E+02  0.69776515621E+02  0.99527993495E+02  0.10000000000E+01 0.  0.
         -4    1    1    2    0  502 -0.13433650250E+02 -0.22181862799E+02  0.30413495488E+02  0.39988643438E+02  0.12700000000E+01 0.  1.
<mgrwt>
<rscale>  1 0.12765950E+03</rscale>
<asrwt>0</asrwt>
<pdfrwt beam="1">  1       21 0.23439025E-01 0.12765950E+03</pdfrwt>
<pdfrwt beam="2">  1       -4 0.60868275E-02 0.12765950E+03</pdfrwt>
<totfact> 0.11885456E+05</totfact>
</mgrwt>
</event>
<event>
 6    4  0.3189516E-003  0.1308490E+03  0.7818608E-02  0.1226201E+00
         21   -1    0    0  501  502  0.00000000000E+00  0.00000000000E+00  0.38274488191E+02  0.38274488191E+02  0.00000000000E+00 0. -1.
         -4   -1    0    0    0  501 -0.00000000000E+00 -0.00000000000E+00 -0.23782306700E+03  0.23782645794E+03  0.12700000000E+01 0.  1.
         25    2    1    2    0    0 -0.23644385582E+02 -0.30605525585E+02 -0.19805568424E+03  0.23737631831E+03  0.12500282904E+03 0.  0.
    9000005    1    3    3    0    0 -0.74570601880E+02 -0.28205245099E+02 -0.12579188652E+03  0.14893256605E+03  0.10000000000E+01 0.  0.
    9000005    1    3    3    0    0  0.50926216299E+02 -0.24002804858E+01 -0.72263797716E+02  0.88443752257E+02  0.10000000000E+01 0.  0.
         -4    1    1    2    0  502  0.23644385582E+02  0.30605525585E+02 -0.14928945689E+01  0.38724627823E+02  0.12700000000E+01 0. -1.
<mgrwt>
<rscale>  1 0.13084901E+03</rscale>
<asrwt>0</asrwt>
<pdfrwt beam="1">  1       21 0.58883827E-02 0.13084901E+03</pdfrwt>
<pdfrwt beam="2">  1       -4 0.36590047E-01 0.13084901E+03</pdfrwt>
<totfact> 0.59294423E+04</totfact>
</mgrwt>
</event>
<event>
 6    4  0.3189516E-003  0.1270552E+03  0.7818608E-02  0.1231892E+00
         21   -1    0    0  501  502  0.00000000000E+00  0.00000000000E+00  0.14231234116E+04  0.14231234116E+04  0.00000000000E+00 0. -1.
          4   -1    0    0  502    0 -0.00000000000E+00 -0.00000000000E+00 -0.39891657546E+01  0.41864475893E+01  0.12700000000E+01 0. -1.
         25    2    1    2    0    0 -0.64354661225E+01  0.21839210946E+02  0.10884910672E+04  0.10958812985E+04  0.12499860263E+03 0.  0.
    9000005    1    3    3    0    0  0.34139776325E+01  0.73651191281E+02  0.58266719470E+03  0.58731440728E+03  0.10000000000E+01 0.  0.
    9000005    1    3    3    0    0 -0.98494437550E+01 -0.51811980335E+02  0.50582387253E+03  0.50856689124E+03  0.10000000000E+01 0.  0.
          4    1    1    2  501    0  0.64354661225E+01 -0.21839210946E+02  0.33064317863E+03  0.33142856068E+03  0.12700000000E+01 0.  1.
<mgrwt>
<rscale>  1 0.12705517E+03</rscale>
<asrwt>0</asrwt>
<pdfrwt beam="1">  1       21 0.21894167E+00 0.12705517E+03</pdfrwt>
<pdfrwt beam="2">  1        4 0.62893806E-03 0.12705517E+03</pdfrwt>
<totfact> 0.25224007E+04</totfact>
</mgrwt>
</event>
<event>
 6    4  0.3189516E-003  0.1347850E+03  0.7818608E-02  0.1220523E+00
         -4   -1    0    0    0  501 -0.00000000000E+00  0.00000000000E+00  0.69488135944E+03  0.69488252000E+03  0.12700000000E+01 0. -1.
         21   -1    0    0  501  502  0.00000000000E+00 -0.00000000000E+00 -0.17064876529E+02  0.17064876529E+02  0.00000000000E+00 0.  1.
         25    2    1    2    0    0 -0.32182034910E+02  0.38679671167E+02  0.62347212613E+03  0.63787498367E+03  0.12504080292E+03 0.  0.
    9000005    1    3    3    0    0 -0.73540024179E+02 -0.56100161315E+01  0.36706829969E+03  0.37440585475E+03  0.10000000000E+01 0.  0.
    9000005    1    3    3    0    0  0.41357989269E+02  0.44289687298E+02  0.25640382645E+03  0.26346912892E+03  0.10000000000E+01 0.  0.
         -4    1    1    2    0  502  0.32182034910E+02 -0.38679671167E+02  0.54344356782E+02  0.74072412858E+02  0.12700000000E+01 0.  1.
<mgrwt>
<rscale>  1 0.13478502E+03</rscale>
<asrwt>0</asrwt>
<pdfrwt beam="2">  1       21 0.26253662E-02 0.13478502E+03</pdfrwt>
<pdfrwt beam="1">  1       -4 0.10690853E+00 0.13478502E+03</pdfrwt>
<totfact> 0.23389657E+04</totfact>
</mgrwt>
</event>
<event>
 6    4  0.3189516E-003  0.1277605E+03  0.7818608E-02  0.1230817E+00
         21   -1    0    0  501  502  0.00000000000E+00  0.00000000000E+00  0.23945115631E+02  0.23945115631E+02  0.00000000000E+00 0.  1.
         -4   -1    0    0    0  501 -0.00000000000E+00 -0.00000000000E+00 -0.26674041372E+03  0.26674343706E+03  0.12700000000E+01 0.  1.
         25    2    1    2    0    0 -0.16111079426E+02  0.20932254490E+02 -0.22522625773E+03  0.25893937573E+03  0.12500002790E+03 0.  0.
    9000005    1    3    3    0    0  0.12712182876E+02  0.58443722000E+01 -0.22594759590E+03  0.22638257966E+03  0.10000000000E+01 0.  0.
    9000005    1    3    3    0    0 -0.28823262302E+02  0.15087882290E+02  0.72133817214E+00  0.32556796072E+02  0.10000000000E+01 0.  0.
         -4    1    1    2    0  502  0.16111079426E+02 -0.20932254490E+02 -0.17569040367E+02  0.31749176962E+02  0.12700000000E+01 0. -1.
<mgrwt>
<rscale>  1 0.12776045E+03</rscale>
<asrwt>0</asrwt>
<pdfrwt beam="1">  1       21 0.36838640E-02 0.12776045E+03</pdfrwt>
<pdfrwt beam="2">  1       -4 0.41039810E-01 0.12776045E+03</pdfrwt>
<totfact> 0.10350716E+05</totfact>
</mgrwt>
</event>
<event>
 6    4  0.3189516E-003  0.1282085E+03  0.7818608E-02  0.1230138E+00
         21   -1    0    0  501  502  0.00000000000E+00  0.00000000000E+00  0.19634041819E+03  0.19634041819E+03  0.00000000000E+00 0.  1.
         -4   -1    0    0    0  501 -0.00000000000E+00 -0.00000000000E+00 -0.32023955241E+02  0.32049128058E+02  0.12700000000E+01 0.  1.
         25    2    1    2    0    0  0.75100330009E+01 -0.27508257139E+02  0.14678181256E+03  0.19489056610E+03  0.12499730977E+03 0.  0.
    9000005    1    3    3    0    0 -0.37901426651E+02 -0.19280470296E+02  0.14228917256E+03  0.14851081882E+03  0.10000000000E+01 0.  0.
    9000005    1    3    3    0    0  0.45411459652E+02 -0.82277868429E+01  0.44926399991E+01  0.46379747285E+02  0.10000000000E+01 0.  0.
         -4    1    1    2    0  502 -0.75100330009E+01  0.27508257139E+02  0.17534650383E+02  0.33498980142E+02  0.12700000000E+01 0. -1.
<mgrwt>
<rscale>  1 0.12820855E+03</rscale>
<asrwt>0</asrwt>
<pdfrwt beam="1">  1       21 0.30206217E-01 0.12820855E+03</pdfrwt>
<pdfrwt beam="2">  1       -4 0.49290148E-02 0.12820855E+03</pdfrwt>
<totfact> 0.10318012E+05</totfact>
</mgrwt>
</event>
<event>
 6    4  0.3189516E-003  0.1267801E+03  0.7818608E-02  0.1232313E+00
         21   -1    0    0  501  502  0.00000000000E+00  0.00000000000E+00  0.10430601511E+02  0.10430601511E+02  0.00000000000E+00 0.  1.
          4   -1    0    0  502    0 -0.00000000000E+00 -0.00000000000E+00 -0.54639552812E+03  0.54639700406E+03  0.12700000000E+01 0.  1.
         25    2    1    2    0    0 -0.20952343390E+02 -0.32038062043E+01 -0.49095911965E+03  0.50706415887E+03  0.12499575583E+03 0.  0.
    9000005    1    3    3    0    0  0.44798074354E+02 -0.31821696746E+02 -0.22332444289E+03  0.22998759671E+03  0.10000000000E+01 0.  0.
    9000005    1    3    3    0    0 -0.65750417744E+02  0.28617890542E+02 -0.26763467676E+03  0.27707656216E+03  0.10000000000E+01 0.  0.
          4    1    1    2  501    0  0.20952343390E+02  0.32038062043E+01 -0.45005806956E+02  0.49763446700E+02  0.12700000000E+01 0. -1.
<mgrwt>
<rscale>  1 0.12678014E+03</rscale>
<asrwt>0</asrwt>
<pdfrwt beam="1">  1       21 0.16047077E-02 0.12678014E+03</pdfrwt>
<pdfrwt beam="2">  1        4 0.84066921E-01 0.12678014E+03</pdfrwt>
<totfact> 0.89017064E+04</totfact>
</mgrwt>
</event>
<event>
 6    4  0.3189516E-003  0.1271009E+03  0.7818608E-02  0.1231822E+00
         21   -1    0    0  501  502  0.00000000000E+00  0.00000000000E+00  0.74613815402E+02  0.74613815402E+02  0.00000000000E+00 0. -1.
         -4   -1    0    0    0  501 -0.00000000000E+00 -0.00000000000E+00 -0.25823524663E+03  0.25823836953E+03  0.12700000000E+01 0.  1.
         25    2    1    2    0    0  0.18015358832E+02  0.14212126069E+02 -0.24021628775E+03  0.27176922196E+03  0.12501242908E+03 0.  0.
    9000005    1    3    3    0    0  0.66854219224E+02 -0.16953055188E+02 -0.12332829178E+03  0.14130732558E+03  0.10000000000E+01 0.  0.
    9000005    1    3    3    0    0 -0.48838860392E+02  0.31165181257E+02 -0.11688799596E+03  0.13046189638E+03  0.10000000000E+01 0.  0.
         -4    1    1    2    0  502 -0.18015358832E+02 -0.14212126069E+02  0.56594856522E+02  0.61082962976E+02  0.12700000000E+01 0. -1.
<mgrwt>
<rscale>  1 0.12710092E+03</rscale>
<asrwt>0</asrwt>
<pdfrwt beam="1">  1       21 0.11479049E-01 0.12710092E+03</pdfrwt>
<pdfrwt beam="2">  1       -4 0.39729571E-01 0.12710092E+03</pdfrwt>
<totfact> 0.15875704E+04</totfact>
</mgrwt>
</event>
<event>
 6    4  0.3189516E-003  0.1269121E+03  0.7818608E-02  0.1232111E+00
          4   -1    0    0  502    0 -0.00000000000E+00  0.00000000000E+00  0.16389779380E+03  0.16390271417E+03  0.12700000000E+01 0.  1.
         21   -1    0    0  501  502  0.00000000000E+00 -0.00000000000E+00 -0.61356440325E+02  0.61356440325E+02  0.00000000000E+00 0. -1.
         25    2    1    2    0    0  0.33525852195E+01  0.21685135414E+02  0.13549434743E+03  0.18564857970E+03  0.12500076813E+03 0.  0.
    9000005    1    3    3    0    0 -0.18327431470E+02  0.42087016590E+02  0.14678109603E+03  0.15379499947E+03  0.10000000000E+01 0.  0.
    9000005    1    3    3    0    0  0.21680016690E+02 -0.20401881176E+02 -0.11286748603E+02  0.31853580226E+02  0.10000000000E+01 0.  0.
          4    1    1    2  501    0 -0.33525852195E+01 -0.21685135414E+02 -0.32952993953E+02  0.39610574800E+02  0.12700000000E+01 0. -1.
<mgrwt>
<rscale>  1 0.12691208E+03</rscale>
<asrwt>0</asrwt>
<pdfrwt beam="2">  1       21 0.94394524E-02 0.12691208E+03</pdfrwt>
<pdfrwt beam="1">  1        4 0.25216435E-01 0.12691208E+03</pdfrwt>
<totfact> 0.53103592E+04</totfact>
</mgrwt>
</event>
<event>
 6    4  0.3189516E-003  0.1284510E+03  0.7818608E-02  0.1229772E+00
         -4   -1    0    0    0  501 -0.00000000000E+00  0.00000000000E+00  0.50702652537E+03  0.50702811591E+03  0.12700000000E+01 0. -1.
         21   -1    0    0  501  502  0.00000000000E+00 -0.00000000000E+00 -0.13404895636E+02  0.13404895636E+02  0.00000000000E+00 0. -1.
         25    2    1    2    0    0  0.29494218450E+02 -0.22498037877E+01  0.44796035209E+03  0.46601301784E+03  0.12499874086E+03 0.  0.
    9000005    1    3    3    0    0 -0.60076460997E+01 -0.44218534889E+02  0.63366580955E+02  0.77509316997E+02  0.10000000000E+01 0.  0.
    9000005    1    3    3    0    0  0.35501864549E+02  0.41968731101E+02  0.38459377113E+03  0.38850370084E+03  0.10000000000E+01 0.  0.
         -4    1    1    2    0  502 -0.29494218450E+02  0.22498037877E+01  0.45661277646E+02  0.54419993709E+02  0.12700000000E+01 0.  1.
<mgrwt>
<rscale>  1 0.12845099E+03</rscale>
<asrwt>0</asrwt>
<pdfrwt beam="2">  1       21 0.20622920E-02 0.12845099E+03</pdfrwt>
<pdfrwt beam="1">  1       -4 0.78008816E-01 0.12845099E+03</pdfrwt>
<totfact> 0.70312597E+04</totfact>
</mgrwt>
</event>
<event>
 6    4  0.3189516E-003  0.1399106E+03  0.7818608E-02  0.1213449E+00
         21   -1    0    0  501  502  0.00000000000E+00  0.00000000000E+00  0.39167540359E+03  0.39167540359E+03  0.00000000000E+00 0.  1.
          4   -1    0    0  502    0 -0.00000000000E+00 -0.00000000000E+00 -0.54731054045E+02  0.54745786841E+02  0.12700000000E+01 0. -1.
         25    2    1    2    0    0  0.29157803989E+02 -0.55679394808E+02  0.43791767646E+02  0.14660387653E+03  0.12499842063E+03 0.  0.
    9000005    1    3    3    0    0 -0.45121757286E+02 -0.24979747640E+01 -0.20310914766E+00  0.45202368431E+02  0.10000000000E+01 0.  0.
    9000005    1    3    3    0    0  0.74279561275E+02 -0.53181420044E+02  0.43994876794E+02  0.10140150810E+03  0.10000000000E+01 0.  0.
          4    1    1    2  501    0 -0.29157803989E+02  0.55679394808E+02  0.29315258190E+03  0.29981731390E+03  0.12700000000E+01 0.  1.
<mgrwt>
<rscale>  1 0.13991061E+03</rscale>
<asrwt>0</asrwt>
<pdfrwt beam="1">  1       21 0.60257753E-01 0.13991061E+03</pdfrwt>
<pdfrwt beam="2">  1        4 0.84214541E-02 0.13991061E+03</pdfrwt>
<totfact> 0.10741952E+04</totfact>
</mgrwt>
</event>
<event>
 6    4  0.3189516E-003  0.1321495E+03  0.7818608E-02  0.1224301E+00
         -4   -1    0    0    0  501 -0.00000000000E+00  0.00000000000E+00  0.16002110882E+03  0.16002614839E+03  0.12700000000E+01 0. -1.
         21   -1    0    0  501  502  0.00000000000E+00 -0.00000000000E+00 -0.61595067872E+02  0.61595067872E+02  0.00000000000E+00 0. -1.
         25    2    1    2    0    0 -0.16396225180E+02  0.39617777905E+02  0.11544418952E+03  0.17547324981E+03  0.12500038391E+03 0.  0.
    9000005    1    3    3    0    0  0.45346240654E+02  0.66415066103E+00  0.85045913243E+02  0.96387395425E+02  0.10000000000E+01 0.  0.
    9000005    1    3    3    0    0 -0.61742465834E+02  0.38953627243E+02  0.30398276281E+02  0.79085854384E+02  0.10000000000E+01 0.  0.
         -4    1    1    2    0  502  0.16396225180E+02 -0.39617777905E+02 -0.17018148578E+02  0.46147966448E+02  0.12700000000E+01 0.  1.
<mgrwt>
<rscale>  1 0.13214954E+03</rscale>
<asrwt>0</asrwt>
<pdfrwt beam="2">  1       21 0.94761644E-02 0.13214954E+03</pdfrwt>
<pdfrwt beam="1">  1       -4 0.24620027E-01 0.13214954E+03</pdfrwt>
<totfact> 0.55416642E+04</totfact>
</mgrwt>
</event>
<event>
 6    4  0.3189516E-003  0.1279513E+03  0.7818608E-02  0.1230528E+00
         21   -1    0    0  501  502  0.00000000000E+00  0.00000000000E+00  0.51090963132E+01  0.51090963132E+01  0.00000000000E+00 0.  1.
         -4   -1    0    0    0  501 -0.00000000000E+00 -0.00000000000E+00 -0.16603937434E+04  0.16603942291E+04  0.12700000000E+01 0. -1.
         25    2    1    2    0    0 -0.21371326547E+02  0.17032714979E+02 -0.15838375643E+04  0.15889974725E+04  0.12499876330E+03 0.  0.
    9000005    1    3    3    0    0 -0.24139445008E+02 -0.19019819646E+02 -0.97801286553E+02  0.10252101246E+03  0.10000000000E+01 0.  0.
    9000005    1    3    3    0    0  0.27681184607E+01  0.36052534625E+02 -0.14860362777E+04  0.14864764601E+04  0.10000000000E+01 0.  0.
         -4    1    1    2    0  502  0.21371326547E+02 -0.17032714979E+02 -0.71447082844E+02  0.76505852880E+02  0.12700000000E+01 0.  1.
<mgrwt>
<rscale>  1 0.12795131E+03</rscale>
<asrwt>0</asrwt>
<pdfrwt beam="1">  1       21 0.78601507E-03 0.12795131E+03</pdfrwt>
<pdfrwt beam="2">  1       -4 0.25545729E+00 0.12795131E+03</pdfrwt>
<totfact> 0.15179525E+04</totfact>
</mgrwt>
</event>
<event>
 6    4  0.3189516E-003  0.1277769E+03  0.7818608E-02  0.1230792E+00
         -4   -1    0    0    0  501 -0.00000000000E+00  0.00000000000E+00  0.15967278349E+02  0.16017705137E+02  0.12700000000E+01 0.  1.
         21   -1    0    0  501  502  0.00000000000E+00 -0.00000000000E+00 -0.87052066119E+03  0.87052066119E+03  0.00000000000E+00 0.  1.
         25    2    1    2    0    0  0.25457769250E+02  0.74848862772E+01 -0.24422058197E+03  0.27562768361E+03  0.12499122280E+03 0.  0.
    9000005    1    3    3    0    0  0.51483351445E+02  0.54185365903E+01 -0.30042409578E+02  0.59861860880E+02  0.10000000000E+01 0.  0.
    9000005    1    3    3    0    0 -0.26025582194E+02  0.20663496870E+01 -0.21417817239E+03  0.21576582273E+03  0.10000000000E+01 0.  0.
         -4    1    1    2    0  502 -0.25457769250E+02 -0.74848862772E+01 -0.61033280087E+03  0.61091068271E+03  0.12700000000E+01 0. -1.
<mgrwt>
<rscale>  1 0.12777687E+03</rscale>
<asrwt>0</asrwt>
<pdfrwt beam="2">  1       21 0.13392626E+00 0.12777687E+03</pdfrwt>
<pdfrwt beam="1">  1       -4 0.24604545E-02 0.12777687E+03</pdfrwt>
<totfact> 0.12218766E+04</totfact>
</mgrwt>
</event>
<event>
 6    4  0.3189516E-003  0.1337157E+03  0.7818608E-02  0.1222044E+00
         -4   -1    0    0    0  501 -0.00000000000E+00  0.00000000000E+00  0.86612614695E+03  0.86612707804E+03  0.12700000000E+01 0.  1.
         21   -1    0    0  501  502  0.00000000000E+00 -0.00000000000E+00 -0.40781945625E+02  0.40781945625E+02  0.00000000000E+00 0. -1.
         25    2    1    2    0    0 -0.42337762451E+02 -0.21502491626E+02  0.84499005961E+03  0.85550458881E+03  0.12500022945E+03 0.  0.
    9000005    1    3    3    0    0 -0.34866612760E+02 -0.57404686520E+02  0.23497523063E+03  0.24438767917E+03  0.10000000000E+01 0.  0.
    9000005    1    3    3    0    0 -0.74711496912E+01  0.35902194894E+02  0.61001482897E+03  0.61111690964E+03  0.10000000000E+01 0.  0.
         -4    1    1    2    0  502  0.42337762451E+02  0.21502491626E+02 -0.19645858288E+02  0.51404434861E+02  0.12700000000E+01 0. -1.
<mgrwt>
<rscale>  1 0.13371575E+03</rscale>
<asrwt>0</asrwt>
<pdfrwt beam="2">  1       21 0.62741461E-02 0.13371575E+03</pdfrwt>
<pdfrwt beam="1">  1       -4 0.13325176E+00 0.13371575E+03</pdfrwt>
<totfact> 0.32301521E+03</totfact>
</mgrwt>
</event>
<event>
 6    4  0.3189516E-003  0.1282742E+03  0.7818608E-02  0.1230039E+00
         21   -1    0    0  501  502  0.00000000000E+00  0.00000000000E+00  0.82295797804E+01  0.82295797804E+01  0.00000000000E+00 0.  1.
         -4   -1    0    0    0  501 -0.00000000000E+00 -0.00000000000E+00 -0.75804863384E+03  0.75804969769E+03  0.12700000000E+01 0.  1.
         25    2    1    2    0    0  0.24850983324E+02 -0.14533643096E+02 -0.57822852589E+03  0.59228582814E+03  0.12500190360E+03 0.  0.
    9000005    1    3    3    0    0  0.10228775745E+01  0.21793145452E+02 -0.51557310542E+03  0.51603547794E+03  0.10000000000E+01 0.  0.
    9000005    1    3    3    0    0  0.23828105749E+02 -0.36326788548E+02 -0.62655420479E+02  0.76250350197E+02  0.10000000000E+01 0.  0.
         -4    1    1    2    0  502 -0.24850983324E+02  0.14533643096E+02 -0.17159052816E+03  0.17399344933E+03  0.12700000000E+01 0. -1.
<mgrwt>
<rscale>  1 0.12827421E+03</rscale>
<asrwt>0</asrwt>
<pdfrwt beam="1">  1       21 0.12660891E-02 0.12827421E+03</pdfrwt>
<pdfrwt beam="2">  1       -4 0.11663049E+00 0.12827421E+03</pdfrwt>
<totfact> 0.61207852E+04</totfact>
</mgrwt>
</event>
<event>
 6    4  0.3189516E-003  0.1268487E+03  0.7818608E-02  0.1232208E+00
         -4   -1    0    0    0  501 -0.00000000000E+00  0.00000000000E+00  0.18444259805E+03  0.18444697036E+03  0.12700000000E+01 0. -1.
         21   -1    0    0  501  502  0.00000000000E+00 -0.00000000000E+00 -0.30463061728E+02  0.30463061728E+02  0.00000000000E+00 0. -1.
         25    2    1    2    0    0  0.23066080098E+01  0.21481326709E+02  0.14105379108E+03  0.18970178685E+03  0.12499531239E+03 0.  0.
    9000005    1    3    3    0    0 -0.60996944245E+02  0.44882629463E+01  0.72323424083E+02  0.94723014007E+02  0.10000000000E+01 0.  0.
    9000005    1    3    3    0    0  0.63303552254E+02  0.16993063763E+02  0.68730366993E+02  0.94978772844E+02  0.10000000000E+01 0.  0.
         -4    1    1    2    0  502 -0.23066080098E+01 -0.21481326709E+02  0.12925745241E+02  0.25208245233E+02  0.12700000000E+01 0.  1.
<mgrwt>
<rscale>  1 0.12684871E+03</rscale>
<asrwt>0</asrwt>
<pdfrwt beam="2">  1       21 0.46866250E-02 0.12684871E+03</pdfrwt>
<pdfrwt beam="1">  1       -4 0.28378156E-01 0.12684871E+03</pdfrwt>
<totfact> 0.14073237E+05</totfact>
</mgrwt>
</event>
<event>
 6    4  0.3189516E-003  0.1267567E+03  0.7818608E-02  0.1232349E+00
          4   -1    0    0  502    0 -0.00000000000E+00  0.00000000000E+00  0.34447593639E+03  0.34447827748E+03  0.12700000000E+01 0. -1.
         21   -1    0    0  501  502  0.00000000000E+00 -0.00000000000E+00 -0.24468012894E+02  0.24468012894E+02  0.00000000000E+00 0.  1.
         25    2    1    2    0    0  0.15946201418E+02 -0.13741812393E+02  0.32361240208E+03  0.34755180712E+03  0.12499661240E+03 0.  0.
    9000005    1    3    3    0    0  0.90141825880E+01 -0.73732254832E+01  0.33359197023E+03  0.33379667845E+03  0.10000000000E+01 0.  0.
    9000005    1    3    3    0    0  0.69320188303E+01 -0.63685869095E+01 -0.99795681552E+01  0.13755128675E+02  0.10000000000E+01 0.  0.
          4    1    1    2  501    0 -0.15946201418E+02  0.13741812393E+02 -0.36044785777E+01  0.21394483245E+02  0.12700000000E+01 0.  1.
<mgrwt>
<rscale>  1 0.12675674E+03</rscale>
<asrwt>0</asrwt>
<pdfrwt beam="2">  1       21 0.37643099E-02 0.12675674E+03</pdfrwt>
<pdfrwt beam="1">  1        4 0.52999010E-01 0.12675674E+03</pdfrwt>
<totfact> 0.59629842E+04</totfact>
</mgrwt>
</event>
<event>
 6    4  0.3189516E-003  0.1302234E+03  0.7818608E-02  0.1227125E+00
         -4   -1    0    0    0  501 -0.00000000000E+00  0.00000000000E+00  0.53187878004E+02  0.53203038133E+02  0.12700000000E+01 0. -1.
         21   -1    0    0  501  502  0.00000000000E+00 -0.00000000000E+00 -0.14833144385E+03  0.14833144385E+03  0.00000000000E+00 0. -1.
         25    2    1    2    0    0  0.84459269501E+01 -0.35557545805E+02 -0.10060696660E+03  0.16455970147E+03  0.12498984309E+03 0.  0.
    9000005    1    3    3    0    0 -0.20460393019E+02 -0.14290751378E+01 -0.11557563203E+03  0.11738567484E+03  0.10000000000E+01 0.  0.
    9000005    1    3    3    0    0  0.28906319969E+02 -0.34128470667E+02  0.14968665432E+02  0.47174026636E+02  0.10000000000E+01 0.  0.
         -4    1    1    2    0  502 -0.84459269501E+01  0.35557545805E+02  0.54634007545E+01  0.36974780506E+02  0.12700000000E+01 0.  1.
<mgrwt>
<rscale>  1 0.13022340E+03</rscale>
<asrwt>0</asrwt>
<pdfrwt beam="2">  1       21 0.22820222E-01 0.13022340E+03</pdfrwt>
<pdfrwt beam="1">  1       -4 0.81843348E-02 0.13022340E+03</pdfrwt>
<totfact> 0.77082711E+04</totfact>
</mgrwt>
</event>
<event>
 6    4  0.3189516E-003  0.1316965E+03  0.7818608E-02  0.1224960E+00
         21   -1    0    0  501  502  0.00000000000E+00  0.00000000000E+00  0.22671670045E+03  0.22671670045E+03  0.00000000000E+00 0. -1.
         -4   -1    0    0    0  501 -0.00000000000E+00 -0.00000000000E+00 -0.46240167651E+02  0.46257604828E+02  0.12700000000E+01 0.  1.
         25    2    1    2    0    0  0.12920068025E+02  0.39381885309E+02  0.58431231002E+02  0.14407694441E+03  0.12500438435E+03 0.  0.
    9000005    1    3    3    0    0 -0.43373931505E+02 -0.19085835237E+02  0.68138172244E+01  0.47885228893E+02  0.10000000000E+01 0.  0.
    9000005    1    3    3    0    0  0.56293999530E+02  0.58467720546E+02  0.51617413778E+02  0.96191715517E+02  0.10000000000E+01 0.  0.
         -4    1    1    2    0  502 -0.12920068025E+02 -0.39381885309E+02  0.12204530180E+03  0.12889736087E+03  0.12700000000E+01 0. -1.
<mgrwt>
<rscale>  1 0.13169646E+03</rscale>
<asrwt>0</asrwt>
<pdfrwt beam="1">  1       21 0.34879492E-01 0.13169646E+03</pdfrwt>
<pdfrwt beam="2">  1       -4 0.71154870E-02 0.13169646E+03</pdfrwt>
<totfact> 0.43116636E+04</totfact>
</mgrwt>
</event>
<event>
 6    4  0.3189516E-003  0.1429690E+03  0.7818608E-02  0.1209389E+00
         21   -1    0    0  501  502  0.00000000000E+00  0.00000000000E+00  0.25424328518E+02  0.25424328518E+02  0.00000000000E+00 0. -1.
         -4   -1    0    0    0  501 -0.00000000000E+00 -0.00000000000E+00 -0.73579042724E+03  0.73579152327E+03  0.12700000000E+01 0. -1.
         25    2    1    2    0    0  0.48815889875E+02 -0.49293072905E+02 -0.66043298854E+03  0.67573061018E+03  0.12500930782E+03 0.  0.
    9000005    1    3    3    0    0  0.35553729101E+02  0.55504797029E-01 -0.41354547154E+02  0.54546029224E+02  0.10000000000E+01 0.  0.
    9000005    1    3    3    0    0  0.13262160774E+02 -0.49348577702E+02 -0.61907844139E+03  0.62118458096E+03  0.10000000000E+01 0.  0.
         -4    1    1    2    0  502 -0.48815889875E+02  0.49293072905E+02 -0.49933110186E+02  0.85485241612E+02  0.12700000000E+01 0.  1.
<mgrwt>
<rscale>  1 0.14296897E+03</rscale>
<asrwt>0</asrwt>
<pdfrwt beam="1">  1       21 0.39114351E-02 0.14296897E+03</pdfrwt>
<pdfrwt beam="2">  1       -4 0.11320105E+00 0.14296897E+03</pdfrwt>
<totfact> 0.10658285E+04</totfact>
</mgrwt>
</event>
<event>
 6    4  0.3189516E-003  0.1295202E+03  0.7818608E-02  0.1228169E+00
         -4   -1    0    0    0  501 -0.00000000000E+00  0.00000000000E+00  0.11257165850E+03  0.11257882216E+03  0.12700000000E+01 0.  1.
         21   -1    0    0  501  502  0.00000000000E+00 -0.00000000000E+00 -0.71461836358E+02  0.71461836358E+02  0.00000000000E+00 0. -1.
         25    2    1    2    0    0 -0.33836817614E+02 -0.23323854240E+01  0.62613859501E+02  0.14386097745E+03  0.12500046073E+03 0.  0.
    9000005    1    3    3    0    0 -0.90207531632E+01 -0.51965423166E+02 -0.87322619733E+01  0.53469912957E+02  0.10000000000E+01 0.  0.
    9000005    1    3    3    0    0 -0.24816064451E+02  0.49633037742E+02  0.71346121475E+02  0.90391064491E+02  0.10000000000E+01 0.  0.
         -4    1    1    2    0  502  0.33836817614E+02  0.23323854240E+01 -0.21504037356E+02  0.40179681067E+02  0.12700000000E+01 0. -1.
<mgrwt>
<rscale>  1 0.12952021E+03</rscale>
<asrwt>0</asrwt>
<pdfrwt beam="2">  1       21 0.10994129E-01 0.12952021E+03</pdfrwt>
<pdfrwt beam="1">  1       -4 0.17320136E-01 0.12952021E+03</pdfrwt>
<totfact> 0.80352529E+04</totfact>
</mgrwt>
</event>
<event>
 6    4  0.3189516E-003  0.1278632E+03  0.7818608E-02  0.1230661E+00
         21   -1    0    0  501  502  0.00000000000E+00  0.00000000000E+00  0.30348023831E+03  0.30348023831E+03  0.00000000000E+00 0.  1.
          4   -1    0    0  502    0 -0.00000000000E+00 -0.00000000000E+00 -0.22698963740E+02  0.22734464033E+02  0.12700000000E+01 0.  1.
         25    2    1    2    0    0  0.11550235365E+02 -0.24298657313E+02  0.17302508981E+03  0.21514336969E+03  0.12500062053E+03 0.  0.
    9000005    1    3    3    0    0 -0.21006642275E+02  0.14558017349E+02  0.16101963199E+03  0.16303845183E+03  0.10000000000E+01 0.  0.
    9000005    1    3    3    0    0  0.32556877640E+02 -0.38856674662E+02  0.12005457823E+02  0.52104917858E+02  0.10000000000E+01 0.  0.
          4    1    1    2  501    0 -0.11550235365E+02  0.24298657313E+02  0.10775618476E+03  0.11107133265E+03  0.12700000000E+01 0. -1.
<mgrwt>
<rscale>  1 0.12786316E+03</rscale>
<asrwt>0</asrwt>
<pdfrwt beam="1">  1       21 0.46689265E-01 0.12786316E+03</pdfrwt>
<pdfrwt beam="2">  1        4 0.34950837E-02 0.12786316E+03</pdfrwt>
<totfact> 0.75111659E+04</totfact>
</mgrwt>
</event>
<event>
 6    4  0.3189516E-003  0.1301885E+03  0.7818608E-02  0.1227176E+00
         21   -1    0    0  501  502  0.00000000000E+00  0.00000000000E+00  0.69634316614E+02  0.69634316614E+02  0.00000000000E+00 0.  1.
          4   -1    0    0  502    0 -0.00000000000E+00 -0.00000000000E+00 -0.23191596711E+03  0.23191944442E+03  0.12700000000E+01 0. -1.
         25    2    1    2    0    0 -0.22719451381E+02 -0.28430816877E+02 -0.20659721137E+03  0.24419553011E+03  0.12499825743E+03 0.  0.
    9000005    1    3    3    0    0 -0.12184612202E+02 -0.77799244800E+02 -0.11123002865E+03  0.13628758762E+03  0.10000000000E+01 0.  0.
    9000005    1    3    3    0    0 -0.10534839179E+02  0.49368427923E+02 -0.95367182723E+02  0.10790794249E+03  0.10000000000E+01 0.  0.
          4    1    1    2  501    0  0.22719451381E+02  0.28430816877E+02  0.44315560874E+02  0.57358230925E+02  0.12700000000E+01 0.  1.
<mgrwt>
<rscale>  1 0.13018851E+03</rscale>
<asrwt>0</asrwt>
<pdfrwt beam="1">  1       21 0.10712972E-01 0.13018851E+03</pdfrwt>
<pdfrwt beam="2">  1        4 0.35680538E-01 0.13018851E+03</pdfrwt>
<totfact> 0.22162826E+04</totfact>
</mgrwt>
</event>
<event>
 6    4  0.3189516E-003  0.1308604E+03  0.7818608E-02  0.1226185E+00
          4   -1    0    0  502    0 -0.00000000000E+00  0.00000000000E+00  0.10711089533E+04  0.10711097062E+04  0.12700000000E+01 0. -1.
         21   -1    0    0  501  502  0.00000000000E+00 -0.00000000000E+00 -0.73585870319E+01  0.73585870319E+01  0.00000000000E+00 0. -1.
         25    2    1    2    0    0 -0.38705944363E+02  0.24066007628E+00  0.93205958344E+03  0.94120109677E+03  0.12500491762E+03 0.  0.
    9000005    1    3    3    0    0 -0.69052555589E+02 -0.36883116966E+02  0.44982004740E+03  0.45658262647E+03  0.10000000000E+01 0.  0.
    9000005    1    3    3    0    0  0.30346611226E+02  0.37123777043E+02  0.48223953605E+03  0.48461847030E+03  0.10000000000E+01 0.  0.
          4    1    1    2  501    0  0.38705944363E+02 -0.24066007628E+00  0.13169078284E+03  0.13726719648E+03  0.12700000000E+01 0.  1.
<mgrwt>
<rscale>  1 0.13086037E+03</rscale>
<asrwt>0</asrwt>
<pdfrwt beam="2">  1       21 0.11320912E-02 0.13086037E+03</pdfrwt>
<pdfrwt beam="1">  1        4 0.16479436E+00 0.13086037E+03</pdfrwt>
<totfact> 0.30941839E+04</totfact>
</mgrwt>
</event>
<event>
 6    4  0.3189516E-003  0.1394788E+03  0.7818608E-02  0.1214032E+00
         -4   -1    0    0    0  501 -0.00000000000E+00  0.00000000000E+00  0.44664101790E+03  0.44664282348E+03  0.12700000000E+01 0.  1.
         21   -1    0    0  501  502  0.00000000000E+00 -0.00000000000E+00 -0.57142791644E+02  0.57142791644E+02  0.00000000000E+00 0. -1.
         25    2    1    2    0    0 -0.48659846502E+01 -0.61687894968E+02  0.41426981268E+03  0.43711989241E+03  0.12500099380E+03 0.  0.
    9000005    1    3    3    0    0 -0.12698784881E+02 -0.98537416233E+02  0.33359445749E+03  0.34807634737E+03  0.10000000000E+01 0.  0.
    9000005    1    3    3    0    0  0.78328002306E+01  0.36849521265E+02  0.80675355191E+02  0.89043545033E+02  0.10000000000E+01 0.  0.
         -4    1    1    2    0  502  0.48659846502E+01  0.61687894968E+02 -0.24771586421E+02  0.66665722722E+02  0.12700000000E+01 0. -1.
<mgrwt>
<rscale>  1 0.13947875E+03</rscale>
<asrwt>0</asrwt>
<pdfrwt beam="2">  1       21 0.87911990E-02 0.13947875E+03</pdfrwt>
<pdfrwt beam="1">  1       -4 0.68715225E-01 0.13947875E+03</pdfrwt>
<totfact> 0.82960777E+03</totfact>
</mgrwt>
</event>
<event>
 6    4  0.3189516E-003  0.1278107E+03  0.7818608E-02  0.1230741E+00
         -4   -1    0    0    0  501 -0.00000000000E+00  0.00000000000E+00  0.48088667663E+02  0.48105434803E+02  0.12700000000E+01 0. -1.
         21   -1    0    0  501  502  0.00000000000E+00 -0.00000000000E+00 -0.12433444372E+03  0.12433444372E+03  0.00000000000E+00 0. -1.
         25    2    1    2    0    0 -0.11136089787E+02  0.24250663726E+02 -0.65808798677E+02  0.14375799254E+03  0.12499382084E+03 0.  0.
    9000005    1    3    3    0    0  0.55014075372E+02  0.27385378543E+02 -0.28601060020E+02  0.67790324392E+02  0.10000000000E+01 0.  0.
    9000005    1    3    3    0    0 -0.66150165159E+02 -0.31347148164E+01 -0.37207738657E+02  0.75967668146E+02  0.10000000000E+01 0.  0.
         -4    1    1    2    0  502  0.11136089787E+02 -0.24250663726E+02 -0.10436977383E+02  0.28681885988E+02  0.12700000000E+01 0.  1.
<mgrwt>
<rscale>  1 0.12781065E+03</rscale>
<asrwt>0</asrwt>
<pdfrwt beam="2">  1       21 0.19128376E-01 0.12781065E+03</pdfrwt>
<pdfrwt beam="1">  1       -4 0.74000454E-02 0.12781065E+03</pdfrwt>
<totfact> 0.12601204E+05</totfact>
</mgrwt>
</event>
<event>
 6    4  0.3189516E-003  0.1272844E+03  0.7818608E-02  0.1231542E+00
          4   -1    0    0  502    0 -0.00000000000E+00  0.00000000000E+00  0.79026363987E+03  0.79026466035E+03  0.12700000000E+01 0.  1.
         21   -1    0    0  501  502  0.00000000000E+00 -0.00000000000E+00 -0.75544364686E+01  0.75544364686E+01  0.00000000000E+00 0.  1.
         25    2    1    2    0    0 -0.71196944157E+01  0.22932286047E+02  0.70753095257E+03  0.71888898793E+03  0.12499899330E+03 0.  0.
    9000005    1    3    3    0    0 -0.40244046509E+01  0.38081180919E+02  0.60081622913E+02  0.71254288186E+02  0.10000000000E+01 0.  0.
    9000005    1    3    3    0    0 -0.30952897647E+01 -0.15148894873E+02  0.64744932966E+03  0.64763469974E+03  0.10000000000E+01 0.  0.
          4    1    1    2  501    0  0.71196944157E+01 -0.22932286047E+02  0.75178250826E+02  0.78930108888E+02  0.12700000000E+01 0. -1.
<mgrwt>
<rscale>  1 0.12728444E+03</rscale>
<asrwt>0</asrwt>
<pdfrwt beam="2">  1       21 0.11622216E-02 0.12728444E+03</pdfrwt>
<pdfrwt beam="1">  1        4 0.12158725E+00 0.12728444E+03</pdfrwt>
<totfact> 0.63382145E+04</totfact>
</mgrwt>
</event>
<event>
 6    4  0.3189516E-003  0.1331911E+03  0.7818608E-02  0.1222796E+00
         -4   -1    0    0    0  501 -0.00000000000E+00  0.00000000000E+00  0.13665493794E+03  0.13666083917E+03  0.12700000000E+01 0. -1.
         21   -1    0    0  501  502  0.00000000000E+00 -0.00000000000E+00 -0.23882276394E+03  0.23882276394E+03  0.00000000000E+00 0.  1.
         25    2    1    2    0    0  0.45812570118E+02 -0.40690061834E+01  0.10101000651E+03  0.16716127374E+03  0.12499808651E+03 0.  0.
    9000005    1    3    3    0    0  0.71571792064E+02  0.39962464278E+02  0.66563799847E+02  0.10559952377E+03  0.10000000000E+01 0.  0.
    9000005    1    3    3    0    0 -0.25759221946E+02 -0.44031470462E+02  0.34446206658E+02  0.61561749970E+02  0.10000000000E+01 0.  0.
         -4    1    1    2    0  502 -0.45812570118E+02  0.40690061834E+01 -0.20317783251E+03  0.20832232937E+03  0.12700000000E+01 0.  1.
<mgrwt>
<rscale>  1 0.13319110E+03</rscale>
<asrwt>0</asrwt>
<pdfrwt beam="2">  1       21 0.36741964E-01 0.13319110E+03</pdfrwt>
<pdfrwt beam="1">  1       -4 0.21024550E-01 0.13319110E+03</pdfrwt>
<totfact> 0.60641373E+03</totfact>
</mgrwt>
</event>
<event>
 6    4  0.3189516E-003  0.1277232E+03  0.7818608E-02  0.1230874E+00
         21   -1    0    0  501  502  0.00000000000E+00  0.00000000000E+00  0.34949630948E+02  0.34949630948E+02  0.00000000000E+00 0.  1.
         -4   -1    0    0    0  501 -0.00000000000E+00 -0.00000000000E+00 -0.17000375616E+03  0.17000849981E+03  0.12700000000E+01 0.  1.
         25    2    1    2    0    0 -0.23565364784E+01 -0.26112534290E+02 -0.11581376771E+03  0.17241244029E+03  0.12500321222E+03 0.  0.
    9000005    1    3    3    0    0 -0.98078906965E+01 -0.74527722069E+02 -0.49689989809E+02  0.90114766625E+02  0.10000000000E+01 0.  0.
    9000005    1    3    3    0    0  0.74513542181E+01  0.48415187779E+02 -0.66123777897E+02  0.82297673665E+02  0.10000000000E+01 0.  0.
         -4    1    1    2    0  502  0.23565364784E+01  0.26112534290E+02 -0.19240357508E+02  0.32545690471E+02  0.12700000000E+01 0. -1.
<mgrwt>
<rscale>  1 0.12772322E+03</rscale>
<asrwt>0</asrwt>
<pdfrwt beam="1">  1       21 0.53768663E-02 0.12772322E+03</pdfrwt>
<pdfrwt beam="2">  1       -4 0.26156564E-01 0.12772322E+03</pdfrwt>
<totfact> 0.13020607E+05</totfact>
</mgrwt>
</event>
<event>
 6    4  0.3189516E-003  0.1275434E+03  0.7818608E-02  0.1231147E+00
          4   -1    0    0  502    0 -0.00000000000E+00  0.00000000000E+00  0.74504807365E+02  0.74515630713E+02  0.12700000000E+01 0.  1.
         21   -1    0    0  501  502  0.00000000000E+00 -0.00000000000E+00 -0.24031922158E+03  0.24031922158E+03  0.00000000000E+00 0. -1.
         25    2    1    2    0    0  0.17154875803E+02  0.18640903274E+02  0.18416376662E+02  0.12886611770E+03  0.12500216127E+03 0.  0.
    9000005    1    3    3    0    0  0.29658495690E+02  0.28366299541E+02 -0.46505302043E+02  0.62032382143E+02  0.10000000000E+01 0.  0.
    9000005    1    3    3    0    0 -0.12503619887E+02 -0.97253962672E+01  0.64921678705E+02  0.66833735558E+02  0.10000000000E+01 0.  0.
          4    1    1    2  501    0 -0.17154875803E+02 -0.18640903274E+02 -0.18423079087E+03  0.18596873459E+03  0.12700000000E+01 0. -1.
<mgrwt>
<rscale>  1 0.12754338E+03</rscale>
<asrwt>0</asrwt>
<pdfrwt beam="2">  1       21 0.36972188E-01 0.12754338E+03</pdfrwt>
<pdfrwt beam="1">  1        4 0.11463369E-01 0.12754338E+03</pdfrwt>
<totfact> 0.17272298E+04</totfact>
</mgrwt>
</event>
<event>
 6    4  0.3189516E-003  0.1296459E+03  0.7818608E-02  0.1227982E+00
         -4   -1    0    0    0  501 -0.00000000000E+00  0.00000000000E+00  0.31700075467E+03  0.31700329866E+03  0.12700000000E+01 0. -1.
         21   -1    0    0  501  502  0.00000000000E+00 -0.00000000000E+00 -0.66765382695E+03  0.66765382695E+03  0.00000000000E+00 0.  1.
         25    2    1    2    0    0 -0.16566583458E+02  0.30150137616E+02  0.30327483599E+03  0.32982370818E+03  0.12499827938E+03 0.  0.
    9000005    1    3    3    0    0 -0.31736144864E+02  0.60337357150E+01  0.29929972332E+03  0.30103972036E+03  0.10000000000E+01 0.  0.
    9000005    1    3    3    0    0  0.15169561406E+02  0.24116401901E+02  0.39751126687E+01  0.28783987816E+02  0.10000000000E+01 0.  0.
         -4    1    1    2    0  502  0.16566583458E+02 -0.30150137616E+02 -0.65392790826E+03  0.65483341743E+03  0.12700000000E+01 0.  1.
<mgrwt>
<rscale>  1 0.12964587E+03</rscale>
<asrwt>0</asrwt>
<pdfrwt beam="2">  1       21 0.10271597E+00 0.12964587E+03</pdfrwt>
<pdfrwt beam="1">  1       -4 0.48769636E-01 0.12964587E+03</pdfrwt>
<totfact> 0.13419503E+02</totfact>
</mgrwt>
</event>
<event>
 6    4  0.3189516E-003  0.1329854E+03  0.7818608E-02  0.1223092E+00
         21   -1    0    0  501  502  0.00000000000E+00  0.00000000000E+00  0.66118027121E+03  0.66118027121E+03  0.00000000000E+00 0.  1.
         -4   -1    0    0    0  501 -0.00000000000E+00 -0.00000000000E+00 -0.24435107028E+02  0.24468088513E+02  0.12700000000E+01 0.  1.
         25    2    1    2    0    0 -0.15731494703E+02  0.42562492147E+02  0.16590730494E+03  0.21262727324E+03  0.12500431124E+03 0.  0.
    9000005    1    3    3    0    0 -0.25314881577E+02  0.14438916494E+02 -0.12524263299E+02  0.31736142015E+02  0.10000000000E+01 0.  0.
    9000005    1    3    3    0    0  0.95833868745E+01  0.28123575653E+02  0.17843156824E+03  0.18089113122E+03  0.10000000000E+01 0.  0.
         -4    1    1    2    0  502  0.15731494703E+02 -0.42562492147E+02  0.47083785925E+03  0.47302108649E+03  0.12700000000E+01 0. -1.
<mgrwt>
<rscale>  1 0.13298543E+03</rscale>
<asrwt>0</asrwt>
<pdfrwt beam="1">  1       21 0.10172003E+00 0.13298543E+03</pdfrwt>
<pdfrwt beam="2">  1       -4 0.37618786E-02 0.13298543E+03</pdfrwt>
<totfact> 0.12275050E+04</totfact>
</mgrwt>
</event>
<event>
 6    4  0.3189516E-003  0.1278353E+03  0.7818608E-02  0.1230704E+00
         21   -1    0    0  501  502  0.00000000000E+00  0.00000000000E+00  0.16310077398E+02  0.16310077398E+02  0.00000000000E+00 0. -1.
         -4   -1    0    0    0  501 -0.00000000000E+00 -0.00000000000E+00 -0.25663533027E+04  0.25663536169E+04  0.12700000000E+01 0.  1.
         25    2    1    2    0    0 -0.19349820800E+01  0.26709356646E+02 -0.25525392099E+04  0.25557383024E+04  0.12499887405E+03 0.  0.
    9000005    1    3    3    0    0 -0.45967442979E+02  0.57056951353E+02 -0.16353146803E+04  0.16369555904E+04  0.10000000000E+01 0.  0.
    9000005    1    3    3    0    0  0.44032460899E+02 -0.30347594706E+02 -0.91722452965E+03  0.91878271203E+03  0.10000000000E+01 0.  0.
         -4    1    1    2    0  502  0.19349820800E+01 -0.26709356646E+02  0.24959846404E+01  0.26925391871E+02  0.12700000000E+01 0. -1.
<mgrwt>
<rscale>  1 0.12783525E+03</rscale>
<asrwt>0</asrwt>
<pdfrwt beam="1">  1       21 0.25092424E-02 0.12783525E+03</pdfrwt>
<pdfrwt beam="2">  1       -4 0.39482746E+00 0.12783525E+03</pdfrwt>
<totfact> 0.35137963E+02</totfact>
</mgrwt>
</event>
<event>
 6    4  0.3189516E-003  0.1405205E+03  0.7818608E-02  0.1212630E+00
         21   -1    0    0  501  502  0.00000000000E+00  0.00000000000E+00  0.12374608985E+03  0.12374608985E+03  0.00000000000E+00 0.  1.
         -4   -1    0    0    0  501 -0.00000000000E+00 -0.00000000000E+00 -0.85727375026E+02  0.85736781656E+02  0.12700000000E+01 0.  1.
         25    2    1    2    0    0  0.55805303569E+02  0.31749290379E+02  0.36777423640E+02  0.14525357095E+03  0.12499508646E+03 0.  0.
    9000005    1    3    3    0    0  0.21426445670E+01 -0.29642947741E+02  0.54242095116E+02  0.61858711263E+02  0.10000000000E+01 0.  0.
    9000005    1    3    3    0    0  0.53662659002E+02  0.61392238120E+02 -0.17464671476E+02  0.83394859688E+02  0.10000000000E+01 0.  0.
         -4    1    1    2    0  502 -0.55805303569E+02 -0.31749290379E+02  0.12412911837E+01  0.64229300555E+02  0.12700000000E+01 0. -1.
<mgrwt>
<rscale>  1 0.14052054E+03</rscale>
<asrwt>0</asrwt>
<pdfrwt beam="1">  1       21 0.19037860E-01 0.14052054E+03</pdfrwt>
<pdfrwt beam="2">  1       -4 0.13190052E-01 0.14052054E+03</pdfrwt>
<totfact> 0.48616343E+04</totfact>
</mgrwt>
</event>
<event>
 6    4  0.3189516E-003  0.1304407E+03  0.7818608E-02  0.1226803E+00
         21   -1    0    0  501  502  0.00000000000E+00  0.00000000000E+00  0.48905503309E+02  0.48905503309E+02  0.00000000000E+00 0.  1.
          4   -1    0    0  502    0 -0.00000000000E+00 -0.00000000000E+00 -0.15895743245E+03  0.15896250574E+03  0.12700000000E+01 0.  1.
         25    2    1    2    0    0 -0.37275305325E+02  0.46624841747E+00 -0.55439341030E+02  0.14173319632E+03  0.12500045052E+03 0.  0.
    9000005    1    3    3    0    0 -0.47404281277E+02 -0.81882271583E+01 -0.91443470687E+02  0.10333015668E+03  0.10000000000E+01 0.  0.
    9000005    1    3    3    0    0  0.10128975952E+02  0.86544755758E+01  0.36004129657E+02  0.38403039642E+02  0.10000000000E+01 0.  0.
          4    1    1    2  501    0  0.37275305325E+02 -0.46624841747E+00 -0.54612588110E+02  0.66134812729E+02  0.12700000000E+01 0. -1.
<mgrwt>
<rscale>  1 0.13044071E+03</rscale>
<asrwt>0</asrwt>
<pdfrwt beam="1">  1       21 0.75239234E-02 0.13044071E+03</pdfrwt>
<pdfrwt beam="2">  1        4 0.24456649E-01 0.13044071E+03</pdfrwt>
<totfact> 0.83484145E+04</totfact>
</mgrwt>
</event>
<event>
 6    4  0.3189516E-003  0.1266378E+03  0.7818608E-02  0.1232532E+00
         -4   -1    0    0    0  501 -0.00000000000E+00  0.00000000000E+00  0.40714125964E+03  0.40714324040E+03  0.12700000000E+01 0. -1.
         21   -1    0    0  501  502  0.00000000000E+00 -0.00000000000E+00 -0.17032288983E+02  0.17032288983E+02  0.00000000000E+00 0. -1.
         25    2    1    2    0    0  0.19175080602E+02  0.66608724906E+01  0.38171377316E+03  0.40217227554E+03  0.12500033463E+03 0.  0.
    9000005    1    3    3    0    0 -0.29520458978E+02  0.11599997518E+02  0.20776150332E+02  0.37929749054E+02  0.10000000000E+01 0.  0.
    9000005    1    3    3    0    0  0.48695539580E+02 -0.49391250276E+01  0.36093762283E+03  0.36424252649E+03  0.10000000000E+01 0.  0.
         -4    1    1    2    0  502 -0.19175080602E+02 -0.66608724906E+01  0.83951974995E+01  0.22003253839E+02  0.12700000000E+01 0.  1.
<mgrwt>
<rscale>  1 0.12663781E+03</rscale>
<asrwt>0</asrwt>
<pdfrwt beam="2">  1       21 0.26203525E-02 0.12663781E+03</pdfrwt>
<pdfrwt beam="1">  1       -4 0.62640904E-01 0.12663781E+03</pdfrwt>
<totfact> 0.76324860E+04</totfact>
</mgrwt>
</event>
<event>
 6    4  0.3189516E-003  0.1289066E+03  0.7818608E-02  0.1229087E+00
         -4   -1    0    0    0  501 -0.00000000000E+00  0.00000000000E+00  0.89573811278E+02  0.89582814015E+02  0.12700000000E+01 0.  1.
         21   -1    0    0  501  502  0.00000000000E+00 -0.00000000000E+00 -0.35437815835E+03  0.35437815835E+03  0.00000000000E+00 0. -1.
         25    2    1    2    0    0  0.14707848727E+01 -0.31444437338E+02  0.41974798609E+02  0.13556840927E+03  0.12500397604E+03 0.  0.
    9000005    1    3    3    0    0  0.61586103877E+02 -0.91037173090E+01  0.73961237817E+01  0.62701104508E+02  0.10000000000E+01 0.  0.
    9000005    1    3    3    0    0 -0.60115319004E+02 -0.22340720029E+02  0.34578674827E+02  0.72867304761E+02  0.10000000000E+01 0.  0.
         -4    1    1    2    0  502 -0.14707848727E+01  0.31444437338E+02 -0.30677914568E+03  0.30839256309E+03  0.12700000000E+01 0. -1.
<mgrwt>
<rscale>  1 0.12890659E+03</rscale>
<asrwt>0</asrwt>
<pdfrwt beam="2">  1       21 0.54519717E-01 0.12890659E+03</pdfrwt>
<pdfrwt beam="1">  1       -4 0.13781454E-01 0.12890659E+03</pdfrwt>
<totfact> 0.57249155E+03</totfact>
</mgrwt>
</event>
<event>
 6    4  0.3189516E-003  0.1270226E+03  0.7818608E-02  0.1231942E+00
         -4   -1    0    0    0  501 -0.00000000000E+00  0.00000000000E+00  0.26313367811E+03  0.26313674288E+03  0.12700000000E+01 0.  1.
         21   -1    0    0  501  502  0.00000000000E+00 -0.00000000000E+00 -0.46915789468E+02  0.46915789468E+02  0.00000000000E+00 0. -1.
         25    2    1    2    0    0 -0.17462542274E+02 -0.14307039152E+02  0.24348729151E+03  0.27462845883E+03  0.12500039008E+03 0.  0.
    9000005    1    3    3    0    0  0.48238698602E+01  0.29183361906E+02  0.21704977529E+03  0.21905831024E+03  0.10000000000E+01 0.  0.
    9000005    1    3    3    0    0 -0.22286412134E+02 -0.43490401058E+02  0.26437516222E+02  0.55570148587E+02  0.10000000000E+01 0.  0.
         -4    1    1    2    0  502  0.17462542274E+02  0.14307039152E+02 -0.27269402871E+02  0.35424073522E+02  0.12700000000E+01 0. -1.
<mgrwt>
<rscale>  1 0.12702255E+03</rscale>
<asrwt>0</asrwt>
<pdfrwt beam="2">  1       21 0.72178139E-02 0.12702255E+03</pdfrwt>
<pdfrwt beam="1">  1       -4 0.40483661E-01 0.12702255E+03</pdfrwt>
<totfact> 0.34268030E+04</totfact>
</mgrwt>
</event>
<event>
 6    4  0.3189516E-003  0.1271164E+03  0.7818608E-02  0.1231798E+00
          4   -1    0    0  502    0 -0.00000000000E+00  0.00000000000E+00  0.25197593355E+03  0.25197913403E+03  0.12700000000E+01 0.  1.
         21   -1    0    0  501  502  0.00000000000E+00 -0.00000000000E+00 -0.42035896035E+02  0.42035896035E+02  0.00000000000E+00 0. -1.
         25    2    1    2    0    0  0.19473634932E+02  0.12519106235E+02  0.23036929914E+03  0.26311328078E+03  0.12499053588E+03 0.  0.
    9000005    1    3    3    0    0  0.83171757345E+01 -0.15368708768E+02  0.23233728714E+03  0.23299568154E+03  0.10000000000E+01 0.  0.
    9000005    1    3    3    0    0  0.11156459198E+02  0.27887815003E+02 -0.19679879981E+01  0.30117599244E+02  0.10000000000E+01 0.  0.
          4    1    1    2  501    0 -0.19473634932E+02 -0.12519106235E+02 -0.20429261625E+02  0.30901749286E+02  0.12700000000E+01 0. -1.
<mgrwt>
<rscale>  1 0.12711642E+03</rscale>
<asrwt>0</asrwt>
<pdfrwt beam="2">  1       21 0.64670611E-02 0.12711642E+03</pdfrwt>
<pdfrwt beam="1">  1        4 0.38767249E-01 0.12711642E+03</pdfrwt>
<totfact> 0.45009307E+04</totfact>
</mgrwt>
</event>
<event>
 6    4  0.3189516E-003  0.1284941E+03  0.7818608E-02  0.1229707E+00
         -4   -1    0    0    0  501 -0.00000000000E+00  0.00000000000E+00  0.31581598487E+03  0.31581853841E+03  0.12700000000E+01 0.  1.
         21   -1    0    0  501  502  0.00000000000E+00 -0.00000000000E+00 -0.27294862646E+02  0.27294862646E+02  0.00000000000E+00 0. -1.
         25    2    1    2    0    0  0.25090065760E+02  0.16029623309E+02  0.28559484028E+03  0.31316951605E+03  0.12499709101E+03 0.  0.
    9000005    1    3    3    0    0 -0.15968974276E+02  0.34051009926E+01  0.26502945837E+03  0.26553383335E+03  0.10000000000E+01 0.  0.
    9000005    1    3    3    0    0  0.41059040036E+02  0.12624522316E+02  0.20565381913E+02  0.47635682693E+02  0.10000000000E+01 0.  0.
         -4    1    1    2    0  502 -0.25090065760E+02 -0.16029623309E+02  0.29262819458E+01  0.29943885006E+02  0.12700000000E+01 0. -1.
<mgrwt>
<rscale>  1 0.12849410E+03</rscale>
<asrwt>0</asrwt>
<pdfrwt beam="2">  1       21 0.41992099E-02 0.12849410E+03</pdfrwt>
<pdfrwt beam="1">  1       -4 0.48589541E-01 0.12849410E+03</pdfrwt>
<totfact> 0.59481815E+04</totfact>
</mgrwt>
</event>
<event>
 6    4  0.3189516E-003  0.1275402E+03  0.7818608E-02  0.1231152E+00
         -4   -1    0    0    0  501 -0.00000000000E+00  0.00000000000E+00  0.14148914949E+03  0.14149484911E+03  0.12700000000E+01 0. -1.
         21   -1    0    0  501  502  0.00000000000E+00 -0.00000000000E+00 -0.45742401470E+02  0.45742401470E+02  0.00000000000E+00 0. -1.
         25    2    1    2    0    0 -0.25294564171E+02 -0.12740822408E+01  0.99290216431E+02  0.16163242036E+03  0.12500021588E+03 0.  0.
    9000005    1    3    3    0    0  0.31641380374E+02  0.41870924195E+02  0.23609247717E+02  0.57556475071E+02  0.10000000000E+01 0.  0.
    9000005    1    3    3    0    0 -0.56935944545E+02 -0.43145006436E+02  0.75680968714E+02  0.10407594529E+03  0.10000000000E+01 0.  0.
         -4    1    1    2    0  502  0.25294564171E+02  0.12740822408E+01 -0.35434684104E+01  0.25604830219E+02  0.12700000000E+01 0.  1.
<mgrwt>
<rscale>  1 0.12754016E+03</rscale>
<asrwt>0</asrwt>
<pdfrwt beam="2">  1       21 0.70372927E-02 0.12754016E+03</pdfrwt>
<pdfrwt beam="1">  1       -4 0.21769356E-01 0.12754016E+03</pdfrwt>
<totfact> 0.11542837E+05</totfact>
</mgrwt>
</event>
<event>
 6    4  0.3189516E-003  0.1329331E+03  0.7818608E-02  0.1223167E+00
          4   -1    0    0  502    0 -0.00000000000E+00  0.00000000000E+00  0.84001636615E+02  0.84011236475E+02  0.12700000000E+01 0. -1.
         21   -1    0    0  501  502  0.00000000000E+00 -0.00000000000E+00 -0.30820076468E+03  0.30820076468E+03  0.00000000000E+00 0.  1.
         25    2    1    2    0    0 -0.15114690964E+02 -0.42634562829E+02  0.28113607474E+02  0.13587337893E+03  0.12500016138E+03 0.  0.
    9000005    1    3    3    0    0 -0.16910769719E+02 -0.54137764923E+02  0.71312055175E+02  0.91122340492E+02  0.10000000000E+01 0.  0.
    9000005    1    3    3    0    0  0.17960787553E+01  0.11503202094E+02 -0.43198447701E+02  0.44751038436E+02  0.10000000000E+01 0.  0.
          4    1    1    2  501    0  0.15114690964E+02  0.42634562829E+02 -0.25231273554E+03  0.25633862223E+03  0.12700000000E+01 0.  1.
<mgrwt>
<rscale>  1 0.13293307E+03</rscale>
<asrwt>0</asrwt>
<pdfrwt beam="2">  1       21 0.47415501E-01 0.13293307E+03</pdfrwt>
<pdfrwt beam="1">  1        4 0.12924269E-01 0.13293307E+03</pdfrwt>
<totfact> 0.85560137E+03</totfact>
</mgrwt>
</event>
<event>
 6    4  0.3189516E-003  0.1274634E+03  0.7818608E-02  0.1231269E+00
          4   -1    0    0  502    0 -0.00000000000E+00  0.00000000000E+00  0.22647347599E+03  0.22647703687E+03  0.12700000000E+01 0. -1.
         21   -1    0    0  501  502  0.00000000000E+00 -0.00000000000E+00 -0.25650354899E+02  0.25650354899E+02  0.00000000000E+00 0. -1.
         25    2    1    2    0    0  0.33845729932E+01 -0.24711811397E+02  0.16849208346E+03  0.21127353208E+03  0.12499917684E+03 0.  0.
    9000005    1    3    3    0    0  0.52317831699E+01  0.51173811410E+02  0.72163020768E+02  0.88626362307E+02  0.10000000000E+01 0.  0.
    9000005    1    3    3    0    0 -0.18472101766E+01 -0.75885622807E+02  0.96329062695E+02  0.12264716978E+03  0.10000000000E+01 0.  0.
          4    1    1    2  501    0 -0.33845729932E+01  0.24711811397E+02  0.32331037631E+02  0.40853859685E+02  0.12700000000E+01 0.  1.
<mgrwt>
<rscale>  1 0.12746342E+03</rscale>
<asrwt>0</asrwt>
<pdfrwt beam="2">  1       21 0.39462086E-02 0.12746342E+03</pdfrwt>
<pdfrwt beam="1">  1        4 0.34844764E-01 0.12746342E+03</pdfrwt>
<totfact> 0.12700844E+05</totfact>
</mgrwt>
</event>
<event>
 6    4  0.3189516E-003  0.1278062E+03  0.7818608E-02  0.1230748E+00
          4   -1    0    0  502    0 -0.00000000000E+00  0.00000000000E+00  0.72458655025E+02  0.72469783966E+02  0.12700000000E+01 0. -1.
         21   -1    0    0  501  502  0.00000000000E+00 -0.00000000000E+00 -0.24011324651E+03  0.24011324651E+03  0.00000000000E+00 0.  1.
         25    2    1    2    0    0  0.26627025296E+02 -0.48817159230E+00  0.14374222279E+02  0.12861200360E+03  0.12500076967E+03 0.  0.
    9000005    1    3    3    0    0 -0.10326973875E+02 -0.57731817848E+02 -0.13755264810E+01  0.58672832338E+02  0.10000000000E+01 0.  0.
    9000005    1    3    3    0    0  0.36953999171E+02  0.57243646256E+02  0.15749748760E+02  0.69939171266E+02  0.10000000000E+01 0.  0.
          4    1    1    2  501    0 -0.26627025296E+02  0.48817159230E+00 -0.18202881376E+03  0.18397102687E+03  0.12700000000E+01 0.  1.
<mgrwt>
<rscale>  1 0.12780622E+03</rscale>
<asrwt>0</asrwt>
<pdfrwt beam="2">  1       21 0.36940499E-01 0.12780622E+03</pdfrwt>
<pdfrwt beam="1">  1        4 0.11148600E-01 0.12780622E+03</pdfrwt>
<totfact> 0.18143497E+04</totfact>
</mgrwt>
</event>
<event>
 6    4  0.3189516E-003  0.1295542E+03  0.7818608E-02  0.1228119E+00
         21   -1    0    0  501  502  0.00000000000E+00  0.00000000000E+00  0.74090401091E+02  0.74090401091E+02  0.00000000000E+00 0.  1.
         -4   -1    0    0    0  501 -0.00000000000E+00 -0.00000000000E+00 -0.11539669116E+03  0.11540367945E+03  0.12700000000E+01 0.  1.
         25    2    1    2    0    0  0.29777194083E+02  0.16475796081E+02 -0.67915110536E+02  0.14627631370E+03  0.12500465819E+03 0.  0.
    9000005    1    3    3    0    0  0.44688900805E+02  0.28873563567E+02  0.19542141060E+02  0.56689291806E+02  0.10000000000E+01 0.  0.
    9000005    1    3    3    0    0 -0.14911706722E+02 -0.12397767486E+02 -0.87457251596E+02  0.89587021899E+02  0.10000000000E+01 0.  0.
         -4    1    1    2    0  502 -0.29777194083E+02 -0.16475796081E+02  0.26608820465E+02  0.43217766838E+02  0.12700000000E+01 0. -1.
<mgrwt>
<rscale>  1 0.12955423E+03</rscale>
<asrwt>0</asrwt>
<pdfrwt beam="1">  1       21 0.11398523E-01 0.12955423E+03</pdfrwt>
<pdfrwt beam="2">  1       -4 0.17754712E-01 0.12955423E+03</pdfrwt>
<totfact> 0.72159013E+04</totfact>
</mgrwt>
</event>
<event>
 6    4  0.3189516E-003  0.1279889E+03  0.7818608E-02  0.1230471E+00
         21   -1    0    0  501  502  0.00000000000E+00  0.00000000000E+00  0.18266863049E+03  0.18266863049E+03  0.00000000000E+00 0.  1.
         -4   -1    0    0    0  501 -0.00000000000E+00 -0.00000000000E+00 -0.51521980343E+02  0.51537630509E+02  0.12700000000E+01 0. -1.
         25    2    1    2    0    0  0.15782984497E+02  0.22560864766E+02  0.32876641827E+02  0.13214401208E+03  0.12499228429E+03 0.  0.
    9000005    1    3    3    0    0  0.21189308283E+02 -0.38386923600E+02 -0.22782738595E+02  0.49422625050E+02  0.10000000000E+01 0.  0.
    9000005    1    3    3    0    0 -0.54063237860E+01  0.60947788366E+02  0.55659380422E+02  0.82721387032E+02  0.10000000000E+01 0.  0.
         -4    1    1    2    0  502 -0.15782984497E+02 -0.22560864766E+02  0.98270008316E+02  0.10206224891E+03  0.12700000000E+01 0.  1.
<mgrwt>
<rscale>  1 0.12798893E+03</rscale>
<asrwt>0</asrwt>
<pdfrwt beam="1">  1       21 0.28102866E-01 0.12798893E+03</pdfrwt>
<pdfrwt beam="2">  1       -4 0.79280021E-02 0.12798893E+03</pdfrwt>
<totfact> 0.54668424E+04</totfact>
</mgrwt>
</event>
<event>
 6    4  0.3189516E-003  0.1272128E+03  0.7818608E-02  0.1231651E+00
          4   -1    0    0  502    0 -0.00000000000E+00  0.00000000000E+00  0.23700835603E+03  0.23701175863E+03  0.12700000000E+01 0. -1.
         21   -1    0    0  501  502  0.00000000000E+00 -0.00000000000E+00 -0.24520424071E+02  0.24520424071E+02  0.00000000000E+00 0. -1.
         25    2    1    2    0    0 -0.21896403096E+02  0.88327213340E+01  0.19157776648E+03  0.22996768753E+03  0.12500250903E+03 0.  0.
    9000005    1    3    3    0    0  0.14731365057E+02 -0.24726536343E+02 -0.31772757700E+01  0.28974295458E+02  0.10000000000E+01 0.  0.
    9000005    1    3    3    0    0 -0.36627768153E+02  0.33559257677E+02  0.19475504225E+03  0.20099339208E+03  0.10000000000E+01 0.  0.
          4    1    1    2  501    0  0.21896403096E+02 -0.88327213340E+01  0.20910165478E+02  0.31564495165E+02  0.12700000000E+01 0.  1.
<mgrwt>
<rscale>  1 0.12721280E+03</rscale>
<asrwt>0</asrwt>
<pdfrwt beam="2">  1       21 0.37723731E-02 0.12721280E+03</pdfrwt>
<pdfrwt beam="1">  1        4 0.36465614E-01 0.12721280E+03</pdfrwt>
<totfact> 0.12530790E+05</totfact>
</mgrwt>
</event>
<event>
 6    4  0.3189516E-003  0.1483819E+03  0.7818608E-02  0.1202476E+00
         21   -1    0    0  501  502  0.00000000000E+00  0.00000000000E+00  0.15660073835E+02  0.15660073835E+02  0.00000000000E+00 0.  1.
         -4   -1    0    0    0  501 -0.00000000000E+00 -0.00000000000E+00 -0.83405367773E+03  0.83405464463E+03  0.12700000000E+01 0. -1.
         25    2    1    2    0    0 -0.42078512196E+02 -0.67954295812E+02 -0.55079403796E+03  0.57043076244E+03  0.12501517897E+03 0.  0.
    9000005    1    3    3    0    0 -0.82449300767E+02 -0.39292024322E+02 -0.43510131892E+03  0.44458509657E+03  0.10000000000E+01 0.  0.
    9000005    1    3    3    0    0  0.40370788571E+02 -0.28662271490E+02 -0.11569271905E+03  0.12584566586E+03  0.10000000000E+01 0.  0.
         -4    1    1    2    0  502  0.42078512196E+02  0.67954295812E+02 -0.26759956593E+03  0.27928395603E+03  0.12700000000E+01 0.  1.
<mgrwt>
<rscale>  1 0.14838188E+03</rscale>
<asrwt>0</asrwt>
<pdfrwt beam="1">  1       21 0.24092418E-02 0.14838188E+03</pdfrwt>
<pdfrwt beam="2">  1       -4 0.12832000E+00 0.14838188E+03</pdfrwt>
<totfact> 0.17559014E+04</totfact>
</mgrwt>
</event>
<event>
 6    4  0.3189516E-003  0.1281499E+03  0.7818608E-02  0.1230227E+00
          4   -1    0    0  502    0 -0.00000000000E+00  0.00000000000E+00  0.72053135546E+03  0.72053247470E+03  0.12700000000E+01 0. -1.
         21   -1    0    0  501  502  0.00000000000E+00 -0.00000000000E+00 -0.19059953510E+02  0.19059953510E+02  0.00000000000E+00 0.  1.
         25    2    1    2    0    0 -0.97677242803E+01  0.26398056026E+02  0.69972434917E+03  0.71136246376E+03  0.12502049520E+03 0.  0.
    9000005    1    3    3    0    0 -0.14389622390E+02  0.43802596544E+02  0.87817926545E+02  0.99190306578E+02  0.10000000000E+01 0.  0.
    9000005    1    3    3    0    0  0.46218981097E+01 -0.17404540518E+02  0.61190642263E+03  0.61217215718E+03  0.10000000000E+01 0.  0.
          4    1    1    2  501    0  0.97677242803E+01 -0.26398056026E+02  0.17470527739E+01  0.28229964452E+02  0.12700000000E+01 0.  1.
<mgrwt>
<rscale>  1 0.12814987E+03</rscale>
<asrwt>0</asrwt>
<pdfrwt beam="2">  1       21 0.29323011E-02 0.12814987E+03</pdfrwt>
<pdfrwt beam="1">  1        4 0.11085430E+00 0.12814987E+03</pdfrwt>
<totfact> 0.17827158E+04</totfact>
</mgrwt>
</event>
<event>
 6    4  0.3189516E-003  0.1267097E+03  0.7818608E-02  0.1232421E+00
         -4   -1    0    0    0  501 -0.00000000000E+00  0.00000000000E+00  0.64248275240E+03  0.64248400760E+03  0.12700000000E+01 0. -1.
         21   -1    0    0  501  502  0.00000000000E+00 -0.00000000000E+00 -0.45081840730E+02  0.45081840730E+02  0.00000000000E+00 0.  1.
         25    2    1    2    0    0 -0.11788223656E+01 -0.20776888492E+02  0.63340842994E+03  0.64595788047E+03  0.12498910157E+03 0.  0.
    9000005    1    3    3    0    0  0.22922454377E+02  0.35077361693E+02  0.91483971119E+02  0.10062890832E+03  0.10000000000E+01 0.  0.
    9000005    1    3    3    0    0 -0.24101276742E+02 -0.55854250184E+02  0.54192445882E+03  0.54532897215E+03  0.10000000000E+01 0.  0.
         -4    1    1    2    0  502  0.11788223656E+01  0.20776888492E+02 -0.36007518270E+02  0.41607967861E+02  0.12700000000E+01 0.  1.
<mgrwt>
<rscale>  1 0.12670968E+03</rscale>
<asrwt>0</asrwt>
<pdfrwt beam="2">  1       21 0.69356683E-02 0.12670968E+03</pdfrwt>
<pdfrwt beam="1">  1       -4 0.98844966E-01 0.12670968E+03</pdfrwt>
<totfact> 0.55189644E+03</totfact>
</mgrwt>
</event>
<event>
 6    4  0.3189516E-003  0.1321394E+03  0.7818608E-02  0.1224315E+00
         21   -1    0    0  501  502  0.00000000000E+00  0.00000000000E+00  0.32251394176E+02  0.32251394176E+02  0.00000000000E+00 0. -1.
         -4   -1    0    0    0  501 -0.00000000000E+00 -0.00000000000E+00 -0.24156534823E+03  0.24156868664E+03  0.12700000000E+01 0. -1.
         25    2    1    2    0    0 -0.21778424258E+02  0.36888321502E+02 -0.14155507788E+03  0.19364573189E+03  0.12500312547E+03 0.  0.
    9000005    1    3    3    0    0  0.33580497185E+02  0.54791747060E+02 -0.37462982808E+02  0.74392609969E+02  0.10000000000E+01 0.  0.
    9000005    1    3    3    0    0 -0.55358921444E+02 -0.17903425558E+02 -0.10409209507E+03  0.11925312192E+03  0.10000000000E+01 0.  0.
         -4    1    1    2    0  502  0.21778424258E+02 -0.36888321502E+02 -0.67758876170E+02  0.80174348929E+02  0.12700000000E+01 0.  1.
<mgrwt>
<rscale>  1 0.13213943E+03</rscale>
<asrwt>0</asrwt>
<pdfrwt beam="1">  1       21 0.49617527E-02 0.13213943E+03</pdfrwt>
<pdfrwt beam="2">  1       -4 0.37166082E-01 0.13213943E+03</pdfrwt>
<totfact> 0.76890372E+04</totfact>
</mgrwt>
</event>
<event>
 6    4  0.3189516E-003  0.1270943E+03  0.7818608E-02  0.1231832E+00
         21   -1    0    0  501  502  0.00000000000E+00  0.00000000000E+00  0.87146883118E+02  0.87146883118E+02  0.00000000000E+00 0. -1.
         -4   -1    0    0    0  501 -0.00000000000E+00 -0.00000000000E+00 -0.28591619045E+03  0.28591901102E+03  0.12700000000E+01 0.  1.
         25    2    1    2    0    0  0.20712249610E+02 -0.98460391006E+01 -0.26989560462E+03  0.29832296914E+03  0.12500805876E+03 0.  0.
    9000005    1    3    3    0    0 -0.23649404425E+02 -0.45206635618E+02 -0.50816249809E+02  0.72015453052E+02  0.10000000000E+01 0.  0.
    9000005    1    3    3    0    0  0.44361654035E+02  0.35360596518E+02 -0.21907935481E+03  0.22630751609E+03  0.10000000000E+01 0.  0.
         -4    1    1    2    0  502 -0.20712249610E+02  0.98460391006E+01  0.71126297291E+02  0.74742924991E+02  0.12700000000E+01 0. -1.
<mgrwt>
<rscale>  1 0.12709428E+03</rscale>
<asrwt>0</asrwt>
<pdfrwt beam="1">  1       21 0.13407213E-01 0.12709428E+03</pdfrwt>
<pdfrwt beam="2">  1       -4 0.43988035E-01 0.12709428E+03</pdfrwt>
<totfact> 0.98522787E+03</totfact>
</mgrwt>
</event>
<event>
 6    4  0.3189516E-003  0.1272615E+03  0.7818608E-02  0.1231577E+00
         21   -1    0    0  501  502  0.00000000000E+00  0.00000000000E+00  0.64755489479E+02  0.64755489479E+02  0.00000000000E+00 0.  1.
         -4   -1    0    0    0  501 -0.00000000000E+00 -0.00000000000E+00 -0.10101441674E+03  0.10102239994E+03  0.12700000000E+01 0. -1.
         25    2    1    2    0    0  0.30277643219E+01 -0.23688964069E+02 -0.51644051909E+02  0.13734112912E+03  0.12500057310E+03 0.  0.
    9000005    1    3    3    0    0  0.46516334152E+02 -0.46950361983E+01 -0.71870819073E+02  0.85745130136E+02  0.10000000000E+01 0.  0.
    9000005    1    3    3    0    0 -0.43488569830E+02 -0.18993927871E+02  0.20226767164E+02  0.51595998989E+02  0.10000000000E+01 0.  0.
         -4    1    1    2    0  502 -0.30277643219E+01  0.23688964069E+02  0.15385124648E+02  0.28436760292E+02  0.12700000000E+01 0.  1.
<mgrwt>
<rscale>  1 0.12726145E+03</rscale>
<asrwt>0</asrwt>
<pdfrwt beam="1">  1       21 0.99623830E-02 0.12726145E+03</pdfrwt>
<pdfrwt beam="2">  1       -4 0.15542252E-01 0.12726145E+03</pdfrwt>
<totfact> 0.11528196E+05</totfact>
</mgrwt>
</event>
<event>
 6    4  0.3189516E-003  0.1287613E+03  0.7818608E-02  0.1229305E+00
          4   -1    0    0  502    0 -0.00000000000E+00  0.00000000000E+00  0.22131633259E+02  0.22168042103E+02  0.12700000000E+01 0. -1.
         21   -1    0    0  501  502  0.00000000000E+00 -0.00000000000E+00 -0.60636705148E+03  0.60636705148E+03  0.00000000000E+00 0.  1.
         25    2    1    2    0    0  0.17709609074E+02  0.25319958006E+02 -0.17056236175E+03  0.21370773060E+03  0.12499897738E+03 0.  0.
    9000005    1    3    3    0    0  0.14331433601E+02 -0.20428348710E+02 -0.16569499960E+03  0.16756652503E+03  0.10000000000E+01 0.  0.
    9000005    1    3    3    0    0  0.33781754730E+01  0.45748306716E+02 -0.48673621504E+01  0.46141205568E+02  0.10000000000E+01 0.  0.
          4    1    1    2  501    0 -0.17709609074E+02 -0.25319958006E+02 -0.41367305648E+03  0.41482736299E+03  0.12700000000E+01 0.  1.
<mgrwt>
<rscale>  1 0.12876131E+03</rscale>
<asrwt>0</asrwt>
<pdfrwt beam="2">  1       21 0.93287246E-01 0.12876131E+03</pdfrwt>
<pdfrwt beam="1">  1        4 0.34077694E-02 0.12876131E+03</pdfrwt>
<totfact> 0.17509767E+04</totfact>
</mgrwt>
</event>
<event>
 6    4  0.3189516E-003  0.1310344E+03  0.7818608E-02  0.1225929E+00
          4   -1    0    0  502    0 -0.00000000000E+00  0.00000000000E+00  0.18275152021E+03  0.18275593298E+03  0.12700000000E+01 0. -1.
         21   -1    0    0  501  502  0.00000000000E+00 -0.00000000000E+00 -0.56072639350E+03  0.56072639350E+03  0.00000000000E+00 0.  1.
         25    2    1    2    0    0  0.12275248349E+02  0.37340659053E+02  0.15845311843E+03  0.20561467573E+03  0.12499999038E+03 0.  0.
    9000005    1    3    3    0    0 -0.13834773131E+02  0.70793900532E+02  0.14349471105E+03  0.16060793692E+03  0.10000000000E+01 0.  0.
    9000005    1    3    3    0    0  0.26110021480E+02 -0.33453241479E+02  0.14958407374E+02  0.45006738810E+02  0.10000000000E+01 0.  0.
          4    1    1    2  501    0 -0.12275248349E+02 -0.37340659053E+02 -0.53642799171E+03  0.53786765076E+03  0.12700000000E+01 0.  1.
<mgrwt>
<rscale>  1 0.13103436E+03</rscale>
<asrwt>0</asrwt>
<pdfrwt beam="2">  1       21 0.86265597E-01 0.13103436E+03</pdfrwt>
<pdfrwt beam="1">  1        4 0.28116069E-01 0.13103436E+03</pdfrwt>
<totfact> 0.58651873E+02</totfact>
</mgrwt>
</event>
<event>
 6    4  0.3189516E-003  0.1324695E+03  0.7818608E-02  0.1223837E+00
          4   -1    0    0  502    0 -0.00000000000E+00  0.00000000000E+00  0.21619559961E+03  0.21619932977E+03  0.12700000000E+01 0.  1.
         21   -1    0    0  501  502  0.00000000000E+00 -0.00000000000E+00 -0.36332383781E+02  0.36332383781E+02  0.00000000000E+00 0.  1.
         25    2    1    2    0    0 -0.43813310662E+02  0.17407261947E+01  0.14580866279E+03  0.19699828396E+03  0.12500208566E+03 0.  0.
    9000005    1    3    3    0    0  0.25116592858E+02 -0.40417583034E+02  0.31743108855E+02  0.57210569083E+02  0.10000000000E+01 0.  0.
    9000005    1    3    3    0    0 -0.68929903520E+02  0.42158309229E+02  0.11406555393E+03  0.13978771488E+03  0.10000000000E+01 0.  0.
          4    1    1    2  501    0  0.43813310662E+02 -0.17407261947E+01  0.34054553044E+02  0.55533429589E+02  0.12700000000E+01 0. -1.
<mgrwt>
<rscale>  1 0.13246946E+03</rscale>
<asrwt>0</asrwt>
<pdfrwt beam="2">  1       21 0.55895976E-02 0.13246946E+03</pdfrwt>
<pdfrwt beam="1">  1        4 0.33262855E-01 0.13246946E+03</pdfrwt>
<totfact> 0.77955862E+04</totfact>
</mgrwt>
</event>
<event>
 6    4  0.3189516E-003  0.1267513E+03  0.7818608E-02  0.1232357E+00
         21   -1    0    0  501  502  0.00000000000E+00  0.00000000000E+00  0.42192483355E+02  0.42192483355E+02  0.00000000000E+00 0.  1.
          4   -1    0    0  502    0 -0.00000000000E+00 -0.00000000000E+00 -0.28140423042E+03  0.28140709621E+03  0.12700000000E+01 0. -1.
         25    2    1    2    0    0 -0.29183855992E+01 -0.20741632326E+02 -0.26295658692E+03  0.29191105474E+03  0.12500865965E+03 0.  0.
    9000005    1    3    3    0    0  0.40188022769E+02 -0.31374954795E+02 -0.23258316138E+03  0.23810794174E+03  0.10000000000E+01 0.  0.
    9000005    1    3    3    0    0 -0.43106408368E+02  0.10633322469E+02 -0.30373425538E+02  0.53803112996E+02  0.10000000000E+01 0.  0.
          4    1    1    2  501    0  0.29183855992E+01  0.20741632326E+02  0.23744839855E+02  0.31688524829E+02  0.12700000000E+01 0.  1.
<mgrwt>
<rscale>  1 0.12675132E+03</rscale>
<asrwt>0</asrwt>
<pdfrwt beam="1">  1       21 0.64911511E-02 0.12675132E+03</pdfrwt>
<pdfrwt beam="2">  1        4 0.43294651E-01 0.12675132E+03</pdfrwt>
<totfact> 0.35957908E+04</totfact>
</mgrwt>
</event>
<event>
 6    4  0.3189516E-003  0.1312014E+03  0.7818608E-02  0.1225684E+00
         -4   -1    0    0    0  501 -0.00000000000E+00  0.00000000000E+00  0.16674832372E+02  0.16723125744E+02  0.12700000000E+01 0.  1.
         21   -1    0    0  501  502  0.00000000000E+00 -0.00000000000E+00 -0.44087603050E+03  0.44087603050E+03  0.00000000000E+00 0.  1.
         25    2    1    2    0    0 -0.10327909122E+02  0.38520834918E+02 -0.30971104467E+03  0.33635506951E+03  0.12499312446E+03 0.  0.
    9000005    1    3    3    0    0 -0.68473219141E+01 -0.27238192704E+02 -0.10530614252E+02  0.30011644335E+02  0.10000000000E+01 0.  0.
    9000005    1    3    3    0    0 -0.34805872078E+01  0.65759027622E+02 -0.29918043042E+03  0.30634342518E+03  0.10000000000E+01 0.  0.
         -4    1    1    2    0  502  0.10327909122E+02 -0.38520834918E+02 -0.11449015345E+03  0.12124408673E+03  0.12700000000E+01 0. -1.
<mgrwt>
<rscale>  1 0.13120138E+03</rscale>
<asrwt>0</asrwt>
<pdfrwt beam="2">  1       21 0.67827071E-01 0.13120138E+03</pdfrwt>
<pdfrwt beam="1">  1       -4 0.25692148E-02 0.13120138E+03</pdfrwt>
<totfact> 0.55602561E+04</totfact>
</mgrwt>
</event>
<event>
 6    4  0.3189516E-003  0.1282335E+03  0.7818608E-02  0.1230101E+00
         21   -1    0    0  501  502  0.00000000000E+00  0.00000000000E+00  0.24245095306E+03  0.24245095306E+03  0.00000000000E+00 0. -1.
         -4   -1    0    0    0  501 -0.00000000000E+00 -0.00000000000E+00 -0.11289067467E+03  0.11289781808E+03  0.12700000000E+01 0.  1.
         25    2    1    2    0    0  0.31231531768E+01 -0.28444238896E+02 -0.75158508755E+02  0.14863586994E+03  0.12499996632E+03 0.  0.
    9000005    1    3    3    0    0 -0.86489402757E+01 -0.73940472942E+02 -0.21909627576E+02  0.77608179255E+02  0.10000000000E+01 0.  0.
    9000005    1    3    3    0    0  0.11772093452E+02  0.45496234046E+02 -0.53248881179E+02  0.71027690681E+02  0.10000000000E+01 0.  0.
         -4    1    1    2    0  502 -0.31231531768E+01  0.28444238896E+02  0.20471878715E+03  0.20671290120E+03  0.12700000000E+01 0. -1.
<mgrwt>
<rscale>  1 0.12823346E+03</rscale>
<asrwt>0</asrwt>
<pdfrwt beam="1">  1       21 0.37300147E-01 0.12823346E+03</pdfrwt>
<pdfrwt beam="2">  1       -4 0.17368601E-01 0.12823346E+03</pdfrwt>
<totfact> 0.82604606E+03</totfact>
</mgrwt>
</event>
<event>
 6    4  0.3189516E-003  0.1315130E+03  0.7818608E-02  0.1225228E+00
         21   -1    0    0  501  502  0.00000000000E+00  0.00000000000E+00  0.10503573592E+03  0.10503573592E+03  0.00000000000E+00 0.  1.
          4   -1    0    0  502    0 -0.00000000000E+00 -0.00000000000E+00 -0.97034394716E+03  0.97034477826E+03  0.12700000000E+01 0. -1.
         25    2    1    2    0    0 -0.37769427674E+02  0.15583838231E+02 -0.96171494201E+03  0.97066539435E+03  0.12500516958E+03 0.  0.
    9000005    1    3    3    0    0 -0.71765273235E+02 -0.45188240693E+01 -0.83111817712E+03  0.83422365020E+03  0.10000000000E+01 0.  0.
    9000005    1    3    3    0    0  0.33995845561E+02  0.20102662300E+02 -0.13059676489E+03  0.13644174415E+03  0.10000000000E+01 0.  0.
          4    1    1    2  501    0  0.37769427674E+02 -0.15583838231E+02  0.96406730772E+02  0.10471511982E+03  0.12700000000E+01 0.  1.
<mgrwt>
<rscale>  1 0.13151303E+03</rscale>
<asrwt>0</asrwt>
<pdfrwt beam="1">  1       21 0.16159344E-01 0.13151303E+03</pdfrwt>
<pdfrwt beam="2">  1        4 0.14928434E+00 0.13151303E+03</pdfrwt>
<totfact> 0.46240991E+02</totfact>
</mgrwt>
</event>
<event>
 6    4  0.3189516E-003  0.1286909E+03  0.7818608E-02  0.1229411E+00
          4   -1    0    0  502    0 -0.00000000000E+00  0.00000000000E+00  0.10945445591E+03  0.10946182356E+03  0.12700000000E+01 0.  1.
         21   -1    0    0  501  502  0.00000000000E+00 -0.00000000000E+00 -0.87856962904E+02  0.87856962904E+02  0.00000000000E+00 0. -1.
         25    2    1    2    0    0 -0.24693826819E+02 -0.18004544003E+02  0.65036777874E+02  0.14419126951E+03  0.12500956379E+03 0.  0.
    9000005    1    3    3    0    0 -0.60424345187E+02  0.30806996835E+02  0.28993003317E+02  0.73768331868E+02  0.10000000000E+01 0.  0.
    9000005    1    3    3    0    0  0.35730518368E+02 -0.48811540837E+02  0.36043774557E+02  0.70422937642E+02  0.10000000000E+01 0.  0.
          4    1    1    2  501    0  0.24693826819E+02  0.18004544003E+02 -0.43439284873E+02  0.53127516956E+02  0.12700000000E+01 0. -1.
<mgrwt>
<rscale>  1 0.12869087E+03</rscale>
<asrwt>0</asrwt>
<pdfrwt beam="2">  1       21 0.13516456E-01 0.12869087E+03</pdfrwt>
<pdfrwt beam="1">  1        4 0.16840420E-01 0.12869087E+03</pdfrwt>
<totfact> 0.58486907E+04</totfact>
</mgrwt>
</event>
<event>
 6    4  0.3189516E-003  0.1295229E+03  0.7818608E-02  0.1228165E+00
         21   -1    0    0  501  502  0.00000000000E+00  0.00000000000E+00  0.94586002476E+03  0.94586002476E+03  0.00000000000E+00 0.  1.
          4   -1    0    0  502    0 -0.00000000000E+00 -0.00000000000E+00 -0.77213689952E+01  0.78251159199E+01  0.12700000000E+01 0.  1.
         25    2    1    2    0    0 -0.31930023345E+02 -0.11382602138E+02  0.59839507542E+03  0.61225227275E+03  0.12500835640E+03 0.  0.
    9000005    1    3    3    0    0 -0.35793451664E+02 -0.60447023631E+02  0.22740698801E+03  0.23801250396E+03  0.10000000000E+01 0.  0.
    9000005    1    3    3    0    0  0.38634283194E+01  0.49064421493E+02  0.37098808741E+03  0.37423976878E+03  0.10000000000E+01 0.  0.
          4    1    1    2  501    0  0.31930023345E+02  0.11382602138E+02  0.33974358034E+03  0.34143286793E+03  0.12700000000E+01 0. -1.
<mgrwt>
<rscale>  1 0.12952289E+03</rscale>
<asrwt>0</asrwt>
<pdfrwt beam="1">  1       21 0.14551684E+00 0.12952289E+03</pdfrwt>
<pdfrwt beam="2">  1        4 0.11959498E-02 0.12952289E+03</pdfrwt>
<totfact> 0.29885165E+04</totfact>
</mgrwt>
</event>
<event>
 6    4  0.3189516E-003  0.1345769E+03  0.7818608E-02  0.1220818E+00
         21   -1    0    0  501  502  0.00000000000E+00  0.00000000000E+00  0.18919000783E+03  0.18919000783E+03  0.00000000000E+00 0.  1.
          4   -1    0    0  502    0 -0.00000000000E+00 -0.00000000000E+00 -0.46615622695E+02  0.46632919480E+02  0.12700000000E+01 0.  1.
         25    2    1    2    0    0 -0.32408379083E+02  0.37884704723E+02  0.12276971715E+03  0.18216296402E+03  0.12500155249E+03 0.  0.
    9000005    1    3    3    0    0 -0.72063096892E+02  0.13374305137E+02  0.11272966857E+03  0.13446538643E+03  0.10000000000E+01 0.  0.
    9000005    1    3    3    0    0  0.39654717808E+02  0.24510399586E+02  0.10040048575E+02  0.47697577587E+02  0.10000000000E+01 0.  0.
          4    1    1    2  501    0  0.32408379083E+02 -0.37884704723E+02  0.19804667994E+02  0.53659963297E+02  0.12700000000E+01 0. -1.
<mgrwt>
<rscale>  1 0.13457690E+03</rscale>
<asrwt>0</asrwt>
<pdfrwt beam="1">  1       21 0.29106155E-01 0.13457690E+03</pdfrwt>
<pdfrwt beam="2">  1        4 0.71732928E-02 0.13457690E+03</pdfrwt>
<totfact> 0.60633907E+04</totfact>
</mgrwt>
</event>
<event>
 6    4  0.3189516E-003  0.2004288E+03  0.7818608E-02  0.1149378E+00
         21   -1    0    0  501  502  0.00000000000E+00  0.00000000000E+00  0.23657409498E+03  0.23657409498E+03  0.00000000000E+00 0. -1.
          4   -1    0    0  502    0 -0.00000000000E+00 -0.00000000000E+00 -0.14076578303E+03  0.14077151193E+03  0.12700000000E+01 0.  1.
         25    2    1    2    0    0  0.27200559866E+02  0.15429534719E+03  0.14830261211E+02  0.20097672581E+03  0.12499913219E+03 0.  0.
    9000005    1    3    3    0    0  0.57762349285E+02  0.31108048000E+02 -0.21341356684E+02  0.68997486551E+02  0.10000000000E+01 0.  0.
    9000005    1    3    3    0    0 -0.30561789419E+02  0.12318729919E+03  0.36171617895E+02  0.13197923926E+03  0.10000000000E+01 0.  0.
          4    1    1    2  501    0 -0.27200559866E+02 -0.15429534719E+03  0.80978050735E+02  0.17636888110E+03  0.12700000000E+01 0. -1.
<mgrwt>
<rscale>  1 0.20042881E+03</rscale>
<asrwt>0</asrwt>
<pdfrwt beam="1">  1       21 0.36396015E-01 0.20042881E+03</pdfrwt>
<pdfrwt beam="2">  1        4 0.21656977E-01 0.20042881E+03</pdfrwt>
<totfact> 0.59848015E+03</totfact>
</mgrwt>
</event>
<event>
 6    4  0.3189516E-003  0.1559616E+03  0.7818608E-02  0.1193333E+00
         21   -1    0    0  501  502  0.00000000000E+00  0.00000000000E+00  0.31952395778E+03  0.31952395778E+03  0.00000000000E+00 0. -1.
          4   -1    0    0  502    0 -0.00000000000E+00 -0.00000000000E+00 -0.54798202651E+02  0.54812917399E+02  0.12700000000E+01 0.  1.
         25    2    1    2    0    0  0.90205080875E+02 -0.23660961365E+02  0.10068942994E+03  0.18564048785E+03  0.12500892656E+03 0.  0.
    9000005    1    3    3    0    0  0.91830135471E+02 -0.61382736802E+02  0.98180757490E+02  0.14778726366E+03  0.10000000000E+01 0.  0.
    9000005    1    3    3    0    0 -0.16250545959E+01  0.37721775437E+02  0.25086724506E+01  0.37853224196E+02  0.10000000000E+01 0.  0.
          4    1    1    2  501    0 -0.90205080875E+02  0.23660961365E+02  0.16403632519E+03  0.18869638733E+03  0.12700000000E+01 0. -1.
<mgrwt>
<rscale>  1 0.15596163E+03</rscale>
<asrwt>0</asrwt>
<pdfrwt beam="1">  1       21 0.49157531E-01 0.15596163E+03</pdfrwt>
<pdfrwt beam="2">  1        4 0.84318190E-02 0.15596163E+03</pdfrwt>
<totfact> 0.16565724E+04</totfact>
</mgrwt>
</event>
<event>
 6    4  0.3189516E-003  0.1269331E+03  0.7818608E-02  0.1232079E+00
         21   -1    0    0  501  502  0.00000000000E+00  0.00000000000E+00  0.12812152968E+04  0.12812152968E+04  0.00000000000E+00 0. -1.
          4   -1    0    0  502    0 -0.00000000000E+00 -0.00000000000E+00 -0.46989186117E+01  0.48675184766E+01  0.12700000000E+01 0. -1.
         25    2    1    2    0    0 -0.13305697744E+02 -0.17615225949E+02  0.89868540836E+03  0.90760534906E+03  0.12499867460E+03 0.  0.
    9000005    1    3    3    0    0  0.63848511991E+01 -0.16305128751E+02  0.13330850651E+02  0.22030322910E+02  0.10000000000E+01 0.  0.
    9000005    1    3    3    0    0 -0.19690548943E+02 -0.13100971979E+01  0.88535455771E+03  0.88557502615E+03  0.10000000000E+01 0.  0.
          4    1    1    2  501    0  0.13305697744E+02  0.17615225949E+02  0.37783096983E+03  0.37847746622E+03  0.12700000000E+01 0.  1.
<mgrwt>
<rscale>  1 0.12693308E+03</rscale>
<asrwt>0</asrwt>
<pdfrwt beam="1">  1       21 0.19710977E+00 0.12693308E+03</pdfrwt>
<pdfrwt beam="2">  1        4 0.73592922E-03 0.12693308E+03</pdfrwt>
<totfact> 0.27210923E+04</totfact>
</mgrwt>
</event>
<event>
 6    4  0.3189516E-003  0.1602010E+03  0.7818608E-02  0.1188470E+00
          4   -1    0    0  502    0 -0.00000000000E+00  0.00000000000E+00  0.87499913159E+03  0.87500005324E+03  0.12700000000E+01 0. -1.
         21   -1    0    0  501  502  0.00000000000E+00 -0.00000000000E+00 -0.20766033200E+02  0.20766033200E+02  0.00000000000E+00 0.  1.
         25    2    1    2    0    0 -0.23627489014E+02 -0.97360792783E+02  0.63204308905E+03  0.65202976302E+03  0.12500785270E+03 0.  0.
    9000005    1    3    3    0    0  0.49767742405E+02 -0.24058798003E+02  0.25877565881E+03  0.26461575074E+03  0.10000000000E+01 0.  0.
    9000005    1    3    3    0    0 -0.73395231419E+02 -0.73301994779E+02  0.37326743024E+03  0.38741401228E+03  0.10000000000E+01 0.  0.
          4    1    1    2  501    0  0.23627489014E+02  0.97360792783E+02  0.22219000934E+03  0.24373632342E+03  0.12700000000E+01 0.  1.
<mgrwt>
<rscale>  1 0.16020095E+03</rscale>
<asrwt>0</asrwt>
<pdfrwt beam="2">  1       21 0.31947750E-02 0.16020095E+03</pdfrwt>
<pdfrwt beam="1">  1        4 0.13461828E+00 0.16020095E+03</pdfrwt>
<totfact> 0.98890249E+03</totfact>
</mgrwt>
</event>
<event>
 6    4  0.3189516E-003  0.1269766E+03  0.7818608E-02  0.1232012E+00
         -4   -1    0    0    0  501 -0.00000000000E+00  0.00000000000E+00  0.33363027017E+03  0.33363268736E+03  0.12700000000E+01 0. -1.
         21   -1    0    0  501  502  0.00000000000E+00 -0.00000000000E+00 -0.40054273206E+02  0.40054273206E+02  0.00000000000E+00 0.  1.
         25    2    1    2    0    0 -0.17442230438E+02  0.13923481943E+02  0.31689278423E+03  0.34138556400E+03  0.12499988741E+03 0.  0.
    9000005    1    3    3    0    0  0.20803047213E+02  0.40226786809E+02  0.27545523515E+03  0.27915506035E+03  0.10000000000E+01 0.  0.
    9000005    1    3    3    0    0 -0.38245277651E+02 -0.26303304866E+02  0.41437549087E+02  0.62230503645E+02  0.10000000000E+01 0.  0.
         -4    1    1    2    0  502  0.17442230438E+02 -0.13923481943E+02 -0.23316787266E+02  0.32301396572E+02  0.12700000000E+01 0.  1.
<mgrwt>
<rscale>  1 0.12697664E+03</rscale>
<asrwt>0</asrwt>
<pdfrwt beam="2">  1       21 0.61621961E-02 0.12697664E+03</pdfrwt>
<pdfrwt beam="1">  1       -4 0.51329467E-01 0.12697664E+03</pdfrwt>
<totfact> 0.27880278E+04</totfact>
</mgrwt>
</event>
<event>
 6    4  0.3189516E-003  0.1305706E+03  0.7818608E-02  0.1226611E+00
          4   -1    0    0  502    0 -0.00000000000E+00  0.00000000000E+00  0.10119668838E+03  0.10120465721E+03  0.12700000000E+01 0. -1.
         21   -1    0    0  501  502  0.00000000000E+00 -0.00000000000E+00 -0.71031758088E+02  0.71031758088E+02  0.00000000000E+00 0. -1.
         25    2    1    2    0    0  0.13299584830E+02 -0.35310304569E+02  0.32013524941E+02  0.13443791311E+03  0.12499996054E+03 0.  0.
    9000005    1    3    3    0    0  0.42508289485E+02  0.19665507651E+02  0.51092283381E+02  0.69318888387E+02  0.10000000000E+01 0.  0.
    9000005    1    3    3    0    0 -0.29208704655E+02 -0.54975812220E+02 -0.19078758440E+02  0.65119024720E+02  0.10000000000E+01 0.  0.
          4    1    1    2  501    0 -0.13299584830E+02  0.35310304569E+02 -0.18485946446E+01  0.37798502186E+02  0.12700000000E+01 0.  1.
<mgrwt>
<rscale>  1 0.13057062E+03</rscale>
<asrwt>0</asrwt>
<pdfrwt beam="2">  1       21 0.10927963E-01 0.13057062E+03</pdfrwt>
<pdfrwt beam="1">  1        4 0.15570208E-01 0.13057062E+03</pdfrwt>
<totfact> 0.98066178E+04</totfact>
</mgrwt>
</event>
<event>
 6    4  0.3189516E-003  0.1269866E+03  0.7818608E-02  0.1231997E+00
          4   -1    0    0  502    0 -0.00000000000E+00  0.00000000000E+00  0.50574431843E+02  0.50590375134E+02  0.12700000000E+01 0.  1.
         21   -1    0    0  501  502  0.00000000000E+00 -0.00000000000E+00 -0.11146942684E+03  0.11146942684E+03  0.00000000000E+00 0.  1.
         25    2    1    2    0    0  0.20404013567E+01  0.22285760768E+02 -0.45609125300E+02  0.13492884027E+03  0.12499912501E+03 0.  0.
    9000005    1    3    3    0    0  0.38812468187E+02 -0.38196179862E+02 -0.88998385161E+01  0.55186619470E+02  0.10000000000E+01 0.  0.
    9000005    1    3    3    0    0 -0.36772066831E+02  0.60481940631E+02 -0.36709286784E+02  0.79742220797E+02  0.10000000000E+01 0.  0.
          4    1    1    2  501    0 -0.20404013567E+01 -0.22285760768E+02 -0.15285869696E+02  0.27130961706E+02  0.12700000000E+01 0. -1.
<mgrwt>
<rscale>  1 0.12698661E+03</rscale>
<asrwt>0</asrwt>
<pdfrwt beam="2">  1       21 0.17149142E-01 0.12698661E+03</pdfrwt>
<pdfrwt beam="1">  1        4 0.77824649E-02 0.12698661E+03</pdfrwt>
<totfact> 0.14151166E+05</totfact>
</mgrwt>
</event>
<event>
 6    4  0.3189516E-003  0.1279637E+03  0.7818608E-02  0.1230509E+00
         -4   -1    0    0    0  501 -0.00000000000E+00  0.00000000000E+00  0.52207729590E+02  0.52223174252E+02  0.12700000000E+01 0.  1.
         21   -1    0    0  501  502  0.00000000000E+00 -0.00000000000E+00 -0.12335370214E+03  0.12335370214E+03  0.00000000000E+00 0.  1.
         25    2    1    2    0    0  0.76693825634E+01  0.26296512422E+02 -0.39977904958E+02  0.13406317586E+03  0.12499750494E+03 0.  0.
    9000005    1    3    3    0    0  0.41993654513E+02  0.63579252209E+02 -0.32435658986E+02  0.82818236546E+02  0.10000000000E+01 0.  0.
    9000005    1    3    3    0    0 -0.34324271950E+02 -0.37282739787E+02 -0.75422459725E+01  0.51244939313E+02  0.10000000000E+01 0.  0.
         -4    1    1    2    0  502 -0.76693825634E+01 -0.26296512422E+02 -0.31168067587E+02  0.41513700528E+02  0.12700000000E+01 0. -1.
<mgrwt>
<rscale>  1 0.12796368E+03</rscale>
<asrwt>0</asrwt>
<pdfrwt beam="2">  1       21 0.18977493E-01 0.12796368E+03</pdfrwt>
<pdfrwt beam="1">  1       -4 0.80336493E-02 0.12796368E+03</pdfrwt>
<totfact> 0.11166963E+05</totfact>
</mgrwt>
</event>
<event>
 6    4  0.3189516E-003  0.1268246E+03  0.7818608E-02  0.1232245E+00
          4   -1    0    0  502    0 -0.00000000000E+00  0.00000000000E+00  0.27287840152E+02  0.27317377622E+02  0.12700000000E+01 0. -1.
         21   -1    0    0  501  502  0.00000000000E+00 -0.00000000000E+00 -0.20169094089E+03  0.20169094089E+03  0.00000000000E+00 0. -1.
         25    2    1    2    0    0 -0.20361742966E+02 -0.66151569037E+01 -0.14545353033E+03  0.19297983805E+03  0.12500451005E+03 0.  0.
    9000005    1    3    3    0    0 -0.67075892451E+02 -0.14394766126E+01 -0.41512475016E+02  0.78902047014E+02  0.10000000000E+01 0.  0.
    9000005    1    3    3    0    0  0.46714149485E+02 -0.51756802911E+01 -0.10394105531E+03  0.11407779103E+03  0.10000000000E+01 0.  0.
          4    1    1    2  501    0  0.20361742966E+02  0.66151569037E+01 -0.28949570415E+02  0.36028480466E+02  0.12700000000E+01 0.  1.
<mgrwt>
<rscale>  1 0.12682464E+03</rscale>
<asrwt>0</asrwt>
<pdfrwt beam="2">  1       21 0.31029377E-01 0.12682464E+03</pdfrwt>
<pdfrwt beam="1">  1        4 0.42007088E-02 0.12682464E+03</pdfrwt>
<totfact> 0.12627037E+05</totfact>
</mgrwt>
</event>
<event>
 6    4  0.3189516E-003  0.1270875E+03  0.7818608E-02  0.1231842E+00
          4   -1    0    0  502    0 -0.00000000000E+00  0.00000000000E+00  0.10462843662E+03  0.10463614408E+03  0.12700000000E+01 0.  1.
         21   -1    0    0  501  502  0.00000000000E+00 -0.00000000000E+00 -0.63049889749E+02  0.63049889749E+02  0.00000000000E+00 0. -1.
         25    2    1    2    0    0  0.17762346850E+02 -0.14518306924E+02  0.57746171829E+02  0.13959177822E+03  0.12499984793E+03 0.  0.
    9000005    1    3    3    0    0  0.51140014893E+02 -0.89708289322E+01  0.82620123663E+02  0.97585151171E+02  0.10000000000E+01 0.  0.
    9000005    1    3    3    0    0 -0.33377668042E+02 -0.55474779917E+01 -0.24873951834E+02  0.42006627047E+02  0.10000000000E+01 0.  0.
          4    1    1    2  501    0 -0.17762346850E+02  0.14518306924E+02 -0.16167624962E+02  0.28094255614E+02  0.12700000000E+01 0. -1.
<mgrwt>
<rscale>  1 0.12708755E+03</rscale>
<asrwt>0</asrwt>
<pdfrwt beam="2">  1       21 0.96999831E-02 0.12708755E+03</pdfrwt>
<pdfrwt beam="1">  1        4 0.16098259E-01 0.12708755E+03</pdfrwt>
<totfact> 0.11354535E+05</totfact>
</mgrwt>
</event>
<event>
 6    4  0.3189516E-003  0.1287816E+03  0.7818608E-02  0.1229275E+00
         21   -1    0    0  501  502  0.00000000000E+00  0.00000000000E+00  0.52901849447E+02  0.52901849447E+02  0.00000000000E+00 0. -1.
          4   -1    0    0  502    0 -0.00000000000E+00 -0.00000000000E+00 -0.12879848097E+03  0.12880474215E+03  0.12700000000E+01 0. -1.
         25    2    1    2    0    0 -0.14687839147E+02 -0.27270535527E+02 -0.41275323337E+02  0.13523442135E+03  0.12500112670E+03 0.  0.
    9000005    1    3    3    0    0  0.37635374095E+02  0.14994144489E+02  0.19141175695E+02  0.44817746030E+02  0.10000000000E+01 0.  0.
    9000005    1    3    3    0    0 -0.52323213243E+02 -0.42264680016E+02 -0.60416499032E+02  0.90416675321E+02  0.10000000000E+01 0.  0.
          4    1    1    2  501    0  0.14687839147E+02  0.27270535527E+02 -0.34621308186E+02  0.46472170245E+02  0.12700000000E+01 0.  1.
<mgrwt>
<rscale>  1 0.12878158E+03</rscale>
<asrwt>0</asrwt>
<pdfrwt beam="1">  1       21 0.81387461E-02 0.12878158E+03</pdfrwt>
<pdfrwt beam="2">  1        4 0.19816805E-01 0.12878158E+03</pdfrwt>
<totfact> 0.10667734E+05</totfact>
</mgrwt>
</event>
<event>
 6    4  0.3189516E-003  0.1274507E+03  0.7818608E-02  0.1231288E+00
         21   -1    0    0  501  502  0.00000000000E+00  0.00000000000E+00  0.19162780805E+03  0.19162780805E+03  0.00000000000E+00 0.  1.
          4   -1    0    0  502    0 -0.00000000000E+00 -0.00000000000E+00 -0.54321025963E+02  0.54335869936E+02  0.12700000000E+01 0.  1.
         25    2    1    2    0    0  0.24067215537E+02 -0.61578730981E+01  0.23662309128E+02  0.12962869013E+03  0.12500616852E+03 0.  0.
    9000005    1    3    3    0    0  0.30849703761E+00  0.13549667314E+02 -0.48907312805E+02  0.50760357569E+02  0.10000000000E+01 0.  0.
    9000005    1    3    3    0    0  0.23758718499E+02 -0.19707540412E+02  0.72569621933E+02  0.78868332563E+02  0.10000000000E+01 0.  0.
          4    1    1    2  501    0 -0.24067215537E+02  0.61578730981E+01  0.11364447295E+03  0.11633498785E+03  0.12700000000E+01 0. -1.
<mgrwt>
<rscale>  1 0.12745075E+03</rscale>
<asrwt>0</asrwt>
<pdfrwt beam="1">  1       21 0.29481201E-01 0.12745075E+03</pdfrwt>
<pdfrwt beam="2">  1        4 0.83585466E-02 0.12745075E+03</pdfrwt>
<totfact> 0.45662626E+04</totfact>
</mgrwt>
</event>
<event>
 6    4  0.3189516E-003  0.1265894E+03  0.7818608E-02  0.1232606E+00
          4   -1    0    0  502    0 -0.00000000000E+00  0.00000000000E+00  0.17366155379E+03  0.17366619753E+03  0.12700000000E+01 0. -1.
         21   -1    0    0  501  502  0.00000000000E+00 -0.00000000000E+00 -0.31547840087E+02  0.31547840087E+02  0.00000000000E+00 0. -1.
         25    2    1    2    0    0 -0.10451822074E+02 -0.17053097780E+02  0.11189708229E+03  0.16895515674E+03  0.12499935694E+03 0.  0.
    9000005    1    3    3    0    0  0.34837948824E+02  0.25725536695E+02  0.94980486426E+02  0.10439242654E+03  0.10000000000E+01 0.  0.
    9000005    1    3    3    0    0 -0.45289770897E+02 -0.42778634475E+02  0.16916595860E+02  0.64562730201E+02  0.10000000000E+01 0.  0.
          4    1    1    2  501    0  0.10451822074E+02  0.17053097780E+02  0.30216631418E+02  0.36258880882E+02  0.12700000000E+01 0.  1.
<mgrwt>
<rscale>  1 0.12658945E+03</rscale>
<asrwt>0</asrwt>
<pdfrwt beam="2">  1       21 0.48535140E-02 0.12658945E+03</pdfrwt>
<pdfrwt beam="1">  1        4 0.26719485E-01 0.12658945E+03</pdfrwt>
<totfact> 0.14846173E+05</totfact>
</mgrwt>
</event>
<event>
 6    4  0.3189516E-003  0.1292968E+03  0.7818608E-02  0.1228503E+00
         21   -1    0    0  501  502  0.00000000000E+00  0.00000000000E+00  0.44448414074E+03  0.44448414074E+03  0.00000000000E+00 0. -1.
         -4   -1    0    0    0  501 -0.00000000000E+00 -0.00000000000E+00 -0.15751402616E+02  0.15802518292E+02  0.12700000000E+01 0.  1.
         25    2    1    2    0    0 -0.23837445008E+02 -0.22906494832E+02  0.28759067822E+03  0.31531898931E+03  0.12499894212E+03 0.  0.
    9000005    1    3    3    0    0 -0.28992753534E+02  0.41865063192E+02  0.19921457813E+03  0.20562274051E+03  0.10000000000E+01 0.  0.
    9000005    1    3    3    0    0  0.51553085258E+01 -0.64771558024E+02  0.88376100087E+02  0.10969624880E+03  0.10000000000E+01 0.  0.
         -4    1    1    2    0  502  0.23837445008E+02  0.22906494832E+02  0.14114205991E+03  0.14496766972E+03  0.12700000000E+01 0. -1.
<mgrwt>
<rscale>  1 0.12929682E+03</rscale>
<asrwt>0</asrwt>
<pdfrwt beam="1">  1       21 0.68382166E-01 0.12929682E+03</pdfrwt>
<pdfrwt beam="2">  1       -4 0.24273646E-02 0.12929682E+03</pdfrwt>
<totfact> 0.59569200E+04</totfact>
</mgrwt>
</event>
<event>
 6    4  0.3189516E-003  0.1270744E+03  0.7818608E-02  0.1231862E+00
         21   -1    0    0  501  502  0.00000000000E+00  0.00000000000E+00  0.21932434460E+01  0.21932434460E+01  0.00000000000E+00 0. -1.
         -4   -1    0    0    0  501 -0.00000000000E+00 -0.00000000000E+00 -0.27148088465E+04  0.27148091435E+04  0.12700000000E+01 0. -1.
         25    2    1    2    0    0  0.14126273883E+01 -0.22764325926E+02 -0.24840251384E+04  0.24872733651E+04  0.12501077843E+03 0.  0.
    9000005    1    3    3    0    0 -0.51526649683E+02  0.11020153092E+01 -0.55884944343E+03  0.56122180150E+03  0.10000000000E+01 0.  0.
    9000005    1    3    3    0    0  0.52939277071E+02 -0.23866341235E+02 -0.19251756950E+04  0.19260515636E+04  0.10000000000E+01 0.  0.
         -4    1    1    2    0  502 -0.14126273883E+01  0.22764325926E+02 -0.22859046465E+03  0.22972902185E+03  0.12700000000E+01 0.  1.
<mgrwt>
<rscale>  1 0.12707441E+03</rscale>
<asrwt>0</asrwt>
<pdfrwt beam="1">  1       21 0.33742151E-03 0.12707441E+03</pdfrwt>
<pdfrwt beam="2">  1       -4 0.41769189E+00 0.12707441E+03</pdfrwt>
<totfact> 0.58266068E+03</totfact>
</mgrwt>
</event>
<event>
 6    4  0.3189516E-003  0.1270833E+03  0.7818608E-02  0.1231849E+00
         -4   -1    0    0    0  501 -0.00000000000E+00  0.00000000000E+00  0.10352867503E+03  0.10353646437E+03  0.12700000000E+01 0.  1.
         21   -1    0    0  501  502  0.00000000000E+00 -0.00000000000E+00 -0.10992673261E+03  0.10992673261E+03  0.00000000000E+00 0. -1.
         25    2    1    2    0    0 -0.17630674820E+02  0.14653163175E+02  0.61937634514E+02  0.14137342239E+03  0.12499847240E+03 0.  0.
    9000005    1    3    3    0    0  0.24940163531E+02 -0.46367517520E+02  0.26730851207E+02  0.59055032336E+02  0.10000000000E+01 0.  0.
    9000005    1    3    3    0    0 -0.42570838352E+02  0.61020680695E+02  0.35206783307E+02  0.82318390055E+02  0.10000000000E+01 0.  0.
         -4    1    1    2    0  502  0.17630674820E+02 -0.14653163175E+02 -0.68335692099E+02  0.72089774589E+02  0.12700000000E+01 0. -1.
<mgrwt>
<rscale>  1 0.12708333E+03</rscale>
<asrwt>0</asrwt>
<pdfrwt beam="2">  1       21 0.16911805E-01 0.12708333E+03</pdfrwt>
<pdfrwt beam="1">  1       -4 0.15928652E-01 0.12708333E+03</pdfrwt>
<totfact> 0.42988634E+04</totfact>
</mgrwt>
</event>
<event>
 6    4  0.3189516E-003  0.1327808E+03  0.7818608E-02  0.1223387E+00
         -4   -1    0    0    0  501 -0.00000000000E+00  0.00000000000E+00  0.87900018914E+02  0.87909193064E+02  0.12700000000E+01 0.  1.
         21   -1    0    0  501  502  0.00000000000E+00 -0.00000000000E+00 -0.13669493405E+03  0.13669493405E+03  0.00000000000E+00 0. -1.
         25    2    1    2    0    0  0.30684868439E+02  0.32641276979E+02  0.27987916051E+02  0.13569838951E+03  0.12499486132E+03 0.  0.
    9000005    1    3    3    0    0 -0.17446859009E+02 -0.35952056179E+02  0.32872350337E+02  0.51754561629E+02  0.10000000000E+01 0.  0.
    9000005    1    3    3    0    0  0.48131727448E+02  0.68593333158E+02 -0.48844342860E+01  0.83943827880E+02  0.10000000000E+01 0.  0.
         -4    1    1    2    0  502 -0.30684868439E+02 -0.32641276979E+02 -0.76782831182E+02  0.88905737600E+02  0.12700000000E+01 0. -1.
<mgrwt>
<rscale>  1 0.13278076E+03</rscale>
<asrwt>0</asrwt>
<pdfrwt beam="2">  1       21 0.21029990E-01 0.13278076E+03</pdfrwt>
<pdfrwt beam="1">  1       -4 0.13524239E-01 0.13278076E+03</pdfrwt>
<totfact> 0.38481137E+04</totfact>
</mgrwt>
</event>
<event>
 6    4  0.3189516E-003  0.1375008E+03  0.7818608E-02  0.1216732E+00
         21   -1    0    0  501  502  0.00000000000E+00  0.00000000000E+00  0.17328103169E+02  0.17328103169E+02  0.00000000000E+00 0.  1.
          4   -1    0    0  502    0 -0.00000000000E+00 -0.00000000000E+00 -0.58373834406E+03  0.58373972559E+03  0.12700000000E+01 0.  1.
         25    2    1    2    0    0 -0.38980736204E+02 -0.41968079634E+02 -0.46130999830E+03  0.48136615209E+03  0.12500256135E+03 0.  0.
    9000005    1    3    3    0    0  0.23511643023E+02  0.19176181229E+02 -0.26159028894E+03  0.26334578514E+03  0.10000000000E+01 0.  0.
    9000005    1    3    3    0    0 -0.62492379228E+02 -0.61144260863E+02 -0.19971970936E+03  0.21802036695E+03  0.10000000000E+01 0.  0.
          4    1    1    2  501    0  0.38980736204E+02  0.41968079634E+02 -0.10510024259E+03  0.11970167666E+03  0.12700000000E+01 0. -1.
<mgrwt>
<rscale>  1 0.13750076E+03</rscale>
<asrwt>0</asrwt>
<pdfrwt beam="1">  1       21 0.26658624E-02 0.13750076E+03</pdfrwt>
<pdfrwt beam="2">  1        4 0.89809574E-01 0.13750076E+03</pdfrwt>
<totfact> 0.34152068E+04</totfact>
</mgrwt>
</event>
<event>
 6    4  0.3189516E-003  0.1479180E+03  0.7818608E-02  0.1203055E+00
         -4   -1    0    0    0  501 -0.00000000000E+00  0.00000000000E+00  0.14536878608E+04  0.14536884156E+04  0.12700000000E+01 0. -1.
         21   -1    0    0  501  502  0.00000000000E+00 -0.00000000000E+00 -0.91052902525E+01  0.91052902525E+01  0.00000000000E+00 0. -1.
         25    2    1    2    0    0  0.71291371418E+02  0.34222252240E+02  0.10494902074E+04  0.10598629295E+04  0.12500444673E+03 0.  0.
    9000005    1    3    3    0    0 -0.22768638143E+02 -0.25463476463E+02  0.33520908056E+03  0.33694647529E+03  0.10000000000E+01 0.  0.
    9000005    1    3    3    0    0  0.94060009561E+02  0.59685728703E+02  0.71428112686E+03  0.72291645423E+03  0.10000000000E+01 0.  0.
         -4    1    1    2    0  502 -0.71291371418E+02 -0.34222252240E+02  0.39509236312E+03  0.40293077629E+03  0.12700000000E+01 0.  1.
<mgrwt>
<rscale>  1 0.14791800E+03</rscale>
<asrwt>0</asrwt>
<pdfrwt beam="2">  1       21 0.14008150E-02 0.14791800E+03</pdfrwt>
<pdfrwt beam="1">  1       -4 0.22365096E+00 0.14791800E+03</pdfrwt>
<totfact> 0.94291697E+03</totfact>
</mgrwt>
</event>
<event>
 6    4  0.3189516E-003  0.1286460E+03  0.7818608E-02  0.1229479E+00
         21   -1    0    0  501  502  0.00000000000E+00  0.00000000000E+00  0.51121627494E+01  0.51121627494E+01  0.00000000000E+00 0. -1.
         -4   -1    0    0    0  501 -0.00000000000E+00 -0.00000000000E+00 -0.17065747139E+04  0.17065751865E+04  0.12700000000E+01 0.  1.
         25    2    1    2    0    0 -0.23885059190E+02 -0.18811746248E+02 -0.16132975912E+04  0.16184186464E+04  0.12500167832E+03 0.  0.
    9000005    1    3    3    0    0  0.12737030179E+02 -0.59151225394E+02 -0.12026112701E+04  0.12041328690E+04  0.10000000000E+01 0.  0.
    9000005    1    3    3    0    0 -0.36622089369E+02  0.40339479146E+02 -0.41068632110E+03  0.41428577739E+03  0.10000000000E+01 0.  0.
         -4    1    1    2    0  502  0.23885059190E+02  0.18811746248E+02 -0.88164960010E+02  0.93268702806E+02  0.12700000000E+01 0. -1.
<mgrwt>
<rscale>  1 0.12864602E+03</rscale>
<asrwt>0</asrwt>
<pdfrwt beam="1">  1       21 0.78648740E-03 0.12864602E+03</pdfrwt>
<pdfrwt beam="2">  1       -4 0.26256185E+00 0.12864602E+03</pdfrwt>
<totfact> 0.13813000E+04</totfact>
</mgrwt>
</event>
<event>
 6    4  0.3189516E-003  0.1271769E+03  0.7818608E-02  0.1231706E+00
         21   -1    0    0  501  502  0.00000000000E+00  0.00000000000E+00  0.20741167064E+03  0.20741167064E+03  0.00000000000E+00 0.  1.
          4   -1    0    0  502    0 -0.00000000000E+00 -0.00000000000E+00 -0.27569291255E+02  0.27598527502E+02  0.12700000000E+01 0. -1.
         25    2    1    2    0    0 -0.11442746924E+02  0.20432461312E+02  0.14336779464E+03  0.19164627114E+03  0.12500218706E+03 0.  0.
    9000005    1    3    3    0    0 -0.60352486642E+01  0.63171227676E+02  0.13293782501E+03  0.14731087384E+03  0.10000000000E+01 0.  0.
    9000005    1    3    3    0    0 -0.54074982594E+01 -0.42738766364E+02  0.10429969631E+02  0.44335397306E+02  0.10000000000E+01 0.  0.
          4    1    1    2  501    0  0.11442746924E+02 -0.20432461312E+02  0.36474584749E+02  0.43363927002E+02  0.12700000000E+01 0.  1.
<mgrwt>
<rscale>  1 0.12717692E+03</rscale>
<asrwt>0</asrwt>
<pdfrwt beam="1">  1       21 0.31909487E-01 0.12717692E+03</pdfrwt>
<pdfrwt beam="2">  1        4 0.42439776E-02 0.12717692E+03</pdfrwt>
<totfact> 0.11771665E+05</totfact>
</mgrwt>
</event>
<event>
 6    4  0.3189516E-003  0.1356933E+03  0.7818608E-02  0.1219244E+00
         21   -1    0    0  501  502  0.00000000000E+00  0.00000000000E+00  0.42109373915E+03  0.42109373915E+03  0.00000000000E+00 0.  1.
          4   -1    0    0  502    0 -0.00000000000E+00 -0.00000000000E+00 -0.83000551343E+02  0.83010266974E+02  0.12700000000E+01 0. -1.
         25    2    1    2    0    0  0.52623247902E+02 -0.42937544516E+01 -0.24326346683E+02  0.13785658371E+03  0.12500009593E+03 0.  0.
    9000005    1    3    3    0    0  0.76253569517E+02  0.12239931800E+02 -0.55703025239E+02  0.95227358545E+02  0.10000000000E+01 0.  0.
    9000005    1    3    3    0    0 -0.23630321616E+02 -0.16533686252E+02  0.31376678556E+02  0.42629225163E+02  0.10000000000E+01 0.  0.
          4    1    1    2  501    0 -0.52623247902E+02  0.42937544516E+01  0.36241953449E+03  0.36624742242E+03  0.12700000000E+01 0.  1.
<mgrwt>
<rscale>  1 0.13569328E+03</rscale>
<asrwt>0</asrwt>
<pdfrwt beam="1">  1       21 0.64783651E-01 0.13569328E+03</pdfrwt>
<pdfrwt beam="2">  1        4 0.12770211E-01 0.13569328E+03</pdfrwt>
<totfact> 0.45413412E+03</totfact>
</mgrwt>
</event>
<event>
 6    4  0.3189516E-003  0.1271822E+03  0.7818608E-02  0.1231698E+00
          4   -1    0    0  502    0 -0.00000000000E+00  0.00000000000E+00  0.54111043671E+02  0.54125945231E+02  0.12700000000E+01 0.  1.
         21   -1    0    0  501  502  0.00000000000E+00 -0.00000000000E+00 -0.10532878566E+03  0.10532878566E+03  0.00000000000E+00 0.  1.
         25    2    1    2    0    0  0.16773208309E+02 -0.16390155762E+02 -0.47025359408E+02  0.13559751616E+03  0.12500129695E+03 0.  0.
    9000005    1    3    3    0    0  0.22530913794E+02 -0.69850215356E+02 -0.26701860325E+02  0.78106875539E+02  0.10000000000E+01 0.  0.
    9000005    1    3    3    0    0 -0.57577054846E+01  0.53460059594E+02 -0.20323499083E+02  0.57490640623E+02  0.10000000000E+01 0.  0.
          4    1    1    2  501    0 -0.16773208309E+02  0.16390155762E+02 -0.41923825804E+01  0.23857214729E+02  0.12700000000E+01 0. -1.
<mgrwt>
<rscale>  1 0.12718216E+03</rscale>
<asrwt>0</asrwt>
<pdfrwt beam="2">  1       21 0.16204428E-01 0.12718216E+03</pdfrwt>
<pdfrwt beam="1">  1        4 0.83265113E-02 0.12718216E+03</pdfrwt>
<totfact> 0.14029808E+05</totfact>
</mgrwt>
</event>
<event>
 6    4  0.3189516E-003  0.1270610E+03  0.7818608E-02  0.1231883E+00
          4   -1    0    0  502    0 -0.00000000000E+00  0.00000000000E+00  0.76205404316E+03  0.76205510142E+03  0.12700000000E+01 0.  1.
         21   -1    0    0  501  502  0.00000000000E+00 -0.00000000000E+00 -0.13274092700E+02  0.13274092700E+02  0.00000000000E+00 0. -1.
         25    2    1    2    0    0 -0.61865112084E+01 -0.21948093620E+02  0.74005065539E+03  0.75087913836E+03  0.12499806455E+03 0.  0.
    9000005    1    3    3    0    0 -0.44920583332E+02  0.11101115992E+02  0.11807355724E+03  0.12682057602E+03  0.10000000000E+01 0.  0.
    9000005    1    3    3    0    0  0.38734072123E+02 -0.33049209612E+02  0.62197709815E+03  0.62405856234E+03  0.10000000000E+01 0.  0.
          4    1    1    2  501    0  0.61865112084E+01  0.21948093620E+02  0.87292950734E+01  0.24450055766E+02  0.12700000000E+01 0. -1.
<mgrwt>
<rscale>  1 0.12706104E+03</rscale>
<asrwt>0</asrwt>
<pdfrwt beam="2">  1       21 0.20421687E-02 0.12706104E+03</pdfrwt>
<pdfrwt beam="1">  1        4 0.11724380E+00 0.12706104E+03</pdfrwt>
<totfact> 0.28089432E+04</totfact>
</mgrwt>
</event>
<event>
 6    4  0.3189516E-003  0.1274762E+03  0.7818608E-02  0.1231249E+00
         -4   -1    0    0    0  501 -0.00000000000E+00  0.00000000000E+00  0.68652206363E+02  0.68663952249E+02  0.12700000000E+01 0.  1.
         21   -1    0    0  501  502  0.00000000000E+00 -0.00000000000E+00 -0.11289943040E+03  0.11289943040E+03  0.00000000000E+00 0.  1.
         25    2    1    2    0    0 -0.20281103742E+02  0.14552887797E+02  0.36591626856E+01  0.12752872247E+03  0.12500830320E+03 0.  0.
    9000005    1    3    3    0    0 -0.42615154350E+02  0.18070437301E+02  0.54718965212E+02  0.71678150356E+02  0.10000000000E+01 0.  0.
    9000005    1    3    3    0    0  0.22334050608E+02 -0.35175495035E+01 -0.51059802527E+02  0.55850572111E+02  0.10000000000E+01 0.  0.
         -4    1    1    2    0  502  0.20281103742E+02 -0.14552887797E+02 -0.47906386724E+02  0.54034660184E+02  0.12700000000E+01 0. -1.
<mgrwt>
<rscale>  1 0.12747622E+03</rscale>
<asrwt>0</asrwt>
<pdfrwt beam="2">  1       21 0.17369143E-01 0.12747622E+03</pdfrwt>
<pdfrwt beam="1">  1       -4 0.10563331E-01 0.12747622E+03</pdfrwt>
<totfact> 0.83051052E+04</totfact>
</mgrwt>
</event>
<event>
 6    4  0.3189516E-003  0.1275363E+03  0.7818608E-02  0.1231158E+00
         -4   -1    0    0    0  501 -0.00000000000E+00  0.00000000000E+00  0.36876025586E+02  0.36897888327E+02  0.12700000000E+01 0. -1.
         21   -1    0    0  501  502  0.00000000000E+00 -0.00000000000E+00 -0.17187121245E+03  0.17187121245E+03  0.00000000000E+00 0.  1.
         25    2    1    2    0    0 -0.21976138334E+02  0.12480847324E+02 -0.86605330396E+02  0.15416220272E+03  0.12500711696E+03 0.  0.
    9000005    1    3    3    0    0 -0.20854810055E+02  0.47862918712E+02 -0.10273779353E+03  0.11524684946E+03  0.10000000000E+01 0.  0.
    9000005    1    3    3    0    0 -0.11213282788E+01 -0.35382071388E+02  0.16132463138E+02  0.38915353265E+02  0.10000000000E+01 0.  0.
         -4    1    1    2    0  502  0.21976138334E+02 -0.12480847324E+02 -0.48389856472E+02  0.54606898057E+02  0.12700000000E+01 0.  1.
<mgrwt>
<rscale>  1 0.12753628E+03</rscale>
<asrwt>0</asrwt>
<pdfrwt beam="2">  1       21 0.26441725E-01 0.12753628E+03</pdfrwt>
<pdfrwt beam="1">  1       -4 0.56752774E-02 0.12753628E+03</pdfrwt>
<totfact> 0.10601827E+05</totfact>
</mgrwt>
</event>
<event>
 6    4  0.3189516E-003  0.1267529E+03  0.7818608E-02  0.1232355E+00
         21   -1    0    0  501  502  0.00000000000E+00  0.00000000000E+00  0.50850971004E+02  0.50850971004E+02  0.00000000000E+00 0.  1.
          4   -1    0    0  502    0 -0.00000000000E+00 -0.00000000000E+00 -0.24051753442E+03  0.24052088737E+03  0.12700000000E+01 0. -1.
         25    2    1    2    0    0 -0.20405232273E+02  0.50957217950E+01 -0.22031751512E+03  0.25417732080E+03  0.12499585215E+03 0.  0.
    9000005    1    3    3    0    0  0.71861493646E+01 -0.46226827403E+02 -0.31091549307E+02  0.56180465936E+02  0.10000000000E+01 0.  0.
    9000005    1    3    3    0    0 -0.27591381638E+02  0.51322549198E+02 -0.18922596582E+03  0.19799685486E+03  0.10000000000E+01 0.  0.
          4    1    1    2  501    0  0.20405232273E+02 -0.50957217950E+01  0.30650951710E+02  0.37194537576E+02  0.12700000000E+01 0.  1.
<mgrwt>
<rscale>  1 0.12675292E+03</rscale>
<asrwt>0</asrwt>
<pdfrwt beam="1">  1       21 0.78232263E-02 0.12675292E+03</pdfrwt>
<pdfrwt beam="2">  1        4 0.37004175E-01 0.12675292E+03</pdfrwt>
<totfact> 0.35565790E+04</totfact>
</mgrwt>
</event>
<event>
 6    4  0.3189516E-003  0.1288902E+03  0.7818608E-02  0.1229112E+00
          4   -1    0    0  502    0 -0.00000000000E+00  0.00000000000E+00  0.30356005944E+03  0.30356271607E+03  0.12700000000E+01 0. -1.
         21   -1    0    0  501  502  0.00000000000E+00 -0.00000000000E+00 -0.43180896262E+02  0.43180896262E+02  0.00000000000E+00 0.  1.
         25    2    1    2    0    0  0.24727638458E+02  0.19413927896E+02  0.28098262848E+03  0.30913414035E+03  0.12499729007E+03 0.  0.
    9000005    1    3    3    0    0  0.21472541286E+02  0.70611184117E+02  0.12776311452E+03  0.14755142420E+03  0.10000000000E+01 0.  0.
    9000005    1    3    3    0    0  0.32550971722E+01 -0.51197256221E+02  0.15321951396E+03  0.16158271615E+03  0.10000000000E+01 0.  0.
          4    1    1    2  501    0 -0.24727638458E+02 -0.19413927896E+02 -0.20603465300E+02  0.37609471977E+02  0.12700000000E+01 0.  1.
<mgrwt>
<rscale>  1 0.12889018E+03</rscale>
<asrwt>0</asrwt>
<pdfrwt beam="2">  1       21 0.66432150E-02 0.12889018E+03</pdfrwt>
<pdfrwt beam="1">  1        4 0.46703187E-01 0.12889018E+03</pdfrwt>
<totfact> 0.29764734E+04</totfact>
</mgrwt>
</event>
<event>
 6    4  0.3189516E-003  0.1470338E+03  0.7818608E-02  0.1204166E+00
         21   -1    0    0  501  502  0.00000000000E+00  0.00000000000E+00  0.11841697735E+04  0.11841697735E+04  0.00000000000E+00 0.  1.
         -4   -1    0    0    0  501 -0.00000000000E+00 -0.00000000000E+00 -0.13147175456E+02  0.13208373195E+02  0.12700000000E+01 0. -1.
         25    2    1    2    0    0 -0.71009621035E+02  0.30860238545E+02  0.47958944950E+03  0.50162234729E+03  0.12499687446E+03 0.  0.
    9000005    1    3    3    0    0 -0.56330004082E+02  0.61059373766E+01  0.65828422482E+02  0.86860422734E+02  0.10000000000E+01 0.  0.
    9000005    1    3    3    0    0 -0.14679616953E+02  0.24754301169E+02  0.41376102702E+03  0.41476192456E+03  0.10000000000E+01 0.  0.
         -4    1    1    2    0  502  0.71009621035E+02 -0.30860238545E+02  0.69143314851E+03  0.69575579937E+03  0.12700000000E+01 0.  1.
<mgrwt>
<rscale>  1 0.14703380E+03</rscale>
<asrwt>0</asrwt>
<pdfrwt beam="1">  1       21 0.18217988E+00 0.14703380E+03</pdfrwt>
<pdfrwt beam="2">  1       -4 0.20274032E-02 0.14703380E+03</pdfrwt>
<totfact> 0.73594197E+03</totfact>
</mgrwt>
</event>
<event>
 6    4  0.3189516E-003  0.1284462E+03  0.7818608E-02  0.1229780E+00
         -4   -1    0    0    0  501 -0.00000000000E+00  0.00000000000E+00  0.14646902592E+03  0.14647453176E+03  0.12700000000E+01 0.  1.
         21   -1    0    0  501  502  0.00000000000E+00 -0.00000000000E+00 -0.72777737142E+02  0.72777737142E+02  0.00000000000E+00 0. -1.
         25    2    1    2    0    0 -0.20036882247E+02  0.21738893477E+02  0.11229445407E+03  0.17061202414E+03  0.12499744888E+03 0.  0.
    9000005    1    3    3    0    0 -0.39645847552E+02 -0.41691508980E+02  0.74752605411E+02  0.94334125135E+02  0.10000000000E+01 0.  0.
    9000005    1    3    3    0    0  0.19608965305E+02  0.63430402457E+02  0.37541848658E+02  0.76277899007E+02  0.10000000000E+01 0.  0.
         -4    1    1    2    0  502  0.20036882247E+02 -0.21738893477E+02 -0.38603165291E+02  0.48640244760E+02  0.12700000000E+01 0. -1.
<mgrwt>
<rscale>  1 0.12844617E+03</rscale>
<asrwt>0</asrwt>
<pdfrwt beam="2">  1       21 0.11196575E-01 0.12844617E+03</pdfrwt>
<pdfrwt beam="1">  1       -4 0.22534972E-01 0.12844617E+03</pdfrwt>
<totfact> 0.48462004E+04</totfact>
</mgrwt>
</event>
<event>
 6    4  0.3189516E-003  0.1284637E+03  0.7818608E-02  0.1229753E+00
         21   -1    0    0  501  502  0.00000000000E+00  0.00000000000E+00  0.37858050161E+03  0.37858050161E+03  0.00000000000E+00 0. -1.
         -4   -1    0    0    0  501 -0.00000000000E+00 -0.00000000000E+00 -0.47714696274E+02  0.47731594783E+02  0.12700000000E+01 0.  1.
         25    2    1    2    0    0  0.53077811254E+01  0.29162395857E+02  0.40878213530E+02  0.13481075133E+03  0.12499716981E+03 0.  0.
    9000005    1    3    3    0    0 -0.17856651587E+02 -0.18208602615E+02  0.70039427836E+02  0.74544850035E+02  0.10000000000E+01 0.  0.
    9000005    1    3    3    0    0  0.23164432713E+02  0.47370998472E+02 -0.29161214306E+02  0.60265901295E+02  0.10000000000E+01 0.  0.
         -4    1    1    2    0  502 -0.53077811254E+01 -0.29162395857E+02  0.28998759181E+03  0.29150134507E+03  0.12700000000E+01 0. -1.
<mgrwt>
<rscale>  1 0.12846365E+03</rscale>
<asrwt>0</asrwt>
<pdfrwt beam="1">  1       21 0.58243152E-01 0.12846365E+03</pdfrwt>
<pdfrwt beam="2">  1       -4 0.73421865E-02 0.12846365E+03</pdfrwt>
<totfact> 0.14393209E+04</totfact>
</mgrwt>
</event>
<event>
 6    4  0.3189516E-003  0.1365958E+03  0.7818608E-02  0.1217984E+00
         21   -1    0    0  501  502  0.00000000000E+00  0.00000000000E+00  0.57210597815E+02  0.57210597815E+02  0.00000000000E+00 0. -1.
         -4   -1    0    0    0  501 -0.00000000000E+00 -0.00000000000E+00 -0.16854280182E+03  0.16854758659E+03  0.12700000000E+01 0. -1.
         25    2    1    2    0    0 -0.52945180108E+02  0.15173977248E+02 -0.10057047452E+03  0.16962557887E+03  0.12499989992E+03 0.  0.
    9000005    1    3    3    0    0 -0.26043929438E+02 -0.15384497906E+02  0.23962569417E+02  0.38602768935E+02  0.10000000000E+01 0.  0.
    9000005    1    3    3    0    0 -0.26901250670E+02  0.30558475154E+02 -0.12453304394E+03  0.13102280994E+03  0.10000000000E+01 0.  0.
         -4    1    1    2    0  502  0.52945180108E+02 -0.15173977248E+02 -0.10761729480E+02  0.56132605530E+02  0.12700000000E+01 0.  1.
<mgrwt>
<rscale>  1 0.13659581E+03</rscale>
<asrwt>0</asrwt>
<pdfrwt beam="1">  1       21 0.88016306E-02 0.13659581E+03</pdfrwt>
<pdfrwt beam="2">  1       -4 0.25931114E-01 0.13659581E+03</pdfrwt>
<totfact> 0.57489837E+04</totfact>
</mgrwt>
</event>
<event>
 6    4  0.3189516E-003  0.1280349E+03  0.7818608E-02  0.1230401E+00
          4   -1    0    0  502    0 -0.00000000000E+00  0.00000000000E+00  0.75628831897E+03  0.75628938529E+03  0.12700000000E+01 0. -1.
         21   -1    0    0  501  502  0.00000000000E+00 -0.00000000000E+00 -0.11141424689E+02  0.11141424689E+02  0.00000000000E+00 0.  1.
         25    2    1    2    0    0  0.27598404946E+02 -0.26157889408E+01  0.71532948959E+03  0.72669747192E+03  0.12499769081E+03 0.  0.
    9000005    1    3    3    0    0 -0.39895387059E+02  0.22185975944E+02  0.43111188449E+03  0.43352314400E+03  0.10000000000E+01 0.  0.
    9000005    1    3    3    0    0  0.67493792004E+02 -0.24801764885E+02  0.28421760510E+03  0.29317432792E+03  0.10000000000E+01 0.  0.
          4    1    1    2  501    0 -0.27598404946E+02  0.26157889408E+01  0.29817404688E+02  0.40733338062E+02  0.12700000000E+01 0.  1.
<mgrwt>
<rscale>  1 0.12803491E+03</rscale>
<asrwt>0</asrwt>
<pdfrwt beam="2">  1       21 0.17140659E-02 0.12803491E+03</pdfrwt>
<pdfrwt beam="1">  1        4 0.11635766E+00 0.12803491E+03</pdfrwt>
<totfact> 0.37946425E+04</totfact>
</mgrwt>
</event>
<event>
 6    4  0.3189516E-003  0.1315693E+03  0.7818608E-02  0.1225146E+00
          4   -1    0    0  502    0 -0.00000000000E+00  0.00000000000E+00  0.21977957385E+02  0.22014620388E+02  0.12700000000E+01 0. -1.
         21   -1    0    0  501  502  0.00000000000E+00 -0.00000000000E+00 -0.34029370347E+03  0.34029370347E+03  0.00000000000E+00 0. -1.
         25    2    1    2    0    0  0.17142763575E+02  0.37299856881E+02 -0.23172319999E+03  0.26646973244E+03  0.12500129289E+03 0.  0.
    9000005    1    3    3    0    0  0.40710142884E+02  0.79015389008E+01 -0.22423689885E+03  0.22804152441E+03  0.10000000000E+01 0.  0.
    9000005    1    3    3    0    0 -0.23567379310E+02  0.29398317980E+02 -0.74863011466E+01  0.38428208030E+02  0.10000000000E+01 0.  0.
          4    1    1    2  501    0 -0.17142763575E+02 -0.37299856881E+02 -0.86592546095E+02  0.95838591421E+02  0.12700000000E+01 0.  1.
<mgrwt>
<rscale>  1 0.13156929E+03</rscale>
<asrwt>0</asrwt>
<pdfrwt beam="2">  1       21 0.52352875E-01 0.13156929E+03</pdfrwt>
<pdfrwt beam="1">  1        4 0.33842269E-02 0.13156929E+03</pdfrwt>
<totfact> 0.62629904E+04</totfact>
</mgrwt>
</event>
<event>
 6    4  0.3189516E-003  0.1283107E+03  0.7818608E-02  0.1229984E+00
          4   -1    0    0  502    0 -0.00000000000E+00  0.00000000000E+00  0.38401179678E+02  0.38422174596E+02  0.12700000000E+01 0.  1.
         21   -1    0    0  501  502  0.00000000000E+00 -0.00000000000E+00 -0.18722393717E+03  0.18722393717E+03  0.00000000000E+00 0.  1.
         25    2    1    2    0    0  0.91535932683E+01 -0.27473535335E+02 -0.80611927963E+02  0.15153191894E+03  0.12500022445E+03 0.  0.
    9000005    1    3    3    0    0  0.35166391314E+02 -0.47589729116E+01  0.23007602198E+02  0.42304522927E+02  0.10000000000E+01 0.  0.
    9000005    1    3    3    0    0 -0.26012798046E+02 -0.22714562424E+02 -0.10361953016E+03  0.10922739601E+03  0.10000000000E+01 0.  0.
          4    1    1    2  501    0 -0.91535932683E+01  0.27473535335E+02 -0.68210829525E+02  0.74114192825E+02  0.12700000000E+01 0. -1.
<mgrwt>
<rscale>  1 0.12831071E+03</rscale>
<asrwt>0</asrwt>
<pdfrwt beam="2">  1       21 0.28803683E-01 0.12831071E+03</pdfrwt>
<pdfrwt beam="1">  1        4 0.59098200E-02 0.12831071E+03</pdfrwt>
<totfact> 0.84385553E+04</totfact>
</mgrwt>
</event>
<event>
 6    4  0.3189516E-003  0.1380969E+03  0.7818608E-02  0.1215913E+00
         21   -1    0    0  501  502  0.00000000000E+00  0.00000000000E+00  0.59075136861E+02  0.59075136861E+02  0.00000000000E+00 0.  1.
          4   -1    0    0  502    0 -0.00000000000E+00 -0.00000000000E+00 -0.23570899552E+03  0.23571241688E+03  0.12700000000E+01 0.  1.
         25    2    1    2    0    0 -0.38594124838E+02  0.44231683933E+02 -0.18969357758E+03  0.23463676410E+03  0.12499923743E+03 0.  0.
    9000005    1    3    3    0    0 -0.40270624593E+02  0.52277158063E+02 -0.26317302120E+02  0.71050861016E+02  0.10000000000E+01 0.  0.
    9000005    1    3    3    0    0  0.16764997544E+01 -0.80454741301E+01 -0.16337627546E+03  0.16358590309E+03  0.10000000000E+01 0.  0.
          4    1    1    2  501    0  0.38594124838E+02 -0.44231683933E+02  0.13059718919E+02  0.60150789636E+02  0.12700000000E+01 0. -1.
<mgrwt>
<rscale>  1 0.13809691E+03</rscale>
<asrwt>0</asrwt>
<pdfrwt beam="1">  1       21 0.90884825E-02 0.13809691E+03</pdfrwt>
<pdfrwt beam="2">  1        4 0.36264236E-01 0.13809691E+03</pdfrwt>
<totfact> 0.28819291E+04</totfact>
</mgrwt>
</event>
<event>
 6    4  0.3189516E-003  0.1385002E+03  0.7818608E-02  0.1215361E+00
          4   -1    0    0  502    0 -0.00000000000E+00  0.00000000000E+00  0.38320475873E+03  0.38320686321E+03  0.12700000000E+01 0. -1.
         21   -1    0    0  501  502  0.00000000000E+00 -0.00000000000E+00 -0.44585017390E+03  0.44585017390E+03  0.00000000000E+00 0.  1.
         25    2    1    2    0    0 -0.53410700459E+02  0.26534089825E+02  0.36857082809E+03  0.39373437265E+03  0.12500216014E+03 0.  0.
    9000005    1    3    3    0    0  0.30400885910E+01  0.15737038595E+02 -0.41663442276E+01  0.16590809100E+02  0.10000000000E+01 0.  0.
    9000005    1    3    3    0    0 -0.56450789050E+02  0.10797051231E+02  0.37273717232E+03  0.37714356355E+03  0.10000000000E+01 0.  0.
          4    1    1    2  501    0  0.53410700459E+02 -0.26534089825E+02 -0.43121624325E+03  0.43532266446E+03  0.12700000000E+01 0.  1.
<mgrwt>
<rscale>  1 0.13850018E+03</rscale>
<asrwt>0</asrwt>
<pdfrwt beam="2">  1       21 0.68592334E-01 0.13850018E+03</pdfrwt>
<pdfrwt beam="1">  1        4 0.58954880E-01 0.13850018E+03</pdfrwt>
<totfact> 0.22586411E+02</totfact>
</mgrwt>
</event>
<event>
 6    4  0.3189516E-003  0.1266560E+03  0.7818608E-02  0.1232504E+00
          4   -1    0    0  502    0 -0.00000000000E+00  0.00000000000E+00  0.23231151807E+03  0.23231498946E+03  0.12700000000E+01 0. -1.
         21   -1    0    0  501  502  0.00000000000E+00 -0.00000000000E+00 -0.51183482245E+02  0.51183482245E+02  0.00000000000E+00 0.  1.
         25    2    1    2    0    0  0.12519964249E+02 -0.16109146559E+02  0.21171571834E+03  0.24670888990E+03  0.12500190741E+03 0.  0.
    9000005    1    3    3    0    0  0.33998025024E+02 -0.43828135480E+02  0.20316200926E+03  0.21060050610E+03  0.10000000000E+01 0.  0.
    9000005    1    3    3    0    0 -0.21478060776E+02  0.27718988921E+02  0.85537090846E+01  0.36108383799E+02  0.10000000000E+01 0.  0.
          4    1    1    2  501    0 -0.12519964249E+02  0.16109146559E+02 -0.30587682517E+02  0.36789581805E+02  0.12700000000E+01 0.  1.
<mgrwt>
<rscale>  1 0.12665596E+03</rscale>
<asrwt>0</asrwt>
<pdfrwt beam="2">  1       21 0.78743820E-02 0.12665596E+03</pdfrwt>
<pdfrwt beam="1">  1        4 0.35741712E-01 0.12665596E+03</pdfrwt>
<totfact> 0.37612348E+04</totfact>
</mgrwt>
</event>
<event>
 6    4  0.3189516E-003  0.1284686E+03  0.7818608E-02  0.1229746E+00
         21   -1    0    0  501  502  0.00000000000E+00  0.00000000000E+00  0.13081686532E+03  0.13081686532E+03  0.00000000000E+00 0. -1.
         -4   -1    0    0    0  501 -0.00000000000E+00 -0.00000000000E+00 -0.47774592559E+02  0.47791469889E+02  0.12700000000E+01 0. -1.
         25    2    1    2    0    0 -0.26102624826E+02 -0.14001150159E+02  0.68362632946E+02  0.14552534934E+03  0.12500719375E+03 0.  0.
    9000005    1    3    3    0    0 -0.38160037317E+01  0.44403524459E+02 -0.95900357705E+01  0.45598285658E+02  0.10000000000E+01 0.  0.
    9000005    1    3    3    0    0 -0.22286621094E+02 -0.58404674618E+02  0.77952668716E+02  0.99927063686E+02  0.10000000000E+01 0.  0.
         -4    1    1    2    0  502  0.26102624826E+02  0.14001150159E+02  0.14679639814E+02  0.33082985863E+02  0.12700000000E+01 0.  1.
<mgrwt>
<rscale>  1 0.12846859E+03</rscale>
<asrwt>0</asrwt>
<pdfrwt beam="1">  1       21 0.20125671E-01 0.12846859E+03</pdfrwt>
<pdfrwt beam="2">  1       -4 0.73517098E-02 0.12846859E+03</pdfrwt>
<totfact> 0.11605857E+05</totfact>
</mgrwt>
</event>
<event>
 6    4  0.3189516E-003  0.1301699E+03  0.7818608E-02  0.1227204E+00
         21   -1    0    0  501  502  0.00000000000E+00  0.00000000000E+00  0.32737993786E+02  0.32737993786E+02  0.00000000000E+00 0. -1.
         -4   -1    0    0    0  501 -0.00000000000E+00 -0.00000000000E+00 -0.39776224044E+03  0.39776426790E+03  0.12700000000E+01 0.  1.
         25    2    1    2    0    0  0.35226146040E+02 -0.88471990421E+01 -0.37144846487E+03  0.39359646573E+03  0.12500024595E+03 0.  0.
    9000005    1    3    3    0    0  0.42711476786E+02 -0.53747967198E+02 -0.30764088991E+03  0.31520950393E+03  0.10000000000E+01 0.  0.
    9000005    1    3    3    0    0 -0.74853307464E+01  0.44900768156E+02 -0.63807574959E+02  0.78386961796E+02  0.10000000000E+01 0.  0.
         -4    1    1    2    0  502 -0.35226146040E+02  0.88471990421E+01  0.64242182122E+01  0.36905795958E+02  0.12700000000E+01 0. -1.
<mgrwt>
<rscale>  1 0.13016995E+03</rscale>
<asrwt>0</asrwt>
<pdfrwt beam="1">  1       21 0.50366141E-02 0.13016995E+03</pdfrwt>
<pdfrwt beam="2">  1       -4 0.61196246E-01 0.13016995E+03</pdfrwt>
<totfact> 0.27301642E+04</totfact>
</mgrwt>
</event>
<event>
 6    4  0.3189516E-003  0.1311024E+03  0.7818608E-02  0.1225829E+00
         21   -1    0    0  501  502  0.00000000000E+00  0.00000000000E+00  0.22100838095E+03  0.22100838095E+03  0.00000000000E+00 0. -1.
          4   -1    0    0  502    0 -0.00000000000E+00 -0.00000000000E+00 -0.52924131826E+02  0.52939367484E+02  0.12700000000E+01 0. -1.
         25    2    1    2    0    0  0.31626645279E+02 -0.23717392204E+02  0.35836483188E+02  0.13591208681E+03  0.12500032972E+03 0.  0.
    9000005    1    3    3    0    0  0.13360186698E+02  0.34496513779E+01 -0.45856601331E+02  0.47898043476E+02  0.10000000000E+01 0.  0.
    9000005    1    3    3    0    0  0.18266458581E+02 -0.27167043582E+02  0.81693084518E+02  0.88014043335E+02  0.10000000000E+01 0.  0.
          4    1    1    2  501    0 -0.31626645279E+02  0.23717392204E+02  0.13224776594E+03  0.13803566162E+03  0.12700000000E+01 0.  1.
<mgrwt>
<rscale>  1 0.13110241E+03</rscale>
<asrwt>0</asrwt>
<pdfrwt beam="1">  1       21 0.34001289E-01 0.13110241E+03</pdfrwt>
<pdfrwt beam="2">  1        4 0.81436269E-02 0.13110241E+03</pdfrwt>
<totfact> 0.36261849E+04</totfact>
</mgrwt>
</event>
<event>
 6    4  0.3189516E-003  0.1537854E+03  0.7818608E-02  0.1195897E+00
         -4   -1    0    0    0  501 -0.00000000000E+00  0.00000000000E+00  0.36885166729E+03  0.36885385366E+03  0.12700000000E+01 0.  1.
         21   -1    0    0  501  502  0.00000000000E+00 -0.00000000000E+00 -0.40650940097E+02  0.40650940097E+02  0.00000000000E+00 0. -1.
         25    2    1    2    0    0  0.24577911541E+02 -0.86140841056E+02  0.22891463637E+03  0.27577499542E+03  0.12500247646E+03 0.  0.
    9000005    1    3    3    0    0  0.29641058385E+02  0.19557086549E+02  0.18055300863E+02  0.39850544108E+02  0.10000000000E+01 0.  0.
    9000005    1    3    3    0    0 -0.50631468432E+01 -0.10569792760E+03  0.21085933551E+03  0.23592445131E+03  0.10000000000E+01 0.  0.
         -4    1    1    2    0  502 -0.24577911541E+02  0.86140841056E+02  0.99286090818E+02  0.13372979834E+03  0.12700000000E+01 0. -1.
<mgrwt>
<rscale>  1 0.15378536E+03</rscale>
<asrwt>0</asrwt>
<pdfrwt beam="2">  1       21 0.62539910E-02 0.15378536E+03</pdfrwt>
<pdfrwt beam="1">  1       -4 0.56748102E-01 0.15378536E+03</pdfrwt>
<totfact> 0.22568199E+04</totfact>
</mgrwt>
</event>
<event>
 6    4  0.3189516E-003  0.1302185E+03  0.7818608E-02  0.1227132E+00
         -4   -1    0    0    0  501 -0.00000000000E+00  0.00000000000E+00  0.72376759555E+02  0.72387901086E+02  0.12700000000E+01 0.  1.
         21   -1    0    0  501  502  0.00000000000E+00 -0.00000000000E+00 -0.25267892306E+03  0.25267892306E+03  0.00000000000E+00 0. -1.
         25    2    1    2    0    0  0.28098660584E+02  0.23287431037E+02  0.10651050305E+02  0.13065339371E+03  0.12500010097E+03 0.  0.
    9000005    1    3    3    0    0  0.66610179225E+02 -0.22377776980E+02  0.93441147830E+01  0.70894240669E+02  0.10000000000E+01 0.  0.
    9000005    1    3    3    0    0 -0.38511518641E+02  0.45665208017E+02  0.13069355216E+01  0.59759153037E+02  0.10000000000E+01 0.  0.
         -4    1    1    2    0  502 -0.28098660584E+02 -0.23287431037E+02 -0.19095321381E+03  0.19441343044E+03  0.12700000000E+01 0. -1.
<mgrwt>
<rscale>  1 0.13021853E+03</rscale>
<asrwt>0</asrwt>
<pdfrwt beam="2">  1       21 0.38873680E-01 0.13021853E+03</pdfrwt>
<pdfrwt beam="1">  1       -4 0.11135989E-01 0.13021853E+03</pdfrwt>
<totfact> 0.16457075E+04</totfact>
</mgrwt>
</event>
<event>
 6    4  0.3189516E-003  0.1315472E+03  0.7818608E-02  0.1225178E+00
         -4   -1    0    0    0  501 -0.00000000000E+00  0.00000000000E+00  0.18612372760E+02  0.18655651148E+02  0.12700000000E+01 0.  1.
         21   -1    0    0  501  502  0.00000000000E+00 -0.00000000000E+00 -0.64739273320E+03  0.64739273320E+03  0.00000000000E+00 0. -1.
         25    2    1    2    0    0  0.37751417594E+02 -0.15956693203E+02 -0.22840169845E+03  0.26357543934E+03  0.12499956311E+03 0.  0.
    9000005    1    3    3    0    0  0.42576670901E+02  0.45959562959E+02 -0.72896774980E+02  0.96124888218E+02  0.10000000000E+01 0.  0.
    9000005    1    3    3    0    0 -0.48252533072E+01 -0.61916256162E+02 -0.15550492347E+03  0.16745055112E+03  0.10000000000E+01 0.  0.
         -4    1    1    2    0  502 -0.37751417594E+02  0.15956693203E+02 -0.40037866199E+03  0.40247294501E+03  0.12700000000E+01 0. -1.
<mgrwt>
<rscale>  1 0.13154724E+03</rscale>
<asrwt>0</asrwt>
<pdfrwt beam="2">  1       21 0.99598896E-01 0.13154724E+03</pdfrwt>
<pdfrwt beam="1">  1       -4 0.28668665E-02 0.13154724E+03</pdfrwt>
<totfact> 0.19757634E+04</totfact>
</mgrwt>
</event>
<event>
 6    4  0.3189516E-003  0.1268576E+03  0.7818608E-02  0.1232194E+00
         -4   -1    0    0    0  501 -0.00000000000E+00  0.00000000000E+00  0.54413101178E+02  0.54427920039E+02  0.12700000000E+01 0. -1.
         21   -1    0    0  501  502  0.00000000000E+00 -0.00000000000E+00 -0.28128757734E+03  0.28128757734E+03  0.00000000000E+00 0.  1.
         25    2    1    2    0    0 -0.88131264920E+01  0.19741007635E+02 -0.20854436331E+02  0.12856036640E+03  0.12500192683E+03 0.  0.
    9000005    1    3    3    0    0 -0.36502867098E+02  0.48452097688E+02 -0.50429950302E+02  0.78893884201E+02  0.10000000000E+01 0.  0.
    9000005    1    3    3    0    0  0.27689740607E+02 -0.28711090053E+02  0.29575513971E+02  0.49666482194E+02  0.10000000000E+01 0.  0.
         -4    1    1    2    0  502  0.88131264920E+01 -0.19741007635E+02 -0.20602003983E+03  0.20715513098E+03  0.12700000000E+01 0.  1.
<mgrwt>
<rscale>  1 0.12685764E+03</rscale>
<asrwt>0</asrwt>
<pdfrwt beam="2">  1       21 0.43275012E-01 0.12685764E+03</pdfrwt>
<pdfrwt beam="1">  1       -4 0.83726067E-02 0.12685764E+03</pdfrwt>
<totfact> 0.21368517E+04</totfact>
</mgrwt>
</event>
<event>
 6    4  0.3189516E-003  0.1353980E+03  0.7818608E-02  0.1219659E+00
         -4   -1    0    0    0  501 -0.00000000000E+00  0.00000000000E+00  0.16433803026E+03  0.16434293745E+03  0.12700000000E+01 0. -1.
         21   -1    0    0  501  502  0.00000000000E+00 -0.00000000000E+00 -0.78540370325E+02  0.78540370325E+02  0.00000000000E+00 0.  1.
         25    2    1    2    0    0 -0.96457737464E+01 -0.51135290250E+02  0.11973391141E+03  0.18074522828E+03  0.12499907657E+03 0.  0.
    9000005    1    3    3    0    0 -0.48892479164E+02 -0.24678452551E+02  0.12159820406E+03  0.13336650168E+03  0.10000000000E+01 0.  0.
    9000005    1    3    3    0    0  0.39246705418E+02 -0.26456837699E+02 -0.18642926538E+01  0.47378726600E+02  0.10000000000E+01 0.  0.
         -4    1    1    2    0  502  0.96457737464E+01  0.51135290250E+02 -0.33936251468E+02  0.62138079499E+02  0.12700000000E+01 0.  1.
<mgrwt>
<rscale>  1 0.13539804E+03</rscale>
<asrwt>0</asrwt>
<pdfrwt beam="2">  1       21 0.12083134E-01 0.13539804E+03</pdfrwt>
<pdfrwt beam="1">  1       -4 0.25283941E-01 0.13539804E+03</pdfrwt>
<totfact> 0.34504896E+04</totfact>
</mgrwt>
</event>
<event>
 6    4  0.3189516E-003  0.1297178E+03  0.7818608E-02  0.1227875E+00
          4   -1    0    0  502    0 -0.00000000000E+00  0.00000000000E+00  0.30013768045E+01  0.32590125379E+01  0.12700000000E+01 0.  1.
         21   -1    0    0  501  502  0.00000000000E+00 -0.00000000000E+00 -0.35282829679E+04  0.35282829679E+04  0.00000000000E+00 0. -1.
         25    2    1    2    0    0 -0.19570247197E+02  0.28774022961E+02 -0.14052380869E+04  0.14112125222E+04  0.12496304619E+03 0.  0.
    9000005    1    3    3    0    0  0.42862808075E+02 -0.22848732541E+02 -0.49799182519E+03  0.50035601611E+03  0.10000000000E+01 0.  0.
    9000005    1    3    3    0    0 -0.62433055272E+02  0.51622755501E+02 -0.90724626170E+03  0.91085650607E+03  0.10000000000E+01 0.  0.
          4    1    1    2  501    0  0.19570247197E+02 -0.28774022961E+02 -0.21200435042E+04  0.21203294583E+04  0.12700000000E+01 0. -1.
<mgrwt>
<rscale>  1 0.12971778E+03</rscale>
<asrwt>0</asrwt>
<pdfrwt beam="2">  1       21 0.54281188E+00 0.12971778E+03</pdfrwt>
<pdfrwt beam="1">  1        4 0.48158678E-03 0.12971778E+03</pdfrwt>
<totfact> 0.36854621E+02</totfact>
</mgrwt>
</event>
<event>
 6    4  0.3189516E-003  0.1267983E+03  0.7818608E-02  0.1232285E+00
          4   -1    0    0  502    0 -0.00000000000E+00  0.00000000000E+00  0.35458737961E+02  0.35481474008E+02  0.12700000000E+01 0.  1.
         21   -1    0    0  501  502  0.00000000000E+00 -0.00000000000E+00 -0.15502183651E+03  0.15502183651E+03  0.00000000000E+00 0.  1.
         25    2    1    2    0    0  0.16864016795E+02  0.12943000439E+02 -0.10586168727E+03  0.16518024013E+03  0.12500359424E+03 0.  0.
    9000005    1    3    3    0    0  0.39877372817E+02 -0.36754217799E+02 -0.10561534926E+02  0.55259600150E+02  0.10000000000E+01 0.  0.
    9000005    1    3    3    0    0 -0.23013356021E+02  0.49697218238E+02 -0.95300152348E+02  0.10992063998E+03  0.10000000000E+01 0.  0.
          4    1    1    2  501    0 -0.16864016795E+02 -0.12943000439E+02 -0.13701411270E+02  0.25323070383E+02  0.12700000000E+01 0. -1.
<mgrwt>
<rscale>  1 0.12679832E+03</rscale>
<asrwt>0</asrwt>
<pdfrwt beam="2">  1       21 0.23849513E-01 0.12679832E+03</pdfrwt>
<pdfrwt beam="1">  1        4 0.54573396E-02 0.12679832E+03</pdfrwt>
<totfact> 0.13714846E+05</totfact>
</mgrwt>
</event>
<event>
 6    4  0.3189516E-003  0.1291494E+03  0.7818608E-02  0.1228723E+00
         -4   -1    0    0    0  501 -0.00000000000E+00  0.00000000000E+00  0.47025634772E+02  0.47042780803E+02  0.12700000000E+01 0. -1.
         21   -1    0    0  501  502  0.00000000000E+00 -0.00000000000E+00 -0.16980951262E+03  0.16980951262E+03  0.00000000000E+00 0.  1.
         25    2    1    2    0    0 -0.29445511458E+02 -0.13691495952E+02 -0.52487810362E+02  0.13940782809E+03  0.12500030836E+03 0.  0.
    9000005    1    3    3    0    0  0.24574248095E+02 -0.50964883641E+02 -0.46961245816E+02  0.73536872673E+02  0.10000000000E+01 0.  0.
    9000005    1    3    3    0    0 -0.54019759553E+02  0.37273387689E+02 -0.55265645456E+01  0.65870955418E+02  0.10000000000E+01 0.  0.
         -4    1    1    2    0  502  0.29445511458E+02  0.13691495952E+02 -0.70296067482E+02  0.77444465327E+02  0.12700000000E+01 0.  1.
<mgrwt>
<rscale>  1 0.12914942E+03</rscale>
<asrwt>0</asrwt>
<pdfrwt beam="2">  1       21 0.26124541E-01 0.12914942E+03</pdfrwt>
<pdfrwt beam="1">  1       -4 0.72363973E-02 0.12914942E+03</pdfrwt>
<totfact> 0.73114384E+04</totfact>
</mgrwt>
</event>
<event>
 6    4  0.3189516E-003  0.1390239E+03  0.7818608E-02  0.1214649E+00
         21   -1    0    0  501  502  0.00000000000E+00  0.00000000000E+00  0.18014135506E+04  0.18014135506E+04  0.00000000000E+00 0.  1.
         -4   -1    0    0    0  501 -0.00000000000E+00 -0.00000000000E+00 -0.57665828813E+01  0.59047758744E+01  0.12700000000E+01 0. -1.
         25    2    1    2    0    0 -0.22386059315E+02  0.56592931202E+02  0.10449848318E+04  0.10541920750E+04  0.12499494673E+03 0.  0.
    9000005    1    3    3    0    0 -0.56871125715E+02  0.55882075201E+02  0.94619851410E+03  0.94955239948E+03  0.10000000000E+01 0.  0.
    9000005    1    3    3    0    0  0.34485066400E+02  0.71085600051E+00  0.98786317700E+02  0.10463967548E+03  0.10000000000E+01 0.  0.
         -4    1    1    2    0  502  0.22386059315E+02 -0.56592931202E+02  0.75066213588E+03  0.75312625147E+03  0.12700000000E+01 0.  1.
<mgrwt>
<rscale>  1 0.13902385E+03</rscale>
<asrwt>0</asrwt>
<pdfrwt beam="1">  1       21 0.27714010E+00 0.13902385E+03</pdfrwt>
<pdfrwt beam="2">  1       -4 0.89783270E-03 0.13902385E+03</pdfrwt>
<totfact> 0.68298663E+03</totfact>
</mgrwt>
</event>
<event>
 6    4  0.3189516E-003  0.1422727E+03  0.7818608E-02  0.1210303E+00
          4   -1    0    0  502    0 -0.00000000000E+00  0.00000000000E+00  0.85005237543E+03  0.85005332413E+03  0.12700000000E+01 0. -1.
         21   -1    0    0  501  502  0.00000000000E+00 -0.00000000000E+00 -0.26474113546E+02  0.26474113546E+02  0.00000000000E+00 0.  1.
         25    2    1    2    0    0  0.53651265139E+02  0.41685843560E+02  0.78620445290E+03  0.79897369952E+03  0.12500145187E+03 0.  0.
    9000005    1    3    3    0    0  0.15439883799E+01  0.77665489730E+02  0.48510255658E+03  0.49128383099E+03  0.10000000000E+01 0.  0.
    9000005    1    3    3    0    0  0.52107276759E+02 -0.35979646170E+02  0.30110189632E+03  0.30768986853E+03  0.10000000000E+01 0.  0.
          4    1    1    2  501    0 -0.53651265139E+02 -0.41685843560E+02  0.37373808987E+02  0.77553738159E+02  0.12700000000E+01 0.  1.
<mgrwt>
<rscale>  1 0.14227273E+03</rscale>
<asrwt>0</asrwt>
<pdfrwt beam="2">  1       21 0.40729412E-02 0.14227273E+03</pdfrwt>
<pdfrwt beam="1">  1        4 0.13077968E+00 0.14227273E+03</pdfrwt>
<totfact> 0.70295297E+03</totfact>
</mgrwt>
</event>
<event>
 6    4  0.3189516E-003  0.1282246E+03  0.7818608E-02  0.1230114E+00
          4   -1    0    0  502    0 -0.00000000000E+00  0.00000000000E+00  0.77568531492E+03  0.77568635458E+03  0.12700000000E+01 0. -1.
         21   -1    0    0  501  502  0.00000000000E+00 -0.00000000000E+00 -0.12718240869E+02  0.12718240869E+02  0.00000000000E+00 0.  1.
         25    2    1    2    0    0  0.27432660604E+02  0.80186880332E+01  0.74184074089E+03  0.75284077846E+03  0.12499881062E+03 0.  0.
    9000005    1    3    3    0    0 -0.27693866673E+02 -0.27951835695E+02  0.97490776764E+02  0.10513661077E+03  0.10000000000E+01 0.  0.
    9000005    1    3    3    0    0  0.55126527277E+02  0.35970523729E+02  0.64434996412E+03  0.64770416770E+03  0.10000000000E+01 0.  0.
          4    1    1    2  501    0 -0.27432660604E+02 -0.80186880332E+01  0.21126333170E+02  0.35563816989E+02  0.12700000000E+01 0.  1.
<mgrwt>
<rscale>  1 0.12822462E+03</rscale>
<asrwt>0</asrwt>
<pdfrwt beam="2">  1       21 0.19566531E-02 0.12822462E+03</pdfrwt>
<pdfrwt beam="1">  1        4 0.11934112E+00 0.12822462E+03</pdfrwt>
<totfact> 0.28879952E+04</totfact>
</mgrwt>
</event>
<event>
 6    4  0.3189516E-003  0.1328382E+03  0.7818608E-02  0.1223304E+00
          4   -1    0    0  502    0 -0.00000000000E+00  0.00000000000E+00  0.17608471312E+02  0.17654210884E+02  0.12700000000E+01 0. -1.
         21   -1    0    0  501  502  0.00000000000E+00 -0.00000000000E+00 -0.44851652812E+03  0.44851652812E+03  0.00000000000E+00 0. -1.
         25    2    1    2    0    0 -0.27967362820E+02 -0.35174325321E+02 -0.31644388433E+03  0.34319486240E+03  0.12500630026E+03 0.  0.
    9000005    1    3    3    0    0 -0.52280733040E+02  0.89638514035E+01 -0.26829798432E+03  0.27349302381E+03  0.10000000000E+01 0.  0.
    9000005    1    3    3    0    0  0.24313370220E+02 -0.44138176724E+02 -0.48145900002E+02  0.69701838591E+02  0.10000000000E+01 0.  0.
          4    1    1    2  501    0  0.27967362820E+02  0.35174325321E+02 -0.11446417248E+03  0.12297587661E+03  0.12700000000E+01 0.  1.
<mgrwt>
<rscale>  1 0.13283818E+03</rscale>
<asrwt>0</asrwt>
<pdfrwt beam="2">  1       21 0.69002546E-01 0.13283818E+03</pdfrwt>
<pdfrwt beam="1">  1        4 0.27126522E-02 0.13283818E+03</pdfrwt>
<totfact> 0.49285345E+04</totfact>
</mgrwt>
</event>
<event>
 6    4  0.3189516E-003  0.1300878E+03  0.7818608E-02  0.1227326E+00
         21   -1    0    0  501  502  0.00000000000E+00  0.00000000000E+00  0.58594388863E+02  0.58594388863E+02  0.00000000000E+00 0.  1.
          4   -1    0    0  502    0 -0.00000000000E+00 -0.00000000000E+00 -0.29247222860E+03  0.29247498594E+03  0.12700000000E+01 0.  1.
         25    2    1    2    0    0  0.31538097120E+02 -0.17338834826E+02 -0.27022223005E+03  0.29990479359E+03  0.12501017897E+03 0.  0.
    9000005    1    3    3    0    0  0.19078781905E+02  0.99310509286E+01  0.57663396163E+01  0.22290723723E+02  0.10000000000E+01 0.  0.
    9000005    1    3    3    0    0  0.12459315215E+02 -0.27269885754E+02 -0.27598856966E+03  0.27761406987E+03  0.10000000000E+01 0.  0.
          4    1    1    2  501    0 -0.31538097120E+02  0.17338834826E+02  0.36344390314E+02  0.51164581209E+02  0.12700000000E+01 0. -1.
<mgrwt>
<rscale>  1 0.13008778E+03</rscale>
<asrwt>0</asrwt>
<pdfrwt beam="1">  1       21 0.90145212E-02 0.13008778E+03</pdfrwt>
<pdfrwt beam="2">  1        4 0.44996999E-01 0.13008778E+03</pdfrwt>
<totfact> 0.18986927E+04</totfact>
</mgrwt>
</event>
<event>
 6    4  0.3189516E-003  0.1279444E+03  0.7818608E-02  0.1230538E+00
         -4   -1    0    0    0  501 -0.00000000000E+00  0.00000000000E+00  0.28075959662E+02  0.28104668846E+02  0.12700000000E+01 0.  1.
         21   -1    0    0  501  502  0.00000000000E+00 -0.00000000000E+00 -0.45112876056E+03  0.45112876056E+03  0.00000000000E+00 0. -1.
         25    2    1    2    0    0  0.24232699335E+02  0.12627507388E+02 -0.12150072410E+03  0.17644316275E+03  0.12499234402E+03 0.  0.
    9000005    1    3    3    0    0  0.11605235745E+02 -0.55907375101E+02 -0.66524499512E+02  0.87674540904E+02  0.10000000000E+01 0.  0.
    9000005    1    3    3    0    0  0.12627463590E+02  0.68534882489E+02 -0.54976224587E+02  0.88768621846E+02  0.10000000000E+01 0.  0.
         -4    1    1    2    0  502 -0.24232699335E+02 -0.12627507388E+02 -0.30155207680E+03  0.30279026666E+03  0.12700000000E+01 0. -1.
<mgrwt>
<rscale>  1 0.12794438E+03</rscale>
<asrwt>0</asrwt>
<pdfrwt beam="2">  1       21 0.69404414E-01 0.12794438E+03</pdfrwt>
<pdfrwt beam="1">  1       -4 0.43217250E-02 0.12794438E+03</pdfrwt>
<totfact> 0.23284289E+04</totfact>
</mgrwt>
</event>
<event>
 6    4  0.3189516E-003  0.1309163E+03  0.7818608E-02  0.1226102E+00
          4   -1    0    0  502    0 -0.00000000000E+00  0.00000000000E+00  0.16170629725E+04  0.16170634712E+04  0.12700000000E+01 0. -1.
         21   -1    0    0  501  502  0.00000000000E+00 -0.00000000000E+00 -0.44605736643E+01  0.44605736643E+01  0.00000000000E+00 0. -1.
         25    2    1    2    0    0 -0.29654936601E+02  0.25177713903E+02  0.12311626907E+04  0.12381036536E+04  0.12500301494E+03 0.  0.
    9000005    1    3    3    0    0 -0.51412061213E+02 -0.36273398442E+02  0.47800732311E+03  0.48213168370E+03  0.10000000000E+01 0.  0.
    9000005    1    3    3    0    0  0.21757124612E+02  0.61451112345E+02  0.75315536755E+03  0.75597196995E+03  0.10000000000E+01 0.  0.
          4    1    1    2  501    0  0.29654936601E+02 -0.25177713903E+02  0.38143970814E+03  0.38342039120E+03  0.12700000000E+01 0.  1.
<mgrwt>
<rscale>  1 0.13091633E+03</rscale>
<asrwt>0</asrwt>
<pdfrwt beam="2">  1       21 0.68624340E-03 0.13091633E+03</pdfrwt>
<pdfrwt beam="1">  1        4 0.24879240E+00 0.13091633E+03</pdfrwt>
<totfact> 0.20534547E+04</totfact>
</mgrwt>
</event>
<event>
 6    4  0.3189516E-003  0.1331288E+03  0.7818608E-02  0.1222886E+00
          4   -1    0    0  502    0 -0.00000000000E+00  0.00000000000E+00  0.52344479048E+03  0.52344633114E+03  0.12700000000E+01 0. -1.
         21   -1    0    0  501  502  0.00000000000E+00 -0.00000000000E+00 -0.17357145113E+02  0.17357145113E+02  0.00000000000E+00 0. -1.
         25    2    1    2    0    0 -0.45137486963E+02 -0.77851238817E+01  0.44470334313E+03  0.46420291265E+03  0.12500111934E+03 0.  0.
    9000005    1    3    3    0    0  0.30559106802E+02  0.29308109083E+02  0.87844475925E+02  0.97521670500E+02  0.10000000000E+01 0.  0.
    9000005    1    3    3    0    0 -0.75696593765E+02 -0.37093232965E+02  0.35685886721E+03  0.36668124215E+03  0.10000000000E+01 0.  0.
          4    1    1    2  501    0  0.45137486963E+02  0.77851238817E+01  0.61384302238E+02  0.76600563604E+02  0.12700000000E+01 0.  1.
<mgrwt>
<rscale>  1 0.13312881E+03</rscale>
<asrwt>0</asrwt>
<pdfrwt beam="2">  1       21 0.26703304E-02 0.13312881E+03</pdfrwt>
<pdfrwt beam="1">  1        4 0.80533648E-01 0.13312881E+03</pdfrwt>
<totfact> 0.43290434E+04</totfact>
</mgrwt>
</event>
<event>
 6    4  0.3189516E-003  0.1294182E+03  0.7818608E-02  0.1228322E+00
          4   -1    0    0  502    0 -0.00000000000E+00  0.00000000000E+00  0.20603275408E+02  0.20642380133E+02  0.12700000000E+01 0.  1.
         21   -1    0    0  501  502  0.00000000000E+00 -0.00000000000E+00 -0.34697178220E+03  0.34697178220E+03  0.00000000000E+00 0. -1.
         25    2    1    2    0    0 -0.30923368751E+02  0.12950135632E+02 -0.21157276027E+03  0.24801634853E+03  0.12500046200E+03 0.  0.
    9000005    1    3    3    0    0  0.39902443227E+02  0.36603685140E+02 -0.77481462621E+02  0.94532596448E+02  0.10000000000E+01 0.  0.
    9000005    1    3    3    0    0 -0.70825811979E+02 -0.23653549508E+02 -0.13409129765E+03  0.15348375208E+03  0.10000000000E+01 0.  0.
          4    1    1    2  501    0  0.30923368751E+02 -0.12950135632E+02 -0.11479574652E+03  0.11959781381E+03  0.12700000000E+01 0. -1.
<mgrwt>
<rscale>  1 0.12941822E+03</rscale>
<asrwt>0</asrwt>
<pdfrwt beam="2">  1       21 0.53380278E-01 0.12941822E+03</pdfrwt>
<pdfrwt beam="1">  1        4 0.31729213E-02 0.12941822E+03</pdfrwt>
<totfact> 0.66435422E+04</totfact>
</mgrwt>
</event>
<event>
 6    4  0.3189516E-003  0.1267315E+03  0.7818608E-02  0.1232388E+00
         21   -1    0    0  501  502  0.00000000000E+00  0.00000000000E+00  0.72261901942E+01  0.72261901942E+01  0.00000000000E+00 0. -1.
          4   -1    0    0  502    0 -0.00000000000E+00 -0.00000000000E+00 -0.76492871037E+03  0.76492976465E+03  0.12700000000E+01 0. -1.
         25    2    1    2    0    0 -0.18047877478E+02 -0.10470909891E+02 -0.67893871996E+03  0.69066537281E+03  0.12500202361E+03 0.  0.
    9000005    1    3    3    0    0 -0.17885774628E+01  0.41692360816E+02 -0.53621412617E+03  0.53783644453E+03  0.10000000000E+01 0.  0.
    9000005    1    3    3    0    0 -0.16259300015E+02 -0.52163270707E+02 -0.14272459379E+03  0.15282892828E+03  0.10000000000E+01 0.  0.
          4    1    1    2  501    0  0.18047877478E+02  0.10470909891E+02 -0.78763800213E+02  0.81490582029E+02  0.12700000000E+01 0.  1.
<mgrwt>
<rscale>  1 0.12673149E+03</rscale>
<asrwt>0</asrwt>
<pdfrwt beam="1">  1       21 0.11117220E-02 0.12673149E+03</pdfrwt>
<pdfrwt beam="2">  1        4 0.11768996E+00 0.12673149E+03</pdfrwt>
<totfact> 0.73481623E+04</totfact>
</mgrwt>
</event>
<event>
 6    4  0.3189516E-003  0.1317455E+03  0.7818608E-02  0.1224889E+00
         21   -1    0    0  501  502  0.00000000000E+00  0.00000000000E+00  0.49801103114E+03  0.49801103114E+03  0.00000000000E+00 0. -1.
          4   -1    0    0  502    0 -0.00000000000E+00 -0.00000000000E+00 -0.45670774418E+02  0.45688428906E+02  0.12700000000E+01 0.  1.
         25    2    1    2    0    0  0.35352480860E+02 -0.21932100829E+02  0.52695686764E+02  0.14189327524E+03  0.12500420475E+03 0.  0.
    9000005    1    3    3    0    0 -0.32676261744E+02 -0.10454602769E+01 -0.21452911216E+02  0.39115961811E+02  0.10000000000E+01 0.  0.
    9000005    1    3    3    0    0  0.68028742604E+02 -0.20886640552E+02  0.74148597981E+02  0.10277731343E+03  0.10000000000E+01 0.  0.
          4    1    1    2  501    0 -0.35352480860E+02  0.21932100829E+02  0.39964456996E+03  0.40180618480E+03  0.12700000000E+01 0. -1.
<mgrwt>
<rscale>  1 0.13174546E+03</rscale>
<asrwt>0</asrwt>
<pdfrwt beam="1">  1       21 0.76617078E-01 0.13174546E+03</pdfrwt>
<pdfrwt beam="2">  1        4 0.70277559E-02 0.13174546E+03</pdfrwt>
<totfact> 0.85609245E+03</totfact>
</mgrwt>
</event>
<event>
 6    4  0.3189516E-003  0.1270182E+03  0.7818608E-02  0.1231948E+00
         -4   -1    0    0    0  501 -0.00000000000E+00  0.00000000000E+00  0.28722135836E+02  0.28750199773E+02  0.12700000000E+01 0. -1.
         21   -1    0    0  501  502  0.00000000000E+00 -0.00000000000E+00 -0.11047533408E+04  0.11047533408E+04  0.00000000000E+00 0.  1.
         25    2    1    2    0    0 -0.62856785312E+01 -0.21590321524E+02 -0.11240095841E+03  0.16961012493E+03  0.12501186860E+03 0.  0.
    9000005    1    3    3    0    0  0.21855850107E+02 -0.49690489218E+02 -0.43491325160E+01  0.54467768967E+02  0.10000000000E+01 0.  0.
    9000005    1    3    3    0    0 -0.28141528638E+02  0.28100167693E+02 -0.10805182589E+03  0.11514235596E+03  0.10000000000E+01 0.  0.
         -4    1    1    2    0  502  0.62856785312E+01  0.21590321524E+02 -0.96363024656E+03  0.96389341564E+03  0.12700000000E+01 0.  1.
<mgrwt>
<rscale>  1 0.12701818E+03</rscale>
<asrwt>0</asrwt>
<pdfrwt beam="2">  1       21 0.16996209E+00 0.12701818E+03</pdfrwt>
<pdfrwt beam="1">  1       -4 0.44210041E-02 0.12701818E+03</pdfrwt>
<totfact> 0.26179921E+03</totfact>
</mgrwt>
</event>
<event>
 6    4  0.3189516E-003  0.1401137E+03  0.7818608E-02  0.1213176E+00
         21   -1    0    0  501  502  0.00000000000E+00  0.00000000000E+00  0.22502034932E+03  0.22502034932E+03  0.00000000000E+00 0. -1.
          4   -1    0    0  502    0 -0.00000000000E+00 -0.00000000000E+00 -0.49256065709E+02  0.49272435592E+02  0.12700000000E+01 0.  1.
         25    2    1    2    0    0  0.26711013009E+02 -0.57452523286E+02  0.85959835377E+02  0.16438044497E+03  0.12497026344E+03 0.  0.
    9000005    1    3    3    0    0  0.69779882867E+02 -0.48641539949E+01  0.58003589203E+02  0.90875235392E+02  0.10000000000E+01 0.  0.
    9000005    1    3    3    0    0 -0.43068869858E+02 -0.52588369291E+02  0.27956246174E+02  0.73505209582E+02  0.10000000000E+01 0.  0.
          4    1    1    2  501    0 -0.26711013009E+02  0.57452523286E+02  0.89804448231E+02  0.10991233994E+03  0.12700000000E+01 0. -1.
<mgrwt>
<rscale>  1 0.14011366E+03</rscale>
<asrwt>0</asrwt>
<pdfrwt beam="1">  1       21 0.34618515E-01 0.14011366E+03</pdfrwt>
<pdfrwt beam="2">  1        4 0.75793913E-02 0.14011366E+03</pdfrwt>
<totfact> 0.39693353E+04</totfact>
</mgrwt>
</event>
<event>
 6    4  0.3189516E-003  0.1277650E+03  0.7818608E-02  0.1230810E+00
         21   -1    0    0  501  502  0.00000000000E+00  0.00000000000E+00  0.10222725373E+03  0.10222725373E+03  0.00000000000E+00 0.  1.
          4   -1    0    0  502    0 -0.00000000000E+00 -0.00000000000E+00 -0.59419265396E+02  0.59432836044E+02  0.12700000000E+01 0.  1.
         25    2    1    2    0    0  0.11047152057E+02  0.24012452915E+02  0.26217490403E+02  0.13042717468E+03  0.12500101451E+03 0.  0.
    9000005    1    3    3    0    0 -0.16005719340E+02 -0.96218508556E+01 -0.44106083357E+02  0.47907302727E+02  0.10000000000E+01 0.  0.
    9000005    1    3    3    0    0  0.27052871398E+02  0.33634303771E+02  0.70323573760E+02  0.82519871954E+02  0.10000000000E+01 0.  0.
          4    1    1    2  501    0 -0.11047152057E+02 -0.24012452915E+02  0.16590497931E+02  0.31232915093E+02  0.12700000000E+01 0. -1.
<mgrwt>
<rscale>  1 0.12776498E+03</rscale>
<asrwt>0</asrwt>
<pdfrwt beam="1">  1       21 0.15727270E-01 0.12776498E+03</pdfrwt>
<pdfrwt beam="2">  1        4 0.91430761E-02 0.12776498E+03</pdfrwt>
<totfact> 0.12682526E+05</totfact>
</mgrwt>
</event>
<event>
 6    4  0.3189516E-003  0.1269533E+03  0.7818608E-02  0.1232048E+00
         -4   -1    0    0    0  501 -0.00000000000E+00  0.00000000000E+00  0.44637586317E+03  0.44637766983E+03  0.12700000000E+01 0. -1.
         21   -1    0    0  501  502  0.00000000000E+00 -0.00000000000E+00 -0.69026270909E+02  0.69026270909E+02  0.00000000000E+00 0.  1.
         25    2    1    2    0    0  0.22181034901E+02  0.30088011870E+00  0.43524979091E+03  0.45338672746E+03  0.12500022122E+03 0.  0.
    9000005    1    3    3    0    0 -0.41456210453E+00  0.55238248430E+02  0.30844605578E+03  0.31335507859E+03  0.10000000000E+01 0.  0.
    9000005    1    3    3    0    0  0.22595597005E+02 -0.54937368312E+02  0.12680373514E+03  0.14003164887E+03  0.10000000000E+01 0.  0.
         -4    1    1    2    0  502 -0.22181034901E+02 -0.30088011870E+00 -0.57900198656E+02  0.62017213276E+02  0.12700000000E+01 0.  1.
<mgrwt>
<rscale>  1 0.12695331E+03</rscale>
<asrwt>0</asrwt>
<pdfrwt beam="2">  1       21 0.10619427E-01 0.12695331E+03</pdfrwt>
<pdfrwt beam="1">  1       -4 0.68674245E-01 0.12695331E+03</pdfrwt>
<totfact> 0.59260169E+03</totfact>
</mgrwt>
</event>
<event>
 6    4  0.3189516E-003  0.1307561E+03  0.7818608E-02  0.1226338E+00
         21   -1    0    0  501  502  0.00000000000E+00  0.00000000000E+00  0.84109641276E+03  0.84109641276E+03  0.00000000000E+00 0.  1.
         -4   -1    0    0    0  501 -0.00000000000E+00 -0.00000000000E+00 -0.91606213595E+01  0.92482367883E+01  0.12700000000E+01 0. -1.
         25    2    1    2    0    0  0.37725770790E+02 -0.70864043203E+01  0.52604177355E+03  0.54204898957E+03  0.12499483454E+03 0.  0.
    9000005    1    3    3    0    0 -0.21333074499E+02 -0.44797135503E+02  0.11765833406E+03  0.12769638597E+03  0.10000000000E+01 0.  0.
    9000005    1    3    3    0    0  0.59058845289E+02  0.37710731183E+02  0.40838343950E+03  0.41435260360E+03  0.10000000000E+01 0.  0.
         -4    1    1    2    0  502 -0.37725770790E+02  0.70864043203E+01  0.30589401785E+03  0.30829565998E+03  0.12700000000E+01 0.  1.
<mgrwt>
<rscale>  1 0.13075611E+03</rscale>
<asrwt>0</asrwt>
<pdfrwt beam="1">  1       21 0.12939939E+00 0.13075611E+03</pdfrwt>
<pdfrwt beam="2">  1       -4 0.14161404E-02 0.13075611E+03</pdfrwt>
<totfact> 0.31135641E+04</totfact>
</mgrwt>
</event>
<event>
 6    4  0.3189516E-003  0.1603708E+03  0.7818608E-02  0.1188279E+00
         21   -1    0    0  501  502  0.00000000000E+00  0.00000000000E+00  0.31577580805E+02  0.31577580805E+02  0.00000000000E+00 0.  1.
          4   -1    0    0  502    0 -0.00000000000E+00 -0.00000000000E+00 -0.59245094272E+03  0.59245230393E+03  0.12700000000E+01 0. -1.
         25    2    1    2    0    0  0.69868166407E+02  0.72196594482E+02 -0.43070940046E+03  0.45959698446E+03  0.12499956618E+03 0.  0.
    9000005    1    3    3    0    0 -0.23367330087E+02  0.15296846925E+02 -0.19374541126E+02  0.34005859570E+02  0.10000000000E+01 0.  0.
    9000005    1    3    3    0    0  0.93235496494E+02  0.56899747557E+02 -0.41133485934E+03  0.42559112489E+03  0.10000000000E+01 0.  0.
          4    1    1    2  501    0 -0.69868166407E+02 -0.72196594482E+02 -0.13016396145E+03  0.16443290027E+03  0.12700000000E+01 0.  1.
<mgrwt>
<rscale>  1 0.16037082E+03</rscale>
<asrwt>0</asrwt>
<pdfrwt beam="1">  1       21 0.48580896E-02 0.16037082E+03</pdfrwt>
<pdfrwt beam="2">  1        4 0.91148363E-01 0.16037082E+03</pdfrwt>
<totfact> 0.12398846E+04</totfact>
</mgrwt>
</event>
<event>
 6    4  0.3189516E-003  0.1276128E+03  0.7818608E-02  0.1231041E+00
         -4   -1    0    0    0  501 -0.00000000000E+00  0.00000000000E+00  0.91825300848E+03  0.91825388673E+03  0.12700000000E+01 0. -1.
         21   -1    0    0  501  502  0.00000000000E+00 -0.00000000000E+00 -0.76190942474E+01  0.76190942474E+01  0.00000000000E+00 0. -1.
         25    2    1    2    0    0  0.17299169503E+02  0.18987116667E+02  0.85633942885E+03  0.86579573147E+03  0.12500103744E+03 0.  0.
    9000005    1    3    3    0    0  0.69914813308E+02  0.29521853916E+01  0.56394984547E+03  0.56827565910E+03  0.10000000000E+01 0.  0.
    9000005    1    3    3    0    0 -0.52615643805E+02  0.16034931275E+02  0.29238958338E+03  0.29752007237E+03  0.10000000000E+01 0.  0.
         -4    1    1    2    0  502 -0.17299169503E+02 -0.18987116667E+02  0.54294485387E+02  0.60077249506E+02  0.12700000000E+01 0.  1.
<mgrwt>
<rscale>  1 0.12761282E+03</rscale>
<asrwt>0</asrwt>
<pdfrwt beam="2">  1       21 0.11721691E-02 0.12761282E+03</pdfrwt>
<pdfrwt beam="1">  1       -4 0.14127781E+00 0.12761282E+03</pdfrwt>
<totfact> 0.43300017E+04</totfact>
</mgrwt>
</event>
<event>
 6    4  0.3189516E-003  0.1278632E+03  0.7818608E-02  0.1230661E+00
         21   -1    0    0  501  502  0.00000000000E+00  0.00000000000E+00  0.11552742293E+03  0.11552742293E+03  0.00000000000E+00 0. -1.
         -4   -1    0    0    0  501 -0.00000000000E+00 -0.00000000000E+00 -0.10852833649E+03  0.10853576701E+03  0.12700000000E+01 0.  1.
         25    2    1    2    0    0 -0.87960794021E+01 -0.25428359591E+02 -0.67682819179E+02  0.14467192839E+03  0.12500012147E+03 0.  0.
    9000005    1    3    3    0    0 -0.66909725174E+02 -0.15839217409E+02 -0.32526352411E+02  0.76070728485E+02  0.10000000000E+01 0.  0.
    9000005    1    3    3    0    0  0.58113645772E+02 -0.95891421817E+01 -0.35156466768E+02  0.68601199905E+02  0.10000000000E+01 0.  0.
         -4    1    1    2    0  502  0.87960794021E+01  0.25428359591E+02  0.74681905620E+02  0.79391261556E+02  0.12700000000E+01 0. -1.
<mgrwt>
<rscale>  1 0.12786322E+03</rscale>
<asrwt>0</asrwt>
<pdfrwt beam="1">  1       21 0.17773450E-01 0.12786322E+03</pdfrwt>
<pdfrwt beam="2">  1       -4 0.16697776E-01 0.12786322E+03</pdfrwt>
<totfact> 0.36166176E+04</totfact>
</mgrwt>
</event>
<event>
 6    4  0.3189516E-003  0.1283144E+03  0.7818608E-02  0.1229978E+00
         21   -1    0    0  501  502  0.00000000000E+00  0.00000000000E+00  0.64638747667E+02  0.64638747667E+02  0.00000000000E+00 0. -1.
          4   -1    0    0  502    0 -0.00000000000E+00 -0.00000000000E+00 -0.15993590372E+03  0.15994094597E+03  0.12700000000E+01 0.  1.
         25    2    1    2    0    0 -0.23566653174E+01  0.28887539754E+02 -0.12773934752E+03  0.18105783118E+03  0.12499821399E+03 0.  0.
    9000005    1    3    3    0    0 -0.42232049387E+02  0.46002748192E+02 -0.12228535639E+03  0.13731171554E+03  0.10000000000E+01 0.  0.
    9000005    1    3    3    0    0  0.39875384069E+02 -0.17115208438E+02 -0.54539911356E+01  0.43746115643E+02  0.10000000000E+01 0.  0.
          4    1    1    2  501    0  0.23566653174E+01 -0.28887539754E+02  0.32442191472E+02  0.43521862459E+02  0.12700000000E+01 0. -1.
<mgrwt>
<rscale>  1 0.12831445E+03</rscale>
<asrwt>0</asrwt>
<pdfrwt beam="1">  1       21 0.99444228E-02 0.12831445E+03</pdfrwt>
<pdfrwt beam="2">  1        4 0.24606871E-01 0.12831445E+03</pdfrwt>
<totfact> 0.50795735E+04</totfact>
</mgrwt>
</event>
<event>
 6    4  0.3189516E-003  0.1443722E+03  0.7818608E-02  0.1207564E+00
         21   -1    0    0  501  502  0.00000000000E+00  0.00000000000E+00  0.69801748808E+02  0.69801748808E+02  0.00000000000E+00 0. -1.
          4   -1    0    0  502    0 -0.00000000000E+00 -0.00000000000E+00 -0.16847859205E+03  0.16848337865E+03  0.12700000000E+01 0. -1.
         25    2    1    2    0    0 -0.39700937333E+02 -0.60347495784E+02 -0.60075721356E+02  0.15637270969E+03  0.12500138946E+03 0.  0.
    9000005    1    3    3    0    0  0.16055247145E+02 -0.15853472514E+02 -0.79327646731E+02  0.82480173906E+02  0.10000000000E+01 0.  0.
    9000005    1    3    3    0    0 -0.55756184478E+02 -0.44494023270E+02  0.19251925375E+02  0.73892535786E+02  0.10000000000E+01 0.  0.
          4    1    1    2  501    0  0.39700937333E+02  0.60347495784E+02 -0.38601121889E+02  0.81912417762E+02  0.12700000000E+01 0.  1.
<mgrwt>
<rscale>  1 0.14437220E+03</rscale>
<asrwt>0</asrwt>
<pdfrwt beam="1">  1       21 0.10738731E-01 0.14437220E+03</pdfrwt>
<pdfrwt beam="2">  1        4 0.25921040E-01 0.14437220E+03</pdfrwt>
<totfact> 0.40885792E+04</totfact>
</mgrwt>
</event>
<event>
 6    4  0.3189516E-003  0.1350963E+03  0.7818608E-02  0.1220084E+00
         21   -1    0    0  501  502  0.00000000000E+00  0.00000000000E+00  0.65455434600E+02  0.65455434600E+02  0.00000000000E+00 0. -1.
          4   -1    0    0  502    0 -0.00000000000E+00 -0.00000000000E+00 -0.16372384524E+03  0.16372877084E+03  0.12700000000E+01 0.  1.
         25    2    1    2    0    0 -0.44072419350E+02 -0.26158544995E+02 -0.11269169062E+03  0.17592736054E+03  0.12499748568E+03 0.  0.
    9000005    1    3    3    0    0 -0.76852680261E+02 -0.33506700189E+02 -0.11490785088E+03  0.14224572969E+03  0.10000000000E+01 0.  0.
    9000005    1    3    3    0    0  0.32780260910E+02  0.73481551937E+01  0.22161602651E+01  0.33681630845E+02  0.10000000000E+01 0.  0.
          4    1    1    2  501    0  0.44072419350E+02  0.26158544995E+02  0.14423279978E+02  0.53256844903E+02  0.12700000000E+01 0. -1.
<mgrwt>
<rscale>  1 0.13509633E+03</rscale>
<asrwt>0</asrwt>
<pdfrwt beam="1">  1       21 0.10070067E-01 0.13509633E+03</pdfrwt>
<pdfrwt beam="2">  1        4 0.25189610E-01 0.13509633E+03</pdfrwt>
<totfact> 0.47898884E+04</totfact>
</mgrwt>
</event>
<event>
 6    4  0.3189516E-003  0.1404352E+03  0.7818608E-02  0.1212745E+00
         21   -1    0    0  501  502  0.00000000000E+00  0.00000000000E+00  0.17125155581E+03  0.17125155581E+03  0.00000000000E+00 0.  1.
          4   -1    0    0  502    0 -0.00000000000E+00 -0.00000000000E+00 -0.14400746667E+03  0.14401306662E+03  0.12700000000E+01 0. -1.
         25    2    1    2    0    0  0.34463171115E+02 -0.53938743722E+02 -0.10028601154E+03  0.17256690796E+03  0.12499982150E+03 0.  0.
    9000005    1    3    3    0    0  0.39598177311E+02  0.24819114435E+02 -0.23777701912E+01  0.46804464304E+02  0.10000000000E+01 0.  0.
    9000005    1    3    3    0    0 -0.51350061956E+01 -0.78757858157E+02 -0.97908241348E+02  0.12576244365E+03  0.10000000000E+01 0.  0.
          4    1    1    2  501    0 -0.34463171115E+02  0.53938743722E+02  0.12753010068E+03  0.14269771448E+03  0.12700000000E+01 0.  1.
<mgrwt>
<rscale>  1 0.14043523E+03</rscale>
<asrwt>0</asrwt>
<pdfrwt beam="1">  1       21 0.26346393E-01 0.14043523E+03</pdfrwt>
<pdfrwt beam="2">  1        4 0.22155788E-01 0.14043523E+03</pdfrwt>
<totfact> 0.10553210E+04</totfact>
</mgrwt>
</event>
<event>
 6    4  0.3189516E-003  0.1527728E+03  0.7818608E-02  0.1197107E+00
         21   -1    0    0  501  502  0.00000000000E+00  0.00000000000E+00  0.11670292116E+03  0.11670292116E+03  0.00000000000E+00 0. -1.
          4   -1    0    0  502    0 -0.00000000000E+00 -0.00000000000E+00 -0.13299375699E+03  0.13299982067E+03  0.12700000000E+01 0.  1.
         25    2    1    2    0    0  0.33453264739E+02  0.81213785177E+02 -0.41508940920E+02  0.15831146463E+03  0.12499891132E+03 0.  0.
    9000005    1    3    3    0    0  0.29040779280E+02  0.11480983421E+03 -0.37225001771E+02  0.12414252152E+03  0.10000000000E+01 0.  0.
    9000005    1    3    3    0    0  0.44124854595E+01 -0.33596049031E+02 -0.42839391487E+01  0.34168943107E+02  0.10000000000E+01 0.  0.
          4    1    1    2  501    0 -0.33453264739E+02 -0.81213785177E+02  0.25218105086E+02  0.91391277202E+02  0.12700000000E+01 0. -1.
<mgrwt>
<rscale>  1 0.15277280E+03</rscale>
<asrwt>0</asrwt>
<pdfrwt beam="1">  1       21 0.17954295E-01 0.15277280E+03</pdfrwt>
<pdfrwt beam="2">  1        4 0.20461576E-01 0.15277280E+03</pdfrwt>
<totfact> 0.25166616E+04</totfact>
</mgrwt>
</event>
<event>
 6    4  0.3189516E-003  0.1292044E+03  0.7818608E-02  0.1228641E+00
         21   -1    0    0  501  502  0.00000000000E+00  0.00000000000E+00  0.47796644732E+03  0.47796644732E+03  0.00000000000E+00 0. -1.
         -4   -1    0    0    0  501 -0.00000000000E+00 -0.00000000000E+00 -0.39714968593E+02  0.39735269350E+02  0.12700000000E+01 0. -1.
         25    2    1    2    0    0  0.93799626781E+01 -0.31328622040E+02  0.67998917048E+02  0.14600555233E+03  0.12499720929E+03 0.  0.
    9000005    1    3    3    0    0 -0.49448559009E+02 -0.27050131594E+02  0.51900829019E+00  0.56374985383E+02  0.10000000000E+01 0.  0.
    9000005    1    3    3    0    0  0.58828521688E+02 -0.42784904461E+01  0.67479908758E+02  0.89630566943E+02  0.10000000000E+01 0.  0.
         -4    1    1    2    0  502 -0.93799626781E+01  0.31328622040E+02  0.37025256168E+03  0.37169616435E+03  0.12700000000E+01 0.  1.
<mgrwt>
<rscale>  1 0.12920437E+03</rscale>
<asrwt>0</asrwt>
<pdfrwt beam="1">  1       21 0.73533295E-01 0.12920437E+03</pdfrwt>
<pdfrwt beam="2">  1       -4 0.61116869E-02 0.12920437E+03</pdfrwt>
<totfact> 0.11759708E+04</totfact>
</mgrwt>
</event>
<event>
 6    4  0.3189516E-003  0.1275549E+03  0.7818608E-02  0.1231130E+00
         21   -1    0    0  501  502  0.00000000000E+00  0.00000000000E+00  0.50167555507E+03  0.50167555507E+03  0.00000000000E+00 0. -1.
          4   -1    0    0  502    0 -0.00000000000E+00 -0.00000000000E+00 -0.17951451818E+02  0.17996319690E+02  0.12700000000E+01 0. -1.
         25    2    1    2    0    0 -0.25082203207E+02  0.42343210102E+01  0.21683561240E+03  0.25157091273E+03  0.12499277953E+03 0.  0.
    9000005    1    3    3    0    0 -0.16216390506E+02  0.49602981507E+02  0.19223709247E+03  0.19919720585E+03  0.10000000000E+01 0.  0.
    9000005    1    3    3    0    0 -0.88658127011E+01 -0.45368660497E+02  0.24598519931E+02  0.52373706885E+02  0.10000000000E+01 0.  0.
          4    1    1    2  501    0  0.25082203207E+02 -0.42343210102E+01  0.26688849084E+03  0.26810096202E+03  0.12700000000E+01 0.  1.
<mgrwt>
<rscale>  1 0.12755486E+03</rscale>
<asrwt>0</asrwt>
<pdfrwt beam="1">  1       21 0.77180844E-01 0.12755486E+03</pdfrwt>
<pdfrwt beam="2">  1        4 0.27653372E-02 0.12755486E+03</pdfrwt>
<totfact> 0.37242185E+04</totfact>
</mgrwt>
</event>
<event>
 6    4  0.3189516E-003  0.1265951E+03  0.7818608E-02  0.1232597E+00
         -4   -1    0    0    0  501 -0.00000000000E+00  0.00000000000E+00  0.27399937051E+01  0.30200108450E+01  0.12700000000E+01 0.  1.
         21   -1    0    0  501  502  0.00000000000E+00 -0.00000000000E+00 -0.27139506856E+04  0.27139506856E+04  0.00000000000E+00 0. -1.
         25    2    1    2    0    0  0.20009404447E+02 -0.14508169687E+01 -0.14274493636E+04  0.14330519910E+04  0.12499536902E+03 0.  0.
    9000005    1    3    3    0    0 -0.32872995805E+02  0.29942072536E+02 -0.24502065091E+03  0.24902465929E+03  0.10000000000E+01 0.  0.
    9000005    1    3    3    0    0  0.52882400252E+02 -0.31392889504E+02 -0.11824287127E+04  0.11840273317E+04  0.10000000000E+01 0.  0.
         -4    1    1    2    0  502 -0.20009404447E+02  0.14508169687E+01 -0.12837613284E+04  0.12839187055E+04  0.12700000000E+01 0. -1.
<mgrwt>
<rscale>  1 0.12659512E+03</rscale>
<asrwt>0</asrwt>
<pdfrwt beam="2">  1       21 0.41752896E+00 0.12659512E+03</pdfrwt>
<pdfrwt beam="1">  1       -4 0.44310217E-03 0.12659512E+03</pdfrwt>
<totfact> 0.29847533E+03</totfact>
</mgrwt>
</event>
<event>
 6    4  0.3189516E-003  0.1270797E+03  0.7818608E-02  0.1231854E+00
         -4   -1    0    0    0  501 -0.00000000000E+00  0.00000000000E+00  0.40212599466E+03  0.40212800012E+03  0.12700000000E+01 0.  1.
         21   -1    0    0  501  502  0.00000000000E+00 -0.00000000000E+00 -0.46483345391E+02  0.46483345391E+02  0.00000000000E+00 0. -1.
         25    2    1    2    0    0  0.13229916283E+02 -0.18694414465E+02  0.38837782139E+03  0.40863990307E+03  0.12499890566E+03 0.  0.
    9000005    1    3    3    0    0 -0.21556484633E+02  0.32151046565E+02  0.43232631748E+02  0.58038196671E+02  0.10000000000E+01 0.  0.
    9000005    1    3    3    0    0  0.34786400916E+02 -0.50845461030E+02  0.34514518965E+03  0.35060170640E+03  0.10000000000E+01 0.  0.
         -4    1    1    2    0  502 -0.13229916283E+02  0.18694414465E+02 -0.32735172122E+02  0.39971442442E+02  0.12700000000E+01 0. -1.
<mgrwt>
<rscale>  1 0.12707965E+03</rscale>
<asrwt>0</asrwt>
<pdfrwt beam="2">  1       21 0.71512842E-02 0.12707965E+03</pdfrwt>
<pdfrwt beam="1">  1       -4 0.61867024E-01 0.12707965E+03</pdfrwt>
<totfact> 0.14684483E+04</totfact>
</mgrwt>
</event>
<event>
 6    4  0.3189516E-003  0.1382272E+03  0.7818608E-02  0.1215735E+00
         21   -1    0    0  501  502  0.00000000000E+00  0.00000000000E+00  0.67314406922E+03  0.67314406922E+03  0.00000000000E+00 0.  1.
         -4   -1    0    0    0  501 -0.00000000000E+00 -0.00000000000E+00 -0.27488067014E+02  0.27517389560E+02  0.12700000000E+01 0.  1.
         25    2    1    2    0    0 -0.58993186214E+02 -0.10067444332E+01  0.16002887758E+03  0.21146157466E+03  0.12500218535E+03 0.  0.
    9000005    1    3    3    0    0 -0.78172103431E+02 -0.23104405879E+02  0.45727497889E+02  0.93470291478E+02  0.10000000000E+01 0.  0.
    9000005    1    3    3    0    0  0.19178917217E+02  0.22097661445E+02  0.11430137969E+03  0.11799128318E+03  0.10000000000E+01 0.  0.
         -4    1    1    2    0  502  0.58993186214E+02  0.10067444332E+01  0.48562712463E+03  0.48919988412E+03  0.12700000000E+01 0. -1.
<mgrwt>
<rscale>  1 0.13822719E+03</rscale>
<asrwt>0</asrwt>
<pdfrwt beam="1">  1       21 0.10356061E+00 0.13822719E+03</pdfrwt>
<pdfrwt beam="2">  1       -4 0.42312816E-02 0.13822719E+03</pdfrwt>
<totfact> 0.97845245E+03</totfact>
</mgrwt>
</event>
<event>
 6    4  0.3189516E-003  0.1280424E+03  0.7818608E-02  0.1230390E+00
         21   -1    0    0  501  502  0.00000000000E+00  0.00000000000E+00  0.37158939032E+03  0.37158939032E+03  0.00000000000E+00 0.  1.
          4   -1    0    0  502    0 -0.00000000000E+00 -0.00000000000E+00 -0.16683446249E+02  0.16731714758E+02  0.12700000000E+01 0.  1.
         25    2    1    2    0    0  0.24127803714E+02  0.13696095834E+02  0.26666296677E+03  0.29581072784E+03  0.12500045963E+03 0.  0.
    9000005    1    3    3    0    0 -0.36624963939E+02 -0.33802774025E+02  0.86534665922E+02  0.99866230136E+02  0.10000000000E+01 0.  0.
    9000005    1    3    3    0    0  0.60752767653E+02  0.47498869860E+02  0.18012830084E+03  0.19594449770E+03  0.10000000000E+01 0.  0.
          4    1    1    2  501    0 -0.24127803714E+02 -0.13696095834E+02  0.88242977309E+02  0.92510377242E+02  0.12700000000E+01 0. -1.
<mgrwt>
<rscale>  1 0.12804237E+03</rscale>
<asrwt>0</asrwt>
<pdfrwt beam="1">  1       21 0.57167593E-01 0.12804237E+03</pdfrwt>
<pdfrwt beam="2">  1        4 0.25705642E-02 0.12804237E+03</pdfrwt>
<totfact> 0.79847720E+04</totfact>
</mgrwt>
</event>
<event>
 6    4  0.3189516E-003  0.1294643E+03  0.7818608E-02  0.1228253E+00
         -4   -1    0    0    0  501 -0.00000000000E+00  0.00000000000E+00  0.35102138264E+02  0.35125105134E+02  0.12700000000E+01 0.  1.
         21   -1    0    0  501  502  0.00000000000E+00 -0.00000000000E+00 -0.23683453696E+03  0.23683453696E+03  0.00000000000E+00 0.  1.
         25    2    1    2    0    0 -0.25149016310E+02 -0.22464222315E+02 -0.96565099688E+02  0.16151106589E+03  0.12499556640E+03 0.  0.
    9000005    1    3    3    0    0 -0.28702827173E+02  0.10588698898E+02  0.22434645821E+02  0.37951102292E+02  0.10000000000E+01 0.  0.
    9000005    1    3    3    0    0  0.35538108624E+01 -0.33052921213E+02 -0.11899974551E+03  0.12355996360E+03  0.10000000000E+01 0.  0.
         -4    1    1    2    0  502  0.25149016310E+02  0.22464222315E+02 -0.10516729901E+03  0.11044857621E+03  0.12700000000E+01 0. -1.
<mgrwt>
<rscale>  1 0.12946430E+03</rscale>
<asrwt>0</asrwt>
<pdfrwt beam="2">  1       21 0.36436084E-01 0.12946430E+03</pdfrwt>
<pdfrwt beam="1">  1       -4 0.54023573E-02 0.12946430E+03</pdfrwt>
<totfact> 0.61818068E+04</totfact>
</mgrwt>
</event>
<event>
 6    4  0.3189516E-003  0.1280466E+03  0.7818608E-02  0.1230383E+00
          4   -1    0    0  502    0 -0.00000000000E+00  0.00000000000E+00  0.86590168688E+01  0.87516554510E+01  0.12700000000E+01 0.  1.
         21   -1    0    0  501  502  0.00000000000E+00 -0.00000000000E+00 -0.81559516179E+03  0.81559516179E+03  0.00000000000E+00 0.  1.
         25    2    1    2    0    0  0.27775942787E+02  0.41378290729E-01 -0.75147438220E+03  0.76230550251E+03  0.12499770933E+03 0.  0.
    9000005    1    3    3    0    0 -0.43281329687E+02  0.28024962215E+02 -0.28830233671E+03  0.29287865979E+03  0.10000000000E+01 0.  0.
    9000005    1    3    3    0    0  0.71057272474E+02 -0.27983583924E+02 -0.46317204549E+03  0.46942684272E+03  0.10000000000E+01 0.  0.
          4    1    1    2  501    0 -0.27775942787E+02 -0.41378290729E-01 -0.55461762715E+02  0.62041314729E+02  0.12700000000E+01 0. -1.
<mgrwt>
<rscale>  1 0.12804660E+03</rscale>
<asrwt>0</asrwt>
<pdfrwt beam="2">  1       21 0.12547618E+00 0.12804660E+03</pdfrwt>
<pdfrwt beam="1">  1        4 0.13393585E-02 0.12804660E+03</pdfrwt>
<totfact> 0.36511168E+04</totfact>
</mgrwt>
</event>
<event>
 6    4  0.3189516E-003  0.1272237E+03  0.7818608E-02  0.1231634E+00
         21   -1    0    0  501  502  0.00000000000E+00  0.00000000000E+00  0.45396012901E+02  0.45396012901E+02  0.00000000000E+00 0.  1.
          4   -1    0    0  502    0 -0.00000000000E+00 -0.00000000000E+00 -0.12550547159E+03  0.12551189704E+03  0.12700000000E+01 0.  1.
         25    2    1    2    0    0 -0.40952038776E+01 -0.23346575211E+02 -0.66813348896E+02  0.14370069207E+03  0.12499612811E+03 0.  0.
    9000005    1    3    3    0    0 -0.33572331550E+02 -0.19943393668E+02 -0.95027761712E+02  0.10274296031E+03  0.10000000000E+01 0.  0.
    9000005    1    3    3    0    0  0.29477127673E+02 -0.34031815432E+01  0.28214412816E+02  0.40957731761E+02  0.10000000000E+01 0.  0.
          4    1    1    2  501    0  0.40952038776E+01  0.23346575211E+02 -0.13296109792E+02  0.27207217875E+02  0.12700000000E+01 0. -1.
<mgrwt>
<rscale>  1 0.12722368E+03</rscale>
<asrwt>0</asrwt>
<pdfrwt beam="1">  1       21 0.69840019E-02 0.12722368E+03</pdfrwt>
<pdfrwt beam="2">  1        4 0.19310395E-01 0.12722368E+03</pdfrwt>
<totfact> 0.14507045E+05</totfact>
</mgrwt>
</event>
<event>
 6    4  0.3189516E-003  0.1273941E+03  0.7818608E-02  0.1231374E+00
         21   -1    0    0  501  502  0.00000000000E+00  0.00000000000E+00  0.14885467328E+02  0.14885467328E+02  0.00000000000E+00 0.  1.
         -4   -1    0    0    0  501 -0.00000000000E+00 -0.00000000000E+00 -0.40717208610E+03  0.40717406671E+03  0.12700000000E+01 0.  1.
         25    2    1    2    0    0  0.18642604107E+02 -0.16087909800E+02 -0.35668924131E+03  0.37875648897E+03  0.12499158188E+03 0.  0.
    9000005    1    3    3    0    0 -0.14065553241E+02 -0.57894847631E+02 -0.98145925004E+02  0.11481844697E+03  0.10000000000E+01 0.  0.
    9000005    1    3    3    0    0  0.32708157348E+02  0.41806937830E+02 -0.25854331630E+03  0.26393804200E+03  0.10000000000E+01 0.  0.
         -4    1    1    2    0  502 -0.18642604107E+02  0.16087909800E+02 -0.35597377464E+02  0.43303045066E+02  0.12700000000E+01 0. -1.
<mgrwt>
<rscale>  1 0.12739412E+03</rscale>
<asrwt>0</asrwt>
<pdfrwt beam="1">  1       21 0.22900720E-02 0.12739412E+03</pdfrwt>
<pdfrwt beam="2">  1       -4 0.62646177E-01 0.12739412E+03</pdfrwt>
<totfact> 0.95080443E+04</totfact>
</mgrwt>
</event>
<event>
 6    4  0.3189516E-003  0.1423052E+03  0.7818608E-02  0.1210260E+00
         21   -1    0    0  501  502  0.00000000000E+00  0.00000000000E+00  0.53886552963E+02  0.53886552963E+02  0.00000000000E+00 0.  1.
          4   -1    0    0  502    0 -0.00000000000E+00 -0.00000000000E+00 -0.23117586348E+03  0.23117935192E+03  0.12700000000E+01 0. -1.
         25    2    1    2    0    0 -0.64547700590E+02  0.21422895006E+02 -0.16147057578E+03  0.21522901384E+03  0.12500174188E+03 0.  0.
    9000005    1    3    3    0    0  0.21566931692E+02 -0.13909413343E+02  0.33880768525E+01  0.25905277202E+02  0.10000000000E+01 0.  0.
    9000005    1    3    3    0    0 -0.86114632282E+02  0.35332308349E+02 -0.16485865263E+03  0.18932373664E+03  0.10000000000E+01 0.  0.
          4    1    1    2  501    0  0.64547700590E+02 -0.21422895006E+02 -0.15818734732E+02  0.69836891042E+02  0.12700000000E+01 0.  1.
<mgrwt>
<rscale>  1 0.14230524E+03</rscale>
<asrwt>0</asrwt>
<pdfrwt beam="1">  1       21 0.82902387E-02 0.14230524E+03</pdfrwt>
<pdfrwt beam="2">  1        4 0.35566938E-01 0.14230524E+03</pdfrwt>
<totfact> 0.35220199E+04</totfact>
</mgrwt>
</event>
<event>
 6    4  0.3189516E-003  0.1274830E+03  0.7818608E-02  0.1231239E+00
          4   -1    0    0  502    0 -0.00000000000E+00  0.00000000000E+00  0.31581641076E+03  0.31581896429E+03  0.12700000000E+01 0.  1.
         21   -1    0    0  501  502  0.00000000000E+00 -0.00000000000E+00 -0.56913485012E+02  0.56913485012E+02  0.00000000000E+00 0. -1.
         25    2    1    2    0    0  0.17625026182E+02 -0.17757869717E+02  0.29923168737E+03  0.32525608256E+03  0.12500373207E+03 0.  0.
    9000005    1    3    3    0    0  0.20419097371E+02  0.52311167689E+02  0.15538447138E+03  0.16522327847E+03  0.10000000000E+01 0.  0.
    9000005    1    3    3    0    0 -0.27940711897E+01 -0.70069037406E+02  0.14384721599E+03  0.16003280409E+03  0.10000000000E+01 0.  0.
          4    1    1    2  501    0 -0.17625026182E+02  0.17757869717E+02 -0.40328761623E+02  0.47476366740E+02  0.12700000000E+01 0. -1.
<mgrwt>
<rscale>  1 0.12748300E+03</rscale>
<asrwt>0</asrwt>
<pdfrwt beam="2">  1       21 0.87559210E-02 0.12748300E+03</pdfrwt>
<pdfrwt beam="1">  1        4 0.48588426E-01 0.12748300E+03</pdfrwt>
<totfact> 0.17073032E+04</totfact>
</mgrwt>
</event>
<event>
 6    4  0.3189516E-003  0.1266983E+03  0.7818608E-02  0.1232439E+00
         21   -1    0    0  501  502  0.00000000000E+00  0.00000000000E+00  0.49457724492E+03  0.49457724492E+03  0.00000000000E+00 0.  1.
          4   -1    0    0  502    0 -0.00000000000E+00 -0.00000000000E+00 -0.24381507215E+02  0.24414561107E+02  0.12700000000E+01 0.  1.
         25    2    1    2    0    0  0.79410444064E+01 -0.19083299767E+02  0.14264864679E+03  0.19079073628E+03  0.12500094441E+03 0.  0.
    9000005    1    3    3    0    0 -0.19932253938E+02 -0.67014117149E+02  0.65737364757E+02  0.95971807160E+02  0.10000000000E+01 0.  0.
    9000005    1    3    3    0    0  0.27873298344E+02  0.47930817381E+02  0.76911282029E+02  0.94818929116E+02  0.10000000000E+01 0.  0.
          4    1    1    2  501    0 -0.79410444064E+01  0.19083299767E+02  0.32754709092E+03  0.32820106975E+03  0.12700000000E+01 0. -1.
<mgrwt>
<rscale>  1 0.12669834E+03</rscale>
<asrwt>0</asrwt>
<pdfrwt beam="1">  1       21 0.76088799E-01 0.12669834E+03</pdfrwt>
<pdfrwt beam="2">  1        4 0.37536695E-02 0.12669834E+03</pdfrwt>
<totfact> 0.23777862E+04</totfact>
</mgrwt>
</event>
<event>
 6    4  0.3189516E-003  0.1333197E+03  0.7818608E-02  0.1222611E+00
          4   -1    0    0  502    0 -0.00000000000E+00  0.00000000000E+00  0.34828510768E+02  0.34851657956E+02  0.12700000000E+01 0. -1.
         21   -1    0    0  501  502  0.00000000000E+00 -0.00000000000E+00 -0.33669677983E+03  0.33669677983E+03  0.00000000000E+00 0. -1.
         25    2    1    2    0    0 -0.30638701205E+02 -0.34790896116E+02 -0.10616804087E+03  0.17042825312E+03  0.12500000039E+03 0.  0.
    9000005    1    3    3    0    0  0.43852349865E+02 -0.37459968843E+02 -0.57219313687E+02  0.81248555145E+02  0.10000000000E+01 0.  0.
    9000005    1    3    3    0    0 -0.74491051070E+02  0.26690727272E+01 -0.48948727184E+02  0.89179697979E+02  0.10000000000E+01 0.  0.
          4    1    1    2  501    0  0.30638701205E+02  0.34790896116E+02 -0.19570022819E+03  0.20112018466E+03  0.12700000000E+01 0.  1.
<mgrwt>
<rscale>  1 0.13331968E+03</rscale>
<asrwt>0</asrwt>
<pdfrwt beam="2">  1       21 0.51799503E-01 0.13331968E+03</pdfrwt>
<pdfrwt beam="1">  1        4 0.53601973E-02 0.13331968E+03</pdfrwt>
<totfact> 0.30817022E+04</totfact>
</mgrwt>
</event>
<event>
 6    4  0.3189516E-003  0.1282723E+03  0.7818608E-02  0.1230042E+00
         -4   -1    0    0    0  501 -0.00000000000E+00  0.00000000000E+00  0.29006695093E+02  0.29034483984E+02  0.12700000000E+01 0. -1.
         21   -1    0    0  501  502  0.00000000000E+00 -0.00000000000E+00 -0.25714128490E+03  0.25714128490E+03  0.00000000000E+00 0. -1.
         25    2    1    2    0    0 -0.17397895945E+02 -0.22933405981E+02 -0.12505171585E+03  0.17914157016E+03  0.12500057052E+03 0.  0.
    9000005    1    3    3    0    0  0.93813476182E+01  0.28404927543E+02 -0.11688576627E+03  0.12065708412E+03  0.10000000000E+01 0.  0.
    9000005    1    3    3    0    0 -0.26779243564E+02 -0.51338333525E+02 -0.81659495815E+01  0.58484486041E+02  0.10000000000E+01 0.  0.
         -4    1    1    2    0  502  0.17397895945E+02  0.22933405981E+02 -0.10308287396E+03  0.10703419872E+03  0.12700000000E+01 0.  1.
<mgrwt>
<rscale>  1 0.12827225E+03</rscale>
<asrwt>0</asrwt>
<pdfrwt beam="2">  1       21 0.39560198E-01 0.12827225E+03</pdfrwt>
<pdfrwt beam="1">  1       -4 0.44649473E-02 0.12827225E+03</pdfrwt>
<totfact> 0.71206653E+04</totfact>
</mgrwt>
</event>
<event>
 6    4  0.3189516E-003  0.1678172E+03  0.7818608E-02  0.1180144E+00
          4   -1    0    0  502    0 -0.00000000000E+00  0.00000000000E+00  0.50397552244E+03  0.50397712261E+03  0.12700000000E+01 0.  1.
         21   -1    0    0  501  502  0.00000000000E+00 -0.00000000000E+00 -0.42366682434E+02  0.42366682434E+02  0.00000000000E+00 0. -1.
         25    2    1    2    0    0  0.11912736923E+02 -0.11133794985E+03  0.35045340182E+03  0.38856168719E+03  0.12499818211E+03 0.  0.
    9000005    1    3    3    0    0 -0.26643239293E+02 -0.11410281378E+03  0.18765851995E+03  0.22123750681E+03  0.10000000000E+01 0.  0.
    9000005    1    3    3    0    0  0.38555976216E+02  0.27648639387E+01  0.16279488187E+03  0.16732418038E+03  0.10000000000E+01 0.  0.
          4    1    1    2  501    0 -0.11912736923E+02  0.11133794985E+03  0.11115543818E+03  0.15778211785E+03  0.12700000000E+01 0. -1.
<mgrwt>
<rscale>  1 0.16781716E+03</rscale>
<asrwt>0</asrwt>
<pdfrwt beam="2">  1       21 0.65179515E-02 0.16781716E+03</pdfrwt>
<pdfrwt beam="1">  1        4 0.77536279E-01 0.16781716E+03</pdfrwt>
<totfact> 0.10846613E+04</totfact>
</mgrwt>
</event>
<event>
 6    4  0.3189516E-003  0.1267601E+03  0.7818608E-02  0.1232344E+00
         -4   -1    0    0    0  501 -0.00000000000E+00  0.00000000000E+00  0.15964900750E+03  0.15965405881E+03  0.12700000000E+01 0.  1.
         21   -1    0    0  501  502  0.00000000000E+00 -0.00000000000E+00 -0.73350331933E+02  0.73350331933E+02  0.00000000000E+00 0. -1.
         25    2    1    2    0    0 -0.48996293181E+01 -0.20472091528E+02  0.13179345322E+03  0.18285959448E+03  0.12500001633E+03 0.  0.
    9000005    1    3    3    0    0  0.32544967007E+02 -0.43303642237E+02  0.12285321079E+02  0.55554562572E+02  0.10000000000E+01 0.  0.
    9000005    1    3    3    0    0 -0.37444596325E+02  0.22831550709E+02  0.11950813214E+03  0.12730503191E+03  0.10000000000E+01 0.  0.
         -4    1    1    2    0  502  0.48996293181E+01  0.20472091528E+02 -0.45494777652E+02  0.50144796266E+02  0.12700000000E+01 0. -1.
<mgrwt>
<rscale>  1 0.12676008E+03</rscale>
<asrwt>0</asrwt>
<pdfrwt beam="2">  1       21 0.11284667E-01 0.12676008E+03</pdfrwt>
<pdfrwt beam="1">  1       -4 0.24562620E-01 0.12676008E+03</pdfrwt>
<totfact> 0.40756424E+04</totfact>
</mgrwt>
</event>
<event>
 6    4  0.3189516E-003  0.1336065E+03  0.7818608E-02  0.1222200E+00
         -4   -1    0    0    0  501 -0.00000000000E+00  0.00000000000E+00  0.18225343259E+02  0.18269538498E+02  0.12700000000E+01 0. -1.
         21   -1    0    0  501  502  0.00000000000E+00 -0.00000000000E+00 -0.80331968976E+03  0.80331968976E+03  0.00000000000E+00 0. -1.
         25    2    1    2    0    0 -0.36543078642E+02  0.29977383976E+02 -0.24193018620E+03  0.27637096180E+03  0.12496660907E+03 0.  0.
    9000005    1    3    3    0    0 -0.74968548551E+02  0.22004797017E+02 -0.21501750163E+03  0.22877504316E+03  0.10000000000E+01 0.  0.
    9000005    1    3    3    0    0  0.38425469909E+02  0.79725869585E+01 -0.26912684568E+02  0.47595918640E+02  0.10000000000E+01 0.  0.
         -4    1    1    2    0  502  0.36543078642E+02 -0.29977383976E+02 -0.54316416030E+03  0.54521826646E+03  0.12700000000E+01 0.  1.
<mgrwt>
<rscale>  1 0.13360649E+03</rscale>
<asrwt>0</asrwt>
<pdfrwt beam="2">  1       21 0.12358763E+00 0.13360649E+03</pdfrwt>
<pdfrwt beam="1">  1       -4 0.28073761E-02 0.13360649E+03</pdfrwt>
<totfact> 0.12179318E+04</totfact>
</mgrwt>
</event>
<event>
 6    4  0.3189516E-003  0.1339800E+03  0.7818608E-02  0.1221667E+00
         -4   -1    0    0    0  501 -0.00000000000E+00  0.00000000000E+00  0.80031048316E+02  0.80041124396E+02  0.12700000000E+01 0. -1.
         21   -1    0    0  501  502  0.00000000000E+00 -0.00000000000E+00 -0.11883543734E+03  0.11883543734E+03  0.00000000000E+00 0.  1.
         25    2    1    2    0    0  0.23732992452E+02 -0.41935665721E+02  0.45331750362E+01  0.13405671640E+03  0.12501519326E+03 0.  0.
    9000005    1    3    3    0    0 -0.25894974371E+02  0.94797311537E+01 -0.40924344926E+02  0.49358049070E+02  0.10000000000E+01 0.  0.
    9000005    1    3    3    0    0  0.49627966823E+02 -0.51415396875E+02  0.45457519962E+02  0.84698667332E+02  0.10000000000E+01 0.  0.
         -4    1    1    2    0  502 -0.23732992452E+02  0.41935665721E+02 -0.43337564055E+02  0.64819845329E+02  0.12700000000E+01 0.  1.
<mgrwt>
<rscale>  1 0.13398005E+03</rscale>
<asrwt>0</asrwt>
<pdfrwt beam="2">  1       21 0.18282375E-01 0.13398005E+03</pdfrwt>
<pdfrwt beam="1">  1       -4 0.12313766E-01 0.13398005E+03</pdfrwt>
<totfact> 0.58626075E+04</totfact>
</mgrwt>
</event>
<event>
 6    4  0.3189516E-003  0.1478519E+03  0.7818608E-02  0.1203138E+00
          4   -1    0    0  502    0 -0.00000000000E+00  0.00000000000E+00  0.13630377534E+04  0.13630383450E+04  0.12700000000E+01 0.  1.
         21   -1    0    0  501  502  0.00000000000E+00 -0.00000000000E+00 -0.15752524432E+02  0.15752524432E+02  0.00000000000E+00 0. -1.
         25    2    1    2    0    0 -0.29720422980E+02  0.73153803476E+02  0.12204983085E+04  0.12294211316E+04  0.12500166066E+03 0.  0.
    9000005    1    3    3    0    0 -0.33985599148E+02  0.47226319432E+01  0.82468849746E+02  0.89327685408E+02  0.10000000000E+01 0.  0.
    9000005    1    3    3    0    0  0.42651761676E+01  0.68431171532E+02  0.11380294588E+04  0.11400934462E+04  0.10000000000E+01 0.  0.
          4    1    1    2  501    0  0.29720422980E+02 -0.73153803476E+02  0.12678692042E+03  0.14936973788E+03  0.12700000000E+01 0. -1.
<mgrwt>
<rscale>  1 0.14785195E+03</rscale>
<asrwt>0</asrwt>
<pdfrwt beam="2">  1       21 0.24234664E-02 0.14785195E+03</pdfrwt>
<pdfrwt beam="1">  1        4 0.20970201E+00 0.14785195E+03</pdfrwt>
<totfact> 0.47232000E+03</totfact>
</mgrwt>
</event>
<event>
 6    4  0.3189516E-003  0.1300710E+03  0.7818608E-02  0.1227350E+00
         -4   -1    0    0    0  501 -0.00000000000E+00  0.00000000000E+00  0.10694895889E+03  0.10695649914E+03  0.12700000000E+01 0. -1.
         21   -1    0    0  501  502  0.00000000000E+00 -0.00000000000E+00 -0.77850333360E+02  0.77850333360E+02  0.00000000000E+00 0. -1.
         25    2    1    2    0    0  0.33373200175E+02 -0.13386385781E+02  0.54225342585E+02  0.14092140639E+03  0.12500195673E+03 0.  0.
    9000005    1    3    3    0    0  0.76936230012E+02 -0.31068514268E+02  0.32430541385E+02  0.89090830515E+02  0.10000000000E+01 0.  0.
    9000005    1    3    3    0    0 -0.43563029838E+02  0.17682128488E+02  0.21794801200E+02  0.51830575878E+02  0.10000000000E+01 0.  0.
         -4    1    1    2    0  502 -0.33373200175E+02  0.13386385781E+02 -0.25126717056E+02  0.43885426102E+02  0.12700000000E+01 0.  1.
<mgrwt>
<rscale>  1 0.13007096E+03</rscale>
<asrwt>0</asrwt>
<pdfrwt beam="2">  1       21 0.11976974E-01 0.13007096E+03</pdfrwt>
<pdfrwt beam="1">  1       -4 0.16455063E-01 0.13007096E+03</pdfrwt>
<totfact> 0.75656231E+04</totfact>
</mgrwt>
</event>
<event>
 6    4  0.3189516E-003  0.1287527E+03  0.7818608E-02  0.1229318E+00
         21   -1    0    0  501  502  0.00000000000E+00  0.00000000000E+00  0.12652462546E+03  0.12652462546E+03  0.00000000000E+00 0. -1.
          4   -1    0    0  502    0 -0.00000000000E+00 -0.00000000000E+00 -0.59125165382E+02  0.59138803517E+02  0.12700000000E+01 0. -1.
         25    2    1    2    0    0  0.10970940386E+02  0.28856744248E+02  0.21805354340E+02  0.13058613239E+03  0.12499676505E+03 0.  0.
    9000005    1    3    3    0    0  0.65995600852E+02  0.32431483297E+02  0.10447553081E+02  0.74279013227E+02  0.10000000000E+01 0.  0.
    9000005    1    3    3    0    0 -0.55024660466E+02 -0.35747390489E+01  0.11357801259E+02  0.56307119160E+02  0.10000000000E+01 0.  0.
          4    1    1    2  501    0 -0.10970940386E+02 -0.28856744248E+02  0.45594105739E+02  0.55077296590E+02  0.12700000000E+01 0.  1.
<mgrwt>
<rscale>  1 0.12875273E+03</rscale>
<asrwt>0</asrwt>
<pdfrwt beam="1">  1       21 0.19465327E-01 0.12875273E+03</pdfrwt>
<pdfrwt beam="2">  1        4 0.90977187E-02 0.12875273E+03</pdfrwt>
<totfact> 0.86731959E+04</totfact>
</mgrwt>
</event>
<event>
 6    4  0.3189516E-003  0.1279769E+03  0.7818608E-02  0.1230489E+00
          4   -1    0    0  502    0 -0.00000000000E+00  0.00000000000E+00  0.15596739725E+03  0.15597256780E+03  0.12700000000E+01 0.  1.
         21   -1    0    0  501  502  0.00000000000E+00 -0.00000000000E+00 -0.49082409207E+03  0.49082409207E+03  0.00000000000E+00 0. -1.
         25    2    1    2    0    0 -0.76057497504E+01  0.26353593500E+02  0.12924373414E+03  0.18188464628E+03  0.12500288964E+03 0.  0.
    9000005    1    3    3    0    0  0.24260954753E+02 -0.40960305699E+02  0.25041755739E+02  0.53799907983E+02  0.10000000000E+01 0.  0.
    9000005    1    3    3    0    0 -0.31866704503E+02  0.67313899199E+02  0.10420197840E+03  0.12808473829E+03  0.10000000000E+01 0.  0.
          4    1    1    2  501    0  0.76057497504E+01 -0.26353593500E+02 -0.46410042896E+03  0.46491201359E+03  0.12700000000E+01 0. -1.
<mgrwt>
<rscale>  1 0.12797688E+03</rscale>
<asrwt>0</asrwt>
<pdfrwt beam="2">  1       21 0.75511398E-01 0.12797688E+03</pdfrwt>
<pdfrwt beam="1">  1        4 0.23995508E-01 0.12797688E+03</pdfrwt>
<totfact> 0.10595470E+03</totfact>
</mgrwt>
</event>
<event>
 6    4  0.3189516E-003  0.1530409E+03  0.7818608E-02  0.1196785E+00
         -4   -1    0    0    0  501 -0.00000000000E+00  0.00000000000E+00  0.16103740604E+03  0.16104241381E+03  0.12700000000E+01 0. -1.
         21   -1    0    0  501  502  0.00000000000E+00 -0.00000000000E+00 -0.25454177869E+03  0.25454177869E+03  0.00000000000E+00 0.  1.
         25    2    1    2    0    0  0.77033042368E+02 -0.43268516646E+02  0.11348274521E+03  0.19052523577E+03  0.12496110537E+03 0.  0.
    9000005    1    3    3    0    0 -0.28845412689E+02 -0.17612595238E+02  0.84983871530E+00  0.33822826169E+02  0.10000000000E+01 0.  0.
    9000005    1    3    3    0    0  0.10587845506E+03 -0.25655921409E+02  0.11263290649E+03  0.15670240960E+03  0.10000000000E+01 0.  0.
         -4    1    1    2    0  502 -0.77033042368E+02  0.43268516646E+02 -0.20698711785E+03  0.22505895673E+03  0.12700000000E+01 0.  1.
<mgrwt>
<rscale>  1 0.15304095E+03</rscale>
<asrwt>0</asrwt>
<pdfrwt beam="2">  1       21 0.39160273E-01 0.15304095E+03</pdfrwt>
<pdfrwt beam="1">  1       -4 0.24775615E-01 0.15304095E+03</pdfrwt>
<totfact> 0.39888532E+03</totfact>
</mgrwt>
</event>
<event>
 6    4  0.3189516E-003  0.1268570E+03  0.7818608E-02  0.1232195E+00
         21   -1    0    0  501  502  0.00000000000E+00  0.00000000000E+00  0.18015288471E+03  0.18015288471E+03  0.00000000000E+00 0. -1.
         -4   -1    0    0    0  501 -0.00000000000E+00 -0.00000000000E+00 -0.57139593750E+02  0.57153705689E+02  0.12700000000E+01 0.  1.
         25    2    1    2    0    0  0.31414795150E+01  0.21395427748E+02  0.15695349972E+02  0.12782423301E+03  0.12500022924E+03 0.  0.
    9000005    1    3    3    0    0 -0.99713617640E+01  0.64977282412E+02  0.39248007204E+02  0.76569454449E+02  0.10000000000E+01 0.  0.
    9000005    1    3    3    0    0  0.13112841279E+02 -0.43581854664E+02 -0.23552657233E+02  0.51254778558E+02  0.10000000000E+01 0.  0.
         -4    1    1    2    0  502 -0.31414795150E+01 -0.21395427748E+02  0.10731794098E+03  0.10948235739E+03  0.12700000000E+01 0. -1.
<mgrwt>
<rscale>  1 0.12685697E+03</rscale>
<asrwt>0</asrwt>
<pdfrwt beam="1">  1       21 0.27715828E-01 0.12685697E+03</pdfrwt>
<pdfrwt beam="2">  1       -4 0.87921367E-02 0.12685697E+03</pdfrwt>
<totfact> 0.47231864E+04</totfact>
</mgrwt>
</event>
<event>
 6    4  0.3189516E-003  0.1500667E+03  0.7818608E-02  0.1200391E+00
         21   -1    0    0  501  502  0.00000000000E+00  0.00000000000E+00  0.19936717311E+03  0.19936717311E+03  0.00000000000E+00 0. -1.
         -4   -1    0    0    0  501 -0.00000000000E+00 -0.00000000000E+00 -0.69714604816E+02  0.69726171734E+02  0.12700000000E+01 0.  1.
         25    2    1    2    0    0 -0.12073823776E+01 -0.83029148498E+02  0.10245367051E+03  0.18170518653E+03  0.12499889175E+03 0.  0.
    9000005    1    3    3    0    0 -0.24072863010E+02  0.22973219574E+02  0.11593785184E+01  0.33310894759E+02  0.10000000000E+01 0.  0.
    9000005    1    3    3    0    0  0.22865480632E+02 -0.10600236807E+03  0.10129429199E+03  0.14839429177E+03  0.10000000000E+01 0.  0.
         -4    1    1    2    0  502  0.12073823776E+01  0.83029148498E+02  0.27198897790E+02  0.87388158314E+02  0.12700000000E+01 0. -1.
<mgrwt>
<rscale>  1 0.15006672E+03</rscale>
<asrwt>0</asrwt>
<pdfrwt beam="1">  1       21 0.30671873E-01 0.15006672E+03</pdfrwt>
<pdfrwt beam="2">  1       -4 0.10726525E-01 0.15006672E+03</pdfrwt>
<totfact> 0.28307370E+04</totfact>
</mgrwt>
</event>
<event>
 6    4  0.3189516E-003  0.1456083E+03  0.7818608E-02  0.1205976E+00
         21   -1    0    0  501  502  0.00000000000E+00  0.00000000000E+00  0.39700027279E+03  0.39700027279E+03  0.00000000000E+00 0.  1.
         -4   -1    0    0    0  501 -0.00000000000E+00 -0.00000000000E+00 -0.28311610598E+03  0.28311895444E+03  0.12700000000E+01 0. -1.
         25    2    1    2    0    0 -0.77040516953E+00 -0.74679773824E+02 -0.26045894561E+03  0.29839676148E+03  0.12499641102E+03 0.  0.
    9000005    1    3    3    0    0  0.13474152272E+02 -0.10813907877E+03 -0.20261705116E+03  0.23006582223E+03  0.10000000000E+01 0.  0.
    9000005    1    3    3    0    0 -0.14244557442E+02  0.33459304950E+02 -0.57841894458E+02  0.68330939251E+02  0.10000000000E+01 0.  0.
         -4    1    1    2    0  502  0.77040516953E+00  0.74679773824E+02  0.37434311243E+03  0.38172246576E+03  0.12700000000E+01 0.  1.
<mgrwt>
<rscale>  1 0.14560826E+03</rscale>
<asrwt>0</asrwt>
<pdfrwt beam="1">  1       21 0.61076965E-01 0.14560826E+03</pdfrwt>
<pdfrwt beam="2">  1       -4 0.43556699E-01 0.14560826E+03</pdfrwt>
<totfact> 0.53850431E+02</totfact>
</mgrwt>
</event>
<event>
 6    4  0.3189516E-003  0.2443066E+03  0.7818608E-02  0.1116957E+00
         -4   -1    0    0    0  501 -0.00000000000E+00  0.00000000000E+00  0.57968754370E+02  0.57982664506E+02  0.12700000000E+01 0.  1.
         21   -1    0    0  501  502  0.00000000000E+00 -0.00000000000E+00 -0.10451190203E+04  0.10451190203E+04  0.00000000000E+00 0. -1.
         25    2    1    2    0    0  0.20449932102E+03  0.47337773455E+02 -0.31318197548E+03  0.39720104978E+03  0.12499954836E+03 0.  0.
    9000005    1    3    3    0    0  0.13679439490E+03 -0.26602032652E+02 -0.14295968334E+03  0.19964680232E+03  0.10000000000E+01 0.  0.
    9000005    1    3    3    0    0  0.67704926118E+02  0.73939806107E+02 -0.17022229214E+03  0.19755424746E+03  0.10000000000E+01 0.  0.
         -4    1    1    2    0  502 -0.20449932102E+03 -0.47337773455E+02 -0.67396829044E+03  0.70590063501E+03  0.12700000000E+01 0. -1.
<mgrwt>
<rscale>  1 0.24430662E+03</rscale>
<asrwt>0</asrwt>
<pdfrwt beam="2">  1       21 0.16078752E+00 0.24430662E+03</pdfrwt>
<pdfrwt beam="1">  1       -4 0.89194007E-02 0.24430662E+03</pdfrwt>
<totfact> 0.95434290E+02</totfact>
</mgrwt>
</event>
<event>
 6    4  0.3189516E-003  0.1284059E+03  0.7818608E-02  0.1229840E+00
         21   -1    0    0  501  502  0.00000000000E+00  0.00000000000E+00  0.15073193842E+02  0.15073193842E+02  0.00000000000E+00 0.  1.
          4   -1    0    0  502    0 -0.00000000000E+00 -0.00000000000E+00 -0.45644257778E+03  0.45644434460E+03  0.12700000000E+01 0. -1.
         25    2    1    2    0    0  0.28947140339E+02 -0.50061803137E+01 -0.40430586287E+03  0.42420669117E+03  0.12500034922E+03 0.  0.
    9000005    1    3    3    0    0  0.63944752846E+01  0.21270812382E+02 -0.38277130155E+03  0.38341649164E+03  0.10000000000E+01 0.  0.
    9000005    1    3    3    0    0  0.22552665054E+02 -0.26276992696E+02 -0.21534561323E+02  0.40790199529E+02  0.10000000000E+01 0.  0.
          4    1    1    2  501    0 -0.28947140339E+02  0.50061803137E+01 -0.37063521071E+02  0.47310847269E+02  0.12700000000E+01 0.  1.
<mgrwt>
<rscale>  1 0.12840594E+03</rscale>
<asrwt>0</asrwt>
<pdfrwt beam="1">  1       21 0.23189526E-02 0.12840594E+03</pdfrwt>
<pdfrwt beam="2">  1        4 0.70226195E-01 0.12840594E+03</pdfrwt>
<totfact> 0.73096847E+04</totfact>
</mgrwt>
</event>
<event>
 6    4  0.3189516E-003  0.1624379E+03  0.7818608E-02  0.1185972E+00
         -4   -1    0    0    0  501 -0.00000000000E+00  0.00000000000E+00  0.53051709953E+03  0.53051861965E+03  0.12700000000E+01 0.  1.
         21   -1    0    0  501  502  0.00000000000E+00 -0.00000000000E+00 -0.45451046015E+02  0.45451046015E+02  0.00000000000E+00 0. -1.
         25    2    1    2    0    0 -0.10372648703E+03 -0.10495653577E+01  0.42751692053E+03  0.45733661249E+03  0.12500309630E+03 0.  0.
    9000005    1    3    3    0    0 -0.33914509401E+02 -0.60377748622E+02  0.21590682053E+03  0.22674307405E+03  0.10000000000E+01 0.  0.
    9000005    1    3    3    0    0 -0.69811977625E+02  0.59328183265E+02  0.21161010000E+03  0.23059353844E+03  0.10000000000E+01 0.  0.
         -4    1    1    2    0  502  0.10372648703E+03  0.10495653577E+01  0.57549132985E+02  0.11863305317E+03  0.12700000000E+01 0. -1.
<mgrwt>
<rscale>  1 0.16243786E+03</rscale>
<asrwt>0</asrwt>
<pdfrwt beam="2">  1       21 0.69924690E-02 0.16243786E+03</pdfrwt>
<pdfrwt beam="1">  1       -4 0.81619493E-01 0.16243786E+03</pdfrwt>
<totfact> 0.85592220E+03</totfact>
</mgrwt>
</event>
<event>
 6    4  0.3189516E-003  0.1305712E+03  0.7818608E-02  0.1226611E+00
         21   -1    0    0  501  502  0.00000000000E+00  0.00000000000E+00  0.41928099868E+03  0.41928099868E+03  0.00000000000E+00 0. -1.
         -4   -1    0    0    0  501 -0.00000000000E+00 -0.00000000000E+00 -0.17252601093E+02  0.17299281617E+02  0.12700000000E+01 0. -1.
         25    2    1    2    0    0 -0.32704992769E+02 -0.18841089273E+02  0.33655541089E+03  0.36099636611E+03  0.12499691415E+03 0.  0.
    9000005    1    3    3    0    0 -0.40220132064E+02 -0.55807817197E+02  0.99575700487E+02  0.12103095311E+03  0.10000000000E+01 0.  0.
    9000005    1    3    3    0    0  0.75151392954E+01  0.36966727924E+02  0.23697971040E+03  0.23996541300E+03  0.10000000000E+01 0.  0.
         -4    1    1    2    0  502  0.32704992769E+02  0.18841089273E+02  0.65472986693E+02  0.75583914185E+02  0.12700000000E+01 0.  1.
<mgrwt>
<rscale>  1 0.13057118E+03</rscale>
<asrwt>0</asrwt>
<pdfrwt beam="1">  1       21 0.64504761E-01 0.13057118E+03</pdfrwt>
<pdfrwt beam="2">  1       -4 0.26579854E-02 0.13057118E+03</pdfrwt>
<totfact> 0.58752522E+04</totfact>
</mgrwt>
</event>
<event>
 6    4  0.3189516E-003  0.1287935E+03  0.7818608E-02  0.1229257E+00
         21   -1    0    0  501  502  0.00000000000E+00  0.00000000000E+00  0.91721349217E+02  0.91721349217E+02  0.00000000000E+00 0.  1.
         -4   -1    0    0    0  501 -0.00000000000E+00 -0.00000000000E+00 -0.76253918418E+02  0.76264493535E+02  0.12700000000E+01 0. -1.
         25    2    1    2    0    0  0.29278946031E+02 -0.10266855909E+02 -0.80318459498E+01  0.12904365588E+03  0.12500035825E+03 0.  0.
    9000005    1    3    3    0    0 -0.49534225280E+02 -0.49804344678E+01 -0.35229171863E+01  0.49918485024E+02  0.10000000000E+01 0.  0.
    9000005    1    3    3    0    0  0.78813171311E+02 -0.52864214414E+01 -0.45089287635E+01  0.79125170852E+02  0.10000000000E+01 0.  0.
         -4    1    1    2    0  502 -0.29278946031E+02  0.10266855909E+02  0.23499276748E+02  0.38942186875E+02  0.12700000000E+01 0.  1.
<mgrwt>
<rscale>  1 0.12879346E+03</rscale>
<asrwt>0</asrwt>
<pdfrwt beam="1">  1       21 0.14110977E-01 0.12879346E+03</pdfrwt>
<pdfrwt beam="2">  1       -4 0.11732862E-01 0.12879346E+03</pdfrwt>
<totfact> 0.10132966E+05</totfact>
</mgrwt>
</event>
<event>
 6    4  0.3189516E-003  0.1310458E+03  0.7818608E-02  0.1225912E+00
         -4   -1    0    0    0  501 -0.00000000000E+00  0.00000000000E+00  0.24282364106E+04  0.24282367427E+04  0.12700000000E+01 0.  1.
         21   -1    0    0  501  502  0.00000000000E+00 -0.00000000000E+00 -0.82306790172E+01  0.82306790172E+01  0.00000000000E+00 0. -1.
         25    2    1    2    0    0  0.26271518071E+02 -0.29285516141E+02  0.23660653346E+04  0.23696915770E+04  0.12500067258E+03 0.  0.
    9000005    1    3    3    0    0 -0.29106434343E+02  0.18739119261E+02  0.15373844016E+04  0.15377744104E+04  0.10000000000E+01 0.  0.
    9000005    1    3    3    0    0  0.55377952414E+02 -0.48024635403E+02  0.82868093304E+03  0.83191716655E+03  0.10000000000E+01 0.  0.
         -4    1    1    2    0  502 -0.26271518071E+02  0.29285516141E+02  0.53940396893E+02  0.66775844693E+02  0.12700000000E+01 0. -1.
<mgrwt>
<rscale>  1 0.13104580E+03</rscale>
<asrwt>0</asrwt>
<pdfrwt beam="2">  1       21 0.12662602E-02 0.13104580E+03</pdfrwt>
<pdfrwt beam="1">  1       -4 0.37358182E+00 0.13104580E+03</pdfrwt>
<totfact> 0.14412726E+03</totfact>
</mgrwt>
</event>
<event>
 6    4  0.3189516E-003  0.1433606E+03  0.7818608E-02  0.1208877E+00
         21   -1    0    0  501  502  0.00000000000E+00  0.00000000000E+00  0.11515075219E+02  0.11515075219E+02  0.00000000000E+00 0.  1.
          4   -1    0    0  502    0 -0.00000000000E+00 -0.00000000000E+00 -0.10614908808E+04  0.10614916405E+04  0.12700000000E+01 0. -1.
         25    2    1    2    0    0 -0.12217783386E+01  0.70190170284E+02 -0.82388021821E+03  0.83626005733E+03  0.12499646705E+03 0.  0.
    9000005    1    3    3    0    0 -0.35380215485E+02 -0.23793453376E+02 -0.28600117133E+03  0.28916354901E+03  0.10000000000E+01 0.  0.
    9000005    1    3    3    0    0  0.34158437146E+02  0.93983623659E+02 -0.53787904688E+03  0.54709650832E+03  0.10000000000E+01 0.  0.
          4    1    1    2  501    0  0.12217783386E+01 -0.70190170284E+02 -0.22609558735E+03  0.23674665840E+03  0.12700000000E+01 0.  1.
<mgrwt>
<rscale>  1 0.14336063E+03</rscale>
<asrwt>0</asrwt>
<pdfrwt beam="1">  1       21 0.17715494E-02 0.14336063E+03</pdfrwt>
<pdfrwt beam="2">  1        4 0.16331179E+00 0.14336063E+03</pdfrwt>
<totfact> 0.15648498E+04</totfact>
</mgrwt>
</event>
<event>
 6    4  0.3189516E-003  0.1291357E+03  0.7818608E-02  0.1228744E+00
         21   -1    0    0  501  502  0.00000000000E+00  0.00000000000E+00  0.11510084890E+04  0.11510084890E+04  0.00000000000E+00 0. -1.
         -4   -1    0    0    0  501 -0.00000000000E+00 -0.00000000000E+00 -0.57569383044E+01  0.58953573802E+01  0.12700000000E+01 0. -1.
         25    2    1    2    0    0 -0.67951853811E+01  0.31706405454E+02  0.82988903004E+03  0.83987608257E+03  0.12499824480E+03 0.  0.
    9000005    1    3    3    0    0  0.31856518431E+02  0.12036786363E+02  0.61847617620E+02  0.70610550187E+02  0.10000000000E+01 0.  0.
    9000005    1    3    3    0    0 -0.38651703812E+02  0.19669619090E+02  0.76804141242E+03  0.76926553238E+03  0.10000000000E+01 0.  0.
         -4    1    1    2    0  502  0.67951853811E+01 -0.31706405454E+02  0.31536252066E+03  0.31702776381E+03  0.12700000000E+01 0.  1.
<mgrwt>
<rscale>  1 0.12913571E+03</rscale>
<asrwt>0</asrwt>
<pdfrwt beam="1">  1       21 0.17707805E+00 0.12913571E+03</pdfrwt>
<pdfrwt beam="2">  1       -4 0.89638525E-03 0.12913571E+03</pdfrwt>
<totfact> 0.27400494E+04</totfact>
</mgrwt>
</event>
<event>
 6    4  0.3189516E-003  0.1380814E+03  0.7818608E-02  0.1215934E+00
          4   -1    0    0  502    0 -0.00000000000E+00  0.00000000000E+00  0.14463813479E+03  0.14464371033E+03  0.12700000000E+01 0. -1.
         21   -1    0    0  501  502  0.00000000000E+00 -0.00000000000E+00 -0.67115650023E+02  0.67115650023E+02  0.00000000000E+00 0. -1.
         25    2    1    2    0    0  0.58652820382E+02  0.33798375177E+00  0.59791512809E+02  0.15047096146E+03  0.12500487057E+03 0.  0.
    9000005    1    3    3    0    0  0.67331552366E+02 -0.14779585579E+02  0.91325350444E+02  0.11442593119E+03  0.10000000000E+01 0.  0.
    9000005    1    3    3    0    0 -0.86787319847E+01  0.15117569331E+02 -0.31533837636E+02  0.36045030273E+02  0.10000000000E+01 0.  0.
          4    1    1    2  501    0 -0.58652820382E+02 -0.33798375177E+00  0.17730971962E+02  0.61288398890E+02  0.12700000000E+01 0.  1.
<mgrwt>
<rscale>  1 0.13808144E+03</rscale>
<asrwt>0</asrwt>
<pdfrwt beam="2">  1       21 0.10325485E-01 0.13808144E+03</pdfrwt>
<pdfrwt beam="1">  1        4 0.22253374E-01 0.13808144E+03</pdfrwt>
<totfact> 0.57692527E+04</totfact>
</mgrwt>
</event>
<event>
 6    4  0.3189516E-003  0.1278895E+03  0.7818608E-02  0.1230621E+00
         21   -1    0    0  501  502  0.00000000000E+00  0.00000000000E+00  0.90982905716E+01  0.90982905716E+01  0.00000000000E+00 0.  1.
         -4   -1    0    0    0  501 -0.00000000000E+00 -0.00000000000E+00 -0.26683102782E+04  0.26683105804E+04  0.12700000000E+01 0. -1.
         25    2    1    2    0    0 -0.80634029992E+01 -0.25845142940E+02 -0.26424455899E+04  0.26455385890E+04  0.12499096176E+03 0.  0.
    9000005    1    3    3    0    0  0.14722763093E+02  0.44047686307E+02 -0.15066667656E+04  0.15073827321E+04  0.10000000000E+01 0.  0.
    9000005    1    3    3    0    0 -0.22786166092E+02 -0.69892829247E+02 -0.11357788243E+04  0.11381558569E+04  0.10000000000E+01 0.  0.
         -4    1    1    2    0  502  0.80634029992E+01  0.25845142940E+02 -0.16766397744E+02  0.31870282001E+02  0.12700000000E+01 0.  1.
<mgrwt>
<rscale>  1 0.12788952E+03</rscale>
<asrwt>0</asrwt>
<pdfrwt beam="1">  1       21 0.13997362E-02 0.12788952E+03</pdfrwt>
<pdfrwt beam="2">  1       -4 0.41051634E+00 0.12788952E+03</pdfrwt>
<totfact> 0.70870758E+02</totfact>
</mgrwt>
</event>
<event>
 6    4  0.3189516E-003  0.1306313E+03  0.7818608E-02  0.1226522E+00
         21   -1    0    0  501  502  0.00000000000E+00  0.00000000000E+00  0.50156093689E+03  0.50156093689E+03  0.00000000000E+00 0.  1.
         -4   -1    0    0    0  501 -0.00000000000E+00 -0.00000000000E+00 -0.20721062879E+02  0.20759945733E+02  0.12700000000E+01 0. -1.
         25    2    1    2    0    0 -0.37888120079E+02  0.19065594105E+01  0.19970328887E+03  0.23863348950E+03  0.12500157644E+03 0.  0.
    9000005    1    3    3    0    0 -0.52745476920E+01  0.61794006855E+02  0.85768187805E+02  0.10584659738E+03  0.10000000000E+01 0.  0.
    9000005    1    3    3    0    0 -0.32613572387E+02 -0.59887447445E+02  0.11393510107E+03  0.13278689213E+03  0.10000000000E+01 0.  0.
         -4    1    1    2    0  502  0.37888120079E+02 -0.19065594105E+01  0.28113658513E+03  0.28368739312E+03  0.12700000000E+01 0.  1.
<mgrwt>
<rscale>  1 0.13063131E+03</rscale>
<asrwt>0</asrwt>
<pdfrwt beam="1">  1       21 0.77163212E-01 0.13063131E+03</pdfrwt>
<pdfrwt beam="2">  1       -4 0.31909709E-02 0.13063131E+03</pdfrwt>
<totfact> 0.29852785E+04</totfact>
</mgrwt>
</event>
<event>
 6    4  0.3189516E-003  0.1339921E+03  0.7818608E-02  0.1221650E+00
         21   -1    0    0  501  502  0.00000000000E+00  0.00000000000E+00  0.17237322636E+03  0.17237322636E+03  0.00000000000E+00 0. -1.
         -4   -1    0    0    0  501 -0.00000000000E+00 -0.00000000000E+00 -0.54714024034E+02  0.54728761415E+02  0.12700000000E+01 0. -1.
         25    2    1    2    0    0 -0.32877208467E+02 -0.35320242295E+02  0.47953685661E+02  0.14231459304E+03  0.12500182827E+03 0.  0.
    9000005    1    3    3    0    0 -0.16289076660E+02 -0.78952947076E+02  0.51209760470E+02  0.95510949308E+02  0.10000000000E+01 0.  0.
    9000005    1    3    3    0    0 -0.16588131806E+02  0.43632704781E+02 -0.32560748094E+01  0.46803643731E+02  0.10000000000E+01 0.  0.
         -4    1    1    2    0  502  0.32877208467E+02  0.35320242295E+02  0.69705516663E+02  0.84787394733E+02  0.12700000000E+01 0.  1.
<mgrwt>
<rscale>  1 0.13399212E+03</rscale>
<asrwt>0</asrwt>
<pdfrwt beam="1">  1       21 0.26518958E-01 0.13399212E+03</pdfrwt>
<pdfrwt beam="2">  1       -4 0.84190357E-02 0.13399212E+03</pdfrwt>
<totfact> 0.55581784E+04</totfact>
</mgrwt>
</event>
<event>
 6    4  0.3189516E-003  0.1326534E+03  0.7818608E-02  0.1223571E+00
          4   -1    0    0  502    0 -0.00000000000E+00  0.00000000000E+00  0.53560590951E+03  0.53560741519E+03  0.12700000000E+01 0.  1.
         21   -1    0    0  501  502  0.00000000000E+00 -0.00000000000E+00 -0.15674140489E+02  0.15674140489E+02  0.00000000000E+00 0.  1.
         25    2    1    2    0    0 -0.17028554261E+02  0.41015905774E+02  0.44308319381E+03  0.46251448634E+03  0.12499862899E+03 0.  0.
    9000005    1    3    3    0    0 -0.18421661924E+01  0.64994802264E+02  0.42241017153E+03  0.42738632514E+03  0.10000000000E+01 0.  0.
    9000005    1    3    3    0    0 -0.15186388069E+02 -0.23978896490E+02  0.20673022271E+02  0.35128161200E+02  0.10000000000E+01 0.  0.
          4    1    1    2  501    0  0.17028554261E+02 -0.41015905774E+02  0.76848575218E+02  0.88767069343E+02  0.12700000000E+01 0. -1.
<mgrwt>
<rscale>  1 0.13265343E+03</rscale>
<asrwt>0</asrwt>
<pdfrwt beam="2">  1       21 0.24114066E-02 0.13265343E+03</pdfrwt>
<pdfrwt beam="1">  1        4 0.82404968E-01 0.13265343E+03</pdfrwt>
<totfact> 0.48558426E+04</totfact>
</mgrwt>
</event>
<event>
 6    4  0.3189516E-003  0.1416827E+03  0.7818608E-02  0.1211082E+00
         -4   -1    0    0    0  501 -0.00000000000E+00  0.00000000000E+00  0.28536344545E+02  0.28564591018E+02  0.12700000000E+01 0. -1.
         21   -1    0    0  501  502  0.00000000000E+00 -0.00000000000E+00 -0.39331373602E+03  0.39331373602E+03  0.00000000000E+00 0.  1.
         25    2    1    2    0    0 -0.23241491812E+01  0.66660622669E+02 -0.28175903559E+03  0.31537621157E+03  0.12499984163E+03 0.  0.
    9000005    1    3    3    0    0  0.37317932251E+02  0.87882392112E+02 -0.20998872158E+03  0.23067771046E+03  0.10000000000E+01 0.  0.
    9000005    1    3    3    0    0 -0.39642081432E+02 -0.21221769443E+02 -0.71770314008E+02  0.84698501117E+02  0.10000000000E+01 0.  0.
         -4    1    1    2    0  502  0.23241491812E+01 -0.66660622669E+02 -0.83018355884E+02  0.10650211546E+03  0.12700000000E+01 0.  1.
<mgrwt>
<rscale>  1 0.14168275E+03</rscale>
<asrwt>0</asrwt>
<pdfrwt beam="2">  1       21 0.60509804E-01 0.14168275E+03</pdfrwt>
<pdfrwt beam="1">  1       -4 0.43925375E-02 0.14168275E+03</pdfrwt>
<totfact> 0.30767270E+04</totfact>
</mgrwt>
</event>
<event>
 6    4  0.3189516E-003  0.1267982E+03  0.7818608E-02  0.1232286E+00
         21   -1    0    0  501  502  0.00000000000E+00  0.00000000000E+00  0.76849735939E+02  0.76849735939E+02  0.00000000000E+00 0.  1.
         -4   -1    0    0    0  501 -0.00000000000E+00 -0.00000000000E+00 -0.71357450802E+02  0.71368751460E+02  0.12700000000E+01 0.  1.
         25    2    1    2    0    0 -0.18204604384E+02 -0.11001597045E+02  0.53050647569E+01  0.12690908314E+03  0.12500131565E+03 0.  0.
    9000005    1    3    3    0    0 -0.39955845360E+02 -0.50121161865E+02 -0.29142479919E+02  0.70419348058E+02  0.10000000000E+01 0.  0.
    9000005    1    3    3    0    0  0.21751240976E+02  0.39119564820E+02  0.34447544676E+02  0.56489735084E+02  0.10000000000E+01 0.  0.
         -4    1    1    2    0  502  0.18204604384E+02  0.11001597045E+02  0.18722038021E+00  0.21309404257E+02  0.12700000000E+01 0. -1.
<mgrwt>
<rscale>  1 0.12679815E+03</rscale>
<asrwt>0</asrwt>
<pdfrwt beam="1">  1       21 0.11823036E-01 0.12679815E+03</pdfrwt>
<pdfrwt beam="2">  1       -4 0.10979746E-01 0.12679815E+03</pdfrwt>
<totfact> 0.15508764E+05</totfact>
</mgrwt>
</event>
<event>
 6    4  0.3189516E-003  0.1342677E+03  0.7818608E-02  0.1221257E+00
         21   -1    0    0  501  502  0.00000000000E+00  0.00000000000E+00  0.69474494210E+03  0.69474494210E+03  0.00000000000E+00 0. -1.
          4   -1    0    0  502    0 -0.00000000000E+00 -0.00000000000E+00 -0.14868077781E+02  0.14922219570E+02  0.12700000000E+01 0. -1.
         25    2    1    2    0    0 -0.44428523395E+02  0.20708366855E+02  0.32842060074E+03  0.35480683949E+03  0.12500028884E+03 0.  0.
    9000005    1    3    3    0    0 -0.84207723096E+02 -0.75539726405E+01  0.18776969283E+03  0.20592829014E+03  0.10000000000E+01 0.  0.
    9000005    1    3    3    0    0  0.39779199700E+02  0.28262339496E+02  0.14065090791E+03  0.14887854936E+03  0.10000000000E+01 0.  0.
          4    1    1    2  501    0  0.44428523395E+02 -0.20708366855E+02  0.35145626357E+03  0.35486032217E+03  0.12700000000E+01 0.  1.
<mgrwt>
<rscale>  1 0.13426765E+03</rscale>
<asrwt>0</asrwt>
<pdfrwt beam="1">  1       21 0.10688381E+00 0.13426765E+03</pdfrwt>
<pdfrwt beam="2">  1        4 0.22916512E-02 0.13426765E+03</pdfrwt>
<totfact> 0.23723684E+04</totfact>
</mgrwt>
</event>
<event>
 6    4  0.3189516E-003  0.1275332E+03  0.7818608E-02  0.1231163E+00
          4   -1    0    0  502    0 -0.00000000000E+00  0.00000000000E+00  0.16311577958E+02  0.16360943599E+02  0.12700000000E+01 0. -1.
         21   -1    0    0  501  502  0.00000000000E+00 -0.00000000000E+00 -0.44111706660E+03  0.44111706660E+03  0.00000000000E+00 0. -1.
         25    2    1    2    0    0 -0.67365597935E+01 -0.24356062346E+02 -0.24799252866E+03  0.27886380380E+03  0.12500451107E+03 0.  0.
    9000005    1    3    3    0    0  0.42907325572E+02 -0.30731127383E+02 -0.43704124592E+02  0.68530951288E+02  0.10000000000E+01 0.  0.
    9000005    1    3    3    0    0 -0.49643885366E+02  0.63750650374E+01 -0.20428840407E+03  0.21033285251E+03  0.10000000000E+01 0.  0.
          4    1    1    2  501    0  0.67365597935E+01  0.24356062346E+02 -0.17681295998E+03  0.17861420640E+03  0.12700000000E+01 0.  1.
<mgrwt>
<rscale>  1 0.12753324E+03</rscale>
<asrwt>0</asrwt>
<pdfrwt beam="2">  1       21 0.67864154E-01 0.12753324E+03</pdfrwt>
<pdfrwt beam="1">  1        4 0.25134119E-02 0.12753324E+03</pdfrwt>
<totfact> 0.57287866E+04</totfact>
</mgrwt>
</event>
<event>
 6    4  0.3189516E-003  0.1338177E+03  0.7818608E-02  0.1221898E+00
          4   -1    0    0  502    0 -0.00000000000E+00  0.00000000000E+00  0.46163658145E+03  0.46163832838E+03  0.12700000000E+01 0. -1.
         21   -1    0    0  501  502  0.00000000000E+00 -0.00000000000E+00 -0.27834205091E+02  0.27834205091E+02  0.00000000000E+00 0.  1.
         25    2    1    2    0    0  0.35115649060E+02  0.32391248133E+02  0.41837343412E+03  0.43925334468E+03  0.12499947467E+03 0.  0.
    9000005    1    3    3    0    0  0.69511781748E+02 -0.18821274143E+02  0.23362784581E+03  0.24447719423E+03  0.10000000000E+01 0.  0.
    9000005    1    3    3    0    0 -0.34396132688E+02  0.51212522276E+02  0.18474558831E+03  0.19477615045E+03  0.10000000000E+01 0.  0.
          4    1    1    2  501    0 -0.35115649060E+02 -0.32391248133E+02  0.15428942235E+02  0.50219188793E+02  0.12700000000E+01 0.  1.
<mgrwt>
<rscale>  1 0.13381768E+03</rscale>
<asrwt>0</asrwt>
<pdfrwt beam="2">  1       21 0.42821857E-02 0.13381768E+03</pdfrwt>
<pdfrwt beam="1">  1        4 0.71023370E-01 0.13381768E+03</pdfrwt>
<totfact> 0.26157649E+04</totfact>
</mgrwt>
</event>
<event>
 6    4  0.3189516E-003  0.1271631E+03  0.7818608E-02  0.1231727E+00
         -4   -1    0    0    0  501 -0.00000000000E+00  0.00000000000E+00  0.85124740908E+03  0.85124835646E+03  0.12700000000E+01 0. -1.
         21   -1    0    0  501  502  0.00000000000E+00 -0.00000000000E+00 -0.49305453930E+02  0.49305453930E+02  0.00000000000E+00 0.  1.
         25    2    1    2    0    0  0.31422564812E+01  0.23143377807E+02  0.84341077427E+03  0.85294324884E+03  0.12499984752E+03 0.  0.
    9000005    1    3    3    0    0  0.26380957426E+02 -0.31925929322E+02  0.11776354210E+03  0.12483778164E+03  0.10000000000E+01 0.  0.
    9000005    1    3    3    0    0 -0.23238700945E+02  0.55069307128E+02  0.72564723217E+03  0.72810546720E+03  0.10000000000E+01 0.  0.
         -4    1    1    2    0  502 -0.31422564812E+01 -0.23143377807E+02 -0.41468819114E+02  0.47610561547E+02  0.12700000000E+01 0.  1.
<mgrwt>
<rscale>  1 0.12716309E+03</rscale>
<asrwt>0</asrwt>
<pdfrwt beam="2">  1       21 0.75854551E-02 0.12716309E+03</pdfrwt>
<pdfrwt beam="1">  1       -4 0.13096246E+00 0.12716309E+03</pdfrwt>
<totfact> 0.24287423E+03</totfact>
</mgrwt>
</event>
<event>
 6    4  0.3189516E-003  0.1547628E+03  0.7818608E-02  0.1194740E+00
          4   -1    0    0  502    0 -0.00000000000E+00  0.00000000000E+00  0.11340552162E+03  0.11341263260E+03  0.12700000000E+01 0. -1.
         21   -1    0    0  501  502  0.00000000000E+00 -0.00000000000E+00 -0.18046297923E+03  0.18046297923E+03  0.00000000000E+00 0.  1.
         25    2    1    2    0    0 -0.91132928283E+02  0.45847309941E+01  0.33222238194E+02  0.15828851559E+03  0.12500122672E+03 0.  0.
    9000005    1    3    3    0    0 -0.75160804754E+02  0.38942189387E+02  0.66655759090E+02  0.10774799722E+03  0.10000000000E+01 0.  0.
    9000005    1    3    3    0    0 -0.15972123529E+02 -0.34357458393E+02 -0.33433520896E+02  0.50540518366E+02  0.10000000000E+01 0.  0.
          4    1    1    2  501    0  0.91132928283E+02 -0.45847309941E+01 -0.10027969581E+03  0.13558709624E+03  0.12700000000E+01 0.  1.
<mgrwt>
<rscale>  1 0.15476284E+03</rscale>
<asrwt>0</asrwt>
<pdfrwt beam="2">  1       21 0.27763535E-01 0.15476284E+03</pdfrwt>
<pdfrwt beam="1">  1        4 0.17447894E-01 0.15476284E+03</pdfrwt>
<totfact> 0.14787481E+04</totfact>
</mgrwt>
</event>
<event>
 6    4  0.3189516E-003  0.1298241E+03  0.7818608E-02  0.1227717E+00
         -4   -1    0    0    0  501 -0.00000000000E+00  0.00000000000E+00  0.31192499188E+03  0.31192757727E+03  0.12700000000E+01 0.  1.
         21   -1    0    0  501  502  0.00000000000E+00 -0.00000000000E+00 -0.42652053234E+02  0.42652053234E+02  0.00000000000E+00 0. -1.
         25    2    1    2    0    0 -0.13854678015E+02  0.32206677970E+02  0.28720142746E+03  0.31518082570E+03  0.12500028299E+03 0.  0.
    9000005    1    3    3    0    0 -0.34886977137E+02  0.26147478552E+02  0.28984864834E+03  0.29311095297E+03  0.10000000000E+01 0.  0.
    9000005    1    3    3    0    0  0.21032299122E+02  0.60591994177E+01 -0.26472208789E+01  0.22069872730E+02  0.10000000000E+01 0.  0.
         -4    1    1    2    0  502  0.13854678015E+02 -0.32206677970E+02 -0.17928488811E+02  0.39398804801E+02  0.12700000000E+01 0. -1.
<mgrwt>
<rscale>  1 0.12982408E+03</rscale>
<asrwt>0</asrwt>
<pdfrwt beam="2">  1       21 0.65618546E-02 0.12982408E+03</pdfrwt>
<pdfrwt beam="1">  1       -4 0.47990112E-01 0.12982408E+03</pdfrwt>
<totfact> 0.28799762E+04</totfact>
</mgrwt>
</event>
<event>
 6    4  0.3189516E-003  0.1271888E+03  0.7818608E-02  0.1231688E+00
         -4   -1    0    0    0  501 -0.00000000000E+00  0.00000000000E+00  0.30936706926E+03  0.30936967602E+03  0.12700000000E+01 0. -1.
         21   -1    0    0  501  502  0.00000000000E+00 -0.00000000000E+00 -0.49844736625E+02  0.49844736625E+02  0.00000000000E+00 0.  1.
         25    2    1    2    0    0  0.22496300123E+02 -0.68097530831E+01  0.29235049552E+03  0.31881939520E+03  0.12499815305E+03 0.  0.
    9000005    1    3    3    0    0 -0.98497703912E+01  0.54198005219E+02  0.16491273774E+03  0.17387251886E+03  0.10000000000E+01 0.  0.
    9000005    1    3    3    0    0  0.32346070514E+02 -0.61007758302E+02  0.12743775778E+03  0.14494687633E+03  0.10000000000E+01 0.  0.
         -4    1    1    2    0  502 -0.22496300123E+02  0.68097530831E+01 -0.32828162887E+02  0.40395017450E+02  0.12700000000E+01 0.  1.
<mgrwt>
<rscale>  1 0.12718881E+03</rscale>
<asrwt>0</asrwt>
<pdfrwt beam="2">  1       21 0.76684212E-02 0.12718881E+03</pdfrwt>
<pdfrwt beam="1">  1       -4 0.47596378E-01 0.12718881E+03</pdfrwt>
<totfact> 0.22372955E+04</totfact>
</mgrwt>
</event>
<event>
 6    4  0.3189516E-003  0.1270126E+03  0.7818608E-02  0.1231957E+00
         21   -1    0    0  501  502  0.00000000000E+00  0.00000000000E+00  0.11355844327E+03  0.11355844327E+03  0.00000000000E+00 0. -1.
          4   -1    0    0  502    0 -0.00000000000E+00 -0.00000000000E+00 -0.31942415688E+03  0.31942668157E+03  0.12700000000E+01 0.  1.
         25    2    1    2    0    0 -0.19539103865E+02 -0.11194784455E+02 -0.30548880632E+03  0.33084075016E+03  0.12500036558E+03 0.  0.
    9000005    1    3    3    0    0 -0.13972758290E+02  0.53919583877E+02 -0.91816814107E+02  0.10739593499E+03  0.10000000000E+01 0.  0.
    9000005    1    3    3    0    0 -0.55663455748E+01 -0.65114368332E+02 -0.21367199222E+03  0.22344481516E+03  0.10000000000E+01 0.  0.
          4    1    1    2  501    0  0.19539103865E+02  0.11194784455E+02  0.99623092710E+02  0.10214437469E+03  0.12700000000E+01 0. -1.
<mgrwt>
<rscale>  1 0.12701256E+03</rscale>
<asrwt>0</asrwt>
<pdfrwt beam="1">  1       21 0.17470530E-01 0.12701256E+03</pdfrwt>
<pdfrwt beam="2">  1        4 0.49142918E-01 0.12701256E+03</pdfrwt>
<totfact> 0.48888311E+03</totfact>
</mgrwt>
</event>
<event>
 6    4  0.3189516E-003  0.1275933E+03  0.7818608E-02  0.1231071E+00
         21   -1    0    0  501  502  0.00000000000E+00  0.00000000000E+00  0.42297810949E+03  0.42297810949E+03  0.00000000000E+00 0. -1.
         -4   -1    0    0    0  501 -0.00000000000E+00 -0.00000000000E+00 -0.15432208635E+02  0.15484378043E+02  0.12700000000E+01 0. -1.
         25    2    1    2    0    0  0.25588683972E+02 -0.65487545722E+00  0.37994837490E+03  0.40080022594E+03  0.12499937566E+03 0.  0.
    9000005    1    3    3    0    0  0.12369512872E+02 -0.34897550914E+02  0.35377241851E+03  0.35570601346E+03  0.10000000000E+01 0.  0.
    9000005    1    3    3    0    0  0.13219171100E+02  0.34242675456E+02  0.26175956391E+02  0.45094212489E+02  0.10000000000E+01 0.  0.
         -4    1    1    2    0  502 -0.25588683972E+02  0.65487545722E+00  0.27597525950E+02  0.37662261587E+02  0.12700000000E+01 0.  1.
<mgrwt>
<rscale>  1 0.12759331E+03</rscale>
<asrwt>0</asrwt>
<pdfrwt beam="1">  1       21 0.65073546E-01 0.12759331E+03</pdfrwt>
<pdfrwt beam="2">  1       -4 0.23783460E-02 0.12759331E+03</pdfrwt>
<totfact> 0.68339790E+04</totfact>
</mgrwt>
</event>
<event>
 6    4  0.3189516E-003  0.1331642E+03  0.7818608E-02  0.1222835E+00
          4   -1    0    0  502    0 -0.00000000000E+00  0.00000000000E+00  0.22904930499E+02  0.22940112057E+02  0.12700000000E+01 0.  1.
         21   -1    0    0  501  502  0.00000000000E+00 -0.00000000000E+00 -0.81018445176E+03  0.81018445176E+03  0.00000000000E+00 0. -1.
         25    2    1    2    0    0 -0.39552908917E+02  0.23333100854E+02 -0.17893597959E+03  0.22304887688E+03  0.12499540186E+03 0.  0.
    9000005    1    3    3    0    0  0.36263142315E+02  0.40579361193E+02 -0.87166688308E+02  0.10276542023E+03  0.10000000000E+01 0.  0.
    9000005    1    3    3    0    0 -0.75816051232E+02 -0.17246260340E+02 -0.91769291283E+02  0.12028345665E+03  0.10000000000E+01 0.  0.
          4    1    1    2  501    0  0.39552908917E+02 -0.23333100854E+02 -0.60834354167E+03  0.61007568694E+03  0.12700000000E+01 0. -1.
<mgrwt>
<rscale>  1 0.13316425E+03</rscale>
<asrwt>0</asrwt>
<pdfrwt beam="2">  1       21 0.12464376E+00 0.13316425E+03</pdfrwt>
<pdfrwt beam="1">  1        4 0.35266183E-02 0.13316425E+03</pdfrwt>
<totfact> 0.83361623E+03</totfact>
</mgrwt>
</event>
<event>
 6    4  0.3189516E-003  0.1272693E+03  0.7818608E-02  0.1231565E+00
         21   -1    0    0  501  502  0.00000000000E+00  0.00000000000E+00  0.29485465284E+02  0.29485465284E+02  0.00000000000E+00 0. -1.
          4   -1    0    0  502    0 -0.00000000000E+00 -0.00000000000E+00 -0.26329530764E+03  0.26329837054E+03  0.12700000000E+01 0. -1.
         25    2    1    2    0    0 -0.68876510537E+00  0.23915950201E+02 -0.23660455912E+03  0.26866184558E+03  0.12500009122E+03 0.  0.
    9000005    1    3    3    0    0  0.37215581826E+02  0.62318296726E+02 -0.12150017341E+03  0.14153395980E+03  0.10000000000E+01 0.  0.
    9000005    1    3    3    0    0 -0.37904346931E+02 -0.38402346524E+02 -0.11510438570E+03  0.12712788578E+03  0.10000000000E+01 0.  0.
          4    1    1    2  501    0  0.68876510537E+00 -0.23915950201E+02  0.27947167564E+01  0.24121990240E+02  0.12700000000E+01 0.  1.
<mgrwt>
<rscale>  1 0.12726928E+03</rscale>
<asrwt>0</asrwt>
<pdfrwt beam="1">  1       21 0.45362254E-02 0.12726928E+03</pdfrwt>
<pdfrwt beam="2">  1        4 0.40509310E-01 0.12726928E+03</pdfrwt>
<totfact> 0.75091056E+04</totfact>
</mgrwt>
</event>
<event>
 6    4  0.3189516E-003  0.1286130E+03  0.7818608E-02  0.1229528E+00
         -4   -1    0    0    0  501 -0.00000000000E+00  0.00000000000E+00  0.59128000735E+02  0.59141638216E+02  0.12700000000E+01 0.  1.
         21   -1    0    0  501  502  0.00000000000E+00 -0.00000000000E+00 -0.18778540661E+03  0.18778540661E+03  0.00000000000E+00 0. -1.
         25    2    1    2    0    0 -0.29945791389E+02  0.45532258165E+01 -0.15222451856E+02  0.12951075984E+03  0.12499532626E+03 0.  0.
    9000005    1    3    3    0    0  0.15127083448E+02 -0.55172705790E+01 -0.61823284186E+02  0.63893563024E+02  0.10000000000E+01 0.  0.
    9000005    1    3    3    0    0 -0.45072874838E+02  0.10070496396E+02  0.46600832330E+02  0.65617196813E+02  0.10000000000E+01 0.  0.
         -4    1    1    2    0  502  0.29945791389E+02 -0.45532258165E+01 -0.11343495402E+03  0.11741628499E+03  0.12700000000E+01 0. -1.
<mgrwt>
<rscale>  1 0.12861304E+03</rscale>
<asrwt>0</asrwt>
<pdfrwt beam="2">  1       21 0.28890062E-01 0.12861304E+03</pdfrwt>
<pdfrwt beam="1">  1       -4 0.90979951E-02 0.12861304E+03</pdfrwt>
<totfact> 0.41269465E+04</totfact>
</mgrwt>
</event>
<event>
 6    4  0.3189516E-003  0.1287265E+03  0.7818608E-02  0.1229358E+00
          4   -1    0    0  502    0 -0.00000000000E+00  0.00000000000E+00  0.17440754934E+02  0.17486933198E+02  0.12700000000E+01 0. -1.
         21   -1    0    0  501  502  0.00000000000E+00 -0.00000000000E+00 -0.87368542704E+03  0.87368542704E+03  0.00000000000E+00 0.  1.
         25    2    1    2    0    0 -0.30449971582E+02  0.43027303340E+01 -0.22533072076E+03  0.25950809723E+03  0.12499921821E+03 0.  0.
    9000005    1    3    3    0    0 -0.59284957151E+02  0.46384039287E+01 -0.39375975616E+02  0.71328033698E+02  0.10000000000E+01 0.  0.
    9000005    1    3    3    0    0  0.28834985569E+02 -0.33567359468E+00 -0.18595474515E+03  0.18818006354E+03  0.10000000000E+01 0.  0.
          4    1    1    2  501    0  0.30449971582E+02 -0.43027303340E+01 -0.63091395134E+03  0.63166426300E+03  0.12700000000E+01 0.  1.
<mgrwt>
<rscale>  1 0.12872653E+03</rscale>
<asrwt>0</asrwt>
<pdfrwt beam="2">  1       21 0.13441309E+00 0.12872653E+03</pdfrwt>
<pdfrwt beam="1">  1        4 0.26868173E-02 0.12872653E+03</pdfrwt>
<totfact> 0.10564786E+04</totfact>
</mgrwt>
</event>
<event>
 6    4  0.3189516E-003  0.1269620E+03  0.7818608E-02  0.1232034E+00
          4   -1    0    0  502    0 -0.00000000000E+00  0.00000000000E+00  0.24363247323E+03  0.24363578332E+03  0.12700000000E+01 0. -1.
         21   -1    0    0  501  502  0.00000000000E+00 -0.00000000000E+00 -0.25788868291E+02  0.25788868291E+02  0.00000000000E+00 0. -1.
         25    2    1    2    0    0 -0.39460211508E+01  0.21970190964E+02  0.21062315412E+03  0.24592979719E+03  0.12498436591E+03 0.  0.
    9000005    1    3    3    0    0 -0.33520851129E+01 -0.27412750166E+01  0.21957588063E+03  0.21962085151E+03  0.10000000000E+01 0.  0.
    9000005    1    3    3    0    0 -0.59393603787E+00  0.24711465981E+02 -0.89527265126E+01  0.26308945683E+02  0.10000000000E+01 0.  0.
          4    1    1    2  501    0  0.39460211508E+01 -0.21970190964E+02  0.72204508218E+01  0.23494854416E+02  0.12700000000E+01 0.  1.
<mgrwt>
<rscale>  1 0.12696201E+03</rscale>
<asrwt>0</asrwt>
<pdfrwt beam="2">  1       21 0.39675184E-02 0.12696201E+03</pdfrwt>
<pdfrwt beam="1">  1        4 0.37484577E-01 0.12696201E+03</pdfrwt>
<totfact> 0.10921551E+05</totfact>
</mgrwt>
</event>
<event>
 6    4  0.3189516E-003  0.1267151E+03  0.7818608E-02  0.1232413E+00
         21   -1    0    0  501  502  0.00000000000E+00  0.00000000000E+00  0.70585999596E+03  0.70585999596E+03  0.00000000000E+00 0. -1.
          4   -1    0    0  502    0 -0.00000000000E+00 -0.00000000000E+00 -0.76915186647E+01  0.77956628563E+01  0.12700000000E+01 0. -1.
         25    2    1    2    0    0 -0.19242225170E+02  0.78474228793E+01  0.58178535656E+03  0.59542499880E+03  0.12499953126E+03 0.  0.
    9000005    1    3    3    0    0 -0.75680954639E+01  0.55924411175E+02  0.46738792223E+03  0.47078369309E+03  0.10000000000E+01 0.  0.
    9000005    1    3    3    0    0 -0.11674129706E+02 -0.48076988296E+02  0.11439743433E+03  0.12464130571E+03  0.10000000000E+01 0.  0.
          4    1    1    2  501    0  0.19242225170E+02 -0.78474228793E+01  0.11638312074E+03  0.11823066002E+03  0.12700000000E+01 0.  1.
<mgrwt>
<rscale>  1 0.12671515E+03</rscale>
<asrwt>0</asrwt>
<pdfrwt beam="1">  1       21 0.10859380E+00 0.12671515E+03</pdfrwt>
<pdfrwt beam="2">  1        4 0.11914101E-02 0.12671515E+03</pdfrwt>
<totfact> 0.61790108E+04</totfact>
</mgrwt>
</event>
<event>
 6    4  0.3189516E-003  0.1269814E+03  0.7818608E-02  0.1232005E+00
         -4   -1    0    0    0  501 -0.00000000000E+00  0.00000000000E+00  0.20510008296E+02  0.20549290506E+02  0.12700000000E+01 0.  1.
         21   -1    0    0  501  502  0.00000000000E+00 -0.00000000000E+00 -0.40839320546E+03  0.40839320546E+03  0.00000000000E+00 0. -1.
         25    2    1    2    0    0  0.11995700438E+02 -0.18888021761E+02 -0.18243992755E+03  0.22228044303E+03  0.12499445585E+03 0.  0.
    9000005    1    3    3    0    0  0.54049203712E+02 -0.14052556315E+02 -0.16879100240E+03  0.17779255679E+03  0.10000000000E+01 0.  0.
    9000005    1    3    3    0    0 -0.42053503275E+02 -0.48354654466E+01 -0.13648925153E+02  0.44487886234E+02  0.10000000000E+01 0.  0.
         -4    1    1    2    0  502 -0.11995700438E+02  0.18888021761E+02 -0.20544326961E+03  0.20666205293E+03  0.12700000000E+01 0. -1.
<mgrwt>
<rscale>  1 0.12698137E+03</rscale>
<asrwt>0</asrwt>
<pdfrwt beam="2">  1       21 0.62829716E-01 0.12698137E+03</pdfrwt>
<pdfrwt beam="1">  1       -4 0.31585599E-02 0.12698137E+03</pdfrwt>
<totfact> 0.47331298E+04</totfact>
</mgrwt>
</event>
<event>
 6    4  0.3189516E-003  0.1337845E+03  0.7818608E-02  0.1221946E+00
         21   -1    0    0  501  502  0.00000000000E+00  0.00000000000E+00  0.20149365032E+03  0.20149365032E+03  0.00000000000E+00 0.  1.
         -4   -1    0    0    0  501 -0.00000000000E+00 -0.00000000000E+00 -0.45102719916E+02  0.45120596670E+02  0.12700000000E+01 0.  1.
         25    2    1    2    0    0 -0.25735896250E+02 -0.40134809703E+02  0.78022546771E+02  0.15487354850E+03  0.12500063566E+03 0.  0.
    9000005    1    3    3    0    0  0.22268726205E+02 -0.68139222183E+02  0.67162224878E+02  0.98237539755E+02  0.10000000000E+01 0.  0.
    9000005    1    3    3    0    0 -0.48004622455E+02  0.28004412479E+02  0.10860321893E+02  0.56636008749E+02  0.10000000000E+01 0.  0.
         -4    1    1    2    0  502  0.25735896250E+02  0.40134809703E+02  0.78368383636E+02  0.91740698490E+02  0.12700000000E+01 0. -1.
<mgrwt>
<rscale>  1 0.13378452E+03</rscale>
<asrwt>0</asrwt>
<pdfrwt beam="1">  1       21 0.30999023E-01 0.13378452E+03</pdfrwt>
<pdfrwt beam="2">  1       -4 0.69405631E-02 0.13378452E+03</pdfrwt>
<totfact> 0.56636743E+04</totfact>
</mgrwt>
</event>
<event>
 6    4  0.3189516E-003  0.1351544E+03  0.7818608E-02  0.1220002E+00
          4   -1    0    0  502    0 -0.00000000000E+00  0.00000000000E+00  0.77276481436E+02  0.77286916636E+02  0.12700000000E+01 0. -1.
         21   -1    0    0  501  502  0.00000000000E+00 -0.00000000000E+00 -0.21558839529E+03  0.21558839529E+03  0.00000000000E+00 0.  1.
         25    2    1    2    0    0  0.45535359898E+02  0.23816608421E+02  0.10376590992E+02  0.13555212797E+03  0.12500402361E+03 0.  0.
    9000005    1    3    3    0    0  0.88801535364E+02  0.92540121062E+01  0.33353704999E+01  0.89350288860E+02  0.10000000000E+01 0.  0.
    9000005    1    3    3    0    0 -0.43266175465E+02  0.14562596315E+02  0.70412204919E+01  0.46201839107E+02  0.10000000000E+01 0.  0.
          4    1    1    2  501    0 -0.45535359898E+02 -0.23816608421E+02 -0.14868850485E+03  0.15732318396E+03  0.12700000000E+01 0.  1.
<mgrwt>
<rscale>  1 0.13515438E+03</rscale>
<asrwt>0</asrwt>
<pdfrwt beam="2">  1       21 0.33167445E-01 0.13515438E+03</pdfrwt>
<pdfrwt beam="1">  1        4 0.11889780E-01 0.13515438E+03</pdfrwt>
<totfact> 0.20199022E+04</totfact>
</mgrwt>
</event>
<event>
 6    4  0.3189516E-003  0.1267421E+03  0.7818608E-02  0.1232372E+00
          4   -1    0    0  502    0 -0.00000000000E+00  0.00000000000E+00  0.35196999283E+02  0.35219904295E+02  0.12700000000E+01 0.  1.
         21   -1    0    0  501  502  0.00000000000E+00 -0.00000000000E+00 -0.23646880708E+03  0.23646880708E+03  0.00000000000E+00 0.  1.
         25    2    1    2    0    0  0.71422993958E+01 -0.19685861959E+02 -0.82841018587E+02  0.15141398280E+03  0.12500005690E+03 0.  0.
    9000005    1    3    3    0    0 -0.20112461014E+02 -0.20301258528E+02 -0.10955927395E+03  0.11322935438E+03  0.10000000000E+01 0.  0.
    9000005    1    3    3    0    0  0.27254760410E+02  0.61539656846E+00  0.26718255359E+02  0.38184628417E+02  0.10000000000E+01 0.  0.
          4    1    1    2  501    0 -0.71422993958E+01  0.19685861959E+02 -0.11843078921E+03  0.12027472858E+03  0.12700000000E+01 0. -1.
<mgrwt>
<rscale>  1 0.12674210E+03</rscale>
<asrwt>0</asrwt>
<pdfrwt beam="2">  1       21 0.36379817E-01 0.12674210E+03</pdfrwt>
<pdfrwt beam="1">  1        4 0.54169471E-02 0.12674210E+03</pdfrwt>
<totfact> 0.61580512E+04</totfact>
</mgrwt>
</event>
<event>
 6    4  0.3189516E-003  0.1275390E+03  0.7818608E-02  0.1231154E+00
         21   -1    0    0  501  502  0.00000000000E+00  0.00000000000E+00  0.10587924390E+03  0.10587924390E+03  0.00000000000E+00 0.  1.
          4   -1    0    0  502    0 -0.00000000000E+00 -0.00000000000E+00 -0.39252101466E+03  0.39252306919E+03  0.12700000000E+01 0. -1.
         25    2    1    2    0    0 -0.75711186453E+01 -0.24167088651E+02 -0.38043373709E+03  0.40124308367E+03  0.12499925547E+03 0.  0.
    9000005    1    3    3    0    0  0.56141943602E+02 -0.29790445277E+02 -0.18761289955E+03  0.19808833519E+03  0.10000000000E+01 0.  0.
    9000005    1    3    3    0    0 -0.63713062247E+02  0.56233566265E+01 -0.19282083754E+03  0.20315474848E+03  0.10000000000E+01 0.  0.
          4    1    1    2  501    0  0.75711186453E+01  0.24167088651E+02  0.93791966333E+02  0.97159229412E+02  0.12700000000E+01 0.  1.
<mgrwt>
<rscale>  1 0.12753895E+03</rscale>
<asrwt>0</asrwt>
<pdfrwt beam="1">  1       21 0.16289114E-01 0.12753895E+03</pdfrwt>
<pdfrwt beam="2">  1        4 0.60388593E-01 0.12753895E+03</pdfrwt>
<totfact> 0.36308669E+03</totfact>
</mgrwt>
</event>
<event>
 6    4  0.3189516E-003  0.1276368E+03  0.7818608E-02  0.1231005E+00
          4   -1    0    0  502    0 -0.00000000000E+00  0.00000000000E+00  0.55141973199E+03  0.55142119449E+03  0.12700000000E+01 0.  1.
         21   -1    0    0  501  502  0.00000000000E+00 -0.00000000000E+00 -0.40119021023E+02  0.40119021023E+02  0.00000000000E+00 0. -1.
         25    2    1    2    0    0  0.45567192024E+01  0.25390159125E+02  0.53886027436E+03  0.55377030282E+03  0.12500291648E+03 0.  0.
    9000005    1    3    3    0    0 -0.29345567778E+02  0.61931293272E+02  0.20368764435E+03  0.21490999022E+03  0.10000000000E+01 0.  0.
    9000005    1    3    3    0    0  0.33902286981E+02 -0.36541134147E+02  0.33517263001E+03  0.33886031260E+03  0.10000000000E+01 0.  0.
          4    1    1    2  501    0 -0.45567192024E+01 -0.25390159125E+02 -0.27559563393E+02  0.37769912691E+02  0.12700000000E+01 0. -1.
<mgrwt>
<rscale>  1 0.12763680E+03</rscale>
<asrwt>0</asrwt>
<pdfrwt beam="2">  1       21 0.61721575E-02 0.12763680E+03</pdfrwt>
<pdfrwt beam="1">  1        4 0.84835458E-01 0.12763680E+03</pdfrwt>
<totfact> 0.95221266E+03</totfact>
</mgrwt>
</event>
<event>
 6    4  0.3189516E-003  0.1357724E+03  0.7818608E-02  0.1219133E+00
         -4   -1    0    0    0  501 -0.00000000000E+00  0.00000000000E+00  0.50308856104E+02  0.50324883532E+02  0.12700000000E+01 0.  1.
         21   -1    0    0  501  502  0.00000000000E+00 -0.00000000000E+00 -0.25159513592E+03  0.25159513592E+03  0.00000000000E+00 0. -1.
         25    2    1    2    0    0 -0.52932918878E+02 -0.23290533897E+01 -0.55284761698E+02  0.14659656796E+03  0.12500732167E+03 0.  0.
    9000005    1    3    3    0    0  0.33683951939E+02  0.18990438834E+02  0.48923160683E+01  0.38989487582E+02  0.10000000000E+01 0.  0.
    9000005    1    3    3    0    0 -0.86616870818E+02 -0.21319492224E+02 -0.60177077766E+02  0.10760708038E+03  0.10000000000E+01 0.  0.
         -4    1    1    2    0  502  0.52932918878E+02  0.23290533897E+01 -0.14600151812E+03  0.15532345149E+03  0.12700000000E+01 0. -1.
<mgrwt>
<rscale>  1 0.13577242E+03</rscale>
<asrwt>0</asrwt>
<pdfrwt beam="2">  1       21 0.38706943E-01 0.13577242E+03</pdfrwt>
<pdfrwt beam="1">  1       -4 0.77413036E-02 0.13577242E+03</pdfrwt>
<totfact> 0.30636538E+04</totfact>
</mgrwt>
</event>
<event>
 6    4  0.3189516E-003  0.1275708E+03  0.7818608E-02  0.1231105E+00
         21   -1    0    0  501  502  0.00000000000E+00  0.00000000000E+00  0.12179675177E+02  0.12179675177E+02  0.00000000000E+00 0. -1.
          4   -1    0    0  502    0 -0.00000000000E+00 -0.00000000000E+00 -0.54882920506E+03  0.54883067446E+03  0.12700000000E+01 0. -1.
         25    2    1    2    0    0  0.24713674211E+02  0.65660935892E+01 -0.34827671688E+03  0.37090561835E+03  0.12498170636E+03 0.  0.
    9000005    1    3    3    0    0  0.53955945284E+02 -0.11044391836E+01 -0.58664873818E+02  0.79718449794E+02  0.10000000000E+01 0.  0.
    9000005    1    3    3    0    0 -0.29242271073E+02  0.76705327729E+01 -0.28961184306E+03  0.29118716856E+03  0.10000000000E+01 0.  0.
          4    1    1    2  501    0 -0.24713674211E+02 -0.65660935892E+01 -0.18837281300E+03  0.19010473128E+03  0.12700000000E+01 0.  1.
<mgrwt>
<rscale>  1 0.12757079E+03</rscale>
<asrwt>0</asrwt>
<pdfrwt beam="1">  1       21 0.18737969E-02 0.12757079E+03</pdfrwt>
<pdfrwt beam="2">  1        4 0.84440438E-01 0.12757079E+03</pdfrwt>
<totfact> 0.68793851E+04</totfact>
</mgrwt>
</event>
<event>
 6    4  0.3189516E-003  0.1287324E+03  0.7818608E-02  0.1229349E+00
         21   -1    0    0  501  502  0.00000000000E+00  0.00000000000E+00  0.81759202750E+03  0.81759202750E+03  0.00000000000E+00 0.  1.
          4   -1    0    0  502    0 -0.00000000000E+00 -0.00000000000E+00 -0.10895015137E+02  0.10968785477E+02  0.12700000000E+01 0. -1.
         25    2    1    2    0    0 -0.97122553310E+00 -0.30759402489E+02  0.38937207434E+03  0.41010077795E+03  0.12499980671E+03 0.  0.
    9000005    1    3    3    0    0 -0.34077773436E+02  0.31712018231E+02  0.78337354745E+02  0.91130060304E+02  0.10000000000E+01 0.  0.
    9000005    1    3    3    0    0  0.33106547903E+02 -0.62471420720E+02  0.31103471959E+03  0.31897071764E+03  0.10000000000E+01 0.  0.
          4    1    1    2  501    0  0.97122553310E+00  0.30759402489E+02  0.41732493803E+03  0.41846003503E+03  0.12700000000E+01 0.  1.
<mgrwt>
<rscale>  1 0.12873242E+03</rscale>
<asrwt>0</asrwt>
<pdfrwt beam="1">  1       21 0.12578334E+00 0.12873242E+03</pdfrwt>
<pdfrwt beam="2">  1        4 0.16819073E-02 0.12873242E+03</pdfrwt>
<totfact> 0.25664925E+04</totfact>
</mgrwt>
</event>
<event>
 6    4  0.3189516E-003  0.1352193E+03  0.7818608E-02  0.1219910E+00
         -4   -1    0    0    0  501 -0.00000000000E+00  0.00000000000E+00  0.75286862693E+03  0.75286969810E+03  0.12700000000E+01 0.  1.
         21   -1    0    0  501  502  0.00000000000E+00 -0.00000000000E+00 -0.11589691891E+02  0.11589691891E+02  0.00000000000E+00 0.  1.
         25    2    1    2    0    0 -0.50665991645E+02  0.96195792798E+01  0.53163453526E+03  0.54856134398E+03  0.12499876002E+03 0.  0.
    9000005    1    3    3    0    0 -0.26763962773E+02 -0.48944346795E+02  0.12304474711E+03  0.13510317753E+03  0.10000000000E+01 0.  0.
    9000005    1    3    3    0    0 -0.23902028873E+02  0.58563926075E+02  0.40858978815E+03  0.41345816645E+03  0.10000000000E+01 0.  0.
         -4    1    1    2    0  502  0.50665991645E+02 -0.96195792798E+01  0.20964439978E+03  0.21589804602E+03  0.12700000000E+01 0. -1.
<mgrwt>
<rscale>  1 0.13521934E+03</rscale>
<asrwt>0</asrwt>
<pdfrwt beam="2">  1       21 0.17830301E-02 0.13521934E+03</pdfrwt>
<pdfrwt beam="1">  1       -4 0.11583134E+00 0.13521934E+03</pdfrwt>
<totfact> 0.36246217E+04</totfact>
</mgrwt>
</event>
<event>
 6    4  0.3189516E-003  0.1291089E+03  0.7818608E-02  0.1228784E+00
          4   -1    0    0  502    0 -0.00000000000E+00  0.00000000000E+00  0.57517983130E+03  0.57518123338E+03  0.12700000000E+01 0. -1.
         21   -1    0    0  501  502  0.00000000000E+00 -0.00000000000E+00 -0.14639480788E+02  0.14639480788E+02  0.00000000000E+00 0. -1.
         25    2    1    2    0    0 -0.31061186917E+02  0.88990821982E+01  0.52944425907E+03  0.54495902896E+03  0.12500051516E+03 0.  0.
    9000005    1    3    3    0    0 -0.60974294947E+02 -0.14590787622E+02  0.13691769629E+03  0.15059286599E+03  0.10000000000E+01 0.  0.
    9000005    1    3    3    0    0  0.29913108030E+02  0.23489869820E+02  0.39252656277E+03  0.39436616298E+03  0.10000000000E+01 0.  0.
          4    1    1    2  501    0  0.31061186917E+02 -0.88990821982E+01  0.31096091445E+02  0.44861685210E+02  0.12700000000E+01 0.  1.
<mgrwt>
<rscale>  1 0.12910895E+03</rscale>
<asrwt>0</asrwt>
<pdfrwt beam="2">  1       21 0.22522283E-02 0.12910895E+03</pdfrwt>
<pdfrwt beam="1">  1        4 0.88493533E-01 0.12910895E+03</pdfrwt>
<totfact> 0.46094636E+04</totfact>
</mgrwt>
</event>
<event>
 6    4  0.3189516E-003  0.1278226E+03  0.7818608E-02  0.1230723E+00
         -4   -1    0    0    0  501 -0.00000000000E+00  0.00000000000E+00  0.99681037562E+01  0.10048681132E+02  0.12700000000E+01 0.  1.
         21   -1    0    0  501  502  0.00000000000E+00 -0.00000000000E+00 -0.60801232337E+03  0.60801232337E+03  0.00000000000E+00 0.  1.
         25    2    1    2    0    0 -0.26198773067E+02 -0.48789168613E+01 -0.52373371653E+03  0.53910631301E+03  0.12501372468E+03 0.  0.
    9000005    1    3    3    0    0  0.49344538735E+02  0.66335159121E+01 -0.24961772413E+03  0.25453662848E+03  0.10000000000E+01 0.  0.
    9000005    1    3    3    0    0 -0.75543311802E+02 -0.11512432773E+02 -0.27411599241E+03  0.28456968454E+03  0.10000000000E+01 0.  0.
         -4    1    1    2    0  502  0.26198773067E+02  0.48789168613E+01 -0.74310503080E+02  0.78954691487E+02  0.12700000000E+01 0. -1.
<mgrwt>
<rscale>  1 0.12782258E+03</rscale>
<asrwt>0</asrwt>
<pdfrwt beam="2">  1       21 0.93540344E-01 0.12782258E+03</pdfrwt>
<pdfrwt beam="1">  1       -4 0.15398549E-02 0.12782258E+03</pdfrwt>
<totfact> 0.59454022E+04</totfact>
</mgrwt>
</event>
<event>
 6    4  0.3189516E-003  0.1274478E+03  0.7818608E-02  0.1231293E+00
         21   -1    0    0  501  502  0.00000000000E+00  0.00000000000E+00  0.30773474760E+02  0.30773474760E+02  0.00000000000E+00 0. -1.
         -4   -1    0    0    0  501 -0.00000000000E+00 -0.00000000000E+00 -0.34727499634E+03  0.34727731855E+03  0.12700000000E+01 0. -1.
         25    2    1    2    0    0 -0.24009644826E+02 -0.62971350638E+01 -0.32708447316E+03  0.35103730189E+03  0.12500727093E+03 0.  0.
    9000005    1    3    3    0    0  0.21835043236E+02 -0.55512677947E+02 -0.16962348379E+03  0.17980976830E+03  0.10000000000E+01 0.  0.
    9000005    1    3    3    0    0 -0.45844688062E+02  0.49215542884E+02 -0.15746098937E+03  0.17122753359E+03  0.10000000000E+01 0.  0.
         -4    1    1    2    0  502  0.24009644826E+02  0.62971350638E+01  0.10582951577E+02  0.27013491422E+02  0.12700000000E+01 0.  1.
<mgrwt>
<rscale>  1 0.12744777E+03</rscale>
<asrwt>0</asrwt>
<pdfrwt beam="1">  1       21 0.47343806E-02 0.12744777E+03</pdfrwt>
<pdfrwt beam="2">  1       -4 0.53429118E-01 0.12744777E+03</pdfrwt>
<totfact> 0.40065604E+04</totfact>
</mgrwt>
</event>
<event>
 6    4  0.3189516E-003  0.1271353E+03  0.7818608E-02  0.1231769E+00
         -4   -1    0    0    0  501 -0.00000000000E+00  0.00000000000E+00  0.31042816281E+03  0.31043076067E+03  0.12700000000E+01 0.  1.
         21   -1    0    0  501  502  0.00000000000E+00 -0.00000000000E+00 -0.33142729934E+02  0.33142729934E+02  0.00000000000E+00 0. -1.
         25    2    1    2    0    0  0.30920388537E+01 -0.23062524470E+02  0.29027387530E+03  0.31689478606E+03  0.12498776744E+03 0.  0.
    9000005    1    3    3    0    0  0.43485801747E+02 -0.55177625492E+02  0.21016047170E+03  0.22159424445E+03  0.10000000000E+01 0.  0.
    9000005    1    3    3    0    0 -0.40393762894E+02  0.32115101022E+02  0.80113403601E+02  0.95300541609E+02  0.10000000000E+01 0.  0.
         -4    1    1    2    0  502 -0.30920388537E+01  0.23062524470E+02 -0.12988442424E+02  0.26678704538E+02  0.12700000000E+01 0. -1.
<mgrwt>
<rscale>  1 0.12713529E+03</rscale>
<asrwt>0</asrwt>
<pdfrwt beam="2">  1       21 0.50988818E-02 0.12713529E+03</pdfrwt>
<pdfrwt beam="1">  1       -4 0.47760248E-01 0.12713529E+03</pdfrwt>
<totfact> 0.44448343E+04</totfact>
</mgrwt>
</event>
<event>
 6    4  0.3189516E-003  0.1389708E+03  0.7818608E-02  0.1214721E+00
         -4   -1    0    0    0  501 -0.00000000000E+00  0.00000000000E+00  0.58613529872E+02  0.58627287026E+02  0.12700000000E+01 0. -1.
         21   -1    0    0  501  502  0.00000000000E+00 -0.00000000000E+00 -0.33627234678E+03  0.33627234678E+03  0.00000000000E+00 0.  1.
         25    2    1    2    0    0 -0.21075619690E+02  0.56958880263E+02 -0.33030963365E+02  0.14284230815E+03  0.12499753866E+03 0.  0.
    9000005    1    3    3    0    0 -0.12135892970E+01  0.35600523026E+02  0.46235313030E+02  0.58374431130E+02  0.10000000000E+01 0.  0.
    9000005    1    3    3    0    0 -0.19862030393E+02  0.21358357237E+02 -0.79266276395E+02  0.84467877023E+02  0.10000000000E+01 0.  0.
         -4    1    1    2    0  502  0.21075619690E+02 -0.56958880263E+02 -0.24462785354E+03  0.25205732565E+03  0.12700000000E+01 0.  1.
<mgrwt>
<rscale>  1 0.13897079E+03</rscale>
<asrwt>0</asrwt>
<pdfrwt beam="2">  1       21 0.51734207E-01 0.13897079E+03</pdfrwt>
<pdfrwt beam="1">  1       -4 0.90187090E-02 0.13897079E+03</pdfrwt>
<totfact> 0.13199141E+04</totfact>
</mgrwt>
</event>
<event>
 6    4  0.3189516E-003  0.1288542E+03  0.7818608E-02  0.1229166E+00
         21   -1    0    0  501  502  0.00000000000E+00  0.00000000000E+00  0.50816129423E+02  0.50816129423E+02  0.00000000000E+00 0. -1.
          4   -1    0    0  502    0 -0.00000000000E+00 -0.00000000000E+00 -0.14482189131E+03  0.14482745977E+03  0.12700000000E+01 0. -1.
         25    2    1    2    0    0  0.11090105303E+02 -0.29292183813E+02 -0.10076555060E+03  0.16357600257E+03  0.12498955942E+03 0.  0.
    9000005    1    3    3    0    0  0.36571694534E+02 -0.53741712002E+02 -0.94896663643E+01  0.65701706353E+02  0.10000000000E+01 0.  0.
    9000005    1    3    3    0    0 -0.25481589231E+02  0.24449528188E+02 -0.91275884233E+02  0.97874296222E+02  0.10000000000E+01 0.  0.
          4    1    1    2  501    0 -0.11090105303E+02  0.29292183813E+02  0.67597887064E+01  0.32067586619E+02  0.12700000000E+01 0.  1.
<mgrwt>
<rscale>  1 0.12885423E+03</rscale>
<asrwt>0</asrwt>
<pdfrwt beam="1">  1       21 0.78178661E-02 0.12885423E+03</pdfrwt>
<pdfrwt beam="2">  1        4 0.22281940E-01 0.12885423E+03</pdfrwt>
<totfact> 0.92513633E+04</totfact>
</mgrwt>
</event>
<event>
 6    4  0.3189516E-003  0.1279546E+03  0.7818608E-02  0.1230523E+00
         21   -1    0    0  501  502  0.00000000000E+00  0.00000000000E+00  0.76940407431E+02  0.76940407431E+02  0.00000000000E+00 0.  1.
          4   -1    0    0  502    0 -0.00000000000E+00 -0.00000000000E+00 -0.83932872387E+02  0.83942480111E+02  0.12700000000E+01 0. -1.
         25    2    1    2    0    0 -0.26697420751E+02 -0.59719499230E+01 -0.21723731362E+02  0.12978562769E+03  0.12499588869E+03 0.  0.
    9000005    1    3    3    0    0  0.30227754237E+02 -0.27737791878E+02 -0.48223626438E+02  0.63321563241E+02  0.10000000000E+01 0.  0.
    9000005    1    3    3    0    0 -0.56925174988E+02  0.21765841955E+02  0.26499895076E+02  0.66464064444E+02  0.10000000000E+01 0.  0.
          4    1    1    2  501    0  0.26697420751E+02  0.59719499230E+01  0.14731266406E+02  0.31097259856E+02  0.12700000000E+01 0.  1.
<mgrwt>
<rscale>  1 0.12795464E+03</rscale>
<asrwt>0</asrwt>
<pdfrwt beam="1">  1       21 0.11836986E-01 0.12795464E+03</pdfrwt>
<pdfrwt beam="2">  1        4 0.12914295E-01 0.12795464E+03</pdfrwt>
<totfact> 0.11747487E+05</totfact>
</mgrwt>
</event>
<event>
 6    4  0.3189516E-003  0.1320664E+03  0.7818608E-02  0.1224421E+00
         -4   -1    0    0    0  501 -0.00000000000E+00  0.00000000000E+00  0.44580611339E+02  0.44598697373E+02  0.12700000000E+01 0.  1.
         21   -1    0    0  501  502  0.00000000000E+00 -0.00000000000E+00 -0.28280345793E+03  0.28280345793E+03  0.00000000000E+00 0. -1.
         25    2    1    2    0    0  0.38586127820E+02  0.18130097115E+02 -0.61643335770E+02  0.14574443809E+03  0.12499580276E+03 0.  0.
    9000005    1    3    3    0    0  0.30822501755E+02 -0.17625333554E+01  0.35048560465E+02  0.46717606198E+02  0.10000000000E+01 0.  0.
    9000005    1    3    3    0    0  0.77636260656E+01  0.19892630470E+02 -0.96691896234E+02  0.99026831890E+02  0.10000000000E+01 0.  0.
         -4    1    1    2    0  502 -0.38586127820E+02 -0.18130097115E+02 -0.17657951082E+03  0.18165771722E+03  0.12700000000E+01 0. -1.
<mgrwt>
<rscale>  1 0.13206642E+03</rscale>
<asrwt>0</asrwt>
<pdfrwt beam="2">  1       21 0.43508224E-01 0.13206642E+03</pdfrwt>
<pdfrwt beam="1">  1       -4 0.68601663E-02 0.13206642E+03</pdfrwt>
<totfact> 0.29474122E+04</totfact>
</mgrwt>
</event>
<event>
 6    4  0.3189516E-003  0.1307755E+03  0.7818608E-02  0.1226310E+00
         -4   -1    0    0    0  501 -0.00000000000E+00  0.00000000000E+00  0.68949197588E+01  0.70109071082E+01  0.12700000000E+01 0. -1.
         21   -1    0    0  501  502  0.00000000000E+00 -0.00000000000E+00 -0.12185530840E+04  0.12185530840E+04  0.00000000000E+00 0. -1.
         25    2    1    2    0    0  0.36810762800E+02  0.11094335538E+02 -0.67644900738E+03  0.68897423065E+03  0.12499645746E+03 0.  0.
    9000005    1    3    3    0    0  0.56267609109E+02 -0.39768038942E+02 -0.48700329259E+03  0.49185439690E+03  0.10000000000E+01 0.  0.
    9000005    1    3    3    0    0 -0.19456846309E+02  0.50862374480E+02 -0.18944571479E+03  0.19711983375E+03  0.10000000000E+01 0.  0.
         -4    1    1    2    0  502 -0.36810762800E+02 -0.11094335538E+02 -0.53520915688E+03  0.53658976047E+03  0.12700000000E+01 0.  1.
<mgrwt>
<rscale>  1 0.13077550E+03</rscale>
<asrwt>0</asrwt>
<pdfrwt beam="2">  1       21 0.18746971E+00 0.13077550E+03</pdfrwt>
<pdfrwt beam="1">  1       -4 0.10697299E-02 0.13077550E+03</pdfrwt>
<totfact> 0.17935291E+04</totfact>
</mgrwt>
</event>
<event>
 6    4  0.3189516E-003  0.1313456E+03  0.7818608E-02  0.1225473E+00
         21   -1    0    0  501  502  0.00000000000E+00  0.00000000000E+00  0.68293701516E+02  0.68293701516E+02  0.00000000000E+00 0.  1.
          4   -1    0    0  502    0 -0.00000000000E+00 -0.00000000000E+00 -0.16811747272E+03  0.16812226959E+03  0.12700000000E+01 0. -1.
         25    2    1    2    0    0  0.37203835724E+02 -0.15537359319E+02 -0.13094534725E+03  0.18546795522E+03  0.12500457400E+03 0.  0.
    9000005    1    3    3    0    0  0.70419060086E+02 -0.94124752212E+00 -0.27105881943E+02  0.75468263569E+02  0.10000000000E+01 0.  0.
    9000005    1    3    3    0    0 -0.33215224362E+02 -0.14596111796E+02 -0.10383946531E+03  0.10999969165E+03  0.10000000000E+01 0.  0.
          4    1    1    2  501    0 -0.37203835724E+02  0.15537359319E+02  0.31121576046E+02  0.50948015886E+02  0.12700000000E+01 0.  1.
<mgrwt>
<rscale>  1 0.13134564E+03</rscale>
<asrwt>0</asrwt>
<pdfrwt beam="1">  1       21 0.10506723E-01 0.13134564E+03</pdfrwt>
<pdfrwt beam="2">  1        4 0.25865504E-01 0.13134564E+03</pdfrwt>
<totfact> 0.42193939E+04</totfact>
</mgrwt>
</event>
<event>
 6    4  0.3189516E-003  0.1312944E+03  0.7818608E-02  0.1225548E+00
          4   -1    0    0  502    0 -0.00000000000E+00  0.00000000000E+00  0.20034246235E+03  0.20034648767E+03  0.12700000000E+01 0. -1.
         21   -1    0    0  501  502  0.00000000000E+00 -0.00000000000E+00 -0.36713783165E+02  0.36713783165E+02  0.00000000000E+00 0.  1.
         25    2    1    2    0    0  0.19882803524E+02 -0.34897588677E+02  0.12775924042E+03  0.18319565249E+03  0.12500022403E+03 0.  0.
    9000005    1    3    3    0    0 -0.48296023929E+02 -0.33235896325E+02  0.35792194899E+02  0.68696520636E+02  0.10000000000E+01 0.  0.
    9000005    1    3    3    0    0  0.68178827453E+02 -0.16616923516E+01  0.91967045517E+02  0.11449913185E+03  0.10000000000E+01 0.  0.
          4    1    1    2  501    0 -0.19882803524E+02  0.34897588677E+02  0.35869438768E+02  0.53864618340E+02  0.12700000000E+01 0.  1.
<mgrwt>
<rscale>  1 0.13129442E+03</rscale>
<asrwt>0</asrwt>
<pdfrwt beam="2">  1       21 0.56482745E-02 0.13129442E+03</pdfrwt>
<pdfrwt beam="1">  1        4 0.30823916E-01 0.13129442E+03</pdfrwt>
<totfact> 0.88438668E+04</totfact>
</mgrwt>
</event>
<event>
 6    4  0.3189516E-003  0.1429951E+03  0.7818608E-02  0.1209355E+00
         -4   -1    0    0    0  501 -0.00000000000E+00  0.00000000000E+00  0.44622665719E+02  0.44640734715E+02  0.12700000000E+01 0.  1.
         21   -1    0    0  501  502  0.00000000000E+00 -0.00000000000E+00 -0.46364479551E+03  0.46364479551E+03  0.00000000000E+00 0. -1.
         25    2    1    2    0    0 -0.66648440655E+02 -0.19528855866E+02 -0.83375575120E+02  0.16552670333E+03  0.12499684850E+03 0.  0.
    9000005    1    3    3    0    0  0.68959229159E+01 -0.56181219132E+02 -0.14849753443E+02  0.58526902476E+02  0.10000000000E+01 0.  0.
    9000005    1    3    3    0    0 -0.73544363571E+02  0.36652363266E+02 -0.68525821677E+02  0.10699980085E+03  0.10000000000E+01 0.  0.
         -4    1    1    2    0  502  0.66648440655E+02  0.19528855866E+02 -0.33564655467E+03  0.34275882689E+03  0.12700000000E+01 0. -1.
<mgrwt>
<rscale>  1 0.14299512E+03</rscale>
<asrwt>0</asrwt>
<pdfrwt beam="2">  1       21 0.71329967E-01 0.14299512E+03</pdfrwt>
<pdfrwt beam="1">  1       -4 0.68665494E-02 0.14299512E+03</pdfrwt>
<totfact> 0.10467553E+04</totfact>
</mgrwt>
</event>
<event>
 6    4  0.3189516E-003  0.1272192E+03  0.7818608E-02  0.1231641E+00
         21   -1    0    0  501  502  0.00000000000E+00  0.00000000000E+00  0.32668471927E+02  0.32668471927E+02  0.00000000000E+00 0. -1.
          4   -1    0    0  502    0 -0.00000000000E+00 -0.00000000000E+00 -0.32215678950E+03  0.32215929277E+03  0.12700000000E+01 0. -1.
         25    2    1    2    0    0 -0.19280232684E+02  0.13681045849E+02 -0.30224972017E+03  0.32793232486E+03  0.12500327177E+03 0.  0.
    9000005    1    3    3    0    0 -0.26635249238E+02 -0.10857903152E+02 -0.30088570120E+03  0.30225905404E+03  0.10000000000E+01 0.  0.
    9000005    1    3    3    0    0  0.73550165535E+01  0.24538949001E+02 -0.13640189711E+01  0.25673270815E+02  0.10000000000E+01 0.  0.
          4    1    1    2  501    0  0.19280232684E+02 -0.13681045849E+02  0.12761402602E+02  0.26895439841E+02  0.12700000000E+01 0.  1.
<mgrwt>
<rscale>  1 0.12721917E+03</rscale>
<asrwt>0</asrwt>
<pdfrwt beam="1">  1       21 0.50259189E-02 0.12721917E+03</pdfrwt>
<pdfrwt beam="2">  1        4 0.49564673E-01 0.12721917E+03</pdfrwt>
<totfact> 0.42246397E+04</totfact>
</mgrwt>
</event>
<event>
 6    4  0.3189516E-003  0.1382089E+03  0.7818608E-02  0.1215760E+00
          4   -1    0    0  502    0 -0.00000000000E+00  0.00000000000E+00  0.13155556291E+02  0.13216715225E+02  0.12700000000E+01 0. -1.
         21   -1    0    0  501  502  0.00000000000E+00 -0.00000000000E+00 -0.86227687605E+03  0.86227687605E+03  0.00000000000E+00 0. -1.
         25    2    1    2    0    0  0.29029051948E+02 -0.51333379398E+02 -0.41561589435E+03  0.43799345589E+03  0.12499557622E+03 0.  0.
    9000005    1    3    3    0    0  0.75845798285E+00 -0.12151666911E+02  0.60047061660E+01  0.13612301913E+02  0.10000000000E+01 0.  0.
    9000005    1    3    3    0    0  0.28270593965E+02 -0.39181712487E+02 -0.42162060051E+03  0.42438115398E+03  0.10000000000E+01 0.  0.
          4    1    1    2  501    0 -0.29029051948E+02  0.51333379398E+02 -0.43350542541E+03  0.43750013538E+03  0.12700000000E+01 0.  1.
<mgrwt>
<rscale>  1 0.13820888E+03</rscale>
<asrwt>0</asrwt>
<pdfrwt beam="2">  1       21 0.13265798E+00 0.13820888E+03</pdfrwt>
<pdfrwt beam="1">  1        4 0.20287082E-02 0.13820888E+03</pdfrwt>
<totfact> 0.16942022E+04</totfact>
</mgrwt>
</event>
<event>
 6    4  0.3189516E-003  0.1275314E+03  0.7818608E-02  0.1231165E+00
         -4   -1    0    0    0  501 -0.00000000000E+00  0.00000000000E+00  0.80427624390E+03  0.80427724660E+03  0.12700000000E+01 0.  1.
         21   -1    0    0  501  502  0.00000000000E+00 -0.00000000000E+00 -0.74952747678E+01  0.74952747678E+01  0.00000000000E+00 0. -1.
         25    2    1    2    0    0 -0.25237343598E+02  0.18833743372E+01  0.71020420901E+03  0.72156376955E+03  0.12499513762E+03 0.  0.
    9000005    1    3    3    0    0  0.36679256049E+02  0.35519726310E+02  0.19559914344E+03  0.20215598853E+03  0.10000000000E+01 0.  0.
    9000005    1    3    3    0    0 -0.61916599647E+02 -0.33636351972E+02  0.51460506556E+03  0.51940778102E+03  0.10000000000E+01 0.  0.
         -4    1    1    2    0  502  0.25237343598E+02 -0.18833743372E+01  0.86576760125E+02  0.90208751818E+02  0.12700000000E+01 0. -1.
<mgrwt>
<rscale>  1 0.12753139E+03</rscale>
<asrwt>0</asrwt>
<pdfrwt beam="2">  1       21 0.11531198E-02 0.12753139E+03</pdfrwt>
<pdfrwt beam="1">  1       -4 0.12374309E+00 0.12753139E+03</pdfrwt>
<totfact> 0.61524216E+04</totfact>
</mgrwt>
</event>
<event>
 6    4  0.3189516E-003  0.1278539E+03  0.7818608E-02  0.1230675E+00
         21   -1    0    0  501  502  0.00000000000E+00  0.00000000000E+00  0.50692010915E+01  0.50692010915E+01  0.00000000000E+00 0. -1.
          4   -1    0    0  502    0 -0.00000000000E+00 -0.00000000000E+00 -0.22461668808E+04  0.22461672399E+04  0.12700000000E+01 0.  1.
         25    2    1    2    0    0 -0.23078634308E+02 -0.13777998093E+02 -0.21877863330E+04  0.21915190299E+04  0.12499665162E+03 0.  0.
    9000005    1    3    3    0    0  0.20030699541E+01 -0.61155912207E+02 -0.16333986288E+04  0.16345446273E+04  0.10000000000E+01 0.  0.
    9000005    1    3    3    0    0 -0.25081704262E+02  0.47377914115E+02 -0.55438770417E+03  0.55697440262E+03  0.10000000000E+01 0.  0.
          4    1    1    2  501    0  0.23078634308E+02  0.13777998093E+02 -0.53311346715E+02  0.59717411042E+02  0.12700000000E+01 0. -1.
<mgrwt>
<rscale>  1 0.12785390E+03</rscale>
<asrwt>0</asrwt>
<pdfrwt beam="1">  1       21 0.77987791E-03 0.12785390E+03</pdfrwt>
<pdfrwt beam="2">  1        4 0.34557604E+00 0.12785390E+03</pdfrwt>
<totfact> 0.46009402E+03</totfact>
</mgrwt>
</event>
<event>
 6    4  0.3189516E-003  0.1277093E+03  0.7818608E-02  0.1230895E+00
          4   -1    0    0  502    0 -0.00000000000E+00  0.00000000000E+00  0.19960164519E+03  0.19960568544E+03  0.12700000000E+01 0. -1.
         21   -1    0    0  501  502  0.00000000000E+00 -0.00000000000E+00 -0.40945606041E+02  0.40945606041E+02  0.00000000000E+00 0. -1.
         25    2    1    2    0    0 -0.61843297638E+01 -0.25471854557E+02  0.16944096645E+03  0.21217896578E+03  0.12499044403E+03 0.  0.
    9000005    1    3    3    0    0 -0.56239244216E+02 -0.14643070071E+02  0.33910422084E+02  0.67291818351E+02  0.10000000000E+01 0.  0.
    9000005    1    3    3    0    0  0.50054914452E+02 -0.10828784486E+02  0.13553054436E+03  0.14488714743E+03  0.10000000000E+01 0.  0.
          4    1    1    2  501    0  0.61843297638E+01  0.25471854557E+02 -0.10784927299E+02  0.28372325707E+02  0.12700000000E+01 0.  1.
<mgrwt>
<rscale>  1 0.12770933E+03</rscale>
<asrwt>0</asrwt>
<pdfrwt beam="2">  1       21 0.62993241E-02 0.12770933E+03</pdfrwt>
<pdfrwt beam="1">  1        4 0.30709771E-01 0.12770933E+03</pdfrwt>
<totfact> 0.73734148E+04</totfact>
</mgrwt>
</event>
<event>
 6    4  0.3189516E-003  0.1440487E+03  0.7818608E-02  0.1207983E+00
         21   -1    0    0  501  502  0.00000000000E+00  0.00000000000E+00  0.35819062655E+02  0.35819062655E+02  0.00000000000E+00 0.  1.
         -4   -1    0    0    0  501 -0.00000000000E+00 -0.00000000000E+00 -0.39107427777E+03  0.39107633991E+03  0.12700000000E+01 0. -1.
         25    2    1    2    0    0  0.43078931312E+02  0.57194251249E+02 -0.31092122325E+03  0.34266896708E+03  0.12499214869E+03 0.  0.
    9000005    1    3    3    0    0 -0.60056493895E+01  0.81657587459E+02 -0.13021567525E+03  0.15382181735E+03  0.10000000000E+01 0.  0.
    9000005    1    3    3    0    0  0.49084580701E+02 -0.24463336210E+02 -0.18070554800E+03  0.18884714973E+03  0.10000000000E+01 0.  0.
         -4    1    1    2    0  502 -0.43078931312E+02 -0.57194251249E+02 -0.44333991868E+02  0.84226435481E+02  0.12700000000E+01 0.  1.
<mgrwt>
<rscale>  1 0.14404865E+03</rscale>
<asrwt>0</asrwt>
<pdfrwt beam="1">  1       21 0.55106251E-02 0.14404865E+03</pdfrwt>
<pdfrwt beam="2">  1       -4 0.60167163E-01 0.14404865E+03</pdfrwt>
<totfact> 0.24585241E+04</totfact>
</mgrwt>
</event>
<event>
 6    4  0.3189516E-003  0.1377516E+03  0.7818608E-02  0.1216387E+00
          4   -1    0    0  502    0 -0.00000000000E+00  0.00000000000E+00  0.93943800018E+03  0.93943885862E+03  0.12700000000E+01 0. -1.
         21   -1    0    0  501  502  0.00000000000E+00 -0.00000000000E+00 -0.14502376036E+02  0.14502376036E+02  0.00000000000E+00 0.  1.
         25    2    1    2    0    0  0.56621314748E+02  0.11996402190E+02  0.83957656567E+03  0.85080216004E+03  0.12500247578E+03 0.  0.
    9000005    1    3    3    0    0  0.41072195190E+02 -0.41411458161E+02  0.66549388579E+03  0.66804561679E+03  0.10000000000E+01 0.  0.
    9000005    1    3    3    0    0  0.15549119558E+02  0.53407860351E+02  0.17408267988E+03  0.18275654325E+03  0.10000000000E+01 0.  0.
          4    1    1    2  501    0 -0.56621314748E+02 -0.11996402190E+02  0.85359058468E+02  0.10313907461E+03  0.12700000000E+01 0.  1.
<mgrwt>
<rscale>  1 0.13775161E+03</rscale>
<asrwt>0</asrwt>
<pdfrwt beam="2">  1       21 0.22311355E-02 0.13775161E+03</pdfrwt>
<pdfrwt beam="1">  1        4 0.14453322E+00 0.13775161E+03</pdfrwt>
<totfact> 0.14701795E+04</totfact>
</mgrwt>
</event>
<event>
 6    4  0.3189516E-003  0.1345543E+03  0.7818608E-02  0.1220850E+00
          4   -1    0    0  502    0 -0.00000000000E+00  0.00000000000E+00  0.79298097249E+02  0.79308266450E+02  0.12700000000E+01 0. -1.
         21   -1    0    0  501  502  0.00000000000E+00 -0.00000000000E+00 -0.17881375525E+03  0.17881375525E+03  0.00000000000E+00 0.  1.
         25    2    1    2    0    0 -0.21709216098E+02  0.44809665678E+02  0.12895150864E+02  0.13517081572E+03  0.12500267319E+03 0.  0.
    9000005    1    3    3    0    0  0.41160111949E+02  0.46704163235E+02  0.31220378064E+02  0.69650166443E+02  0.10000000000E+01 0.  0.
    9000005    1    3    3    0    0 -0.62869328047E+02 -0.18944975570E+01 -0.18325227199E+02  0.65520649279E+02  0.10000000000E+01 0.  0.
          4    1    1    2  501    0  0.21709216098E+02 -0.44809665678E+02 -0.11241080887E+03  0.12295120598E+03  0.12700000000E+01 0.  1.
<mgrwt>
<rscale>  1 0.13455432E+03</rscale>
<asrwt>0</asrwt>
<pdfrwt beam="2">  1       21 0.27509808E-01 0.13455432E+03</pdfrwt>
<pdfrwt beam="1">  1        4 0.12200836E-01 0.13455432E+03</pdfrwt>
<totfact> 0.27730725E+04</totfact>
</mgrwt>
</event>
<event>
 6    4  0.3189516E-003  0.1323495E+03  0.7818608E-02  0.1224011E+00
          4   -1    0    0  502    0 -0.00000000000E+00  0.00000000000E+00  0.19824843591E+04  0.19824847659E+04  0.12700000000E+01 0.  1.
         21   -1    0    0  501  502  0.00000000000E+00 -0.00000000000E+00 -0.39020531474E+01  0.39020531474E+01  0.00000000000E+00 0.  1.
         25    2    1    2    0    0 -0.39095903143E+02 -0.19054397295E+02  0.14681513742E+04  0.14741047593E+04  0.12499929694E+03 0.  0.
    9000005    1    3    3    0    0  0.38701892612E+02 -0.10826955298E+02  0.23021672386E+03  0.23370023406E+03  0.10000000000E+01 0.  0.
    9000005    1    3    3    0    0 -0.77797795755E+02 -0.82274419970E+01  0.12379346503E+04  0.12404045252E+04  0.10000000000E+01 0.  0.
          4    1    1    2  501    0  0.39095903143E+02  0.19054397295E+02  0.51043093183E+03  0.51228205978E+03  0.12700000000E+01 0. -1.
<mgrwt>
<rscale>  1 0.13234948E+03</rscale>
<asrwt>0</asrwt>
<pdfrwt beam="2">  1       21 0.60031745E-03 0.13234948E+03</pdfrwt>
<pdfrwt beam="1">  1        4 0.30501272E+00 0.13234948E+03</pdfrwt>
<totfact> 0.12024369E+04</totfact>
</mgrwt>
</event>
<event>
 6    4  0.3189516E-003  0.1269520E+03  0.7818608E-02  0.1232050E+00
         21   -1    0    0  501  502  0.00000000000E+00  0.00000000000E+00  0.65796151376E+01  0.65796151376E+01  0.00000000000E+00 0.  1.
         -4   -1    0    0    0  501 -0.00000000000E+00 -0.00000000000E+00 -0.93670797264E+03  0.93670883358E+03  0.12700000000E+01 0.  1.
         25    2    1    2    0    0 -0.55910639806E+01 -0.21445617819E+02 -0.86959663107E+03  0.87881459878E+03  0.12500249499E+03 0.  0.
    9000005    1    3    3    0    0 -0.50613032579E+02 -0.10686977633E+02 -0.17027631959E+03  0.17796324219E+03  0.10000000000E+01 0.  0.
    9000005    1    3    3    0    0  0.45021968598E+02 -0.10758640186E+02 -0.69932031148E+03  0.70085135660E+03  0.10000000000E+01 0.  0.
         -4    1    1    2    0  502  0.55910639806E+01  0.21445617819E+02 -0.60531726441E+02  0.64473849940E+02  0.12700000000E+01 0. -1.
<mgrwt>
<rscale>  1 0.12695195E+03</rscale>
<asrwt>0</asrwt>
<pdfrwt beam="1">  1       21 0.10122485E-02 0.12695195E+03</pdfrwt>
<pdfrwt beam="2">  1       -4 0.14411841E+00 0.12695195E+03</pdfrwt>
<totfact> 0.51895811E+04</totfact>
</mgrwt>
</event>
<event>
 6    4  0.3189516E-003  0.1277902E+03  0.7818608E-02  0.1230772E+00
         21   -1    0    0  501  502  0.00000000000E+00  0.00000000000E+00  0.50057190870E+01  0.50057190870E+01  0.00000000000E+00 0. -1.
         -4   -1    0    0    0  501 -0.00000000000E+00 -0.00000000000E+00 -0.13067633671E+04  0.13067639843E+04  0.12700000000E+01 0.  1.
         25    2    1    2    0    0  0.32985423897E+00 -0.26539349417E+02 -0.11924889939E+04  0.11993166129E+04  0.12500356621E+03 0.  0.
    9000005    1    3    3    0    0 -0.55261849222E+02  0.16183516154E+02 -0.55890115848E+03  0.56186055487E+03  0.10000000000E+01 0.  0.
    9000005    1    3    3    0    0  0.55591703461E+02 -0.42722865571E+02 -0.63358783544E+03  0.63745605805E+03  0.10000000000E+01 0.  0.
         -4    1    1    2    0  502 -0.32985423897E+00  0.26539349417E+02 -0.10926865415E+03  0.11245309045E+03  0.12700000000E+01 0. -1.
<mgrwt>
<rscale>  1 0.12779021E+03</rscale>
<asrwt>0</asrwt>
<pdfrwt beam="1">  1       21 0.77010977E-03 0.12779021E+03</pdfrwt>
<pdfrwt beam="2">  1       -4 0.20105318E+00 0.12779021E+03</pdfrwt>
<totfact> 0.32832324E+04</totfact>
</mgrwt>
</event>
<event>
 6    4  0.3189516E-003  0.1288959E+03  0.7818608E-02  0.1229103E+00
         21   -1    0    0  501  502  0.00000000000E+00  0.00000000000E+00  0.41980601903E+03  0.41980601903E+03  0.00000000000E+00 0. -1.
         -4   -1    0    0    0  501 -0.00000000000E+00 -0.00000000000E+00 -0.15485820378E+02  0.15537809781E+02  0.12700000000E+01 0. -1.
         25    2    1    2    0    0 -0.56741965023E+01 -0.30924434122E+02  0.34304463424E+03  0.36646113994E+03  0.12500251548E+03 0.  0.
    9000005    1    3    3    0    0  0.55028460665E+02 -0.40003471687E+01  0.96867907965E+02  0.11148329854E+03  0.10000000000E+01 0.  0.
    9000005    1    3    3    0    0 -0.60702657167E+02 -0.26924086953E+02  0.24617672627E+03  0.25497784140E+03  0.10000000000E+01 0.  0.
         -4    1    1    2    0  502  0.56741965023E+01  0.30924434122E+02  0.61275564411E+02  0.68882688867E+02  0.12700000000E+01 0.  1.
<mgrwt>
<rscale>  1 0.12889587E+03</rscale>
<asrwt>0</asrwt>
<pdfrwt beam="1">  1       21 0.64585533E-01 0.12889587E+03</pdfrwt>
<pdfrwt beam="2">  1       -4 0.23865812E-02 0.12889587E+03</pdfrwt>
<totfact> 0.69164227E+04</totfact>
</mgrwt>
</event>
<event>
 6    4  0.3189516E-003  0.1312389E+03  0.7818608E-02  0.1225629E+00
         21   -1    0    0  501  502  0.00000000000E+00  0.00000000000E+00  0.13120279678E+03  0.13120279678E+03  0.00000000000E+00 0. -1.
          4   -1    0    0  502    0 -0.00000000000E+00 -0.00000000000E+00 -0.11138099432E+03  0.11138823455E+03  0.12700000000E+01 0. -1.
         25    2    1    2    0    0 -0.25346865717E+02  0.30930906725E+02 -0.66736908887E+02  0.14723271758E+03  0.12499789408E+03 0.  0.
    9000005    1    3    3    0    0  0.33479932015E+02  0.12008640538E+02 -0.76774756106E+02  0.84619598618E+02  0.10000000000E+01 0.  0.
    9000005    1    3    3    0    0 -0.58826797731E+02  0.18922266187E+02  0.10037847218E+02  0.62613118959E+02  0.10000000000E+01 0.  0.
          4    1    1    2  501    0  0.25346865717E+02 -0.30930906725E+02  0.86558711345E+02  0.95358313755E+02  0.12700000000E+01 0.  1.
<mgrwt>
<rscale>  1 0.13123894E+03</rscale>
<asrwt>0</asrwt>
<pdfrwt beam="1">  1       21 0.20185046E-01 0.13123894E+03</pdfrwt>
<pdfrwt beam="2">  1        4 0.17136567E-01 0.13123894E+03</pdfrwt>
<totfact> 0.27418290E+04</totfact>
</mgrwt>
</event>
<event>
 6    4  0.3189516E-003  0.1320313E+03  0.7818608E-02  0.1224472E+00
         21   -1    0    0  501  502  0.00000000000E+00  0.00000000000E+00  0.28674728751E+02  0.28674728751E+02  0.00000000000E+00 0.  1.
         -4   -1    0    0    0  501 -0.00000000000E+00 -0.00000000000E+00 -0.40310483722E+03  0.40310683781E+03  0.12700000000E+01 0. -1.
         25    2    1    2    0    0  0.17045979951E+02  0.38946789638E+02 -0.36509666725E+03  0.38823683231E+03  0.12499937468E+03 0.  0.
    9000005    1    3    3    0    0 -0.34937928909E+02 -0.28948784746E+02 -0.10338514297E+03  0.11290783322E+03  0.10000000000E+01 0.  0.
    9000005    1    3    3    0    0  0.51983908859E+02  0.67895574384E+02 -0.26171152428E+03  0.27532899910E+03  0.10000000000E+01 0.  0.
         -4    1    1    2    0  502 -0.17045979951E+02 -0.38946789638E+02 -0.93334412124E+01  0.43544734245E+02  0.12700000000E+01 0.  1.
<mgrwt>
<rscale>  1 0.13203129E+03</rscale>
<asrwt>0</asrwt>
<pdfrwt beam="1">  1       21 0.44114969E-02 0.13203129E+03</pdfrwt>
<pdfrwt beam="2">  1       -4 0.62018443E-01 0.13203129E+03</pdfrwt>
<totfact> 0.33200557E+04</totfact>
</mgrwt>
</event>
<event>
 6    4  0.3189516E-003  0.1327790E+03  0.7818608E-02  0.1223390E+00
          4   -1    0    0  502    0 -0.00000000000E+00  0.00000000000E+00  0.11542355876E+03  0.11543054542E+03  0.12700000000E+01 0.  1.
         21   -1    0    0  501  502  0.00000000000E+00 -0.00000000000E+00 -0.89995201806E+03  0.89995201806E+03  0.00000000000E+00 0. -1.
         25    2    1    2    0    0  0.37014276418E+01 -0.44641048121E+02  0.76465762334E+02  0.15322295742E+03  0.12499495240E+03 0.  0.
    9000005    1    3    3    0    0 -0.40070012756E+02 -0.69077931579E+02  0.31431376171E+02  0.85827140005E+02  0.10000000000E+01 0.  0.
    9000005    1    3    3    0    0  0.43771440398E+02  0.24436883457E+02  0.45034386163E+02  0.67395817412E+02  0.10000000000E+01 0.  0.
          4    1    1    2  501    0 -0.37014276418E+01  0.44641048121E+02 -0.86099422163E+03  0.86215960606E+03  0.12700000000E+01 0. -1.
<mgrwt>
<rscale>  1 0.13277900E+03</rscale>
<asrwt>0</asrwt>
<pdfrwt beam="2">  1       21 0.13845415E+00 0.13277900E+03</pdfrwt>
<pdfrwt beam="1">  1        4 0.17758077E-01 0.13277900E+03</pdfrwt>
<totfact> 0.43679371E+02</totfact>
</mgrwt>
</event>
<event>
 6    4  0.3189516E-003  0.1268495E+03  0.7818608E-02  0.1232207E+00
         -4   -1    0    0    0  501 -0.00000000000E+00  0.00000000000E+00  0.33074732299E+02  0.33099105980E+02  0.12700000000E+01 0.  1.
         21   -1    0    0  501  502  0.00000000000E+00 -0.00000000000E+00 -0.20623749904E+03  0.20623749904E+03  0.00000000000E+00 0.  1.
         25    2    1    2    0    0 -0.27608884631E+01  0.21354827271E+02 -0.17666038371E+03  0.21748489165E+03  0.12500854279E+03 0.  0.
    9000005    1    3    3    0    0 -0.61773904638E+01  0.29413650003E+02  0.91752443087E+01  0.31440548143E+02  0.10000000000E+01 0.  0.
    9000005    1    3    3    0    0  0.34165020008E+01 -0.80588227319E+01 -0.18583562802E+03  0.18604434350E+03  0.10000000000E+01 0.  0.
         -4    1    1    2    0  502  0.27608884631E+01 -0.21354827271E+02  0.34976169662E+01  0.21851713373E+02  0.12700000000E+01 0. -1.
<mgrwt>
<rscale>  1 0.12684947E+03</rscale>
<asrwt>0</asrwt>
<pdfrwt beam="2">  1       21 0.31728846E-01 0.12684947E+03</pdfrwt>
<pdfrwt beam="1">  1       -4 0.50905961E-02 0.12684947E+03</pdfrwt>
<totfact> 0.88952745E+04</totfact>
</mgrwt>
</event>
<event>
 6    4  0.3189516E-003  0.1501117E+03  0.7818608E-02  0.1200336E+00
         -4   -1    0    0    0  501 -0.00000000000E+00  0.00000000000E+00  0.28690024274E+02  0.28718119591E+02  0.12700000000E+01 0.  1.
         21   -1    0    0  501  502  0.00000000000E+00 -0.00000000000E+00 -0.78999699396E+03  0.78999699396E+03  0.00000000000E+00 0. -1.
         25    2    1    2    0    0 -0.72636307322E+02 -0.40372947333E+02 -0.19371013850E+03  0.24506558318E+03  0.12501005674E+03 0.  0.
    9000005    1    3    3    0    0 -0.69634322427E+02 -0.57577547963E+02 -0.56124495169E+02  0.10637232651E+03  0.10000000000E+01 0.  0.
    9000005    1    3    3    0    0 -0.30019848949E+01  0.17204600630E+02 -0.13758564333E+03  0.13869325667E+03  0.10000000000E+01 0.  0.
         -4    1    1    2    0  502  0.72636307322E+02  0.40372947333E+02 -0.56759683119E+03  0.57364953037E+03  0.12700000000E+01 0. -1.
<mgrwt>
<rscale>  1 0.15011170E+03</rscale>
<asrwt>0</asrwt>
<pdfrwt beam="2">  1       21 0.12153799E+00 0.15011170E+03</pdfrwt>
<pdfrwt beam="1">  1       -4 0.44160899E-02 0.15011170E+03</pdfrwt>
<totfact> 0.62398613E+03</totfact>
</mgrwt>
</event>
<event>
 6    4  0.3189516E-003  0.1269281E+03  0.7818608E-02  0.1232086E+00
         21   -1    0    0  501  502  0.00000000000E+00  0.00000000000E+00  0.12812933897E+03  0.12812933897E+03  0.00000000000E+00 0. -1.
         -4   -1    0    0    0  501 -0.00000000000E+00 -0.00000000000E+00 -0.79320992618E+02  0.79331158885E+02  0.12700000000E+01 0. -1.
         25    2    1    2    0    0 -0.49872113850E+01  0.21452443763E+02 -0.25916685043E+02  0.12954693782E+03  0.12500261963E+03 0.  0.
    9000005    1    3    3    0    0  0.11592735807E+02 -0.14944854017E+02 -0.68527885409E+02  0.71097195892E+02  0.10000000000E+01 0.  0.
    9000005    1    3    3    0    0 -0.16579947192E+02  0.36397297779E+02  0.42611200366E+02  0.58449741926E+02  0.10000000000E+01 0.  0.
         -4    1    1    2    0  502  0.49872113850E+01 -0.21452443763E+02  0.74725031389E+02  0.77913560032E+02  0.12700000000E+01 0.  1.
<mgrwt>
<rscale>  1 0.12692807E+03</rscale>
<asrwt>0</asrwt>
<pdfrwt beam="1">  1       21 0.19712206E-01 0.12692807E+03</pdfrwt>
<pdfrwt beam="2">  1       -4 0.12204496E-01 0.12692807E+03</pdfrwt>
<totfact> 0.51480825E+04</totfact>
</mgrwt>
</event>
<event>
 6    4  0.3189516E-003  0.2801912E+03  0.7818608E-02  0.1095585E+00
          4   -1    0    0  502    0 -0.00000000000E+00  0.00000000000E+00  0.14654286567E+03  0.14654836873E+03  0.12700000000E+01 0. -1.
         21   -1    0    0  501  502  0.00000000000E+00 -0.00000000000E+00 -0.55196606427E+03  0.55196606427E+03  0.00000000000E+00 0.  1.
         25    2    1    2    0    0 -0.22528494878E+03  0.11013054622E+03 -0.87376443959E+02  0.29349912910E+03  0.12500020185E+03 0.  0.
    9000005    1    3    3    0    0 -0.35335275362E+02 -0.19702373946E+02  0.12953739170E+02  0.42491935499E+02  0.10000000000E+01 0.  0.
    9000005    1    3    3    0    0 -0.18994967342E+03  0.12983292016E+03 -0.10033018313E+03  0.25100719360E+03  0.10000000000E+01 0.  0.
          4    1    1    2  501    0  0.22528494878E+03 -0.11013054622E+03 -0.31804675465E+03  0.40501530391E+03  0.12700000000E+01 0.  1.
<mgrwt>
<rscale>  1 0.28019118E+03</rscale>
<asrwt>0</asrwt>
<pdfrwt beam="2">  1       21 0.84917856E-01 0.28019118E+03</pdfrwt>
<pdfrwt beam="1">  1        4 0.22545592E-01 0.28019118E+03</pdfrwt>
<totfact> 0.91094711E+02</totfact>
</mgrwt>
</event>
<event>
 6    4  0.3189516E-003  0.1294103E+03  0.7818608E-02  0.1228333E+00
         21   -1    0    0  501  502  0.00000000000E+00  0.00000000000E+00  0.97066053176E+03  0.97066053176E+03  0.00000000000E+00 0.  1.
          4   -1    0    0  502    0 -0.00000000000E+00 -0.00000000000E+00 -0.18639711422E+02  0.18682926481E+02  0.12700000000E+01 0.  1.
         25    2    1    2    0    0 -0.13502335445E+02  0.30650663858E+02  0.21071904655E+03  0.24728435751E+03  0.12500104253E+03 0.  0.
    9000005    1    3    3    0    0 -0.10597652161E+02  0.64734796042E+02  0.48736215459E+02  0.81725900100E+02  0.10000000000E+01 0.  0.
    9000005    1    3    3    0    0 -0.29046832840E+01 -0.34084132184E+02  0.16198283109E+03  0.16555845741E+03  0.10000000000E+01 0.  0.
          4    1    1    2  501    0  0.13502335445E+02 -0.30650663858E+02  0.74130177379E+03  0.74205910073E+03  0.12700000000E+01 0. -1.
<mgrwt>
<rscale>  1 0.12941034E+03</rscale>
<asrwt>0</asrwt>
<pdfrwt beam="1">  1       21 0.14933235E+00 0.12941034E+03</pdfrwt>
<pdfrwt beam="2">  1        4 0.28710368E-02 0.12941034E+03</pdfrwt>
<totfact> 0.72863222E+03</totfact>
</mgrwt>
</event>
<event>
 6    4  0.3189516E-003  0.1277876E+03  0.7818608E-02  0.1230776E+00
         -4   -1    0    0    0  501 -0.00000000000E+00  0.00000000000E+00  0.13911970926E+03  0.13912550595E+03  0.12700000000E+01 0. -1.
         21   -1    0    0  501  502  0.00000000000E+00 -0.00000000000E+00 -0.58873694521E+02  0.58873694521E+02  0.00000000000E+00 0. -1.
         25    2    1    2    0    0 -0.24092214486E+02 -0.10973262947E+02  0.10216385090E+03  0.16360658876E+03  0.12501526369E+03 0.  0.
    9000005    1    3    3    0    0 -0.60822842208E+00  0.51992202753E+02  0.16164266024E+02  0.54459549989E+02  0.10000000000E+01 0.  0.
    9000005    1    3    3    0    0 -0.23483986064E+02 -0.62965465700E+02  0.85999584880E+02  0.10914703877E+03  0.10000000000E+01 0.  0.
         -4    1    1    2    0  502  0.24092214486E+02  0.10973262947E+02 -0.21917836160E+02  0.34392611714E+02  0.12700000000E+01 0.  1.
<mgrwt>
<rscale>  1 0.12778757E+03</rscale>
<asrwt>0</asrwt>
<pdfrwt beam="2">  1       21 0.90574915E-02 0.12778757E+03</pdfrwt>
<pdfrwt beam="1">  1       -4 0.21404532E-01 0.12778757E+03</pdfrwt>
<totfact> 0.77059448E+04</totfact>
</mgrwt>
</event>
<event>
 6    4  0.3189516E-003  0.1269482E+03  0.7818608E-02  0.1232056E+00
         -4   -1    0    0    0  501 -0.00000000000E+00  0.00000000000E+00  0.49655874010E+03  0.49656036417E+03  0.12700000000E+01 0.  1.
         21   -1    0    0  501  502  0.00000000000E+00 -0.00000000000E+00 -0.11230776348E+02  0.11230776348E+02  0.00000000000E+00 0.  1.
         25    2    1    2    0    0  0.25420144145E+01  0.22227207253E+02  0.41112293768E+03  0.43027656529E+03  0.12496136271E+03 0.  0.
    9000005    1    3    3    0    0  0.87566715158E+01 -0.49969135317E+02  0.12035675573E+03  0.13061524578E+03  0.10000000000E+01 0.  0.
    9000005    1    3    3    0    0 -0.62146571014E+01  0.72196342570E+02  0.29076618195E+03  0.29966131951E+03  0.10000000000E+01 0.  0.
         -4    1    1    2    0  502 -0.25420144145E+01 -0.22227207253E+02  0.74205026067E+02  0.77514575230E+02  0.12700000000E+01 0. -1.
<mgrwt>
<rscale>  1 0.12694823E+03</rscale>
<asrwt>0</asrwt>
<pdfrwt beam="2">  1       21 0.17278121E-02 0.12694823E+03</pdfrwt>
<pdfrwt beam="1">  1       -4 0.76399284E-01 0.12694823E+03</pdfrwt>
<totfact> 0.97689288E+04</totfact>
</mgrwt>
</event>
<event>
 6    4  0.3189516E-003  0.1298628E+03  0.7818608E-02  0.1227659E+00
         -4   -1    0    0    0  501 -0.00000000000E+00  0.00000000000E+00  0.99637911499E+02  0.99646004977E+02  0.12700000000E+01 0.  1.
         21   -1    0    0  501  502  0.00000000000E+00 -0.00000000000E+00 -0.10156806116E+03  0.10156806116E+03  0.00000000000E+00 0. -1.
         25    2    1    2    0    0  0.33937772237E+02 -0.93014307354E+01  0.49421789391E+02  0.13894911980E+03  0.12500422244E+03 0.  0.
    9000005    1    3    3    0    0  0.19513943742E+01  0.28168257404E+02 -0.32677029298E+02  0.43197765092E+02  0.10000000000E+01 0.  0.
    9000005    1    3    3    0    0  0.31986377863E+02 -0.37469688139E+02  0.82098818690E+02  0.95751354707E+02  0.10000000000E+01 0.  0.
         -4    1    1    2    0  502 -0.33937772237E+02  0.93014307354E+01 -0.51351939051E+02  0.62264946338E+02  0.12700000000E+01 0. -1.
<mgrwt>
<rscale>  1 0.12986279E+03</rscale>
<asrwt>0</asrwt>
<pdfrwt beam="2">  1       21 0.15625856E-01 0.12986279E+03</pdfrwt>
<pdfrwt beam="1">  1       -4 0.15330143E-01 0.12986279E+03</pdfrwt>
<totfact> 0.53204988E+04</totfact>
</mgrwt>
</event>
<event>
 6    4  0.3189516E-003  0.1275725E+03  0.7818608E-02  0.1231103E+00
         -4   -1    0    0    0  501 -0.00000000000E+00  0.00000000000E+00  0.41057688789E+02  0.41077325968E+02  0.12700000000E+01 0. -1.
         21   -1    0    0  501  502  0.00000000000E+00 -0.00000000000E+00 -0.26594662606E+03  0.26594662606E+03  0.00000000000E+00 0.  1.
         25    2    1    2    0    0 -0.27298891328E+01  0.25336534160E+02 -0.61442062903E+02  0.14159757596E+03  0.12500141666E+03 0.  0.
    9000005    1    3    3    0    0  0.32754453895E+02  0.21437956728E+02 -0.88510725764E+02  0.96786304888E+02  0.10000000000E+01 0.  0.
    9000005    1    3    3    0    0 -0.35484343028E+02  0.38985774325E+01  0.27068662861E+02  0.44811271073E+02  0.10000000000E+01 0.  0.
         -4    1    1    2    0  502  0.27298891328E+01 -0.25336534160E+02 -0.16344687437E+03  0.16542637607E+03  0.12700000000E+01 0.  1.
<mgrwt>
<rscale>  1 0.12757251E+03</rscale>
<asrwt>0</asrwt>
<pdfrwt beam="2">  1       21 0.40914866E-01 0.12757251E+03</pdfrwt>
<pdfrwt beam="1">  1       -4 0.63183112E-02 0.12757251E+03</pdfrwt>
<totfact> 0.38018820E+04</totfact>
</mgrwt>
</event>
<event>
 6    4  0.3189516E-003  0.1458884E+03  0.7818608E-02  0.1205618E+00
          4   -1    0    0  502    0 -0.00000000000E+00  0.00000000000E+00  0.19011428076E+03  0.19011852263E+03  0.12700000000E+01 0. -1.
         21   -1    0    0  501  502  0.00000000000E+00 -0.00000000000E+00 -0.15958614367E+03  0.15958614367E+03  0.00000000000E+00 0.  1.
         25    2    1    2    0    0  0.47600357749E+02  0.58245364078E+02  0.14953514722E+03  0.20891191842E+03  0.12500045164E+03 0.  0.
    9000005    1    3    3    0    0  0.68256129070E+02  0.16163532309E+02  0.14589254273E+03  0.16188203408E+03  0.10000000000E+01 0.  0.
    9000005    1    3    3    0    0 -0.20655771321E+02  0.42081831768E+02  0.36426044889E+01  0.47029884343E+02  0.10000000000E+01 0.  0.
          4    1    1    2  501    0 -0.47600357749E+02 -0.58245364078E+02 -0.11900701013E+03  0.14079274788E+03  0.12700000000E+01 0.  1.
<mgrwt>
<rscale>  1 0.14588841E+03</rscale>
<asrwt>0</asrwt>
<pdfrwt beam="2">  1       21 0.24551715E-01 0.14588841E+03</pdfrwt>
<pdfrwt beam="1">  1        4 0.29249066E-01 0.14588841E+03</pdfrwt>
<totfact> 0.72322921E+03</totfact>
</mgrwt>
</event>
<event>
 6    4  0.3189516E-003  0.1325898E+03  0.7818608E-02  0.1223663E+00
         -4   -1    0    0    0  501 -0.00000000000E+00  0.00000000000E+00  0.42690391352E+03  0.42690580258E+03  0.12700000000E+01 0.  1.
         21   -1    0    0  501  502  0.00000000000E+00 -0.00000000000E+00 -0.13816079166E+03  0.13816079166E+03  0.00000000000E+00 0. -1.
         25    2    1    2    0    0  0.43583956075E+02 -0.74503062585E+01  0.41268821383E+03  0.43346466790E+03  0.12499995276E+03 0.  0.
    9000005    1    3    3    0    0  0.20164830719E+02  0.57827074299E+02  0.23117048231E+03  0.23914719904E+03  0.10000000000E+01 0.  0.
    9000005    1    3    3    0    0  0.23419125356E+02 -0.65277380557E+02  0.18151773153E+03  0.19431746886E+03  0.10000000000E+01 0.  0.
         -4    1    1    2    0  502 -0.43583956075E+02  0.74503062585E+01 -0.12394509197E+03  0.13160192633E+03  0.12700000000E+01 0. -1.
<mgrwt>
<rscale>  1 0.13258981E+03</rscale>
<asrwt>0</asrwt>
<pdfrwt beam="2">  1       21 0.21255507E-01 0.13258981E+03</pdfrwt>
<pdfrwt beam="1">  1       -4 0.65678119E-01 0.13258981E+03</pdfrwt>
<totfact> 0.18687739E+03</totfact>
</mgrwt>
</event>
<event>
 6    4  0.3189516E-003  0.1302094E+03  0.7818608E-02  0.1227145E+00
          4   -1    0    0  502    0 -0.00000000000E+00  0.00000000000E+00  0.76778846558E+02  0.76789349383E+02  0.12700000000E+01 0. -1.
         21   -1    0    0  501  502  0.00000000000E+00 -0.00000000000E+00 -0.97437780585E+02  0.97437780585E+02  0.00000000000E+00 0.  1.
         25    2    1    2    0    0 -0.65256089548E+01 -0.35871134086E+02 -0.35311638769E+02  0.13491254630E+03  0.12500064593E+03 0.  0.
    9000005    1    3    3    0    0 -0.39316136590E+02  0.34397252473E+02 -0.19492858187E+02  0.55766487197E+02  0.10000000000E+01 0.  0.
    9000005    1    3    3    0    0  0.32790527635E+02 -0.70268386559E+02 -0.15818780583E+02  0.79146059101E+02  0.10000000000E+01 0.  0.
          4    1    1    2  501    0  0.65256089548E+01  0.35871134086E+02  0.14652704742E+02  0.39314583669E+02  0.12700000000E+01 0.  1.
<mgrwt>
<rscale>  1 0.13020938E+03</rscale>
<asrwt>0</asrwt>
<pdfrwt beam="2">  1       21 0.14990428E-01 0.13020938E+03</pdfrwt>
<pdfrwt beam="1">  1        4 0.11813575E-01 0.13020938E+03</pdfrwt>
<totfact> 0.89969022E+04</totfact>
</mgrwt>
</event>
<event>
 6    4  0.3189516E-003  0.1276602E+03  0.7818608E-02  0.1230969E+00
         21   -1    0    0  501  502  0.00000000000E+00  0.00000000000E+00  0.27150853279E+02  0.27150853279E+02  0.00000000000E+00 0. -1.
         -4   -1    0    0    0  501 -0.00000000000E+00 -0.00000000000E+00 -0.21880143479E+03  0.21880512052E+03  0.12700000000E+01 0. -1.
         25    2    1    2    0    0 -0.22258215826E+01 -0.25813712985E+02 -0.16666986894E+03  0.20994276844E+03  0.12500327495E+03 0.  0.
    9000005    1    3    3    0    0 -0.58746972819E+02 -0.26890832095E+02 -0.55328437521E+02  0.85067970851E+02  0.10000000000E+01 0.  0.
    9000005    1    3    3    0    0  0.56521151236E+02  0.10771191104E+01 -0.11134143142E+03  0.12487479759E+03  0.10000000000E+01 0.  0.
         -4    1    1    2    0  502  0.22258215826E+01  0.25813712985E+02 -0.24980712574E+02  0.36013205363E+02  0.12700000000E+01 0.  1.
<mgrwt>
<rscale>  1 0.12766018E+03</rscale>
<asrwt>0</asrwt>
<pdfrwt beam="1">  1       21 0.41770544E-02 0.12766018E+03</pdfrwt>
<pdfrwt beam="2">  1       -4 0.33664327E-01 0.12766018E+03</pdfrwt>
<totfact> 0.12350096E+05</totfact>
</mgrwt>
</event>
<event>
 6    4  0.3189516E-003  0.1269798E+03  0.7818608E-02  0.1232007E+00
          4   -1    0    0  502    0 -0.00000000000E+00  0.00000000000E+00  0.65931198138E+03  0.65931320455E+03  0.12700000000E+01 0. -1.
         21   -1    0    0  501  502  0.00000000000E+00 -0.00000000000E+00 -0.87736192118E+01  0.87736192118E+01  0.00000000000E+00 0. -1.
         25    2    1    2    0    0  0.80577562017E+01 -0.20847593160E+02  0.59079596478E+03  0.60428779147E+03  0.12499725334E+03 0.  0.
    9000005    1    3    3    0    0 -0.53647386355E+02  0.13323564266E+02  0.30053302802E+03  0.30557594859E+03  0.10000000000E+01 0.  0.
    9000005    1    3    3    0    0  0.61705142557E+02 -0.34171157426E+02  0.29026293676E+03  0.29871184288E+03  0.10000000000E+01 0.  0.
          4    1    1    2  501    0 -0.80577562017E+01  0.20847593160E+02  0.59742397385E+02  0.63799032288E+02  0.12700000000E+01 0.  1.
<mgrwt>
<rscale>  1 0.12697977E+03</rscale>
<asrwt>0</asrwt>
<pdfrwt beam="2">  1       21 0.13497881E-02 0.12697977E+03</pdfrwt>
<pdfrwt beam="1">  1        4 0.10143974E+00 0.12697977E+03</pdfrwt>
<totfact> 0.76616600E+04</totfact>
</mgrwt>
</event>
<event>
 6    4  0.3189516E-003  0.1271559E+03  0.7818608E-02  0.1231738E+00
         21   -1    0    0  501  502  0.00000000000E+00  0.00000000000E+00  0.34689163001E+02  0.34689163001E+02  0.00000000000E+00 0.  1.
         -4   -1    0    0    0  501 -0.00000000000E+00 -0.00000000000E+00 -0.17331293136E+03  0.17331758444E+03  0.12700000000E+01 0.  1.
         25    2    1    2    0    0  0.26802751599E+01  0.23170925843E+02 -0.13294859848E+03  0.18396727713E+03  0.12499821415E+03 0.  0.
    9000005    1    3    3    0    0  0.22635634349E+02 -0.38566264423E+02 -0.10341257397E+03  0.11267159868E+03  0.10000000000E+01 0.  0.
    9000005    1    3    3    0    0 -0.19955359189E+02  0.61737190266E+02 -0.29536024503E+02  0.71295678451E+02  0.10000000000E+01 0.  0.
         -4    1    1    2    0  502 -0.26802751599E+01 -0.23170925843E+02 -0.56751698775E+01  0.24039470304E+02  0.12700000000E+01 0. -1.
<mgrwt>
<rscale>  1 0.12715592E+03</rscale>
<asrwt>0</asrwt>
<pdfrwt beam="1">  1       21 0.53367943E-02 0.12715592E+03</pdfrwt>
<pdfrwt beam="2">  1       -4 0.26665674E-01 0.12715592E+03</pdfrwt>
<totfact> 0.12713639E+05</totfact>
</mgrwt>
</event>
<event>
 6    4  0.3189516E-003  0.1311617E+03  0.7818608E-02  0.1225742E+00
         21   -1    0    0  501  502  0.00000000000E+00  0.00000000000E+00  0.60834056748E+03  0.60834056748E+03  0.00000000000E+00 0.  1.
          4   -1    0    0  502    0 -0.00000000000E+00 -0.00000000000E+00 -0.16018997234E+02  0.16069261725E+02  0.12700000000E+01 0. -1.
         25    2    1    2    0    0  0.25301587081E+02 -0.30712522329E+02  0.27586207071E+03  0.30545582455E+03  0.12497979581E+03 0.  0.
    9000005    1    3    3    0    0  0.68996282718E+01 -0.77390130235E+02  0.19930556101E+03  0.21391714232E+03  0.10000000000E+01 0.  0.
    9000005    1    3    3    0    0  0.18401958809E+02  0.46677607906E+02  0.76556509697E+02  0.91538682233E+02  0.10000000000E+01 0.  0.
          4    1    1    2  501    0 -0.25301587081E+02  0.30712522329E+02  0.31645949954E+03  0.31895400466E+03  0.12700000000E+01 0.  1.
<mgrwt>
<rscale>  1 0.13116165E+03</rscale>
<asrwt>0</asrwt>
<pdfrwt beam="1">  1       21 0.93590839E-01 0.13116165E+03</pdfrwt>
<pdfrwt beam="2">  1        4 0.24684300E-02 0.13116165E+03</pdfrwt>
<totfact> 0.28810839E+04</totfact>
</mgrwt>
</event>
<event>
 6    4  0.3189516E-003  0.1270606E+03  0.7818608E-02  0.1231884E+00
          4   -1    0    0  502    0 -0.00000000000E+00  0.00000000000E+00  0.20666198153E+02  0.20705184039E+02  0.12700000000E+01 0.  1.
         21   -1    0    0  501  502  0.00000000000E+00 -0.00000000000E+00 -0.36825728542E+03  0.36825728542E+03  0.00000000000E+00 0.  1.
         25    2    1    2    0    0 -0.17414920320E+02  0.14736641993E+02 -0.18295585834E+03  0.22274929438E+03  0.12499581584E+03 0.  0.
    9000005    1    3    3    0    0 -0.12806290665E+02  0.34461701893E+01  0.17466664480E+02  0.21953622426E+02  0.10000000000E+01 0.  0.
    9000005    1    3    3    0    0 -0.46086296552E+01  0.11290471804E+02 -0.20042252282E+03  0.20079567195E+03  0.10000000000E+01 0.  0.
          4    1    1    2  501    0  0.17414920320E+02 -0.14736641993E+02 -0.16463522893E+03  0.16621317509E+03  0.12700000000E+01 0. -1.
<mgrwt>
<rscale>  1 0.12706062E+03</rscale>
<asrwt>0</asrwt>
<pdfrwt beam="2">  1       21 0.56654968E-01 0.12706062E+03</pdfrwt>
<pdfrwt beam="1">  1        4 0.31825824E-02 0.12706062E+03</pdfrwt>
<totfact> 0.58251310E+04</totfact>
</mgrwt>
</event>
<event>
 6    4  0.3189516E-003  0.1364234E+03  0.7818608E-02  0.1218224E+00
          4   -1    0    0  502    0 -0.00000000000E+00  0.00000000000E+00  0.77316351774E+02  0.77326781593E+02  0.12700000000E+01 0.  1.
         21   -1    0    0  501  502  0.00000000000E+00 -0.00000000000E+00 -0.13725821217E+03  0.13725821217E+03  0.00000000000E+00 0.  1.
         25    2    1    2    0    0 -0.54636486672E+02 -0.74228806786E+00 -0.77845756677E+02  0.15707100356E+03  0.12500256661E+03 0.  0.
    9000005    1    3    3    0    0 -0.11427781450E+02  0.52138510100E+02 -0.70425480838E+02  0.88372884844E+02  0.10000000000E+01 0.  0.
    9000005    1    3    3    0    0 -0.43208705222E+02 -0.52880798168E+02 -0.74202758390E+01  0.68698118718E+02  0.10000000000E+01 0.  0.
          4    1    1    2  501    0  0.54636486672E+02  0.74228806786E+00  0.17903896277E+02  0.57513990205E+02  0.12700000000E+01 0. -1.
<mgrwt>
<rscale>  1 0.13642338E+03</rscale>
<asrwt>0</asrwt>
<pdfrwt beam="2">  1       21 0.21116648E-01 0.13642338E+03</pdfrwt>
<pdfrwt beam="1">  1        4 0.11896078E-01 0.13642338E+03</pdfrwt>
<totfact> 0.47749178E+04</totfact>
</mgrwt>
</event>
<event>
 6    4  0.3189516E-003  0.1276192E+03  0.7818608E-02  0.1231032E+00
          4   -1    0    0  502    0 -0.00000000000E+00  0.00000000000E+00  0.12215526702E+02  0.12281367701E+02  0.12700000000E+01 0.  1.
         21   -1    0    0  501  502  0.00000000000E+00 -0.00000000000E+00 -0.94881294871E+03  0.94881294871E+03  0.00000000000E+00 0. -1.
         25    2    1    2    0    0 -0.68805695534E+01 -0.24916320849E+02 -0.32808590521E+03  0.35203270684E+03  0.12497399811E+03 0.  0.
    9000005    1    3    3    0    0 -0.29091694427E+02 -0.31603926849E+02 -0.28524885213E+02  0.51573287207E+02  0.10000000000E+01 0.  0.
    9000005    1    3    3    0    0  0.22211124874E+02  0.66876060000E+01 -0.29956102000E+03  0.30045941963E+03  0.10000000000E+01 0.  0.
          4    1    1    2  501    0  0.68805695534E+01  0.24916320849E+02 -0.60851151680E+03  0.60906160957E+03  0.12700000000E+01 0. -1.
<mgrwt>
<rscale>  1 0.12761922E+03</rscale>
<asrwt>0</asrwt>
<pdfrwt beam="2">  1       21 0.14597123E+00 0.12761922E+03</pdfrwt>
<pdfrwt beam="1">  1        4 0.18844418E-02 0.12761922E+03</pdfrwt>
<totfact> 0.14817209E+04</totfact>
</mgrwt>
</event>
<event>
 6    4  0.3189516E-003  0.1296447E+03  0.7818608E-02  0.1227984E+00
         -4   -1    0    0    0  501 -0.00000000000E+00  0.00000000000E+00  0.42934257143E+02  0.42953036405E+02  0.12700000000E+01 0. -1.
         21   -1    0    0  501  502  0.00000000000E+00 -0.00000000000E+00 -0.46637053818E+03  0.46637053818E+03  0.00000000000E+00 0.  1.
         25    2    1    2    0    0  0.17039811664E+02  0.29877131366E+02 -0.57587397600E+02  0.14185926806E+03  0.12499898164E+03 0.  0.
    9000005    1    3    3    0    0  0.64646437642E+02  0.44805600917E+02 -0.44037866045E+02  0.90150082746E+02  0.10000000000E+01 0.  0.
    9000005    1    3    3    0    0 -0.47606625978E+02 -0.14928469552E+02 -0.13549531555E+02  0.51709185311E+02  0.10000000000E+01 0.  0.
         -4    1    1    2    0  502 -0.17039811664E+02 -0.29877131366E+02 -0.36584888344E+03  0.36746430653E+03  0.12700000000E+01 0.  1.
<mgrwt>
<rscale>  1 0.12964468E+03</rscale>
<asrwt>0</asrwt>
<pdfrwt beam="2">  1       21 0.71749314E-01 0.12964468E+03</pdfrwt>
<pdfrwt beam="1">  1       -4 0.66068479E-02 0.12964468E+03</pdfrwt>
<totfact> 0.10934021E+04</totfact>
</mgrwt>
</event>
<event>
 6    4  0.3189516E-003  0.1312272E+03  0.7818608E-02  0.1225646E+00
          4   -1    0    0  502    0 -0.00000000000E+00  0.00000000000E+00  0.63653948605E+02  0.63666616629E+02  0.12700000000E+01 0. -1.
         21   -1    0    0  501  502  0.00000000000E+00 -0.00000000000E+00 -0.13587958864E+03  0.13587958864E+03  0.00000000000E+00 0.  1.
         25    2    1    2    0    0  0.39074346414E+02 -0.83274015569E+01 -0.18413758027E+02  0.13251276802E+03  0.12499766813E+03 0.  0.
    9000005    1    3    3    0    0  0.47670111839E+02  0.43159518668E+02 -0.40305850374E+02  0.75899573048E+02  0.10000000000E+01 0.  0.
    9000005    1    3    3    0    0 -0.85957654254E+01 -0.51486920225E+02  0.21892092347E+02  0.56613194971E+02  0.10000000000E+01 0.  0.
          4    1    1    2  501    0 -0.39074346414E+02  0.83274015569E+01 -0.53811882008E+02  0.67033437250E+02  0.12700000000E+01 0.  1.
<mgrwt>
<rscale>  1 0.13122716E+03</rscale>
<asrwt>0</asrwt>
<pdfrwt beam="2">  1       21 0.20904552E-01 0.13122716E+03</pdfrwt>
<pdfrwt beam="1">  1        4 0.97943464E-02 0.13122716E+03</pdfrwt>
<totfact> 0.67332149E+04</totfact>
</mgrwt>
</event>
<event>
 6    4  0.3189516E-003  0.1279426E+03  0.7818608E-02  0.1230541E+00
         -4   -1    0    0    0  501 -0.00000000000E+00  0.00000000000E+00  0.79121598325E+02  0.79131790207E+02  0.12700000000E+01 0.  1.
         21   -1    0    0  501  502  0.00000000000E+00 -0.00000000000E+00 -0.12201105895E+03  0.12201105895E+03  0.00000000000E+00 0.  1.
         25    2    1    2    0    0 -0.89236289597E+01 -0.25780943310E+02  0.22839932928E+02  0.12996522438E+03  0.12500003528E+03 0.  0.
    9000005    1    3    3    0    0 -0.63604297839E+02  0.27674338921E+00  0.27294782839E+02  0.69221300629E+02  0.10000000000E+01 0.  0.
    9000005    1    3    3    0    0  0.54680668880E+02 -0.26057686699E+02 -0.44548499107E+01  0.60743923753E+02  0.10000000000E+01 0.  0.
         -4    1    1    2    0  502  0.89236289597E+01  0.25780943310E+02 -0.65729393552E+02  0.71177624774E+02  0.12700000000E+01 0. -1.
<mgrwt>
<rscale>  1 0.12794255E+03</rscale>
<asrwt>0</asrwt>
<pdfrwt beam="2">  1       21 0.18770932E-01 0.12794255E+03</pdfrwt>
<pdfrwt beam="1">  1       -4 0.12173846E-01 0.12794255E+03</pdfrwt>
<totfact> 0.56634405E+04</totfact>
</mgrwt>
</event>
<event>
 6    4  0.3189516E-003  0.1277978E+03  0.7818608E-02  0.1230760E+00
         21   -1    0    0  501  502  0.00000000000E+00  0.00000000000E+00  0.15213631387E+03  0.15213631387E+03  0.00000000000E+00 0.  1.
         -4   -1    0    0    0  501 -0.00000000000E+00 -0.00000000000E+00 -0.16291159671E+03  0.16291654686E+03  0.12700000000E+01 0. -1.
         25    2    1    2    0    0 -0.94634819716E+01 -0.24867708927E+02 -0.13623602282E+03  0.18679542191E+03  0.12499726115E+03 0.  0.
    9000005    1    3    3    0    0  0.15556041004E+01  0.24175043146E+02  0.14256961812E+02  0.28126741285E+02  0.10000000000E+01 0.  0.
    9000005    1    3    3    0    0 -0.11019086072E+02 -0.49042752074E+02 -0.15049298463E+03  0.15866868062E+03  0.10000000000E+01 0.  0.
         -4    1    1    2    0  502  0.94634819716E+01  0.24867708927E+02  0.12546073998E+03  0.12825743883E+03  0.12700000000E+01 0.  1.
<mgrwt>
<rscale>  1 0.12779779E+03</rscale>
<asrwt>0</asrwt>
<pdfrwt beam="1">  1       21 0.23405587E-01 0.12779779E+03</pdfrwt>
<pdfrwt beam="2">  1       -4 0.25064111E-01 0.12779779E+03</pdfrwt>
<totfact> 0.10448059E+04</totfact>
</mgrwt>
</event>
<event>
 6    4  0.3189516E-003  0.1292840E+03  0.7818608E-02  0.1228522E+00
         21   -1    0    0  501  502  0.00000000000E+00  0.00000000000E+00  0.12927138244E+03  0.12927138244E+03  0.00000000000E+00 0.  1.
          4   -1    0    0  502    0 -0.00000000000E+00 -0.00000000000E+00 -0.12251835696E+03  0.12252493906E+03  0.12700000000E+01 0. -1.
         25    2    1    2    0    0 -0.33002033992E+02 -0.57227114910E+00 -0.84701372666E+02  0.15455959190E+03  0.12499953270E+03 0.  0.
    9000005    1    3    3    0    0  0.17871817945E+02  0.47248095574E+02 -0.85562312182E+01  0.51244448525E+02  0.10000000000E+01 0.  0.
    9000005    1    3    3    0    0 -0.50873851937E+02 -0.47820366723E+02 -0.76145141447E+02  0.10331514337E+03  0.10000000000E+01 0.  0.
          4    1    1    2  501    0  0.33002033992E+02  0.57227114910E+00  0.91454398155E+02  0.97236729602E+02  0.12700000000E+01 0.  1.
<mgrwt>
<rscale>  1 0.12928397E+03</rscale>
<asrwt>0</asrwt>
<pdfrwt beam="1">  1       21 0.19887905E-01 0.12928397E+03</pdfrwt>
<pdfrwt beam="2">  1        4 0.18849964E-01 0.12928397E+03</pdfrwt>
<totfact> 0.23753720E+04</totfact>
</mgrwt>
</event>
<event>
 6    4  0.3189516E-003  0.1266925E+03  0.7818608E-02  0.1232448E+00
         21   -1    0    0  501  502  0.00000000000E+00  0.00000000000E+00  0.14269935925E+03  0.14269935925E+03  0.00000000000E+00 0.  1.
          4   -1    0    0  502    0 -0.00000000000E+00 -0.00000000000E+00 -0.16697080033E+03  0.16697563014E+03  0.12700000000E+01 0. -1.
         25    2    1    2    0    0 -0.17895499470E+02 -0.10426494853E+02 -0.14190141434E+03  0.19022883329E+03  0.12498814715E+03 0.  0.
    9000005    1    3    3    0    0  0.50412963921E+02 -0.10344399562E+01 -0.92653526691E+02  0.10549034556E+03  0.10000000000E+01 0.  0.
    9000005    1    3    3    0    0 -0.68308463392E+02 -0.93920548967E+01 -0.49247887651E+02  0.84738487738E+02  0.10000000000E+01 0.  0.
          4    1    1    2  501    0  0.17895499470E+02  0.10426494853E+02  0.11762997326E+03  0.11944615609E+03  0.12700000000E+01 0.  1.
<mgrwt>
<rscale>  1 0.12669253E+03</rscale>
<asrwt>0</asrwt>
<pdfrwt beam="1">  1       21 0.21953748E-01 0.12669253E+03</pdfrwt>
<pdfrwt beam="2">  1        4 0.25688622E-01 0.12669253E+03</pdfrwt>
<totfact> 0.11245594E+04</totfact>
</mgrwt>
</event>
<event>
 6    4  0.3189516E-003  0.1318757E+03  0.7818608E-02  0.1224699E+00
         21   -1    0    0  501  502  0.00000000000E+00  0.00000000000E+00  0.17276338894E+02  0.17276338894E+02  0.00000000000E+00 0.  1.
         -4   -1    0    0    0  501 -0.00000000000E+00 -0.00000000000E+00 -0.46829857216E+03  0.46830029424E+03  0.12700000000E+01 0.  1.
         25    2    1    2    0    0 -0.17434787599E+02 -0.38241699804E+02 -0.28060866766E+03  0.31005228820E+03  0.12499919052E+03 0.  0.
    9000005    1    3    3    0    0  0.12924140686E+02 -0.69596411211E+02 -0.24073348318E+03  0.25092688933E+03  0.10000000000E+01 0.  0.
    9000005    1    3    3    0    0 -0.30358928285E+02  0.31354711407E+02 -0.39875184480E+02  0.59125398869E+02  0.10000000000E+01 0.  0.
         -4    1    1    2    0  502  0.17434787599E+02  0.38241699804E+02 -0.17041356561E+03  0.17552434494E+03  0.12700000000E+01 0. -1.
<mgrwt>
<rscale>  1 0.13187569E+03</rscale>
<asrwt>0</asrwt>
<pdfrwt beam="1">  1       21 0.26578976E-02 0.13187569E+03</pdfrwt>
<pdfrwt beam="2">  1       -4 0.72049675E-01 0.13187569E+03</pdfrwt>
<totfact> 0.55595423E+04</totfact>
</mgrwt>
</event>
<event>
 6    4  0.3189516E-003  0.1292364E+03  0.7818608E-02  0.1228593E+00
         21   -1    0    0  501  502  0.00000000000E+00  0.00000000000E+00  0.44256911749E+02  0.44256911749E+02  0.00000000000E+00 0.  1.
          4   -1    0    0  502    0 -0.00000000000E+00 -0.00000000000E+00 -0.15235580036E+03  0.15236109347E+03  0.12700000000E+01 0.  1.
         25    2    1    2    0    0 -0.31114416286E+02  0.10435699178E+02 -0.72499412983E+02  0.14818303559E+03  0.12500014574E+03 0.  0.
    9000005    1    3    3    0    0 -0.23360244835E+02 -0.31845856722E+02 -0.92631702788E+02  0.10070497500E+03  0.10000000000E+01 0.  0.
    9000005    1    3    3    0    0 -0.77541714513E+01  0.42281555900E+02  0.20132289804E+02  0.47478060586E+02  0.10000000000E+01 0.  0.
          4    1    1    2  501    0  0.31114416286E+02 -0.10435699178E+02 -0.35599475632E+02  0.48434969634E+02  0.12700000000E+01 0. -1.
<mgrwt>
<rscale>  1 0.12923640E+03</rscale>
<asrwt>0</asrwt>
<pdfrwt beam="1">  1       21 0.68087557E-02 0.12923640E+03</pdfrwt>
<pdfrwt beam="2">  1        4 0.23441162E-01 0.12923640E+03</pdfrwt>
<totfact> 0.10693678E+05</totfact>
</mgrwt>
</event>
<event>
 6    4  0.3189516E-003  0.1267608E+03  0.7818608E-02  0.1232343E+00
         21   -1    0    0  501  502  0.00000000000E+00  0.00000000000E+00  0.37721346024E+03  0.37721346024E+03  0.00000000000E+00 0. -1.
         -4   -1    0    0    0  501 -0.00000000000E+00 -0.00000000000E+00 -0.21305370030E+02  0.21343188424E+02  0.12700000000E+01 0.  1.
         25    2    1    2    0    0  0.20373187514E+02  0.54335948993E+01  0.17319812347E+03  0.21462966432E+03  0.12499484834E+03 0.  0.
    9000005    1    3    3    0    0 -0.15931512782E+02 -0.46992043057E+02  0.30306094911E+02  0.58150877886E+02  0.10000000000E+01 0.  0.
    9000005    1    3    3    0    0  0.36304700297E+02  0.52425637956E+02  0.14289202856E+03  0.15647878644E+03  0.10000000000E+01 0.  0.
         -4    1    1    2    0  502 -0.20373187514E+02 -0.54335948993E+01  0.18270996674E+03  0.18392698434E+03  0.12700000000E+01 0. -1.
<mgrwt>
<rscale>  1 0.12676081E+03</rscale>
<asrwt>0</asrwt>
<pdfrwt beam="1">  1       21 0.58032835E-01 0.12676081E+03</pdfrwt>
<pdfrwt beam="2">  1       -4 0.32808231E-02 0.12676081E+03</pdfrwt>
<totfact> 0.52781419E+04</totfact>
</mgrwt>
</event>
<event>
 6    4  0.3189516E-003  0.1334783E+03  0.7818608E-02  0.1222384E+00
         21   -1    0    0  501  502  0.00000000000E+00  0.00000000000E+00  0.30805315094E+02  0.30805315094E+02  0.00000000000E+00 0.  1.
          4   -1    0    0  502    0 -0.00000000000E+00 -0.00000000000E+00 -0.31952033899E+03  0.31952286292E+03  0.12700000000E+01 0.  1.
         25    2    1    2    0    0 -0.28503410565E+02  0.37128318415E+02 -0.26743525330E+03  0.29889474551E+03  0.12500199097E+03 0.  0.
    9000005    1    3    3    0    0  0.41170976020E+02  0.45098692500E+02 -0.97417018733E+02  0.11497833218E+03  0.10000000000E+01 0.  0.
    9000005    1    3    3    0    0 -0.69674386586E+02 -0.79703740843E+01 -0.17001823457E+03  0.18391641334E+03  0.10000000000E+01 0.  0.
          4    1    1    2  501    0  0.28503410565E+02 -0.37128318415E+02 -0.21279770599E+02  0.51433432502E+02  0.12700000000E+01 0. -1.
<mgrwt>
<rscale>  1 0.13347829E+03</rscale>
<asrwt>0</asrwt>
<pdfrwt beam="1">  1       21 0.47392792E-02 0.13347829E+03</pdfrwt>
<pdfrwt beam="2">  1        4 0.49159183E-01 0.13347829E+03</pdfrwt>
<totfact> 0.47700903E+04</totfact>
</mgrwt>
</event>
<event>
 6    4  0.3189516E-003  0.1270178E+03  0.7818608E-02  0.1231949E+00
          4   -1    0    0  502    0 -0.00000000000E+00  0.00000000000E+00  0.12676015654E+02  0.12739476946E+02  0.12700000000E+01 0. -1.
         21   -1    0    0  501  502  0.00000000000E+00 -0.00000000000E+00 -0.48386334782E+03  0.48386334782E+03  0.00000000000E+00 0. -1.
         25    2    1    2    0    0 -0.15376818319E+02 -0.16493166642E+02 -0.32963742291E+03  0.35326245782E+03  0.12500024972E+03 0.  0.
    9000005    1    3    3    0    0 -0.43025674060E+01 -0.65757026443E+02 -0.25328340911E+03  0.26171737417E+03  0.10000000000E+01 0.  0.
    9000005    1    3    3    0    0 -0.11074250913E+02  0.49263859801E+02 -0.76354013805E+02  0.91545083647E+02  0.10000000000E+01 0.  0.
          4    1    1    2  501    0  0.15376818319E+02  0.16493166642E+02 -0.14154990925E+03  0.14334036695E+03  0.12700000000E+01 0.  1.
<mgrwt>
<rscale>  1 0.12701785E+03</rscale>
<asrwt>0</asrwt>
<pdfrwt beam="2">  1       21 0.74440514E-01 0.12701785E+03</pdfrwt>
<pdfrwt beam="1">  1        4 0.19551661E-02 0.12701785E+03</pdfrwt>
<totfact> 0.68955956E+04</totfact>
</mgrwt>
</event>
<event>
 6    4  0.3189516E-003  0.1275915E+03  0.7818608E-02  0.1231074E+00
         -4   -1    0    0    0  501 -0.00000000000E+00  0.00000000000E+00  0.11807648096E+03  0.11808331066E+03  0.12700000000E+01 0.  1.
         21   -1    0    0  501  502  0.00000000000E+00 -0.00000000000E+00 -0.49693444358E+02  0.49693444358E+02  0.00000000000E+00 0.  1.
         25    2    1    2    0    0 -0.25576764928E+02  0.57911976476E+00  0.56628133767E+02  0.13959348117E+03  0.12500035267E+03 0.  0.
    9000005    1    3    3    0    0 -0.59033785867E+02  0.14740622225E+02  0.76830768122E+02  0.98011431718E+02  0.10000000000E+01 0.  0.
    9000005    1    3    3    0    0  0.33457020939E+02 -0.14161502460E+02 -0.20202634355E+02  0.41582049455E+02  0.10000000000E+01 0.  0.
         -4    1    1    2    0  502  0.25576764928E+02 -0.57911976476E+00  0.11754902838E+02  0.28183273845E+02  0.12700000000E+01 0. -1.
<mgrwt>
<rscale>  1 0.12759151E+03</rscale>
<asrwt>0</asrwt>
<pdfrwt beam="2">  1       21 0.76451453E-02 0.12759151E+03</pdfrwt>
<pdfrwt beam="1">  1       -4 0.18167386E-01 0.12759151E+03</pdfrwt>
<totfact> 0.13857701E+05</totfact>
</mgrwt>
</event>
<event>
 6    4  0.3189516E-003  0.1271055E+03  0.7818608E-02  0.1231815E+00
          4   -1    0    0  502    0 -0.00000000000E+00  0.00000000000E+00  0.17318406861E+03  0.17318872515E+03  0.12700000000E+01 0. -1.
         21   -1    0    0  501  502  0.00000000000E+00 -0.00000000000E+00 -0.60850566104E+02  0.60850566104E+02  0.00000000000E+00 0.  1.
         25    2    1    2    0    0  0.30941366676E+01 -0.22856977423E+02  0.14576753952E+03  0.19340109703E+03  0.12499517452E+03 0.  0.
    9000005    1    3    3    0    0  0.61120892191E+01  0.18291612331E+02 -0.16849235764E+02  0.25628840436E+02  0.10000000000E+01 0.  0.
    9000005    1    3    3    0    0 -0.30179525515E+01 -0.41148589754E+02  0.16261677529E+03  0.16777225659E+03  0.10000000000E+01 0.  0.
          4    1    1    2  501    0 -0.30941366676E+01  0.22856977423E+02 -0.33434037021E+02  0.40638194229E+02  0.12700000000E+01 0.  1.
<mgrwt>
<rscale>  1 0.12710550E+03</rscale>
<asrwt>0</asrwt>
<pdfrwt beam="2">  1       21 0.93616256E-02 0.12710550E+03</pdfrwt>
<pdfrwt beam="1">  1        4 0.26645080E-01 0.12710550E+03</pdfrwt>
<totfact> 0.48657861E+04</totfact>
</mgrwt>
</event>
<event>
 6    4  0.3189516E-003  0.1292053E+03  0.7818608E-02  0.1228640E+00
          4   -1    0    0  502    0 -0.00000000000E+00  0.00000000000E+00  0.44196947839E+02  0.44215190809E+02  0.12700000000E+01 0.  1.
         21   -1    0    0  501  502  0.00000000000E+00 -0.00000000000E+00 -0.18904893835E+03  0.18904893835E+03  0.00000000000E+00 0.  1.
         25    2    1    2    0    0  0.31959547714E+02  0.69001644626E+01 -0.15228325358E+03  0.19971026902E+03  0.12499990909E+03 0.  0.
    9000005    1    3    3    0    0  0.70933909017E+02 -0.21850945865E+02 -0.59849939479E+02  0.95352496240E+02  0.10000000000E+01 0.  0.
    9000005    1    3    3    0    0 -0.38974361303E+02  0.28751110327E+02 -0.92433314099E+02  0.10435777278E+03  0.10000000000E+01 0.  0.
          4    1    1    2  501    0 -0.31959547714E+02 -0.69001644626E+01  0.74312630656E+01  0.33553860142E+02  0.12700000000E+01 0. -1.
<mgrwt>
<rscale>  1 0.12920527E+03</rscale>
<asrwt>0</asrwt>
<pdfrwt beam="2">  1       21 0.29084453E-01 0.12920527E+03</pdfrwt>
<pdfrwt beam="1">  1        4 0.68012617E-02 0.12920527E+03</pdfrwt>
<totfact> 0.65940468E+04</totfact>
</mgrwt>
</event>
<event>
 6    4  0.3189516E-003  0.1313376E+03  0.7818608E-02  0.1225484E+00
         -4   -1    0    0    0  501 -0.00000000000E+00  0.00000000000E+00  0.69247623621E+02  0.69259268529E+02  0.12700000000E+01 0.  1.
         21   -1    0    0  501  502  0.00000000000E+00 -0.00000000000E+00 -0.10813949949E+03  0.10813949949E+03  0.00000000000E+00 0.  1.
         25    2    1    2    0    0 -0.35981463054E+02 -0.18195987518E+02 -0.19993134795E+02  0.13285064842E+03  0.12499523872E+03 0.  0.
    9000005    1    3    3    0    0 -0.30456429381E+02  0.52268040328E+02 -0.60810235950E+01  0.60807244456E+02  0.10000000000E+01 0.  0.
    9000005    1    3    3    0    0 -0.55250336730E+01 -0.70464027846E+02 -0.13912111200E+02  0.72043403969E+02  0.10000000000E+01 0.  0.
         -4    1    1    2    0  502  0.35981463054E+02  0.18195987518E+02 -0.18898741074E+02  0.44548119595E+02  0.12700000000E+01 0. -1.
<mgrwt>
<rscale>  1 0.13133762E+03</rscale>
<asrwt>0</asrwt>
<pdfrwt beam="2">  1       21 0.16636846E-01 0.13133762E+03</pdfrwt>
<pdfrwt beam="1">  1       -4 0.10654950E-01 0.13133762E+03</pdfrwt>
<totfact> 0.88885468E+04</totfact>
</mgrwt>
</event>
<event>
 6    4  0.3189516E-003  0.1296269E+03  0.7818608E-02  0.1228010E+00
         21   -1    0    0  501  502  0.00000000000E+00  0.00000000000E+00  0.69725165291E+03  0.69725165291E+03  0.00000000000E+00 0. -1.
          4   -1    0    0  502    0 -0.00000000000E+00 -0.00000000000E+00 -0.18796856922E+02  0.18839711520E+02  0.12700000000E+01 0.  1.
         25    2    1    2    0    0  0.26430889639E+02  0.21904650334E+02  0.21280949787E+03  0.24918070682E+03  0.12499894653E+03 0.  0.
    9000005    1    3    3    0    0  0.52483017170E+02  0.50088719755E+02  0.68255865675E+02  0.99615310756E+02  0.10000000000E+01 0.  0.
    9000005    1    3    3    0    0 -0.26052127531E+02 -0.28184069420E+02  0.14455363220E+03  0.14956539606E+03  0.10000000000E+01 0.  0.
          4    1    1    2  501    0 -0.26430889639E+02 -0.21904650334E+02  0.46564529812E+03  0.46691065762E+03  0.12700000000E+01 0. -1.
<mgrwt>
<rscale>  1 0.12962693E+03</rscale>
<asrwt>0</asrwt>
<pdfrwt beam="1">  1       21 0.10726946E+00 0.12962693E+03</pdfrwt>
<pdfrwt beam="2">  1        4 0.28952102E-02 0.12962693E+03</pdfrwt>
<totfact> 0.16309208E+04</totfact>
</mgrwt>
</event>
<event>
 6    4  0.3189516E-003  0.1388640E+03  0.7818608E-02  0.1214866E+00
          4   -1    0    0  502    0 -0.00000000000E+00  0.00000000000E+00  0.60892822472E+03  0.60892954910E+03  0.12700000000E+01 0. -1.
         21   -1    0    0  501  502  0.00000000000E+00 -0.00000000000E+00 -0.44391622180E+02  0.44391622180E+02  0.00000000000E+00 0.  1.
         25    2    1    2    0    0 -0.23495444556E+02  0.55726498932E+02  0.57535105148E+03  0.59187164887E+03  0.12500295079E+03 0.  0.
    9000005    1    3    3    0    0 -0.39793589200E+01 -0.12965575959E+02  0.42708641553E+03  0.42730287595E+03  0.10000000000E+01 0.  0.
    9000005    1    3    3    0    0 -0.19516085636E+02  0.68692074891E+02  0.14826463594E+03  0.16456877293E+03  0.10000000000E+01 0.  0.
          4    1    1    2  501    0  0.23495444556E+02 -0.55726498932E+02 -0.10814448934E+02  0.61449522405E+02  0.12700000000E+01 0.  1.
<mgrwt>
<rscale>  1 0.13886402E+03</rscale>
<asrwt>0</asrwt>
<pdfrwt beam="2">  1       21 0.68294808E-02 0.13886402E+03</pdfrwt>
<pdfrwt beam="1">  1        4 0.93682759E-01 0.13886402E+03</pdfrwt>
<totfact> 0.64536777E+03</totfact>
</mgrwt>
</event>
<event>
 6    4  0.3189516E-003  0.1266897E+03  0.7818608E-02  0.1232452E+00
         21   -1    0    0  501  502  0.00000000000E+00  0.00000000000E+00  0.37687858621E+03  0.37687858621E+03  0.00000000000E+00 0.  1.
          4   -1    0    0  502    0 -0.00000000000E+00 -0.00000000000E+00 -0.15022998170E+02  0.15076583632E+02  0.12700000000E+01 0.  1.
         25    2    1    2    0    0  0.12680533740E+02  0.16254221988E+02  0.27659826467E+03  0.30423162821E+03  0.12500115166E+03 0.  0.
    9000005    1    3    3    0    0  0.61821824099E+02  0.37526228822E+02  0.17559941696E+03  0.18991132410E+03  0.10000000000E+01 0.  0.
    9000005    1    3    3    0    0 -0.49141290359E+02 -0.21272006834E+02  0.10099884771E+03  0.11432030411E+03  0.10000000000E+01 0.  0.
          4    1    1    2  501    0 -0.12680533740E+02 -0.16254221988E+02  0.85257323377E+02  0.87723541639E+02  0.12700000000E+01 0. -1.
<mgrwt>
<rscale>  1 0.12668971E+03</rscale>
<asrwt>0</asrwt>
<pdfrwt beam="1">  1       21 0.57981314E-01 0.12668971E+03</pdfrwt>
<pdfrwt beam="2">  1        4 0.23155173E-02 0.12668971E+03</pdfrwt>
<totfact> 0.91017798E+04</totfact>
</mgrwt>
</event>
<event>
 6    4  0.3189516E-003  0.1288752E+03  0.7818608E-02  0.1229134E+00
         21   -1    0    0  501  502  0.00000000000E+00  0.00000000000E+00  0.21294786714E+02  0.21294786714E+02  0.00000000000E+00 0. -1.
          4   -1    0    0  502    0 -0.00000000000E+00 -0.00000000000E+00 -0.36590200849E+03  0.36590421249E+03  0.12700000000E+01 0. -1.
         25    2    1    2    0    0  0.10281524305E+02 -0.29637557755E+02 -0.19097472938E+03  0.23039131383E+03  0.12499886262E+03 0.  0.
    9000005    1    3    3    0    0  0.32108040246E+02 -0.48221642642E+02 -0.26994907474E+02  0.63921655932E+02  0.10000000000E+01 0.  0.
    9000005    1    3    3    0    0 -0.21826515941E+02  0.18584084887E+02 -0.16397982190E+03  0.16646965790E+03  0.10000000000E+01 0.  0.
          4    1    1    2  501    0 -0.10281524305E+02  0.29637557755E+02 -0.15363249240E+03  0.15680768538E+03  0.12700000000E+01 0.  1.
<mgrwt>
<rscale>  1 0.12887517E+03</rscale>
<asrwt>0</asrwt>
<pdfrwt beam="1">  1       21 0.32761212E-02 0.12887517E+03</pdfrwt>
<pdfrwt beam="2">  1        4 0.56295697E-01 0.12887517E+03</pdfrwt>
<totfact> 0.66369765E+04</totfact>
</mgrwt>
</event>
<event>
 6    4  0.3189516E-003  0.1322280E+03  0.7818608E-02  0.1224187E+00
          4   -1    0    0  502    0 -0.00000000000E+00  0.00000000000E+00  0.18261104430E+04  0.18261108846E+04  0.12700000000E+01 0. -1.
         21   -1    0    0  501  502  0.00000000000E+00 -0.00000000000E+00 -0.46736869280E+01  0.46736869280E+01  0.00000000000E+00 0. -1.
         25    2    1    2    0    0 -0.37352540764E+02  0.21537001034E+02  0.15801174287E+04  0.15856403581E+04  0.12500080840E+03 0.  0.
    9000005    1    3    3    0    0 -0.27093279687E+02 -0.14859646350E+01  0.15225107541E+04  0.15227528527E+04  0.10000000000E+01 0.  0.
    9000005    1    3    3    0    0 -0.10259261077E+02  0.23022965669E+02  0.57606674599E+02  0.62887505472E+02  0.10000000000E+01 0.  0.
          4    1    1    2  501    0  0.37352540764E+02 -0.21537001034E+02  0.24131932738E+03  0.24514421344E+03  0.12700000000E+01 0.  1.
<mgrwt>
<rscale>  1 0.13222805E+03</rscale>
<asrwt>0</asrwt>
<pdfrwt beam="2">  1       21 0.71903021E-03 0.13222805E+03</pdfrwt>
<pdfrwt beam="1">  1        4 0.28095281E+00 0.13222805E+03</pdfrwt>
<totfact> 0.12491807E+04</totfact>
</mgrwt>
</event>
<event>
 6    4  0.3189516E-003  0.1349810E+03  0.7818608E-02  0.1220246E+00
         21   -1    0    0  501  502  0.00000000000E+00  0.00000000000E+00  0.66821478998E+03  0.66821478998E+03  0.00000000000E+00 0.  1.
          4   -1    0    0  502    0 -0.00000000000E+00 -0.00000000000E+00 -0.20406066356E+02  0.20445548271E+02  0.12700000000E+01 0. -1.
         25    2    1    2    0    0 -0.18685529601E+02  0.47386314547E+02  0.22200874924E+03  0.25982255667E+03  0.12500105757E+03 0.  0.
    9000005    1    3    3    0    0  0.25309626970E+02 -0.13929400887E+02  0.40781170617E+01  0.29193089340E+02  0.10000000000E+01 0.  0.
    9000005    1    3    3    0    0 -0.43995156571E+02  0.61315715434E+02  0.21793063217E+03  0.23062946733E+03  0.10000000000E+01 0.  0.
          4    1    1    2  501    0  0.18685529601E+02 -0.47386314547E+02  0.42579997439E+03  0.42883778158E+03  0.12700000000E+01 0.  1.
<mgrwt>
<rscale>  1 0.13498102E+03</rscale>
<asrwt>0</asrwt>
<pdfrwt beam="1">  1       21 0.10280226E+00 0.13498102E+03</pdfrwt>
<pdfrwt beam="2">  1        4 0.31425252E-02 0.13498102E+03</pdfrwt>
<totfact> 0.15912278E+04</totfact>
</mgrwt>
</event>
<event>
 6    4  0.3189516E-003  0.1365298E+03  0.7818608E-02  0.1218076E+00
         21   -1    0    0  501  502  0.00000000000E+00  0.00000000000E+00  0.15472267202E+03  0.15472267202E+03  0.00000000000E+00 0.  1.
          4   -1    0    0  502    0 -0.00000000000E+00 -0.00000000000E+00 -0.75336709415E+02  0.75347413263E+02  0.12700000000E+01 0. -1.
         25    2    1    2    0    0  0.19092099693E+02  0.51485122175E+02  0.37328253119E+01  0.13658085511E+03  0.12500067968E+03 0.  0.
    9000005    1    3    3    0    0  0.26097910263E+02 -0.11888948319E+02 -0.47017562920E+02  0.55082658207E+02  0.10000000000E+01 0.  0.
    9000005    1    3    3    0    0 -0.70058105698E+01  0.63374070494E+02  0.50750388232E+02  0.81498196903E+02  0.10000000000E+01 0.  0.
          4    1    1    2  501    0 -0.19092099693E+02 -0.51485122175E+02  0.75653137293E+02  0.93489230173E+02  0.12700000000E+01 0.  1.
<mgrwt>
<rscale>  1 0.13652984E+03</rscale>
<asrwt>0</asrwt>
<pdfrwt beam="1">  1       21 0.23803488E-01 0.13652984E+03</pdfrwt>
<pdfrwt beam="2">  1        4 0.11591487E-01 0.13652984E+03</pdfrwt>
<totfact> 0.39889757E+04</totfact>
</mgrwt>
</event>
<event>
 6    4  0.3189516E-003  0.1303623E+03  0.7818608E-02  0.1226919E+00
         21   -1    0    0  501  502  0.00000000000E+00  0.00000000000E+00  0.14555814460E+02  0.14555814460E+02  0.00000000000E+00 0.  1.
          4   -1    0    0  502    0 -0.00000000000E+00 -0.00000000000E+00 -0.82120763945E+03  0.82120862148E+03  0.12700000000E+01 0. -1.
         25    2    1    2    0    0 -0.36927100930E+02  0.24059121831E+01 -0.77826614690E+03  0.78910868798E+03  0.12499970739E+03 0.  0.
    9000005    1    3    3    0    0  0.39391283017E+00 -0.40175936468E+02 -0.90594582378E+02  0.99109229614E+02  0.10000000000E+01 0.  0.
    9000005    1    3    3    0    0 -0.37321013761E+02  0.42581848651E+02 -0.68767156452E+03  0.68999945837E+03  0.10000000000E+01 0.  0.
          4    1    1    2  501    0  0.36927100930E+02 -0.24059121831E+01 -0.28385678094E+02  0.46655747957E+02  0.12700000000E+01 0.  1.
<mgrwt>
<rscale>  1 0.13036229E+03</rscale>
<asrwt>0</asrwt>
<pdfrwt beam="1">  1       21 0.22393555E-02 0.13036229E+03</pdfrwt>
<pdfrwt beam="2">  1        4 0.12634401E+00 0.13036229E+03</pdfrwt>
<totfact> 0.20268621E+04</totfact>
</mgrwt>
</event>
<event>
 6    4  0.3189516E-003  0.1320965E+03  0.7818608E-02  0.1224378E+00
         -4   -1    0    0    0  501 -0.00000000000E+00  0.00000000000E+00  0.98157334941E+02  0.98165550489E+02  0.12700000000E+01 0.  1.
         21   -1    0    0  501  502  0.00000000000E+00 -0.00000000000E+00 -0.10486233319E+03  0.10486233319E+03  0.00000000000E+00 0. -1.
         25    2    1    2    0    0 -0.17386480139E+02  0.39020308576E+02  0.41637025036E+02  0.13850317300E+03  0.12499845161E+03 0.  0.
    9000005    1    3    3    0    0 -0.20636585589E+02 -0.18948291851E+02 -0.33410265548E+02  0.43613670710E+02  0.10000000000E+01 0.  0.
    9000005    1    3    3    0    0  0.32501054501E+01  0.57968600427E+02  0.75047290584E+02  0.94889502290E+02  0.10000000000E+01 0.  0.
         -4    1    1    2    0  502  0.17386480139E+02 -0.39020308576E+02 -0.48342023289E+02  0.64524710682E+02  0.12700000000E+01 0. -1.
<mgrwt>
<rscale>  1 0.13209651E+03</rscale>
<asrwt>0</asrwt>
<pdfrwt beam="2">  1       21 0.16132667E-01 0.13209651E+03</pdfrwt>
<pdfrwt beam="1">  1       -4 0.15102352E-01 0.13209651E+03</pdfrwt>
<totfact> 0.51656221E+04</totfact>
</mgrwt>
</event>
<event>
 6    4  0.3189516E-003  0.1329379E+03  0.7818608E-02  0.1223160E+00
         21   -1    0    0  501  502  0.00000000000E+00  0.00000000000E+00  0.87279800186E+03  0.87279800186E+03  0.00000000000E+00 0.  1.
          4   -1    0    0  502    0 -0.00000000000E+00 -0.00000000000E+00 -0.12305053696E+02  0.12370418201E+02  0.12700000000E+01 0. -1.
         25    2    1    2    0    0  0.38828296422E+02  0.23237061623E+02  0.38066852130E+03  0.40321334834E+03  0.12499953416E+03 0.  0.
    9000005    1    3    3    0    0 -0.57963707925E+01  0.53470876145E+02  0.30837270239E+03  0.31302948118E+03  0.10000000000E+01 0.  0.
    9000005    1    3    3    0    0  0.44624667215E+02 -0.30233814522E+02  0.72295818907E+02  0.90183867160E+02  0.10000000000E+01 0.  0.
          4    1    1    2  501    0 -0.38828296422E+02 -0.23237061623E+02  0.47982442687E+03  0.48195507172E+03  0.12700000000E+01 0.  1.
<mgrwt>
<rscale>  1 0.13293788E+03</rscale>
<asrwt>0</asrwt>
<pdfrwt beam="1">  1       21 0.13427657E+00 0.13293788E+03</pdfrwt>
<pdfrwt beam="2">  1        4 0.18981850E-02 0.13293788E+03</pdfrwt>
<totfact> 0.18162504E+04</totfact>
</mgrwt>
</event>
<event>
 6    4  0.3189516E-003  0.1282949E+03  0.7818608E-02  0.1230008E+00
         -4   -1    0    0    0  501 -0.00000000000E+00  0.00000000000E+00  0.14191879591E+02  0.14248591029E+02  0.12700000000E+01 0.  1.
         21   -1    0    0  501  502  0.00000000000E+00 -0.00000000000E+00 -0.67517323483E+03  0.67517323483E+03  0.00000000000E+00 0. -1.
         25    2    1    2    0    0 -0.28386552150E+02 -0.53824451857E+01 -0.28755039064E+03  0.31487267651E+03  0.12499923277E+03 0.  0.
    9000005    1    3    3    0    0 -0.27946179262E+02 -0.22070969514E+02 -0.29458349474E+03  0.29672976258E+03  0.10000000000E+01 0.  0.
    9000005    1    3    3    0    0 -0.44037288868E+00  0.16688524328E+02  0.70331040948E+01  0.18142913926E+02  0.10000000000E+01 0.  0.
         -4    1    1    2    0  502  0.28386552150E+02  0.53824451857E+01 -0.37343096460E+03  0.37454914935E+03  0.12700000000E+01 0. -1.
<mgrwt>
<rscale>  1 0.12829488E+03</rscale>
<asrwt>0</asrwt>
<pdfrwt beam="2">  1       21 0.10387281E+00 0.12829488E+03</pdfrwt>
<pdfrwt beam="1">  1       -4 0.21878203E-02 0.12829488E+03</pdfrwt>
<totfact> 0.27175927E+04</totfact>
</mgrwt>
</event>
<event>
 6    4  0.3189516E-003  0.1295562E+03  0.7818608E-02  0.1228116E+00
         21   -1    0    0  501  502  0.00000000000E+00  0.00000000000E+00  0.35642184200E+02  0.35642184200E+02  0.00000000000E+00 0. -1.
          4   -1    0    0  502    0 -0.00000000000E+00 -0.00000000000E+00 -0.21693784240E+03  0.21694155979E+03  0.12700000000E+01 0. -1.
         25    2    1    2    0    0  0.30425143424E+02  0.15311847414E+02 -0.97573791631E+02  0.16218957457E+03  0.12499868504E+03 0.  0.
    9000005    1    3    3    0    0 -0.48047069078E+02 -0.28532386736E+01 -0.45698085831E+02  0.66377532844E+02  0.10000000000E+01 0.  0.
    9000005    1    3    3    0    0  0.78472212502E+02  0.18165086087E+02 -0.51875705799E+02  0.95812041726E+02  0.10000000000E+01 0.  0.
          4    1    1    2  501    0 -0.30425143424E+02 -0.15311847414E+02 -0.83721866572E+02  0.90394169424E+02  0.12700000000E+01 0.  1.
<mgrwt>
<rscale>  1 0.12955622E+03</rscale>
<asrwt>0</asrwt>
<pdfrwt beam="1">  1       21 0.54834128E-02 0.12955622E+03</pdfrwt>
<pdfrwt beam="2">  1        4 0.33377080E-01 0.12955622E+03</pdfrwt>
<totfact> 0.79743407E+04</totfact>
</mgrwt>
</event>
<event>
 6    4  0.3189516E-003  0.1277833E+03  0.7818608E-02  0.1230782E+00
         21   -1    0    0  501  502  0.00000000000E+00  0.00000000000E+00  0.18104185365E+03  0.18104185365E+03  0.00000000000E+00 0.  1.
         -4   -1    0    0    0  501 -0.00000000000E+00 -0.00000000000E+00 -0.91089504919E+02  0.91098357868E+02  0.12700000000E+01 0. -1.
         25    2    1    2    0    0  0.90298311761E+01  0.24967633296E+02 -0.44328514526E+02  0.13525382176E+03  0.12499463403E+03 0.  0.
    9000005    1    3    3    0    0  0.19748163137E+02  0.13668874670E+01 -0.84853563369E+02  0.87137738926E+02  0.10000000000E+01 0.  0.
    9000005    1    3    3    0    0 -0.10718331961E+02  0.23600745829E+02  0.40525048843E+02  0.48116082836E+02  0.10000000000E+01 0.  0.
         -4    1    1    2    0  502 -0.90298311761E+01 -0.24967633296E+02  0.13428086325E+03  0.13688638975E+03  0.12700000000E+01 0.  1.
<mgrwt>
<rscale>  1 0.12778333E+03</rscale>
<asrwt>0</asrwt>
<pdfrwt beam="1">  1       21 0.27852593E-01 0.12778333E+03</pdfrwt>
<pdfrwt beam="2">  1       -4 0.14014794E-01 0.12778333E+03</pdfrwt>
<totfact> 0.21218806E+04</totfact>
</mgrwt>
</event>
<event>
 6    4  0.3189516E-003  0.1342159E+03  0.7818608E-02  0.1221331E+00
         21   -1    0    0  501  502  0.00000000000E+00  0.00000000000E+00  0.88066617868E+02  0.88066617868E+02  0.00000000000E+00 0.  1.
         -4   -1    0    0    0  501 -0.00000000000E+00 -0.00000000000E+00 -0.17847681265E+03  0.17848133111E+03  0.12700000000E+01 0. -1.
         25    2    1    2    0    0  0.48863728449E+02 -0.11318635985E+01 -0.14205394391E+03  0.19543089900E+03  0.12499987291E+03 0.  0.
    9000005    1    3    3    0    0  0.77980061695E+02  0.26552412947E+02 -0.12921048790E+03  0.15323926011E+03  0.10000000000E+01 0.  0.
    9000005    1    3    3    0    0 -0.29116333246E+02 -0.27684276546E+02 -0.12843456013E+02  0.42191638887E+02  0.10000000000E+01 0.  0.
         -4    1    1    2    0  502 -0.48863728449E+02  0.11318635985E+01  0.51643749133E+02  0.71117049978E+02  0.12700000000E+01 0.  1.
<mgrwt>
<rscale>  1 0.13421592E+03</rscale>
<asrwt>0</asrwt>
<pdfrwt beam="1">  1       21 0.13548711E-01 0.13421592E+03</pdfrwt>
<pdfrwt beam="2">  1       -4 0.27459023E-01 0.13421592E+03</pdfrwt>
<totfact> 0.24114474E+04</totfact>
</mgrwt>
</event>
<event>
 6    4  0.3189516E-003  0.1302157E+03  0.7818608E-02  0.1227136E+00
          4   -1    0    0  502    0 -0.00000000000E+00  0.00000000000E+00  0.24767917433E+03  0.24768243033E+03  0.12700000000E+01 0. -1.
         21   -1    0    0  501  502  0.00000000000E+00 -0.00000000000E+00 -0.35618143412E+02  0.35618143412E+02  0.00000000000E+00 0. -1.
         25    2    1    2    0    0 -0.18789879228E+02 -0.31287122068E+02  0.96411623131E+02  0.16202262031E+03  0.12499673935E+03 0.  0.
    9000005    1    3    3    0    0 -0.26779505825E+02 -0.76986135468E+02  0.75560008258E+02  0.11114999701E+03  0.10000000000E+01 0.  0.
    9000005    1    3    3    0    0  0.79896265974E+01  0.45699013400E+02  0.20851614873E+02  0.50872623303E+02  0.10000000000E+01 0.  0.
          4    1    1    2  501    0  0.18789879228E+02  0.31287122068E+02  0.11564940779E+03  0.12127795344E+03  0.12700000000E+01 0.  1.
<mgrwt>
<rscale>  1 0.13021570E+03</rscale>
<asrwt>0</asrwt>
<pdfrwt beam="2">  1       21 0.54797146E-02 0.13021570E+03</pdfrwt>
<pdfrwt beam="1">  1        4 0.38106479E-01 0.13021570E+03</pdfrwt>
<totfact> 0.61833941E+04</totfact>
</mgrwt>
</event>
<event>
 6    4  0.3189516E-003  0.1290549E+03  0.7818608E-02  0.1228865E+00
         21   -1    0    0  501  502  0.00000000000E+00  0.00000000000E+00  0.10291220692E+03  0.10291220692E+03  0.00000000000E+00 0.  1.
          4   -1    0    0  502    0 -0.00000000000E+00 -0.00000000000E+00 -0.63132354124E+02  0.63145126789E+02  0.12700000000E+01 0.  1.
         25    2    1    2    0    0  0.16163246960E+02 -0.27731445382E+02  0.30292494039E+02  0.13256246110E+03  0.12499954913E+03 0.  0.
    9000005    1    3    3    0    0 -0.27969739903E+02  0.33635510018E+02  0.36125743750E+02  0.56742605209E+02  0.10000000000E+01 0.  0.
    9000005    1    3    3    0    0  0.44132986862E+02 -0.61366955401E+02 -0.58332497114E+01  0.75819855887E+02  0.10000000000E+01 0.  0.
          4    1    1    2  501    0 -0.16163246960E+02  0.27731445382E+02  0.94873587593E+01  0.33494872615E+02  0.12700000000E+01 0. -1.
<mgrwt>
<rscale>  1 0.12905491E+03</rscale>
<asrwt>0</asrwt>
<pdfrwt beam="1">  1       21 0.15832647E-01 0.12905491E+03</pdfrwt>
<pdfrwt beam="2">  1        4 0.97142552E-02 0.12905491E+03</pdfrwt>
<totfact> 0.11336884E+05</totfact>
</mgrwt>
</event>
<event>
 6    4  0.3189516E-003  0.1302349E+03  0.7818608E-02  0.1227108E+00
         21   -1    0    0  501  502  0.00000000000E+00  0.00000000000E+00  0.62475184191E+02  0.62475184191E+02  0.00000000000E+00 0. -1.
          4   -1    0    0  502    0 -0.00000000000E+00 -0.00000000000E+00 -0.17045200949E+03  0.17045674067E+03  0.12700000000E+01 0.  1.
         25    2    1    2    0    0  0.16312862554E+02 -0.32717460986E+02 -0.13490294119E+03  0.18750978978E+03  0.12499830391E+03 0.  0.
    9000005    1    3    3    0    0  0.27331352460E+02 -0.76808028696E+02 -0.65684203622E+02  0.10469904825E+03  0.10000000000E+01 0.  0.
    9000005    1    3    3    0    0 -0.11018489906E+02  0.44090567710E+02 -0.69218737572E+02  0.82810741525E+02  0.10000000000E+01 0.  0.
          4    1    1    2  501    0 -0.16312862554E+02  0.32717460986E+02  0.26926115896E+02  0.45422135081E+02  0.12700000000E+01 0. -1.
<mgrwt>
<rscale>  1 0.13023486E+03</rscale>
<asrwt>0</asrwt>
<pdfrwt beam="1">  1       21 0.96115670E-02 0.13023486E+03</pdfrwt>
<pdfrwt beam="2">  1        4 0.26224742E-01 0.13023486E+03</pdfrwt>
<totfact> 0.48015413E+04</totfact>
</mgrwt>
</event>
<event>
 6    4  0.3189516E-003  0.1267249E+03  0.7818608E-02  0.1232398E+00
         21   -1    0    0  501  502  0.00000000000E+00  0.00000000000E+00  0.74005840905E+01  0.74005840905E+01  0.00000000000E+00 0.  1.
         -4   -1    0    0    0  501 -0.00000000000E+00 -0.00000000000E+00 -0.75698868368E+03  0.75698974902E+03  0.12700000000E+01 0.  1.
         25    2    1    2    0    0  0.14123868000E+02  0.15299822868E+02 -0.59083282137E+03  0.60427031722E+03  0.12500250091E+03 0.  0.
    9000005    1    3    3    0    0  0.58315798954E+02  0.44304539341E+02 -0.37194493716E+03  0.37908793293E+03  0.10000000000E+01 0.  0.
    9000005    1    3    3    0    0 -0.44191930954E+02 -0.29004716473E+02 -0.21888788421E+03  0.22518238429E+03  0.10000000000E+01 0.  0.
         -4    1    1    2    0  502 -0.14123868000E+02 -0.15299822868E+02 -0.15875527822E+03  0.16012001589E+03  0.12700000000E+01 0. -1.
<mgrwt>
<rscale>  1 0.12672487E+03</rscale>
<asrwt>0</asrwt>
<pdfrwt beam="1">  1       21 0.11385521E-02 0.12672487E+03</pdfrwt>
<pdfrwt beam="2">  1       -4 0.11646819E+00 0.12672487E+03</pdfrwt>
<totfact> 0.72537971E+04</totfact>
</mgrwt>
</event>
<event>
 6    4  0.3189516E-003  0.1313782E+03  0.7818608E-02  0.1225425E+00
         21   -1    0    0  501  502  0.00000000000E+00  0.00000000000E+00  0.25330209338E+02  0.25330209338E+02  0.00000000000E+00 0.  1.
          4   -1    0    0  502    0 -0.00000000000E+00 -0.00000000000E+00 -0.38234364984E+03  0.38234575906E+03  0.12700000000E+01 0. -1.
         25    2    1    2    0    0  0.27438935098E+02  0.29705258592E+02 -0.33865731074E+03  0.36324784727E+03  0.12499970753E+03 0.  0.
    9000005    1    3    3    0    0 -0.26655210779E+02  0.38018039826E+02 -0.45473029727E+02  0.64997446461E+02  0.10000000000E+01 0.  0.
    9000005    1    3    3    0    0  0.54094145877E+02 -0.83127812334E+01 -0.29318428101E+03  0.29825040081E+03  0.10000000000E+01 0.  0.
          4    1    1    2  501    0 -0.27438935098E+02 -0.29705258592E+02 -0.18356129763E+02  0.44428121131E+02  0.12700000000E+01 0.  1.
<mgrwt>
<rscale>  1 0.13137817E+03</rscale>
<asrwt>0</asrwt>
<pdfrwt beam="1">  1       21 0.38969554E-02 0.13137817E+03</pdfrwt>
<pdfrwt beam="2">  1        4 0.58824709E-01 0.13137817E+03</pdfrwt>
<totfact> 0.45580482E+04</totfact>
</mgrwt>
</event>
<event>
 6    4  0.3189516E-003  0.1349968E+03  0.7818608E-02  0.1220224E+00
         21   -1    0    0  501  502  0.00000000000E+00  0.00000000000E+00  0.73536519577E+01  0.73536519577E+01  0.00000000000E+00 0.  1.
          4   -1    0    0  502    0 -0.00000000000E+00 -0.00000000000E+00 -0.14540355138E+04  0.14540360685E+04  0.12700000000E+01 0. -1.
         25    2    1    2    0    0 -0.54146208924E+01  0.50687888842E+02 -0.12795620187E+04  0.12866635487E+04  0.12500219079E+03 0.  0.
    9000005    1    3    3    0    0  0.52344968232E+02 -0.76332549024E+01 -0.50254189248E+03  0.50531932081E+03  0.10000000000E+01 0.  0.
    9000005    1    3    3    0    0 -0.57759589124E+02  0.58321143744E+02 -0.77702012622E+03  0.78134422792E+03  0.10000000000E+01 0.  0.
          4    1    1    2  501    0  0.54146208924E+01 -0.50687888842E+02 -0.16711984316E+03  0.17472617169E+03  0.12700000000E+01 0.  1.
<mgrwt>
<rscale>  1 0.13499677E+03</rscale>
<asrwt>0</asrwt>
<pdfrwt beam="1">  1       21 0.11313318E-02 0.13499677E+03</pdfrwt>
<pdfrwt beam="2">  1        4 0.22370610E+00 0.13499677E+03</pdfrwt>
<totfact> 0.13149608E+04</totfact>
</mgrwt>
</event>
<event>
 6    4  0.3189516E-003  0.1378020E+03  0.7818608E-02  0.1216317E+00
         21   -1    0    0  501  502  0.00000000000E+00  0.00000000000E+00  0.32734596135E+03  0.32734596135E+03  0.00000000000E+00 0.  1.
         -4   -1    0    0    0  501 -0.00000000000E+00 -0.00000000000E+00 -0.11244515991E+03  0.11245233162E+03  0.12700000000E+01 0. -1.
         25    2    1    2    0    0 -0.45207124961E+02  0.36367771526E+02 -0.66122767600E+02  0.15284505948E+03  0.12499237121E+03 0.  0.
    9000005    1    3    3    0    0  0.73676188647E+01  0.39446720530E+02 -0.87289519678E+02  0.96076978584E+02  0.10000000000E+01 0.  0.
    9000005    1    3    3    0    0 -0.52574743826E+02 -0.30789490037E+01  0.21166752078E+02  0.56768080898E+02  0.10000000000E+01 0.  0.
         -4    1    1    2    0  502  0.45207124961E+02 -0.36367771526E+02  0.28102356904E+03  0.28695323349E+03  0.12700000000E+01 0.  1.
<mgrwt>
<rscale>  1 0.13780200E+03</rscale>
<asrwt>0</asrwt>
<pdfrwt beam="1">  1       21 0.50360917E-01 0.13780200E+03</pdfrwt>
<pdfrwt beam="2">  1       -4 0.17299997E-01 0.13780200E+03</pdfrwt>
<totfact> 0.45525837E+03</totfact>
</mgrwt>
</event>
<event>
 6    4  0.3189516E-003  0.1290052E+03  0.7818608E-02  0.1228939E+00
          4   -1    0    0  502    0 -0.00000000000E+00  0.00000000000E+00  0.62492228024E+02  0.62505131496E+02  0.12700000000E+01 0.  1.
         21   -1    0    0  501  502  0.00000000000E+00 -0.00000000000E+00 -0.16184008535E+03  0.16184008535E+03  0.00000000000E+00 0.  1.
         25    2    1    2    0    0 -0.17881523693E+02  0.26405650850E+02 -0.99122263095E+01  0.12938547653E+03  0.12500136807E+03 0.  0.
    9000005    1    3    3    0    0 -0.54928833960E+02 -0.26171154751E+02  0.10806504230E+02  0.61805231776E+02  0.10000000000E+01 0.  0.
    9000005    1    3    3    0    0  0.37047310267E+02  0.52576805602E+02 -0.20718730539E+02  0.67580244750E+02  0.10000000000E+01 0.  0.
          4    1    1    2  501    0  0.17881523693E+02 -0.26405650850E+02 -0.89435631022E+02  0.94959740325E+02  0.12700000000E+01 0. -1.
<mgrwt>
<rscale>  1 0.12900523E+03</rscale>
<asrwt>0</asrwt>
<pdfrwt beam="2">  1       21 0.24898475E-01 0.12900523E+03</pdfrwt>
<pdfrwt beam="1">  1        4 0.96155647E-02 0.12900523E+03</pdfrwt>
<totfact> 0.49948693E+04</totfact>
</mgrwt>
</event>
<event>
 6    4  0.3189516E-003  0.1553600E+03  0.7818608E-02  0.1194037E+00
          4   -1    0    0  502    0 -0.00000000000E+00  0.00000000000E+00  0.71896523976E+03  0.71896636145E+03  0.12700000000E+01 0.  1.
         21   -1    0    0  501  502  0.00000000000E+00 -0.00000000000E+00 -0.44644437450E+02  0.44644437450E+02  0.00000000000E+00 0. -1.
         25    2    1    2    0    0  0.72777919946E+02 -0.56700523935E+02  0.64983741295E+03  0.66815073237E+03  0.12500065139E+03 0.  0.
    9000005    1    3    3    0    0  0.77904685757E+01  0.31460668762E+02  0.59727593125E+02  0.67962125188E+02  0.10000000000E+01 0.  0.
    9000005    1    3    3    0    0  0.64987451370E+02 -0.88161192697E+02  0.59010981983E+03  0.60018860718E+03  0.10000000000E+01 0.  0.
          4    1    1    2  501    0 -0.72777919946E+02  0.56700523935E+02  0.24483389360E+02  0.95460066524E+02  0.12700000000E+01 0. -1.
<mgrwt>
<rscale>  1 0.15536003E+03</rscale>
<asrwt>0</asrwt>
<pdfrwt beam="2">  1       21 0.68683755E-02 0.15536003E+03</pdfrwt>
<pdfrwt beam="1">  1        4 0.11061150E+00 0.15536003E+03</pdfrwt>
<totfact> 0.43783016E+03</totfact>
</mgrwt>
</event>
<event>
 6    4  0.3189516E-003  0.1288959E+03  0.7818608E-02  0.1229103E+00
         -4   -1    0    0    0  501 -0.00000000000E+00  0.00000000000E+00  0.58043520452E+01  0.59416666571E+01  0.12700000000E+01 0.  1.
         21   -1    0    0  501  502  0.00000000000E+00 -0.00000000000E+00 -0.13064397786E+04  0.13064397786E+04  0.00000000000E+00 0. -1.
         25    2    1    2    0    0 -0.30823024499E+02  0.62475004607E+01 -0.76180707507E+03  0.77263456443E+03  0.12500024168E+03 0.  0.
    9000005    1    3    3    0    0 -0.16044630984E+01 -0.43187681013E+02 -0.10830465564E+03  0.11661324336E+03  0.10000000000E+01 0.  0.
    9000005    1    3    3    0    0 -0.29218561401E+02  0.49435181473E+02 -0.65350241943E+03  0.65602132107E+03  0.10000000000E+01 0.  0.
         -4    1    1    2    0  502  0.30823024499E+02 -0.62475004607E+01 -0.53882835149E+03  0.53974688084E+03  0.12700000000E+01 0. -1.
<mgrwt>
<rscale>  1 0.12889589E+03</rscale>
<asrwt>0</asrwt>
<pdfrwt beam="2">  1       21 0.20099085E+00 0.12889589E+03</pdfrwt>
<pdfrwt beam="1">  1       -4 0.90358687E-03 0.12889589E+03</pdfrwt>
<totfact> 0.18935559E+04</totfact>
</mgrwt>
</event>
<event>
 6    4  0.3189516E-003  0.1276679E+03  0.7818608E-02  0.1230958E+00
         21   -1    0    0  501  502  0.00000000000E+00  0.00000000000E+00  0.84227981692E+02  0.84227981692E+02  0.00000000000E+00 0.  1.
         -4   -1    0    0    0  501 -0.00000000000E+00 -0.00000000000E+00 -0.81880469486E+02  0.81890318007E+02  0.12700000000E+01 0.  1.
         25    2    1    2    0    0  0.25625745520E+02  0.41871677898E+01 -0.23098633652E+02  0.12974069056E+03  0.12499955481E+03 0.  0.
    9000005    1    3    3    0    0 -0.22762600846E+02 -0.43676683482E+02  0.15305511891E+02  0.51585340665E+02  0.10000000000E+01 0.  0.
    9000005    1    3    3    0    0  0.48388346366E+02  0.47863851272E+02 -0.38404145543E+02  0.78155349896E+02  0.10000000000E+01 0.  0.
         -4    1    1    2    0  502 -0.25625745520E+02 -0.41871677898E+01  0.25446145858E+02  0.36377609138E+02  0.12700000000E+01 0. -1.
<mgrwt>
<rscale>  1 0.12766793E+03</rscale>
<asrwt>0</asrwt>
<pdfrwt beam="1">  1       21 0.12958151E-01 0.12766793E+03</pdfrwt>
<pdfrwt beam="2">  1       -4 0.12598489E-01 0.12766793E+03</pdfrwt>
<totfact> 0.10435253E+05</totfact>
</mgrwt>
</event>
<event>
 6    4  0.3189516E-003  0.1273064E+03  0.7818608E-02  0.1231508E+00
         21   -1    0    0  501  502  0.00000000000E+00  0.00000000000E+00  0.15638653695E+02  0.15638653695E+02  0.00000000000E+00 0.  1.
         -4   -1    0    0    0  501 -0.00000000000E+00 -0.00000000000E+00 -0.38310482796E+03  0.38310693300E+03  0.12700000000E+01 0.  1.
         25    2    1    2    0    0 -0.23914258821E+02 -0.32307878068E+01 -0.33422101179E+03  0.35764590916E+03  0.12499832740E+03 0.  0.
    9000005    1    3    3    0    0  0.26086764873E+02 -0.44544557112E+02 -0.22292016345E+03  0.22882118814E+03  0.10000000000E+01 0.  0.
    9000005    1    3    3    0    0 -0.50001023694E+02  0.41313769305E+02 -0.11130084835E+03  0.12882472102E+03  0.10000000000E+01 0.  0.
         -4    1    1    2    0  502  0.23914258821E+02  0.32307878068E+01 -0.33245162476E+02  0.41099677527E+02  0.12700000000E+01 0. -1.
<mgrwt>
<rscale>  1 0.12730637E+03</rscale>
<asrwt>0</asrwt>
<pdfrwt beam="1">  1       21 0.24059468E-02 0.12730637E+03</pdfrwt>
<pdfrwt beam="2">  1       -4 0.58943331E-01 0.12730637E+03</pdfrwt>
<totfact> 0.99737815E+04</totfact>
</mgrwt>
</event>
<event>
 6    4  0.3189516E-003  0.1275374E+03  0.7818608E-02  0.1231156E+00
         -4   -1    0    0    0  501 -0.00000000000E+00  0.00000000000E+00  0.44108070608E+02  0.44126350322E+02  0.12700000000E+01 0. -1.
         21   -1    0    0  501  502  0.00000000000E+00 -0.00000000000E+00 -0.13246218938E+03  0.13246218938E+03  0.00000000000E+00 0. -1.
         25    2    1    2    0    0 -0.10250196484E+02  0.23148968438E+02 -0.72969202960E+02  0.14693639303E+03  0.12499943099E+03 0.  0.
    9000005    1    3    3    0    0  0.18440117010E+02 -0.42985508778E+01  0.30608052776E+02  0.36005115605E+02  0.10000000000E+01 0.  0.
    9000005    1    3    3    0    0 -0.28690313493E+02  0.27447519316E+02 -0.10357725574E+03  0.11093127742E+03  0.10000000000E+01 0.  0.
         -4    1    1    2    0  502  0.10250196484E+02 -0.23148968438E+02 -0.15384915811E+02  0.29652146672E+02  0.12700000000E+01 0.  1.
<mgrwt>
<rscale>  1 0.12753744E+03</rscale>
<asrwt>0</asrwt>
<pdfrwt beam="2">  1       21 0.20378798E-01 0.12753744E+03</pdfrwt>
<pdfrwt beam="1">  1       -4 0.67877315E-02 0.12753744E+03</pdfrwt>
<totfact> 0.12913739E+05</totfact>
</mgrwt>
</event>
<event>
 6    4  0.3189516E-003  0.1269641E+03  0.7818608E-02  0.1232031E+00
          4   -1    0    0  502    0 -0.00000000000E+00  0.00000000000E+00  0.17603937319E+03  0.17604395421E+03  0.12700000000E+01 0. -1.
         21   -1    0    0  501  502  0.00000000000E+00 -0.00000000000E+00 -0.41924812468E+02  0.41924812468E+02  0.00000000000E+00 0.  1.
         25    2    1    2    0    0 -0.15213648511E+02 -0.16248145578E+02  0.14535762632E+03  0.19299925007E+03  0.12499765463E+03 0.  0.
    9000005    1    3    3    0    0 -0.34660716058E+02 -0.51041111130E+02  0.25646692843E+02  0.66822998412E+02  0.10000000000E+01 0.  0.
    9000005    1    3    3    0    0  0.19447067546E+02  0.34792965552E+02  0.11971093348E+03  0.12617625166E+03  0.10000000000E+01 0.  0.
          4    1    1    2  501    0  0.15213648511E+02  0.16248145578E+02 -0.11243065596E+02  0.24969516610E+02  0.12700000000E+01 0.  1.
<mgrwt>
<rscale>  1 0.12696405E+03</rscale>
<asrwt>0</asrwt>
<pdfrwt beam="2">  1       21 0.64499713E-02 0.12696405E+03</pdfrwt>
<pdfrwt beam="1">  1        4 0.27084812E-01 0.12696405E+03</pdfrwt>
<totfact> 0.89593659E+04</totfact>
</mgrwt>
</event>
<event>
 6    4  0.3189516E-003  0.1278804E+03  0.7818608E-02  0.1230635E+00
         21   -1    0    0  501  502  0.00000000000E+00  0.00000000000E+00  0.14105220490E+02  0.14105220490E+02  0.00000000000E+00 0.  1.
          4   -1    0    0  502    0 -0.00000000000E+00 -0.00000000000E+00 -0.47453710250E+03  0.47453880194E+03  0.12700000000E+01 0. -1.
         25    2    1    2    0    0  0.26160249843E+02 -0.66088892769E+01 -0.42658070974E+03  0.44533639200E+03  0.12500145612E+03 0.  0.
    9000005    1    3    3    0    0  0.15861726670E+02 -0.86245018918E+01 -0.43274650450E+03  0.43312413182E+03  0.10000000000E+01 0.  0.
    9000005    1    3    3    0    0  0.10298523174E+02  0.20156126149E+01  0.61657947613E+01  0.12212260184E+02  0.10000000000E+01 0.  0.
          4    1    1    2  501    0 -0.26160249843E+02  0.66088892769E+01 -0.33851172268E+02  0.43307630428E+02  0.12700000000E+01 0.  1.
<mgrwt>
<rscale>  1 0.12788041E+03</rscale>
<asrwt>0</asrwt>
<pdfrwt beam="1">  1       21 0.21700341E-02 0.12788041E+03</pdfrwt>
<pdfrwt beam="2">  1        4 0.73010230E-01 0.12788041E+03</pdfrwt>
<totfact> 0.74786001E+04</totfact>
</mgrwt>
</event>
<event>
 6    4  0.3189516E-003  0.1271114E+03  0.7818608E-02  0.1231806E+00
         21   -1    0    0  501  502  0.00000000000E+00  0.00000000000E+00  0.56687254610E+03  0.56687254610E+03  0.00000000000E+00 0. -1.
          4   -1    0    0  502    0 -0.00000000000E+00 -0.00000000000E+00 -0.28036779382E+02  0.28065528645E+02  0.12700000000E+01 0.  1.
         25    2    1    2    0    0  0.58629654408E+01 -0.22320180895E+02  0.11791050972E+03  0.17337876728E+03  0.12499897520E+03 0.  0.
    9000005    1    3    3    0    0  0.62866747198E+02 -0.42113219760E+01  0.82677649275E+02  0.10395459021E+03  0.10000000000E+01 0.  0.
    9000005    1    3    3    0    0 -0.57003781757E+02 -0.18108858919E+02  0.35232860449E+02  0.69424177067E+02  0.10000000000E+01 0.  0.
          4    1    1    2  501    0 -0.58629654408E+01  0.22320180895E+02  0.42092525700E+03  0.42155930747E+03  0.12700000000E+01 0. -1.
<mgrwt>
<rscale>  1 0.12711140E+03</rscale>
<asrwt>0</asrwt>
<pdfrwt beam="1">  1       21 0.87211153E-01 0.12711140E+03</pdfrwt>
<pdfrwt beam="2">  1        4 0.43156720E-02 0.12711140E+03</pdfrwt>
<totfact> 0.14040132E+04</totfact>
</mgrwt>
</event>
<event>
 6    4  0.3189516E-003  0.1318156E+03  0.7818608E-02  0.1224786E+00
         -4   -1    0    0    0  501 -0.00000000000E+00  0.00000000000E+00  0.78917393031E+03  0.78917495220E+03  0.12700000000E+01 0. -1.
         21   -1    0    0  501  502  0.00000000000E+00 -0.00000000000E+00 -0.12525023845E+02  0.12525023845E+02  0.00000000000E+00 0.  1.
         25    2    1    2    0    0  0.38965689008E+02  0.15211140104E+02  0.71588502817E+03  0.72791945349E+03  0.12500261400E+03 0.  0.
    9000005    1    3    3    0    0  0.63065598883E+02  0.40840709898E+02  0.25897307022E+03  0.26965400877E+03  0.10000000000E+01 0.  0.
    9000005    1    3    3    0    0 -0.24099909876E+02 -0.25629569794E+02  0.45691195795E+03  0.45826544472E+03  0.10000000000E+01 0.  0.
         -4    1    1    2    0  502 -0.38965689008E+02 -0.15211140104E+02  0.60763878289E+02  0.73780522550E+02  0.12700000000E+01 0.  1.
<mgrwt>
<rscale>  1 0.13181562E+03</rscale>
<asrwt>0</asrwt>
<pdfrwt beam="2">  1       21 0.19269274E-02 0.13181562E+03</pdfrwt>
<pdfrwt beam="1">  1       -4 0.12141637E+00 0.13181562E+03</pdfrwt>
<totfact> 0.28492573E+04</totfact>
</mgrwt>
</event>
<event>
 6    4  0.3189516E-003  0.1301514E+03  0.7818608E-02  0.1227231E+00
         21   -1    0    0  501  502  0.00000000000E+00  0.00000000000E+00  0.24047326407E+04  0.24047326407E+04  0.00000000000E+00 0. -1.
          4   -1    0    0  502    0 -0.00000000000E+00 -0.00000000000E+00 -0.41595248584E+01  0.43490857714E+01  0.12700000000E+01 0.  1.
         25    2    1    2    0    0 -0.15408708609E+02 -0.32825993704E+02  0.10519877353E+04  0.10600082979E+04  0.12499768891E+03 0.  0.
    9000005    1    3    3    0    0 -0.32094606764E+02 -0.49929467550E+01  0.98531466404E+03  0.98585038442E+03  0.10000000000E+01 0.  0.
    9000005    1    3    3    0    0  0.16685898154E+02 -0.27833046949E+02  0.66673071254E+02  0.74157913469E+02  0.10000000000E+01 0.  0.
          4    1    1    2  501    0  0.15408708609E+02  0.32825993704E+02  0.13485853805E+04  0.13490734286E+04  0.12700000000E+01 0. -1.
<mgrwt>
<rscale>  1 0.13015144E+03</rscale>
<asrwt>0</asrwt>
<pdfrwt beam="1">  1       21 0.36995778E+00 0.13015144E+03</pdfrwt>
<pdfrwt beam="2">  1        4 0.65453623E-03 0.13015144E+03</pdfrwt>
<totfact> 0.32456781E+03</totfact>
</mgrwt>
</event>
<event>
 6    4  0.3189516E-003  0.1291091E+03  0.7818608E-02  0.1228784E+00
         21   -1    0    0  501  502  0.00000000000E+00  0.00000000000E+00  0.15411863675E+04  0.15411863675E+04  0.00000000000E+00 0.  1.
         -4   -1    0    0    0  501 -0.00000000000E+00 -0.00000000000E+00 -0.43123067942E+01  0.44954298891E+01  0.12700000000E+01 0.  1.
         25    2    1    2    0    0  0.19030269431E+01 -0.32243433202E+02  0.10853565507E+04  0.10930086976E+04  0.12500364182E+03 0.  0.
    9000005    1    3    3    0    0  0.36507993710E+02  0.36164063858E+02  0.36932194352E+03  0.37288117556E+03  0.10000000000E+01 0.  0.
    9000005    1    3    3    0    0 -0.34604966767E+02 -0.68407497060E+02  0.71603460714E+03  0.72012752204E+03  0.10000000000E+01 0.  0.
         -4    1    1    2    0  502 -0.19030269431E+01  0.32243433202E+02  0.45151751001E+03  0.45267309975E+03  0.12700000000E+01 0. -1.
<mgrwt>
<rscale>  1 0.12910914E+03</rscale>
<asrwt>0</asrwt>
<pdfrwt beam="1">  1       21 0.23710516E+00 0.12910914E+03</pdfrwt>
<pdfrwt beam="2">  1       -4 0.67755969E-03 0.12910914E+03</pdfrwt>
<totfact> 0.17639767E+04</totfact>
</mgrwt>
</event>
<event>
 6    4  0.3189516E-003  0.1279406E+03  0.7818608E-02  0.1230544E+00
         -4   -1    0    0    0  501 -0.00000000000E+00  0.00000000000E+00  0.43692837978E+02  0.43711291340E+02  0.12700000000E+01 0.  1.
         21   -1    0    0  501  502  0.00000000000E+00 -0.00000000000E+00 -0.15210682801E+04  0.15210682801E+04  0.00000000000E+00 0. -1.
         25    2    1    2    0    0  0.20718459771E+02 -0.17722703945E+02 -0.50347412452E+02  0.13749054704E+03  0.12500175908E+03 0.  0.
    9000005    1    3    3    0    0  0.27609468029E+02  0.39146130651E+02 -0.62669366773E+02  0.78886955839E+02  0.10000000000E+01 0.  0.
    9000005    1    3    3    0    0 -0.68910082580E+01 -0.56868834597E+02  0.12321954322E+02  0.58603591200E+02  0.10000000000E+01 0.  0.
         -4    1    1    2    0  502 -0.20718459771E+02  0.17722703945E+02 -0.14270280297E+04  0.14272890244E+04  0.12700000000E+01 0. -1.
<mgrwt>
<rscale>  1 0.12794057E+03</rscale>
<asrwt>0</asrwt>
<pdfrwt beam="2">  1       21 0.23401048E+00 0.12794057E+03</pdfrwt>
<pdfrwt beam="1">  1       -4 0.67234359E-02 0.12794057E+03</pdfrwt>
<totfact> 0.52604152E+02</totfact>
</mgrwt>
</event>
<event>
 6    4  0.3189516E-003  0.1294832E+03  0.7818608E-02  0.1228225E+00
          4   -1    0    0  502    0 -0.00000000000E+00  0.00000000000E+00  0.43962101974E+03  0.43962285416E+03  0.12700000000E+01 0.  1.
         21   -1    0    0  501  502  0.00000000000E+00 -0.00000000000E+00 -0.20767623354E+02  0.20767623354E+02  0.00000000000E+00 0. -1.
         25    2    1    2    0    0 -0.33650584097E+02 -0.29071615914E+01  0.40255383686E+03  0.42286579311E+03  0.12500029606E+03 0.  0.
    9000005    1    3    3    0    0 -0.15210703370E+02  0.51098083736E+02  0.30674140975E+03  0.31134172884E+03  0.10000000000E+01 0.  0.
    9000005    1    3    3    0    0 -0.18439880727E+02 -0.54005245327E+02  0.95812427104E+02  0.11152406427E+03  0.10000000000E+01 0.  0.
          4    1    1    2  501    0  0.33650584097E+02  0.29071615914E+01  0.16299559529E+02  0.37524684401E+02  0.12700000000E+01 0. -1.
<mgrwt>
<rscale>  1 0.12948315E+03</rscale>
<asrwt>0</asrwt>
<pdfrwt beam="2">  1       21 0.31950193E-02 0.12948315E+03</pdfrwt>
<pdfrwt beam="1">  1        4 0.67637124E-01 0.12948315E+03</pdfrwt>
<totfact> 0.47003706E+04</totfact>
</mgrwt>
</event>
<event>
 6    4  0.3189516E-003  0.1527681E+03  0.7818608E-02  0.1197112E+00
         -4   -1    0    0    0  501 -0.00000000000E+00  0.00000000000E+00  0.44737337365E+02  0.44755360064E+02  0.12700000000E+01 0. -1.
         21   -1    0    0  501  502  0.00000000000E+00 -0.00000000000E+00 -0.51093825605E+03  0.51093825605E+03  0.00000000000E+00 0.  1.
         25    2    1    2    0    0  0.87744554621E+02  0.36124924510E+01 -0.10852418093E+03  0.18739154092E+03  0.12500373911E+03 0.  0.
    9000005    1    3    3    0    0  0.59330479243E+02  0.28473198622E+02 -0.12871438342E+03  0.14456562975E+03  0.10000000000E+01 0.  0.
    9000005    1    3    3    0    0  0.28414075379E+02 -0.24860706170E+02  0.20190202481E+02  0.42825911166E+02  0.10000000000E+01 0.  0.
         -4    1    1    2    0  502 -0.87744554621E+02 -0.36124924510E+01 -0.35767673775E+03  0.36830207520E+03  0.12700000000E+01 0.  1.
<mgrwt>
<rscale>  1 0.15276810E+03</rscale>
<asrwt>0</asrwt>
<pdfrwt beam="2">  1       21 0.78605884E-01 0.15276810E+03</pdfrwt>
<pdfrwt beam="1">  1       -4 0.68841752E-02 0.15276810E+03</pdfrwt>
<totfact> 0.84396917E+03</totfact>
</mgrwt>
</event>
<event>
 6    4  0.3189516E-003  0.1497881E+03  0.7818608E-02  0.1200734E+00
         21   -1    0    0  501  502  0.00000000000E+00  0.00000000000E+00  0.87529771164E+02  0.87529771164E+02  0.00000000000E+00 0. -1.
          4   -1    0    0  502    0 -0.00000000000E+00 -0.00000000000E+00 -0.21278038245E+03  0.21278417248E+03  0.12700000000E+01 0.  1.
         25    2    1    2    0    0  0.50355232832E+02  0.65382449805E+02 -0.15214657888E+03  0.21350656959E+03  0.12500383825E+03 0.  0.
    9000005    1    3    3    0    0  0.73900002367E+02  0.70076307395E+02 -0.59844752283E+02  0.11812829290E+03  0.10000000000E+01 0.  0.
    9000005    1    3    3    0    0 -0.23544769535E+02 -0.46938575898E+01 -0.92301826597E+02  0.95378276691E+02  0.10000000000E+01 0.  0.
          4    1    1    2  501    0 -0.50355232832E+02 -0.65382449805E+02  0.26895967593E+02  0.86807374047E+02  0.12700000000E+01 0. -1.
<mgrwt>
<rscale>  1 0.14978810E+03</rscale>
<asrwt>0</asrwt>
<pdfrwt beam="1">  1       21 0.13466119E-01 0.14978810E+03</pdfrwt>
<pdfrwt beam="2">  1        4 0.32736444E-01 0.14978810E+03</pdfrwt>
<totfact> 0.17671817E+04</totfact>
</mgrwt>
</event>
<event>
 6    4  0.3189516E-003  0.1279752E+03  0.7818608E-02  0.1230491E+00
         21   -1    0    0  501  502  0.00000000000E+00  0.00000000000E+00  0.24480220077E+03  0.24480220077E+03  0.00000000000E+00 0.  1.
          4   -1    0    0  502    0 -0.00000000000E+00 -0.00000000000E+00 -0.29601579884E+02  0.29628810837E+02  0.12700000000E+01 0. -1.
         25    2    1    2    0    0  0.27438880851E+02 -0.12226301645E+00  0.12032158855E+03  0.17565575758E+03  0.12499901348E+03 0.  0.
    9000005    1    3    3    0    0 -0.45129445222E+01  0.22025298524E+02  0.13289238151E+03  0.13478451509E+03  0.10000000000E+01 0.  0.
    9000005    1    3    3    0    0  0.31951825373E+02 -0.22147561540E+02 -0.12570792968E+02  0.40871242490E+02  0.10000000000E+01 0.  0.
          4    1    1    2  501    0 -0.27438880851E+02  0.12226301645E+00  0.94879032340E+02  0.98775254028E+02  0.12700000000E+01 0.  1.
<mgrwt>
<rscale>  1 0.12797523E+03</rscale>
<asrwt>0</asrwt>
<pdfrwt beam="1">  1       21 0.37661876E-01 0.12797523E+03</pdfrwt>
<pdfrwt beam="2">  1        4 0.45564375E-02 0.12797523E+03</pdfrwt>
<totfact> 0.75997308E+04</totfact>
</mgrwt>
</event>
<event>
 6    4  0.3189516E-003  0.1420344E+03  0.7818608E-02  0.1210617E+00
         21   -1    0    0  501  502  0.00000000000E+00  0.00000000000E+00  0.52603244227E+02  0.52603244227E+02  0.00000000000E+00 0.  1.
          4   -1    0    0  502    0 -0.00000000000E+00 -0.00000000000E+00 -0.39968285911E+03  0.39968487683E+03  0.12700000000E+01 0. -1.
         25    2    1    2    0    0  0.39078472550E+02  0.54998428735E+02 -0.35687481743E+03  0.38410078299E+03  0.12498728735E+03 0.  0.
    9000005    1    3    3    0    0  0.21603451398E+02 -0.30881951653E+02 -0.20761425692E+03  0.21100967685E+03  0.10000000000E+01 0.  0.
    9000005    1    3    3    0    0  0.17475021152E+02  0.85880380387E+02 -0.14926056051E+03  0.17309110614E+03  0.10000000000E+01 0.  0.
          4    1    1    2  501    0 -0.39078472550E+02 -0.54998428735E+02  0.97952025431E+01  0.68187338069E+02  0.12700000000E+01 0.  1.
<mgrwt>
<rscale>  1 0.14203442E+03</rscale>
<asrwt>0</asrwt>
<pdfrwt beam="1">  1       21 0.80928063E-02 0.14203442E+03</pdfrwt>
<pdfrwt beam="2">  1        4 0.61491009E-01 0.14203442E+03</pdfrwt>
<totfact> 0.12152664E+04</totfact>
</mgrwt>
</event>
<event>
 6    4  0.3189516E-003  0.1339709E+03  0.7818608E-02  0.1221680E+00
         -4   -1    0    0    0  501 -0.00000000000E+00  0.00000000000E+00  0.29500219815E+03  0.29500493184E+03  0.12700000000E+01 0. -1.
         21   -1    0    0  501  502  0.00000000000E+00 -0.00000000000E+00 -0.49879591233E+02  0.49879591233E+02  0.00000000000E+00 0.  1.
         25    2    1    2    0    0  0.90329628620E+01 -0.47348568242E+02  0.26161504684E+03  0.29392282366E+03  0.12499884882E+03 0.  0.
    9000005    1    3    3    0    0  0.35148868480E+02 -0.65071040863E+02  0.77541730557E+02  0.10716064246E+03  0.10000000000E+01 0.  0.
    9000005    1    3    3    0    0 -0.26115905618E+02  0.17722472621E+02  0.18407331628E+03  0.18676218120E+03  0.10000000000E+01 0.  0.
         -4    1    1    2    0  502 -0.90329628620E+01  0.47348568242E+02 -0.16492439921E+02  0.50961699414E+02  0.12700000000E+01 0.  1.
<mgrwt>
<rscale>  1 0.13397087E+03</rscale>
<asrwt>0</asrwt>
<pdfrwt beam="2">  1       21 0.76737834E-02 0.13397087E+03</pdfrwt>
<pdfrwt beam="1">  1       -4 0.45386407E-01 0.13397087E+03</pdfrwt>
<totfact> 0.24732904E+04</totfact>
</mgrwt>
</event>
<event>
 6    4  0.3189516E-003  0.1274876E+03  0.7818608E-02  0.1231232E+00
         -4   -1    0    0    0  501 -0.00000000000E+00  0.00000000000E+00  0.90122119483E+03  0.90122208967E+03  0.12700000000E+01 0. -1.
         21   -1    0    0  501  502  0.00000000000E+00 -0.00000000000E+00 -0.89702919544E+02  0.89702919544E+02  0.00000000000E+00 0.  1.
         25    2    1    2    0    0 -0.11145829264E+02  0.22499803181E+02  0.89484869036E+03  0.90388454949E+03  0.12499051773E+03 0.  0.
    9000005    1    3    3    0    0  0.12946570991E+02 -0.44277274646E+02  0.54221266413E+03  0.54417245786E+03  0.10000000000E+01 0.  0.
    9000005    1    3    3    0    0 -0.24092400255E+02  0.66777077827E+02  0.35263602623E+03  0.35971209163E+03  0.10000000000E+01 0.  0.
         -4    1    1    2    0  502  0.11145829264E+02 -0.22499803181E+02 -0.83330415070E+02  0.87040459724E+02  0.12700000000E+01 0.  1.
<mgrwt>
<rscale>  1 0.12748765E+03</rscale>
<asrwt>0</asrwt>
<pdfrwt beam="2">  1       21 0.13800450E-01 0.12748765E+03</pdfrwt>
<pdfrwt beam="1">  1       -4 0.13865017E+00 0.12748765E+03</pdfrwt>
<totfact> 0.73954829E+02</totfact>
</mgrwt>
</event>
<event>
 6    4  0.3189516E-003  0.1601859E+03  0.7818608E-02  0.1188487E+00
         -4   -1    0    0    0  501 -0.00000000000E+00  0.00000000000E+00  0.20581592725E+02  0.20620738568E+02  0.12700000000E+01 0. -1.
         21   -1    0    0  501  502  0.00000000000E+00 -0.00000000000E+00 -0.12617841642E+04  0.12617841642E+04  0.00000000000E+00 0. -1.
         25    2    1    2    0    0 -0.99647530892E+02  0.10329824601E+02 -0.10854824654E+04  0.10972382210E+04  0.12499278109E+03 0.  0.
    9000005    1    3    3    0    0 -0.50591484211E+02 -0.43731938159E+02 -0.25751575513E+03  0.26605891233E+03  0.10000000000E+01 0.  0.
    9000005    1    3    3    0    0 -0.49056046681E+02  0.54061762760E+02 -0.82796671023E+03  0.83117930867E+03  0.10000000000E+01 0.  0.
         -4    1    1    2    0  502  0.99647530892E+02 -0.10329824601E+02 -0.15572010611E+03  0.18516668177E+03  0.12700000000E+01 0.  1.
<mgrwt>
<rscale>  1 0.16018593E+03</rscale>
<asrwt>0</asrwt>
<pdfrwt beam="2">  1       21 0.19412063E+00 0.16018593E+03</pdfrwt>
<pdfrwt beam="1">  1       -4 0.31694595E-02 0.16018593E+03</pdfrwt>
<totfact> 0.30638713E+03</totfact>
</mgrwt>
</event>
<event>
 6    4  0.3189516E-003  0.1356625E+03  0.7818608E-02  0.1219288E+00
         21   -1    0    0  501  502  0.00000000000E+00  0.00000000000E+00  0.53239569529E+03  0.53239569529E+03  0.00000000000E+00 0. -1.
         -4   -1    0    0    0  501 -0.00000000000E+00 -0.00000000000E+00 -0.16642983697E+02  0.16691369217E+02  0.12700000000E+01 0.  1.
         25    2    1    2    0    0 -0.49291101973E+02 -0.18661508158E+02  0.36780676917E+03  0.39202822394E+03  0.12500577706E+03 0.  0.
    9000005    1    3    3    0    0  0.19270705919E+02 -0.33674219637E+02  0.26324504007E+03  0.26609070690E+03  0.10000000000E+01 0.  0.
    9000005    1    3    3    0    0 -0.68561807892E+02  0.15012711479E+02  0.10456172910E+03  0.12593751704E+03  0.10000000000E+01 0.  0.
         -4    1    1    2    0  502  0.49291101973E+02  0.18661508158E+02  0.14794594243E+03  0.15705884057E+03  0.12700000000E+01 0. -1.
<mgrwt>
<rscale>  1 0.13566248E+03</rscale>
<asrwt>0</asrwt>
<pdfrwt beam="1">  1       21 0.81907017E-01 0.13566248E+03</pdfrwt>
<pdfrwt beam="2">  1       -4 0.25642979E-02 0.13566248E+03</pdfrwt>
<totfact> 0.36896015E+04</totfact>
</mgrwt>
</event>
<event>
 6    4  0.3189516E-003  0.1390047E+03  0.7818608E-02  0.1214674E+00
         -4   -1    0    0    0  501 -0.00000000000E+00  0.00000000000E+00  0.41817870340E+02  0.41837150713E+02  0.12700000000E+01 0.  1.
         21   -1    0    0  501  502  0.00000000000E+00 -0.00000000000E+00 -0.26598397305E+03  0.26598397305E+03  0.00000000000E+00 0.  1.
         25    2    1    2    0    0 -0.57739784423E+02 -0.19053647558E+02 -0.19726621604E+03  0.24132194337E+03  0.12500158467E+03 0.  0.
    9000005    1    3    3    0    0 -0.45034304469E+02 -0.15147741744E+02 -0.41047297813E+01  0.47701063568E+02  0.10000000000E+01 0.  0.
    9000005    1    3    3    0    0 -0.12705479954E+02 -0.39059058140E+01 -0.19316148626E+03  0.19362087980E+03  0.10000000000E+01 0.  0.
         -4    1    1    2    0  502  0.57739784423E+02  0.19053647558E+02 -0.26899886673E+02  0.66499180397E+02  0.12700000000E+01 0. -1.
<mgrwt>
<rscale>  1 0.13900475E+03</rscale>
<asrwt>0</asrwt>
<pdfrwt beam="2">  1       21 0.40920610E-01 0.13900475E+03</pdfrwt>
<pdfrwt beam="1">  1       -4 0.64352351E-02 0.13900475E+03</pdfrwt>
<totfact> 0.37219046E+04</totfact>
</mgrwt>
</event>
<event>
 6    4  0.3189516E-003  0.1270176E+03  0.7818608E-02  0.1231949E+00
         21   -1    0    0  501  502  0.00000000000E+00  0.00000000000E+00  0.26340982596E+02  0.26340982596E+02  0.00000000000E+00 0. -1.
         -4   -1    0    0    0  501 -0.00000000000E+00 -0.00000000000E+00 -0.33261247215E+03  0.33261489674E+03  0.12700000000E+01 0.  1.
         25    2    1    2    0    0  0.22351151361E+02  0.31297114316E+01 -0.31093227039E+03  0.33587547988E+03  0.12499636856E+03 0.  0.
    9000005    1    3    3    0    0  0.25442493920E+02 -0.92610179374E+01 -0.31938252064E+03  0.32052968885E+03  0.10000000000E+01 0.  0.
    9000005    1    3    3    0    0 -0.30913425582E+01  0.12390729369E+02  0.84502502412E+01  0.15345791027E+02  0.10000000000E+01 0.  0.
         -4    1    1    2    0  502 -0.22351151361E+02 -0.31297114316E+01  0.46607808374E+01  0.23080399451E+02  0.12700000000E+01 0. -1.
<mgrwt>
<rscale>  1 0.12701756E+03</rscale>
<asrwt>0</asrwt>
<pdfrwt beam="1">  1       21 0.40524589E-02 0.12701756E+03</pdfrwt>
<pdfrwt beam="2">  1       -4 0.51173690E-01 0.12701756E+03</pdfrwt>
<totfact> 0.56705422E+04</totfact>
</mgrwt>
</event>
<event>
 6    4  0.3189516E-003  0.1274081E+03  0.7818608E-02  0.1231353E+00
         21   -1    0    0  501  502  0.00000000000E+00  0.00000000000E+00  0.20708357281E+02  0.20708357281E+02  0.00000000000E+00 0. -1.
         -4   -1    0    0    0  501 -0.00000000000E+00 -0.00000000000E+00 -0.29665874372E+03  0.29666146215E+03  0.12700000000E+01 0. -1.
         25    2    1    2    0    0 -0.13081761468E+02 -0.20785498585E+02 -0.25502380488E+03  0.28507888959E+03  0.12501864979E+03 0.  0.
    9000005    1    3    3    0    0 -0.31751332140E+02  0.46395153905E+02 -0.13544106534E+03  0.14664903539E+03  0.10000000000E+01 0.  0.
    9000005    1    3    3    0    0  0.18669570671E+02 -0.67180652490E+02 -0.11958273954E+03  0.13842985420E+03  0.10000000000E+01 0.  0.
         -4    1    1    2    0  502  0.13081761468E+02  0.20785498585E+02 -0.20926581552E+02  0.32290929841E+02  0.12700000000E+01 0.  1.
<mgrwt>
<rscale>  1 0.12740813E+03</rscale>
<asrwt>0</asrwt>
<pdfrwt beam="1">  1       21 0.31859015E-02 0.12740813E+03</pdfrwt>
<pdfrwt beam="2">  1       -4 0.45643007E-01 0.12740813E+03</pdfrwt>
<totfact> 0.10640966E+05</totfact>
</mgrwt>
</event>
<event>
 6    4  0.3189516E-003  0.1302248E+03  0.7818608E-02  0.1227123E+00
          4   -1    0    0  502    0 -0.00000000000E+00  0.00000000000E+00  0.15447990797E+03  0.15448512830E+03  0.12700000000E+01 0. -1.
         21   -1    0    0  501  502  0.00000000000E+00 -0.00000000000E+00 -0.50260865719E+02  0.50260865719E+02  0.00000000000E+00 0. -1.
         25    2    1    2    0    0  0.36349432815E+02 -0.28390353992E+01  0.50208492790E+02  0.13956859195E+03  0.12501662978E+03 0.  0.
    9000005    1    3    3    0    0  0.45953632311E+02 -0.29945959436E+01  0.88666144352E+02  0.99916910890E+02  0.10000000000E+01 0.  0.
    9000005    1    3    3    0    0 -0.96041994966E+01  0.15556054445E+00 -0.38457651562E+02  0.39651681058E+02  0.10000000000E+01 0.  0.
          4    1    1    2  501    0 -0.36349432815E+02  0.28390353992E+01  0.54010549461E+02  0.65177402073E+02  0.12700000000E+01 0.  1.
<mgrwt>
<rscale>  1 0.13022480E+03</rscale>
<asrwt>0</asrwt>
<pdfrwt beam="2">  1       21 0.77324410E-02 0.13022480E+03</pdfrwt>
<pdfrwt beam="1">  1        4 0.23767775E-01 0.13022480E+03</pdfrwt>
<totfact> 0.83921761E+04</totfact>
</mgrwt>
</event>
<event>
 6    4  0.3189516E-003  0.1504777E+03  0.7818608E-02  0.1199887E+00
          4   -1    0    0  502    0 -0.00000000000E+00  0.00000000000E+00  0.45967229623E+03  0.45967405063E+03  0.12700000000E+01 0. -1.
         21   -1    0    0  501  502  0.00000000000E+00 -0.00000000000E+00 -0.32843073029E+02  0.32843073029E+02  0.00000000000E+00 0.  1.
         25    2    1    2    0    0 -0.62096810340E+02  0.56228617751E+02  0.34024022558E+03  0.37203086420E+03  0.12500352598E+03 0.  0.
    9000005    1    3    3    0    0  0.35249461488E+02 -0.50372372625E-01  0.11493857167E+03  0.12022646268E+03  0.10000000000E+01 0.  0.
    9000005    1    3    3    0    0 -0.97346271829E+02  0.56278990123E+02  0.22530165391E+03  0.25180440152E+03  0.10000000000E+01 0.  0.
          4    1    1    2  501    0  0.62096810340E+02 -0.56228617751E+02  0.86588997623E+02  0.12048625946E+03  0.12700000000E+01 0.  1.
<mgrwt>
<rscale>  1 0.15047775E+03</rscale>
<asrwt>0</asrwt>
<pdfrwt beam="2">  1       21 0.50527808E-02 0.15047775E+03</pdfrwt>
<pdfrwt beam="1">  1        4 0.70720834E-01 0.15047775E+03</pdfrwt>
<totfact> 0.20252967E+04</totfact>
</mgrwt>
</event>
<event>
 6    4  0.3189516E-003  0.1283126E+03  0.7818608E-02  0.1229981E+00
          4   -1    0    0  502    0 -0.00000000000E+00  0.00000000000E+00  0.32029474496E+03  0.32029726278E+03  0.12700000000E+01 0.  1.
         21   -1    0    0  501  502  0.00000000000E+00 -0.00000000000E+00 -0.31666330583E+02  0.31666330583E+02  0.00000000000E+00 0.  1.
         25    2    1    2    0    0 -0.91159083677E+01 -0.27453659135E+02  0.29554192560E+03  0.32219426817E+03  0.12500925354E+03 0.  0.
    9000005    1    3    3    0    0  0.44188844654E+02 -0.49113999003E+02  0.11416362859E+03  0.13190592474E+03  0.10000000000E+01 0.  0.
    9000005    1    3    3    0    0 -0.53304753021E+02  0.21660339868E+02  0.18137829701E+03  0.19028834343E+03  0.10000000000E+01 0.  0.
          4    1    1    2  501    0  0.91159083677E+01  0.27453659135E+02 -0.69135112239E+01  0.29769325197E+02  0.12700000000E+01 0. -1.
<mgrwt>
<rscale>  1 0.12831257E+03</rscale>
<asrwt>0</asrwt>
<pdfrwt beam="2">  1       21 0.48717434E-02 0.12831257E+03</pdfrwt>
<pdfrwt beam="1">  1        4 0.49278265E-01 0.12831257E+03</pdfrwt>
<totfact> 0.45091353E+04</totfact>
</mgrwt>
</event>
<event>
 6    4  0.3189516E-003  0.1271186E+03  0.7818608E-02  0.1231795E+00
         21   -1    0    0  501  502  0.00000000000E+00  0.00000000000E+00  0.25478135572E+02  0.25478135572E+02  0.00000000000E+00 0. -1.
          4   -1    0    0  502    0 -0.00000000000E+00 -0.00000000000E+00 -0.23171335845E+03  0.23171683881E+03  0.12700000000E+01 0. -1.
         25    2    1    2    0    0  0.22253761340E+02 -0.61767860438E+01 -0.15145322242E+03  0.19773016921E+03  0.12500303457E+03 0.  0.
    9000005    1    3    3    0    0 -0.32811565376E+02 -0.40815753276E+02 -0.31097767047E+02  0.60914658772E+02  0.10000000000E+01 0.  0.
    9000005    1    3    3    0    0  0.55065326716E+02  0.34638967233E+02 -0.12035545537E+03  0.13681551044E+03  0.10000000000E+01 0.  0.
          4    1    1    2  501    0 -0.22253761340E+02  0.61767860438E+01 -0.54782000460E+02  0.59464805171E+02  0.12700000000E+01 0.  1.
<mgrwt>
<rscale>  1 0.12711861E+03</rscale>
<asrwt>0</asrwt>
<pdfrwt beam="1">  1       21 0.39197132E-02 0.12711861E+03</pdfrwt>
<pdfrwt beam="2">  1        4 0.35650912E-01 0.12711861E+03</pdfrwt>
<totfact> 0.12284064E+05</totfact>
</mgrwt>
</event>
<event>
 6    4  0.3189516E-003  0.1314191E+03  0.7818608E-02  0.1225365E+00
         -4   -1    0    0    0  501 -0.00000000000E+00  0.00000000000E+00  0.57748439817E+02  0.57762403009E+02  0.12700000000E+01 0. -1.
         21   -1    0    0  501  502  0.00000000000E+00 -0.00000000000E+00 -0.33316281699E+03  0.33316281699E+03  0.00000000000E+00 0.  1.
         25    2    1    2    0    0 -0.25865570343E+02 -0.31230328015E+02 -0.20747187560E+02  0.13304666044E+03  0.12500642761E+03 0.  0.
    9000005    1    3    3    0    0 -0.63569235695E+02  0.17708868346E+02 -0.26226258299E+02  0.71017380756E+02  0.10000000000E+01 0.  0.
    9000005    1    3    3    0    0  0.37703665352E+02 -0.48939196361E+02  0.54790707392E+01  0.62029279680E+02  0.10000000000E+01 0.  0.
         -4    1    1    2    0  502  0.25865570343E+02  0.31230328015E+02 -0.25466718961E+03  0.25787855956E+03  0.12700000000E+01 0.  1.
<mgrwt>
<rscale>  1 0.13141906E+03</rscale>
<asrwt>0</asrwt>
<pdfrwt beam="2">  1       21 0.51255818E-01 0.13141906E+03</pdfrwt>
<pdfrwt beam="1">  1       -4 0.88856356E-02 0.13141906E+03</pdfrwt>
<totfact> 0.13734658E+04</totfact>
</mgrwt>
</event>
<event>
 6    4  0.3189516E-003  0.1392939E+03  0.7818608E-02  0.1214282E+00
          4   -1    0    0  502    0 -0.00000000000E+00  0.00000000000E+00  0.23587555363E+03  0.23587897256E+03  0.12700000000E+01 0. -1.
         21   -1    0    0  501  502  0.00000000000E+00 -0.00000000000E+00 -0.16031596817E+03  0.16031596817E+03  0.00000000000E+00 0.  1.
         25    2    1    2    0    0  0.13663624542E+02 -0.59937805930E+02  0.20790988688E+03  0.25025848058E+03  0.12499420316E+03 0.  0.
    9000005    1    3    3    0    0 -0.24524743177E+02 -0.88256238470E+02  0.14202642331E+03  0.16900630631E+03  0.10000000000E+01 0.  0.
    9000005    1    3    3    0    0  0.38188367719E+02  0.28318432540E+02  0.65883463575E+02  0.81252174267E+02  0.10000000000E+01 0.  0.
          4    1    1    2  501    0 -0.13663624542E+02  0.59937805930E+02 -0.13235030142E+03  0.14593646015E+03  0.12700000000E+01 0.  1.
<mgrwt>
<rscale>  1 0.13929388E+03</rscale>
<asrwt>0</asrwt>
<pdfrwt beam="2">  1       21 0.24663995E-01 0.13929388E+03</pdfrwt>
<pdfrwt beam="1">  1        4 0.36289197E-01 0.13929388E+03</pdfrwt>
<totfact> 0.47314829E+03</totfact>
</mgrwt>
</event>
<event>
 6    4  0.3189516E-003  0.1275114E+03  0.7818608E-02  0.1231196E+00
         -4   -1    0    0    0  501 -0.00000000000E+00  0.00000000000E+00  0.51013508204E+02  0.51029314314E+02  0.12700000000E+01 0.  1.
         21   -1    0    0  501  502  0.00000000000E+00 -0.00000000000E+00 -0.17784447552E+03  0.17784447552E+03  0.00000000000E+00 0.  1.
         25    2    1    2    0    0 -0.18201380233E+01  0.25141946461E+02 -0.33006899555E+02  0.13171413275E+03  0.12499490779E+03 0.  0.
    9000005    1    3    3    0    0  0.10832319338E+02  0.22361944143E+02 -0.79573613140E+02  0.83368792700E+02  0.10000000000E+01 0.  0.
    9000005    1    3    3    0    0 -0.12652457361E+02  0.27800023174E+01  0.46566713584E+02  0.48345340046E+02  0.10000000000E+01 0.  0.
         -4    1    1    2    0  502  0.18201380233E+01 -0.25141946461E+02 -0.93824067759E+02  0.97159657086E+02  0.12700000000E+01 0. -1.
<mgrwt>
<rscale>  1 0.12751140E+03</rscale>
<asrwt>0</asrwt>
<pdfrwt beam="2">  1       21 0.27360689E-01 0.12751140E+03</pdfrwt>
<pdfrwt beam="1">  1       -4 0.78497966E-02 0.12751140E+03</pdfrwt>
<totfact> 0.58462002E+04</totfact>
</mgrwt>
</event>
<event>
 6    4  0.3189516E-003  0.1266018E+03  0.7818608E-02  0.1232587E+00
         -4   -1    0    0    0  501 -0.00000000000E+00  0.00000000000E+00  0.12514350035E+03  0.12514994438E+03  0.12700000000E+01 0. -1.
         21   -1    0    0  501  502  0.00000000000E+00 -0.00000000000E+00 -0.51765454929E+02  0.51765454929E+02  0.00000000000E+00 0. -1.
         25    2    1    2    0    0  0.20092561602E+02 -0.10326763565E+01  0.86074775850E+02  0.15309109836E+03  0.12499295943E+03 0.  0.
    9000005    1    3    3    0    0  0.36234569303E+02 -0.49936781758E+02  0.80283707547E+02  0.10125759173E+03  0.10000000000E+01 0.  0.
    9000005    1    3    3    0    0 -0.16142007701E+02  0.48904105402E+02  0.57910683031E+01  0.51833506633E+02  0.10000000000E+01 0.  0.
         -4    1    1    2    0  502 -0.20092561602E+02  0.10326763565E+01 -0.12696730431E+02  0.23824300952E+02  0.12700000000E+01 0. -1.
<mgrwt>
<rscale>  1 0.12660181E+03</rscale>
<asrwt>0</asrwt>
<pdfrwt beam="2">  1       21 0.79639162E-02 0.12660181E+03</pdfrwt>
<pdfrwt beam="1">  1       -4 0.19254540E-01 0.12660181E+03</pdfrwt>
<totfact> 0.11631724E+05</totfact>
</mgrwt>
</event>
<event>
 6    4  0.3189516E-003  0.1313788E+03  0.7818608E-02  0.1225424E+00
         21   -1    0    0  501  502  0.00000000000E+00  0.00000000000E+00  0.94172469940E+02  0.94172469940E+02  0.00000000000E+00 0.  1.
          4   -1    0    0  502    0 -0.00000000000E+00 -0.00000000000E+00 -0.98881065317E+03  0.98881146875E+03  0.12700000000E+01 0. -1.
         25    2    1    2    0    0  0.25077434882E+02  0.31723329468E+02 -0.97986939403E+03  0.98863766390E+03  0.12500061496E+03 0.  0.
    9000005    1    3    3    0    0 -0.10382999113E+02 -0.42300737737E+02 -0.49055359525E+03  0.49248450625E+03  0.10000000000E+01 0.  0.
    9000005    1    3    3    0    0  0.35460433996E+02  0.74024067204E+02 -0.48931579879E+03  0.49615315765E+03  0.10000000000E+01 0.  0.
          4    1    1    2  501    0 -0.25077434882E+02 -0.31723329468E+02  0.85231210800E+02  0.94346274792E+02  0.12700000000E+01 0.  1.
<mgrwt>
<rscale>  1 0.13137885E+03</rscale>
<asrwt>0</asrwt>
<pdfrwt beam="1">  1       21 0.14488072E-01 0.13137885E+03</pdfrwt>
<pdfrwt beam="2">  1        4 0.15212544E+00 0.13137885E+03</pdfrwt>
<totfact> 0.53682018E+02</totfact>
</mgrwt>
</event>
<event>
 6    4  0.3189516E-003  0.1270098E+03  0.7818608E-02  0.1231961E+00
         21   -1    0    0  501  502  0.00000000000E+00  0.00000000000E+00  0.60831592523E+02  0.60831592523E+02  0.00000000000E+00 0.  1.
         -4   -1    0    0    0  501 -0.00000000000E+00 -0.00000000000E+00 -0.28761946814E+03  0.28762227201E+03  0.12700000000E+01 0. -1.
         25    2    1    2    0    0  0.21684396838E+02 -0.62231088838E+01 -0.27073029763E+03  0.29904243364E+03  0.12499017127E+03 0.  0.
    9000005    1    3    3    0    0  0.58879211971E+02  0.23657248770E+02 -0.78327060429E+02  0.10080950063E+03  0.10000000000E+01 0.  0.
    9000005    1    3    3    0    0 -0.37194815133E+02 -0.29880357653E+02 -0.19240323720E+03  0.19823293301E+03  0.10000000000E+01 0.  0.
         -4    1    1    2    0  502 -0.21684396838E+02  0.62231088838E+01  0.43942422008E+02  0.49411430888E+02  0.12700000000E+01 0.  1.
<mgrwt>
<rscale>  1 0.12700978E+03</rscale>
<asrwt>0</asrwt>
<pdfrwt beam="1">  1       21 0.93587067E-02 0.12700978E+03</pdfrwt>
<pdfrwt beam="2">  1       -4 0.44250384E-01 0.12700978E+03</pdfrwt>
<totfact> 0.18346161E+04</totfact>
</mgrwt>
</event>
<event>
 6    4  0.3189516E-003  0.1275942E+03  0.7818608E-02  0.1231070E+00
         21   -1    0    0  501  502  0.00000000000E+00  0.00000000000E+00  0.15273137381E+03  0.15273137381E+03  0.00000000000E+00 0. -1.
         -4   -1    0    0    0  501 -0.00000000000E+00 -0.00000000000E+00 -0.13712972224E+03  0.13713560304E+03  0.12700000000E+01 0.  1.
         25    2    1    2    0    0  0.22014305299E+02  0.13120153720E+02 -0.10581902369E+03  0.16576475547E+03  0.12499408110E+03 0.  0.
    9000005    1    3    3    0    0  0.50243696104E+02  0.39272294248E+02 -0.10988816641E+03  0.12705570121E+03  0.10000000000E+01 0.  0.
    9000005    1    3    3    0    0 -0.28229390805E+02 -0.26152140529E+02  0.40691427192E+01  0.38709054263E+02  0.10000000000E+01 0.  0.
         -4    1    1    2    0  502 -0.22014305299E+02 -0.13120153720E+02  0.12142067525E+03  0.12410222138E+03  0.12700000000E+01 0. -1.
<mgrwt>
<rscale>  1 0.12759423E+03</rscale>
<asrwt>0</asrwt>
<pdfrwt beam="1">  1       21 0.23497134E-01 0.12759423E+03</pdfrwt>
<pdfrwt beam="2">  1       -4 0.21097739E-01 0.12759423E+03</pdfrwt>
<totfact> 0.14202830E+04</totfact>
</mgrwt>
</event>
<event>
 6    4  0.3189516E-003  0.1387010E+03  0.7818608E-02  0.1215088E+00
         21   -1    0    0  501  502  0.00000000000E+00  0.00000000000E+00  0.40499310370E+03  0.40499310370E+03  0.00000000000E+00 0.  1.
         -4   -1    0    0    0  501 -0.00000000000E+00 -0.00000000000E+00 -0.35364780354E+02  0.35387576768E+02  0.12700000000E+01 0.  1.
         25    2    1    2    0    0  0.41264270691E+02 -0.43693504956E+02  0.11934161125E+03  0.18297649720E+03  0.12500446369E+03 0.  0.
    9000005    1    3    3    0    0  0.32032128463E+02 -0.78529521582E+02  0.35942552602E+02  0.92118456898E+02  0.10000000000E+01 0.  0.
    9000005    1    3    3    0    0  0.92321422281E+01  0.34836016626E+02  0.83399058651E+02  0.90858040307E+02  0.10000000000E+01 0.  0.
         -4    1    1    2    0  502 -0.41264270691E+02  0.43693504956E+02  0.25028671210E+03  0.25740418327E+03  0.12700000000E+01 0. -1.
<mgrwt>
<rscale>  1 0.13870104E+03</rscale>
<asrwt>0</asrwt>
<pdfrwt beam="1">  1       21 0.62306628E-01 0.13870104E+03</pdfrwt>
<pdfrwt beam="2">  1       -4 0.54426425E-02 0.13870104E+03</pdfrwt>
<totfact> 0.20442708E+04</totfact>
</mgrwt>
</event>
<event>
 6    4  0.3189516E-003  0.1278978E+03  0.7818608E-02  0.1230609E+00
         21   -1    0    0  501  502  0.00000000000E+00  0.00000000000E+00  0.68389755706E+03  0.68389755706E+03  0.00000000000E+00 0. -1.
          4   -1    0    0  502    0 -0.00000000000E+00 -0.00000000000E+00 -0.87712341781E+01  0.88626998712E+01  0.12700000000E+01 0. -1.
         25    2    1    2    0    0 -0.48565696664E+01  0.26585643513E+02  0.53839172169E+03  0.55337465232E+03  0.12500990815E+03 0.  0.
    9000005    1    3    3    0    0 -0.28772873405E+02 -0.44220867215E+02  0.20187820518E+03  0.20866042525E+03  0.10000000000E+01 0.  0.
    9000005    1    3    3    0    0  0.23916303739E+02  0.70806510728E+02  0.33651351651E+03  0.34471422707E+03  0.10000000000E+01 0.  0.
          4    1    1    2  501    0  0.48565696664E+01 -0.26585643513E+02  0.13673460119E+03  0.13938560461E+03  0.12700000000E+01 0.  1.
<mgrwt>
<rscale>  1 0.12789785E+03</rscale>
<asrwt>0</asrwt>
<pdfrwt beam="1">  1       21 0.10521497E+00 0.12789785E+03</pdfrwt>
<pdfrwt beam="2">  1        4 0.13565477E-02 0.12789785E+03</pdfrwt>
<totfact> 0.54771314E+04</totfact>
</mgrwt>
</event>
<event>
 6    4  0.3189516E-003  0.1269705E+03  0.7818608E-02  0.1232021E+00
         -4   -1    0    0    0  501 -0.00000000000E+00  0.00000000000E+00  0.88610054469E+03  0.88610145480E+03  0.12700000000E+01 0.  1.
         21   -1    0    0  501  502  0.00000000000E+00 -0.00000000000E+00 -0.10009221668E+02  0.10009221668E+02  0.00000000000E+00 0.  1.
         25    2    1    2    0    0  0.17267952347E+02 -0.14073663365E+02  0.85811410414E+03  0.86745682023E+03  0.12500107622E+03 0.  0.
    9000005    1    3    3    0    0  0.14825986948E+02  0.30838320097E+02  0.68645447572E+02  0.76707296574E+02  0.10000000000E+01 0.  0.
    9000005    1    3    3    0    0  0.24419653984E+01 -0.44911983462E+02  0.78946865657E+03  0.79074952365E+03  0.10000000000E+01 0.  0.
         -4    1    1    2    0  502 -0.17267952347E+02  0.14073663365E+02  0.17977218878E+02  0.28653856239E+02  0.12700000000E+01 0. -1.
<mgrwt>
<rscale>  1 0.12697054E+03</rscale>
<asrwt>0</asrwt>
<pdfrwt beam="2">  1       21 0.15398810E-02 0.12697054E+03</pdfrwt>
<pdfrwt beam="1">  1       -4 0.13632937E+00 0.12697054E+03</pdfrwt>
<totfact> 0.30641960E+04</totfact>
</mgrwt>
</event>
<event>
 6    4  0.3189516E-003  0.1266259E+03  0.7818608E-02  0.1232550E+00
         21   -1    0    0  501  502  0.00000000000E+00  0.00000000000E+00  0.48904679704E+02  0.48904679704E+02  0.00000000000E+00 0. -1.
         -4   -1    0    0    0  501 -0.00000000000E+00 -0.00000000000E+00 -0.11159280529E+03  0.11160003178E+03  0.12700000000E+01 0. -1.
         25    2    1    2    0    0  0.56262685894E+01 -0.19572273337E+02 -0.48242925324E+02  0.13550460163E+03  0.12497755174E+03 0.  0.
    9000005    1    3    3    0    0 -0.40715800274E+02 -0.37628120511E+02 -0.62699557912E+02  0.83701173275E+02  0.10000000000E+01 0.  0.
    9000005    1    3    3    0    0  0.46342068863E+02  0.18055847175E+02  0.14456632589E+02  0.51803428357E+02  0.10000000000E+01 0.  0.
         -4    1    1    2    0  502 -0.56262685894E+01  0.19572273337E+02 -0.14445200262E+02  0.25000109848E+02  0.12700000000E+01 0.  1.
<mgrwt>
<rscale>  1 0.12662589E+03</rscale>
<asrwt>0</asrwt>
<pdfrwt beam="1">  1       21 0.75237969E-02 0.12662589E+03</pdfrwt>
<pdfrwt beam="2">  1       -4 0.17169948E-01 0.12662589E+03</pdfrwt>
<totfact> 0.15724720E+05</totfact>
</mgrwt>
</event>
<event>
 6    4  0.3189516E-003  0.1267916E+03  0.7818608E-02  0.1232296E+00
          4   -1    0    0  502    0 -0.00000000000E+00  0.00000000000E+00  0.24887456996E+02  0.24919839802E+02  0.12700000000E+01 0. -1.
         21   -1    0    0  501  502  0.00000000000E+00 -0.00000000000E+00 -0.41608572482E+03  0.41608572482E+03  0.00000000000E+00 0.  1.
         25    2    1    2    0    0  0.17262775970E+02 -0.12374757011E+02 -0.13989606906E+03  0.18880416484E+03  0.12499985792E+03 0.  0.
    9000005    1    3    3    0    0 -0.37640561652E+02 -0.45731485527E+02 -0.88646832101E+02  0.10661820432E+03  0.10000000000E+01 0.  0.
    9000005    1    3    3    0    0  0.54903337622E+02  0.33356728516E+02 -0.51249236956E+02  0.82185960528E+02  0.10000000000E+01 0.  0.
          4    1    1    2  501    0 -0.17262775970E+02  0.12374757011E+02 -0.25130219876E+03  0.25220139977E+03  0.12700000000E+01 0.  1.
<mgrwt>
<rscale>  1 0.12679157E+03</rscale>
<asrwt>0</asrwt>
<pdfrwt beam="2">  1       21 0.64013187E-01 0.12679157E+03</pdfrwt>
<pdfrwt beam="1">  1        4 0.38314797E-02 0.12679157E+03</pdfrwt>
<totfact> 0.33542576E+04</totfact>
</mgrwt>
</event>
<event>
 6    4  0.3189516E-003  0.1281085E+03  0.7818608E-02  0.1230290E+00
         21   -1    0    0  501  502  0.00000000000E+00  0.00000000000E+00  0.26488183538E+03  0.26488183538E+03  0.00000000000E+00 0.  1.
         -4   -1    0    0    0  501 -0.00000000000E+00 -0.00000000000E+00 -0.60906244450E+02  0.60919483853E+02  0.12700000000E+01 0. -1.
         25    2    1    2    0    0 -0.57298043155E+01 -0.27450537110E+02  0.85754604481E+01  0.12839517308E+03  0.12500167721E+03 0.  0.
    9000005    1    3    3    0    0 -0.21684031994E+02  0.34105685310E+02 -0.33192359202E+02  0.52308008215E+02  0.10000000000E+01 0.  0.
    9000005    1    3    3    0    0  0.15954227679E+02 -0.61556222420E+02  0.41767819650E+02  0.76087164869E+02  0.10000000000E+01 0.  0.
         -4    1    1    2    0  502  0.57298043155E+01  0.27450537110E+02  0.19540013048E+03  0.19740614615E+03  0.12700000000E+01 0.  1.
<mgrwt>
<rscale>  1 0.12810848E+03</rscale>
<asrwt>0</asrwt>
<pdfrwt beam="1">  1       21 0.40751051E-01 0.12810848E+03</pdfrwt>
<pdfrwt beam="2">  1       -4 0.93714442E-02 0.12810848E+03</pdfrwt>
<totfact> 0.20003267E+04</totfact>
</mgrwt>
</event>
<event>
 6    4  0.3189516E-003  0.1410116E+03  0.7818608E-02  0.1211974E+00
         21   -1    0    0  501  502  0.00000000000E+00  0.00000000000E+00  0.11874631075E+03  0.11874631075E+03  0.00000000000E+00 0. -1.
         -4   -1    0    0    0  501 -0.00000000000E+00 -0.00000000000E+00 -0.94767099529E+02  0.94775608957E+02  0.12700000000E+01 0. -1.
         25    2    1    2    0    0 -0.32453638786E+02  0.56623020774E+02  0.39472334332E+02  0.14643201796E+03  0.12499946222E+03 0.  0.
    9000005    1    3    3    0    0 -0.62881838807E+00  0.91030796225E+02  0.40265495035E+02  0.99545524079E+02  0.10000000000E+01 0.  0.
    9000005    1    3    3    0    0 -0.31824820398E+02 -0.34407775451E+02 -0.79316070325E+00  0.46886493884E+02  0.10000000000E+01 0.  0.
         -4    1    1    2    0  502  0.32453638786E+02 -0.56623020774E+02 -0.15493123112E+02  0.67089901742E+02  0.12700000000E+01 0.  1.
<mgrwt>
<rscale>  1 0.14101160E+03</rscale>
<asrwt>0</asrwt>
<pdfrwt beam="1">  1       21 0.18268663E-01 0.14101160E+03</pdfrwt>
<pdfrwt beam="2">  1       -4 0.14580731E-01 0.14101160E+03</pdfrwt>
<totfact> 0.44097252E+04</totfact>
</mgrwt>
</event>
<event>
 6    4  0.3189516E-003  0.1309027E+03  0.7818608E-02  0.1226122E+00
         -4   -1    0    0    0  501 -0.00000000000E+00  0.00000000000E+00  0.30288463735E+02  0.30315077691E+02  0.12700000000E+01 0.  1.
         21   -1    0    0  501  502  0.00000000000E+00 -0.00000000000E+00 -0.35488581970E+03  0.35488581970E+03  0.00000000000E+00 0.  1.
         25    2    1    2    0    0  0.38841860289E+02  0.11813461244E+01 -0.12211170338E+03  0.17901617902E+03  0.12500175422E+03 0.  0.
    9000005    1    3    3    0    0 -0.29825039652E+01 -0.51852942007E+02 -0.18132570717E+02  0.55021932404E+02  0.10000000000E+01 0.  0.
    9000005    1    3    3    0    0  0.41824364254E+02  0.53034288132E+02 -0.10397913267E+03  0.12399424661E+03  0.10000000000E+01 0.  0.
         -4    1    1    2    0  502 -0.38841860289E+02 -0.11813461244E+01 -0.20248565259E+03  0.20618471838E+03  0.12700000000E+01 0. -1.
<mgrwt>
<rscale>  1 0.13090273E+03</rscale>
<asrwt>0</asrwt>
<pdfrwt beam="2">  1       21 0.54597817E-01 0.13090273E+03</pdfrwt>
<pdfrwt beam="1">  1       -4 0.46619858E-02 0.13090273E+03</pdfrwt>
<totfact> 0.34497095E+04</totfact>
</mgrwt>
</event>
<event>
 6    4  0.3189516E-003  0.1286831E+03  0.7818608E-02  0.1229423E+00
         21   -1    0    0  501  502  0.00000000000E+00  0.00000000000E+00  0.99388928775E+02  0.99388928775E+02  0.00000000000E+00 0. -1.
         -4   -1    0    0    0  501 -0.00000000000E+00 -0.00000000000E+00 -0.67357549281E+02  0.67369520891E+02  0.12700000000E+01 0. -1.
         25    2    1    2    0    0 -0.25429084760E+01  0.30421898100E+02  0.99638687703E+01  0.12906831572E+03  0.12500957233E+03 0.  0.
    9000005    1    3    3    0    0 -0.51971578178E+02  0.30351846547E+02 -0.28335947776E+02  0.66529733680E+02  0.10000000000E+01 0.  0.
    9000005    1    3    3    0    0  0.49428669703E+02  0.70051553211E-01  0.38299816546E+02  0.62538582038E+02  0.10000000000E+01 0.  0.
         -4    1    1    2    0  502  0.25429084760E+01 -0.30421898100E+02  0.22067510723E+02  0.37690133948E+02  0.12700000000E+01 0.  1.
<mgrwt>
<rscale>  1 0.12868314E+03</rscale>
<asrwt>0</asrwt>
<pdfrwt beam="1">  1       21 0.15290604E-01 0.12868314E+03</pdfrwt>
<pdfrwt beam="2">  1       -4 0.10364245E-01 0.12868314E+03</pdfrwt>
<totfact> 0.10822168E+05</totfact>
</mgrwt>
</event>
<event>
 6    4  0.3189516E-003  0.1319793E+03  0.7818608E-02  0.1224548E+00
         21   -1    0    0  501  502  0.00000000000E+00  0.00000000000E+00  0.26187262565E+03  0.26187262565E+03  0.00000000000E+00 0. -1.
          4   -1    0    0  502    0 -0.00000000000E+00 -0.00000000000E+00 -0.34343705318E+02  0.34367179037E+02  0.12700000000E+01 0.  1.
         25    2    1    2    0    0  0.27897146437E+00  0.42362905500E+02  0.11170919231E+03  0.17290888445E+03  0.12499538027E+03 0.  0.
    9000005    1    3    3    0    0 -0.38858008952E+02 -0.15332886648E+02  0.66688475652E+00  0.41790991948E+02  0.10000000000E+01 0.  0.
    9000005    1    3    3    0    0  0.39136980417E+02  0.57695792147E+02  0.11104230756E+03  0.13111789251E+03  0.10000000000E+01 0.  0.
          4    1    1    2  501    0 -0.27897146437E+00 -0.42362905500E+02  0.11581972802E+03  0.12333092024E+03  0.12700000000E+01 0. -1.
<mgrwt>
<rscale>  1 0.13197931E+03</rscale>
<asrwt>0</asrwt>
<pdfrwt beam="1">  1       21 0.40288095E-01 0.13197931E+03</pdfrwt>
<pdfrwt beam="2">  1        4 0.52856897E-02 0.13197931E+03</pdfrwt>
<totfact> 0.52555726E+04</totfact>
</mgrwt>
</event>
<event>
 6    4  0.3189516E-003  0.2114132E+03  0.7818608E-02  0.1140452E+00
          4   -1    0    0  502    0 -0.00000000000E+00  0.00000000000E+00  0.14611792395E+04  0.14611797914E+04  0.12700000000E+01 0.  1.
         21   -1    0    0  501  502  0.00000000000E+00 -0.00000000000E+00 -0.10140987976E+03  0.10140987976E+03  0.00000000000E+00 0. -1.
         25    2    1    2    0    0 -0.11581833454E+03  0.12513494248E+03  0.13752236234E+04  0.13913790185E+04  0.12499167300E+03 0.  0.
    9000005    1    3    3    0    0 -0.11278831436E+03  0.14651800046E+03  0.11119254936E+04  0.11271947621E+04  0.10000000000E+01 0.  0.
    9000005    1    3    3    0    0 -0.30300201833E+01 -0.21383057978E+02  0.26329812976E+03  0.26418425639E+03  0.10000000000E+01 0.  0.
          4    1    1    2  501    0  0.11581833454E+03 -0.12513494248E+03 -0.15454263613E+02  0.17121065273E+03  0.12700000000E+01 0. -1.
<mgrwt>
<rscale>  1 0.21141324E+03</rscale>
<asrwt>0</asrwt>
<pdfrwt beam="2">  1       21 0.15601521E-01 0.21141324E+03</pdfrwt>
<pdfrwt beam="1">  1        4 0.22479744E+00 0.21141324E+03</pdfrwt>
<totfact> 0.15636862E+02</totfact>
</mgrwt>
</event>
<event>
 6    4  0.3189516E-003  0.1303501E+03  0.7818608E-02  0.1226937E+00
          4   -1    0    0  502    0 -0.00000000000E+00  0.00000000000E+00  0.32223991366E+02  0.32249008040E+02  0.12700000000E+01 0.  1.
         21   -1    0    0  501  502  0.00000000000E+00 -0.00000000000E+00 -0.25495128389E+03  0.25495128389E+03  0.00000000000E+00 0.  1.
         25    2    1    2    0    0 -0.35575619665E+02  0.99771044799E+01 -0.11686194103E+03  0.17506531578E+03  0.12500393674E+03 0.  0.
    9000005    1    3    3    0    0 -0.13865032818E+02 -0.53163967571E+02 -0.22303612660E+02  0.59305123899E+02  0.10000000000E+01 0.  0.
    9000005    1    3    3    0    0 -0.21710586847E+02  0.63141072051E+02 -0.94558328368E+02  0.11576019188E+03  0.10000000000E+01 0.  0.
          4    1    1    2  501    0  0.35575619665E+02 -0.99771044799E+01 -0.10586535150E+03  0.11213497615E+03  0.12700000000E+01 0. -1.
<mgrwt>
<rscale>  1 0.13035011E+03</rscale>
<asrwt>0</asrwt>
<pdfrwt beam="2">  1       21 0.39223276E-01 0.13035011E+03</pdfrwt>
<pdfrwt beam="1">  1        4 0.49597047E-02 0.13035011E+03</pdfrwt>
<totfact> 0.61335838E+04</totfact>
</mgrwt>
</event>
<event>
 6    4  0.3189516E-003  0.1268504E+03  0.7818608E-02  0.1232205E+00
         21   -1    0    0  501  502  0.00000000000E+00  0.00000000000E+00  0.13720303118E+02  0.13720303118E+02  0.00000000000E+00 0. -1.
         -4   -1    0    0    0  501 -0.00000000000E+00 -0.00000000000E+00 -0.44339180458E+03  0.44339362340E+03  0.12700000000E+01 0. -1.
         25    2    1    2    0    0 -0.15434839693E+02  0.15065924749E+02 -0.40458923298E+03  0.42400879916E+03  0.12500319179E+03 0.  0.
    9000005    1    3    3    0    0  0.41094584435E+02  0.42329732053E+02 -0.25588469627E+03  0.26259959801E+03  0.10000000000E+01 0.  0.
    9000005    1    3    3    0    0 -0.56529424128E+02 -0.27263807304E+02 -0.14870453671E+03  0.16140920116E+03  0.10000000000E+01 0.  0.
         -4    1    1    2    0  502  0.15434839693E+02 -0.15065924749E+02 -0.25082268485E+02  0.33105127356E+02  0.12700000000E+01 0.  1.
<mgrwt>
<rscale>  1 0.12685036E+03</rscale>
<asrwt>0</asrwt>
<pdfrwt beam="1">  1       21 0.21108159E-02 0.12685036E+03</pdfrwt>
<pdfrwt beam="2">  1       -4 0.68218785E-01 0.12685036E+03</pdfrwt>
<totfact> 0.90437724E+04</totfact>
</mgrwt>
</event>
<event>
 6    4  0.3189516E-003  0.1335695E+03  0.7818608E-02  0.1222253E+00
         21   -1    0    0  501  502  0.00000000000E+00  0.00000000000E+00  0.13273540118E+04  0.13273540118E+04  0.00000000000E+00 0.  1.
          4   -1    0    0  502    0 -0.00000000000E+00 -0.00000000000E+00 -0.55478637870E+02  0.55493172192E+02  0.12700000000E+01 0. -1.
         25    2    1    2    0    0 -0.38165418049E+02 -0.27552444687E+02  0.25992878717E+02  0.13607513541E+03  0.12500030556E+03 0.  0.
    9000005    1    3    3    0    0  0.28792539213E+02 -0.33687747039E+02  0.47983867601E+02  0.65324774510E+02  0.10000000000E+01 0.  0.
    9000005    1    3    3    0    0 -0.66957957261E+02  0.61353023522E+01 -0.21990988884E+02  0.70750360901E+02  0.10000000000E+01 0.  0.
          4    1    1    2  501    0  0.38165418049E+02  0.27552444687E+02  0.12458824952E+04  0.12467720486E+04  0.12700000000E+01 0.  1.
<mgrwt>
<rscale>  1 0.13356951E+03</rscale>
<asrwt>0</asrwt>
<pdfrwt beam="1">  1       21 0.20420829E+00 0.13356951E+03</pdfrwt>
<pdfrwt beam="2">  1        4 0.85363408E-02 0.13356951E+03</pdfrwt>
<totfact> 0.53540036E+02</totfact>
</mgrwt>
</event>
<event>
 6    4  0.3189516E-003  0.1276861E+03  0.7818608E-02  0.1230930E+00
          4   -1    0    0  502    0 -0.00000000000E+00  0.00000000000E+00  0.16380651354E+03  0.16381143665E+03  0.12700000000E+01 0. -1.
         21   -1    0    0  501  502  0.00000000000E+00 -0.00000000000E+00 -0.37662435845E+02  0.37662435845E+02  0.00000000000E+00 0. -1.
         25    2    1    2    0    0  0.12245471571E+02  0.23001622031E+02  0.87282776537E+02  0.15466746463E+03  0.12499886137E+03 0.  0.
    9000005    1    3    3    0    0 -0.42752040550E+02 -0.18475385557E+02  0.69240202705E+02  0.83452276861E+02  0.10000000000E+01 0.  0.
    9000005    1    3    3    0    0  0.54997512121E+02  0.41477007589E+02  0.18042573832E+02  0.71215187766E+02  0.10000000000E+01 0.  0.
          4    1    1    2  501    0 -0.12245471571E+02 -0.23001622031E+02  0.38861301159E+02  0.46806407871E+02  0.12700000000E+01 0.  1.
<mgrwt>
<rscale>  1 0.12768611E+03</rscale>
<asrwt>0</asrwt>
<pdfrwt beam="2">  1       21 0.57942210E-02 0.12768611E+03</pdfrwt>
<pdfrwt beam="1">  1        4 0.25203027E-01 0.12768611E+03</pdfrwt>
<totfact> 0.12292060E+05</totfact>
</mgrwt>
</event>
<event>
 6    4  0.3189516E-003  0.1266723E+03  0.7818608E-02  0.1232479E+00
         -4   -1    0    0    0  501 -0.00000000000E+00  0.00000000000E+00  0.82770583869E+02  0.82780326491E+02  0.12700000000E+01 0.  1.
         21   -1    0    0  501  502  0.00000000000E+00 -0.00000000000E+00 -0.18734592932E+03  0.18734592932E+03  0.00000000000E+00 0. -1.
         25    2    1    2    0    0 -0.16107521772E+02 -0.12924545042E+02  0.33083374496E+02  0.13092125518E+03  0.12497747505E+03 0.  0.
    9000005    1    3    3    0    0  0.25204507202E+02  0.17430840100E+02 -0.34456264517E+02  0.46123047756E+02  0.10000000000E+01 0.  0.
    9000005    1    3    3    0    0 -0.41312028974E+02 -0.30355385142E+02  0.67539639013E+02  0.84798207428E+02  0.10000000000E+01 0.  0.
         -4    1    1    2    0  502  0.16107521772E+02  0.12924545042E+02 -0.13765871994E+03  0.13920500062E+03  0.12700000000E+01 0. -1.
<mgrwt>
<rscale>  1 0.12667228E+03</rscale>
<asrwt>0</asrwt>
<pdfrwt beam="2">  1       21 0.28822450E-01 0.12667228E+03</pdfrwt>
<pdfrwt beam="1">  1       -4 0.12735017E-01 0.12667228E+03</pdfrwt>
<totfact> 0.23420069E+04</totfact>
</mgrwt>
</event>
<event>
 6    4  0.3189516E-003  0.1269970E+03  0.7818608E-02  0.1231981E+00
          4   -1    0    0  502    0 -0.00000000000E+00  0.00000000000E+00  0.32571661410E+02  0.32596411259E+02  0.12700000000E+01 0.  1.
         21   -1    0    0  501  502  0.00000000000E+00 -0.00000000000E+00 -0.24823034991E+03  0.24823034991E+03  0.00000000000E+00 0. -1.
         25    2    1    2    0    0  0.24213069669E+01 -0.22318167516E+02 -0.96329615889E+02  0.15939775393E+03  0.12499714290E+03 0.  0.
    9000005    1    3    3    0    0 -0.57039436234E+02  0.81060068430E+01 -0.60683660028E+02  0.83682203767E+02  0.10000000000E+01 0.  0.
    9000005    1    3    3    0    0  0.59460743201E+02 -0.30424174359E+02 -0.35645955860E+02  0.75715550164E+02  0.10000000000E+01 0.  0.
          4    1    1    2  501    0 -0.24213069669E+01  0.22318167516E+02 -0.11932907261E+03  0.12142900724E+03  0.12700000000E+01 0. -1.
<mgrwt>
<rscale>  1 0.12699704E+03</rscale>
<asrwt>0</asrwt>
<pdfrwt beam="2">  1       21 0.38189283E-01 0.12699704E+03</pdfrwt>
<pdfrwt beam="1">  1        4 0.50131788E-02 0.12699704E+03</pdfrwt>
<totfact> 0.63382028E+04</totfact>
</mgrwt>
</event>
<event>
 6    4  0.3189516E-003  0.1275324E+03  0.7818608E-02  0.1231164E+00
         -4   -1    0    0    0  501 -0.00000000000E+00  0.00000000000E+00  0.14618074182E+03  0.14618625852E+03  0.12700000000E+01 0.  1.
         21   -1    0    0  501  502  0.00000000000E+00 -0.00000000000E+00 -0.86909893431E+02  0.86909893431E+02  0.00000000000E+00 0. -1.
         25    2    1    2    0    0  0.94074100491E+00 -0.25277009230E+02  0.11509932335E+03  0.17179163575E+03  0.12499879875E+03 0.  0.
    9000005    1    3    3    0    0  0.12576469034E+02 -0.23864259214E+02  0.14088583327E+03  0.14344855683E+03  0.10000000000E+01 0.  0.
    9000005    1    3    3    0    0 -0.11635728029E+02 -0.14127500155E+01 -0.25786509911E+02  0.28343078922E+02  0.10000000000E+01 0.  0.
         -4    1    1    2    0  502 -0.94074100491E+00  0.25277009230E+02 -0.55828474965E+02  0.61304516197E+02  0.12700000000E+01 0. -1.
<mgrwt>
<rscale>  1 0.12753240E+03</rscale>
<asrwt>0</asrwt>
<pdfrwt beam="2">  1       21 0.13370753E-01 0.12753240E+03</pdfrwt>
<pdfrwt beam="1">  1       -4 0.22490483E-01 0.12753240E+03</pdfrwt>
<totfact> 0.35470644E+04</totfact>
</mgrwt>
</event>
<event>
 6    4  0.3189516E-003  0.1267560E+03  0.7818608E-02  0.1232350E+00
         21   -1    0    0  501  502  0.00000000000E+00  0.00000000000E+00  0.11228986633E+03  0.11228986633E+03  0.00000000000E+00 0.  1.
         -4   -1    0    0    0  501 -0.00000000000E+00 -0.00000000000E+00 -0.61760380166E+02  0.61773436510E+02  0.12700000000E+01 0.  1.
         25    2    1    2    0    0 -0.20287443261E+02  0.54599460580E+01  0.84788750854E+01  0.12703928603E+03  0.12500279000E+03 0.  0.
    9000005    1    3    3    0    0  0.36579595832E+02 -0.33116012552E+02  0.26464472439E+02  0.56000941243E+02  0.10000000000E+01 0.  0.
    9000005    1    3    3    0    0 -0.56867039093E+02  0.38575958610E+02 -0.17985597354E+02  0.71038344786E+02  0.10000000000E+01 0.  0.
         -4    1    1    2    0  502  0.20287443261E+02 -0.54599460580E+01  0.42050611082E+02  0.47024016815E+02  0.12700000000E+01 0. -1.
<mgrwt>
<rscale>  1 0.12675602E+03</rscale>
<asrwt>0</asrwt>
<pdfrwt beam="1">  1       21 0.17275364E-01 0.12675602E+03</pdfrwt>
<pdfrwt beam="2">  1       -4 0.95031537E-02 0.12675602E+03</pdfrwt>
<totfact> 0.10013758E+05</totfact>
</mgrwt>
</event>
<event>
 6    4  0.3189516E-003  0.1299510E+03  0.7818608E-02  0.1227528E+00
         -4   -1    0    0    0  501 -0.00000000000E+00  0.00000000000E+00  0.23429252344E+03  0.23429596548E+03  0.12700000000E+01 0.  1.
         21   -1    0    0  501  502  0.00000000000E+00 -0.00000000000E+00 -0.15321224910E+03  0.15321224910E+03  0.00000000000E+00 0. -1.
         25    2    1    2    0    0  0.33971409013E+02  0.10404034474E+02  0.21375278034E+03  0.25015499360E+03  0.12499987663E+03 0.  0.
    9000005    1    3    3    0    0  0.18749626740E+02  0.42957668433E+02  0.20864040145E+03  0.21384276209E+03  0.10000000000E+01 0.  0.
    9000005    1    3    3    0    0  0.15221782273E+02 -0.32553633959E+02  0.51123788856E+01  0.36312231511E+02  0.10000000000E+01 0.  0.
         -4    1    1    2    0  502 -0.33971409013E+02 -0.10404034474E+02 -0.13267250600E+03  0.13735322098E+03  0.12700000000E+01 0. -1.
<mgrwt>
<rscale>  1 0.12995103E+03</rscale>
<asrwt>0</asrwt>
<pdfrwt beam="2">  1       21 0.23571115E-01 0.12995103E+03</pdfrwt>
<pdfrwt beam="1">  1       -4 0.36045673E-01 0.12995103E+03</pdfrwt>
<totfact> 0.51974560E+03</totfact>
</mgrwt>
</event>
<event>
 6    4  0.3189516E-003  0.1318511E+03  0.7818608E-02  0.1224735E+00
         21   -1    0    0  501  502  0.00000000000E+00  0.00000000000E+00  0.23731324221E+03  0.23731324221E+03  0.00000000000E+00 0.  1.
         -4   -1    0    0    0  501 -0.00000000000E+00 -0.00000000000E+00 -0.38370939087E+02  0.38391950542E+02  0.12700000000E+01 0. -1.
         25    2    1    2    0    0 -0.20701673913E+02 -0.36552893256E+02  0.91928200294E+02  0.16073430769E+03  0.12498019983E+03 0.  0.
    9000005    1    3    3    0    0  0.50443394228E+02 -0.63767242846E+01  0.18463217347E+02  0.54102578761E+02  0.10000000000E+01 0.  0.
    9000005    1    3    3    0    0 -0.71145068141E+02 -0.30176168972E+02  0.73464982947E+02  0.10663172893E+03  0.10000000000E+01 0.  0.
         -4    1    1    2    0  502  0.20701673913E+02  0.36552893256E+02  0.10701410283E+03  0.11497088506E+03  0.12700000000E+01 0.  1.
<mgrwt>
<rscale>  1 0.13185114E+03</rscale>
<asrwt>0</asrwt>
<pdfrwt beam="1">  1       21 0.36509729E-01 0.13185114E+03</pdfrwt>
<pdfrwt beam="2">  1       -4 0.59050992E-02 0.13185114E+03</pdfrwt>
<totfact> 0.53431873E+04</totfact>
</mgrwt>
</event>
<event>
 6    4  0.3189516E-003  0.1295084E+03  0.7818608E-02  0.1228187E+00
         21   -1    0    0  501  502  0.00000000000E+00  0.00000000000E+00  0.12437898322E+02  0.12437898322E+02  0.00000000000E+00 0.  1.
         -4   -1    0    0    0  501 -0.00000000000E+00 -0.00000000000E+00 -0.14474371095E+04  0.14474376667E+04  0.12700000000E+01 0. -1.
         25    2    1    2    0    0 -0.25215167511E+02 -0.22584069664E+02 -0.14142167240E+04  0.14201342823E+04  0.12500637012E+03 0.  0.
    9000005    1    3    3    0    0 -0.34946110675E+02 -0.58747783167E+02 -0.12424580554E+04  0.12443373948E+04  0.10000000000E+01 0.  0.
    9000005    1    3    3    0    0  0.97309431642E+01  0.36163713504E+02 -0.17175866856E+03  0.17579688750E+03  0.10000000000E+01 0.  0.
         -4    1    1    2    0  502  0.25215167511E+02  0.22584069664E+02 -0.20782487255E+02  0.39741282714E+02  0.12700000000E+01 0.  1.
<mgrwt>
<rscale>  1 0.12950845E+03</rscale>
<asrwt>0</asrwt>
<pdfrwt beam="1">  1       21 0.19135236E-02 0.12950845E+03</pdfrwt>
<pdfrwt beam="2">  1       -4 0.22268757E+00 0.12950845E+03</pdfrwt>
<totfact> 0.57436711E+03</totfact>
</mgrwt>
</event>
<event>
 6    4  0.3189516E-003  0.1269641E+03  0.7818608E-02  0.1232031E+00
          4   -1    0    0  502    0 -0.00000000000E+00  0.00000000000E+00  0.12786435813E+02  0.12849351766E+02  0.12700000000E+01 0. -1.
         21   -1    0    0  501  502  0.00000000000E+00 -0.00000000000E+00 -0.70768341340E+03  0.70768341340E+03  0.00000000000E+00 0.  1.
         25    2    1    2    0    0 -0.21618429166E+02  0.52202401937E+01 -0.31000896955E+03  0.33500066661E+03  0.12500111215E+03 0.  0.
    9000005    1    3    3    0    0  0.47987260963E+02 -0.16537638042E+02 -0.16579012376E+03  0.17338868424E+03  0.10000000000E+01 0.  0.
    9000005    1    3    3    0    0 -0.69605690129E+02  0.21757878235E+02 -0.14421884579E+03  0.16161198237E+03  0.10000000000E+01 0.  0.
          4    1    1    2  501    0  0.21618429166E+02 -0.52202401937E+01 -0.38488800804E+03  0.38553209856E+03  0.12700000000E+01 0.  1.
<mgrwt>
<rscale>  1 0.12696411E+03</rscale>
<asrwt>0</asrwt>
<pdfrwt beam="2">  1       21 0.10887437E+00 0.12696411E+03</pdfrwt>
<pdfrwt beam="1">  1        4 0.19720713E-02 0.12696411E+03</pdfrwt>
<totfact> 0.28496312E+04</totfact>
</mgrwt>
</event>
<event>
 6    4  0.3189516E-003  0.1268974E+03  0.7818608E-02  0.1232133E+00
         21   -1    0    0  501  502  0.00000000000E+00  0.00000000000E+00  0.54233342824E+02  0.54233342824E+02  0.00000000000E+00 0. -1.
          4   -1    0    0  502    0 -0.00000000000E+00 -0.00000000000E+00 -0.10637474316E+03  0.10638232411E+03  0.12700000000E+01 0. -1.
         25    2    1    2    0    0 -0.11268273509E+02  0.18776046812E+02 -0.55357741862E+02  0.13844650649E+03  0.12499376646E+03 0.  0.
    9000005    1    3    3    0    0 -0.47453707914E+02  0.42538175103E+02 -0.68135024530E+02  0.93299154892E+02  0.10000000000E+01 0.  0.
    9000005    1    3    3    0    0  0.36185434406E+02 -0.23762128292E+02  0.12777282668E+02  0.45147351600E+02  0.10000000000E+01 0.  0.
          4    1    1    2  501    0  0.11268273509E+02 -0.18776046812E+02  0.32163415260E+01  0.22169160438E+02  0.12700000000E+01 0.  1.
<mgrwt>
<rscale>  1 0.12689742E+03</rscale>
<asrwt>0</asrwt>
<pdfrwt beam="1">  1       21 0.83435913E-02 0.12689742E+03</pdfrwt>
<pdfrwt beam="2">  1        4 0.16367072E-01 0.12689742E+03</pdfrwt>
<totfact> 0.14322767E+05</totfact>
</mgrwt>
</event>
<event>
 6    4  0.3189516E-003  0.2016776E+03  0.7818608E-02  0.1148331E+00
          4   -1    0    0  502    0 -0.00000000000E+00  0.00000000000E+00  0.50323781878E+03  0.50323942130E+03  0.12700000000E+01 0. -1.
         21   -1    0    0  501  502  0.00000000000E+00 -0.00000000000E+00 -0.65073061102E+02  0.65073061102E+02  0.00000000000E+00 0.  1.
         25    2    1    2    0    0 -0.10634726330E+03 -0.11721410306E+03  0.21577925612E+03  0.29535495719E+03  0.12499990800E+03 0.  0.
    9000005    1    3    3    0    0 -0.12628058361E+03 -0.70687580333E+02  0.12418226046E+03  0.19069806927E+03  0.10000000000E+01 0.  0.
    9000005    1    3    3    0    0  0.19933320313E+02 -0.46526522722E+02  0.91596995661E+02  0.10465688792E+03  0.10000000000E+01 0.  0.
          4    1    1    2  501    0  0.10634726330E+03  0.11721410306E+03  0.22238550156E+03  0.27295752521E+03  0.12700000000E+01 0.  1.
<mgrwt>
<rscale>  1 0.20167762E+03</rscale>
<asrwt>0</asrwt>
<pdfrwt beam="2">  1       21 0.10011240E-01 0.20167762E+03</pdfrwt>
<pdfrwt beam="1">  1        4 0.77422277E-01 0.20167762E+03</pdfrwt>
<totfact> 0.52145378E+03</totfact>
</mgrwt>
</event>
<event>
 6    4  0.3189516E-003  0.1270876E+03  0.7818608E-02  0.1231842E+00
         21   -1    0    0  501  502  0.00000000000E+00  0.00000000000E+00  0.52582330040E+03  0.52582330040E+03  0.00000000000E+00 0. -1.
          4   -1    0    0  502    0 -0.00000000000E+00 -0.00000000000E+00 -0.10681345305E+02  0.10756581127E+02  0.12700000000E+01 0. -1.
         25    2    1    2    0    0 -0.15380653179E+02  0.17029830735E+02  0.42951791690E+03  0.44792511040E+03  0.12499873583E+03 0.  0.
    9000005    1    3    3    0    0  0.46716221997E+02  0.37106627534E+02  0.16447339386E+03  0.17496229449E+03  0.10000000000E+01 0.  0.
    9000005    1    3    3    0    0 -0.62096875176E+02 -0.20076796799E+02  0.26504452304E+03  0.27296281591E+03  0.10000000000E+01 0.  0.
          4    1    1    2  501    0  0.15380653179E+02 -0.17029830735E+02  0.85624038198E+02  0.88654771132E+02  0.12700000000E+01 0.  1.
<mgrwt>
<rscale>  1 0.12708762E+03</rscale>
<asrwt>0</asrwt>
<pdfrwt beam="1">  1       21 0.80895873E-01 0.12708762E+03</pdfrwt>
<pdfrwt beam="2">  1        4 0.16491896E-02 0.12708762E+03</pdfrwt>
<totfact> 0.74413571E+04</totfact>
</mgrwt>
</event>
<event>
 6    4  0.3189516E-003  0.1314764E+03  0.7818608E-02  0.1225281E+00
          4   -1    0    0  502    0 -0.00000000000E+00  0.00000000000E+00  0.19265050981E+03  0.19265469584E+03  0.12700000000E+01 0. -1.
         21   -1    0    0  501  502  0.00000000000E+00 -0.00000000000E+00 -0.39914707608E+02  0.39914707608E+02  0.00000000000E+00 0. -1.
         25    2    1    2    0    0 -0.46955043884E+01 -0.40488799133E+02  0.13387384482E+03  0.18763860162E+03  0.12499859149E+03 0.  0.
    9000005    1    3    3    0    0  0.59688873181E+02 -0.14356111487E+02  0.71652915507E+02  0.94361007939E+02  0.10000000000E+01 0.  0.
    9000005    1    3    3    0    0 -0.64384377569E+02 -0.26132687646E+02  0.62220929314E+02  0.93277593683E+02  0.10000000000E+01 0.  0.
          4    1    1    2  501    0  0.46955043884E+01  0.40488799133E+02  0.18861957380E+02  0.44930801828E+02  0.12700000000E+01 0.  1.
<mgrwt>
<rscale>  1 0.13147638E+03</rscale>
<asrwt>0</asrwt>
<pdfrwt beam="2">  1       21 0.61407244E-02 0.13147638E+03</pdfrwt>
<pdfrwt beam="1">  1        4 0.29640416E-01 0.13147638E+03</pdfrwt>
<totfact> 0.82671436E+04</totfact>
</mgrwt>
</event>
<event>
 6    4  0.3189516E-003  0.1274531E+03  0.7818608E-02  0.1231285E+00
          4   -1    0    0  502    0 -0.00000000000E+00  0.00000000000E+00  0.10419542185E+04  0.10419549925E+04  0.12700000000E+01 0.  1.
         21   -1    0    0  501  502  0.00000000000E+00 -0.00000000000E+00 -0.57297466824E+01  0.57297466824E+01  0.00000000000E+00 0.  1.
         25    2    1    2    0    0 -0.14333511863E+02  0.20339153755E+02  0.92251581356E+03  0.93127854259E+03  0.12500066752E+03 0.  0.
    9000005    1    3    3    0    0  0.28263098707E+02  0.61090417474E+02  0.42827819569E+03  0.43353668214E+03  0.10000000000E+01 0.  0.
    9000005    1    3    3    0    0 -0.42596610570E+02 -0.40751263719E+02  0.49423761787E+03  0.49774186045E+03  0.10000000000E+01 0.  0.
          4    1    1    2  501    0  0.14333511863E+02 -0.20339153755E+02  0.11370865828E+03  0.11640619659E+03  0.12700000000E+01 0. -1.
<mgrwt>
<rscale>  1 0.12745312E+03</rscale>
<asrwt>0</asrwt>
<pdfrwt beam="2">  1       21 0.88150032E-03 0.12745312E+03</pdfrwt>
<pdfrwt beam="1">  1        4 0.16031138E+00 0.12745312E+03</pdfrwt>
<totfact> 0.49169558E+04</totfact>
</mgrwt>
</event>
<event>
 6    4  0.3189516E-003  0.1277842E+03  0.7818608E-02  0.1230781E+00
         21   -1    0    0  501  502  0.00000000000E+00  0.00000000000E+00  0.76612925817E+01  0.76612925817E+01  0.00000000000E+00 0. -1.
         -4   -1    0    0    0  501 -0.00000000000E+00 -0.00000000000E+00 -0.12181669160E+04  0.12181675780E+04  0.12700000000E+01 0.  1.
         25    2    1    2    0    0  0.22541182013E+02  0.14058431276E+02 -0.11724934317E+04  0.11794361557E+04  0.12499221425E+03 0.  0.
    9000005    1    3    3    0    0  0.33768078454E+02  0.63371878518E+02 -0.84657082914E+03  0.84961135048E+03  0.10000000000E+01 0.  0.
    9000005    1    3    3    0    0 -0.11226896441E+02 -0.49313447243E+02 -0.32592260255E+03  0.32982480522E+03  0.10000000000E+01 0.  0.
         -4    1    1    2    0  502 -0.22541182013E+02 -0.14058431276E+02 -0.38012191728E+02  0.46392714907E+02  0.12700000000E+01 0. -1.
<mgrwt>
<rscale>  1 0.12778419E+03</rscale>
<asrwt>0</asrwt>
<pdfrwt beam="1">  1       21 0.11786611E-02 0.12778419E+03</pdfrwt>
<pdfrwt beam="2">  1       -4 0.18741833E+00 0.12778419E+03</pdfrwt>
<totfact> 0.20476785E+04</totfact>
</mgrwt>
</event>
<event>
 6    4  0.3189516E-003  0.1273608E+03  0.7818608E-02  0.1231425E+00
         -4   -1    0    0    0  501 -0.00000000000E+00  0.00000000000E+00  0.51149394029E+03  0.51149551695E+03  0.12700000000E+01 0. -1.
         21   -1    0    0  501  502  0.00000000000E+00 -0.00000000000E+00 -0.12705928723E+02  0.12705928723E+02  0.00000000000E+00 0. -1.
         25    2    1    2    0    0  0.88042834533E+01 -0.22776791400E+02  0.46723768783E+03  0.48428486438E+03  0.12499790121E+03 0.  0.
    9000005    1    3    3    0    0 -0.45583963881E+02  0.27495570413E+02  0.18895564025E+03  0.19631387658E+03  0.10000000000E+01 0.  0.
    9000005    1    3    3    0    0  0.54388247334E+02 -0.50272361813E+02  0.27828204758E+03  0.28797098780E+03  0.10000000000E+01 0.  0.
         -4    1    1    2    0  502 -0.88042834533E+01  0.22776791400E+02  0.31550323740E+02  0.39916581288E+02  0.12700000000E+01 0.  1.
<mgrwt>
<rscale>  1 0.12736080E+03</rscale>
<asrwt>0</asrwt>
<pdfrwt beam="2">  1       21 0.19547587E-02 0.12736080E+03</pdfrwt>
<pdfrwt beam="1">  1       -4 0.78696363E-01 0.12736080E+03</pdfrwt>
<totfact> 0.75100223E+04</totfact>
</mgrwt>
</event>
<event>
 6    4  0.3189516E-003  0.1291156E+03  0.7818608E-02  0.1228774E+00
         21   -1    0    0  501  502  0.00000000000E+00  0.00000000000E+00  0.17939007410E+03  0.17939007410E+03  0.00000000000E+00 0.  1.
         -4   -1    0    0    0  501 -0.00000000000E+00 -0.00000000000E+00 -0.58278640960E+02  0.58292477149E+02  0.12700000000E+01 0. -1.
         25    2    1    2    0    0 -0.17896354041E+02 -0.26933857064E+02  0.18926509076E+02  0.13049540766E+03  0.12500050612E+03 0.  0.
    9000005    1    3    3    0    0 -0.34873957185E+02 -0.45340240006E+02  0.59668129344E+02  0.82663268221E+02  0.10000000000E+01 0.  0.
    9000005    1    3    3    0    0  0.16977603144E+02  0.18406382942E+02 -0.40741620268E+02  0.47832139442E+02  0.10000000000E+01 0.  0.
         -4    1    1    2    0  502  0.17896354041E+02  0.26933857064E+02  0.10218492407E+03  0.10718714359E+03  0.12700000000E+01 0.  1.
<mgrwt>
<rscale>  1 0.12911560E+03</rscale>
<asrwt>0</asrwt>
<pdfrwt beam="1">  1       21 0.27598473E-01 0.12911560E+03</pdfrwt>
<pdfrwt beam="2">  1       -4 0.89673550E-02 0.12911560E+03</pdfrwt>
<totfact> 0.46170860E+04</totfact>
</mgrwt>
</event>
<event>
 6    4  0.3189516E-003  0.1296262E+03  0.7818608E-02  0.1228011E+00
          4   -1    0    0  502    0 -0.00000000000E+00  0.00000000000E+00  0.74096444020E+01  0.75176944713E+01  0.12700000000E+01 0. -1.
         21   -1    0    0  501  502  0.00000000000E+00 -0.00000000000E+00 -0.14826128786E+04  0.14826128786E+04  0.00000000000E+00 0.  1.
         25    2    1    2    0    0 -0.29614624681E+02  0.17284144967E+02 -0.58166847621E+03  0.59593722469E+03  0.12500876725E+03 0.  0.
    9000005    1    3    3    0    0 -0.56756448870E+02  0.42990282410E+02 -0.51143435618E+03  0.51636765928E+03  0.10000000000E+01 0.  0.
    9000005    1    3    3    0    0  0.27141824189E+02 -0.25706137443E+02 -0.70234120032E+02  0.79569565408E+02  0.10000000000E+01 0.  0.
          4    1    1    2  501    0  0.29614624681E+02 -0.17284144967E+02 -0.89353475798E+03  0.89419334838E+03  0.12700000000E+01 0.  1.
<mgrwt>
<rscale>  1 0.12962623E+03</rscale>
<asrwt>0</asrwt>
<pdfrwt beam="2">  1       21 0.22809442E+00 0.12962623E+03</pdfrwt>
<pdfrwt beam="1">  1        4 0.11482980E-02 0.12962623E+03</pdfrwt>
<totfact> 0.90364316E+03</totfact>
</mgrwt>
</event>
<event>
 6    4  0.3189516E-003  0.1292496E+03  0.7818608E-02  0.1228574E+00
         21   -1    0    0  501  502  0.00000000000E+00  0.00000000000E+00  0.82216706179E+02  0.82216706179E+02  0.00000000000E+00 0.  1.
          4   -1    0    0  502    0 -0.00000000000E+00 -0.00000000000E+00 -0.80830625043E+02  0.80840601463E+02  0.12700000000E+01 0.  1.
         25    2    1    2    0    0 -0.63178023993E+01 -0.32256582258E+02 -0.58305036140E+01  0.12938099963E+03  0.12500018626E+03 0.  0.
    9000005    1    3    3    0    0 -0.32782463587E+02  0.85241088336E+01 -0.52170867043E+02  0.62210527391E+02  0.10000000000E+01 0.  0.
    9000005    1    3    3    0    0  0.26464661188E+02 -0.40780691091E+02  0.46340363429E+02  0.67170472235E+02  0.10000000000E+01 0.  0.
          4    1    1    2  501    0  0.63178023993E+01  0.32256582258E+02  0.72165847499E+01  0.33676308015E+02  0.12700000000E+01 0. -1.
<mgrwt>
<rscale>  1 0.12924956E+03</rscale>
<asrwt>0</asrwt>
<pdfrwt beam="1">  1       21 0.12648724E-01 0.12924956E+03</pdfrwt>
<pdfrwt beam="2">  1        4 0.12437003E-01 0.12924956E+03</pdfrwt>
<totfact> 0.11157195E+05</totfact>
</mgrwt>
</event>
<event>
 6    4  0.3189516E-003  0.1365172E+03  0.7818608E-02  0.1218094E+00
         21   -1    0    0  501  502  0.00000000000E+00  0.00000000000E+00  0.16056064284E+03  0.16056064284E+03  0.00000000000E+00 0.  1.
          4   -1    0    0  502    0 -0.00000000000E+00 -0.00000000000E+00 -0.57078895277E+02  0.57093022218E+02  0.12700000000E+01 0.  1.
         25    2    1    2    0    0  0.50395707472E+02 -0.21780167490E+02  0.75975293491E+02  0.15623444215E+03  0.12499141036E+03 0.  0.
    9000005    1    3    3    0    0  0.88748381153E+02 -0.35506723731E+02  0.56870847054E+02  0.11123082231E+03  0.10000000000E+01 0.  0.
    9000005    1    3    3    0    0 -0.38352673681E+02  0.13726556241E+02  0.19104446437E+02  0.45003619837E+02  0.10000000000E+01 0.  0.
          4    1    1    2  501    0 -0.50395707472E+02  0.21780167490E+02  0.27506454074E+02  0.61419222913E+02  0.12700000000E+01 0. -1.
<mgrwt>
<rscale>  1 0.13651724E+03</rscale>
<asrwt>0</asrwt>
<pdfrwt beam="1">  1       21 0.24701637E-01 0.13651724E+03</pdfrwt>
<pdfrwt beam="2">  1        4 0.87828416E-02 0.13651724E+03</pdfrwt>
<totfact> 0.59394682E+04</totfact>
</mgrwt>
</event>
<event>
 6    4  0.3189516E-003  0.1270536E+03  0.7818608E-02  0.1231894E+00
         -4   -1    0    0    0  501 -0.00000000000E+00  0.00000000000E+00  0.93163556705E+01  0.94025200334E+01  0.12700000000E+01 0. -1.
         21   -1    0    0  501  502  0.00000000000E+00 -0.00000000000E+00 -0.63167011707E+03  0.63167011707E+03  0.00000000000E+00 0. -1.
         25    2    1    2    0    0  0.20548259402E+02 -0.98022894988E+01 -0.46380387307E+03  0.48089150266E+03  0.12499715520E+03 0.  0.
    9000005    1    3    3    0    0  0.15335972002E+02  0.35715116147E+02 -0.44509688067E+02  0.59100540526E+02  0.10000000000E+01 0.  0.
    9000005    1    3    3    0    0  0.52122874006E+01 -0.45517405645E+02 -0.41929418500E+03  0.42179096213E+03  0.10000000000E+01 0.  0.
         -4    1    1    2    0  502 -0.20548259402E+02  0.98022894988E+01 -0.15854988833E+03  0.16018113444E+03  0.12700000000E+01 0.  1.
<mgrwt>
<rscale>  1 0.12705355E+03</rscale>
<asrwt>0</asrwt>
<pdfrwt beam="2">  1       21 0.97180035E-01 0.12705355E+03</pdfrwt>
<pdfrwt beam="1">  1       -4 0.14400115E-02 0.12705355E+03</pdfrwt>
<totfact> 0.60240865E+04</totfact>
</mgrwt>
</event>
<event>
 6    4  0.3189516E-003  0.1274468E+03  0.7818608E-02  0.1231294E+00
         -4   -1    0    0    0  501 -0.00000000000E+00  0.00000000000E+00  0.92336836049E+02  0.92345569420E+02  0.12700000000E+01 0.  1.
         21   -1    0    0  501  502  0.00000000000E+00 -0.00000000000E+00 -0.10482955236E+03  0.10482955236E+03  0.00000000000E+00 0. -1.
         25    2    1    2    0    0  0.61561721510E+01  0.23937450102E+02  0.44538753080E+02  0.13500518231E+03  0.12502719205E+03 0.  0.
    9000005    1    3    3    0    0  0.64260668761E+01 -0.51022737131E+02  0.26665300666E+02  0.57936623128E+02  0.10000000000E+01 0.  0.
    9000005    1    3    3    0    0 -0.26989472507E+00  0.74960187233E+02  0.17873452414E+02  0.77068559182E+02  0.10000000000E+01 0.  0.
         -4    1    1    2    0  502 -0.61561721510E+01 -0.23937450102E+02 -0.57031469393E+02  0.62169939472E+02  0.12700000000E+01 0. -1.
<mgrwt>
<rscale>  1 0.12744685E+03</rscale>
<asrwt>0</asrwt>
<pdfrwt beam="2">  1       21 0.16127623E-01 0.12744685E+03</pdfrwt>
<pdfrwt beam="1">  1       -4 0.14206931E-01 0.12744685E+03</pdfrwt>
<totfact> 0.57227972E+04</totfact>
</mgrwt>
</event>
<event>
 6    4  0.3189516E-003  0.1343464E+03  0.7818608E-02  0.1221145E+00
         21   -1    0    0  501  502  0.00000000000E+00  0.00000000000E+00  0.81135884538E+02  0.81135884538E+02  0.00000000000E+00 0.  1.
          4   -1    0    0  502    0 -0.00000000000E+00 -0.00000000000E+00 -0.10527483418E+03  0.10528249433E+03  0.12700000000E+01 0.  1.
         25    2    1    2    0    0  0.21545030570E+02  0.44338790154E+02 -0.26961532665E+02  0.13702509461E+03  0.12497534018E+03 0.  0.
    9000005    1    3    3    0    0 -0.29282184115E+02  0.29525790014E+02  0.35821096798E+02  0.54894166888E+02  0.10000000000E+01 0.  0.
    9000005    1    3    3    0    0  0.50827214686E+02  0.14813000140E+02 -0.62782629463E+02  0.82130927720E+02  0.10000000000E+01 0.  0.
          4    1    1    2  501    0 -0.21545030570E+02 -0.44338790154E+02  0.28225830240E+01  0.49393284255E+02  0.12700000000E+01 0. -1.
<mgrwt>
<rscale>  1 0.13434639E+03</rscale>
<asrwt>0</asrwt>
<pdfrwt beam="1">  1       21 0.12482444E-01 0.13434639E+03</pdfrwt>
<pdfrwt beam="2">  1        4 0.16197482E-01 0.13434639E+03</pdfrwt>
<totfact> 0.72590408E+04</totfact>
</mgrwt>
</event>
<event>
 6    4  0.3189516E-003  0.1287058E+03  0.7818608E-02  0.1229389E+00
         21   -1    0    0  501  502  0.00000000000E+00  0.00000000000E+00  0.22870314635E+02  0.22870314635E+02  0.00000000000E+00 0. -1.
          4   -1    0    0  502    0 -0.00000000000E+00 -0.00000000000E+00 -0.42585185028E+03  0.42585374401E+03  0.12700000000E+01 0.  1.
         25    2    1    2    0    0  0.30443093247E+02 -0.37735628431E+01 -0.39713471205E+03  0.41746993973E+03  0.12499659741E+03 0.  0.
    9000005    1    3    3    0    0  0.62413832358E+02  0.58195958679E+01 -0.97084082073E+02  0.11556674763E+03  0.10000000000E+01 0.  0.
    9000005    1    3    3    0    0 -0.31970739111E+02 -0.95931587111E+01 -0.30005062997E+03  0.30190319210E+03  0.10000000000E+01 0.  0.
          4    1    1    2  501    0 -0.30443093247E+02  0.37735628431E+01 -0.58468235991E+01  0.31254118915E+02  0.12700000000E+01 0. -1.
<mgrwt>
<rscale>  1 0.12870575E+03</rscale>
<asrwt>0</asrwt>
<pdfrwt beam="1">  1       21 0.35185099E-02 0.12870575E+03</pdfrwt>
<pdfrwt beam="2">  1        4 0.65518528E-01 0.12870575E+03</pdfrwt>
<totfact> 0.42882372E+04</totfact>
</mgrwt>
</event>
<event>
 6    4  0.3189516E-003  0.1276503E+03  0.7818608E-02  0.1230984E+00
          4   -1    0    0  502    0 -0.00000000000E+00  0.00000000000E+00  0.92327755859E+03  0.92327843205E+03  0.12700000000E+01 0. -1.
         21   -1    0    0  501  502  0.00000000000E+00 -0.00000000000E+00 -0.70266245794E+01  0.70266245794E+01  0.00000000000E+00 0. -1.
         25    2    1    2    0    0  0.78113291751E+00  0.25860222253E+02  0.84298130999E+03  0.85259140296E+03  0.12500100056E+03 0.  0.
    9000005    1    3    3    0    0  0.16130841525E+02  0.44057014003E+02  0.81272782259E+03  0.81408153040E+03  0.10000000000E+01 0.  0.
    9000005    1    3    3    0    0 -0.15349708608E+02 -0.18196791750E+02  0.30253487405E+02  0.38509872559E+02  0.10000000000E+01 0.  0.
          4    1    1    2  501    0 -0.78113291751E+00 -0.25860222253E+02  0.73269624016E+02  0.77713653672E+02  0.12700000000E+01 0.  1.
<mgrwt>
<rscale>  1 0.12765035E+03</rscale>
<asrwt>0</asrwt>
<pdfrwt beam="2">  1       21 0.10810199E-02 0.12765035E+03</pdfrwt>
<pdfrwt beam="1">  1        4 0.14205150E+00 0.12765035E+03</pdfrwt>
<totfact> 0.48546589E+04</totfact>
</mgrwt>
</event>
<event>
 6    4  0.3189516E-003  0.1267578E+03  0.7818608E-02  0.1232348E+00
         21   -1    0    0  501  502  0.00000000000E+00  0.00000000000E+00  0.35845275766E+03  0.35845275766E+03  0.00000000000E+00 0.  1.
         -4   -1    0    0    0  501 -0.00000000000E+00 -0.00000000000E+00 -0.24880018171E+02  0.24912410646E+02  0.12700000000E+01 0. -1.
         25    2    1    2    0    0 -0.15845689740E+02  0.13846250987E+02  0.14083639622E+03  0.18947933730E+03  0.12499889684E+03 0.  0.
    9000005    1    3    3    0    0  0.29939940573E+01 -0.13176078746E+02  0.15355653653E+03  0.15415311532E+03  0.10000000000E+01 0.  0.
    9000005    1    3    3    0    0 -0.18839683797E+02  0.27022329733E+02 -0.12720140308E+02  0.35326221978E+02  0.10000000000E+01 0.  0.
         -4    1    1    2    0  502  0.15845689740E+02 -0.13846250987E+02  0.19273634327E+03  0.19388583101E+03  0.12700000000E+01 0.  1.
<mgrwt>
<rscale>  1 0.12675776E+03</rscale>
<asrwt>0</asrwt>
<pdfrwt beam="1">  1       21 0.55146574E-01 0.12675776E+03</pdfrwt>
<pdfrwt beam="2">  1       -4 0.38303602E-02 0.12675776E+03</pdfrwt>
<totfact> 0.46026753E+04</totfact>
</mgrwt>
</event>
<event>
 6    4  0.3189516E-003  0.1275681E+03  0.7818608E-02  0.1231110E+00
         -4   -1    0    0    0  501 -0.00000000000E+00  0.00000000000E+00  0.18798593856E+02  0.18841444503E+02  0.12700000000E+01 0. -1.
         21   -1    0    0  501  502  0.00000000000E+00 -0.00000000000E+00 -0.31247552593E+03  0.31247552593E+03  0.00000000000E+00 0. -1.
         25    2    1    2    0    0 -0.25223991512E+02  0.37617250588E+01 -0.25175399323E+03  0.28222984356E+03  0.12499284446E+03 0.  0.
    9000005    1    3    3    0    0  0.10365685159E+02  0.38567270241E+02 -0.21904254568E+03  0.22265560532E+03  0.10000000000E+01 0.  0.
    9000005    1    3    3    0    0 -0.35589676671E+02 -0.34805545183E+02 -0.32711447550E+02  0.59574238240E+02  0.10000000000E+01 0.  0.
         -4    1    1    2    0  502  0.25223991512E+02 -0.37617250588E+01 -0.41922938839E+02  0.49087126868E+02  0.12700000000E+01 0.  1.
<mgrwt>
<rscale>  1 0.12756807E+03</rscale>
<asrwt>0</asrwt>
<pdfrwt beam="2">  1       21 0.48073158E-01 0.12756807E+03</pdfrwt>
<pdfrwt beam="1">  1       -4 0.28955861E-02 0.12756807E+03</pdfrwt>
<totfact> 0.95023280E+04</totfact>
</mgrwt>
</event>
<event>
 6    4  0.3189516E-003  0.1269628E+03  0.7818608E-02  0.1232033E+00
         -4   -1    0    0    0  501 -0.00000000000E+00  0.00000000000E+00  0.46591096802E+03  0.46591269893E+03  0.12700000000E+01 0. -1.
         21   -1    0    0  501  502  0.00000000000E+00 -0.00000000000E+00 -0.50211328649E+02  0.50211328649E+02  0.00000000000E+00 0.  1.
         25    2    1    2    0    0 -0.37761595718E+01  0.21915882067E+02  0.45421799996E+03  0.47162860904E+03  0.12499995243E+03 0.  0.
    9000005    1    3    3    0    0  0.59920577703E+02  0.90724674176E+01  0.25382937856E+03  0.26096578074E+03  0.10000000000E+01 0.  0.
    9000005    1    3    3    0    0 -0.63696737275E+02  0.12843414649E+02  0.20038862140E+03  0.21066282830E+03  0.10000000000E+01 0.  0.
         -4    1    1    2    0  502  0.37761595718E+01 -0.21915882067E+02 -0.38518360593E+02  0.44495418535E+02  0.12700000000E+01 0.  1.
<mgrwt>
<rscale>  1 0.12696280E+03</rscale>
<asrwt>0</asrwt>
<pdfrwt beam="2">  1       21 0.77248201E-02 0.12696280E+03</pdfrwt>
<pdfrwt beam="1">  1       -4 0.71679976E-01 0.12696280E+03</pdfrwt>
<totfact> 0.93926159E+03</totfact>
</mgrwt>
</event>
<event>
 6    4  0.3189516E-003  0.1306978E+03  0.7818608E-02  0.1226424E+00
         -4   -1    0    0    0  501 -0.00000000000E+00  0.00000000000E+00  0.16050897725E+03  0.16051400150E+03  0.12700000000E+01 0.  1.
         21   -1    0    0  501  502  0.00000000000E+00 -0.00000000000E+00 -0.48519251255E+02  0.48519251255E+02  0.00000000000E+00 0.  1.
         25    2    1    2    0    0  0.38176838329E+02 -0.40590679097E-01  0.10992607035E+03  0.17077957049E+03  0.12499779247E+03 0.  0.
    9000005    1    3    3    0    0  0.48779142814E+02 -0.55388249429E+02  0.69832061492E+02  0.10161092343E+03  0.10000000000E+01 0.  0.
    9000005    1    3    3    0    0 -0.10602304485E+02  0.55347658750E+02  0.40094008861E+02  0.69168647059E+02  0.10000000000E+01 0.  0.
         -4    1    1    2    0  502 -0.38176838329E+02  0.40590679097E-01  0.20636556458E+01  0.38253682268E+02  0.12700000000E+01 0. -1.
<mgrwt>
<rscale>  1 0.13069782E+03</rscale>
<asrwt>0</asrwt>
<pdfrwt beam="2">  1       21 0.74645003E-02 0.13069782E+03</pdfrwt>
<pdfrwt beam="1">  1       -4 0.24695354E-01 0.13069782E+03</pdfrwt>
<totfact> 0.83152560E+04</totfact>
</mgrwt>
</event>
<event>
 6    4  0.3189516E-003  0.1299056E+03  0.7818608E-02  0.1227596E+00
         21   -1    0    0  501  502  0.00000000000E+00  0.00000000000E+00  0.72747154472E+02  0.72747154472E+02  0.00000000000E+00 0. -1.
          4   -1    0    0  502    0 -0.00000000000E+00 -0.00000000000E+00 -0.19539391227E+03  0.19539803953E+03  0.12700000000E+01 0.  1.
         25    2    1    2    0    0  0.34801824352E+02  0.63455564006E+01 -0.16688650654E+03  0.21148655536E+03  0.12499609582E+03 0.  0.
    9000005    1    3    3    0    0  0.67988799679E+01  0.60007448607E+02 -0.44751984139E+02  0.75172193939E+02  0.10000000000E+01 0.  0.
    9000005    1    3    3    0    0  0.28002944384E+02 -0.53661892206E+02 -0.12213452240E+03  0.13631436142E+03  0.10000000000E+01 0.  0.
          4    1    1    2  501    0 -0.34801824352E+02 -0.63455564006E+01  0.44239748737E+02  0.56658638640E+02  0.12700000000E+01 0. -1.
<mgrwt>
<rscale>  1 0.12990557E+03</rscale>
<asrwt>0</asrwt>
<pdfrwt beam="1">  1       21 0.11191870E-01 0.12990557E+03</pdfrwt>
<pdfrwt beam="2">  1        4 0.30061772E-01 0.12990557E+03</pdfrwt>
<totfact> 0.28462637E+04</totfact>
</mgrwt>
</event>
<event>
 6    4  0.3189516E-003  0.1618299E+03  0.7818608E-02  0.1186646E+00
         21   -1    0    0  501  502  0.00000000000E+00  0.00000000000E+00  0.49607739933E+02  0.49607739933E+02  0.00000000000E+00 0.  1.
          4   -1    0    0  502    0 -0.00000000000E+00 -0.00000000000E+00 -0.95247541625E+03  0.95247626294E+03  0.12700000000E+01 0. -1.
         25    2    1    2    0    0 -0.47791249532E+02 -0.90985392218E+02 -0.88261270852E+03  0.89732608312E+03  0.12500624420E+03 0.  0.
    9000005    1    3    3    0    0 -0.20455046492E+02 -0.69020484124E+02 -0.83545060273E+03  0.83854692520E+03  0.10000000000E+01 0.  0.
    9000005    1    3    3    0    0 -0.27336203040E+02 -0.21964908094E+02 -0.47162105788E+02  0.58779157927E+02  0.10000000000E+01 0.  0.
          4    1    1    2  501    0  0.47791249532E+02  0.90985392218E+02 -0.20254967798E+02  0.10475791975E+03  0.12700000000E+01 0.  1.
<mgrwt>
<rscale>  1 0.16182987E+03</rscale>
<asrwt>0</asrwt>
<pdfrwt beam="1">  1       21 0.76319612E-02 0.16182987E+03</pdfrwt>
<pdfrwt beam="2">  1        4 0.14653597E+00 0.16182987E+03</pdfrwt>
<totfact> 0.18372512E+03</totfact>
</mgrwt>
</event>
<event>
 6    4  0.3189516E-003  0.1601077E+03  0.7818608E-02  0.1188575E+00
         21   -1    0    0  501  502  0.00000000000E+00  0.00000000000E+00  0.15186994035E+03  0.15186994035E+03  0.00000000000E+00 0. -1.
         -4   -1    0    0    0  501 -0.00000000000E+00 -0.00000000000E+00 -0.26995553893E+03  0.26995852626E+03  0.12700000000E+01 0.  1.
         25    2    1    2    0    0 -0.96456904980E+02 -0.26534688175E+02 -0.22451556627E+03  0.27575665167E+03  0.12500586886E+03 0.  0.
    9000005    1    3    3    0    0  0.24445960120E+02  0.82312144039E+01 -0.11270553585E+02  0.28167059393E+02  0.10000000000E+01 0.  0.
    9000005    1    3    3    0    0 -0.12090286510E+03 -0.34765902579E+02 -0.21324501268E+03  0.24758959228E+03  0.10000000000E+01 0.  0.
         -4    1    1    2    0  502  0.96456904980E+02  0.26534688175E+02  0.10642996769E+03  0.14607181493E+03  0.12700000000E+01 0. -1.
<mgrwt>
<rscale>  1 0.16010775E+03</rscale>
<asrwt>0</asrwt>
<pdfrwt beam="1">  1       21 0.23364607E-01 0.16010775E+03</pdfrwt>
<pdfrwt beam="2">  1       -4 0.41532259E-01 0.16010775E+03</pdfrwt>
<totfact> 0.40549461E+03</totfact>
</mgrwt>
</event>
<event>
 6    4  0.3189516E-003  0.1322096E+03  0.7818608E-02  0.1224213E+00
         21   -1    0    0  501  502  0.00000000000E+00  0.00000000000E+00  0.68272311989E+02  0.68272311989E+02  0.00000000000E+00 0.  1.
         -4   -1    0    0    0  501 -0.00000000000E+00 -0.00000000000E+00 -0.12862235928E+03  0.12862862903E+03  0.12700000000E+01 0. -1.
         25    2    1    2    0    0 -0.27090622268E+02  0.33469857639E+02 -0.74253775938E+02  0.15163439979E+03  0.12500093909E+03 0.  0.
    9000005    1    3    3    0    0  0.35119433318E+02  0.36880128371E+02 -0.73368533192E+02  0.89316628508E+02  0.10000000000E+01 0.  0.
    9000005    1    3    3    0    0 -0.62210055586E+02 -0.34102707321E+01 -0.88524274547E+00  0.62317771279E+02  0.10000000000E+01 0.  0.
         -4    1    1    2    0  502  0.27090622268E+02 -0.33469857639E+02  0.13903728644E+02  0.45266541236E+02  0.12700000000E+01 0.  1.
<mgrwt>
<rscale>  1 0.13220956E+03</rscale>
<asrwt>0</asrwt>
<pdfrwt beam="1">  1       21 0.10503433E-01 0.13220956E+03</pdfrwt>
<pdfrwt beam="2">  1       -4 0.19789446E-01 0.13220956E+03</pdfrwt>
<totfact> 0.68851434E+04</totfact>
</mgrwt>
</event>
<event>
 6    4  0.3189516E-003  0.1275978E+03  0.7818608E-02  0.1231064E+00
         -4   -1    0    0    0  501 -0.00000000000E+00  0.00000000000E+00  0.15247337305E+02  0.15300137088E+02  0.12700000000E+01 0.  1.
         21   -1    0    0  501  502  0.00000000000E+00 -0.00000000000E+00 -0.44467243858E+03  0.44467243858E+03  0.00000000000E+00 0.  1.
         25    2    1    2    0    0 -0.25590860158E+02 -0.14280080777E+01 -0.27165862504E+03  0.30013263932E+03  0.12499704513E+03 0.  0.
    9000005    1    3    3    0    0 -0.31687806146E+02  0.58878673532E+02 -0.13643176936E+03  0.15193894479E+03  0.10000000000E+01 0.  0.
    9000005    1    3    3    0    0  0.60969459881E+01 -0.60306681610E+02 -0.13522685569E+03  0.14819369452E+03  0.10000000000E+01 0.  0.
         -4    1    1    2    0  502  0.25590860158E+02  0.14280080777E+01 -0.15776647623E+03  0.15983993636E+03  0.12700000000E+01 0. -1.
<mgrwt>
<rscale>  1 0.12759778E+03</rscale>
<asrwt>0</asrwt>
<pdfrwt beam="2">  1       21 0.68411141E-01 0.12759778E+03</pdfrwt>
<pdfrwt beam="1">  1       -4 0.23499453E-02 0.12759778E+03</pdfrwt>
<totfact> 0.62488815E+04</totfact>
</mgrwt>
</event>
<event>
 6    4  0.3189516E-003  0.1408949E+03  0.7818608E-02  0.1212130E+00
         21   -1    0    0  501  502  0.00000000000E+00  0.00000000000E+00  0.25328932165E+03  0.25328932165E+03  0.00000000000E+00 0.  1.
          4   -1    0    0  502    0 -0.00000000000E+00 -0.00000000000E+00 -0.44892688568E+02  0.44910648925E+02  0.12700000000E+01 0.  1.
         25    2    1    2    0    0 -0.62519154874E+02  0.17828173887E+02  0.10365581726E+03  0.17491680096E+03  0.12499948119E+03 0.  0.
    9000005    1    3    3    0    0  0.28710261189E+02  0.37676057049E+02  0.31152433095E+02  0.56703072757E+02  0.10000000000E+01 0.  0.
    9000005    1    3    3    0    0 -0.91229416064E+02 -0.19847883162E+02  0.72503384166E+02  0.11821372821E+03  0.10000000000E+01 0.  0.
          4    1    1    2  501    0  0.62519154874E+02 -0.17828173887E+02  0.10474081582E+03  0.12328316961E+03  0.12700000000E+01 0. -1.
<mgrwt>
<rscale>  1 0.14089485E+03</rscale>
<asrwt>0</asrwt>
<pdfrwt beam="1">  1       21 0.38967587E-01 0.14089485E+03</pdfrwt>
<pdfrwt beam="2">  1        4 0.69081941E-02 0.14089485E+03</pdfrwt>
<totfact> 0.36598531E+04</totfact>
</mgrwt>
</event>
<event>
 6    4  0.3189516E-003  0.1316808E+03  0.7818608E-02  0.1224983E+00
         -4   -1    0    0    0  501 -0.00000000000E+00  0.00000000000E+00  0.87472310023E+02  0.87481529027E+02  0.12700000000E+01 0.  1.
         21   -1    0    0  501  502  0.00000000000E+00 -0.00000000000E+00 -0.99387634573E+02  0.99387634573E+02  0.00000000000E+00 0. -1.
         25    2    1    2    0    0 -0.22733406901E+02 -0.34604066041E+02  0.21782991789E+02  0.13347030032E+03  0.12500229262E+03 0.  0.
    9000005    1    3    3    0    0 -0.22591947955E+02  0.82875312880E+01  0.66964450237E+02  0.71164013959E+02  0.10000000000E+01 0.  0.
    9000005    1    3    3    0    0 -0.14145894634E+00 -0.42891597329E+02 -0.45181458448E+02  0.62306286357E+02  0.10000000000E+01 0.  0.
         -4    1    1    2    0  502  0.22733406901E+02  0.34604066041E+02 -0.33698316339E+02  0.53398863284E+02  0.12700000000E+01 0. -1.
<mgrwt>
<rscale>  1 0.13168076E+03</rscale>
<asrwt>0</asrwt>
<pdfrwt beam="2">  1       21 0.15290405E-01 0.13168076E+03</pdfrwt>
<pdfrwt beam="1">  1       -4 0.13458612E-01 0.13168076E+03</pdfrwt>
<totfact> 0.69505447E+04</totfact>
</mgrwt>
</event>
<event>
 6    4  0.3189516E-003  0.1281476E+03  0.7818608E-02  0.1230231E+00
          4   -1    0    0  502    0 -0.00000000000E+00  0.00000000000E+00  0.51740075685E+01  0.53275936706E+01  0.12700000000E+01 0.  1.
         21   -1    0    0  501  502  0.00000000000E+00 -0.00000000000E+00 -0.11663924402E+04  0.11663924402E+04  0.00000000000E+00 0.  1.
         25    2    1    2    0    0 -0.28210606076E+02 -0.10513940290E+01 -0.93341520704E+03  0.94217076636E+03  0.12499944210E+03 0.  0.
    9000005    1    3    3    0    0 -0.65088559600E+02 -0.17262776426E+02 -0.29960621547E+03  0.30708208738E+03  0.10000000000E+01 0.  0.
    9000005    1    3    3    0    0  0.36877953523E+02  0.16211382397E+02 -0.63380899158E+03  0.63508867899E+03  0.10000000000E+01 0.  0.
          4    1    1    2  501    0  0.28210606076E+02  0.10513940290E+01 -0.22780322558E+03  0.22954926750E+03  0.12700000000E+01 0. -1.
<mgrwt>
<rscale>  1 0.12814759E+03</rscale>
<asrwt>0</asrwt>
<pdfrwt beam="2">  1       21 0.17944506E+00 0.12814759E+03</pdfrwt>
<pdfrwt beam="1">  1        4 0.80786837E-03 0.12814759E+03</pdfrwt>
<totfact> 0.30851563E+04</totfact>
</mgrwt>
</event>
<event>
 6    4  0.3189516E-003  0.1298352E+03  0.7818608E-02  0.1227701E+00
         21   -1    0    0  501  502  0.00000000000E+00  0.00000000000E+00  0.61371854802E+03  0.61371854802E+03  0.00000000000E+00 0. -1.
          4   -1    0    0  502    0 -0.00000000000E+00 -0.00000000000E+00 -0.15595050806E+03  0.15595567916E+03  0.12700000000E+01 0.  1.
         25    2    1    2    0    0 -0.34519101843E+02 -0.63622927252E+01 -0.12831310532E+03  0.18254155997E+03  0.12500048383E+03 0.  0.
    9000005    1    3    3    0    0 -0.59892425596E+01  0.56358971475E+02 -0.35286403083E+02  0.66770764071E+02  0.10000000000E+01 0.  0.
    9000005    1    3    3    0    0 -0.28529859283E+02 -0.62721264200E+02 -0.93026702234E+02  0.11577079589E+03  0.10000000000E+01 0.  0.
          4    1    1    2  501    0  0.34519101843E+02  0.63622927252E+01  0.58608114528E+03  0.58713266721E+03  0.12700000000E+01 0. -1.
<mgrwt>
<rscale>  1 0.12983516E+03</rscale>
<asrwt>0</asrwt>
<pdfrwt beam="1">  1       21 0.94418237E-01 0.12983516E+03</pdfrwt>
<pdfrwt beam="2">  1        4 0.23992885E-01 0.12983516E+03</pdfrwt>
<totfact> 0.63995299E+02</totfact>
</mgrwt>
</event>
<event>
 6    4  0.3189516E-003  0.1302101E+03  0.7818608E-02  0.1227144E+00
         -4   -1    0    0    0  501 -0.00000000000E+00  0.00000000000E+00  0.64619154860E+03  0.64619279661E+03  0.12700000000E+01 0. -1.
         21   -1    0    0  501  502  0.00000000000E+00 -0.00000000000E+00 -0.29530165631E+02  0.29530165631E+02  0.00000000000E+00 0. -1.
         25    2    1    2    0    0  0.14723324422E+02 -0.33365728395E+02  0.62489235383E+03  0.63831427482E+03  0.12499844576E+03 0.  0.
    9000005    1    3    3    0    0 -0.12681892891E+02 -0.34639556436E+02  0.46931194010E+02  0.59701476101E+02  0.10000000000E+01 0.  0.
    9000005    1    3    3    0    0  0.27405217314E+02  0.12738280408E+01  0.57796115982E+03  0.57861279872E+03  0.10000000000E+01 0.  0.
         -4    1    1    2    0  502 -0.14723324422E+02  0.33365728395E+02 -0.82309708602E+01  0.37408687423E+02  0.12700000000E+01 0.  1.
<mgrwt>
<rscale>  1 0.13021006E+03</rscale>
<asrwt>0</asrwt>
<pdfrwt beam="2">  1       21 0.45431029E-02 0.13021006E+03</pdfrwt>
<pdfrwt beam="1">  1       -4 0.99416270E-01 0.13021006E+03</pdfrwt>
<totfact> 0.11159591E+04</totfact>
</mgrwt>
</event>
<event>
 6    4  0.3189516E-003  0.1283925E+03  0.7818608E-02  0.1229861E+00
         21   -1    0    0  501  502  0.00000000000E+00  0.00000000000E+00  0.10095131884E+03  0.10095131884E+03  0.00000000000E+00 0. -1.
          4   -1    0    0  502    0 -0.00000000000E+00 -0.00000000000E+00 -0.19221738351E+03  0.19222157898E+03  0.12700000000E+01 0.  1.
         25    2    1    2    0    0 -0.29208493649E+02 -0.24918255143E+01 -0.16775471366E+03  0.21124932600E+03  0.12500115395E+03 0.  0.
    9000005    1    3    3    0    0  0.37765087354E+02 -0.36294813929E+02 -0.82001971487E+02  0.97307957891E+02  0.10000000000E+01 0.  0.
    9000005    1    3    3    0    0 -0.66973581003E+02  0.33802988414E+02 -0.85752742168E+02  0.11394136811E+03  0.10000000000E+01 0.  0.
          4    1    1    2  501    0  0.29208493649E+02  0.24918255143E+01  0.76488648980E+02  0.81923571812E+02  0.12700000000E+01 0. -1.
<mgrwt>
<rscale>  1 0.12839250E+03</rscale>
<asrwt>0</asrwt>
<pdfrwt beam="1">  1       21 0.15530972E-01 0.12839250E+03</pdfrwt>
<pdfrwt beam="2">  1        4 0.29572842E-01 0.12839250E+03</pdfrwt>
<totfact> 0.16338015E+04</totfact>
</mgrwt>
</event>
<event>
 6    4  0.3189516E-003  0.1272240E+03  0.7818608E-02  0.1231634E+00
         21   -1    0    0  501  502  0.00000000000E+00  0.00000000000E+00  0.58657161625E+03  0.58657161625E+03  0.00000000000E+00 0.  1.
         -4   -1    0    0    0  501 -0.00000000000E+00 -0.00000000000E+00 -0.15195876143E+02  0.15248854112E+02  0.12700000000E+01 0.  1.
         25    2    1    2    0    0 -0.21308874518E+02  0.10331193775E+02  0.25914372137E+03  0.28868911115E+03  0.12500053149E+03 0.  0.
    9000005    1    3    3    0    0  0.48807055118E+02  0.17307853379E+02  0.71815055136E+02  0.88544297174E+02  0.10000000000E+01 0.  0.
    9000005    1    3    3    0    0 -0.70115929636E+02 -0.69766596046E+01  0.18732866624E+03  0.20014481398E+03  0.10000000000E+01 0.  0.
         -4    1    1    2    0  502  0.21308874518E+02 -0.10331193775E+02  0.31223201874E+03  0.31313135921E+03  0.12700000000E+01 0. -1.
<mgrwt>
<rscale>  1 0.12722395E+03</rscale>
<asrwt>0</asrwt>
<pdfrwt beam="1">  1       21 0.90241769E-01 0.12722395E+03</pdfrwt>
<pdfrwt beam="2">  1       -4 0.23420085E-02 0.12722395E+03</pdfrwt>
<totfact> 0.33892886E+04</totfact>
</mgrwt>
</event>
<event>
 6    4  0.3189516E-003  0.1266921E+03  0.7818608E-02  0.1232448E+00
         -4   -1    0    0    0  501 -0.00000000000E+00  0.00000000000E+00  0.17610935072E+03  0.17611392992E+03  0.12700000000E+01 0.  1.
         21   -1    0    0  501  502  0.00000000000E+00 -0.00000000000E+00 -0.37327736071E+02  0.37327736071E+02  0.00000000000E+00 0.  1.
         25    2    1    2    0    0 -0.17947430403E+02  0.10187575125E+02  0.14431705456E+03  0.19203720524E+03  0.12499991606E+03 0.  0.
    9000005    1    3    3    0    0 -0.44622517243E+02  0.57037756417E+02  0.75662176250E+02  0.10473891167E+03  0.10000000000E+01 0.  0.
    9000005    1    3    3    0    0  0.26675086840E+02 -0.46850181292E+02  0.68654878306E+02  0.87298293570E+02  0.10000000000E+01 0.  0.
         -4    1    1    2    0  502  0.17947430403E+02 -0.10187575125E+02 -0.55354399083E+01  0.21404460750E+02  0.12700000000E+01 0. -1.
<mgrwt>
<rscale>  1 0.12669205E+03</rscale>
<asrwt>0</asrwt>
<pdfrwt beam="2">  1       21 0.57427287E-02 0.12669205E+03</pdfrwt>
<pdfrwt beam="1">  1       -4 0.27095760E-01 0.12669205E+03</pdfrwt>
<totfact> 0.10898729E+05</totfact>
</mgrwt>
</event>
<event>
 6    4  0.3189516E-003  0.1292050E+03  0.7818608E-02  0.1228640E+00
         -4   -1    0    0    0  501 -0.00000000000E+00  0.00000000000E+00  0.11851847571E+04  0.11851854375E+04  0.12700000000E+01 0. -1.
         21   -1    0    0  501  502  0.00000000000E+00 -0.00000000000E+00 -0.12346592368E+02  0.12346592368E+02  0.00000000000E+00 0.  1.
         25    2    1    2    0    0  0.15722008072E+02  0.28658125265E+02  0.11509338712E+04  0.11581635062E+04  0.12500184643E+03 0.  0.
    9000005    1    3    3    0    0 -0.54811101182E+02  0.75358209338E+01  0.45958926343E+03  0.46290856167E+03  0.10000000000E+01 0.  0.
    9000005    1    3    3    0    0  0.70533109254E+02  0.21122304332E+02  0.69134460777E+03  0.69525494456E+03  0.10000000000E+01 0.  0.
         -4    1    1    2    0  502 -0.15722008072E+02 -0.28658125265E+02  0.21904293532E+02  0.39368523679E+02  0.12700000000E+01 0.  1.
<mgrwt>
<rscale>  1 0.12920500E+03</rscale>
<asrwt>0</asrwt>
<pdfrwt beam="2">  1       21 0.18994767E-02 0.12920500E+03</pdfrwt>
<pdfrwt beam="1">  1       -4 0.18234110E+00 0.12920500E+03</pdfrwt>
<totfact> 0.10317472E+04</totfact>
</mgrwt>
</event>
<event>
 6    4  0.3189516E-003  0.1300533E+03  0.7818608E-02  0.1227377E+00
         21   -1    0    0  501  502  0.00000000000E+00  0.00000000000E+00  0.46464575940E+03  0.46464575940E+03  0.00000000000E+00 0.  1.
         -4   -1    0    0    0  501 -0.00000000000E+00 -0.00000000000E+00 -0.81111673703E+02  0.81121615559E+02  0.12700000000E+01 0. -1.
         25    2    1    2    0    0  0.13748195277E+02 -0.33168338595E+02 -0.27697045345E+02  0.13296983670E+03  0.12499879836E+03 0.  0.
    9000005    1    3    3    0    0 -0.59929498674E+01 -0.22964838986E+02 -0.76088515047E+02  0.79710484880E+02  0.10000000000E+01 0.  0.
    9000005    1    3    3    0    0  0.19741145145E+02 -0.10203499609E+02  0.48391469703E+02  0.53259351816E+02  0.10000000000E+01 0.  0.
         -4    1    1    2    0  502 -0.13748195277E+02  0.33168338595E+02  0.41123113104E+03  0.41279753826E+03  0.12700000000E+01 0.  1.
<mgrwt>
<rscale>  1 0.13005326E+03</rscale>
<asrwt>0</asrwt>
<pdfrwt beam="1">  1       21 0.71483961E-01 0.13005326E+03</pdfrwt>
<pdfrwt beam="2">  1       -4 0.12479618E-01 0.13005326E+03</pdfrwt>
<totfact> 0.38071908E+03</totfact>
</mgrwt>
</event>
<event>
 6    4  0.3189516E-003  0.2134894E+03  0.7818608E-02  0.1138832E+00
         21   -1    0    0  501  502  0.00000000000E+00  0.00000000000E+00  0.48442890559E+03  0.48442890559E+03  0.00000000000E+00 0. -1.
         -4   -1    0    0    0  501 -0.00000000000E+00 -0.00000000000E+00 -0.31737180958E+03  0.31737435060E+03  0.12700000000E+01 0.  1.
         25    2    1    2    0    0 -0.10443900212E+03 -0.13799955722E+03 -0.26269779158E+03  0.33850825377E+03  0.12500530075E+03 0.  0.
    9000005    1    3    3    0    0 -0.10064758958E+03 -0.29474036121E+02 -0.12713904646E+03  0.16481502731E+03  0.10000000000E+01 0.  0.
    9000005    1    3    3    0    0 -0.37914125362E+01 -0.10852552110E+03 -0.13555874512E+03  0.17369322646E+03  0.10000000000E+01 0.  0.
         -4    1    1    2    0  502  0.10443900212E+03  0.13799955722E+03  0.42975488759E+03  0.46329500242E+03  0.12700000000E+01 0. -1.
<mgrwt>
<rscale>  1 0.21348936E+03</rscale>
<asrwt>0</asrwt>
<pdfrwt beam="1">  1       21 0.74527524E-01 0.21348936E+03</pdfrwt>
<pdfrwt beam="2">  1       -4 0.48826756E-01 0.21348936E+03</pdfrwt>
<totfact> 0.27518820E+02</totfact>
</mgrwt>
</event>
<event>
 6    4  0.3189516E-003  0.1461003E+03  0.7818608E-02  0.1205348E+00
         21   -1    0    0  501  502  0.00000000000E+00  0.00000000000E+00  0.42222196686E+03  0.42222196686E+03  0.00000000000E+00 0. -1.
         -4   -1    0    0    0  501 -0.00000000000E+00 -0.00000000000E+00 -0.35781755779E+02  0.35804286707E+02  0.12700000000E+01 0.  1.
         25    2    1    2    0    0 -0.68271743428E+02 -0.32539448999E+02  0.14836831264E+03  0.20822695730E+03  0.12500185141E+03 0.  0.
    9000005    1    3    3    0    0 -0.82687342113E+02 -0.25047535343E+02  0.16418409236E+03  0.18553164624E+03  0.10000000000E+01 0.  0.
    9000005    1    3    3    0    0  0.14415598685E+02 -0.74919136563E+01 -0.15815779720E+02  0.22695311053E+02  0.10000000000E+01 0.  0.
         -4    1    1    2    0  502  0.68271743428E+02  0.32539448999E+02  0.23807189844E+03  0.24979929627E+03  0.12700000000E+01 0. -1.
<mgrwt>
<rscale>  1 0.14610034E+03</rscale>
<asrwt>0</asrwt>
<pdfrwt beam="1">  1       21 0.64957222E-01 0.14610034E+03</pdfrwt>
<pdfrwt beam="2">  1       -4 0.55067659E-02 0.14610034E+03</pdfrwt>
<totfact> 0.18416790E+04</totfact>
</mgrwt>
</event>
<event>
 6    4  0.3189516E-003  0.1341911E+03  0.7818608E-02  0.1221366E+00
         21   -1    0    0  501  502  0.00000000000E+00  0.00000000000E+00  0.74658479865E+02  0.74658479865E+02  0.00000000000E+00 0. -1.
          4   -1    0    0  502    0 -0.00000000000E+00 -0.00000000000E+00 -0.11896459598E+03  0.11897137469E+03  0.12700000000E+01 0. -1.
         25    2    1    2    0    0 -0.46957034105E+02 -0.13335151006E+02 -0.11247966344E+02  0.13466169815E+03  0.12499786757E+03 0.  0.
    9000005    1    3    3    0    0 -0.33885689584E+00  0.50641201339E+02  0.12191561682E+02  0.52098755007E+02  0.10000000000E+01 0.  0.
    9000005    1    3    3    0    0 -0.46618177209E+02 -0.63976352345E+02 -0.23439528026E+02  0.82562943139E+02  0.10000000000E+01 0.  0.
          4    1    1    2  501    0  0.46957034105E+02  0.13335151006E+02 -0.33058149767E+02  0.58968156409E+02  0.12700000000E+01 0.  1.
<mgrwt>
<rscale>  1 0.13419112E+03</rscale>
<asrwt>0</asrwt>
<pdfrwt beam="1">  1       21 0.11485920E-01 0.13419112E+03</pdfrwt>
<pdfrwt beam="2">  1        4 0.18303598E-01 0.13419112E+03</pdfrwt>
<totfact> 0.67753442E+04</totfact>
</mgrwt>
</event>
<event>
 6    4  0.3189516E-003  0.1266757E+03  0.7818608E-02  0.1232473E+00
         21   -1    0    0  501  502  0.00000000000E+00  0.00000000000E+00  0.11377256985E+03  0.11377256985E+03  0.00000000000E+00 0.  1.
         -4   -1    0    0    0  501 -0.00000000000E+00 -0.00000000000E+00 -0.48348786694E+02  0.48365463657E+02  0.12700000000E+01 0.  1.
         25    2    1    2    0    0 -0.19316317585E+02 -0.69666937414E+01  0.49036008788E+02  0.13583542916E+03  0.12500031484E+03 0.  0.
    9000005    1    3    3    0    0 -0.53067440405E+02 -0.46207711289E+02  0.10176153683E+02  0.71104570300E+02  0.10000000000E+01 0.  0.
    9000005    1    3    3    0    0  0.33751122820E+02  0.39241017548E+02  0.38859855105E+02  0.64730858859E+02  0.10000000000E+01 0.  0.
         -4    1    1    2    0  502  0.19316317585E+02  0.69666937414E+01  0.16387774363E+02  0.26302604345E+02  0.12700000000E+01 0. -1.
<mgrwt>
<rscale>  1 0.12667570E+03</rscale>
<asrwt>0</asrwt>
<pdfrwt beam="1">  1       21 0.17503472E-01 0.12667570E+03</pdfrwt>
<pdfrwt beam="2">  1       -4 0.74401030E-02 0.12667570E+03</pdfrwt>
<totfact> 0.14677382E+05</totfact>
</mgrwt>
</event>
<event>
 6    4  0.3189516E-003  0.1272466E+03  0.7818608E-02  0.1231599E+00
         21   -1    0    0  501  502  0.00000000000E+00  0.00000000000E+00  0.29412718103E+02  0.29412718103E+02  0.00000000000E+00 0.  1.
          4   -1    0    0  502    0 -0.00000000000E+00 -0.00000000000E+00 -0.21884640855E+03  0.21885009352E+03  0.12700000000E+01 0.  1.
         25    2    1    2    0    0  0.21197374139E+02  0.10818439435E+02 -0.18417474001E+03  0.22385714093E+03  0.12500126954E+03 0.  0.
    9000005    1    3    3    0    0  0.27338195380E+02  0.45897962772E+02 -0.18026388601E+03  0.18801613896E+03  0.10000000000E+01 0.  0.
    9000005    1    3    3    0    0 -0.61408212408E+01 -0.35079523337E+02 -0.39108540065E+01  0.35841001969E+02  0.10000000000E+01 0.  0.
          4    1    1    2  501    0 -0.21197374139E+02 -0.10818439435E+02 -0.52589504316E+01  0.24405670691E+02  0.12700000000E+01 0. -1.
<mgrwt>
<rscale>  1 0.12724655E+03</rscale>
<asrwt>0</asrwt>
<pdfrwt beam="1">  1       21 0.45250336E-02 0.12724655E+03</pdfrwt>
<pdfrwt beam="2">  1        4 0.33671071E-01 0.12724655E+03</pdfrwt>
<totfact> 0.10797911E+05</totfact>
</mgrwt>
</event>
<event>
 6    4  0.3189516E-003  0.1269987E+03  0.7818608E-02  0.1231978E+00
          4   -1    0    0  502    0 -0.00000000000E+00  0.00000000000E+00  0.32946036195E+03  0.32946280974E+03  0.12700000000E+01 0. -1.
         21   -1    0    0  501  502  0.00000000000E+00 -0.00000000000E+00 -0.24636274495E+02  0.24636274495E+02  0.00000000000E+00 0.  1.
         25    2    1    2    0    0 -0.92423240428E+01 -0.20457673051E+02  0.30628143925E+03  0.33156746834E+03  0.12499891636E+03 0.  0.
    9000005    1    3    3    0    0  0.23477457778E+02 -0.71801645827E+01  0.29268710532E+03  0.29371667880E+03  0.10000000000E+01 0.  0.
    9000005    1    3    3    0    0 -0.32719781821E+02 -0.13277508468E+02  0.13594333935E+02  0.37850789538E+02  0.10000000000E+01 0.  0.
          4    1    1    2  501    0  0.92423240428E+01  0.20457673051E+02 -0.14573517951E+01  0.22531615890E+02  0.12700000000E+01 0.  1.
<mgrwt>
<rscale>  1 0.12699869E+03</rscale>
<asrwt>0</asrwt>
<pdfrwt beam="2">  1       21 0.37901963E-02 0.12699869E+03</pdfrwt>
<pdfrwt beam="1">  1        4 0.50688912E-01 0.12699869E+03</pdfrwt>
<totfact> 0.64602612E+04</totfact>
</mgrwt>
</event>
<event>
 6    4  0.3189516E-003  0.1277804E+03  0.7818608E-02  0.1230787E+00
         21   -1    0    0  501  502  0.00000000000E+00  0.00000000000E+00  0.35772726970E+02  0.35772726970E+02  0.00000000000E+00 0. -1.
         -4   -1    0    0    0  501 -0.00000000000E+00 -0.00000000000E+00 -0.17848417632E+03  0.17848869459E+03  0.12700000000E+01 0. -1.
         25    2    1    2    0    0  0.22042152018E+02 -0.15054745519E+02 -0.13619871900E+03  0.18675632413E+03  0.12496132088E+03 0.  0.
    9000005    1    3    3    0    0 -0.18287469100E+01  0.43639842596E+02 -0.10967842356E+03  0.11805988638E+03  0.10000000000E+01 0.  0.
    9000005    1    3    3    0    0  0.23870898928E+02 -0.58694588115E+02 -0.26520295442E+02  0.68696437753E+02  0.10000000000E+01 0.  0.
         -4    1    1    2    0  502 -0.22042152018E+02  0.15054745519E+02 -0.65127303540E+01  0.27505097435E+02  0.12700000000E+01 0.  1.
<mgrwt>
<rscale>  1 0.12778041E+03</rscale>
<asrwt>0</asrwt>
<pdfrwt beam="1">  1       21 0.55034965E-02 0.12778041E+03</pdfrwt>
<pdfrwt beam="2">  1       -4 0.27461186E-01 0.12778041E+03</pdfrwt>
<totfact> 0.11436659E+05</totfact>
</mgrwt>
</event>
<event>
 6    4  0.3189516E-003  0.1380487E+03  0.7818608E-02  0.1215979E+00
          4   -1    0    0  502    0 -0.00000000000E+00  0.00000000000E+00  0.68709347114E+03  0.68709464485E+03  0.12700000000E+01 0. -1.
         21   -1    0    0  501  502  0.00000000000E+00 -0.00000000000E+00 -0.30264067772E+02  0.30264067772E+02  0.00000000000E+00 0.  1.
         25    2    1    2    0    0  0.77537430228E+01  0.58063151036E+02  0.64233248968E+03  0.65699959197E+03  0.12500394599E+03 0.  0.
    9000005    1    3    3    0    0  0.61026191400E+02  0.92907498375E+01  0.37648974332E+03  0.38151807414E+03  0.10000000000E+01 0.  0.
    9000005    1    3    3    0    0 -0.53272448377E+02  0.48772401199E+02  0.26584274636E+03  0.27548151783E+03  0.10000000000E+01 0.  0.
          4    1    1    2  501    0 -0.77537430228E+01 -0.58063151036E+02  0.14496913684E+02  0.60359120648E+02  0.12700000000E+01 0.  1.
<mgrwt>
<rscale>  1 0.13804867E+03</rscale>
<asrwt>0</asrwt>
<pdfrwt beam="2">  1       21 0.46560109E-02 0.13804867E+03</pdfrwt>
<pdfrwt beam="1">  1        4 0.10570882E+00 0.13804867E+03</pdfrwt>
<totfact> 0.93340031E+03</totfact>
</mgrwt>
</event>
<event>
 6    4  0.3189516E-003  0.1276554E+03  0.7818608E-02  0.1230977E+00
         21   -1    0    0  501  502  0.00000000000E+00  0.00000000000E+00  0.13212729676E+04  0.13212729676E+04  0.00000000000E+00 0. -1.
         -4   -1    0    0    0  501 -0.00000000000E+00 -0.00000000000E+00 -0.56524161966E+01  0.57933331390E+01  0.12700000000E+01 0.  1.
         25    2    1    2    0    0 -0.21551839894E+02  0.14359868864E+02  0.74505791757E+03  0.75591481500E+03  0.12500087745E+03 0.  0.
    9000005    1    3    3    0    0  0.27239195962E+02  0.35529690749E+02  0.59544334008E+03  0.59712486464E+03  0.10000000000E+01 0.  0.
    9000005    1    3    3    0    0 -0.48791035856E+02 -0.21169821885E+02  0.14961457749E+03  0.15878995036E+03  0.10000000000E+01 0.  0.
         -4    1    1    2    0  502  0.21551839894E+02 -0.14359868864E+02  0.57056263380E+03  0.57115148571E+03  0.12700000000E+01 0. -1.
<mgrwt>
<rscale>  1 0.12765542E+03</rscale>
<asrwt>0</asrwt>
<pdfrwt beam="1">  1       21 0.20327252E+00 0.12765542E+03</pdfrwt>
<pdfrwt beam="2">  1       -4 0.88049026E-03 0.12765542E+03</pdfrwt>
<totfact> 0.19042773E+04</totfact>
</mgrwt>
</event>
<event>
 6    4  0.3189516E-003  0.1375061E+03  0.7818608E-02  0.1216725E+00
         21   -1    0    0  501  502  0.00000000000E+00  0.00000000000E+00  0.37142946911E+03  0.37142946911E+03  0.00000000000E+00 0.  1.
          4   -1    0    0  502    0 -0.00000000000E+00 -0.00000000000E+00 -0.73913616389E+02  0.73924526293E+02  0.12700000000E+01 0. -1.
         25    2    1    2    0    0  0.18298616677E+02  0.54244101769E+02 -0.48719166475E+01  0.13759233776E+03  0.12502261352E+03 0.  0.
    9000005    1    3    3    0    0  0.18510522365E+02  0.77609088740E+02 -0.44659622095E+02  0.91440100278E+02  0.10000000000E+01 0.  0.
    9000005    1    3    3    0    0 -0.21190568756E+00 -0.23364986971E+02  0.39787705448E+02  0.46152237486E+02  0.10000000000E+01 0.  0.
          4    1    1    2  501    0 -0.18298616677E+02 -0.54244101769E+02  0.30238776937E+03  0.30776165764E+03  0.12700000000E+01 0.  1.
<mgrwt>
<rscale>  1 0.13750606E+03</rscale>
<asrwt>0</asrwt>
<pdfrwt beam="1">  1       21 0.57142994E-01 0.13750606E+03</pdfrwt>
<pdfrwt beam="2">  1        4 0.11372332E-01 0.13750606E+03</pdfrwt>
<totfact> 0.72425319E+03</totfact>
</mgrwt>
</event>
<event>
 6    4  0.3189516E-003  0.1323196E+03  0.7818608E-02  0.1224054E+00
         21   -1    0    0  501  502  0.00000000000E+00  0.00000000000E+00  0.24194498651E+02  0.24194498651E+02  0.00000000000E+00 0. -1.
         -4   -1    0    0    0  501 -0.00000000000E+00 -0.00000000000E+00 -0.52878000523E+03  0.52878153034E+03  0.12700000000E+01 0.  1.
         25    2    1    2    0    0  0.40626175479E+02  0.15276524802E+02 -0.48940476596E+03  0.50697683194E+03  0.12499849933E+03 0.  0.
    9000005    1    3    3    0    0  0.84443728208E+02  0.19639924988E+02 -0.35951611824E+03  0.36982334859E+03  0.10000000000E+01 0.  0.
    9000005    1    3    3    0    0 -0.43817552729E+02 -0.43634001860E+01 -0.12988864772E+03  0.13715348335E+03  0.10000000000E+01 0.  0.
         -4    1    1    2    0  502 -0.40626175479E+02 -0.15276524802E+02 -0.15180740622E+02  0.45999197057E+02  0.12700000000E+01 0. -1.
<mgrwt>
<rscale>  1 0.13231963E+03</rscale>
<asrwt>0</asrwt>
<pdfrwt beam="1">  1       21 0.37222305E-02 0.13231963E+03</pdfrwt>
<pdfrwt beam="2">  1       -4 0.81353453E-01 0.13231963E+03</pdfrwt>
<totfact> 0.24496503E+04</totfact>
</mgrwt>
</event>
<event>
 6    4  0.3189516E-003  0.1274862E+03  0.7818608E-02  0.1231234E+00
         21   -1    0    0  501  502  0.00000000000E+00  0.00000000000E+00  0.43384822614E+03  0.43384822614E+03  0.00000000000E+00 0.  1.
          4   -1    0    0  502    0 -0.00000000000E+00 -0.00000000000E+00 -0.33633925219E+02  0.33657893958E+02  0.12700000000E+01 0. -1.
         25    2    1    2    0    0 -0.23048457030E+02 -0.96334944721E+01  0.89450607195E+02  0.15573742086E+03  0.12501478929E+03 0.  0.
    9000005    1    3    3    0    0 -0.45232707172E+02 -0.58415384945E+02  0.51950044082E+02  0.90322544674E+02  0.10000000000E+01 0.  0.
    9000005    1    3    3    0    0  0.22184250142E+02  0.48781890473E+02  0.37500563114E+02  0.65414876185E+02  0.10000000000E+01 0.  0.
          4    1    1    2  501    0  0.23048457030E+02  0.96334944721E+01  0.31076369373E+03  0.31176869924E+03  0.12700000000E+01 0.  1.
<mgrwt>
<rscale>  1 0.12748621E+03</rscale>
<asrwt>0</asrwt>
<pdfrwt beam="1">  1       21 0.66745877E-01 0.12748621E+03</pdfrwt>
<pdfrwt beam="2">  1        4 0.51764371E-02 0.12748621E+03</pdfrwt>
<totfact> 0.18978466E+04</totfact>
</mgrwt>
</event>
<event>
 6    4  0.3189516E-003  0.1273544E+03  0.7818608E-02  0.1231435E+00
          4   -1    0    0  502    0 -0.00000000000E+00  0.00000000000E+00  0.57049302435E+03  0.57049443795E+03  0.12700000000E+01 0. -1.
         21   -1    0    0  501  502  0.00000000000E+00 -0.00000000000E+00 -0.32088749559E+02  0.32088749559E+02  0.00000000000E+00 0.  1.
         25    2    1    2    0    0 -0.24160185765E+02 -0.32446546105E+01  0.55733003598E+03  0.57169565449E+03  0.12499964001E+03 0.  0.
    9000005    1    3    3    0    0 -0.11796487128E+02  0.57258718533E+02  0.36608947843E+03  0.37072931388E+03  0.10000000000E+01 0.  0.
    9000005    1    3    3    0    0 -0.12363698637E+02 -0.60503373144E+02  0.19124055755E+03  0.20096634061E+03  0.10000000000E+01 0.  0.
          4    1    1    2  501    0  0.24160185765E+02  0.32446546105E+01 -0.18925761184E+02  0.30887533021E+02  0.12700000000E+01 0.  1.
<mgrwt>
<rscale>  1 0.12735444E+03</rscale>
<asrwt>0</asrwt>
<pdfrwt beam="2">  1       21 0.49367311E-02 0.12735444E+03</pdfrwt>
<pdfrwt beam="1">  1        4 0.87770192E-01 0.12735444E+03</pdfrwt>
<totfact> 0.12861078E+04</totfact>
</mgrwt>
</event>
<event>
 6    4  0.3189516E-003  0.1630070E+03  0.7818608E-02  0.1185343E+00
         -4   -1    0    0    0  501 -0.00000000000E+00  0.00000000000E+00  0.80654529179E+03  0.80654629167E+03  0.12700000000E+01 0.  1.
         21   -1    0    0  501  502  0.00000000000E+00 -0.00000000000E+00 -0.54797006825E+02  0.54797006825E+02  0.00000000000E+00 0. -1.
         25    2    1    2    0    0 -0.86561817675E+01  0.10426621507E+03  0.73802771678E+03  0.75581491379E+03  0.12499960035E+03 0.  0.
    9000005    1    3    3    0    0 -0.42824740436E+02  0.23962738032E+01  0.10018958088E+03  0.10898923176E+03  0.10000000000E+01 0.  0.
    9000005    1    3    3    0    0  0.34168558668E+02  0.10186994127E+03  0.63783813589E+03  0.64682568203E+03  0.10000000000E+01 0.  0.
         -4    1    1    2    0  502  0.86561817675E+01 -0.10426621507E+03  0.13720568188E+02  0.10552838471E+03  0.12700000000E+01 0. -1.
<mgrwt>
<rscale>  1 0.16300697E+03</rscale>
<asrwt>0</asrwt>
<pdfrwt beam="2">  1       21 0.84303093E-02 0.16300697E+03</pdfrwt>
<pdfrwt beam="1">  1       -4 0.12408509E+00 0.16300697E+03</pdfrwt>
<totfact> 0.23384334E+03</totfact>
</mgrwt>
</event>
<event>
 6    4  0.3189516E-003  0.1267192E+03  0.7818608E-02  0.1232407E+00
         21   -1    0    0  501  502  0.00000000000E+00  0.00000000000E+00  0.93808417389E+01  0.93808417389E+01  0.00000000000E+00 0. -1.
         -4   -1    0    0    0  501 -0.00000000000E+00 -0.00000000000E+00 -0.79306683749E+03  0.79306785436E+03  0.12700000000E+01 0.  1.
         25    2    1    2    0    0  0.24393511647E+01  0.20656390281E+02 -0.76165172520E+03  0.77212116946E+03  0.12500045173E+03 0.  0.
    9000005    1    3    3    0    0  0.61399292158E+02  0.27475588252E+02 -0.41860396403E+03  0.42397530557E+03  0.10000000000E+01 0.  0.
    9000005    1    3    3    0    0 -0.58959940994E+02 -0.68191979706E+01 -0.34304776117E+03  0.34814586390E+03  0.10000000000E+01 0.  0.
         -4    1    1    2    0  502 -0.24393511647E+01 -0.20656390281E+02 -0.22034270547E+02  0.30327526640E+02  0.12700000000E+01 0. -1.
<mgrwt>
<rscale>  1 0.12671918E+03</rscale>
<asrwt>0</asrwt>
<pdfrwt beam="1">  1       21 0.14432062E-02 0.12671918E+03</pdfrwt>
<pdfrwt beam="2">  1       -4 0.12201699E+00 0.12671918E+03</pdfrwt>
<totfact> 0.44528623E+04</totfact>
</mgrwt>
</event>
<event>
 6    4  0.3189516E-003  0.1381440E+03  0.7818608E-02  0.1215848E+00
          4   -1    0    0  502    0 -0.00000000000E+00  0.00000000000E+00  0.35544126971E+03  0.35544353857E+03  0.12700000000E+01 0.  1.
         21   -1    0    0  501  502  0.00000000000E+00 -0.00000000000E+00 -0.45061687185E+02  0.45061687185E+02  0.00000000000E+00 0. -1.
         25    2    1    2    0    0 -0.58685594419E+02 -0.38611288819E+01  0.31246680576E+03  0.34164202240E+03  0.12499943785E+03 0.  0.
    9000005    1    3    3    0    0  0.33432216519E+02  0.18863451301E+02  0.53615658002E+02  0.65948325827E+02  0.10000000000E+01 0.  0.
    9000005    1    3    3    0    0 -0.92117810938E+02 -0.22724580183E+02  0.25885114775E+03  0.27569369657E+03  0.10000000000E+01 0.  0.
          4    1    1    2  501    0  0.58685594419E+02  0.38611288819E+01 -0.20872232319E+01  0.58863203356E+02  0.12700000000E+01 0. -1.
<mgrwt>
<rscale>  1 0.13814401E+03</rscale>
<asrwt>0</asrwt>
<pdfrwt beam="2">  1       21 0.69325675E-02 0.13814401E+03</pdfrwt>
<pdfrwt beam="1">  1        4 0.54684822E-01 0.13814401E+03</pdfrwt>
<totfact> 0.20211454E+04</totfact>
</mgrwt>
</event>
<event>
 6    4  0.3189516E-003  0.1353196E+03  0.7818608E-02  0.1219769E+00
         21   -1    0    0  501  502  0.00000000000E+00  0.00000000000E+00  0.88644496567E+01  0.88644496567E+01  0.00000000000E+00 0. -1.
          4   -1    0    0  502    0 -0.00000000000E+00 -0.00000000000E+00 -0.99842576578E+03  0.99842657350E+03  0.12700000000E+01 0. -1.
         25    2    1    2    0    0 -0.30200579314E+02 -0.42122350921E+02 -0.75943872017E+03  0.77140039277E+03  0.12500011532E+03 0.  0.
    9000005    1    3    3    0    0  0.14156829609E+02  0.17839726184E+02 -0.27720996800E+02  0.35890462779E+02  0.10000000000E+01 0.  0.
    9000005    1    3    3    0    0 -0.44357408923E+02 -0.59962077105E+02 -0.73171772337E+03  0.73550992999E+03  0.10000000000E+01 0.  0.
          4    1    1    2  501    0  0.30200579314E+02  0.42122350921E+02 -0.23012259596E+03  0.23589063039E+03  0.12700000000E+01 0.  1.
<mgrwt>
<rscale>  1 0.13531961E+03</rscale>
<asrwt>0</asrwt>
<pdfrwt beam="1">  1       21 0.13637614E-02 0.13531961E+03</pdfrwt>
<pdfrwt beam="2">  1        4 0.15361103E+00 0.13531961E+03</pdfrwt>
<totfact> 0.27737713E+04</totfact>
</mgrwt>
</event>
<event>
 6    4  0.3189516E-003  0.1268952E+03  0.7818608E-02  0.1232137E+00
         21   -1    0    0  501  502  0.00000000000E+00  0.00000000000E+00  0.10954246471E+02  0.10954246471E+02  0.00000000000E+00 0.  1.
          4   -1    0    0  502    0 -0.00000000000E+00 -0.00000000000E+00 -0.20753714987E+04  0.20753718873E+04  0.12700000000E+01 0. -1.
         25    2    1    2    0    0  0.72965288687E+01  0.20580751963E+02 -0.20601333775E+04  0.20640377698E+04  0.12500230195E+03 0.  0.
    9000005    1    3    3    0    0  0.12509250054E+02  0.70771969887E+02 -0.92769347807E+03  0.93047371930E+03  0.10000000000E+01 0.  0.
    9000005    1    3    3    0    0 -0.52127211856E+01 -0.50191217923E+02 -0.11324398994E+04  0.11335640505E+04  0.10000000000E+01 0.  0.
          4    1    1    2  501    0 -0.72965288687E+01 -0.20580751963E+02 -0.42838747592E+01  0.22288363957E+02  0.12700000000E+01 0.  1.
<mgrwt>
<rscale>  1 0.12689516E+03</rscale>
<asrwt>0</asrwt>
<pdfrwt beam="1">  1       21 0.16852677E-02 0.12689516E+03</pdfrwt>
<pdfrwt beam="2">  1        4 0.31929381E+00 0.12689516E+03</pdfrwt>
<totfact> 0.19469136E+03</totfact>
</mgrwt>
</event>
<event>
 6    4  0.3189516E-003  0.1358007E+03  0.7818608E-02  0.1219094E+00
         -4   -1    0    0    0  501 -0.00000000000E+00  0.00000000000E+00  0.20785866160E+03  0.20786254137E+03  0.12700000000E+01 0. -1.
         21   -1    0    0  501  502  0.00000000000E+00 -0.00000000000E+00 -0.44582252838E+02  0.44582252838E+02  0.00000000000E+00 0.  1.
         25    2    1    2    0    0  0.40115899089E+02 -0.34748546196E+02  0.13811908677E+03  0.19369744897E+03  0.12500029114E+03 0.  0.
    9000005    1    3    3    0    0  0.54487764670E+02  0.13101700038E+01  0.14441423881E+03  0.15436031036E+03  0.10000000000E+01 0.  0.
    9000005    1    3    3    0    0 -0.14371865581E+02 -0.36058716200E+02 -0.62951520429E+01  0.39337138603E+02  0.10000000000E+01 0.  0.
         -4    1    1    2    0  502 -0.40115899089E+02  0.34748546196E+02  0.25157321998E+02  0.58747345238E+02  0.12700000000E+01 0.  1.
<mgrwt>
<rscale>  1 0.13580066E+03</rscale>
<asrwt>0</asrwt>
<pdfrwt beam="2">  1       21 0.68588083E-02 0.13580066E+03</pdfrwt>
<pdfrwt beam="1">  1       -4 0.31979945E-01 0.13580066E+03</pdfrwt>
<totfact> 0.59534214E+04</totfact>
</mgrwt>
</event>
<event>
 6    4  0.3189516E-003  0.1279947E+03  0.7818608E-02  0.1230462E+00
         -4   -1    0    0    0  501 -0.00000000000E+00  0.00000000000E+00  0.70787708882E+02  0.70799100480E+02  0.12700000000E+01 0.  1.
         21   -1    0    0  501  502  0.00000000000E+00 -0.00000000000E+00 -0.23443834768E+03  0.23443834768E+03  0.00000000000E+00 0. -1.
         25    2    1    2    0    0 -0.24944599794E+02 -0.11610361327E+02  0.10964389547E+02  0.12846342696E+03  0.12500240269E+03 0.  0.
    9000005    1    3    3    0    0 -0.72103068727E+02 -0.21433729093E+02  0.23253136880E+02  0.78739860537E+02  0.10000000000E+01 0.  0.
    9000005    1    3    3    0    0  0.47158468933E+02  0.98233677656E+01 -0.12288747333E+02  0.49723566419E+02  0.10000000000E+01 0.  0.
         -4    1    1    2    0  502  0.24944599794E+02  0.11610361327E+02 -0.17461502835E+03  0.17677402121E+03  0.12700000000E+01 0. -1.
<mgrwt>
<rscale>  1 0.12799466E+03</rscale>
<asrwt>0</asrwt>
<pdfrwt beam="2">  1       21 0.36067439E-01 0.12799466E+03</pdfrwt>
<pdfrwt beam="1">  1       -4 0.10891558E-01 0.12799466E+03</pdfrwt>
<totfact> 0.19791084E+04</totfact>
</mgrwt>
</event>
<event>
 6    4  0.3189516E-003  0.1310319E+03  0.7818608E-02  0.1225933E+00
         -4   -1    0    0    0  501 -0.00000000000E+00  0.00000000000E+00  0.63708561548E+03  0.63708688132E+03  0.12700000000E+01 0. -1.
         21   -1    0    0  501  502  0.00000000000E+00 -0.00000000000E+00 -0.11823017747E+02  0.11823017747E+02  0.00000000000E+00 0. -1.
         25    2    1    2    0    0  0.35323087978E+02  0.17217533445E+02  0.52766335386E+03  0.54368922948E+03  0.12500079701E+03 0.  0.
    9000005    1    3    3    0    0 -0.31417401310E+02  0.45632082822E+02  0.28820594675E+03  0.29348425482E+03  0.10000000000E+01 0.  0.
    9000005    1    3    3    0    0  0.66740489288E+02 -0.28414549376E+02  0.23945740711E+03  0.25020497466E+03  0.10000000000E+01 0.  0.
         -4    1    1    2    0  502 -0.35323087978E+02 -0.17217533445E+02  0.97599243872E+02  0.10522066958E+03  0.12700000000E+01 0.  1.
<mgrwt>
<rscale>  1 0.13103192E+03</rscale>
<asrwt>0</asrwt>
<pdfrwt beam="2">  1       21 0.18189263E-02 0.13103192E+03</pdfrwt>
<pdfrwt beam="1">  1       -4 0.98018489E-01 0.13103192E+03</pdfrwt>
<totfact> 0.51692643E+04</totfact>
</mgrwt>
</event>
<event>
 6    4  0.3189516E-003  0.1335211E+03  0.7818608E-02  0.1222323E+00
         -4   -1    0    0    0  501 -0.00000000000E+00  0.00000000000E+00  0.34291920815E+03  0.34292155987E+03  0.12700000000E+01 0. -1.
         21   -1    0    0  501  502  0.00000000000E+00 -0.00000000000E+00 -0.26482194392E+02  0.26482194392E+02  0.00000000000E+00 0.  1.
         25    2    1    2    0    0 -0.35232498854E+02 -0.31022705852E+02  0.27915236140E+03  0.30944130387E+03  0.12499656962E+03 0.  0.
    9000005    1    3    3    0    0 -0.22069328496E+01 -0.38313163923E+02  0.12096304257E+02  0.40250337378E+02  0.10000000000E+01 0.  0.
    9000005    1    3    3    0    0 -0.33025566004E+02  0.72904580707E+01  0.26705605714E+03  0.26919096650E+03  0.10000000000E+01 0.  0.
         -4    1    1    2    0  502  0.35232498854E+02  0.31022705852E+02  0.37284652366E+02  0.59962450383E+02  0.12700000000E+01 0.  1.
<mgrwt>
<rscale>  1 0.13352108E+03</rscale>
<asrwt>0</asrwt>
<pdfrwt beam="2">  1       21 0.40741840E-02 0.13352108E+03</pdfrwt>
<pdfrwt beam="1">  1       -4 0.52759321E-01 0.13352108E+03</pdfrwt>
<totfact> 0.53154632E+04</totfact>
</mgrwt>
</event>
<event>
 6    4  0.3189516E-003  0.1271846E+03  0.7818608E-02  0.1231694E+00
          4   -1    0    0  502    0 -0.00000000000E+00  0.00000000000E+00  0.32242047616E+03  0.32242297739E+03  0.12700000000E+01 0.  1.
         21   -1    0    0  501  502  0.00000000000E+00 -0.00000000000E+00 -0.18249565044E+02  0.18249565044E+02  0.00000000000E+00 0.  1.
         25    2    1    2    0    0  0.23494050661E+02  0.57850750935E-01  0.27651422830E+03  0.30436167949E+03  0.12499575883E+03 0.  0.
    9000005    1    3    3    0    0 -0.66275065729E+01 -0.42622170637E+02  0.30443448780E+02  0.52805083532E+02  0.10000000000E+01 0.  0.
    9000005    1    3    3    0    0  0.30121557234E+02  0.42680021388E+02  0.24607077952E+03  0.25155659596E+03  0.10000000000E+01 0.  0.
          4    1    1    2  501    0 -0.23494050661E+02 -0.57850750935E-01  0.27656682815E+02  0.36310862941E+02  0.12700000000E+01 0. -1.
<mgrwt>
<rscale>  1 0.12718456E+03</rscale>
<asrwt>0</asrwt>
<pdfrwt beam="2">  1       21 0.28076257E-02 0.12718456E+03</pdfrwt>
<pdfrwt beam="1">  1        4 0.49606737E-01 0.12718456E+03</pdfrwt>
<totfact> 0.11062665E+05</totfact>
</mgrwt>
</event>
<event>
 6    4  0.3189516E-003  0.1573107E+03  0.7818608E-02  0.1191767E+00
          4   -1    0    0  502    0 -0.00000000000E+00  0.00000000000E+00  0.27291290844E+03  0.27291586340E+03  0.12700000000E+01 0. -1.
         21   -1    0    0  501  502  0.00000000000E+00 -0.00000000000E+00 -0.80273578338E+02  0.80273578338E+02  0.00000000000E+00 0.  1.
         25    2    1    2    0    0  0.86667216044E+02 -0.40135978858E+02  0.20332514999E+03  0.25707543244E+03  0.12499823283E+03 0.  0.
    9000005    1    3    3    0    0  0.62185997241E+02 -0.74567434721E+02  0.77170816446E+02  0.12403118755E+03  0.10000000000E+01 0.  0.
    9000005    1    3    3    0    0  0.24481218804E+02  0.34431455863E+02  0.12615433355E+03  0.13304424490E+03  0.10000000000E+01 0.  0.
          4    1    1    2  501    0 -0.86667216044E+02  0.40135978858E+02 -0.10685819887E+02  0.96114009293E+02  0.12700000000E+01 0.  1.
<mgrwt>
<rscale>  1 0.15731072E+03</rscale>
<asrwt>0</asrwt>
<pdfrwt beam="2">  1       21 0.12349781E-01 0.15731072E+03</pdfrwt>
<pdfrwt beam="1">  1        4 0.41987601E-01 0.15731072E+03</pdfrwt>
<totfact> 0.12750943E+04</totfact>
</mgrwt>
</event>
<event>
 6    4  0.3189516E-003  0.1304239E+03  0.7818608E-02  0.1226828E+00
          4   -1    0    0  502    0 -0.00000000000E+00  0.00000000000E+00  0.14159933139E+03  0.14160502657E+03  0.12700000000E+01 0. -1.
         21   -1    0    0  501  502  0.00000000000E+00 -0.00000000000E+00 -0.16139447923E+03  0.16139447923E+03  0.00000000000E+00 0.  1.
         25    2    1    2    0    0 -0.26259634378E+02  0.26394463232E+02  0.10834402959E+03  0.16955476900E+03  0.12499661938E+03 0.  0.
    9000005    1    3    3    0    0 -0.47488799820E+02  0.29753379217E+02 -0.30212136437E+01  0.56130004589E+02  0.10000000000E+01 0.  0.
    9000005    1    3    3    0    0  0.21229165442E+02 -0.33589159856E+01  0.11136524324E+03  0.11342476442E+03  0.10000000000E+01 0.  0.
          4    1    1    2  501    0  0.26259634378E+02 -0.26394463232E+02 -0.12813917742E+03  0.13344473679E+03  0.12700000000E+01 0.  1.
<mgrwt>
<rscale>  1 0.13042389E+03</rscale>
<asrwt>0</asrwt>
<pdfrwt beam="2">  1       21 0.24829920E-01 0.13042389E+03</pdfrwt>
<pdfrwt beam="1">  1        4 0.21785335E-01 0.13042389E+03</pdfrwt>
<totfact> 0.12103237E+04</totfact>
</mgrwt>
</event>
<event>
 6    4  0.3189516E-003  0.1281967E+03  0.7818608E-02  0.1230156E+00
         21   -1    0    0  501  502  0.00000000000E+00  0.00000000000E+00  0.34056039010E+03  0.34056039010E+03  0.00000000000E+00 0. -1.
         -4   -1    0    0    0  501 -0.00000000000E+00 -0.00000000000E+00 -0.19902972945E+02  0.19943450856E+02  0.12700000000E+01 0. -1.
         25    2    1    2    0    0 -0.98980738452E+01  0.26663947680E+02  0.29700358149E+03  0.32348958946E+03  0.12500179640E+03 0.  0.
    9000005    1    3    3    0    0 -0.31922442225E+02  0.61636550362E+02  0.97143120594E+02  0.11939804243E+03  0.10000000000E+01 0.  0.
    9000005    1    3    3    0    0  0.22024368379E+02 -0.34972602682E+02  0.19986046089E+03  0.20409154703E+03  0.10000000000E+01 0.  0.
         -4    1    1    2    0  502  0.98980738452E+01 -0.26663947680E+02  0.23653835669E+02  0.37014251493E+02  0.12700000000E+01 0.  1.
<mgrwt>
<rscale>  1 0.12819667E+03</rscale>
<asrwt>0</asrwt>
<pdfrwt beam="1">  1       21 0.52393902E-01 0.12819667E+03</pdfrwt>
<pdfrwt beam="2">  1       -4 0.30652919E-02 0.12819667E+03</pdfrwt>
<totfact> 0.72822108E+04</totfact>
</mgrwt>
</event>
<event>
 6    4  0.3189516E-003  0.1287012E+03  0.7818608E-02  0.1229396E+00
         21   -1    0    0  501  502  0.00000000000E+00  0.00000000000E+00  0.56602157259E+01  0.56602157259E+01  0.00000000000E+00 0.  1.
          4   -1    0    0  502    0 -0.00000000000E+00 -0.00000000000E+00 -0.12411971989E+04  0.12411978486E+04  0.12700000000E+01 0.  1.
         25    2    1    2    0    0 -0.20562216462E+02  0.22695631130E+02 -0.11182577421E+04  0.11256395439E+04  0.12500443424E+03 0.  0.
    9000005    1    3    3    0    0  0.29786274677E+02  0.56875108000E+02 -0.70592025151E+03  0.70883453750E+03  0.10000000000E+01 0.  0.
    9000005    1    3    3    0    0 -0.50348491140E+02 -0.34179476870E+02 -0.41233749063E+03  0.41680500642E+03  0.10000000000E+01 0.  0.
          4    1    1    2  501    0  0.20562216462E+02 -0.22695631130E+02 -0.11727924099E+03  0.12121852039E+03  0.12700000000E+01 0. -1.
<mgrwt>
<rscale>  1 0.12870122E+03</rscale>
<asrwt>0</asrwt>
<pdfrwt beam="1">  1       21 0.87080224E-03 0.12870122E+03</pdfrwt>
<pdfrwt beam="2">  1        4 0.19096447E+00 0.12870122E+03</pdfrwt>
<totfact> 0.31350355E+04</totfact>
</mgrwt>
</event>
<event>
 6    4  0.3189516E-003  0.1286157E+03  0.7818608E-02  0.1229524E+00
         21   -1    0    0  501  502  0.00000000000E+00  0.00000000000E+00  0.17925270530E+02  0.17925270530E+02  0.00000000000E+00 0.  1.
          4   -1    0    0  502    0 -0.00000000000E+00 -0.00000000000E+00 -0.35234018779E+03  0.35234247662E+03  0.12700000000E+01 0.  1.
         25    2    1    2    0    0  0.18971062579E+02 -0.23610187183E+02 -0.26833444090E+03  0.29756572235E+03  0.12499857915E+03 0.  0.
    9000005    1    3    3    0    0  0.22539199972E+01  0.47230172504E+02 -0.16154986189E+03  0.16833041088E+03  0.10000000000E+01 0.  0.
    9000005    1    3    3    0    0  0.16717142582E+02 -0.70840359687E+02 -0.10678457901E+03  0.12923531147E+03  0.10000000000E+01 0.  0.
          4    1    1    2  501    0 -0.18971062579E+02  0.23610187183E+02 -0.66080476367E+02  0.72702024808E+02  0.12700000000E+01 0. -1.
<mgrwt>
<rscale>  1 0.12861566E+03</rscale>
<asrwt>0</asrwt>
<pdfrwt beam="1">  1       21 0.27577340E-02 0.12861566E+03</pdfrwt>
<pdfrwt beam="2">  1        4 0.54209819E-01 0.12861566E+03</pdfrwt>
<totfact> 0.95159063E+04</totfact>
</mgrwt>
</event>
<event>
 6    4  0.3189516E-003  0.1266699E+03  0.7818608E-02  0.1232482E+00
          4   -1    0    0  502    0 -0.00000000000E+00  0.00000000000E+00  0.75647896844E+01  0.76706546636E+01  0.12700000000E+01 0.  1.
         21   -1    0    0  501  502  0.00000000000E+00 -0.00000000000E+00 -0.77168700765E+03  0.77168700765E+03  0.00000000000E+00 0.  1.
         25    2    1    2    0    0 -0.65155290984E+00 -0.20398224110E+02 -0.55666145802E+03  0.57089161740E+03  0.12501499068E+03 0.  0.
    9000005    1    3    3    0    0 -0.39669736834E+02 -0.21708372025E+02 -0.74534873818E+02  0.87185944116E+02  0.10000000000E+01 0.  0.
    9000005    1    3    3    0    0  0.39018183925E+02  0.13101479146E+01 -0.48212658421E+03  0.48370567328E+03  0.10000000000E+01 0.  0.
          4    1    1    2  501    0  0.65155290984E+00  0.20398224110E+02 -0.20746075995E+03  0.20846604492E+03  0.12700000000E+01 0. -1.
<mgrwt>
<rscale>  1 0.12666989E+03</rscale>
<asrwt>0</asrwt>
<pdfrwt beam="2">  1       21 0.11872112E+00 0.12666989E+03</pdfrwt>
<pdfrwt beam="1">  1        4 0.11720373E-02 0.12666989E+03</pdfrwt>
<totfact> 0.51135414E+04</totfact>
</mgrwt>
</event>
<event>
 6    4  0.3189516E-003  0.1284949E+03  0.7818608E-02  0.1229706E+00
         21   -1    0    0  501  502  0.00000000000E+00  0.00000000000E+00  0.61099216521E+02  0.61099216521E+02  0.00000000000E+00 0.  1.
          4   -1    0    0  502    0 -0.00000000000E+00 -0.00000000000E+00 -0.10435844834E+03  0.10436617575E+03  0.12700000000E+01 0.  1.
         25    2    1    2    0    0 -0.29617839327E+02 -0.31010191365E+01 -0.26256362867E+02  0.13115004324E+03  0.12499641805E+03 0.  0.
    9000005    1    3    3    0    0  0.62884961041E+01 -0.15267883338E+02 -0.70766327877E+02  0.72674112352E+02  0.10000000000E+01 0.  0.
    9000005    1    3    3    0    0 -0.35906335431E+02  0.12166864201E+02  0.44509965010E+02  0.58475930893E+02  0.10000000000E+01 0.  0.
          4    1    1    2  501    0  0.29617839327E+02  0.31010191365E+01 -0.17002868957E+02  0.34315349027E+02  0.12700000000E+01 0. -1.
<mgrwt>
<rscale>  1 0.12849489E+03</rscale>
<asrwt>0</asrwt>
<pdfrwt beam="1">  1       21 0.93998796E-02 0.12849489E+03</pdfrwt>
<pdfrwt beam="2">  1        4 0.16056755E-01 0.12849489E+03</pdfrwt>
<totfact> 0.12068108E+05</totfact>
</mgrwt>
</event>
<event>
 6    4  0.3189516E-003  0.1299343E+03  0.7818608E-02  0.1227553E+00
         -4   -1    0    0    0  501 -0.00000000000E+00  0.00000000000E+00  0.70857608936E+03  0.70857722748E+03  0.12700000000E+01 0.  1.
         21   -1    0    0  501  502  0.00000000000E+00 -0.00000000000E+00 -0.98540790567E+01  0.98540790567E+01  0.00000000000E+00 0.  1.
         25    2    1    2    0    0  0.35163029545E+02 -0.46567074468E+01  0.58692496849E+03  0.60113546250E+03  0.12499920828E+03 0.  0.
    9000005    1    3    3    0    0 -0.21713512240E+02 -0.51278493433E+02  0.22272083178E+03  0.22957902650E+03  0.10000000000E+01 0.  0.
    9000005    1    3    3    0    0  0.56876541785E+02  0.46621785986E+02  0.36420413671E+03  0.37155643599E+03  0.10000000000E+01 0.  0.
         -4    1    1    2    0  502 -0.35163029545E+02  0.46567074468E+01  0.11179704182E+03  0.11729584404E+03  0.12700000000E+01 0. -1.
<mgrwt>
<rscale>  1 0.12993431E+03</rscale>
<asrwt>0</asrwt>
<pdfrwt beam="2">  1       21 0.15160127E-02 0.12993431E+03</pdfrwt>
<pdfrwt beam="1">  1       -4 0.10901805E+00 0.12993431E+03</pdfrwt>
<totfact> 0.53977967E+04</totfact>
</mgrwt>
</event>
<event>
 6    4  0.3189516E-003  0.1305080E+03  0.7818608E-02  0.1226704E+00
         -4   -1    0    0    0  501 -0.00000000000E+00  0.00000000000E+00  0.46141943814E+02  0.46159418095E+02  0.12700000000E+01 0. -1.
         21   -1    0    0  501  502  0.00000000000E+00 -0.00000000000E+00 -0.18284962617E+03  0.18284962617E+03  0.00000000000E+00 0. -1.
         25    2    1    2    0    0 -0.20473272608E+02  0.31441150879E+02 -0.60066358235E+02  0.14366734096E+03  0.12499854642E+03 0.  0.
    9000005    1    3    3    0    0  0.40399837073E+02 -0.14738391707E+02  0.49985708059E+01  0.43305343039E+02  0.10000000000E+01 0.  0.
    9000005    1    3    3    0    0 -0.60873109681E+02  0.46179542586E+02 -0.65064929041E+02  0.10036199792E+03  0.10000000000E+01 0.  0.
         -4    1    1    2    0  502  0.20473272608E+02 -0.31441150879E+02 -0.76641324119E+02  0.85341703302E+02  0.12700000000E+01 0.  1.
<mgrwt>
<rscale>  1 0.13050800E+03</rscale>
<asrwt>0</asrwt>
<pdfrwt beam="2">  1       21 0.28130712E-01 0.13050800E+03</pdfrwt>
<pdfrwt beam="1">  1       -4 0.71004440E-02 0.13050800E+03</pdfrwt>
<totfact> 0.65588983E+04</totfact>
</mgrwt>
</event>
<event>
 6    4  0.3189516E-003  0.1419757E+03  0.7818608E-02  0.1210695E+00
         -4   -1    0    0    0  501 -0.00000000000E+00  0.00000000000E+00  0.17342463510E+03  0.17342928518E+03  0.12700000000E+01 0.  1.
         21   -1    0    0  501  502  0.00000000000E+00 -0.00000000000E+00 -0.63213753099E+02  0.63213753099E+02  0.00000000000E+00 0. -1.
         25    2    1    2    0    0 -0.58961421236E+02  0.32489810398E+02  0.78223463973E+02  0.16209879111E+03  0.12500028316E+03 0.  0.
    9000005    1    3    3    0    0  0.45432459541E+01 -0.18222797455E+02  0.78604349166E+02  0.80822986450E+02  0.10000000000E+01 0.  0.
    9000005    1    3    3    0    0 -0.63504667190E+02  0.50712607853E+02 -0.38088519267E+00  0.81275804664E+02  0.10000000000E+01 0.  0.
         -4    1    1    2    0  502  0.58961421236E+02 -0.32489810398E+02  0.31987418025E+02  0.74544247168E+02  0.12700000000E+01 0. -1.
<mgrwt>
<rscale>  1 0.14197573E+03</rscale>
<asrwt>0</asrwt>
<pdfrwt beam="2">  1       21 0.97251928E-02 0.14197573E+03</pdfrwt>
<pdfrwt beam="1">  1       -4 0.26682052E-01 0.14197573E+03</pdfrwt>
<totfact> 0.46024642E+04</totfact>
</mgrwt>
</event>
<event>
 6    4  0.3189516E-003  0.1321735E+03  0.7818608E-02  0.1224266E+00
         21   -1    0    0  501  502  0.00000000000E+00  0.00000000000E+00  0.37991868556E+03  0.37991868556E+03  0.00000000000E+00 0. -1.
          4   -1    0    0  502    0 -0.00000000000E+00 -0.00000000000E+00 -0.29759419652E+02  0.29786506308E+02  0.12700000000E+01 0. -1.
         25    2    1    2    0    0  0.47441923030E+01 -0.42681670051E+02  0.12999300008E+03  0.18538615605E+03  0.12500245785E+03 0.  0.
    9000005    1    3    3    0    0  0.37807862893E+02 -0.75081737201E+02  0.68701698573E+02  0.10857083008E+03  0.10000000000E+01 0.  0.
    9000005    1    3    3    0    0 -0.33063670590E+02  0.32400067149E+02  0.61291301504E+02  0.76815325972E+02  0.10000000000E+01 0.  0.
          4    1    1    2  501    0 -0.47441923030E+01  0.42681670051E+02  0.22016626583E+03  0.22431903581E+03  0.12700000000E+01 0.  1.
<mgrwt>
<rscale>  1 0.13217355E+03</rscale>
<asrwt>0</asrwt>
<pdfrwt beam="1">  1       21 0.58449025E-01 0.13217355E+03</pdfrwt>
<pdfrwt beam="2">  1        4 0.45806194E-02 0.13217355E+03</pdfrwt>
<totfact> 0.30772590E+04</totfact>
</mgrwt>
</event>
<event>
 6    4  0.3189516E-003  0.1285235E+03  0.7818608E-02  0.1229663E+00
         21   -1    0    0  501  502  0.00000000000E+00  0.00000000000E+00  0.35723251751E+03  0.35723251751E+03  0.00000000000E+00 0. -1.
         -4   -1    0    0    0  501 -0.00000000000E+00 -0.00000000000E+00 -0.20985564011E+02  0.21023957688E+02  0.12700000000E+01 0.  1.
         25    2    1    2    0    0  0.29647233177E+02 -0.38980658969E+01  0.19273729852E+03  0.23165911054E+03  0.12499649556E+03 0.  0.
    9000005    1    3    3    0    0  0.26696275582E+02 -0.29672553236E+02  0.28752459722E+01  0.40030220895E+02  0.10000000000E+01 0.  0.
    9000005    1    3    3    0    0  0.29509575948E+01  0.25774487339E+02  0.18986205255E+03  0.19162888965E+03  0.10000000000E+01 0.  0.
         -4    1    1    2    0  502 -0.29647233177E+02  0.38980658969E+01  0.14350965497E+03  0.14659736465E+03  0.12700000000E+01 0. -1.
<mgrwt>
<rscale>  1 0.12852345E+03</rscale>
<asrwt>0</asrwt>
<pdfrwt beam="1">  1       21 0.54958844E-01 0.12852345E+03</pdfrwt>
<pdfrwt beam="2">  1       -4 0.32316756E-02 0.12852345E+03</pdfrwt>
<totfact> 0.60690257E+04</totfact>
</mgrwt>
</event>
<event>
 6    4  0.3189516E-003  0.1271527E+03  0.7818608E-02  0.1231743E+00
         -4   -1    0    0    0  501 -0.00000000000E+00  0.00000000000E+00  0.42355162712E+03  0.42355353114E+03  0.12700000000E+01 0.  1.
         21   -1    0    0  501  502  0.00000000000E+00 -0.00000000000E+00 -0.24648156968E+02  0.24648156968E+02  0.00000000000E+00 0. -1.
         25    2    1    2    0    0 -0.84712094016E+01 -0.21566800550E+02  0.40476516552E+03  0.42426718064E+03  0.12502365008E+03 0.  0.
    9000005    1    3    3    0    0 -0.50983604981E+01 -0.68555108461E+02  0.14767714677E+03  0.16289670301E+03  0.10000000000E+01 0.  0.
    9000005    1    3    3    0    0 -0.33728489036E+01  0.46988307911E+02  0.25708801875E+03  0.26137047763E+03  0.10000000000E+01 0.  0.
         -4    1    1    2    0  502  0.84712094016E+01  0.21566800550E+02 -0.58616953669E+01  0.23934507458E+02  0.12700000000E+01 0. -1.
<mgrwt>
<rscale>  1 0.12715267E+03</rscale>
<asrwt>0</asrwt>
<pdfrwt beam="2">  1       21 0.37920244E-02 0.12715267E+03</pdfrwt>
<pdfrwt beam="1">  1       -4 0.65164447E-01 0.12715267E+03</pdfrwt>
<totfact> 0.38267647E+04</totfact>
</mgrwt>
</event>
<event>
 6    4  0.3189516E-003  0.1344903E+03  0.7818608E-02  0.1220941E+00
         21   -1    0    0  501  502  0.00000000000E+00  0.00000000000E+00  0.52581978455E+02  0.52581978455E+02  0.00000000000E+00 0.  1.
         -4   -1    0    0    0  501 -0.00000000000E+00 -0.00000000000E+00 -0.16754800236E+03  0.16755281553E+03  0.12700000000E+01 0.  1.
         25    2    1    2    0    0  0.16408727740E+02 -0.46822364004E+02 -0.63811456338E+02  0.14886079593E+03  0.12500421788E+03 0.  0.
    9000005    1    3    3    0    0  0.13725968280E+02 -0.84848762221E+02 -0.15551911365E+02  0.87353171681E+02  0.10000000000E+01 0.  0.
    9000005    1    3    3    0    0  0.26827594605E+01  0.38026398217E+02 -0.48259544973E+02  0.61507624248E+02  0.10000000000E+01 0.  0.
         -4    1    1    2    0  502 -0.16408727740E+02  0.46822364004E+02 -0.51154567563E+02  0.71273998061E+02  0.12700000000E+01 0. -1.
<mgrwt>
<rscale>  1 0.13449028E+03</rscale>
<asrwt>0</asrwt>
<pdfrwt beam="1">  1       21 0.80895350E-02 0.13449028E+03</pdfrwt>
<pdfrwt beam="2">  1       -4 0.25778166E-01 0.13449028E+03</pdfrwt>
<totfact> 0.67137424E+04</totfact>
</mgrwt>
</event>
<event>
 6    4  0.3189516E-003  0.1300664E+03  0.7818608E-02  0.1227357E+00
          4   -1    0    0  502    0 -0.00000000000E+00  0.00000000000E+00  0.17210216512E+04  0.17210221198E+04  0.12700000000E+01 0. -1.
         21   -1    0    0  501  502  0.00000000000E+00 -0.00000000000E+00 -0.85047139278E+01  0.85047139278E+01  0.00000000000E+00 0.  1.
         25    2    1    2    0    0 -0.29282501771E+02 -0.20774191127E+02  0.16644176798E+04  0.16694919822E+04  0.12501293467E+03 0.  0.
    9000005    1    3    3    0    0 -0.28178999053E+02 -0.72503709228E+02  0.92498268461E+03  0.92824824840E+03  0.10000000000E+01 0.  0.
    9000005    1    3    3    0    0 -0.11035027186E+01  0.51729518101E+02  0.73943499524E+03  0.74124373383E+03  0.10000000000E+01 0.  0.
          4    1    1    2  501    0  0.29282501771E+02  0.20774191127E+02  0.48099257406E+02  0.60034851461E+02  0.12700000000E+01 0.  1.
<mgrwt>
<rscale>  1 0.13006639E+03</rscale>
<asrwt>0</asrwt>
<pdfrwt beam="2">  1       21 0.13084189E-02 0.13006639E+03</pdfrwt>
<pdfrwt beam="1">  1        4 0.26477961E+00 0.13006639E+03</pdfrwt>
<totfact> 0.60165937E+03</totfact>
</mgrwt>
</event>
<event>
 6    4  0.3189516E-003  0.1294570E+03  0.7818608E-02  0.1228264E+00
         -4   -1    0    0    0  501 -0.00000000000E+00  0.00000000000E+00  0.34903954058E+03  0.34904185106E+03  0.12700000000E+01 0. -1.
         21   -1    0    0  501  502  0.00000000000E+00 -0.00000000000E+00 -0.19459501177E+02  0.19459501177E+02  0.00000000000E+00 0. -1.
         25    2    1    2    0    0  0.33477284749E+02  0.36134071480E+01  0.23818441313E+03  0.27109211906E+03  0.12500134820E+03 0.  0.
    9000005    1    3    3    0    0 -0.40821020313E+02  0.71485835092E+01  0.33465315205E+02  0.53276498265E+02  0.10000000000E+01 0.  0.
    9000005    1    3    3    0    0  0.74298305062E+02 -0.35351763612E+01  0.20471909793E+03  0.21781562080E+03  0.10000000000E+01 0.  0.
         -4    1    1    2    0  502 -0.33477284749E+02 -0.36134071480E+01  0.91395626274E+02  0.97409233173E+02  0.12700000000E+01 0.  1.
<mgrwt>
<rscale>  1 0.12945703E+03</rscale>
<asrwt>0</asrwt>
<pdfrwt beam="2">  1       21 0.29937697E-02 0.12945703E+03</pdfrwt>
<pdfrwt beam="1">  1       -4 0.53701752E-01 0.12945703E+03</pdfrwt>
<totfact> 0.84901111E+04</totfact>
</mgrwt>
</event>
<event>
 6    4  0.3189516E-003  0.1318017E+03  0.7818608E-02  0.1224807E+00
          4   -1    0    0  502    0 -0.00000000000E+00  0.00000000000E+00  0.99907883740E+03  0.99907964459E+03  0.12700000000E+01 0.  1.
         21   -1    0    0  501  502  0.00000000000E+00 -0.00000000000E+00 -0.75682415817E+01  0.75682415817E+01  0.00000000000E+00 0.  1.
         25    2    1    2    0    0 -0.38178086089E+02 -0.16949343801E+02  0.77811123886E+03  0.78919502930E+03  0.12500739066E+03 0.  0.
    9000005    1    3    3    0    0 -0.36523487052E+02  0.49606535902E+02  0.46640433232E+03  0.47045592218E+03  0.10000000000E+01 0.  0.
    9000005    1    3    3    0    0 -0.16545990369E+01 -0.66555879702E+02  0.31170690655E+03  0.31873910712E+03  0.10000000000E+01 0.  0.
          4    1    1    2  501    0  0.38178086089E+02  0.16949343801E+02  0.21339935695E+03  0.21745285687E+03  0.12700000000E+01 0. -1.
<mgrwt>
<rscale>  1 0.13180172E+03</rscale>
<asrwt>0</asrwt>
<pdfrwt beam="2">  1       21 0.11643457E-02 0.13180172E+03</pdfrwt>
<pdfrwt beam="1">  1        4 0.15371259E+00 0.13180172E+03</pdfrwt>
<totfact> 0.35491992E+04</totfact>
</mgrwt>
</event>
<event>
 6    4  0.3189516E-003  0.1294892E+03  0.7818608E-02  0.1228216E+00
          4   -1    0    0  502    0 -0.00000000000E+00  0.00000000000E+00  0.66263328882E+03  0.66263450586E+03  0.12700000000E+01 0. -1.
         21   -1    0    0  501  502  0.00000000000E+00 -0.00000000000E+00 -0.19298712674E+02  0.19298712674E+02  0.00000000000E+00 0.  1.
         25    2    1    2    0    0  0.13784640523E+02  0.30856732474E+02  0.63366241441E+03  0.64675768917E+03  0.12500119525E+03 0.  0.
    9000005    1    3    3    0    0  0.53411645301E+01 -0.80740478850E+00 -0.48956633115E+01  0.73584957899E+01  0.10000000000E+01 0.  0.
    9000005    1    3    3    0    0  0.84434759933E+01  0.31664137263E+02  0.63855807772E+03  0.63939919338E+03  0.10000000000E+01 0.  0.
          4    1    1    2  501    0 -0.13784640523E+02 -0.30856732474E+02  0.96721617441E+01  0.35175529366E+02  0.12700000000E+01 0.  1.
<mgrwt>
<rscale>  1 0.12948920E+03</rscale>
<asrwt>0</asrwt>
<pdfrwt beam="2">  1       21 0.29690332E-02 0.12948920E+03</pdfrwt>
<pdfrwt beam="1">  1        4 0.10194687E+00 0.12948920E+03</pdfrwt>
<totfact> 0.21275276E+04</totfact>
</mgrwt>
</event>
<event>
 6    4  0.3189516E-003  0.1356611E+03  0.7818608E-02  0.1219289E+00
          4   -1    0    0  502    0 -0.00000000000E+00  0.00000000000E+00  0.17398778518E+02  0.17445067897E+02  0.12700000000E+01 0.  1.
         21   -1    0    0  501  502  0.00000000000E+00 -0.00000000000E+00 -0.58791308242E+03  0.58791308242E+03  0.00000000000E+00 0. -1.
         25    2    1    2    0    0 -0.28618973065E+02 -0.44278958016E+02 -0.29306676841E+03  0.32294281859E+03  0.12499704633E+03 0.  0.
    9000005    1    3    3    0    0 -0.50269193422E+00 -0.78929855981E+02 -0.11581768866E+03  0.14016030776E+03  0.10000000000E+01 0.  0.
    9000005    1    3    3    0    0 -0.28116281131E+02  0.34650897965E+02 -0.17724907975E+03  0.18278251083E+03  0.10000000000E+01 0.  0.
          4    1    1    2  501    0  0.28618973065E+02  0.44278958016E+02 -0.27744753549E+03  0.28241533172E+03  0.12700000000E+01 0. -1.
<mgrwt>
<rscale>  1 0.13566110E+03</rscale>
<asrwt>0</asrwt>
<pdfrwt beam="2">  1       21 0.90448148E-01 0.13566110E+03</pdfrwt>
<pdfrwt beam="1">  1        4 0.26804019E-02 0.13566110E+03</pdfrwt>
<totfact> 0.27494934E+04</totfact>
</mgrwt>
</event>
<event>
 6    4  0.3189516E-003  0.1304513E+03  0.7818608E-02  0.1226788E+00
         -4   -1    0    0    0  501 -0.00000000000E+00  0.00000000000E+00  0.56626461270E+02  0.56640701055E+02  0.12700000000E+01 0. -1.
         21   -1    0    0  501  502  0.00000000000E+00 -0.00000000000E+00 -0.71086374945E+03  0.71086374945E+03  0.00000000000E+00 0.  1.
         25    2    1    2    0    0 -0.25691673082E+02 -0.27058949451E+02 -0.19771465440E+02  0.13194112405E+03  0.12500120223E+03 0.  0.
    9000005    1    3    3    0    0  0.16367486368E+02  0.43402587834E+02  0.38136020772E+01  0.46553440276E+02  0.10000000000E+01 0.  0.
    9000005    1    3    3    0    0 -0.42059159450E+02 -0.70461537285E+02 -0.23585067517E+02  0.85387683772E+02  0.10000000000E+01 0.  0.
         -4    1    1    2    0  502  0.25691673082E+02  0.27058949451E+02 -0.63446582274E+03  0.63556332646E+03  0.12700000000E+01 0.  1.
<mgrwt>
<rscale>  1 0.13045133E+03</rscale>
<asrwt>0</asrwt>
<pdfrwt beam="2">  1       21 0.10936365E+00 0.13045133E+03</pdfrwt>
<pdfrwt beam="1">  1       -4 0.87129462E-02 0.13045133E+03</pdfrwt>
<totfact> 0.26462690E+03</totfact>
</mgrwt>
</event>
<event>
 6    4  0.3189516E-003  0.1283381E+03  0.7818608E-02  0.1229943E+00
         -4   -1    0    0    0  501 -0.00000000000E+00  0.00000000000E+00  0.11914031956E+04  0.11914038725E+04  0.12700000000E+01 0. -1.
         21   -1    0    0  501  502  0.00000000000E+00 -0.00000000000E+00 -0.95709771355E+01  0.95709771355E+01  0.00000000000E+00 0. -1.
         25    2    1    2    0    0 -0.29077159172E+02  0.43690713002E+00  0.11525960806E+04  0.11597191018E+04  0.12499999183E+03 0.  0.
    9000005    1    3    3    0    0 -0.26656775668E+01 -0.47207418607E+02  0.19801334756E+03  0.20358273999E+03  0.10000000000E+01 0.  0.
    9000005    1    3    3    0    0 -0.26411481605E+02  0.47644325737E+02  0.95458273306E+03  0.95613636182E+03  0.10000000000E+01 0.  0.
         -4    1    1    2    0  502  0.29077159172E+02 -0.43690713002E+00  0.29236137892E+02  0.41255747868E+02  0.12700000000E+01 0.  1.
<mgrwt>
<rscale>  1 0.12833811E+03</rscale>
<asrwt>0</asrwt>
<pdfrwt beam="2">  1       21 0.14724590E-02 0.12833811E+03</pdfrwt>
<pdfrwt beam="1">  1       -4 0.18329922E+00 0.12833811E+03</pdfrwt>
<totfact> 0.15288120E+04</totfact>
</mgrwt>
</event>
<event>
 6    4  0.3189516E-003  0.1269161E+03  0.7818608E-02  0.1232105E+00
          4   -1    0    0  502    0 -0.00000000000E+00  0.00000000000E+00  0.50216628884E+01  0.51797681574E+01  0.12700000000E+01 0. -1.
         21   -1    0    0  501  502  0.00000000000E+00 -0.00000000000E+00 -0.12763934886E+04  0.12763934886E+04  0.00000000000E+00 0. -1.
         25    2    1    2    0    0 -0.21249972235E+02 -0.56017304856E+01 -0.12045801824E+04  0.12112477477E+04  0.12499899935E+03 0.  0.
    9000005    1    3    3    0    0  0.31936975406E+02 -0.47563755262E+02 -0.65640587359E+03  0.65890208081E+03  0.10000000000E+01 0.  0.
    9000005    1    3    3    0    0 -0.53186947640E+02  0.41962024776E+02 -0.54817430878E+03  0.55234566688E+03  0.10000000000E+01 0.  0.
          4    1    1    2  501    0  0.21249972235E+02  0.56017304856E+01 -0.66791643360E+02  0.70325509079E+02  0.12700000000E+01 0.  1.
<mgrwt>
<rscale>  1 0.12691608E+03</rscale>
<asrwt>0</asrwt>
<pdfrwt beam="2">  1       21 0.19636834E+00 0.12691608E+03</pdfrwt>
<pdfrwt beam="1">  1        4 0.78477362E-03 0.12691608E+03</pdfrwt>
<totfact> 0.24991614E+04</totfact>
</mgrwt>
</event>
<event>
 6    4  0.3189516E-003  0.1303321E+03  0.7818608E-02  0.1226964E+00
         -4   -1    0    0    0  501 -0.00000000000E+00  0.00000000000E+00  0.23392981929E+03  0.23393326667E+03  0.12700000000E+01 0. -1.
         21   -1    0    0  501  502  0.00000000000E+00 -0.00000000000E+00 -0.49956325641E+02  0.49956325641E+02  0.00000000000E+00 0. -1.
         25    2    1    2    0    0 -0.11072187410E+02  0.35232150020E+02  0.20383266304E+03  0.24193846314E+03  0.12499027040E+03 0.  0.
    9000005    1    3    3    0    0  0.14391643517E+02 -0.40580216325E+02  0.11290430866E+03  0.12083979590E+03  0.10000000000E+01 0.  0.
    9000005    1    3    3    0    0 -0.25463830927E+02  0.75812366345E+02  0.90928354385E+02  0.12109866724E+03  0.10000000000E+01 0.  0.
         -4    1    1    2    0  502  0.11072187410E+02 -0.35232150020E+02 -0.19859169394E+02  0.41951129163E+02  0.12700000000E+01 0.  1.
<mgrwt>
<rscale>  1 0.13033214E+03</rscale>
<asrwt>0</asrwt>
<pdfrwt beam="2">  1       21 0.76855887E-02 0.13033214E+03</pdfrwt>
<pdfrwt beam="1">  1       -4 0.35990709E-01 0.13033214E+03</pdfrwt>
<totfact> 0.38831446E+04</totfact>
</mgrwt>
</event>
<event>
 6    4  0.3189516E-003  0.1287242E+03  0.7818608E-02  0.1229361E+00
          4   -1    0    0  502    0 -0.00000000000E+00  0.00000000000E+00  0.35112089661E+02  0.35135050027E+02  0.12700000000E+01 0. -1.
         21   -1    0    0  501  502  0.00000000000E+00 -0.00000000000E+00 -0.46383305915E+03  0.46383305915E+03  0.00000000000E+00 0.  1.
         25    2    1    2    0    0  0.30426791265E+02 -0.46481260393E+01 -0.85872651281E+02  0.15473856817E+03  0.12499006976E+03 0.  0.
    9000005    1    3    3    0    0 -0.37178594865E+02  0.13234714932E+02  0.53002350600E+01  0.39830868522E+02  0.10000000000E+01 0.  0.
    9000005    1    3    3    0    0  0.67605386131E+02 -0.17882840971E+02 -0.91172886341E+02  0.11490769965E+03  0.10000000000E+01 0.  0.
          4    1    1    2  501    0 -0.30426791265E+02  0.46481260393E+01 -0.34284831820E+03  0.34422954100E+03  0.12700000000E+01 0.  1.
<mgrwt>
<rscale>  1 0.12872417E+03</rscale>
<asrwt>0</asrwt>
<pdfrwt beam="2">  1       21 0.71358925E-01 0.12872417E+03</pdfrwt>
<pdfrwt beam="1">  1        4 0.54037605E-02 0.12872417E+03</pdfrwt>
<totfact> 0.15326078E+04</totfact>
</mgrwt>
</event>
<event>
 6    4  0.3189516E-003  0.1266633E+03  0.7818608E-02  0.1232492E+00
         -4   -1    0    0    0  501 -0.00000000000E+00  0.00000000000E+00  0.17536371648E+03  0.17536831514E+03  0.12700000000E+01 0.  1.
         21   -1    0    0  501  502  0.00000000000E+00 -0.00000000000E+00 -0.49629185460E+03  0.49629185460E+03  0.00000000000E+00 0. -1.
         25    2    1    2    0    0 -0.94106928555E+01 -0.18154784225E+02  0.15224380128E+03  0.19804486756E+03  0.12500174882E+03 0.  0.
    9000005    1    3    3    0    0  0.47039536043E+02 -0.18074037311E+01  0.12438569933E+03  0.13299919871E+03  0.10000000000E+01 0.  0.
    9000005    1    3    3    0    0 -0.56450228899E+02 -0.16347380494E+02  0.27858101948E+02  0.65045668848E+02  0.10000000000E+01 0.  0.
         -4    1    1    2    0  502  0.94106928555E+01  0.18154784225E+02 -0.47317193940E+03  0.47361530219E+03  0.12700000000E+01 0. -1.
<mgrwt>
<rscale>  1 0.12666331E+03</rscale>
<asrwt>0</asrwt>
<pdfrwt beam="2">  1       21 0.76352593E-01 0.12666331E+03</pdfrwt>
<pdfrwt beam="1">  1       -4 0.26979512E-01 0.12666331E+03</pdfrwt>
<totfact> 0.83241014E+02</totfact>
</mgrwt>
</event>
<event>
 6    4  0.3189516E-003  0.1371808E+03  0.7818608E-02  0.1217174E+00
         21   -1    0    0  501  502  0.00000000000E+00  0.00000000000E+00  0.10056642411E+04  0.10056642411E+04  0.00000000000E+00 0.  1.
          4   -1    0    0  502    0 -0.00000000000E+00 -0.00000000000E+00 -0.13483856698E+02  0.13543533196E+02  0.12700000000E+01 0. -1.
         25    2    1    2    0    0  0.35746446674E+02 -0.43757085624E+02  0.37252522112E+03  0.39698062503E+03  0.12500434109E+03 0.  0.
    9000005    1    3    3    0    0  0.73023120886E+01  0.36647839404E+02  0.21132635285E+03  0.21460711848E+03  0.10000000000E+01 0.  0.
    9000005    1    3    3    0    0  0.28444134585E+02 -0.80404925028E+02  0.16119886827E+03  0.18237350655E+03  0.10000000000E+01 0.  0.
          4    1    1    2  501    0 -0.35746446674E+02  0.43757085624E+02  0.61965516327E+03  0.62222714925E+03  0.12700000000E+01 0.  1.
<mgrwt>
<rscale>  1 0.13718082E+03</rscale>
<asrwt>0</asrwt>
<pdfrwt beam="1">  1       21 0.15471752E+00 0.13718082E+03</pdfrwt>
<pdfrwt beam="2">  1        4 0.20790925E-02 0.13718082E+03</pdfrwt>
<totfact> 0.10992745E+04</totfact>
</mgrwt>
</event>
<event>
 6    4  0.3189516E-003  0.1489604E+03  0.7818608E-02  0.1201756E+00
         21   -1    0    0  501  502  0.00000000000E+00  0.00000000000E+00  0.40877405324E+03  0.40877405324E+03  0.00000000000E+00 0.  1.
         -4   -1    0    0    0  501 -0.00000000000E+00 -0.00000000000E+00 -0.52804739292E+02  0.52820009387E+02  0.12700000000E+01 0.  1.
         25    2    1    2    0    0 -0.14416901553E+02 -0.79728011569E+02  0.70414227432E+02  0.16476461123E+03  0.12499924324E+03 0.  0.
    9000005    1    3    3    0    0 -0.54297437766E+02  0.28257373013E+01  0.10918523805E+02  0.55465400939E+02  0.10000000000E+01 0.  0.
    9000005    1    3    3    0    0  0.39880536213E+02 -0.82553748870E+02  0.59495703627E+02  0.10929921030E+03  0.10000000000E+01 0.  0.
         -4    1    1    2    0  502  0.14416901553E+02  0.79728011569E+02  0.28555508652E+03  0.29682945140E+03  0.12700000000E+01 0. -1.
<mgrwt>
<rscale>  1 0.14896044E+03</rscale>
<asrwt>0</asrwt>
<pdfrwt beam="1">  1       21 0.62888314E-01 0.14896044E+03</pdfrwt>
<pdfrwt beam="2">  1       -4 0.81251327E-02 0.14896044E+03</pdfrwt>
<totfact> 0.10449475E+04</totfact>
</mgrwt>
</event>
<event>
 6    4  0.3189516E-003  0.1362647E+03  0.7818608E-02  0.1218445E+00
          4   -1    0    0  502    0 -0.00000000000E+00  0.00000000000E+00  0.41779940194E+03  0.41780133217E+03  0.12700000000E+01 0. -1.
         21   -1    0    0  501  502  0.00000000000E+00 -0.00000000000E+00 -0.26121144770E+02  0.26121144770E+02  0.00000000000E+00 0.  1.
         25    2    1    2    0    0  0.30622302770E+02 -0.44699005770E+02  0.34988331698E+03  0.37548157930E+03  0.12502941395E+03 0.  0.
    9000005    1    3    3    0    0  0.56392881753E+02 -0.48453895858E+02  0.10196651193E+03  0.12619867944E+03  0.10000000000E+01 0.  0.
    9000005    1    3    3    0    0 -0.25770578983E+02  0.37548900872E+01  0.24791680505E+03  0.24928289986E+03  0.10000000000E+01 0.  0.
          4    1    1    2  501    0 -0.30622302770E+02  0.44699005770E+02  0.41794940192E+02  0.68440897638E+02  0.12700000000E+01 0.  1.
<mgrwt>
<rscale>  1 0.13626475E+03</rscale>
<asrwt>0</asrwt>
<pdfrwt beam="2">  1       21 0.40186380E-02 0.13626475E+03</pdfrwt>
<pdfrwt beam="1">  1        4 0.64279350E-01 0.13626475E+03</pdfrwt>
<totfact> 0.36085881E+04</totfact>
</mgrwt>
</event>
<event>
 6    4  0.3189516E-003  0.1286751E+03  0.7818608E-02  0.1229435E+00
         21   -1    0    0  501  502  0.00000000000E+00  0.00000000000E+00  0.47628689996E+03  0.47628689996E+03  0.00000000000E+00 0. -1.
         -4   -1    0    0    0  501 -0.00000000000E+00 -0.00000000000E+00 -0.13344326133E+02  0.13404623827E+02  0.12700000000E+01 0. -1.
         25    2    1    2    0    0  0.30544163011E+02 -0.90717084567E-01  0.38678874876E+03  0.40763074085E+03  0.12499732236E+03 0.  0.
    9000005    1    3    3    0    0  0.14074635490E+02 -0.26976928488E+02  0.37119532716E+03  0.37244170140E+03  0.10000000000E+01 0.  0.
    9000005    1    3    3    0    0  0.16469527521E+02  0.26886211404E+02  0.15593421597E+02  0.35189039451E+02  0.10000000000E+01 0.  0.
         -4    1    1    2    0  502 -0.30544163011E+02  0.90717084567E-01  0.76153825069E+02  0.82060782937E+02  0.12700000000E+01 0.  1.
<mgrwt>
<rscale>  1 0.12867511E+03</rscale>
<asrwt>0</asrwt>
<pdfrwt beam="1">  1       21 0.73274895E-01 0.12867511E+03</pdfrwt>
<pdfrwt beam="2">  1       -4 0.20577421E-02 0.12867511E+03</pdfrwt>
<totfact> 0.66085946E+04</totfact>
</mgrwt>
</event>
<event>
 6    4  0.3189516E-003  0.1279927E+03  0.7818608E-02  0.1230465E+00
          4   -1    0    0  502    0 -0.00000000000E+00  0.00000000000E+00  0.62200150092E+01  0.63483451950E+01  0.12700000000E+01 0.  1.
         21   -1    0    0  501  502  0.00000000000E+00 -0.00000000000E+00 -0.97820234018E+03  0.97820234018E+03  0.00000000000E+00 0.  1.
         25    2    1    2    0    0 -0.25262033223E+02 -0.10887195494E+02 -0.74651478301E+03  0.75740771978E+03  0.12500172555E+03 0.  0.
    9000005    1    3    3    0    0  0.35119045802E+02 -0.43681181406E+02 -0.42121212954E+03  0.42492593597E+03  0.10000000000E+01 0.  0.
    9000005    1    3    3    0    0 -0.60381079024E+02  0.32793985913E+02 -0.32530265346E+03  0.33248178381E+03  0.10000000000E+01 0.  0.
          4    1    1    2  501    0  0.25262033223E+02  0.10887195494E+02 -0.22546754216E+03  0.22714296559E+03  0.12700000000E+01 0. -1.
<mgrwt>
<rscale>  1 0.12799271E+03</rscale>
<asrwt>0</asrwt>
<pdfrwt beam="2">  1       21 0.15049260E+00 0.12799271E+03</pdfrwt>
<pdfrwt beam="1">  1        4 0.96686082E-03 0.12799271E+03</pdfrwt>
<totfact> 0.37723430E+04</totfact>
</mgrwt>
</event>
<event>
 6    4  0.3189516E-003  0.1274042E+03  0.7818608E-02  0.1231359E+00
         -4   -1    0    0    0  501 -0.00000000000E+00  0.00000000000E+00  0.56102205207E+02  0.56116578023E+02  0.12700000000E+01 0.  1.
         21   -1    0    0  501  502  0.00000000000E+00 -0.00000000000E+00 -0.10381907594E+03  0.10381907594E+03  0.00000000000E+00 0.  1.
         25    2    1    2    0    0 -0.24574365553E+02 -0.22568284117E+01 -0.34894103673E+02  0.13209631180E+03  0.12499137732E+03 0.  0.
    9000005    1    3    3    0    0 -0.64410441074E+02 -0.24670164575E+02  0.79527668163E+01  0.69437514642E+02  0.10000000000E+01 0.  0.
    9000005    1    3    3    0    0  0.39836075521E+02  0.22413336164E+02 -0.42846870489E+02  0.62658797161E+02  0.10000000000E+01 0.  0.
         -4    1    1    2    0  502  0.24574365553E+02  0.22568284117E+01 -0.12822767058E+02  0.27839342159E+02  0.12700000000E+01 0. -1.
<mgrwt>
<rscale>  1 0.12740423E+03</rscale>
<asrwt>0</asrwt>
<pdfrwt beam="2">  1       21 0.15972166E-01 0.12740423E+03</pdfrwt>
<pdfrwt beam="1">  1       -4 0.86328116E-02 0.12740423E+03</pdfrwt>
<totfact> 0.13566322E+05</totfact>
</mgrwt>
</event>
<event>
 6    4  0.3189516E-003  0.1305723E+03  0.7818608E-02  0.1226609E+00
         21   -1    0    0  501  502  0.00000000000E+00  0.00000000000E+00  0.61954440443E+01  0.61954440443E+01  0.00000000000E+00 0.  1.
          4   -1    0    0  502    0 -0.00000000000E+00 -0.00000000000E+00 -0.12823225964E+04  0.12823232253E+04  0.12700000000E+01 0.  1.
         25    2    1    2    0    0 -0.27979515075E+02 -0.25329392519E+02 -0.11327926559E+04  0.11402930907E+04  0.12499880018E+03 0.  0.
    9000005    1    3    3    0    0 -0.34483820458E+01  0.38885388810E+02 -0.77332955681E+03  0.77431490250E+03  0.10000000000E+01 0.  0.
    9000005    1    3    3    0    0 -0.24531133029E+02 -0.64214781329E+02 -0.35946309911E+03  0.36597818822E+03  0.10000000000E+01 0.  0.
          4    1    1    2  501    0  0.27979515075E+02  0.25329392519E+02 -0.14333449640E+03  0.14822557859E+03  0.12700000000E+01 0. -1.
<mgrwt>
<rscale>  1 0.13057232E+03</rscale>
<asrwt>0</asrwt>
<pdfrwt beam="1">  1       21 0.95314451E-03 0.13057232E+03</pdfrwt>
<pdfrwt beam="2">  1        4 0.19729061E+00 0.13057232E+03</pdfrwt>
<totfact> 0.24856347E+04</totfact>
</mgrwt>
</event>
<event>
 6    4  0.3189516E-003  0.1267309E+03  0.7818608E-02  0.1232389E+00
          4   -1    0    0  502    0 -0.00000000000E+00  0.00000000000E+00  0.52707592927E+02  0.52722891159E+02  0.12700000000E+01 0. -1.
         21   -1    0    0  501  502  0.00000000000E+00 -0.00000000000E+00 -0.18622873448E+03  0.18622873448E+03  0.00000000000E+00 0.  1.
         25    2    1    2    0    0  0.13088833647E+02  0.16238069682E+02 -0.25937846526E+02  0.12935796368E+03  0.12500287361E+03 0.  0.
    9000005    1    3    3    0    0  0.82328868852E+01 -0.53413034264E+02 -0.24925689174E+02  0.59523294907E+02  0.10000000000E+01 0.  0.
    9000005    1    3    3    0    0  0.48559467620E+01  0.69651103946E+02 -0.10121573528E+01  0.69834668771E+02  0.10000000000E+01 0.  0.
          4    1    1    2  501    0 -0.13088833647E+02 -0.16238069682E+02 -0.10758329502E+03  0.10959366196E+03  0.12700000000E+01 0.  1.
<mgrwt>
<rscale>  1 0.12673086E+03</rscale>
<asrwt>0</asrwt>
<pdfrwt beam="2">  1       21 0.28650574E-01 0.12673086E+03</pdfrwt>
<pdfrwt beam="1">  1        4 0.81103704E-02 0.12673086E+03</pdfrwt>
<totfact> 0.50677705E+04</totfact>
</mgrwt>
</event>
<event>
 6    4  0.3189516E-003  0.1281986E+03  0.7818608E-02  0.1230153E+00
         21   -1    0    0  501  502  0.00000000000E+00  0.00000000000E+00  0.10548189436E+03  0.10548189436E+03  0.00000000000E+00 0. -1.
          4   -1    0    0  502    0 -0.00000000000E+00 -0.00000000000E+00 -0.59662337673E+02  0.59675853045E+02  0.12700000000E+01 0. -1.
         25    2    1    2    0    0 -0.27981359645E+02  0.52348433335E+01  0.27006189813E+02  0.13101223898E+03  0.12499804960E+03 0.  0.
    9000005    1    3    3    0    0 -0.29757738200E+01 -0.34613999119E+02  0.62877025891E+02  0.71843611754E+02  0.10000000000E+01 0.  0.
    9000005    1    3    3    0    0 -0.25005585825E+02  0.39848842453E+02 -0.35870836079E+02  0.59168627230E+02  0.10000000000E+01 0.  0.
          4    1    1    2  501    0  0.27981359645E+02 -0.52348433335E+01  0.18813366879E+02  0.34145508426E+02  0.12700000000E+01 0.  1.
<mgrwt>
<rscale>  1 0.12819857E+03</rscale>
<asrwt>0</asrwt>
<pdfrwt beam="1">  1       21 0.16227984E-01 0.12819857E+03</pdfrwt>
<pdfrwt beam="2">  1        4 0.91804490E-02 0.12819857E+03</pdfrwt>
<totfact> 0.11906877E+05</totfact>
</mgrwt>
</event>
<event>
 6    4  0.3189516E-003  0.1268299E+03  0.7818608E-02  0.1232237E+00
         -4   -1    0    0    0  501 -0.00000000000E+00  0.00000000000E+00  0.40423140005E+03  0.40423339506E+03  0.12700000000E+01 0. -1.
         21   -1    0    0  501  502  0.00000000000E+00 -0.00000000000E+00 -0.79050810032E+02  0.79050810032E+02  0.00000000000E+00 0.  1.
         25    2    1    2    0    0 -0.28714276155E+01 -0.21305602149E+02  0.39256364643E+03  0.41254338964E+03  0.12499463210E+03 0.  0.
    9000005    1    3    3    0    0 -0.14369831324E+02  0.20693743318E+02  0.93949595327E+01  0.26907031226E+02  0.10000000000E+01 0.  0.
    9000005    1    3    3    0    0  0.11498403709E+02 -0.41999345467E+02  0.38316868690E+03  0.38563635841E+03  0.10000000000E+01 0.  0.
         -4    1    1    2    0  502  0.28714276155E+01  0.21305602149E+02 -0.67383056417E+02  0.70740815458E+02  0.12700000000E+01 0.  1.
<mgrwt>
<rscale>  1 0.12682993E+03</rscale>
<asrwt>0</asrwt>
<pdfrwt beam="2">  1       21 0.12161663E-01 0.12682993E+03</pdfrwt>
<pdfrwt beam="1">  1       -4 0.62190383E-01 0.12682993E+03</pdfrwt>
<totfact> 0.57611907E+03</totfact>
</mgrwt>
</event>
<event>
 6    4  0.3189516E-003  0.1306257E+03  0.7818608E-02  0.1226530E+00
         -4   -1    0    0    0  501 -0.00000000000E+00  0.00000000000E+00  0.31228176696E+02  0.31253990462E+02  0.12700000000E+01 0.  1.
         21   -1    0    0  501  502  0.00000000000E+00 -0.00000000000E+00 -0.24309324138E+03  0.24309324138E+03  0.00000000000E+00 0.  1.
         25    2    1    2    0    0  0.35758812225E+02 -0.12599311218E+02 -0.18997236820E+03  0.23054839220E+03  0.12500250066E+03 0.  0.
    9000005    1    3    3    0    0  0.18384057231E+02  0.45180618220E+02 -0.15106712265E+03  0.15874992085E+03  0.10000000000E+01 0.  0.
    9000005    1    3    3    0    0  0.17374754994E+02 -0.57779929438E+02 -0.38905245551E+02  0.71798471351E+02  0.10000000000E+01 0.  0.
         -4    1    1    2    0  502 -0.35758812225E+02  0.12599311218E+02 -0.21892696482E+02  0.43798839644E+02  0.12700000000E+01 0. -1.
<mgrwt>
<rscale>  1 0.13062565E+03</rscale>
<asrwt>0</asrwt>
<pdfrwt beam="2">  1       21 0.37398961E-01 0.13062565E+03</pdfrwt>
<pdfrwt beam="1">  1       -4 0.48065756E-02 0.13062565E+03</pdfrwt>
<totfact> 0.70922140E+04</totfact>
</mgrwt>
</event>
<event>
 6    4  0.3189516E-003  0.1378954E+03  0.7818608E-02  0.1216189E+00
         21   -1    0    0  501  502  0.00000000000E+00  0.00000000000E+00  0.70715880137E+03  0.70715880137E+03  0.00000000000E+00 0.  1.
         -4   -1    0    0    0  501 -0.00000000000E+00 -0.00000000000E+00 -0.13835055052E+02  0.13893223107E+02  0.12700000000E+01 0.  1.
         25    2    1    2    0    0  0.19964921549E+02 -0.54700489387E+02  0.43918443049E+03  0.46032391633E+03  0.12499760927E+03 0.  0.
    9000005    1    3    3    0    0 -0.44916127243E+02 -0.50712975299E+02  0.16159455559E+03  0.17522290017E+03  0.10000000000E+01 0.  0.
    9000005    1    3    3    0    0  0.64881048792E+02 -0.39875140884E+01  0.27758987491E+03  0.28510101615E+03  0.10000000000E+01 0.  0.
         -4    1    1    2    0  502 -0.19964921549E+02  0.54700489387E+02  0.25413931583E+03  0.26072810815E+03  0.12700000000E+01 0. -1.
<mgrwt>
<rscale>  1 0.13789541E+03</rscale>
<asrwt>0</asrwt>
<pdfrwt beam="1">  1       21 0.10879363E+00 0.13789541E+03</pdfrwt>
<pdfrwt beam="2">  1       -4 0.21330327E-02 0.13789541E+03</pdfrwt>
<totfact> 0.25462361E+04</totfact>
</mgrwt>
</event>
<event>
 6    4  0.3189516E-003  0.1324839E+03  0.7818608E-02  0.1223816E+00
          4   -1    0    0  502    0 -0.00000000000E+00  0.00000000000E+00  0.54688079317E+03  0.54688226781E+03  0.12700000000E+01 0.  1.
         21   -1    0    0  501  502  0.00000000000E+00 -0.00000000000E+00 -0.27497826861E+02  0.27497826861E+02  0.00000000000E+00 0. -1.
         25    2    1    2    0    0 -0.16145064562E+02  0.40816624195E+02  0.51321216923E+03  0.53003653192E+03  0.12500133842E+03 0.  0.
    9000005    1    3    3    0    0 -0.52284031863E+02  0.68800182978E+02  0.35350388077E+03  0.36391355963E+03  0.10000000000E+01 0.  0.
    9000005    1    3    3    0    0  0.36138967301E+02 -0.27983558783E+02  0.15970828846E+03  0.16612297229E+03  0.10000000000E+01 0.  0.
          4    1    1    2  501    0  0.16145064562E+02 -0.40816624195E+02  0.61707970852E+01  0.44343562746E+02  0.12700000000E+01 0. -1.
<mgrwt>
<rscale>  1 0.13248394E+03</rscale>
<asrwt>0</asrwt>
<pdfrwt beam="2">  1       21 0.42304353E-02 0.13248394E+03</pdfrwt>
<pdfrwt beam="1">  1        4 0.84137868E-01 0.13248394E+03</pdfrwt>
<totfact> 0.18379232E+04</totfact>
</mgrwt>
</event>
<event>
 6    4  0.3189516E-003  0.1266978E+03  0.7818608E-02  0.1232440E+00
         21   -1    0    0  501  502  0.00000000000E+00  0.00000000000E+00  0.16061313847E+03  0.16061313847E+03  0.00000000000E+00 0. -1.
         -4   -1    0    0    0  501 -0.00000000000E+00 -0.00000000000E+00 -0.34600339494E+02  0.34623639224E+02  0.12700000000E+01 0. -1.
         25    2    1    2    0    0 -0.17405641500E+02  0.11165753861E+02  0.11763719696E+03  0.17288965205E+03  0.12499876504E+03 0.  0.
    9000005    1    3    3    0    0 -0.10456647575E+02  0.38386615946E+02  0.13439389715E+03  0.14016273882E+03  0.10000000000E+01 0.  0.
    9000005    1    3    3    0    0 -0.69489939251E+01 -0.27220862085E+02 -0.16756700181E+02  0.32726913239E+02  0.10000000000E+01 0.  0.
         -4    1    1    2    0  502  0.17405641500E+02 -0.11165753861E+02  0.83756020113E+01  0.22347125640E+02  0.12700000000E+01 0.  1.
<mgrwt>
<rscale>  1 0.12669776E+03</rscale>
<asrwt>0</asrwt>
<pdfrwt beam="1">  1       21 0.24709713E-01 0.12669776E+03</pdfrwt>
<pdfrwt beam="2">  1       -4 0.53253078E-02 0.12669776E+03</pdfrwt>
<totfact> 0.13344828E+05</totfact>
</mgrwt>
</event>
<event>
 6    4  0.3189516E-003  0.1286247E+03  0.7818608E-02  0.1229511E+00
         -4   -1    0    0    0  501 -0.00000000000E+00  0.00000000000E+00  0.33199173235E+03  0.33199416147E+03  0.12700000000E+01 0.  1.
         21   -1    0    0  501  502  0.00000000000E+00 -0.00000000000E+00 -0.20085281016E+02  0.20085281016E+02  0.00000000000E+00 0.  1.
         25    2    1    2    0    0  0.15346147164E+02 -0.26158248455E+02  0.27950688583E+03  0.30768233740E+03  0.12499825329E+03 0.  0.
    9000005    1    3    3    0    0  0.49163750634E+01  0.40457064522E+02  0.34005213840E+02  0.53087657528E+02  0.10000000000E+01 0.  0.
    9000005    1    3    3    0    0  0.10429772101E+02 -0.66615312976E+02  0.24550167199E+03  0.25459467987E+03  0.10000000000E+01 0.  0.
         -4    1    1    2    0  502 -0.15346147164E+02  0.26158248455E+02  0.32399565505E+02  0.44397105085E+02  0.12700000000E+01 0. -1.
<mgrwt>
<rscale>  1 0.12862473E+03</rscale>
<asrwt>0</asrwt>
<pdfrwt beam="2">  1       21 0.30900435E-02 0.12862473E+03</pdfrwt>
<pdfrwt beam="1">  1       -4 0.51078923E-01 0.12862473E+03</pdfrwt>
<totfact> 0.89233466E+04</totfact>
</mgrwt>
</event>
<event>
 6    4  0.3189516E-003  0.1283087E+03  0.7818608E-02  0.1229987E+00
         21   -1    0    0  501  502  0.00000000000E+00  0.00000000000E+00  0.19458669469E+03  0.19458669469E+03  0.00000000000E+00 0.  1.
         -4   -1    0    0    0  501 -0.00000000000E+00 -0.00000000000E+00 -0.12957126033E+03  0.12957748417E+03  0.12700000000E+01 0. -1.
         25    2    1    2    0    0  0.17272783996E+02  0.23242448639E+02 -0.96197963691E+02  0.16036572619E+03  0.12499822972E+03 0.  0.
    9000005    1    3    3    0    0  0.68998590320E+01  0.56202182916E+02  0.15821924081E+01  0.56655068193E+02  0.10000000000E+01 0.  0.
    9000005    1    3    3    0    0  0.10372924964E+02 -0.32959734277E+02 -0.97780156099E+02  0.10371065800E+03  0.10000000000E+01 0.  0.
         -4    1    1    2    0  502 -0.17272783996E+02 -0.23242448639E+02  0.16121339805E+03  0.16379845267E+03  0.12700000000E+01 0.  1.
<mgrwt>
<rscale>  1 0.12830868E+03</rscale>
<asrwt>0</asrwt>
<pdfrwt beam="1">  1       21 0.29936414E-01 0.12830868E+03</pdfrwt>
<pdfrwt beam="2">  1       -4 0.19934838E-01 0.12830868E+03</pdfrwt>
<totfact> 0.99289344E+03</totfact>
</mgrwt>
</event>
<event>
 6    4  0.3189516E-003  0.1289465E+03  0.7818608E-02  0.1229027E+00
         21   -1    0    0  501  502  0.00000000000E+00  0.00000000000E+00  0.11837272915E+03  0.11837272915E+03  0.00000000000E+00 0. -1.
         -4   -1    0    0    0  501 -0.00000000000E+00 -0.00000000000E+00 -0.14570581645E+03  0.14571135113E+03  0.12700000000E+01 0.  1.
         25    2    1    2    0    0  0.28274963138E+02 -0.14210943684E+02 -0.11381123814E+03  0.17198897762E+03  0.12500314410E+03 0.  0.
    9000005    1    3    3    0    0 -0.29872511635E+01 -0.57470755433E+02 -0.14682624596E+02  0.59400259802E+02  0.10000000000E+01 0.  0.
    9000005    1    3    3    0    0  0.31262214302E+02  0.43259811749E+02 -0.99128613549E+02  0.11258871782E+03  0.10000000000E+01 0.  0.
         -4    1    1    2    0  502 -0.28274963138E+02  0.14210943684E+02  0.86478150843E+02  0.92095102661E+02  0.12700000000E+01 0. -1.
<mgrwt>
<rscale>  1 0.12894654E+03</rscale>
<asrwt>0</asrwt>
<pdfrwt beam="1">  1       21 0.18211189E-01 0.12894654E+03</pdfrwt>
<pdfrwt beam="2">  1       -4 0.22417229E-01 0.12894654E+03</pdfrwt>
<totfact> 0.20431930E+04</totfact>
</mgrwt>
</event>
<event>
 6    4  0.3189516E-003  0.1300084E+03  0.7818608E-02  0.1227443E+00
         -4   -1    0    0    0  501 -0.00000000000E+00  0.00000000000E+00  0.20113716010E+01  0.23787634850E+01  0.12700000000E+01 0.  1.
         21   -1    0    0  501  502  0.00000000000E+00 -0.00000000000E+00 -0.31475589279E+04  0.31475589279E+04  0.00000000000E+00 0.  1.
         25    2    1    2    0    0 -0.10354226480E+02  0.34204997326E+02 -0.25601657651E+04  0.25634646347E+04  0.12499998691E+03 0.  0.
    9000005    1    3    3    0    0 -0.29511696032E+02  0.77274309098E+02 -0.15736253738E+04  0.15757982346E+04  0.10000000000E+01 0.  0.
    9000005    1    3    3    0    0  0.19157469553E+02 -0.43069311771E+02 -0.98654039131E+03  0.98766640013E+03  0.10000000000E+01 0.  0.
         -4    1    1    2    0  502  0.10354226480E+02 -0.34204997326E+02 -0.58538179119E+03  0.58647305667E+03  0.12700000000E+01 0. -1.
<mgrwt>
<rscale>  1 0.13000842E+03</rscale>
<asrwt>0</asrwt>
<pdfrwt beam="2">  1       21 0.48424077E+00 0.13000842E+03</pdfrwt>
<pdfrwt beam="1">  1       -4 0.33772176E-03 0.13000842E+03</pdfrwt>
<totfact> 0.16199846E+03</totfact>
</mgrwt>
</event>
<event>
 6    4  0.3189516E-003  0.1284490E+03  0.7818608E-02  0.1229775E+00
         21   -1    0    0  501  502  0.00000000000E+00  0.00000000000E+00  0.31820899818E+03  0.31820899818E+03  0.00000000000E+00 0. -1.
         -4   -1    0    0    0  501 -0.00000000000E+00 -0.00000000000E+00 -0.21238573074E+02  0.21276510198E+02  0.12700000000E+01 0. -1.
         25    2    1    2    0    0  0.16825610104E+02 -0.24314486030E+02  0.19659372951E+03  0.23483662255E+03  0.12499939769E+03 0.  0.
    9000005    1    3    3    0    0  0.51802177270E+02 -0.50020174751E+02  0.16817107190E+03  0.18294259448E+03  0.10000000000E+01 0.  0.
    9000005    1    3    3    0    0 -0.34976567166E+02  0.25705688721E+02  0.28422657607E+02  0.51894028065E+02  0.10000000000E+01 0.  0.
         -4    1    1    2    0  502 -0.16825610104E+02  0.24314486030E+02  0.10037669560E+03  0.10464888583E+03  0.12700000000E+01 0.  1.
<mgrwt>
<rscale>  1 0.12844900E+03</rscale>
<asrwt>0</asrwt>
<pdfrwt beam="1">  1       21 0.48955227E-01 0.12844900E+03</pdfrwt>
<pdfrwt beam="2">  1       -4 0.32705862E-02 0.12844900E+03</pdfrwt>
<totfact> 0.75706297E+04</totfact>
</mgrwt>
</event>
<event>
 6    4  0.3189516E-003  0.1307653E+03  0.7818608E-02  0.1226324E+00
          4   -1    0    0  502    0 -0.00000000000E+00  0.00000000000E+00  0.10491291387E+03  0.10492060044E+03  0.12700000000E+01 0. -1.
         21   -1    0    0  501  502  0.00000000000E+00 -0.00000000000E+00 -0.97881847512E+02  0.97881847512E+02  0.00000000000E+00 0.  1.
         25    2    1    2    0    0  0.34706999030E+02 -0.16417988644E+02  0.54558997883E+02  0.14169071987E+03  0.12500179885E+03 0.  0.
    9000005    1    3    3    0    0  0.11600133347E+02 -0.11478995131E+02 -0.40530597680E+02  0.43704230587E+02  0.10000000000E+01 0.  0.
    9000005    1    3    3    0    0  0.23106865683E+02 -0.49389935124E+01  0.95089595563E+02  0.97986489288E+02  0.10000000000E+01 0.  0.
          4    1    1    2  501    0 -0.34706999030E+02  0.16417988644E+02 -0.47527931529E+02  0.61111728074E+02  0.12700000000E+01 0.  1.
<mgrwt>
<rscale>  1 0.13076535E+03</rscale>
<asrwt>0</asrwt>
<pdfrwt beam="2">  1       21 0.15058746E-01 0.13076535E+03</pdfrwt>
<pdfrwt beam="1">  1        4 0.16141673E-01 0.13076535E+03</pdfrwt>
<totfact> 0.52008065E+04</totfact>
</mgrwt>
</event>
<event>
 6    4  0.3189516E-003  0.1279402E+03  0.7818608E-02  0.1230545E+00
         21   -1    0    0  501  502  0.00000000000E+00  0.00000000000E+00  0.34906526027E+02  0.34906526027E+02  0.00000000000E+00 0.  1.
         -4   -1    0    0    0  501 -0.00000000000E+00 -0.00000000000E+00 -0.17361356854E+03  0.17361821356E+03  0.12700000000E+01 0.  1.
         25    2    1    2    0    0  0.11256828780E+02  0.24824454354E+02 -0.12025412871E+03  0.17558399497E+03  0.12500285633E+03 0.  0.
    9000005    1    3    3    0    0 -0.14132467039E+02 -0.33025825521E+02  0.40290864734E+01  0.36161655297E+02  0.10000000000E+01 0.  0.
    9000005    1    3    3    0    0  0.25389295819E+02  0.57850279876E+02 -0.12428321518E+03  0.13942233968E+03  0.10000000000E+01 0.  0.
         -4    1    1    2    0  502 -0.11256828780E+02 -0.24824454354E+02 -0.18452913798E+02  0.32940744615E+02  0.12700000000E+01 0. -1.
<mgrwt>
<rscale>  1 0.12794016E+03</rscale>
<asrwt>0</asrwt>
<pdfrwt beam="1">  1       21 0.53702348E-02 0.12794016E+03</pdfrwt>
<pdfrwt beam="2">  1       -4 0.26711914E-01 0.12794016E+03</pdfrwt>
<totfact> 0.12551852E+05</totfact>
</mgrwt>
</event>
<event>
 6    4  0.3189516E-003  0.1266443E+03  0.7818608E-02  0.1232522E+00
         21   -1    0    0  501  502  0.00000000000E+00  0.00000000000E+00  0.19679430502E+03  0.19679430502E+03  0.00000000000E+00 0. -1.
         -4   -1    0    0    0  501 -0.00000000000E+00 -0.00000000000E+00 -0.39683917504E+02  0.39704234138E+02  0.12700000000E+01 0. -1.
         25    2    1    2    0    0 -0.15937704913E+01  0.20277082630E+02  0.65366728650E+02  0.14251869011E+03  0.12500027053E+03 0.  0.
    9000005    1    3    3    0    0  0.42203928774E+02 -0.35127560843E+02  0.37932259772E+02  0.66745587616E+02  0.10000000000E+01 0.  0.
    9000005    1    3    3    0    0 -0.43797699266E+02  0.55404643473E+02  0.27434468877E+02  0.75773102496E+02  0.10000000000E+01 0.  0.
         -4    1    1    2    0  502  0.15937704913E+01 -0.20277082630E+02  0.91743658862E+02  0.93979849041E+02  0.12700000000E+01 0.  1.
<mgrwt>
<rscale>  1 0.12664426E+03</rscale>
<asrwt>0</asrwt>
<pdfrwt beam="1">  1       21 0.30276047E-01 0.12664426E+03</pdfrwt>
<pdfrwt beam="2">  1       -4 0.61070962E-02 0.12664426E+03</pdfrwt>
<totfact> 0.72564206E+04</totfact>
</mgrwt>
</event>
<event>
 6    4  0.3189516E-003  0.1545162E+03  0.7818608E-02  0.1195031E+00
         -4   -1    0    0    0  501 -0.00000000000E+00  0.00000000000E+00  0.95101376567E+02  0.95109856088E+02  0.12700000000E+01 0. -1.
         21   -1    0    0  501  502  0.00000000000E+00 -0.00000000000E+00 -0.16888292841E+04  0.16888292841E+04  0.00000000000E+00 0.  1.
         25    2    1    2    0    0 -0.82842834078E+02  0.37247429350E+02  0.30227469603E+02  0.15744506212E+03  0.12499976607E+03 0.  0.
    9000005    1    3    3    0    0 -0.49983413994E+01 -0.42146365782E+02  0.15892543322E+02  0.45330701502E+02  0.10000000000E+01 0.  0.
    9000005    1    3    3    0    0 -0.77844492678E+02  0.79393795133E+02  0.14334926281E+02  0.11211436062E+03  0.10000000000E+01 0.  0.
         -4    1    1    2    0  502  0.82842834078E+02 -0.37247429350E+02 -0.16239553772E+04  0.16264940781E+04  0.12700000000E+01 0.  1.
<mgrwt>
<rscale>  1 0.15451617E+03</rscale>
<asrwt>0</asrwt>
<pdfrwt beam="2">  1       21 0.25981985E+00 0.15451617E+03</pdfrwt>
<pdfrwt beam="1">  1       -4 0.14631672E-01 0.15451617E+03</pdfrwt>
<totfact> 0.98902705E+01</totfact>
</mgrwt>
</event>
<event>
 6    4  0.3189516E-003  0.1369949E+03  0.7818608E-02  0.1217431E+00
         21   -1    0    0  501  502  0.00000000000E+00  0.00000000000E+00  0.44729959242E+02  0.44729959242E+02  0.00000000000E+00 0. -1.
          4   -1    0    0  502    0 -0.00000000000E+00 -0.00000000000E+00 -0.24321169509E+03  0.24321501090E+03  0.12700000000E+01 0.  1.
         25    2    1    2    0    0  0.54934448650E+02  0.11156901655E+02 -0.18513203607E+03  0.23030733064E+03  0.12500130265E+03 0.  0.
    9000005    1    3    3    0    0 -0.22458848067E+01 -0.39239654719E+02 -0.13111322672E+03  0.13688123583E+03  0.10000000000E+01 0.  0.
    9000005    1    3    3    0    0  0.57180333456E+02  0.50396556373E+02 -0.54018809355E+02  0.93426094816E+02  0.10000000000E+01 0.  0.
          4    1    1    2  501    0 -0.54934448650E+02 -0.11156901655E+02 -0.13349699770E+02  0.57637639498E+02  0.12700000000E+01 0. -1.
<mgrwt>
<rscale>  1 0.13699487E+03</rscale>
<asrwt>0</asrwt>
<pdfrwt beam="1">  1       21 0.68815321E-02 0.13699487E+03</pdfrwt>
<pdfrwt beam="2">  1        4 0.37418826E-01 0.13699487E+03</pdfrwt>
<totfact> 0.43783770E+04</totfact>
</mgrwt>
</event>
<event>
 6    4  0.3189516E-003  0.1277098E+03  0.7818608E-02  0.1230894E+00
         21   -1    0    0  501  502  0.00000000000E+00  0.00000000000E+00  0.94224369056E+03  0.94224369056E+03  0.00000000000E+00 0.  1.
          4   -1    0    0  502    0 -0.00000000000E+00 -0.00000000000E+00 -0.36676925698E+02  0.36698907050E+02  0.12700000000E+01 0. -1.
         25    2    1    2    0    0  0.10262323856E+02 -0.24093346058E+02  0.75288093405E+02  0.14825006135E+03  0.12499591620E+03 0.  0.
    9000005    1    3    3    0    0  0.49915269706E+02 -0.56130844122E+02  0.33180168604E+02  0.82122648522E+02  0.10000000000E+01 0.  0.
    9000005    1    3    3    0    0 -0.39652945850E+02  0.32037498064E+02  0.42107924800E+02  0.66127412831E+02  0.10000000000E+01 0.  0.
          4    1    1    2  501    0 -0.10262323856E+02  0.24093346058E+02  0.83027867146E+03  0.83069253626E+03  0.12700000000E+01 0.  1.
<mgrwt>
<rscale>  1 0.12770976E+03</rscale>
<asrwt>0</asrwt>
<pdfrwt beam="1">  1       21 0.14496055E+00 0.12770976E+03</pdfrwt>
<pdfrwt beam="2">  1        4 0.56443614E-02 0.12770976E+03</pdfrwt>
<totfact> 0.26879031E+03</totfact>
</mgrwt>
</event>
<event>
 6    4  0.3189516E-003  0.1276355E+03  0.7818608E-02  0.1231007E+00
         21   -1    0    0  501  502  0.00000000000E+00  0.00000000000E+00  0.40358862598E+02  0.40358862598E+02  0.00000000000E+00 0. -1.
          4   -1    0    0  502    0 -0.00000000000E+00 -0.00000000000E+00 -0.14590500095E+03  0.14591052808E+03  0.12700000000E+01 0. -1.
         25    2    1    2    0    0  0.19924704343E+02  0.16412143711E+02 -0.87824252242E+02  0.15493202557E+03  0.12499792382E+03 0.  0.
    9000005    1    3    3    0    0  0.41773750166E+02 -0.19757987353E+01  0.17836068061E+02  0.45476096001E+02  0.10000000000E+01 0.  0.
    9000005    1    3    3    0    0 -0.21849045823E+02  0.18387942446E+02 -0.10566032030E+03  0.10945592957E+03  0.10000000000E+01 0.  0.
          4    1    1    2  501    0 -0.19924704343E+02 -0.16412143711E+02 -0.17721886115E+02  0.31337365107E+02  0.12700000000E+01 0.  1.
<mgrwt>
<rscale>  1 0.12763555E+03</rscale>
<asrwt>0</asrwt>
<pdfrwt beam="1">  1       21 0.62090558E-02 0.12763555E+03</pdfrwt>
<pdfrwt beam="2">  1        4 0.22448885E-01 0.12763555E+03</pdfrwt>
<totfact> 0.13514714E+05</totfact>
</mgrwt>
</event>
<event>
 6    4  0.3189516E-003  0.1284621E+03  0.7818608E-02  0.1229756E+00
         21   -1    0    0  501  502  0.00000000000E+00  0.00000000000E+00  0.35909817745E+02  0.35909817745E+02  0.00000000000E+00 0.  1.
          4   -1    0    0  502    0 -0.00000000000E+00 -0.00000000000E+00 -0.33279679968E+03  0.33279922292E+03  0.12700000000E+01 0. -1.
         25    2    1    2    0    0 -0.51590833656E+01 -0.29171248960E+02 -0.31054272940E+03  0.33606443551E+03  0.12499976049E+03 0.  0.
    9000005    1    3    3    0    0  0.14790421223E+02 -0.46780279062E+02 -0.30492703837E+03  0.30885052987E+03  0.10000000000E+01 0.  0.
    9000005    1    3    3    0    0 -0.19949504588E+02  0.17609030103E+02 -0.56156910311E+01  0.27213905641E+02  0.10000000000E+01 0.  0.
          4    1    1    2  501    0  0.51590833656E+01  0.29171248960E+02  0.13655747468E+02  0.32644605158E+02  0.12700000000E+01 0.  1.
<mgrwt>
<rscale>  1 0.12846213E+03</rscale>
<asrwt>0</asrwt>
<pdfrwt beam="1">  1       21 0.55245874E-02 0.12846213E+03</pdfrwt>
<pdfrwt beam="2">  1        4 0.51201421E-01 0.12846213E+03</pdfrwt>
<totfact> 0.33760899E+04</totfact>
</mgrwt>
</event>
<event>
 6    4  0.3189516E-003  0.1281077E+03  0.7818608E-02  0.1230291E+00
         21   -1    0    0  501  502  0.00000000000E+00  0.00000000000E+00  0.15387823750E+03  0.15387823750E+03  0.00000000000E+00 0. -1.
          4   -1    0    0  502    0 -0.00000000000E+00 -0.00000000000E+00 -0.41571945403E+02  0.41591339779E+02  0.12700000000E+01 0. -1.
         25    2    1    2    0    0  0.66334628008E+01  0.27238360611E+02  0.10698733617E+03  0.16690674637E+03  0.12500256303E+03 0.  0.
    9000005    1    3    3    0    0  0.59223099014E+02  0.56291459064E+01  0.19594288686E+02  0.62641830190E+02  0.10000000000E+01 0.  0.
    9000005    1    3    3    0    0 -0.52589636213E+02  0.21609214705E+02  0.87393047481E+02  0.10426491618E+03  0.10000000000E+01 0.  0.
          4    1    1    2  501    0 -0.66334628008E+01 -0.27238360611E+02  0.53189559274E+01  0.28562830911E+02  0.12700000000E+01 0.  1.
<mgrwt>
<rscale>  1 0.12810766E+03</rscale>
<asrwt>0</asrwt>
<pdfrwt beam="1">  1       21 0.23673575E-01 0.12810766E+03</pdfrwt>
<pdfrwt beam="2">  1        4 0.63975790E-02 0.12810766E+03</pdfrwt>
<totfact> 0.10762543E+05</totfact>
</mgrwt>
</event>
<event>
 6    4  0.3189516E-003  0.1342581E+03  0.7818608E-02  0.1221271E+00
         21   -1    0    0  501  502  0.00000000000E+00  0.00000000000E+00  0.19880168431E+02  0.19880168431E+02  0.00000000000E+00 0. -1.
          4   -1    0    0  502    0 -0.00000000000E+00 -0.00000000000E+00 -0.83687272302E+03  0.83687368667E+03  0.12700000000E+01 0.  1.
         25    2    1    2    0    0  0.45869244528E+02 -0.17224483580E+02 -0.78893675084E+03  0.80027898058E+03  0.12499831799E+03 0.  0.
    9000005    1    3    3    0    0  0.35952939575E+02  0.52256168433E+02 -0.33608460473E+03  0.34201927218E+03  0.10000000000E+01 0.  0.
    9000005    1    3    3    0    0  0.99163049523E+01 -0.69480652013E+02 -0.45285214611E+03  0.45825970840E+03  0.10000000000E+01 0.  0.
          4    1    1    2  501    0 -0.45869244528E+02  0.17224483580E+02 -0.28055803753E+02  0.56474874523E+02  0.12700000000E+01 0. -1.
<mgrwt>
<rscale>  1 0.13425815E+03</rscale>
<asrwt>0</asrwt>
<pdfrwt beam="1">  1       21 0.30584878E-02 0.13425815E+03</pdfrwt>
<pdfrwt beam="2">  1        4 0.12875283E+00 0.13425815E+03</pdfrwt>
<totfact> 0.11674525E+04</totfact>
</mgrwt>
</event>
<event>
 6    4  0.3189516E-003  0.1282491E+03  0.7818608E-02  0.1230077E+00
         21   -1    0    0  501  502  0.00000000000E+00  0.00000000000E+00  0.32729013842E+02  0.32729013842E+02  0.00000000000E+00 0.  1.
          4   -1    0    0  502    0 -0.00000000000E+00 -0.00000000000E+00 -0.19435038514E+03  0.19435453456E+03  0.12700000000E+01 0.  1.
         25    2    1    2    0    0  0.26468324932E+02  0.11056077420E+02 -0.14624315979E+03  0.19451191409E+03  0.12500005545E+03 0.  0.
    9000005    1    3    3    0    0 -0.48852207448E+01  0.43769362476E+02 -0.14236280226E+03  0.14902278330E+03  0.10000000000E+01 0.  0.
    9000005    1    3    3    0    0  0.31353545677E+02 -0.32713285056E+02 -0.38803575306E+01  0.45489130792E+02  0.10000000000E+01 0.  0.
          4    1    1    2  501    0 -0.26468324932E+02 -0.11056077420E+02 -0.15378211502E+02  0.32571634310E+02  0.12700000000E+01 0. -1.
<mgrwt>
<rscale>  1 0.12824907E+03</rscale>
<asrwt>0</asrwt>
<pdfrwt beam="1">  1       21 0.50352330E-02 0.12824907E+03</pdfrwt>
<pdfrwt beam="2">  1        4 0.29902273E-01 0.12824907E+03</pdfrwt>
<totfact> 0.11328222E+05</totfact>
</mgrwt>
</event>
<event>
 6    4  0.3189516E-003  0.1270696E+03  0.7818608E-02  0.1231870E+00
         21   -1    0    0  501  502  0.00000000000E+00  0.00000000000E+00  0.19820629412E+03  0.19820629412E+03  0.00000000000E+00 0.  1.
         -4   -1    0    0    0  501 -0.00000000000E+00 -0.00000000000E+00 -0.28381254481E+02  0.28409655153E+02  0.12700000000E+01 0.  1.
         25    2    1    2    0    0  0.83452298817E+01 -0.21274184260E+02  0.14666105945E+03  0.19405190997E+03  0.12499777448E+03 0.  0.
    9000005    1    3    3    0    0  0.12413648690E+02 -0.71043980471E+02  0.59101248715E+02  0.93248610900E+02  0.10000000000E+01 0.  0.
    9000005    1    3    3    0    0 -0.40684188081E+01  0.49769796211E+02  0.87559810736E+02  0.10080329907E+03  0.10000000000E+01 0.  0.
         -4    1    1    2    0  502 -0.83452298817E+01  0.21274184260E+02  0.23163980183E+02  0.32564039302E+02  0.12700000000E+01 0. -1.
<mgrwt>
<rscale>  1 0.12706958E+03</rscale>
<asrwt>0</asrwt>
<pdfrwt beam="1">  1       21 0.30493275E-01 0.12706958E+03</pdfrwt>
<pdfrwt beam="2">  1       -4 0.43688446E-02 0.12706958E+03</pdfrwt>
<totfact> 0.12272114E+05</totfact>
</mgrwt>
</event>
<event>
 6    4  0.3189516E-003  0.1297978E+03  0.7818608E-02  0.1227756E+00
          4   -1    0    0  502    0 -0.00000000000E+00  0.00000000000E+00  0.77383468060E+03  0.77383572275E+03  0.12700000000E+01 0. -1.
         21   -1    0    0  501  502  0.00000000000E+00 -0.00000000000E+00 -0.20367449468E+02  0.20367449468E+02  0.00000000000E+00 0.  1.
         25    2    1    2    0    0 -0.31653372401E+02  0.14849467165E+02  0.74753170591E+03  0.75871675201E+03  0.12500006311E+03 0.  0.
    9000005    1    3    3    0    0 -0.72366272968E+02  0.72023769374E+01  0.27787226362E+03  0.28723291348E+03  0.10000000000E+01 0.  0.
    9000005    1    3    3    0    0  0.40712900568E+02  0.76470902275E+01  0.46965944229E+03  0.47148383853E+03  0.10000000000E+01 0.  0.
          4    1    1    2  501    0  0.31653372401E+02 -0.14849467165E+02  0.59355252229E+01  0.35486420207E+02  0.12700000000E+01 0.  1.
<mgrwt>
<rscale>  1 0.12979776E+03</rscale>
<asrwt>0</asrwt>
<pdfrwt beam="2">  1       21 0.31334544E-02 0.12979776E+03</pdfrwt>
<pdfrwt beam="1">  1        4 0.11905459E+00 0.12979776E+03</pdfrwt>
<totfact> 0.13518160E+04</totfact>
</mgrwt>
</event>
<event>
 6    4  0.3189516E-003  0.1555466E+03  0.7818608E-02  0.1193818E+00
          4   -1    0    0  502    0 -0.00000000000E+00  0.00000000000E+00  0.45194687493E+03  0.45194865932E+03  0.12700000000E+01 0. -1.
         21   -1    0    0  501  502  0.00000000000E+00 -0.00000000000E+00 -0.14078041867E+03  0.14078041867E+03  0.00000000000E+00 0.  1.
         25    2    1    2    0    0 -0.14283501404E+02 -0.91465970719E+02  0.42115505666E+03  0.44896139272E+03  0.12499883276E+03 0.  0.
    9000005    1    3    3    0    0 -0.31465480963E+02 -0.69418211814E+02  0.95882304015E+02  0.12248828861E+03  0.10000000000E+01 0.  0.
    9000005    1    3    3    0    0  0.17181979559E+02 -0.22047758905E+02  0.32527275264E+03  0.32647310411E+03  0.10000000000E+01 0.  0.
          4    1    1    2  501    0  0.14283501404E+02  0.91465970719E+02 -0.10998860040E+03  0.14376768527E+03  0.12700000000E+01 0.  1.
<mgrwt>
<rscale>  1 0.15554662E+03</rscale>
<asrwt>0</asrwt>
<pdfrwt beam="2">  1       21 0.21658526E-01 0.15554662E+03</pdfrwt>
<pdfrwt beam="1">  1        4 0.69530866E-01 0.15554662E+03</pdfrwt>
<totfact> 0.16072764E+03</totfact>
</mgrwt>
</event>
<event>
 6    4  0.3189516E-003  0.1294757E+03  0.7818608E-02  0.1228236E+00
          4   -1    0    0  502    0 -0.00000000000E+00  0.00000000000E+00  0.51462812522E+02  0.51478480676E+02  0.12700000000E+01 0.  1.
         21   -1    0    0  501  502  0.00000000000E+00 -0.00000000000E+00 -0.20972720931E+03  0.20972720931E+03  0.00000000000E+00 0. -1.
         25    2    1    2    0    0 -0.33562378864E+02 -0.36111942939E+01 -0.36038441701E+02  0.13439768158E+03  0.12499797412E+03 0.  0.
    9000005    1    3    3    0    0  0.41791094539E+02  0.16379606836E+02  0.68442627981E+01  0.45416197949E+02  0.10000000000E+01 0.  0.
    9000005    1    3    3    0    0 -0.75353473403E+02 -0.19990801130E+02 -0.42882704499E+02  0.88981483629E+02  0.10000000000E+01 0.  0.
          4    1    1    2  501    0  0.33562378864E+02  0.36111942939E+01 -0.12222595509E+03  0.12680800841E+03  0.12700000000E+01 0. -1.
<mgrwt>
<rscale>  1 0.12947574E+03</rscale>
<asrwt>0</asrwt>
<pdfrwt beam="2">  1       21 0.32265724E-01 0.12947574E+03</pdfrwt>
<pdfrwt beam="1">  1        4 0.79188568E-02 0.12947574E+03</pdfrwt>
<totfact> 0.42013136E+04</totfact>
</mgrwt>
</event>
<event>
 6    4  0.3189516E-003  0.1266393E+03  0.7818608E-02  0.1232529E+00
         -4   -1    0    0    0  501 -0.00000000000E+00  0.00000000000E+00  0.74424151242E+02  0.74434986317E+02  0.12700000000E+01 0. -1.
         21   -1    0    0  501  502  0.00000000000E+00 -0.00000000000E+00 -0.73183010858E+02  0.73183010858E+02  0.00000000000E+00 0. -1.
         25    2    1    2    0    0 -0.20168359940E+01  0.20214418222E+02  0.57512515693E+01  0.12676987173E+03  0.12499933261E+03 0.  0.
    9000005    1    3    3    0    0 -0.54679417917E+02  0.38536690941E+02 -0.12563356086E+02  0.68071676993E+02  0.10000000000E+01 0.  0.
    9000005    1    3    3    0    0  0.52662581923E+02 -0.18322272719E+02  0.18314607655E+02  0.58698194742E+02  0.10000000000E+01 0.  0.
         -4    1    1    2    0  502  0.20168359940E+01 -0.20214418222E+02 -0.45101111858E+01  0.20848125441E+02  0.12700000000E+01 0.  1.
<mgrwt>
<rscale>  1 0.12663934E+03</rscale>
<asrwt>0</asrwt>
<pdfrwt beam="2">  1       21 0.11258925E-01 0.12663934E+03</pdfrwt>
<pdfrwt beam="1">  1       -4 0.11451550E-01 0.12663934E+03</pdfrwt>
<totfact> 0.15738230E+05</totfact>
</mgrwt>
</event>
<event>
 6    4  0.3189516E-003  0.1268790E+03  0.7818608E-02  0.1232162E+00
         -4   -1    0    0    0  501 -0.00000000000E+00  0.00000000000E+00  0.63025758854E+03  0.63025886809E+03  0.12700000000E+01 0.  1.
         21   -1    0    0  501  502  0.00000000000E+00 -0.00000000000E+00 -0.11294767743E+02  0.11294767743E+02  0.00000000000E+00 0.  1.
         25    2    1    2    0    0 -0.68800907876E+01 -0.20646588378E+02  0.59799365346E+03  0.61130572451E+03  0.12499864790E+03 0.  0.
    9000005    1    3    3    0    0 -0.50056440495E+02 -0.48254602258E+02  0.24745236322E+03  0.25703662373E+03  0.10000000000E+01 0.  0.
    9000005    1    3    3    0    0  0.43176349708E+02  0.27608013879E+02  0.35054129024E+03  0.35426910078E+03  0.10000000000E+01 0.  0.
         -4    1    1    2    0  502  0.68800907876E+01  0.20646588378E+02  0.20969167332E+02  0.30247911325E+02  0.12700000000E+01 0. -1.
<mgrwt>
<rscale>  1 0.12687899E+03</rscale>
<asrwt>0</asrwt>
<pdfrwt beam="2">  1       21 0.17376571E-02 0.12687899E+03</pdfrwt>
<pdfrwt beam="1">  1       -4 0.96968269E-01 0.12687899E+03</pdfrwt>
<totfact> 0.56771788E+04</totfact>
</mgrwt>
</event>
<event>
 6    4  0.3189516E-003  0.1448495E+03  0.7818608E-02  0.1206949E+00
         -4   -1    0    0    0  501 -0.00000000000E+00  0.00000000000E+00  0.25066003806E+02  0.25098156243E+02  0.12700000000E+01 0. -1.
         21   -1    0    0  501  502  0.00000000000E+00 -0.00000000000E+00 -0.48804079548E+03  0.48804079548E+03  0.00000000000E+00 0.  1.
         25    2    1    2    0    0 -0.43336223465E+02 -0.58960500887E+02 -0.26391655429E+03  0.30105367713E+03  0.12500799957E+03 0.  0.
    9000005    1    3    3    0    0 -0.64173437171E+02 -0.88107608161E+02 -0.19819424000E+03  0.22619269976E+03  0.10000000000E+01 0.  0.
    9000005    1    3    3    0    0  0.20837213707E+02  0.29147107274E+02 -0.65722314283E+02  0.74860977366E+02  0.10000000000E+01 0.  0.
         -4    1    1    2    0  502  0.43336223465E+02  0.58960500887E+02 -0.19905823739E+03  0.21208527460E+03  0.12700000000E+01 0.  1.
<mgrwt>
<rscale>  1 0.14484947E+03</rscale>
<asrwt>0</asrwt>
<pdfrwt beam="2">  1       21 0.75083200E-01 0.14484947E+03</pdfrwt>
<pdfrwt beam="1">  1       -4 0.38589086E-02 0.14484947E+03</pdfrwt>
<totfact> 0.23706007E+04</totfact>
</mgrwt>
</event>
<event>
 6    4  0.3189516E-003  0.1276463E+03  0.7818608E-02  0.1230991E+00
          4   -1    0    0  502    0 -0.00000000000E+00  0.00000000000E+00  0.10846016321E+03  0.10846759840E+03  0.12700000000E+01 0. -1.
         21   -1    0    0  501  502  0.00000000000E+00 -0.00000000000E+00 -0.57870613810E+02  0.57870613810E+02  0.00000000000E+00 0. -1.
         25    2    1    2    0    0 -0.25362117457E+02 -0.52464652367E+01  0.56739421212E+02  0.13968870522E+03  0.12499123988E+03 0.  0.
    9000005    1    3    3    0    0  0.53367938659E+01  0.51379291694E+00 -0.38793144289E+02  0.39174652465E+02  0.10000000000E+01 0.  0.
    9000005    1    3    3    0    0 -0.30698911323E+02 -0.57602581536E+01  0.95532565501E+02  0.10051405276E+03  0.10000000000E+01 0.  0.
          4    1    1    2  501    0  0.25362117457E+02  0.52464652367E+01 -0.61498718169E+01  0.26649506989E+02  0.12700000000E+01 0.  1.
<mgrwt>
<rscale>  1 0.12764628E+03</rscale>
<asrwt>0</asrwt>
<pdfrwt beam="2">  1       21 0.89031714E-02 0.12764628E+03</pdfrwt>
<pdfrwt beam="1">  1        4 0.16687823E-01 0.12764628E+03</pdfrwt>
<totfact> 0.12381278E+05</totfact>
</mgrwt>
</event>
<event>
 6    4  0.3189516E-003  0.1273673E+03  0.7818608E-02  0.1231415E+00
         21   -1    0    0  501  502  0.00000000000E+00  0.00000000000E+00  0.78822112875E+02  0.78822112875E+02  0.00000000000E+00 0. -1.
         -4   -1    0    0    0  501 -0.00000000000E+00 -0.00000000000E+00 -0.32320273077E+03  0.32320522594E+03  0.12700000000E+01 0.  1.
         25    2    1    2    0    0 -0.34478528687E+01  0.24234418310E+02 -0.30829774824E+03  0.33357146125E+03  0.12499289368E+03 0.  0.
    9000005    1    3    3    0    0 -0.40901637552E+02 -0.12652882985E+02 -0.35133492055E+02  0.55393155410E+02  0.10000000000E+01 0.  0.
    9000005    1    3    3    0    0  0.37453784683E+02  0.36887301296E+02 -0.27316425619E+03  0.27817830584E+03  0.10000000000E+01 0.  0.
         -4    1    1    2    0  502  0.34478528687E+01 -0.24234418310E+02  0.63917130352E+02  0.68455877561E+02  0.12700000000E+01 0. -1.
<mgrwt>
<rscale>  1 0.12736726E+03</rscale>
<asrwt>0</asrwt>
<pdfrwt beam="1">  1       21 0.12126479E-01 0.12736726E+03</pdfrwt>
<pdfrwt beam="2">  1       -4 0.49724475E-01 0.12736726E+03</pdfrwt>
<totfact> 0.92054420E+03</totfact>
</mgrwt>
</event>
<event>
 6    4  0.3189516E-003  0.1286571E+03  0.7818608E-02  0.1229462E+00
          4   -1    0    0  502    0 -0.00000000000E+00  0.00000000000E+00  0.28493026074E+03  0.28493309107E+03  0.12700000000E+01 0.  1.
         21   -1    0    0  501  502  0.00000000000E+00 -0.00000000000E+00 -0.24534527175E+02  0.24534527175E+02  0.00000000000E+00 0.  1.
         25    2    1    2    0    0  0.29881084785E+02 -0.60634482818E+01  0.24133597748E+03  0.27348801520E+03  0.12499198295E+03 0.  0.
    9000005    1    3    3    0    0 -0.13842788491E+02 -0.92440455426E+01 -0.92669268304E+01  0.19077502564E+02  0.10000000000E+01 0.  0.
    9000005    1    3    3    0    0  0.43723873276E+02  0.31805972607E+01  0.25060290431E+03  0.25441051264E+03  0.10000000000E+01 0.  0.
          4    1    1    2  501    0 -0.29881084785E+02  0.60634482818E+01  0.19059756091E+02  0.35979603045E+02  0.12700000000E+01 0. -1.
<mgrwt>
<rscale>  1 0.12865707E+03</rscale>
<asrwt>0</asrwt>
<pdfrwt beam="2">  1       21 0.37745429E-02 0.12865707E+03</pdfrwt>
<pdfrwt beam="1">  1        4 0.43838168E-01 0.12865707E+03</pdfrwt>
<totfact> 0.87324130E+04</totfact>
</mgrwt>
</event>
<event>
 6    4  0.3189516E-003  0.1272589E+03  0.7818608E-02  0.1231581E+00
         21   -1    0    0  501  502  0.00000000000E+00  0.00000000000E+00  0.50311666155E+03  0.50311666155E+03  0.00000000000E+00 0. -1.
          4   -1    0    0  502    0 -0.00000000000E+00 -0.00000000000E+00 -0.12669141319E+02  0.12732636874E+02  0.12700000000E+01 0. -1.
         25    2    1    2    0    0 -0.10506942867E+02 -0.21435291166E+02  0.45919120027E+03  0.47649910155E+03  0.12499987130E+03 0.  0.
    9000005    1    3    3    0    0 -0.12720678438E+01 -0.16411365960E+01 -0.82402787413E+01  0.85564992643E+01  0.10000000000E+01 0.  0.
    9000005    1    3    3    0    0 -0.92348750234E+01 -0.19794154570E+02  0.46743147901E+03  0.46794260229E+03  0.10000000000E+01 0.  0.
          4    1    1    2  501    0  0.10506942867E+02  0.21435291166E+02  0.31256319962E+02  0.39350196866E+02  0.12700000000E+01 0.  1.
<mgrwt>
<rscale>  1 0.12725893E+03</rscale>
<asrwt>0</asrwt>
<pdfrwt beam="1">  1       21 0.77402548E-01 0.12725893E+03</pdfrwt>
<pdfrwt beam="2">  1        4 0.19541066E-02 0.12725893E+03</pdfrwt>
<totfact> 0.63321324E+04</totfact>
</mgrwt>
</event>
<event>
 6    4  0.3189516E-003  0.1417720E+03  0.7818608E-02  0.1210964E+00
         21   -1    0    0  501  502  0.00000000000E+00  0.00000000000E+00  0.57426063114E+01  0.57426063114E+01  0.00000000000E+00 0.  1.
          4   -1    0    0  502    0 -0.00000000000E+00 -0.00000000000E+00 -0.33332495127E+04  0.33332497546E+04  0.12700000000E+01 0. -1.
         25    2    1    2    0    0  0.85423661051E+01  0.66339352797E+02 -0.30587680920E+04  0.30620518529E+04  0.12500170954E+03 0.  0.
    9000005    1    3    3    0    0  0.60272024308E+02  0.64762777778E+01 -0.15880998814E+04  0.15892567107E+04  0.10000000000E+01 0.  0.
    9000005    1    3    3    0    0 -0.51729658203E+02  0.59863075019E+02 -0.14706682105E+04  0.14727951422E+04  0.10000000000E+01 0.  0.
          4    1    1    2  501    0 -0.85423661051E+01 -0.66339352797E+02 -0.26873881439E+03  0.27694050807E+03  0.12700000000E+01 0.  1.
<mgrwt>
<rscale>  1 0.14177203E+03</rscale>
<asrwt>0</asrwt>
<pdfrwt beam="1">  1       21 0.88347797E-03 0.14177203E+03</pdfrwt>
<pdfrwt beam="2">  1        4 0.51281839E+00 0.14177203E+03</pdfrwt>
<totfact> 0.26259197E+02</totfact>
</mgrwt>
</event>
<event>
 6    4  0.3189516E-003  0.1332359E+03  0.7818608E-02  0.1222732E+00
          4   -1    0    0  502    0 -0.00000000000E+00  0.00000000000E+00  0.78312339048E+02  0.78322636238E+02  0.12700000000E+01 0.  1.
         21   -1    0    0  501  502  0.00000000000E+00 -0.00000000000E+00 -0.12734534971E+03  0.12734534971E+03  0.00000000000E+00 0. -1.
         25    2    1    2    0    0 -0.45836142446E+02 -0.51181908001E+01  0.65913398917E+01  0.13339884242E+03  0.12499863026E+03 0.  0.
    9000005    1    3    3    0    0 -0.30106600914E+01 -0.55954797265E+02 -0.23065213863E+02  0.60605342188E+02  0.10000000000E+01 0.  0.
    9000005    1    3    3    0    0 -0.42825482355E+02  0.50836606465E+02  0.29656553755E+02  0.72793500235E+02  0.10000000000E+01 0.  0.
          4    1    1    2  501    0  0.45836142446E+02  0.51181908001E+01 -0.55624350553E+02  0.72269143525E+02  0.12700000000E+01 0. -1.
<mgrwt>
<rscale>  1 0.13323590E+03</rscale>
<asrwt>0</asrwt>
<pdfrwt beam="2">  1       21 0.19591592E-01 0.13323590E+03</pdfrwt>
<pdfrwt beam="1">  1        4 0.12049331E-01 0.13323590E+03</pdfrwt>
<totfact> 0.53536578E+04</totfact>
</mgrwt>
</event>
<event>
 6    4  0.3189516E-003  0.1364084E+03  0.7818608E-02  0.1218245E+00
         21   -1    0    0  501  502  0.00000000000E+00  0.00000000000E+00  0.38898633693E+03  0.38898633693E+03  0.00000000000E+00 0.  1.
         -4   -1    0    0    0  501 -0.00000000000E+00 -0.00000000000E+00 -0.23462742670E+02  0.23497089046E+02  0.12700000000E+01 0.  1.
         25    2    1    2    0    0  0.43921512893E+02  0.32378717408E+02  0.26837186446E+03  0.30104935516E+03  0.12501910243E+03 0.  0.
    9000005    1    3    3    0    0  0.78770584561E+02  0.11700941545E+02  0.99850675265E+02  0.12772186334E+03  0.10000000000E+01 0.  0.
    9000005    1    3    3    0    0 -0.34849071668E+02  0.20677775863E+02  0.16852118920E+03  0.17332749182E+03  0.10000000000E+01 0.  0.
         -4    1    1    2    0  502 -0.43921512893E+02 -0.32378717408E+02  0.97151729793E+02  0.11143407081E+03  0.12700000000E+01 0. -1.
<mgrwt>
<rscale>  1 0.13640842E+03</rscale>
<asrwt>0</asrwt>
<pdfrwt beam="1">  1       21 0.59844047E-01 0.13640842E+03</pdfrwt>
<pdfrwt beam="2">  1       -4 0.36124545E-02 0.13640842E+03</pdfrwt>
<totfact> 0.42821704E+04</totfact>
</mgrwt>
</event>
<event>
 6    4  0.3189516E-003  0.1549815E+03  0.7818608E-02  0.1194482E+00
          4   -1    0    0  502    0 -0.00000000000E+00  0.00000000000E+00  0.46443036244E+02  0.46460397281E+02  0.12700000000E+01 0.  1.
         21   -1    0    0  501  502  0.00000000000E+00 -0.00000000000E+00 -0.37660269526E+03  0.37660269526E+03  0.00000000000E+00 0. -1.
         25    2    1    2    0    0 -0.49367020297E+02 -0.77177946453E+02 -0.12762427971E+03  0.20076659935E+03  0.12500293010E+03 0.  0.
    9000005    1    3    3    0    0 -0.69136670929E+02 -0.66334898422E+02 -0.29760477500E+02  0.10033386286E+03  0.10000000000E+01 0.  0.
    9000005    1    3    3    0    0  0.19769650631E+02 -0.10843048031E+02 -0.97863802207E+02  0.10043273649E+03  0.10000000000E+01 0.  0.
          4    1    1    2  501    0  0.49367020297E+02  0.77177946453E+02 -0.20253537931E+03  0.22229649319E+03  0.12700000000E+01 0. -1.
<mgrwt>
<rscale>  1 0.15498152E+03</rscale>
<asrwt>0</asrwt>
<pdfrwt beam="2">  1       21 0.57938875E-01 0.15498152E+03</pdfrwt>
<pdfrwt beam="1">  1        4 0.71465829E-02 0.15498152E+03</pdfrwt>
<totfact> 0.15437651E+04</totfact>
</mgrwt>
</event>
<event>
 6    4  0.3189516E-003  0.1275823E+03  0.7818608E-02  0.1231088E+00
         -4   -1    0    0    0  501 -0.00000000000E+00  0.00000000000E+00  0.45716692237E+03  0.45716868638E+03  0.12700000000E+01 0. -1.
         21   -1    0    0  501  502  0.00000000000E+00 -0.00000000000E+00 -0.30714709044E+02  0.30714709044E+02  0.00000000000E+00 0.  1.
         25    2    1    2    0    0 -0.67739894948E+01 -0.24625518143E+02  0.44057154824E+03  0.45867258243E+03  0.12499978271E+03 0.  0.
    9000005    1    3    3    0    0 -0.20663373302E+02  0.42244396862E+02  0.28373647249E+03  0.28760902260E+03  0.10000000000E+01 0.  0.
    9000005    1    3    3    0    0  0.13889383807E+02 -0.66869915005E+02  0.15683507575E+03  0.17106355982E+03  0.10000000000E+01 0.  0.
         -4    1    1    2    0  502  0.67739894948E+01  0.24625518143E+02 -0.14119334913E+02  0.29210812996E+02  0.12700000000E+01 0.  1.
<mgrwt>
<rscale>  1 0.12758232E+03</rscale>
<asrwt>0</asrwt>
<pdfrwt beam="2">  1       21 0.47253402E-02 0.12758232E+03</pdfrwt>
<pdfrwt beam="1">  1       -4 0.70335523E-01 0.12758232E+03</pdfrwt>
<totfact> 0.22534325E+04</totfact>
</mgrwt>
</event>
<event>
 6    4  0.3189516E-003  0.1355969E+03  0.7818608E-02  0.1219379E+00
         -4   -1    0    0    0  501 -0.00000000000E+00  0.00000000000E+00  0.49053798017E+03  0.49053962418E+03  0.12700000000E+01 0.  1.
         21   -1    0    0  501  502  0.00000000000E+00 -0.00000000000E+00 -0.75390730859E+02  0.75390730859E+02  0.00000000000E+00 0. -1.
         25    2    1    2    0    0  0.33333469861E+02 -0.40624356956E+02  0.47046792547E+03  0.48961883099E+03  0.12500028871E+03 0.  0.
    9000005    1    3    3    0    0 -0.73392309732E+01  0.17633727072E+02  0.34418982713E+03  0.34472082870E+03  0.10000000000E+01 0.  0.
    9000005    1    3    3    0    0  0.40672700834E+02 -0.58258084028E+02  0.12627809834E+03  0.14489800229E+03  0.10000000000E+01 0.  0.
         -4    1    1    2    0  502 -0.33333469861E+02  0.40624356956E+02 -0.55320676159E+02  0.76311524043E+02  0.12700000000E+01 0. -1.
<mgrwt>
<rscale>  1 0.13559694E+03</rscale>
<asrwt>0</asrwt>
<pdfrwt beam="2">  1       21 0.11598574E-01 0.13559694E+03</pdfrwt>
<pdfrwt beam="1">  1       -4 0.75468329E-01 0.13559694E+03</pdfrwt>
<totfact> 0.41553820E+03</totfact>
</mgrwt>
</event>
<event>
 6    4  0.3189516E-003  0.1380998E+03  0.7818608E-02  0.1215909E+00
         21   -1    0    0  501  502  0.00000000000E+00  0.00000000000E+00  0.88213575811E+03  0.88213575811E+03  0.00000000000E+00 0. -1.
         -4   -1    0    0    0  501 -0.00000000000E+00 -0.00000000000E+00 -0.27009109399E+02  0.27038951357E+02  0.12700000000E+01 0.  1.
         25    2    1    2    0    0 -0.55914279023E+02  0.17887179775E+02  0.15910178313E+03  0.21067733352E+03  0.12500081465E+03 0.  0.
    9000005    1    3    3    0    0 -0.64515874362E+02  0.63960200168E+02  0.97534385733E+02  0.13329351691E+03  0.10000000000E+01 0.  0.
    9000005    1    3    3    0    0  0.86015953390E+01 -0.46073020393E+02  0.61567397395E+02  0.77383816606E+02  0.10000000000E+01 0.  0.
         -4    1    1    2    0  502  0.55914279023E+02 -0.17887179775E+02  0.69602486558E+03  0.69849737595E+03  0.12700000000E+01 0. -1.
<mgrwt>
<rscale>  1 0.13809982E+03</rscale>
<asrwt>0</asrwt>
<pdfrwt beam="1">  1       21 0.13571317E+00 0.13809982E+03</pdfrwt>
<pdfrwt beam="2">  1       -4 0.41576141E-02 0.13809982E+03</pdfrwt>
<totfact> 0.52033654E+03</totfact>
</mgrwt>
</event>
<event>
 6    4  0.3189516E-003  0.1267386E+03  0.7818608E-02  0.1232377E+00
         21   -1    0    0  501  502  0.00000000000E+00  0.00000000000E+00  0.18556151691E+04  0.18556151691E+04  0.00000000000E+00 0.  1.
          4   -1    0    0  502    0 -0.00000000000E+00 -0.00000000000E+00 -0.65777910223E+01  0.66992712091E+01  0.12700000000E+01 0. -1.
         25    2    1    2    0    0  0.51958867630E+01 -0.20252206730E+02  0.60650495597E+03  0.61960547116E+03  0.12500211661E+03 0.  0.
    9000005    1    3    3    0    0  0.47374345972E+02 -0.51202930639E+02  0.42579361921E+03  0.43147105920E+03  0.10000000000E+01 0.  0.
    9000005    1    3    3    0    0 -0.42178459209E+02  0.30950723909E+02  0.18071133676E+03  0.18813441196E+03  0.10000000000E+01 0.  0.
          4    1    1    2  501    0 -0.51958867630E+01  0.20252206730E+02  0.12425324221E+04  0.12427089692E+04  0.12700000000E+01 0.  1.
<mgrwt>
<rscale>  1 0.12673862E+03</rscale>
<asrwt>0</asrwt>
<pdfrwt beam="1">  1       21 0.28547884E+00 0.12673862E+03</pdfrwt>
<pdfrwt beam="2">  1        4 0.10213474E-02 0.12673862E+03</pdfrwt>
<totfact> 0.50647433E+03</totfact>
</mgrwt>
</event>
<event>
 6    4  0.3189516E-003  0.1279819E+03  0.7818608E-02  0.1230481E+00
          4   -1    0    0  502    0 -0.00000000000E+00  0.00000000000E+00  0.34396403176E+03  0.34396637633E+03  0.12700000000E+01 0. -1.
         21   -1    0    0  501  502  0.00000000000E+00 -0.00000000000E+00 -0.26624975134E+02  0.26624975134E+02  0.00000000000E+00 0.  1.
         25    2    1    2    0    0  0.37073100531E+00  0.27466427431E+02  0.31831073211E+03  0.34307591706E+03  0.12499928244E+03 0.  0.
    9000005    1    3    3    0    0  0.48421669538E+02  0.54298716010E+02  0.17220523015E+03  0.18694558014E+03  0.10000000000E+01 0.  0.
    9000005    1    3    3    0    0 -0.48050938533E+02 -0.26832288579E+02  0.14610550196E+03  0.15613033692E+03  0.10000000000E+01 0.  0.
          4    1    1    2  501    0 -0.37073100531E+00 -0.27466427431E+02 -0.97167548363E+00  0.27515434406E+02  0.12700000000E+01 0.  1.
<mgrwt>
<rscale>  1 0.12798188E+03</rscale>
<asrwt>0</asrwt>
<pdfrwt beam="2">  1       21 0.40961503E-02 0.12798188E+03</pdfrwt>
<pdfrwt beam="1">  1        4 0.52920051E-01 0.12798188E+03</pdfrwt>
<totfact> 0.52058389E+04</totfact>
</mgrwt>
</event>
<event>
 6    4  0.3189516E-003  0.1744698E+03  0.7818608E-02  0.1173265E+00
          4   -1    0    0  502    0 -0.00000000000E+00  0.00000000000E+00  0.14297083192E+03  0.14297647247E+03  0.12700000000E+01 0. -1.
         21   -1    0    0  501  502  0.00000000000E+00 -0.00000000000E+00 -0.20173086887E+03  0.20173086887E+03  0.00000000000E+00 0.  1.
         25    2    1    2    0    0 -0.11040573777E+03 -0.51247315943E+02  0.49976756965E+02  0.18148657803E+03  0.12499594972E+03 0.  0.
    9000005    1    3    3    0    0 -0.12609685979E+03 -0.19212541884E+02  0.10071858488E+02  0.12795304665E+03  0.10000000000E+01 0.  0.
    9000005    1    3    3    0    0  0.15691122022E+02 -0.32034774059E+02  0.39904898477E+02  0.53533531377E+02  0.10000000000E+01 0.  0.
          4    1    1    2  501    0  0.11040573777E+03  0.51247315943E+02 -0.10873679392E+03  0.16322076331E+03  0.12700000000E+01 0.  1.
<mgrwt>
<rscale>  1 0.17446977E+03</rscale>
<asrwt>0</asrwt>
<pdfrwt beam="2">  1       21 0.31035518E-01 0.17446977E+03</pdfrwt>
<pdfrwt beam="1">  1        4 0.21996254E-01 0.17446977E+03</pdfrwt>
<totfact> 0.79133744E+03</totfact>
</mgrwt>
</event>
<event>
 6    4  0.3189516E-003  0.1327078E+03  0.7818608E-02  0.1223492E+00
         21   -1    0    0  501  502  0.00000000000E+00  0.00000000000E+00  0.61133128165E+03  0.61133128165E+03  0.00000000000E+00 0. -1.
         -4   -1    0    0    0  501 -0.00000000000E+00 -0.00000000000E+00 -0.24116409987E+02  0.24149826722E+02  0.12700000000E+01 0.  1.
         25    2    1    2    0    0 -0.20409103711E+02  0.39622305348E+02  0.16891072060E+03  0.21480732229E+03  0.12499958233E+03 0.  0.
    9000005    1    3    3    0    0  0.19606523986E+02  0.69286800477E+02  0.13939629765E+03  0.15689934449E+03  0.10000000000E+01 0.  0.
    9000005    1    3    3    0    0 -0.40015627697E+02 -0.29664495129E+02  0.29514422948E+02  0.57907977802E+02  0.10000000000E+01 0.  0.
         -4    1    1    2    0  502  0.20409103711E+02 -0.39622305348E+02  0.41830415107E+03  0.42067378608E+03  0.12700000000E+01 0. -1.
<mgrwt>
<rscale>  1 0.13270778E+03</rscale>
<asrwt>0</asrwt>
<pdfrwt beam="1">  1       21 0.94050955E-01 0.13270778E+03</pdfrwt>
<pdfrwt beam="2">  1       -4 0.37128894E-02 0.13270778E+03</pdfrwt>
<totfact> 0.15042941E+04</totfact>
</mgrwt>
</event>
<event>
 6    4  0.3189516E-003  0.1269544E+03  0.7818608E-02  0.1232046E+00
          4   -1    0    0  502    0 -0.00000000000E+00  0.00000000000E+00  0.25932347392E+03  0.25932658373E+03  0.12700000000E+01 0.  1.
         21   -1    0    0  501  502  0.00000000000E+00 -0.00000000000E+00 -0.84522021908E+02  0.84522021908E+02  0.00000000000E+00 0. -1.
         25    2    1    2    0    0  0.17170854776E+02 -0.14018253417E+02  0.24188995370E+03  0.27318157202E+03  0.12500428756E+03 0.  0.
    9000005    1    3    3    0    0 -0.29439321277E+02 -0.43567718755E+02  0.19098974430E+03  0.19809821347E+03  0.10000000000E+01 0.  0.
    9000005    1    3    3    0    0  0.46610176053E+02  0.29549465338E+02  0.50900209400E+02  0.75083358545E+02  0.10000000000E+01 0.  0.
          4    1    1    2  501    0 -0.17170854776E+02  0.14018253417E+02 -0.67088501681E+02  0.70667033618E+02  0.12700000000E+01 0. -1.
<mgrwt>
<rscale>  1 0.12695441E+03</rscale>
<asrwt>0</asrwt>
<pdfrwt beam="2">  1       21 0.13003388E-01 0.12695441E+03</pdfrwt>
<pdfrwt beam="1">  1        4 0.39896892E-01 0.12695441E+03</pdfrwt>
<totfact> 0.12620622E+04</totfact>
</mgrwt>
</event>
<event>
 6    4  0.3189516E-003  0.1293200E+03  0.7818608E-02  0.1228468E+00
          4   -1    0    0  502    0 -0.00000000000E+00  0.00000000000E+00  0.14388088844E+03  0.14388649332E+03  0.12700000000E+01 0. -1.
         21   -1    0    0  501  502  0.00000000000E+00 -0.00000000000E+00 -0.49351127065E+02  0.49351127065E+02  0.00000000000E+00 0. -1.
         25    2    1    2    0    0 -0.50321083391E-01 -0.33145351111E+02  0.52195103564E+02  0.13945609024E+03  0.12500022174E+03 0.  0.
    9000005    1    3    3    0    0  0.11580517097E+02  0.32231666585E+02  0.63438340773E+02  0.72100012394E+02  0.10000000000E+01 0.  0.
    9000005    1    3    3    0    0 -0.11630838181E+02 -0.65377017695E+02 -0.11243237210E+02  0.67356077844E+02  0.10000000000E+01 0.  0.
          4    1    1    2  501    0  0.50321083391E-01  0.33145351111E+02  0.42334657814E+02  0.53781530145E+02  0.12700000000E+01 0.  1.
<mgrwt>
<rscale>  1 0.12932004E+03</rscale>
<asrwt>0</asrwt>
<pdfrwt beam="2">  1       21 0.75924812E-02 0.12932004E+03</pdfrwt>
<pdfrwt beam="1">  1        4 0.22137209E-01 0.12932004E+03</pdfrwt>
<totfact> 0.98499192E+04</totfact>
</mgrwt>
</event>
<event>
 6    4  0.3189516E-003  0.1276500E+03  0.7818608E-02  0.1230985E+00
         -4   -1    0    0    0  501 -0.00000000000E+00  0.00000000000E+00  0.12343615024E+03  0.12344268340E+03  0.12700000000E+01 0. -1.
         21   -1    0    0  501  502  0.00000000000E+00 -0.00000000000E+00 -0.47787415667E+02  0.47787415667E+02  0.00000000000E+00 0. -1.
         25    2    1    2    0    0  0.11802761428E+02  0.23033569373E+02  0.61220646301E+02  0.14157148942E+03  0.12499867434E+03 0.  0.
    9000005    1    3    3    0    0 -0.45495588509E+02 -0.53247625555E+01  0.62649826315E+02  0.77615735565E+02  0.10000000000E+01 0.  0.
    9000005    1    3    3    0    0  0.57298349937E+02  0.28358331928E+02 -0.14291800139E+01  0.63955753852E+02  0.10000000000E+01 0.  0.
         -4    1    1    2    0  502 -0.11802761428E+02 -0.23033569373E+02  0.14428088269E+02  0.29658609652E+02  0.12700000000E+01 0.  1.
<mgrwt>
<rscale>  1 0.12764999E+03</rscale>
<asrwt>0</asrwt>
<pdfrwt beam="2">  1       21 0.73519102E-02 0.12764999E+03</pdfrwt>
<pdfrwt beam="1">  1       -4 0.18991977E-01 0.12764999E+03</pdfrwt>
<totfact> 0.13694091E+05</totfact>
</mgrwt>
</event>
<event>
 6    4  0.3189516E-003  0.1306011E+03  0.7818608E-02  0.1226567E+00
         21   -1    0    0  501  502  0.00000000000E+00  0.00000000000E+00  0.30288139672E+03  0.30288139672E+03  0.00000000000E+00 0. -1.
         -4   -1    0    0    0  501 -0.00000000000E+00 -0.00000000000E+00 -0.33052103063E+02  0.33076493419E+02  0.12700000000E+01 0.  1.
         25    2    1    2    0    0  0.30427359988E+02  0.22543491413E+02  0.10717018554E+03  0.16894402366E+03  0.12499040452E+03 0.  0.
    9000005    1    3    3    0    0 -0.35339588175E+02 -0.14054348563E+01  0.90237734263E+02  0.96926314407E+02  0.10000000000E+01 0.  0.
    9000005    1    3    3    0    0  0.65766948164E+02  0.23948926270E+02  0.16932451273E+02  0.72017709255E+02  0.10000000000E+01 0.  0.
         -4    1    1    2    0  502 -0.30427359988E+02 -0.22543491413E+02  0.16265910812E+03  0.16701386647E+03  0.12700000000E+01 0. -1.
<mgrwt>
<rscale>  1 0.13060105E+03</rscale>
<asrwt>0</asrwt>
<pdfrwt beam="1">  1       21 0.46597136E-01 0.13060105E+03</pdfrwt>
<pdfrwt beam="2">  1       -4 0.50870201E-02 0.13060105E+03</pdfrwt>
<totfact> 0.41602201E+04</totfact>
</mgrwt>
</event>
<event>
 6    4  0.3189516E-003  0.1318386E+03  0.7818608E-02  0.1224753E+00
         -4   -1    0    0    0  501 -0.00000000000E+00  0.00000000000E+00  0.97923075999E+02  0.97931311199E+02  0.12700000000E+01 0. -1.
         21   -1    0    0  501  502  0.00000000000E+00 -0.00000000000E+00 -0.12279558250E+03  0.12279558250E+03  0.00000000000E+00 0.  1.
         25    2    1    2    0    0 -0.82728878049E+01  0.41221660661E+02  0.44884334876E+02  0.13926956868E+03  0.12495496494E+03 0.  0.
    9000005    1    3    3    0    0 -0.53650665501E+02  0.50023037281E+02 -0.20484692971E+01  0.73388653033E+02  0.10000000000E+01 0.  0.
    9000005    1    3    3    0    0  0.45377777696E+02 -0.88013766203E+01  0.46932804173E+02  0.65880915648E+02  0.10000000000E+01 0.  0.
         -4    1    1    2    0  502  0.82728878049E+01 -0.41221660661E+02 -0.69756841379E+02  0.81457325020E+02  0.12700000000E+01 0.  1.
<mgrwt>
<rscale>  1 0.13183857E+03</rscale>
<asrwt>0</asrwt>
<pdfrwt beam="2">  1       21 0.18891628E-01 0.13183857E+03</pdfrwt>
<pdfrwt beam="1">  1       -4 0.15066227E-01 0.13183857E+03</pdfrwt>
<totfact> 0.38867392E+04</totfact>
</mgrwt>
</event>
<event>
 6    4  0.3189516E-003  0.1271825E+03  0.7818608E-02  0.1231697E+00
          4   -1    0    0  502    0 -0.00000000000E+00  0.00000000000E+00  0.43434378371E+02  0.43452941494E+02  0.12700000000E+01 0.  1.
         21   -1    0    0  501  502  0.00000000000E+00 -0.00000000000E+00 -0.13338026027E+03  0.13338026027E+03  0.00000000000E+00 0.  1.
         25    2    1    2    0    0  0.12838400288E+02  0.19581643010E+02 -0.65882307903E+02  0.14323359227E+03  0.12500847249E+03 0.  0.
    9000005    1    3    3    0    0  0.68204520433E+01  0.97852525684E+01 -0.10334385131E+03  0.10403471217E+03  0.10000000000E+01 0.  0.
    9000005    1    3    3    0    0  0.60179482448E+01  0.97963904414E+01  0.37461543402E+02  0.39198880097E+02  0.10000000000E+01 0.  0.
          4    1    1    2  501    0 -0.12838400288E+02 -0.19581643010E+02 -0.24063573998E+02  0.33599609499E+02  0.12700000000E+01 0. -1.
<mgrwt>
<rscale>  1 0.12718248E+03</rscale>
<asrwt>0</asrwt>
<pdfrwt beam="2">  1       21 0.20520040E-01 0.12718248E+03</pdfrwt>
<pdfrwt beam="1">  1        4 0.66841052E-02 0.12718248E+03</pdfrwt>
<totfact> 0.13069203E+05</totfact>
</mgrwt>
</event>
<event>
 6    4  0.3189516E-003  0.1297939E+03  0.7818608E-02  0.1227762E+00
         -4   -1    0    0    0  501 -0.00000000000E+00  0.00000000000E+00  0.14061849132E+04  0.14061854867E+04  0.12700000000E+01 0. -1.
         21   -1    0    0  501  502  0.00000000000E+00 -0.00000000000E+00 -0.71233150389E+01  0.71233150389E+01  0.00000000000E+00 0.  1.
         25    2    1    2    0    0  0.27983510880E+02  0.20937250024E+02  0.13256904301E+04  0.13320291209E+04  0.12500006822E+03 0.  0.
    9000005    1    3    3    0    0  0.67514952039E+02 -0.69644390769E+01  0.45940500984E+03  0.46439286733E+03  0.10000000000E+01 0.  0.
    9000005    1    3    3    0    0 -0.39531441159E+02  0.27901689101E+02  0.86628542031E+03  0.86763625358E+03  0.10000000000E+01 0.  0.
         -4    1    1    2    0  502 -0.27983510880E+02 -0.20937250024E+02  0.73371168012E+02  0.81279680826E+02  0.12700000000E+01 0.  1.
<mgrwt>
<rscale>  1 0.12979392E+03</rscale>
<asrwt>0</asrwt>
<pdfrwt beam="2">  1       21 0.10958957E-02 0.12979392E+03</pdfrwt>
<pdfrwt beam="1">  1       -4 0.21634467E+00 0.12979392E+03</pdfrwt>
<totfact> 0.15248329E+04</totfact>
</mgrwt>
</event>
<event>
 6    4  0.3189516E-003  0.1271173E+03  0.7818608E-02  0.1231797E+00
         -4   -1    0    0    0  501 -0.00000000000E+00  0.00000000000E+00  0.30910209625E+02  0.30936288708E+02  0.12700000000E+01 0.  1.
         21   -1    0    0  501  502  0.00000000000E+00 -0.00000000000E+00 -0.20351865209E+03  0.20351865209E+03  0.00000000000E+00 0.  1.
         25    2    1    2    0    0  0.16978158020E+02  0.15672138221E+02 -0.16830827687E+03  0.21091820163E+03  0.12499975181E+03 0.  0.
    9000005    1    3    3    0    0 -0.30732811131E+02 -0.85678696488E+01  0.24046823763E+01  0.32010882019E+02  0.10000000000E+01 0.  0.
    9000005    1    3    3    0    0  0.47710969150E+02  0.24240007870E+02 -0.17071295924E+03  0.17890731962E+03  0.10000000000E+01 0.  0.
         -4    1    1    2    0  502 -0.16978158020E+02 -0.15672138221E+02 -0.43001655959E+01  0.23536739160E+02  0.12700000000E+01 0. -1.
<mgrwt>
<rscale>  1 0.12711731E+03</rscale>
<asrwt>0</asrwt>
<pdfrwt beam="2">  1       21 0.31310561E-01 0.12711731E+03</pdfrwt>
<pdfrwt beam="1">  1       -4 0.47577279E-02 0.12711731E+03</pdfrwt>
<totfact> 0.10175697E+05</totfact>
</mgrwt>
</event>
<event>
 6    4  0.3189516E-003  0.1456911E+03  0.7818608E-02  0.1205870E+00
         21   -1    0    0  501  502  0.00000000000E+00  0.00000000000E+00  0.41889641110E+02  0.41889641110E+02  0.00000000000E+00 0.  1.
          4   -1    0    0  502    0 -0.00000000000E+00 -0.00000000000E+00 -0.35618477973E+03  0.35618704386E+03  0.12700000000E+01 0. -1.
         25    2    1    2    0    0  0.71874668734E+02 -0.20835158400E+02 -0.28024023696E+03  0.31584882437E+03  0.12500327041E+03 0.  0.
    9000005    1    3    3    0    0  0.29352142403E+02 -0.59414008633E+02 -0.23062620018E+03  0.23996044860E+03  0.10000000000E+01 0.  0.
    9000005    1    3    3    0    0  0.42522526330E+02  0.38578850233E+02 -0.49614036786E+02  0.75888375770E+02  0.10000000000E+01 0.  0.
          4    1    1    2  501    0 -0.71874668734E+02  0.20835158400E+02 -0.34054901659E+02  0.82227860596E+02  0.12700000000E+01 0.  1.
<mgrwt>
<rscale>  1 0.14569108E+03</rscale>
<asrwt>0</asrwt>
<pdfrwt beam="1">  1       21 0.64445601E-02 0.14569108E+03</pdfrwt>
<pdfrwt beam="2">  1        4 0.54799314E-01 0.14569108E+03</pdfrwt>
<totfact> 0.22925733E+04</totfact>
</mgrwt>
</event>
<event>
 6    4  0.3189516E-003  0.1269434E+03  0.7818608E-02  0.1232063E+00
         -4   -1    0    0    0  501 -0.00000000000E+00  0.00000000000E+00  0.45009463935E+03  0.45009643109E+03  0.12700000000E+01 0. -1.
         21   -1    0    0  501  502  0.00000000000E+00 -0.00000000000E+00 -0.25893170439E+03  0.25893170439E+03  0.00000000000E+00 0.  1.
         25    2    1    2    0    0  0.20723901507E+02 -0.77669836261E+01  0.44064361184E+03  0.45856451104E+03  0.12499924801E+03 0.  0.
    9000005    1    3    3    0    0  0.13422793525E+02  0.58457408794E+02  0.22514506761E+03  0.23299944528E+03  0.10000000000E+01 0.  0.
    9000005    1    3    3    0    0  0.73011079823E+01 -0.66224392420E+02  0.21549854423E+03  0.22556506577E+03  0.10000000000E+01 0.  0.
         -4    1    1    2    0  502 -0.20723901507E+02  0.77669836261E+01 -0.24948067688E+03  0.25046362443E+03  0.12700000000E+01 0.  1.
<mgrwt>
<rscale>  1 0.12694337E+03</rscale>
<asrwt>0</asrwt>
<pdfrwt beam="2">  1       21 0.39835647E-01 0.12694337E+03</pdfrwt>
<pdfrwt beam="1">  1       -4 0.69245706E-01 0.12694337E+03</pdfrwt>
<totfact> 0.49750619E+02</totfact>
</mgrwt>
</event>
<event>
 6    4  0.3189516E-003  0.1362596E+03  0.7818608E-02  0.1218452E+00
         21   -1    0    0  501  502  0.00000000000E+00  0.00000000000E+00  0.23561861629E+02  0.23561861629E+02  0.00000000000E+00 0. -1.
          4   -1    0    0  502    0 -0.00000000000E+00 -0.00000000000E+00 -0.82611844173E+03  0.82611941792E+03  0.12700000000E+01 0.  1.
         25    2    1    2    0    0 -0.82695812068E+01  0.53606900106E+02 -0.77849418429E+03  0.79032896279E+03  0.12499835496E+03 0.  0.
    9000005    1    3    3    0    0 -0.12699202460E+02 -0.32222764486E+02 -0.89142426274E+02  0.95639680344E+02  0.10000000000E+01 0.  0.
    9000005    1    3    3    0    0  0.44296212535E+01  0.85829664592E+02 -0.68935175802E+03  0.69468928245E+03  0.10000000000E+01 0.  0.
          4    1    1    2  501    0  0.82695812068E+01 -0.53606900106E+02 -0.24062395808E+02  0.59352316757E+02  0.12700000000E+01 0. -1.
<mgrwt>
<rscale>  1 0.13625958E+03</rscale>
<asrwt>0</asrwt>
<pdfrwt beam="1">  1       21 0.36249020E-02 0.13625958E+03</pdfrwt>
<pdfrwt beam="2">  1        4 0.12709785E+00 0.13625958E+03</pdfrwt>
<totfact> 0.91158663E+03</totfact>
</mgrwt>
</event>
<event>
 6    4  0.3189516E-003  0.1398732E+03  0.7818608E-02  0.1213500E+00
          4   -1    0    0  502    0 -0.00000000000E+00  0.00000000000E+00  0.16040837927E+03  0.16041340667E+03  0.12700000000E+01 0. -1.
         21   -1    0    0  501  502  0.00000000000E+00 -0.00000000000E+00 -0.74982402955E+02  0.74982402955E+02  0.00000000000E+00 0.  1.
         25    2    1    2    0    0  0.61771045737E+02  0.11125346892E+02  0.98750395035E+02  0.17121957984E+03  0.12500027427E+03 0.  0.
    9000005    1    3    3    0    0  0.93030540265E+02  0.26906846346E+02  0.95537936021E+02  0.13604101228E+03  0.10000000000E+01 0.  0.
    9000005    1    3    3    0    0 -0.31259494528E+02 -0.15781499454E+02  0.32124590141E+01  0.35178567567E+02  0.10000000000E+01 0.  0.
          4    1    1    2  501    0 -0.61771045737E+02 -0.11125346892E+02 -0.13324418719E+02  0.64176229783E+02  0.12700000000E+01 0.  1.
<mgrwt>
<rscale>  1 0.13987317E+03</rscale>
<asrwt>0</asrwt>
<pdfrwt beam="2">  1       21 0.11535754E-01 0.13987317E+03</pdfrwt>
<pdfrwt beam="1">  1        4 0.24679426E-01 0.13987317E+03</pdfrwt>
<totfact> 0.39313502E+04</totfact>
</mgrwt>
</event>
<event>
 6    4  0.3189516E-003  0.1273668E+03  0.7818608E-02  0.1231416E+00
         21   -1    0    0  501  502  0.00000000000E+00  0.00000000000E+00  0.14402151973E+02  0.14402151973E+02  0.00000000000E+00 0. -1.
         -4   -1    0    0    0  501 -0.00000000000E+00 -0.00000000000E+00 -0.51116595086E+03  0.51116752853E+03  0.12700000000E+01 0. -1.
         25    2    1    2    0    0  0.22564603450E+02 -0.93700684713E+01 -0.47816432456E+03  0.49483675260E+03  0.12500132371E+03 0.  0.
    9000005    1    3    3    0    0 -0.11671165087E+02 -0.17172526978E+02 -0.44815208794E+03  0.44863393285E+03  0.10000000000E+01 0.  0.
    9000005    1    3    3    0    0  0.34235768538E+02  0.78024585070E+01 -0.30012236621E+02  0.46202819753E+02  0.10000000000E+01 0.  0.
         -4    1    1    2    0  502 -0.22564603450E+02  0.93700684713E+01 -0.18599474329E+02  0.30732927900E+02  0.12700000000E+01 0.  1.
<mgrwt>
<rscale>  1 0.12736676E+03</rscale>
<asrwt>0</asrwt>
<pdfrwt beam="1">  1       21 0.22157158E-02 0.12736676E+03</pdfrwt>
<pdfrwt beam="2">  1       -4 0.78645339E-01 0.12736676E+03</pdfrwt>
<totfact> 0.61424411E+04</totfact>
</mgrwt>
</event>
<event>
 6    4  0.3189516E-003  0.1278223E+03  0.7818608E-02  0.1230723E+00
         -4   -1    0    0    0  501 -0.00000000000E+00  0.00000000000E+00  0.10845356112E+04  0.10845363548E+04  0.12700000000E+01 0.  1.
         21   -1    0    0  501  502  0.00000000000E+00 -0.00000000000E+00 -0.61114984759E+01  0.61114984759E+01  0.00000000000E+00 0.  1.
         25    2    1    2    0    0 -0.18402352193E+02  0.19357031568E+02  0.72242310163E+03  0.73364410813E+03  0.12500079358E+03 0.  0.
    9000005    1    3    3    0    0 -0.33378541425E+02  0.65375538576E+02  0.53754159857E+03  0.54253115880E+03  0.10000000000E+01 0.  0.
    9000005    1    3    3    0    0  0.14976189232E+02 -0.46018507008E+02  0.18488150306E+03  0.19111294934E+03  0.10000000000E+01 0.  0.
         -4    1    1    2    0  502  0.18402352193E+02 -0.19357031568E+02  0.35600101113E+03  0.35700374516E+03  0.12700000000E+01 0. -1.
<mgrwt>
<rscale>  1 0.12782230E+03</rscale>
<asrwt>0</asrwt>
<pdfrwt beam="2">  1       21 0.94023140E-03 0.12782230E+03</pdfrwt>
<pdfrwt beam="1">  1       -4 0.16686169E+00 0.12782230E+03</pdfrwt>
<totfact> 0.40022621E+04</totfact>
</mgrwt>
</event>
<event>
 6    4  0.3189516E-003  0.1358136E+03  0.7818608E-02  0.1219076E+00
          4   -1    0    0  502    0 -0.00000000000E+00  0.00000000000E+00  0.49719148605E+03  0.49719310806E+03  0.12700000000E+01 0.  1.
         21   -1    0    0  501  502  0.00000000000E+00 -0.00000000000E+00 -0.30809098025E+02  0.30809098025E+02  0.00000000000E+00 0. -1.
         25    2    1    2    0    0  0.18809395956E+02  0.49651076601E+02  0.45343414059E+03  0.47333692647E+03  0.12500521318E+03 0.  0.
    9000005    1    3    3    0    0 -0.77632466515E+01 -0.40478207414E+02  0.11833503807E+03  0.12531135028E+03  0.10000000000E+01 0.  0.
    9000005    1    3    3    0    0  0.26572642608E+02  0.90129284014E+02  0.33509910252E+03  0.34802557619E+03  0.10000000000E+01 0.  0.
          4    1    1    2  501    0 -0.18809395956E+02 -0.49651076601E+02  0.12948247439E+02  0.54665279617E+02  0.12700000000E+01 0. -1.
<mgrwt>
<rscale>  1 0.13581357E+03</rscale>
<asrwt>0</asrwt>
<pdfrwt beam="2">  1       21 0.47398616E-02 0.13581357E+03</pdfrwt>
<pdfrwt beam="1">  1        4 0.76493130E-01 0.13581357E+03</pdfrwt>
<totfact> 0.18808196E+04</totfact>
</mgrwt>
</event>
<event>
 6    4  0.3189516E-003  0.1365564E+03  0.7818608E-02  0.1218039E+00
          4   -1    0    0  502    0 -0.00000000000E+00  0.00000000000E+00  0.75835962111E+02  0.75846595503E+02  0.12700000000E+01 0. -1.
         21   -1    0    0  501  502  0.00000000000E+00 -0.00000000000E+00 -0.15999410226E+03  0.15999410226E+03  0.00000000000E+00 0. -1.
         25    2    1    2    0    0  0.26595374450E+02 -0.48148926405E+02 -0.15237234854E+01  0.13656485592E+03  0.12498801976E+03 0.  0.
    9000005    1    3    3    0    0  0.57572533851E+02 -0.38908606809E+02  0.42859575639E+02  0.81648144877E+02  0.10000000000E+01 0.  0.
    9000005    1    3    3    0    0 -0.30977159402E+02 -0.92403195957E+01 -0.44383299124E+02  0.54916711045E+02  0.10000000000E+01 0.  0.
          4    1    1    2  501    0 -0.26595374450E+02  0.48148926405E+02 -0.82634416666E+02  0.99275841844E+02  0.12700000000E+01 0.  1.
<mgrwt>
<rscale>  1 0.13655636E+03</rscale>
<asrwt>0</asrwt>
<pdfrwt beam="2">  1       21 0.24614477E-01 0.13655636E+03</pdfrwt>
<pdfrwt beam="1">  1        4 0.11668277E-01 0.13655636E+03</pdfrwt>
<totfact> 0.37028159E+04</totfact>
</mgrwt>
</event>
<event>
 6    4  0.3189516E-003  0.1270510E+03  0.7818608E-02  0.1231898E+00
         21   -1    0    0  501  502  0.00000000000E+00  0.00000000000E+00  0.35427030840E+01  0.35427030840E+01  0.00000000000E+00 0.  1.
          4   -1    0    0  502    0 -0.00000000000E+00 -0.00000000000E+00 -0.16543218719E+04  0.16543223593E+04  0.12700000000E+01 0.  1.
         25    2    1    2    0    0 -0.40572225986E+01  0.22357213579E+02 -0.15009163554E+04  0.15062841210E+04  0.12500256547E+03 0.  0.
    9000005    1    3    3    0    0 -0.37253462433E+01 -0.33870733118E+02 -0.11789767832E+04  0.11794695248E+04  0.10000000000E+01 0.  0.
    9000005    1    3    3    0    0 -0.33187635533E+00  0.56227946697E+02 -0.32193957221E+03  0.32681459619E+03  0.10000000000E+01 0.  0.
          4    1    1    2  501    0  0.40572225986E+01 -0.22357213579E+02 -0.14986281340E+03  0.15158094140E+03  0.12700000000E+01 0. -1.
<mgrwt>
<rscale>  1 0.12705096E+03</rscale>
<asrwt>0</asrwt>
<pdfrwt beam="1">  1       21 0.54502912E-03 0.12705096E+03</pdfrwt>
<pdfrwt beam="2">  1        4 0.25452960E+00 0.12705096E+03</pdfrwt>
<totfact> 0.27146131E+04</totfact>
</mgrwt>
</event>
<event>
 6    4  0.3189516E-003  0.1266462E+03  0.7818608E-02  0.1232519E+00
         21   -1    0    0  501  502  0.00000000000E+00  0.00000000000E+00  0.69470302183E+01  0.69470302183E+01  0.00000000000E+00 0.  1.
         -4   -1    0    0    0  501 -0.00000000000E+00 -0.00000000000E+00 -0.82282938743E+03  0.82283036752E+03  0.12700000000E+01 0. -1.
         25    2    1    2    0    0  0.17179326280E+02 -0.10918690526E+02 -0.75555699252E+03  0.76609765544E+03  0.12499960669E+03 0.  0.
    9000005    1    3    3    0    0 -0.43606867560E+02 -0.32663464284E+02 -0.47970617206E+03  0.48279133413E+03  0.10000000000E+01 0.  0.
    9000005    1    3    3    0    0  0.60786193840E+02  0.21744773758E+02 -0.27585082045E+03  0.28330632131E+03  0.10000000000E+01 0.  0.
         -4    1    1    2    0  502 -0.17179326280E+02  0.10918690526E+02 -0.60325364696E+02  0.63679742304E+02  0.12700000000E+01 0.  1.
<mgrwt>
<rscale>  1 0.12664616E+03</rscale>
<asrwt>0</asrwt>
<pdfrwt beam="1">  1       21 0.10687745E-02 0.12664616E+03</pdfrwt>
<pdfrwt beam="2">  1       -4 0.12659807E+00 0.12664616E+03</pdfrwt>
<totfact> 0.65575296E+04</totfact>
</mgrwt>
</event>
<event>
 6    4  0.3189516E-003  0.1277853E+03  0.7818608E-02  0.1230779E+00
         21   -1    0    0  501  502  0.00000000000E+00  0.00000000000E+00  0.11751478788E+03  0.11751478788E+03  0.00000000000E+00 0.  1.
          4   -1    0    0  502    0 -0.00000000000E+00 -0.00000000000E+00 -0.13999686422E+03  0.14000262459E+03  0.12700000000E+01 0. -1.
         25    2    1    2    0    0  0.67679633205E+01 -0.25649346920E+02 -0.10841171347E+03  0.16757737822E+03  0.12500153499E+03 0.  0.
    9000005    1    3    3    0    0  0.33185994841E+02  0.42918414792E+02 -0.44083192406E+02  0.69911575826E+02  0.10000000000E+01 0.  0.
    9000005    1    3    3    0    0 -0.26418031520E+02 -0.68567761712E+02 -0.64328521060E+02  0.97665802394E+02  0.10000000000E+01 0.  0.
          4    1    1    2  501    0 -0.67679633205E+01  0.25649346920E+02  0.85929637128E+02  0.89940034255E+02  0.12700000000E+01 0.  1.
<mgrwt>
<rscale>  1 0.12778528E+03</rscale>
<asrwt>0</asrwt>
<pdfrwt beam="1">  1       21 0.18079198E-01 0.12778528E+03</pdfrwt>
<pdfrwt beam="2">  1        4 0.21538950E-01 0.12778528E+03</pdfrwt>
<totfact> 0.22243579E+04</totfact>
</mgrwt>
</event>
<event>
 6    4  0.3189516E-003  0.1274438E+03  0.7818608E-02  0.1231299E+00
         21   -1    0    0  501  502  0.00000000000E+00  0.00000000000E+00  0.30209949890E+02  0.30209949890E+02  0.00000000000E+00 0.  1.
          4   -1    0    0  502    0 -0.00000000000E+00 -0.00000000000E+00 -0.44503891327E+03  0.44504072535E+03  0.12700000000E+01 0. -1.
         25    2    1    2    0    0  0.12747203922E+02  0.21321900704E+02 -0.42837250364E+03  0.44692833353E+03  0.12499927512E+03 0.  0.
    9000005    1    3    3    0    0  0.16196894678E+02 -0.51191022440E+02 -0.21220441886E+03  0.21889398247E+03  0.10000000000E+01 0.  0.
    9000005    1    3    3    0    0 -0.34496907564E+01  0.72512923144E+02 -0.21616808478E+03  0.22803435106E+03  0.10000000000E+01 0.  0.
          4    1    1    2  501    0 -0.12747203922E+02 -0.21321900704E+02  0.13543540259E+02  0.28322341715E+02  0.12700000000E+01 0.  1.
<mgrwt>
<rscale>  1 0.12744384E+03</rscale>
<asrwt>0</asrwt>
<pdfrwt beam="1">  1       21 0.46476848E-02 0.12744384E+03</pdfrwt>
<pdfrwt beam="2">  1        4 0.68469715E-01 0.12744384E+03</pdfrwt>
<totfact> 0.24544436E+04</totfact>
</mgrwt>
</event>
<event>
 6    4  0.3189516E-003  0.1291371E+03  0.7818608E-02  0.1228742E+00
         21   -1    0    0  501  502  0.00000000000E+00  0.00000000000E+00  0.15396744840E+02  0.15396744840E+02  0.00000000000E+00 0. -1.
          4   -1    0    0  502    0 -0.00000000000E+00 -0.00000000000E+00 -0.54848127798E+03  0.54848274831E+03  0.12700000000E+01 0.  1.
         25    2    1    2    0    0 -0.85541514575E+01 -0.31232393252E+02 -0.50417724126E+03  0.52045276959E+03  0.12501103501E+03 0.  0.
    9000005    1    3    3    0    0 -0.31899258579E+02  0.36102924376E+02 -0.11315807733E+03  0.12299078953E+03  0.10000000000E+01 0.  0.
    9000005    1    3    3    0    0  0.23345107121E+02 -0.67335317628E+02 -0.39101916394E+03  0.39746198006E+03  0.10000000000E+01 0.  0.
          4    1    1    2  501    0  0.85541514575E+01  0.31232393252E+02 -0.28907291881E+02  0.43426723562E+02  0.12700000000E+01 0. -1.
<mgrwt>
<rscale>  1 0.12913712E+03</rscale>
<asrwt>0</asrwt>
<pdfrwt beam="1">  1       21 0.23687302E-02 0.12913712E+03</pdfrwt>
<pdfrwt beam="2">  1        4 0.84385868E-01 0.12913712E+03</pdfrwt>
<totfact> 0.47244053E+04</totfact>
</mgrwt>
</event>
<event>
 6    4  0.3189516E-003  0.1267824E+03  0.7818608E-02  0.1232310E+00
         -4   -1    0    0    0  501 -0.00000000000E+00  0.00000000000E+00  0.21355851960E+04  0.21355855736E+04  0.12700000000E+01 0.  1.
         21   -1    0    0  501  502  0.00000000000E+00 -0.00000000000E+00 -0.36846547967E+01  0.36846547967E+01  0.00000000000E+00 0.  1.
         25    2    1    2    0    0 -0.10700013413E+01 -0.21117329474E+02  0.20693535683E+04  0.20732336989E+04  0.12500677290E+03 0.  0.
    9000005    1    3    3    0    0 -0.22978198999E+01 -0.19552630694E+02  0.20705922761E+04  0.20706861083E+04  0.10000000000E+01 0.  0.
    9000005    1    3    3    0    0  0.12278185586E+01 -0.15646987799E+01 -0.12387078347E+01  0.25475905842E+01  0.10000000000E+01 0.  0.
         -4    1    1    2    0  502  0.10700013413E+01  0.21117329474E+02  0.62546972934E+02  0.66036529513E+02  0.12700000000E+01 0. -1.
<mgrwt>
<rscale>  1 0.12678241E+03</rscale>
<asrwt>0</asrwt>
<pdfrwt beam="2">  1       21 0.56687168E-03 0.12678241E+03</pdfrwt>
<pdfrwt beam="1">  1       -4 0.32856744E+00 0.12678241E+03</pdfrwt>
<totfact> 0.95479875E+03</totfact>
</mgrwt>
</event>
<event>
 6    4  0.3189516E-003  0.1324639E+03  0.7818608E-02  0.1223845E+00
         21   -1    0    0  501  502  0.00000000000E+00  0.00000000000E+00  0.27992420177E+03  0.27992420177E+03  0.00000000000E+00 0. -1.
          4   -1    0    0  502    0 -0.00000000000E+00 -0.00000000000E+00 -0.48762515286E+02  0.48779050801E+02  0.12700000000E+01 0.  1.
         25    2    1    2    0    0  0.38494753864E+02  0.20961643982E+02  0.48837391588E+02  0.14117992601E+03  0.12500177638E+03 0.  0.
    9000005    1    3    3    0    0 -0.14092082510E+02  0.31371084442E+02 -0.30128056589E+02  0.45732171634E+02  0.10000000000E+01 0.  0.
    9000005    1    3    3    0    0  0.52586836374E+02 -0.10409440460E+02  0.78965448177E+02  0.95447754380E+02  0.10000000000E+01 0.  0.
          4    1    1    2  501    0 -0.38494753864E+02 -0.20961643982E+02  0.18232429489E+03  0.18752332655E+03  0.12700000000E+01 0. -1.
<mgrwt>
<rscale>  1 0.13246388E+03</rscale>
<asrwt>0</asrwt>
<pdfrwt beam="1">  1       21 0.43065261E-01 0.13246388E+03</pdfrwt>
<pdfrwt beam="2">  1        4 0.75034192E-02 0.13246388E+03</pdfrwt>
<totfact> 0.25977139E+04</totfact>
</mgrwt>
</event>
<event>
 6    4  0.3189516E-003  0.1268301E+03  0.7818608E-02  0.1232237E+00
          4   -1    0    0  502    0 -0.00000000000E+00  0.00000000000E+00  0.22987603777E+03  0.22987954594E+03  0.12700000000E+01 0.  1.
         21   -1    0    0  501  502  0.00000000000E+00 -0.00000000000E+00 -0.30690316290E+02  0.30690316290E+02  0.00000000000E+00 0. -1.
         25    2    1    2    0    0 -0.18526158694E+01  0.21388520970E+02  0.20236983232E+03  0.23882929009E+03  0.12499991903E+03 0.  0.
    9000005    1    3    3    0    0 -0.12029508000E+02  0.62458302475E+02  0.18009910439E+03  0.19100375916E+03  0.10000000000E+01 0.  0.
    9000005    1    3    3    0    0  0.10176892130E+02 -0.41069781505E+02  0.22270727932E+02  0.47825530932E+02  0.10000000000E+01 0.  0.
          4    1    1    2  501    0  0.18526158694E+01 -0.21388520970E+02 -0.31841108450E+01  0.21740572134E+02  0.12700000000E+01 0. -1.
<mgrwt>
<rscale>  1 0.12683013E+03</rscale>
<asrwt>0</asrwt>
<pdfrwt beam="2">  1       21 0.47215873E-02 0.12683013E+03</pdfrwt>
<pdfrwt beam="1">  1        4 0.35367834E-01 0.12683013E+03</pdfrwt>
<totfact> 0.91448190E+04</totfact>
</mgrwt>
</event>
<event>
 6    4  0.3189516E-003  0.1269266E+03  0.7818608E-02  0.1232089E+00
          4   -1    0    0  502    0 -0.00000000000E+00  0.00000000000E+00  0.26868613511E+01  0.29718889481E+01  0.12700000000E+01 0.  1.
         21   -1    0    0  501  502  0.00000000000E+00 -0.00000000000E+00 -0.21046683924E+04  0.21046683924E+04  0.00000000000E+00 0.  1.
         25    2    1    2    0    0  0.12532830516E+02  0.18106186842E+02 -0.15383673800E+04  0.15435946892E+04  0.12500185151E+03 0.  0.
    9000005    1    3    3    0    0  0.66322224428E+02 -0.30394366718E+01 -0.97876726601E+03  0.98101694003E+03  0.10000000000E+01 0.  0.
    9000005    1    3    3    0    0 -0.53789393911E+02  0.21145623514E+02 -0.55960011397E+03  0.56257774916E+03  0.10000000000E+01 0.  0.
          4    1    1    2  501    0 -0.12532830516E+02 -0.18106186842E+02 -0.56361415105E+03  0.56404559213E+03  0.12700000000E+01 0. -1.
<mgrwt>
<rscale>  1 0.12692663E+03</rscale>
<asrwt>0</asrwt>
<pdfrwt beam="2">  1       21 0.32379507E+00 0.12692663E+03</pdfrwt>
<pdfrwt beam="1">  1        4 0.43531805E-03 0.12692663E+03</pdfrwt>
<totfact> 0.10967022E+04</totfact>
</mgrwt>
</event>
<event>
 6    4  0.3189516E-003  0.1372276E+03  0.7818608E-02  0.1217109E+00
         -4   -1    0    0    0  501 -0.00000000000E+00  0.00000000000E+00  0.25269633344E+03  0.25269952480E+03  0.12700000000E+01 0. -1.
         21   -1    0    0  501  502  0.00000000000E+00 -0.00000000000E+00 -0.13800956415E+03  0.13800956415E+03  0.00000000000E+00 0.  1.
         25    2    1    2    0    0  0.56144817451E+02 -0.74516065274E+01  0.22680647383E+03  0.26508979101E+03  0.12499461492E+03 0.  0.
    9000005    1    3    3    0    0  0.31826350317E+02 -0.65636652256E+02  0.13897538806E+03  0.15695937430E+03  0.10000000000E+01 0.  0.
    9000005    1    3    3    0    0  0.24318467134E+02  0.58185045728E+02  0.87831085768E+02  0.10813041671E+03  0.10000000000E+01 0.  0.
         -4    1    1    2    0  502 -0.56144817451E+02  0.74516065274E+01 -0.11211970455E+03  0.12561929794E+03  0.12700000000E+01 0.  1.
<mgrwt>
<rscale>  1 0.13722762E+03</rscale>
<asrwt>0</asrwt>
<pdfrwt beam="2">  1       21 0.21232241E-01 0.13722762E+03</pdfrwt>
<pdfrwt beam="1">  1       -4 0.38877054E-01 0.13722762E+03</pdfrwt>
<totfact> 0.54743461E+03</totfact>
</mgrwt>
</event>
<event>
 6    4  0.3189516E-003  0.1289324E+03  0.7818608E-02  0.1229049E+00
         21   -1    0    0  501  502  0.00000000000E+00  0.00000000000E+00  0.26663566234E+02  0.26663566234E+02  0.00000000000E+00 0.  1.
         -4   -1    0    0    0  501 -0.00000000000E+00 -0.00000000000E+00 -0.31674991050E+03  0.31675245650E+03  0.12700000000E+01 0. -1.
         25    2    1    2    0    0  0.31370883297E+02 -0.38151358712E+01 -0.28302591079E+03  0.31101000167E+03  0.12499946951E+03 0.  0.
    9000005    1    3    3    0    0 -0.92298265374E+01 -0.36230177882E+02 -0.19058570347E+02  0.41976714866E+02  0.10000000000E+01 0.  0.
    9000005    1    3    3    0    0  0.40600709834E+02  0.32415042011E+02 -0.26396734044E+03  0.26903328680E+03  0.10000000000E+01 0.  0.
         -4    1    1    2    0  502 -0.31370883297E+02  0.38151358712E+01 -0.70604334735E+01  0.32406021067E+02  0.12700000000E+01 0.  1.
<mgrwt>
<rscale>  1 0.12893237E+03</rscale>
<asrwt>0</asrwt>
<pdfrwt beam="1">  1       21 0.41020870E-02 0.12893237E+03</pdfrwt>
<pdfrwt beam="2">  1       -4 0.48733280E-01 0.12893237E+03</pdfrwt>
<totfact> 0.61503221E+04</totfact>
</mgrwt>
</event>
<event>
 6    4  0.3189516E-003  0.1310734E+03  0.7818608E-02  0.1225872E+00
         21   -1    0    0  501  502  0.00000000000E+00  0.00000000000E+00  0.62326267726E+02  0.62326267726E+02  0.00000000000E+00 0.  1.
         -4   -1    0    0    0  501 -0.00000000000E+00 -0.00000000000E+00 -0.15817600528E+03  0.15818110363E+03  0.12700000000E+01 0. -1.
         25    2    1    2    0    0  0.35680607912E+01  0.39264083102E+02 -0.11704581113E+03  0.17572695472E+03  0.12500336568E+03 0.  0.
    9000005    1    3    3    0    0  0.42638013934E+02 -0.26966267830E+02 -0.26716463775E+02  0.57095965440E+02  0.10000000000E+01 0.  0.
    9000005    1    3    3    0    0 -0.39069953143E+02  0.66230350932E+02 -0.90329347357E+02  0.11863098928E+03  0.10000000000E+01 0.  0.
         -4    1    1    2    0  502 -0.35680607912E+01 -0.39264083102E+02  0.21196073575E+02  0.44780416642E+02  0.12700000000E+01 0.  1.
<mgrwt>
<rscale>  1 0.13107342E+03</rscale>
<asrwt>0</asrwt>
<pdfrwt beam="1">  1       21 0.95886567E-02 0.13107342E+03</pdfrwt>
<pdfrwt beam="2">  1       -4 0.24336157E-01 0.13107342E+03</pdfrwt>
<totfact> 0.55399056E+04</totfact>
</mgrwt>
</event>
<event>
 6    4  0.3189516E-003  0.1676078E+03  0.7818608E-02  0.1180366E+00
         -4   -1    0    0    0  501 -0.00000000000E+00  0.00000000000E+00  0.27541739572E+03  0.27542032380E+03  0.12700000000E+01 0.  1.
         21   -1    0    0  501  502  0.00000000000E+00 -0.00000000000E+00 -0.21889747111E+03  0.21889747111E+03  0.00000000000E+00 0. -1.
         25    2    1    2    0    0 -0.10694335939E+03 -0.32101503190E+02  0.23206748340E+03  0.28626504458E+03  0.12499988110E+03 0.  0.
    9000005    1    3    3    0    0 -0.12915827940E+03 -0.54675572897E+01  0.15562229270E+03  0.20231424395E+03  0.10000000000E+01 0.  0.
    9000005    1    3    3    0    0  0.22214920012E+02 -0.26633945901E+02  0.76445190699E+02  0.83950800630E+02  0.10000000000E+01 0.  0.
         -4    1    1    2    0  502  0.10694335939E+03  0.32101503190E+02 -0.17554755878E+03  0.20805275033E+03  0.12700000000E+01 0. -1.
<mgrwt>
<rscale>  1 0.16760775E+03</rscale>
<asrwt>0</asrwt>
<pdfrwt beam="2">  1       21 0.33676534E-01 0.16760775E+03</pdfrwt>
<pdfrwt beam="1">  1       -4 0.42372416E-01 0.16760775E+03</pdfrwt>
<totfact> 0.19298072E+03</totfact>
</mgrwt>
</event>
<event>
 6    4  0.3189516E-003  0.1295376E+03  0.7818608E-02  0.1228143E+00
         -4   -1    0    0    0  501 -0.00000000000E+00  0.00000000000E+00  0.23902899687E+02  0.23936614494E+02  0.12700000000E+01 0. -1.
         21   -1    0    0  501  502  0.00000000000E+00 -0.00000000000E+00 -0.47591917762E+03  0.47591917762E+03  0.00000000000E+00 0.  1.
         25    2    1    2    0    0 -0.33201110111E+02  0.72380303895E+01 -0.15998942552E+03  0.20585579513E+03  0.12500115725E+03 0.  0.
    9000005    1    3    3    0    0 -0.15604937521E+02 -0.57848595510E+01  0.19144289499E+02  0.25386659794E+02  0.10000000000E+01 0.  0.
    9000005    1    3    3    0    0 -0.17596172590E+02  0.13022889940E+02 -0.17913371502E+03  0.18046913534E+03  0.10000000000E+01 0.  0.
         -4    1    1    2    0  502  0.33201110111E+02 -0.72380303895E+01 -0.29202685241E+03  0.29399999698E+03  0.12700000000E+01 0.  1.
<mgrwt>
<rscale>  1 0.12953761E+03</rscale>
<asrwt>0</asrwt>
<pdfrwt beam="2">  1       21 0.73218332E-01 0.12953761E+03</pdfrwt>
<pdfrwt beam="1">  1       -4 0.36800932E-02 0.12953761E+03</pdfrwt>
<totfact> 0.26758011E+04</totfact>
</mgrwt>
</event>
<event>
 6    4  0.3189516E-003  0.1440722E+03  0.7818608E-02  0.1207952E+00
         21   -1    0    0  501  502  0.00000000000E+00  0.00000000000E+00  0.44207260959E+03  0.44207260959E+03  0.00000000000E+00 0. -1.
         -4   -1    0    0    0  501 -0.00000000000E+00 -0.00000000000E+00 -0.63065885138E+02  0.63078671263E+02  0.12700000000E+01 0.  1.
         25    2    1    2    0    0 -0.60785853771E+02 -0.37903679003E+02  0.27823735721E+02  0.14673432621E+03  0.12500077327E+03 0.  0.
    9000005    1    3    3    0    0  0.13360264470E+02 -0.38626331010E+02  0.54320070186E+02  0.67986470264E+02  0.10000000000E+01 0.  0.
    9000005    1    3    3    0    0 -0.74146118241E+02  0.72265200675E+00 -0.26496334465E+02  0.78747855947E+02  0.10000000000E+01 0.  0.
         -4    1    1    2    0  502  0.60785853771E+02  0.37903679003E+02  0.35118298873E+03  0.35841695464E+03  0.12700000000E+01 0. -1.
<mgrwt>
<rscale>  1 0.14407221E+03</rscale>
<asrwt>0</asrwt>
<pdfrwt beam="1">  1       21 0.68011169E-01 0.14407221E+03</pdfrwt>
<pdfrwt beam="2">  1       -4 0.97035680E-02 0.14407221E+03</pdfrwt>
<totfact> 0.65422249E+03</totfact>
</mgrwt>
</event>
<event>
 6    4  0.3189516E-003  0.1395439E+03  0.7818608E-02  0.1213944E+00
         -4   -1    0    0    0  501 -0.00000000000E+00  0.00000000000E+00  0.39770646931E+02  0.39790919282E+02  0.12700000000E+01 0.  1.
         21   -1    0    0  501  502  0.00000000000E+00 -0.00000000000E+00 -0.54347167887E+03  0.54347167887E+03  0.00000000000E+00 0. -1.
         25    2    1    2    0    0 -0.55349802993E+02  0.28166428601E+02 -0.92549651510E+02  0.16744530784E+03  0.12496217321E+03 0.  0.
    9000005    1    3    3    0    0  0.23824277253E+02  0.10422339972E+02  0.17024066769E+02  0.31097270080E+02  0.10000000000E+01 0.  0.
    9000005    1    3    3    0    0 -0.79174080246E+02  0.17744088629E+02 -0.10957371828E+03  0.13634803776E+03  0.10000000000E+01 0.  0.
         -4    1    1    2    0  502  0.55349802993E+02 -0.28166428601E+02 -0.41115138043E+03  0.41581729031E+03  0.12700000000E+01 0. -1.
<mgrwt>
<rscale>  1 0.13954388E+03</rscale>
<asrwt>0</asrwt>
<pdfrwt beam="2">  1       21 0.83611026E-01 0.13954388E+03</pdfrwt>
<pdfrwt beam="1">  1       -4 0.61202347E-02 0.13954388E+03</pdfrwt>
<totfact> 0.88576474E+03</totfact>
</mgrwt>
</event>
<event>
 6    4  0.3189516E-003  0.1269086E+03  0.7818608E-02  0.1232116E+00
         21   -1    0    0  501  502  0.00000000000E+00  0.00000000000E+00  0.47747020694E+03  0.47747020694E+03  0.00000000000E+00 0. -1.
         -4   -1    0    0    0  501 -0.00000000000E+00 -0.00000000000E+00 -0.11729538826E+02  0.11798092264E+02  0.12700000000E+01 0. -1.
         25    2    1    2    0    0 -0.10110902163E+02 -0.19436743544E+02  0.37423941139E+03  0.39517201753E+03  0.12500307621E+03 0.  0.
    9000005    1    3    3    0    0 -0.54191903629E+02  0.19401863756E+02  0.26449296955E+03  0.27068565843E+03  0.10000000000E+01 0.  0.
    9000005    1    3    3    0    0  0.44081001466E+02 -0.38838607301E+02  0.10974644183E+03  0.12448635910E+03  0.10000000000E+01 0.  0.
         -4    1    1    2    0  502  0.10110902163E+02  0.19436743544E+02  0.91501256728E+02  0.94096281675E+02  0.12700000000E+01 0.  1.
<mgrwt>
<rscale>  1 0.12690857E+03</rscale>
<asrwt>0</asrwt>
<pdfrwt beam="1">  1       21 0.73456940E-01 0.12690857E+03</pdfrwt>
<pdfrwt beam="2">  1       -4 0.18099481E-02 0.12690857E+03</pdfrwt>
<totfact> 0.79924984E+04</totfact>
</mgrwt>
</event>
<event>
 6    4  0.3189516E-003  0.1288716E+03  0.7818608E-02  0.1229140E+00
         21   -1    0    0  501  502  0.00000000000E+00  0.00000000000E+00  0.12392581649E+03  0.12392581649E+03  0.00000000000E+00 0.  1.
         -4   -1    0    0    0  501 -0.00000000000E+00 -0.00000000000E+00 -0.38169498098E+03  0.38169709378E+03  0.12700000000E+01 0. -1.
         25    2    1    2    0    0 -0.25696609097E+02  0.17942208222E+02 -0.36857903247E+03  0.39045920811E+03  0.12500260582E+03 0.  0.
    9000005    1    3    3    0    0 -0.73854714850E+02 -0.65550710522E+01 -0.23267945512E+03  0.24420937062E+03  0.10000000000E+01 0.  0.
    9000005    1    3    3    0    0  0.48158105753E+02  0.24497279274E+02 -0.13589957735E+03  0.14624983749E+03  0.10000000000E+01 0.  0.
         -4    1    1    2    0  502  0.25696609097E+02 -0.17942208222E+02  0.11080986798E+03  0.11516370217E+03  0.12700000000E+01 0.  1.
<mgrwt>
<rscale>  1 0.12887160E+03</rscale>
<asrwt>0</asrwt>
<pdfrwt beam="1">  1       21 0.19065511E-01 0.12887160E+03</pdfrwt>
<pdfrwt beam="2">  1       -4 0.58722967E-01 0.12887160E+03</pdfrwt>
<totfact> 0.28898389E+03</totfact>
</mgrwt>
</event>
<event>
 6    4  0.3189516E-003  0.1281808E+03  0.7818608E-02  0.1230180E+00
         21   -1    0    0  501  502  0.00000000000E+00  0.00000000000E+00  0.41986058581E+02  0.41986058581E+02  0.00000000000E+00 0.  1.
         -4   -1    0    0    0  501 -0.00000000000E+00 -0.00000000000E+00 -0.15040600017E+03  0.15041136190E+03  0.12700000000E+01 0.  1.
         25    2    1    2    0    0  0.25520306774E+02  0.12382637956E+02 -0.74869350134E+02  0.14844436748E+03  0.12500277944E+03 0.  0.
    9000005    1    3    3    0    0  0.13952485779E+02 -0.48975946844E+02  0.20558860691E-01  0.50934425012E+02  0.10000000000E+01 0.  0.
    9000005    1    3    3    0    0  0.11567820995E+02  0.61358584800E+02 -0.74889908995E+02  0.97509942470E+02  0.10000000000E+01 0.  0.
         -4    1    1    2    0  502 -0.25520306774E+02 -0.12382637956E+02 -0.33550591456E+02  0.43953052995E+02  0.12700000000E+01 0. -1.
<mgrwt>
<rscale>  1 0.12818077E+03</rscale>
<asrwt>0</asrwt>
<pdfrwt beam="1">  1       21 0.64593936E-02 0.12818077E+03</pdfrwt>
<pdfrwt beam="2">  1       -4 0.23141275E-01 0.12818077E+03</pdfrwt>
<totfact> 0.11962838E+05</totfact>
</mgrwt>
</event>
<event>
 6    4  0.3189516E-003  0.1402805E+03  0.7818608E-02  0.1212952E+00
         -4   -1    0    0    0  501 -0.00000000000E+00  0.00000000000E+00  0.86686698886E+02  0.86696001429E+02  0.12700000000E+01 0.  1.
         21   -1    0    0  501  502  0.00000000000E+00 -0.00000000000E+00 -0.15664278458E+04  0.15664278458E+04  0.00000000000E+00 0. -1.
         25    2    1    2    0    0 -0.57867573627E+02 -0.26563119328E+02  0.28827236892E+02  0.14321178459E+03  0.12499740106E+03 0.  0.
    9000005    1    3    3    0    0  0.39657225754E+00  0.45571526679E+02 -0.16107193147E+01  0.45612670719E+02  0.10000000000E+01 0.  0.
    9000005    1    3    3    0    0 -0.58264145884E+02 -0.72134646007E+02  0.30437956207E+02  0.97599113870E+02  0.10000000000E+01 0.  0.
         -4    1    1    2    0  502  0.57867573627E+02  0.26563119328E+02 -0.15085683838E+04  0.15099120626E+04  0.12700000000E+01 0. -1.
<mgrwt>
<rscale>  1 0.14028045E+03</rscale>
<asrwt>0</asrwt>
<pdfrwt beam="2">  1       21 0.24098891E+00 0.14028045E+03</pdfrwt>
<pdfrwt beam="1">  1       -4 0.13337170E-01 0.14028045E+03</pdfrwt>
<totfact> 0.15070500E+02</totfact>
</mgrwt>
</event>
<event>
 6    4  0.3189516E-003  0.1273955E+03  0.7818608E-02  0.1231372E+00
         21   -1    0    0  501  502  0.00000000000E+00  0.00000000000E+00  0.16125824766E+03  0.16125824766E+03  0.00000000000E+00 0. -1.
          4   -1    0    0  502    0 -0.00000000000E+00 -0.00000000000E+00 -0.35811384893E+02  0.35833897192E+02  0.12700000000E+01 0. -1.
         25    2    1    2    0    0 -0.24578726718E+02 -0.53618070243E+00  0.10479385718E+03  0.16495866019E+03  0.12500082309E+03 0.  0.
    9000005    1    3    3    0    0  0.45115232786E+01 -0.81753856181E+01 -0.27617617748E+02  0.29170594481E+02  0.10000000000E+01 0.  0.
    9000005    1    3    3    0    0 -0.29090249996E+02  0.76392049157E+01  0.13241147493E+03  0.13578806571E+03  0.10000000000E+01 0.  0.
          4    1    1    2  501    0  0.24578726718E+02  0.53618070243E+00  0.20653005590E+02  0.32133484665E+02  0.12700000000E+01 0.  1.
<mgrwt>
<rscale>  1 0.12739548E+03</rscale>
<asrwt>0</asrwt>
<pdfrwt beam="1">  1       21 0.24808961E-01 0.12739548E+03</pdfrwt>
<pdfrwt beam="2">  1        4 0.55115603E-02 0.12739548E+03</pdfrwt>
<totfact> 0.12539580E+05</totfact>
</mgrwt>
</event>
<event>
 6    4  0.3189516E-003  0.1328139E+03  0.7818608E-02  0.1223339E+00
         21   -1    0    0  501  502  0.00000000000E+00  0.00000000000E+00  0.12376556001E+03  0.12376556001E+03  0.00000000000E+00 0.  1.
         -4   -1    0    0    0  501 -0.00000000000E+00 -0.00000000000E+00 -0.14506189392E+03  0.14506745317E+03  0.12700000000E+01 0. -1.
         25    2    1    2    0    0 -0.44377966910E+02 -0.68019688982E+01 -0.10800258621E+03  0.17118436846E+03  0.12499543450E+03 0.  0.
    9000005    1    3    3    0    0 -0.83066390965E+02 -0.20150884348E+02 -0.95957373942E+02  0.12851031500E+03  0.10000000000E+01 0.  0.
    9000005    1    3    3    0    0  0.38688424055E+02  0.13348915450E+02 -0.12045212272E+02  0.42674053454E+02  0.10000000000E+01 0.  0.
         -4    1    1    2    0  502  0.44377966910E+02  0.68019688982E+01  0.86706252301E+02  0.97648644722E+02  0.12700000000E+01 0.  1.
<mgrwt>
<rscale>  1 0.13281389E+03</rscale>
<asrwt>0</asrwt>
<pdfrwt beam="1">  1       21 0.19040855E-01 0.13281389E+03</pdfrwt>
<pdfrwt beam="2">  1       -4 0.22318143E-01 0.13281389E+03</pdfrwt>
<totfact> 0.19036327E+04</totfact>
</mgrwt>
</event>
<event>
 6    4  0.3189516E-003  0.1295600E+03  0.7818608E-02  0.1228110E+00
         21   -1    0    0  501  502  0.00000000000E+00  0.00000000000E+00  0.25972269621E+03  0.25972269621E+03  0.00000000000E+00 0.  1.
         -4   -1    0    0    0  501 -0.00000000000E+00 -0.00000000000E+00 -0.28509608540E+02  0.28537881476E+02  0.12700000000E+01 0.  1.
         25    2    1    2    0    0  0.29031359258E+02 -0.17844327989E+02  0.13935804797E+03  0.19027996184E+03  0.12499823393E+03 0.  0.
    9000005    1    3    3    0    0 -0.10021473774E+02  0.30550731247E+02  0.12133438926E+03  0.12552613725E+03  0.10000000000E+01 0.  0.
    9000005    1    3    3    0    0  0.39052833032E+02 -0.48395059236E+02  0.18023658707E+02  0.64753824593E+02  0.10000000000E+01 0.  0.
         -4    1    1    2    0  502 -0.29031359258E+02  0.17844327989E+02  0.91855039705E+02  0.97980615843E+02  0.12700000000E+01 0. -1.
<mgrwt>
<rscale>  1 0.12956002E+03</rscale>
<asrwt>0</asrwt>
<pdfrwt beam="1">  1       21 0.39957336E-01 0.12956002E+03</pdfrwt>
<pdfrwt beam="2">  1       -4 0.43885075E-02 0.12956002E+03</pdfrwt>
<totfact> 0.71836598E+04</totfact>
</mgrwt>
</event>
<event>
 6    4  0.3189516E-003  0.1267000E+03  0.7818608E-02  0.1232436E+00
         21   -1    0    0  501  502  0.00000000000E+00  0.00000000000E+00  0.25056610605E+02  0.25056610605E+02  0.00000000000E+00 0.  1.
          4   -1    0    0  502    0 -0.00000000000E+00 -0.00000000000E+00 -0.21882780263E+03  0.21883148791E+03  0.12700000000E+01 0.  1.
         25    2    1    2    0    0 -0.20619047528E+02  0.13987656972E+01 -0.17414876037E+03  0.21536171791E+03  0.12500310851E+03 0.  0.
    9000005    1    3    3    0    0 -0.10277976696E+02 -0.57830617204E+02 -0.12342355471E+03  0.13669085905E+03  0.10000000000E+01 0.  0.
    9000005    1    3    3    0    0 -0.10341070832E+02  0.59229382901E+02 -0.50725205656E+02  0.78670858859E+02  0.10000000000E+01 0.  0.
          4    1    1    2  501    0  0.20619047528E+02 -0.13987656972E+01 -0.19622431655E+02  0.28526380606E+02  0.12700000000E+01 0. -1.
<mgrwt>
<rscale>  1 0.12669996E+03</rscale>
<asrwt>0</asrwt>
<pdfrwt beam="1">  1       21 0.38548630E-02 0.12669996E+03</pdfrwt>
<pdfrwt beam="2">  1        4 0.33668576E-01 0.12669996E+03</pdfrwt>
<totfact> 0.14091286E+05</totfact>
</mgrwt>
</event>
<event>
 6    4  0.3189516E-003  0.1270315E+03  0.7818608E-02  0.1231928E+00
         -4   -1    0    0    0  501 -0.00000000000E+00  0.00000000000E+00  0.33274356269E+02  0.33298583830E+02  0.12700000000E+01 0.  1.
         21   -1    0    0  501  502  0.00000000000E+00 -0.00000000000E+00 -0.45095663840E+03  0.45095663840E+03  0.00000000000E+00 0. -1.
         25    2    1    2    0    0  0.18552392459E+02 -0.12804348937E+02 -0.89729502137E+02  0.15552618271E+03  0.12501546839E+03 0.  0.
    9000005    1    3    3    0    0  0.42396554871E+02 -0.59830678979E+02 -0.42669173058E+02  0.84845956541E+02  0.10000000000E+01 0.  0.
    9000005    1    3    3    0    0 -0.23844162411E+02  0.47026330042E+02 -0.47060329079E+02  0.70680226169E+02  0.10000000000E+01 0.  0.
         -4    1    1    2    0  502 -0.18552392459E+02  0.12804348937E+02 -0.32795277999E+03  0.32872903952E+03  0.12700000000E+01 0. -1.
<mgrwt>
<rscale>  1 0.12703153E+03</rscale>
<asrwt>0</asrwt>
<pdfrwt beam="2">  1       21 0.69377937E-01 0.12703153E+03</pdfrwt>
<pdfrwt beam="1">  1       -4 0.51211335E-02 0.12703153E+03</pdfrwt>
<totfact> 0.17750209E+04</totfact>
</mgrwt>
</event>
<event>
 6    4  0.3189516E-003  0.1333454E+03  0.7818608E-02  0.1222575E+00
         21   -1    0    0  501  502  0.00000000000E+00  0.00000000000E+00  0.77918589311E+02  0.77918589311E+02  0.00000000000E+00 0.  1.
          4   -1    0    0  502    0 -0.00000000000E+00 -0.00000000000E+00 -0.11734461234E+03  0.11735148463E+03  0.12700000000E+01 0.  1.
         25    2    1    2    0    0  0.46278438817E+02  0.40822612557E+01  0.14845572259E+01  0.13335362029E+03  0.12499050115E+03 0.  0.
    9000005    1    3    3    0    0 -0.31121629191E+02  0.20805693441E+02  0.31226929811E+02  0.48760166412E+02  0.10000000000E+01 0.  0.
    9000005    1    3    3    0    0  0.77400068009E+02 -0.16723432185E+02 -0.29742372585E+02  0.84593453877E+02  0.10000000000E+01 0.  0.
          4    1    1    2  501    0 -0.46278438817E+02 -0.40822612557E+01 -0.40910580252E+02  0.61916453652E+02  0.12700000000E+01 0. -1.
<mgrwt>
<rscale>  1 0.13334536E+03</rscale>
<asrwt>0</asrwt>
<pdfrwt beam="1">  1       21 0.11987475E-01 0.13334536E+03</pdfrwt>
<pdfrwt beam="2">  1        4 0.18054342E-01 0.13334536E+03</pdfrwt>
<totfact> 0.64317191E+04</totfact>
</mgrwt>
</event>
<event>
 6    4  0.3189516E-003  0.1313758E+03  0.7818608E-02  0.1225428E+00
         21   -1    0    0  501  502  0.00000000000E+00  0.00000000000E+00  0.44998738051E+03  0.44998738051E+03  0.00000000000E+00 0. -1.
          4   -1    0    0  502    0 -0.00000000000E+00 -0.00000000000E+00 -0.23583364353E+02  0.23617535312E+02  0.12700000000E+01 0.  1.
         25    2    1    2    0    0  0.13548631151E+02  0.38072593365E+02  0.17422991541E+03  0.21821016694E+03  0.12500610289E+03 0.  0.
    9000005    1    3    3    0    0  0.66069589694E+02  0.31237332256E+02  0.69559822922E+02  0.10089861532E+03  0.10000000000E+01 0.  0.
    9000005    1    3    3    0    0 -0.52520958543E+02  0.68352611081E+01  0.10467009249E+03  0.11731155162E+03  0.10000000000E+01 0.  0.
          4    1    1    2  501    0 -0.13548631151E+02 -0.38072593365E+02  0.25217410075E+03  0.25539474889E+03  0.12700000000E+01 0. -1.
<mgrwt>
<rscale>  1 0.13137585E+03</rscale>
<asrwt>0</asrwt>
<pdfrwt beam="1">  1       21 0.69228822E-01 0.13137585E+03</pdfrwt>
<pdfrwt beam="2">  1        4 0.36309766E-02 0.13137585E+03</pdfrwt>
<totfact> 0.30936625E+04</totfact>
</mgrwt>
</event>
<event>
 6    4  0.3189516E-003  0.1318106E+03  0.7818608E-02  0.1224794E+00
          4   -1    0    0  502    0 -0.00000000000E+00  0.00000000000E+00  0.10869308606E+04  0.10869316025E+04  0.12700000000E+01 0.  1.
         21   -1    0    0  501  502  0.00000000000E+00 -0.00000000000E+00 -0.11562703756E+02  0.11562703756E+02  0.00000000000E+00 0. -1.
         25    2    1    2    0    0 -0.41348634994E+02  0.63394202452E+01  0.10230035295E+04  0.10314602481E+04  0.12499649652E+03 0.  0.
    9000005    1    3    3    0    0  0.43422322377E+02 -0.51744991291E+01  0.44740896990E+03  0.44954205572E+03  0.10000000000E+01 0.  0.
    9000005    1    3    3    0    0 -0.84770957371E+02  0.11513919374E+02  0.57559455957E+03  0.58191819233E+03  0.10000000000E+01 0.  0.
          4    1    1    2  501    0  0.41348634994E+02 -0.63394202452E+01  0.52364627339E+02  0.67034058219E+02  0.12700000000E+01 0. -1.
<mgrwt>
<rscale>  1 0.13181055E+03</rscale>
<asrwt>0</asrwt>
<pdfrwt beam="2">  1       21 0.17788784E-02 0.13181055E+03</pdfrwt>
<pdfrwt beam="1">  1        4 0.16722547E+00 0.13181055E+03</pdfrwt>
<totfact> 0.14492998E+04</totfact>
</mgrwt>
</event>
<event>
 6    4  0.3189516E-003  0.1318735E+03  0.7818608E-02  0.1224702E+00
          4   -1    0    0  502    0 -0.00000000000E+00  0.00000000000E+00  0.31015743036E+03  0.31016003048E+03  0.12700000000E+01 0. -1.
         21   -1    0    0  501  502  0.00000000000E+00 -0.00000000000E+00 -0.24841902240E+02  0.24841902240E+02  0.00000000000E+00 0. -1.
         25    2    1    2    0    0  0.58660700955E+01 -0.41599543495E+02  0.23469489662E+03  0.26920684149E+03  0.12500278479E+03 0.  0.
    9000005    1    3    3    0    0 -0.10904324132E+02 -0.24876466179E+02 -0.55956927240E+01  0.27749858223E+02  0.10000000000E+01 0.  0.
    9000005    1    3    3    0    0  0.16770394228E+02 -0.16723077316E+02  0.24029058935E+03  0.24145698326E+03  0.10000000000E+01 0.  0.
          4    1    1    2  501    0 -0.58660700955E+01  0.41599543495E+02  0.50620631499E+02  0.65795091236E+02  0.12700000000E+01 0.  1.
<mgrwt>
<rscale>  1 0.13187353E+03</rscale>
<asrwt>0</asrwt>
<pdfrwt beam="2">  1       21 0.38218313E-02 0.13187353E+03</pdfrwt>
<pdfrwt beam="1">  1        4 0.47719222E-01 0.13187353E+03</pdfrwt>
<totfact> 0.72408308E+04</totfact>
</mgrwt>
</event>
<event>
 6    4  0.3189516E-003  0.1478258E+03  0.7818608E-02  0.1203170E+00
          4   -1    0    0  502    0 -0.00000000000E+00  0.00000000000E+00  0.62422011404E+03  0.62422140597E+03  0.12700000000E+01 0.  1.
         21   -1    0    0  501  502  0.00000000000E+00 -0.00000000000E+00 -0.22786134395E+02  0.22786134395E+02  0.00000000000E+00 0. -1.
         25    2    1    2    0    0  0.70161021681E+02  0.36160539944E+02  0.47933374148E+03  0.50161072241E+03  0.12498930954E+03 0.  0.
    9000005    1    3    3    0    0  0.47112551575E+02  0.73690591503E+02  0.41173935863E+03  0.42092777912E+03  0.10000000000E+01 0.  0.
    9000005    1    3    3    0    0  0.23048470106E+02 -0.37530051559E+02  0.67594382858E+02  0.80682943292E+02  0.10000000000E+01 0.  0.
          4    1    1    2  501    0 -0.70161021681E+02 -0.36160539944E+02  0.12210023816E+03  0.14539681795E+03  0.12700000000E+01 0. -1.
<mgrwt>
<rscale>  1 0.14782585E+03</rscale>
<asrwt>0</asrwt>
<pdfrwt beam="2">  1       21 0.35055596E-02 0.14782585E+03</pdfrwt>
<pdfrwt beam="1">  1        4 0.96036672E-01 0.14782585E+03</pdfrwt>
<totfact> 0.18832805E+04</totfact>
</mgrwt>
</event>
<event>
 6    4  0.3189516E-003  0.1285746E+03  0.7818608E-02  0.1229586E+00
         21   -1    0    0  501  502  0.00000000000E+00  0.00000000000E+00  0.46955354729E+02  0.46955354729E+02  0.00000000000E+00 0. -1.
          4   -1    0    0  502    0 -0.00000000000E+00 -0.00000000000E+00 -0.15377485491E+03  0.15378009918E+03  0.12700000000E+01 0.  1.
         25    2    1    2    0    0  0.29630466918E+02  0.54352148150E+01 -0.11154395817E+03  0.17021595959E+03  0.12499564859E+03 0.  0.
    9000005    1    3    3    0    0  0.57571443018E+02  0.30637336582E+02 -0.15472427794E+02  0.67033674119E+02  0.10000000000E+01 0.  0.
    9000005    1    3    3    0    0 -0.27940976100E+02 -0.25202121767E+02 -0.96071530376E+02  0.10318228547E+03  0.10000000000E+01 0.  0.
          4    1    1    2  501    0 -0.29630466918E+02 -0.54352148150E+01  0.47244579863E+01  0.30519494313E+02  0.12700000000E+01 0. -1.
<mgrwt>
<rscale>  1 0.12857456E+03</rscale>
<asrwt>0</asrwt>
<pdfrwt beam="1">  1       21 0.72239008E-02 0.12857456E+03</pdfrwt>
<pdfrwt beam="2">  1        4 0.23659394E-01 0.12857456E+03</pdfrwt>
<totfact> 0.94941952E+04</totfact>
</mgrwt>
</event>
<event>
 6    4  0.3189516E-003  0.1267288E+03  0.7818608E-02  0.1232392E+00
         -4   -1    0    0    0  501 -0.00000000000E+00  0.00000000000E+00  0.76683762797E+02  0.76694278644E+02  0.12700000000E+01 0.  1.
         21   -1    0    0  501  502  0.00000000000E+00 -0.00000000000E+00 -0.15569766781E+03  0.15569766781E+03  0.00000000000E+00 0.  1.
         25    2    1    2    0    0  0.20174958342E+02 -0.53603645405E+01  0.22530777750E+02  0.12871601892E+03  0.12499766050E+03 0.  0.
    9000005    1    3    3    0    0  0.50232516863E+01 -0.16680622695E+02 -0.50416153030E+02  0.53350395663E+02  0.10000000000E+01 0.  0.
    9000005    1    3    3    0    0  0.15151706655E+02  0.11320258155E+02  0.72946930780E+02  0.75365623261E+02  0.10000000000E+01 0.  0.
         -4    1    1    2    0  502 -0.20174958342E+02  0.53603645405E+01 -0.10154468276E+03  0.10367592753E+03  0.12700000000E+01 0. -1.
<mgrwt>
<rscale>  1 0.12672876E+03</rscale>
<asrwt>0</asrwt>
<pdfrwt beam="2">  1       21 0.23953487E-01 0.12672876E+03</pdfrwt>
<pdfrwt beam="1">  1       -4 0.11798709E-01 0.12672876E+03</pdfrwt>
<totfact> 0.37930300E+04</totfact>
</mgrwt>
</event>
<event>
 6    4  0.3189516E-003  0.1382668E+03  0.7818608E-02  0.1215680E+00
         21   -1    0    0  501  502  0.00000000000E+00  0.00000000000E+00  0.61096010744E+03  0.61096010744E+03  0.00000000000E+00 0. -1.
          4   -1    0    0  502    0 -0.00000000000E+00 -0.00000000000E+00 -0.28122133621E+02  0.28150795715E+02  0.12700000000E+01 0.  1.
         25    2    1    2    0    0  0.18074149441E+02  0.56274672603E+02  0.15706763916E+03  0.20925568982E+03  0.12499674715E+03 0.  0.
    9000005    1    3    3    0    0  0.24368714805E+01  0.87169329886E+02  0.59111260947E+02  0.10535450435E+03  0.10000000000E+01 0.  0.
    9000005    1    3    3    0    0  0.15637277961E+02 -0.30894657283E+02  0.97956378213E+02  0.10390118548E+03  0.10000000000E+01 0.  0.
          4    1    1    2  501    0 -0.18074149441E+02 -0.56274672603E+02  0.42577033466E+03  0.42985521334E+03  0.12700000000E+01 0. -1.
<mgrwt>
<rscale>  1 0.13826677E+03</rscale>
<asrwt>0</asrwt>
<pdfrwt beam="1">  1       21 0.93993853E-01 0.13826677E+03</pdfrwt>
<pdfrwt beam="2">  1        4 0.43287889E-02 0.13826677E+03</pdfrwt>
<totfact> 0.11837638E+04</totfact>
</mgrwt>
</event>
<event>
 6    4  0.3189516E-003  0.1289662E+03  0.7818608E-02  0.1228998E+00
         -4   -1    0    0    0  501 -0.00000000000E+00  0.00000000000E+00  0.60375770896E+03  0.60375904468E+03  0.12700000000E+01 0. -1.
         21   -1    0    0  501  502  0.00000000000E+00 -0.00000000000E+00 -0.22818692414E+02  0.22818692414E+02  0.00000000000E+00 0.  1.
         25    2    1    2    0    0  0.19611126250E+02 -0.24972466440E+02  0.58064879469E+03  0.59479853821E+03  0.12499623166E+03 0.  0.
    9000005    1    3    3    0    0  0.39331966135E+02 -0.65173093643E+02  0.45679438297E+03  0.46309463828E+03  0.10000000000E+01 0.  0.
    9000005    1    3    3    0    0 -0.19720839885E+02  0.40200627203E+02  0.12385441172E+03  0.13170389993E+03  0.10000000000E+01 0.  0.
         -4    1    1    2    0  502 -0.19611126250E+02  0.24972466440E+02  0.29022185884E+00  0.31779198882E+02  0.12700000000E+01 0.  1.
<mgrwt>
<rscale>  1 0.12896619E+03</rscale>
<asrwt>0</asrwt>
<pdfrwt beam="2">  1       21 0.35105685E-02 0.12896619E+03</pdfrwt>
<pdfrwt beam="1">  1       -4 0.92888611E-01 0.12896619E+03</pdfrwt>
<totfact> 0.19984723E+04</totfact>
</mgrwt>
</event>
<event>
 6    4  0.3189516E-003  0.1514132E+03  0.7818608E-02  0.1198747E+00
         21   -1    0    0  501  502  0.00000000000E+00  0.00000000000E+00  0.85074340659E+02  0.85074340659E+02  0.00000000000E+00 0. -1.
         -4   -1    0    0    0  501 -0.00000000000E+00 -0.00000000000E+00 -0.43910194477E+03  0.43910378136E+03  0.12700000000E+01 0.  1.
         25    2    1    2    0    0  0.78711365406E+02  0.33252955597E+02 -0.39960351302E+03  0.42732764719E+03  0.12499884935E+03 0.  0.
    9000005    1    3    3    0    0  0.34269652661E+02 -0.46175183740E+02 -0.11597447530E+03  0.12945128662E+03  0.10000000000E+01 0.  0.
    9000005    1    3    3    0    0  0.44441712745E+02  0.79428139337E+02 -0.28362903772E+03  0.29787636057E+03  0.10000000000E+01 0.  0.
         -4    1    1    2    0  502 -0.78711365406E+02 -0.33252955597E+02  0.45575908909E+02  0.96850474820E+02  0.12700000000E+01 0. -1.
<mgrwt>
<rscale>  1 0.15141318E+03</rscale>
<asrwt>0</asrwt>
<pdfrwt beam="1">  1       21 0.13088360E-01 0.15141318E+03</pdfrwt>
<pdfrwt beam="2">  1       -4 0.67555016E-01 0.15141318E+03</pdfrwt>
<totfact> 0.42915967E+03</totfact>
</mgrwt>
</event>
<event>
 6    4  0.3189516E-003  0.1277192E+03  0.7818608E-02  0.1230880E+00
          4   -1    0    0  502    0 -0.00000000000E+00  0.00000000000E+00  0.27373194148E+02  0.27402639615E+02  0.12700000000E+01 0. -1.
         21   -1    0    0  501  502  0.00000000000E+00 -0.00000000000E+00 -0.30316825958E+03  0.30316825958E+03  0.00000000000E+00 0.  1.
         25    2    1    2    0    0  0.19287842184E+02  0.17722400799E+02 -0.12928659143E+03  0.18173390715E+03  0.12500434368E+03 0.  0.
    9000005    1    3    3    0    0  0.57873901080E+01 -0.31494665729E+02 -0.12662999861E+03  0.13061992345E+03  0.10000000000E+01 0.  0.
    9000005    1    3    3    0    0  0.13500452076E+02  0.49217066529E+02 -0.26565928138E+01  0.51113983697E+02  0.10000000000E+01 0.  0.
          4    1    1    2  501    0 -0.19287842184E+02 -0.17722400799E+02 -0.14650847401E+03  0.14883699205E+03  0.12700000000E+01 0.  1.
<mgrwt>
<rscale>  1 0.12771919E+03</rscale>
<asrwt>0</asrwt>
<pdfrwt beam="2">  1       21 0.46641272E-01 0.12771919E+03</pdfrwt>
<pdfrwt beam="1">  1        4 0.42137302E-02 0.12771919E+03</pdfrwt>
<totfact> 0.55977313E+04</totfact>
</mgrwt>
</event>
<event>
 6    4  0.3189516E-003  0.1284524E+03  0.7818608E-02  0.1229770E+00
          4   -1    0    0  502    0 -0.00000000000E+00  0.00000000000E+00  0.14256698520E+03  0.14257264173E+03  0.12700000000E+01 0. -1.
         21   -1    0    0  501  502  0.00000000000E+00 -0.00000000000E+00 -0.60684723825E+02  0.60684723825E+02  0.00000000000E+00 0.  1.
         25    2    1    2    0    0 -0.29253713367E+02  0.36326371433E+01  0.10489359422E+03  0.16583931994E+03  0.12502415020E+03 0.  0.
    9000005    1    3    3    0    0  0.49041251421E+02  0.51217592992E+01  0.31576714628E+02  0.58560786077E+02  0.10000000000E+01 0.  0.
    9000005    1    3    3    0    0 -0.78294964788E+02 -0.14891221559E+01  0.73316879588E+02  0.10727853387E+03  0.10000000000E+01 0.  0.
          4    1    1    2  501    0  0.29253713367E+02 -0.36326371433E+01 -0.23011332838E+02  0.37418045611E+02  0.12700000000E+01 0.  1.
<mgrwt>
<rscale>  1 0.12845238E+03</rscale>
<asrwt>0</asrwt>
<pdfrwt beam="2">  1       21 0.93361114E-02 0.12845238E+03</pdfrwt>
<pdfrwt beam="1">  1        4 0.21934840E-01 0.12845238E+03</pdfrwt>
<totfact> 0.69980325E+04</totfact>
</mgrwt>
</event>
<event>
 6    4  0.3189516E-003  0.1325994E+03  0.7818608E-02  0.1223649E+00
          4   -1    0    0  502    0 -0.00000000000E+00  0.00000000000E+00  0.62677602651E+03  0.62677731317E+03  0.12700000000E+01 0.  1.
         21   -1    0    0  501  502  0.00000000000E+00 -0.00000000000E+00 -0.12983321977E+02  0.12983321977E+02  0.00000000000E+00 0.  1.
         25    2    1    2    0    0  0.17628887511E+02 -0.40607786675E+02  0.50911935868E+03  0.52610372931E+03  0.12499137008E+03 0.  0.
    9000005    1    3    3    0    0  0.94785542695E+01 -0.84416116727E+02  0.38393640708E+03  0.39322269572E+03  0.10000000000E+01 0.  0.
    9000005    1    3    3    0    0  0.81503332412E+01  0.43808330052E+02  0.12518295161E+03  0.13288103359E+03  0.10000000000E+01 0.  0.
          4    1    1    2  501    0 -0.17628887511E+02  0.40607786675E+02  0.10467334585E+03  0.11365690584E+03  0.12700000000E+01 0. -1.
<mgrwt>
<rscale>  1 0.13259944E+03</rscale>
<asrwt>0</asrwt>
<pdfrwt beam="2">  1       21 0.19974347E-02 0.13259944E+03</pdfrwt>
<pdfrwt beam="1">  1        4 0.96431934E-01 0.13259944E+03</pdfrwt>
<totfact> 0.46223941E+04</totfact>
</mgrwt>
</event>
<event>
 6    4  0.3189516E-003  0.1282991E+03  0.7818608E-02  0.1230002E+00
         21   -1    0    0  501  502  0.00000000000E+00  0.00000000000E+00  0.70211913147E+02  0.70211913147E+02  0.00000000000E+00 0.  1.
         -4   -1    0    0    0  501 -0.00000000000E+00 -0.00000000000E+00 -0.40666461651E+03  0.40666659959E+03  0.12700000000E+01 0. -1.
         25    2    1    2    0    0 -0.15184493760E+01 -0.28867277556E+02 -0.39297063275E+03  0.41338430320E+03  0.12500015413E+03 0.  0.
    9000005    1    3    3    0    0  0.16472067384E+02  0.19878266448E+02 -0.33311710946E+03  0.33411746901E+03  0.10000000000E+01 0.  0.
    9000005    1    3    3    0    0 -0.17990516760E+02 -0.48745544004E+02 -0.59853523284E+02  0.79266834194E+02  0.10000000000E+01 0.  0.
         -4    1    1    2    0  502  0.15184493760E+01  0.28867277556E+02  0.56517929385E+02  0.63494209531E+02  0.12700000000E+01 0.  1.
<mgrwt>
<rscale>  1 0.12829912E+03</rscale>
<asrwt>0</asrwt>
<pdfrwt beam="1">  1       21 0.10801833E-01 0.12829912E+03</pdfrwt>
<pdfrwt beam="2">  1       -4 0.62564824E-01 0.12829912E+03</pdfrwt>
<totfact> 0.70198298E+03</totfact>
</mgrwt>
</event>
<event>
 6    4  0.3189516E-003  0.1314992E+03  0.7818608E-02  0.1225248E+00
         21   -1    0    0  501  502  0.00000000000E+00  0.00000000000E+00  0.18088467894E+03  0.18088467894E+03  0.00000000000E+00 0.  1.
          4   -1    0    0  502    0 -0.00000000000E+00 -0.00000000000E+00 -0.44019935756E+02  0.44038252054E+02  0.12700000000E+01 0. -1.
         25    2    1    2    0    0 -0.99357413148E+01 -0.39624494572E+02  0.76836957866E+02  0.15230222158E+03  0.12499291612E+03 0.  0.
    9000005    1    3    3    0    0 -0.56008858315E+02 -0.14378537171E+02  0.81071542395E+02  0.99585789785E+02  0.10000000000E+01 0.  0.
    9000005    1    3    3    0    0  0.46073117000E+02 -0.25245957401E+02 -0.42345845283E+01  0.52716431797E+02  0.10000000000E+01 0.  0.
          4    1    1    2  501    0  0.99357413148E+01  0.39624494572E+02  0.60027785322E+02  0.72620709417E+02  0.12700000000E+01 0.  1.
<mgrwt>
<rscale>  1 0.13149923E+03</rscale>
<asrwt>0</asrwt>
<pdfrwt beam="1">  1       21 0.27828412E-01 0.13149923E+03</pdfrwt>
<pdfrwt beam="2">  1        4 0.67740498E-02 0.13149923E+03</pdfrwt>
<totfact> 0.72398463E+04</totfact>
</mgrwt>
</event>
<event>
 6    4  0.3189516E-003  0.1275702E+03  0.7818608E-02  0.1231106E+00
          4   -1    0    0  502    0 -0.00000000000E+00  0.00000000000E+00  0.38645410065E+02  0.38666272371E+02  0.12700000000E+01 0. -1.
         21   -1    0    0  501  502  0.00000000000E+00 -0.00000000000E+00 -0.37746275653E+03  0.37746275653E+03  0.00000000000E+00 0.  1.
         25    2    1    2    0    0 -0.19834432609E+02 -0.16043605915E+02 -0.68864684375E+02  0.14497067171E+03  0.12499339540E+03 0.  0.
    9000005    1    3    3    0    0 -0.47535650504E+02  0.39341465960E+02 -0.16535167687E+02  0.63888972313E+02  0.10000000000E+01 0.  0.
    9000005    1    3    3    0    0  0.27701217896E+02 -0.55385071875E+02 -0.52329516688E+02  0.81081699392E+02  0.10000000000E+01 0.  0.
          4    1    1    2  501    0  0.19834432609E+02  0.16043605915E+02 -0.26995266209E+03  0.27115835719E+03  0.12700000000E+01 0.  1.
<mgrwt>
<rscale>  1 0.12757018E+03</rscale>
<asrwt>0</asrwt>
<pdfrwt beam="2">  1       21 0.58071192E-01 0.12757018E+03</pdfrwt>
<pdfrwt beam="1">  1        4 0.59472170E-02 0.12757018E+03</pdfrwt>
<totfact> 0.20421402E+04</totfact>
</mgrwt>
</event>
<event>
 6    4  0.3189516E-003  0.1285793E+03  0.7818608E-02  0.1229579E+00
         -4   -1    0    0    0  501 -0.00000000000E+00  0.00000000000E+00  0.11541046686E+03  0.11541745431E+03  0.12700000000E+01 0. -1.
         21   -1    0    0  501  502  0.00000000000E+00 -0.00000000000E+00 -0.65885853571E+02  0.65885853571E+02  0.00000000000E+00 0.  1.
         25    2    1    2    0    0 -0.30321116306E+01  0.29985592472E+02  0.68478543438E+02  0.14567756122E+03  0.12499724587E+03 0.  0.
    9000005    1    3    3    0    0  0.51762930603E+02 -0.14184575584E+02  0.10985068396E+02  0.54793018687E+02  0.10000000000E+01 0.  0.
    9000005    1    3    3    0    0 -0.54795042234E+02  0.44170168056E+02  0.57493475042E+02  0.90884542536E+02  0.10000000000E+01 0.  0.
         -4    1    1    2    0  502  0.30321116306E+01 -0.29985592472E+02 -0.18953930154E+02  0.35625746660E+02  0.12700000000E+01 0.  1.
<mgrwt>
<rscale>  1 0.12857932E+03</rscale>
<asrwt>0</asrwt>
<pdfrwt beam="2">  1       21 0.10136285E-01 0.12857932E+03</pdfrwt>
<pdfrwt beam="1">  1       -4 0.17756935E-01 0.12857932E+03</pdfrwt>
<totfact> 0.88581837E+04</totfact>
</mgrwt>
</event>
<event>
 6    4  0.3189516E-003  0.1283100E+03  0.7818608E-02  0.1229985E+00
         21   -1    0    0  501  502  0.00000000000E+00  0.00000000000E+00  0.19703570201E+02  0.19703570201E+02  0.00000000000E+00 0. -1.
          4   -1    0    0  502    0 -0.00000000000E+00 -0.00000000000E+00 -0.46490102010E+03  0.46490275477E+03  0.12700000000E+01 0.  1.
         25    2    1    2    0    0 -0.28498817597E+02 -0.51766884925E+01 -0.43554052973E+03  0.45404737022E+03  0.12499792261E+03 0.  0.
    9000005    1    3    3    0    0  0.10024350773E+02  0.68578285706E+01 -0.40022126067E+03  0.40040676183E+03  0.10000000000E+01 0.  0.
    9000005    1    3    3    0    0 -0.38523168370E+02 -0.12034517063E+02 -0.35319269060E+02  0.53640608396E+02  0.10000000000E+01 0.  0.
          4    1    1    2  501    0  0.28498817597E+02  0.51766884925E+01 -0.96569201701E+01  0.30558954749E+02  0.12700000000E+01 0. -1.
<mgrwt>
<rscale>  1 0.12831002E+03</rscale>
<asrwt>0</asrwt>
<pdfrwt beam="1">  1       21 0.30313187E-02 0.12831002E+03</pdfrwt>
<pdfrwt beam="2">  1        4 0.71526511E-01 0.12831002E+03</pdfrwt>
<totfact> 0.45379158E+04</totfact>
</mgrwt>
</event>
<event>
 6    4  0.3189516E-003  0.1268326E+03  0.7818608E-02  0.1232233E+00
         -4   -1    0    0    0  501 -0.00000000000E+00  0.00000000000E+00  0.71008675193E+02  0.71020031348E+02  0.12700000000E+01 0.  1.
         21   -1    0    0  501  502  0.00000000000E+00 -0.00000000000E+00 -0.99386784714E+02  0.99386784714E+02  0.00000000000E+00 0. -1.
         25    2    1    2    0    0  0.33552399940E+01 -0.21213078849E+02  0.91360759752E+01  0.12716124562E+03  0.12500104861E+03 0.  0.
    9000005    1    3    3    0    0  0.57359082415E+02 -0.38764195631E+02 -0.20943700016E+01  0.69268416931E+02  0.10000000000E+01 0.  0.
    9000005    1    3    3    0    0 -0.54003842421E+02  0.17551116783E+02  0.11230445977E+02  0.57892828687E+02  0.10000000000E+01 0.  0.
         -4    1    1    2    0  502 -0.33552399940E+01  0.21213078849E+02 -0.37514185496E+02  0.43245570445E+02  0.12700000000E+01 0. -1.
<mgrwt>
<rscale>  1 0.12683262E+03</rscale>
<asrwt>0</asrwt>
<pdfrwt beam="2">  1       21 0.15290275E-01 0.12683262E+03</pdfrwt>
<pdfrwt beam="1">  1       -4 0.10925909E-01 0.12683262E+03</pdfrwt>
<totfact> 0.98783925E+04</totfact>
</mgrwt>
</event>
<event>
 6    4  0.3189516E-003  0.1309545E+03  0.7818608E-02  0.1226046E+00
          4   -1    0    0  502    0 -0.00000000000E+00  0.00000000000E+00  0.40093466978E+03  0.40093668120E+03  0.12700000000E+01 0. -1.
         21   -1    0    0  501  502  0.00000000000E+00 -0.00000000000E+00 -0.29148971206E+02  0.29148971206E+02  0.00000000000E+00 0. -1.
         25    2    1    2    0    0 -0.36917209203E+02  0.12680774698E+02  0.36828439938E+03  0.39087399116E+03  0.12500158300E+03 0.  0.
    9000005    1    3    3    0    0 -0.73430913171E+02  0.68450125674E+01  0.12775700877E+03  0.14751883438E+03  0.10000000000E+01 0.  0.
    9000005    1    3    3    0    0  0.36513703968E+02  0.58357621306E+01  0.24052739061E+03  0.24335515678E+03  0.10000000000E+01 0.  0.
          4    1    1    2  501    0  0.36917209203E+02 -0.12680774698E+02  0.35012991989E+01  0.39211661255E+02  0.12700000000E+01 0.  1.
<mgrwt>
<rscale>  1 0.13095449E+03</rscale>
<asrwt>0</asrwt>
<pdfrwt beam="2">  1       21 0.44844574E-02 0.13095449E+03</pdfrwt>
<pdfrwt beam="1">  1        4 0.61684536E-01 0.13095449E+03</pdfrwt>
<totfact> 0.32639757E+04</totfact>
</mgrwt>
</event>
<event>
 6    4  0.3189516E-003  0.1283421E+03  0.7818608E-02  0.1229937E+00
         -4   -1    0    0    0  501 -0.00000000000E+00  0.00000000000E+00  0.26458388889E+03  0.26458693687E+03  0.12700000000E+01 0.  1.
         21   -1    0    0  501  502  0.00000000000E+00 -0.00000000000E+00 -0.23584564785E+02  0.23584564785E+02  0.00000000000E+00 0.  1.
         25    2    1    2    0    0 -0.23430950589E+02 -0.17046203663E+02  0.20609488405E+03  0.24278961826E+03  0.12502845675E+03 0.  0.
    9000005    1    3    3    0    0  0.22307009202E+02  0.85093197503E+01  0.18461559248E+03  0.18615565575E+03  0.10000000000E+01 0.  0.
    9000005    1    3    3    0    0 -0.45737959791E+02 -0.25555523414E+02  0.21479291575E+02  0.56633962508E+02  0.10000000000E+01 0.  0.
         -4    1    1    2    0  502  0.23430950589E+02  0.17046203663E+02  0.34904440051E+02  0.45381883391E+02  0.12700000000E+01 0. -1.
<mgrwt>
<rscale>  1 0.12834211E+03</rscale>
<asrwt>0</asrwt>
<pdfrwt beam="2">  1       21 0.36283948E-02 0.12834211E+03</pdfrwt>
<pdfrwt beam="1">  1       -4 0.40708076E-01 0.12834211E+03</pdfrwt>
<totfact> 0.10792340E+05</totfact>
</mgrwt>
</event>
<event>
 6    4  0.3189516E-003  0.1273071E+03  0.7818608E-02  0.1231507E+00
         21   -1    0    0  501  502  0.00000000000E+00  0.00000000000E+00  0.41537387115E+02  0.41537387115E+02  0.00000000000E+00 0.  1.
         -4   -1    0    0    0  501 -0.00000000000E+00 -0.00000000000E+00 -0.14060502542E+03  0.14061076087E+03  0.12700000000E+01 0.  1.
         25    2    1    2    0    0 -0.18163991492E+02 -0.15864831163E+02 -0.91714242810E+02  0.15690317265E+03  0.12500191917E+03 0.  0.
    9000005    1    3    3    0    0 -0.30963554818E+02  0.11023664247E+02  0.21859799278E+02  0.39485614151E+02  0.10000000000E+01 0.  0.
    9000005    1    3    3    0    0  0.12799563326E+02 -0.26888495410E+02 -0.11357404209E+03  0.11741755849E+03  0.10000000000E+01 0.  0.
         -4    1    1    2    0  502  0.18163991492E+02  0.15864831163E+02 -0.73533954957E+01  0.25244975343E+02  0.12700000000E+01 0. -1.
<mgrwt>
<rscale>  1 0.12730712E+03</rscale>
<asrwt>0</asrwt>
<pdfrwt beam="1">  1       21 0.63903672E-02 0.12730712E+03</pdfrwt>
<pdfrwt beam="2">  1       -4 0.21633477E-01 0.12730712E+03</pdfrwt>
<totfact> 0.13758483E+05</totfact>
</mgrwt>
</event>
<event>
 6    4  0.3189516E-003  0.1332815E+03  0.7818608E-02  0.1222666E+00
         21   -1    0    0  501  502  0.00000000000E+00  0.00000000000E+00  0.76279794306E+02  0.76279794306E+02  0.00000000000E+00 0.  1.
         -4   -1    0    0    0  501 -0.00000000000E+00 -0.00000000000E+00 -0.63190704751E+03  0.63190832373E+03  0.12700000000E+01 0. -1.
         25    2    1    2    0    0 -0.35483755036E+02  0.29664398917E+02 -0.61705509352E+03  0.63128515386E+03  0.12499953445E+03 0.  0.
    9000005    1    3    3    0    0 -0.68188756582E+02  0.58360671999E+02 -0.41423588156E+03  0.42384907707E+03  0.10000000000E+01 0.  0.
    9000005    1    3    3    0    0  0.32705001546E+02 -0.28696273082E+02 -0.20281921196E+03  0.20743607679E+03  0.10000000000E+01 0.  0.
         -4    1    1    2    0  502  0.35483755036E+02 -0.29664398917E+02  0.61427840307E+02  0.76902964178E+02  0.12700000000E+01 0.  1.
<mgrwt>
<rscale>  1 0.13328150E+03</rscale>
<asrwt>0</asrwt>
<pdfrwt beam="1">  1       21 0.11735352E-01 0.13328150E+03</pdfrwt>
<pdfrwt beam="2">  1       -4 0.97217385E-01 0.13328150E+03</pdfrwt>
<totfact> 0.23062986E+03</totfact>
</mgrwt>
</event>
<event>
 6    4  0.3189516E-003  0.1483855E+03  0.7818608E-02  0.1202471E+00
         21   -1    0    0  501  502  0.00000000000E+00  0.00000000000E+00  0.56681881042E+02  0.56681881042E+02  0.00000000000E+00 0.  1.
          4   -1    0    0  502    0 -0.00000000000E+00 -0.00000000000E+00 -0.26461219910E+03  0.26461524675E+03  0.12700000000E+01 0.  1.
         25    2    1    2    0    0  0.66271456391E+02 -0.44745580496E+02 -0.18683086823E+03  0.23858756009E+03  0.12499671036E+03 0.  0.
    9000005    1    3    3    0    0 -0.31835618343E+01  0.27509109954E+02 -0.10677363846E+03  0.11031090638E+03  0.10000000000E+01 0.  0.
    9000005    1    3    3    0    0  0.69455018226E+02 -0.72254690450E+02 -0.80057229774E+02  0.12827665371E+03  0.10000000000E+01 0.  0.
          4    1    1    2  501    0 -0.66271456391E+02  0.44745580496E+02 -0.21099449826E+02  0.82709567700E+02  0.12700000000E+01 0. -1.
<mgrwt>
<rscale>  1 0.14838548E+03</rscale>
<asrwt>0</asrwt>
<pdfrwt beam="1">  1       21 0.87202893E-02 0.14838548E+03</pdfrwt>
<pdfrwt beam="2">  1        4 0.40710898E-01 0.14838548E+03</pdfrwt>
<totfact> 0.24882039E+04</totfact>
</mgrwt>
</event>
<event>
 6    4  0.3189516E-003  0.1343828E+03  0.7818608E-02  0.1221094E+00
         21   -1    0    0  501  502  0.00000000000E+00  0.00000000000E+00  0.69022679190E+03  0.69022679190E+03  0.00000000000E+00 0.  1.
         -4   -1    0    0    0  501 -0.00000000000E+00 -0.00000000000E+00 -0.14897489841E+02  0.14951525125E+02  0.12700000000E+01 0.  1.
         25    2    1    2    0    0  0.39576332579E+01  0.49177352088E+02  0.32956903687E+03  0.35591359121E+03  0.12499863808E+03 0.  0.
    9000005    1    3    3    0    0 -0.14008184202E+02 -0.37973784157E+02  0.63047362469E+02  0.74928014935E+02  0.10000000000E+01 0.  0.
    9000005    1    3    3    0    0  0.17965817460E+02  0.87151136245E+02  0.26652167440E+03  0.28098557627E+03  0.10000000000E+01 0.  0.
         -4    1    1    2    0  502 -0.39576332579E+01 -0.49177352088E+02  0.34576026518E+03  0.34926472582E+03  0.12700000000E+01 0. -1.
<mgrwt>
<rscale>  1 0.13438279E+03</rscale>
<asrwt>0</asrwt>
<pdfrwt beam="1">  1       21 0.10618871E+00 0.13438279E+03</pdfrwt>
<pdfrwt beam="2">  1       -4 0.22961685E-02 0.13438279E+03</pdfrwt>
<totfact> 0.24023050E+04</totfact>
</mgrwt>
</event>
<event>
 6    4  0.3189516E-003  0.1270479E+03  0.7818608E-02  0.1231903E+00
         21   -1    0    0  501  502  0.00000000000E+00  0.00000000000E+00  0.87318970173E+02  0.87318970173E+02  0.00000000000E+00 0.  1.
         -4   -1    0    0    0  501 -0.00000000000E+00 -0.00000000000E+00 -0.30537418067E+03  0.30537682151E+03  0.12700000000E+01 0.  1.
         25    2    1    2    0    0 -0.16160776928E+02  0.15987162989E+02 -0.29033455537E+03  0.31691534113E+03  0.12499767723E+03 0.  0.
    9000005    1    3    3    0    0 -0.26125518367E+02  0.23770576075E+02 -0.10596601745E+02  0.36889984622E+02  0.10000000000E+01 0.  0.
    9000005    1    3    3    0    0  0.99647414388E+01 -0.77834130859E+01 -0.27973795362E+03  0.28002535651E+03  0.10000000000E+01 0.  0.
         -4    1    1    2    0  502  0.16160776928E+02 -0.15987162989E+02  0.72279344873E+02  0.75780450557E+02  0.12700000000E+01 0. -1.
<mgrwt>
<rscale>  1 0.12704794E+03</rscale>
<asrwt>0</asrwt>
<pdfrwt beam="1">  1       21 0.13433688E-01 0.12704794E+03</pdfrwt>
<pdfrwt beam="2">  1       -4 0.46981557E-01 0.12704794E+03</pdfrwt>
<totfact> 0.86039847E+03</totfact>
</mgrwt>
</event>
<event>
 6    4  0.3189516E-003  0.1266569E+03  0.7818608E-02  0.1232502E+00
         21   -1    0    0  501  502  0.00000000000E+00  0.00000000000E+00  0.94270616420E+02  0.94270616420E+02  0.00000000000E+00 0.  1.
          4   -1    0    0  502    0 -0.00000000000E+00 -0.00000000000E+00 -0.64620930766E+02  0.64633409264E+02  0.12700000000E+01 0.  1.
         25    2    1    2    0    0 -0.16647616600E+02 -0.11833022610E+02  0.48479546973E+01  0.12674967417E+03  0.12499925470E+03 0.  0.
    9000005    1    3    3    0    0  0.34660846898E+02 -0.47070484415E+01  0.47945405350E+02  0.59357329007E+02  0.10000000000E+01 0.  0.
    9000005    1    3    3    0    0 -0.51308463498E+02 -0.71259741688E+01 -0.43097450652E+02  0.67392345167E+02  0.10000000000E+01 0.  0.
          4    1    1    2  501    0  0.16647616600E+02  0.11833022610E+02  0.24801730956E+02  0.32154351510E+02  0.12700000000E+01 0. -1.
<mgrwt>
<rscale>  1 0.12665693E+03</rscale>
<asrwt>0</asrwt>
<pdfrwt beam="1">  1       21 0.14503172E-01 0.12665693E+03</pdfrwt>
<pdfrwt beam="2">  1        4 0.99432996E-02 0.12665693E+03</pdfrwt>
<totfact> 0.12735703E+05</totfact>
</mgrwt>
</event>
<event>
 6    4  0.3189516E-003  0.1304826E+03  0.7818608E-02  0.1226741E+00
         21   -1    0    0  501  502  0.00000000000E+00  0.00000000000E+00  0.24810253869E+02  0.24810253869E+02  0.00000000000E+00 0.  1.
          4   -1    0    0  502    0 -0.00000000000E+00 -0.00000000000E+00 -0.44236130547E+03  0.44236312852E+03  0.12700000000E+01 0. -1.
         25    2    1    2    0    0 -0.29698069404E+02 -0.22788653158E+02 -0.40822927073E+03  0.42857537030E+03  0.12499765002E+03 0.  0.
    9000005    1    3    3    0    0  0.19281018977E+02 -0.22157620037E+02 -0.35506358377E+03  0.35627779378E+03  0.10000000000E+01 0.  0.
    9000005    1    3    3    0    0 -0.48979088381E+02 -0.63103312037E+00 -0.53165686956E+02  0.72297576522E+02  0.10000000000E+01 0.  0.
          4    1    1    2  501    0  0.29698069404E+02  0.22788653158E+02 -0.93217808771E+01  0.38598012096E+02  0.12700000000E+01 0.  1.
<mgrwt>
<rscale>  1 0.13048261E+03</rscale>
<asrwt>0</asrwt>
<pdfrwt beam="1">  1       21 0.38169623E-02 0.13048261E+03</pdfrwt>
<pdfrwt beam="2">  1        4 0.68058222E-01 0.13048261E+03</pdfrwt>
<totfact> 0.34612819E+04</totfact>
</mgrwt>
</event>
<event>
 6    4  0.3189516E-003  0.1345976E+03  0.7818608E-02  0.1220789E+00
          4   -1    0    0  502    0 -0.00000000000E+00  0.00000000000E+00  0.36771273311E+03  0.36771492626E+03  0.12700000000E+01 0.  1.
         21   -1    0    0  501  502  0.00000000000E+00 -0.00000000000E+00 -0.76091708722E+02  0.76091708722E+02  0.00000000000E+00 0. -1.
         25    2    1    2    0    0 -0.10721668335E+02 -0.48743042952E+02  0.34523636904E+03  0.37054643780E+03  0.12500269457E+03 0.  0.
    9000005    1    3    3    0    0 -0.55314954231E+02 -0.26048533293E+02  0.28842328834E+03  0.29483429839E+03  0.10000000000E+01 0.  0.
    9000005    1    3    3    0    0  0.44593285896E+02 -0.22694509659E+02  0.56813080700E+02  0.75712139412E+02  0.10000000000E+01 0.  0.
          4    1    1    2  501    0  0.10721668335E+02  0.48743042952E+02 -0.53615344654E+02  0.73260197178E+02  0.12700000000E+01 0. -1.
<mgrwt>
<rscale>  1 0.13459759E+03</rscale>
<asrwt>0</asrwt>
<pdfrwt beam="2">  1       21 0.11706417E-01 0.13459759E+03</pdfrwt>
<pdfrwt beam="1">  1        4 0.56572173E-01 0.13459759E+03</pdfrwt>
<totfact> 0.75521932E+03</totfact>
</mgrwt>
</event>
<event>
 6    4  0.3189516E-003  0.1296994E+03  0.7818608E-02  0.1227902E+00
         21   -1    0    0  501  502  0.00000000000E+00  0.00000000000E+00  0.25646412919E+02  0.25646412919E+02  0.00000000000E+00 0. -1.
          4   -1    0    0  502    0 -0.00000000000E+00 -0.00000000000E+00 -0.29572128628E+03  0.29572401333E+03  0.12700000000E+01 0.  1.
         25    2    1    2    0    0 -0.34209706855E+02  0.51794123204E+01 -0.24922645634E+03  0.28095508576E+03  0.12499921326E+03 0.  0.
    9000005    1    3    3    0    0 -0.12472028888E+02  0.51241431152E+02 -0.21037662295E+03  0.21688835666E+03  0.10000000000E+01 0.  0.
    9000005    1    3    3    0    0 -0.21737677967E+02 -0.46062018832E+02 -0.38849833394E+02  0.64066729095E+02  0.10000000000E+01 0.  0.
          4    1    1    2  501    0  0.34209706855E+02 -0.51794123204E+01 -0.20848417020E+02  0.40415340495E+02  0.12700000000E+01 0. -1.
<mgrwt>
<rscale>  1 0.12969940E+03</rscale>
<asrwt>0</asrwt>
<pdfrwt beam="1">  1       21 0.39456022E-02 0.12969940E+03</pdfrwt>
<pdfrwt beam="2">  1        4 0.45498209E-01 0.12969940E+03</pdfrwt>
<totfact> 0.75414268E+04</totfact>
</mgrwt>
</event>
<event>
 6    4  0.3189516E-003  0.1695357E+03  0.7818608E-02  0.1178333E+00
         21   -1    0    0  501  502  0.00000000000E+00  0.00000000000E+00  0.15086988488E+03  0.15086988488E+03  0.00000000000E+00 0.  1.
          4   -1    0    0  502    0 -0.00000000000E+00 -0.00000000000E+00 -0.13712354342E+03  0.13712942449E+03  0.12700000000E+01 0. -1.
         25    2    1    2    0    0  0.10721471699E+03  0.40433752617E+02 -0.13944923109E+02  0.17010824557E+03  0.12494987172E+03 0.  0.
    9000005    1    3    3    0    0  0.13434804599E+03  0.20633749341E+02 -0.11662084376E+02  0.13642636580E+03  0.10000000000E+01 0.  0.
    9000005    1    3    3    0    0 -0.27133329003E+02  0.19800003276E+02 -0.22828387334E+01  0.33681879775E+02  0.10000000000E+01 0.  0.
          4    1    1    2  501    0 -0.10721471699E+03 -0.40433752617E+02  0.27691264567E+02  0.11789106379E+03  0.12700000000E+01 0.  1.
<mgrwt>
<rscale>  1 0.16953570E+03</rscale>
<asrwt>0</asrwt>
<pdfrwt beam="1">  1       21 0.23210752E-01 0.16953570E+03</pdfrwt>
<pdfrwt beam="2">  1        4 0.21096793E-01 0.16953570E+03</pdfrwt>
<totfact> 0.14885808E+04</totfact>
</mgrwt>
</event>
<event>
 6    4  0.3189516E-003  0.1267240E+03  0.7818608E-02  0.1232399E+00
         21   -1    0    0  501  502  0.00000000000E+00  0.00000000000E+00  0.17552497613E+03  0.17552497613E+03  0.00000000000E+00 0. -1.
          4   -1    0    0  502    0 -0.00000000000E+00 -0.00000000000E+00 -0.40865383246E+02  0.40885112789E+02  0.12700000000E+01 0. -1.
         25    2    1    2    0    0  0.45309473696E+01 -0.20332635091E+02  0.62510124534E+02  0.14130280421E+03  0.12500008509E+03 0.  0.
    9000005    1    3    3    0    0  0.22476720177E+02  0.48103237654E+02  0.12213828114E+02  0.54491302240E+02  0.10000000000E+01 0.  0.
    9000005    1    3    3    0    0 -0.17945772807E+02 -0.68435872744E+02  0.50296296420E+02  0.86811501965E+02  0.10000000000E+01 0.  0.
          4    1    1    2  501    0 -0.45309473696E+01  0.20332635091E+02  0.72149468346E+02  0.75107284709E+02  0.12700000000E+01 0.  1.
<mgrwt>
<rscale>  1 0.12672398E+03</rscale>
<asrwt>0</asrwt>
<pdfrwt beam="1">  1       21 0.27003842E-01 0.12672398E+03</pdfrwt>
<pdfrwt beam="2">  1        4 0.62888532E-02 0.12672398E+03</pdfrwt>
<totfact> 0.86157871E+04</totfact>
</mgrwt>
</event>
<event>
 6    4  0.3189516E-003  0.1271025E+03  0.7818608E-02  0.1231820E+00
         -4   -1    0    0    0  501 -0.00000000000E+00  0.00000000000E+00  0.77442276652E+01  0.78476724021E+01  0.12700000000E+01 0.  1.
         21   -1    0    0  501  502  0.00000000000E+00 -0.00000000000E+00 -0.14222714850E+04  0.14222714850E+04  0.00000000000E+00 0. -1.
         25    2    1    2    0    0  0.40591079582E+01  0.22678358651E+02 -0.52049582418E+03  0.53579002298E+03  0.12499704567E+03 0.  0.
    9000005    1    3    3    0    0  0.96827065925E+01 -0.15955367863E+02 -0.57357772444E+01  0.19550644777E+02  0.10000000000E+01 0.  0.
    9000005    1    3    3    0    0 -0.56235986343E+01  0.38633726513E+02 -0.51476004694E+03  0.51623937820E+03  0.10000000000E+01 0.  0.
         -4    1    1    2    0  502 -0.40591079582E+01 -0.22678358651E+02 -0.89403143311E+03  0.89432913437E+03  0.12700000000E+01 0. -1.
<mgrwt>
<rscale>  1 0.12710250E+03</rscale>
<asrwt>0</asrwt>
<pdfrwt beam="2">  1       21 0.21881120E+00 0.12710250E+03</pdfrwt>
<pdfrwt beam="1">  1       -4 0.11994194E-02 0.12710250E+03</pdfrwt>
<totfact> 0.96081097E+03</totfact>
</mgrwt>
</event>
<event>
 6    4  0.3189516E-003  0.1269789E+03  0.7818608E-02  0.1232009E+00
         -4   -1    0    0    0  501 -0.00000000000E+00  0.00000000000E+00  0.16021174795E+04  0.16021179828E+04  0.12700000000E+01 0.  1.
         21   -1    0    0  501  502  0.00000000000E+00 -0.00000000000E+00 -0.34915342083E+01  0.34915342083E+01  0.00000000000E+00 0.  1.
         25    2    1    2    0    0 -0.60380965512E+01 -0.21495867686E+02  0.13903304833E+04  0.13961169317E+04  0.12500041306E+03 0.  0.
    9000005    1    3    3    0    0 -0.42732324057E+02 -0.30179525010E+02  0.12407746369E+04  0.12418774315E+04  0.10000000000E+01 0.  0.
    9000005    1    3    3    0    0  0.36694227505E+02  0.86836573243E+01  0.14955584637E+03  0.15423950020E+03  0.10000000000E+01 0.  0.
         -4    1    1    2    0  502  0.60380965512E+01  0.21495867686E+02  0.20829546199E+03  0.20949258537E+03  0.12700000000E+01 0. -1.
<mgrwt>
<rscale>  1 0.12697887E+03</rscale>
<asrwt>0</asrwt>
<pdfrwt beam="2">  1       21 0.53716039E-03 0.12697887E+03</pdfrwt>
<pdfrwt beam="1">  1       -4 0.24649683E+00 0.12697887E+03</pdfrwt>
<totfact> 0.30881783E+04</totfact>
</mgrwt>
</event>
<event>
 6    4  0.3189516E-003  0.1292717E+03  0.7818608E-02  0.1228540E+00
          4   -1    0    0  502    0 -0.00000000000E+00  0.00000000000E+00  0.76847634257E+01  0.77889979400E+01  0.12700000000E+01 0.  1.
         21   -1    0    0  501  502  0.00000000000E+00 -0.00000000000E+00 -0.85424599250E+03  0.85424599250E+03  0.00000000000E+00 0.  1.
         25    2    1    2    0    0  0.89381922560E+01  0.31703916939E+02 -0.69662058405E+03  0.70851352757E+03  0.12500460393E+03 0.  0.
    9000005    1    3    3    0    0  0.35951496102E+02  0.66542147467E+02 -0.29752916440E+03  0.30699343825E+03  0.10000000000E+01 0.  0.
    9000005    1    3    3    0    0 -0.27013303846E+02 -0.34838230528E+02 -0.39909141964E+03  0.40152008932E+03  0.10000000000E+01 0.  0.
          4    1    1    2  501    0 -0.89381922560E+01 -0.31703916939E+02 -0.14994064503E+03  0.15352146287E+03  0.12700000000E+01 0. -1.
<mgrwt>
<rscale>  1 0.12927173E+03</rscale>
<asrwt>0</asrwt>
<pdfrwt beam="2">  1       21 0.13142233E+00 0.12927173E+03</pdfrwt>
<pdfrwt beam="1">  1        4 0.11903631E-02 0.12927173E+03</pdfrwt>
<totfact> 0.38946149E+04</totfact>
</mgrwt>
</event>
<event>
 6    4  0.3189516E-003  0.1273879E+03  0.7818608E-02  0.1231384E+00
         21   -1    0    0  501  502  0.00000000000E+00  0.00000000000E+00  0.38102726011E+03  0.38102726011E+03  0.00000000000E+00 0. -1.
         -4   -1    0    0    0  501 -0.00000000000E+00 -0.00000000000E+00 -0.31257685319E+02  0.31283474735E+02  0.12700000000E+01 0.  1.
         25    2    1    2    0    0 -0.54876366391E+01  0.23926464763E+02  0.10164200338E+03  0.16296861152E+03  0.12500032647E+03 0.  0.
    9000005    1    3    3    0    0 -0.76604699487E+01 -0.13051448476E+02 -0.25976158256E+02  0.30079626076E+02  0.10000000000E+01 0.  0.
    9000005    1    3    3    0    0  0.21728333096E+01  0.36977913238E+02  0.12761816164E+03  0.13288898544E+03  0.10000000000E+01 0.  0.
         -4    1    1    2    0  502  0.54876366391E+01 -0.23926464763E+02  0.24812757140E+03  0.24934212332E+03  0.12700000000E+01 0. -1.
<mgrwt>
<rscale>  1 0.12738788E+03</rscale>
<asrwt>0</asrwt>
<pdfrwt beam="1">  1       21 0.58619575E-01 0.12738788E+03</pdfrwt>
<pdfrwt beam="2">  1       -4 0.48110216E-02 0.12738788E+03</pdfrwt>
<totfact> 0.28171935E+04</totfact>
</mgrwt>
</event>
<event>
 6    4  0.3189516E-003  0.1337144E+03  0.7818608E-02  0.1222046E+00
          4   -1    0    0  502    0 -0.00000000000E+00  0.00000000000E+00  0.91590199739E+02  0.91599004297E+02  0.12700000000E+01 0.  1.
         21   -1    0    0  501  502  0.00000000000E+00 -0.00000000000E+00 -0.14067497545E+03  0.14067497545E+03  0.00000000000E+00 0. -1.
         25    2    1    2    0    0  0.40625177295E+02  0.24586941566E+02  0.32735984832E+02  0.13766334355E+03  0.12499851490E+03 0.  0.
    9000005    1    3    3    0    0  0.67888640175E+02 -0.11198936140E+01  0.60554624647E+02  0.90983428121E+02  0.10000000000E+01 0.  0.
    9000005    1    3    3    0    0 -0.27263462881E+02  0.25706835180E+02 -0.27818639815E+02  0.46679915428E+02  0.10000000000E+01 0.  0.
          4    1    1    2  501    0 -0.40625177295E+02 -0.24586941566E+02 -0.81820760541E+02  0.94610636196E+02  0.12700000000E+01 0. -1.
<mgrwt>
<rscale>  1 0.13371444E+03</rscale>
<asrwt>0</asrwt>
<pdfrwt beam="2">  1       21 0.21642304E-01 0.13371444E+03</pdfrwt>
<pdfrwt beam="1">  1        4 0.14091918E-01 0.13371444E+03</pdfrwt>
<totfact> 0.33996957E+04</totfact>
</mgrwt>
</event>
<event>
 6    4  0.3189516E-003  0.1272072E+03  0.7818608E-02  0.1231660E+00
         21   -1    0    0  501  502  0.00000000000E+00  0.00000000000E+00  0.54219099907E+02  0.54219099907E+02  0.00000000000E+00 0.  1.
          4   -1    0    0  502    0 -0.00000000000E+00 -0.00000000000E+00 -0.17899826585E+03  0.17900277114E+03  0.12700000000E+01 0.  1.
         25    2    1    2    0    0  0.22577518359E+02 -0.68505083828E+01 -0.15132146668E+03  0.19768624908E+03  0.12499997198E+03 0.  0.
    9000005    1    3    3    0    0  0.18943561344E+02  0.28720438218E+02  0.72121802208E+01  0.35167280693E+02  0.10000000000E+01 0.  0.
    9000005    1    3    3    0    0  0.36339570157E+01 -0.35570946601E+02 -0.15853364690E+03  0.16251896838E+03  0.10000000000E+01 0.  0.
          4    1    1    2  501    0 -0.22577518359E+02  0.68505083828E+01  0.26542300738E+02  0.35535621971E+02  0.12700000000E+01 0. -1.
<mgrwt>
<rscale>  1 0.12720718E+03</rscale>
<asrwt>0</asrwt>
<pdfrwt beam="1">  1       21 0.83414001E-02 0.12720718E+03</pdfrwt>
<pdfrwt beam="2">  1        4 0.27539685E-01 0.12720718E+03</pdfrwt>
<totfact> 0.55898907E+04</totfact>
</mgrwt>
</event>
<event>
 6    4  0.3189516E-003  0.1300006E+03  0.7818608E-02  0.1227455E+00
         21   -1    0    0  501  502  0.00000000000E+00  0.00000000000E+00  0.84181003152E+01  0.84181003152E+01  0.00000000000E+00 0. -1.
         -4   -1    0    0    0  501 -0.00000000000E+00 -0.00000000000E+00 -0.86642094004E+03  0.86642187082E+03  0.12700000000E+01 0. -1.
         25    2    1    2    0    0 -0.11735659018E+02 -0.33647878310E+02 -0.74767870055E+03  0.75889630382E+03  0.12502101936E+03 0.  0.
    9000005    1    3    3    0    0  0.25176151964E+02  0.37149187966E+02 -0.17442104769E+03  0.18010442157E+03  0.10000000000E+01 0.  0.
    9000005    1    3    3    0    0 -0.36911810982E+02 -0.70797066276E+02 -0.57325765286E+03  0.57879188224E+03  0.10000000000E+01 0.  0.
         -4    1    1    2    0  502  0.11735659018E+02  0.33647878310E+02 -0.11032413917E+03  0.11594366732E+03  0.12700000000E+01 0.  1.
<mgrwt>
<rscale>  1 0.13000062E+03</rscale>
<asrwt>0</asrwt>
<pdfrwt beam="1">  1       21 0.12950925E-02 0.13000062E+03</pdfrwt>
<pdfrwt beam="2">  1       -4 0.13330296E+00 0.13000062E+03</pdfrwt>
<totfact> 0.42795682E+04</totfact>
</mgrwt>
</event>
<event>
 6    4  0.3189516E-003  0.1293324E+03  0.7818608E-02  0.1228450E+00
         21   -1    0    0  501  502  0.00000000000E+00  0.00000000000E+00  0.16648167344E+03  0.16648167344E+03  0.00000000000E+00 0. -1.
          4   -1    0    0  502    0 -0.00000000000E+00 -0.00000000000E+00 -0.53515645197E+02  0.53530712501E+02  0.12700000000E+01 0.  1.
         25    2    1    2    0    0 -0.14299727322E+02  0.29944592843E+02  0.33075316239E+02  0.13349475995E+03  0.12500285416E+03 0.  0.
    9000005    1    3    3    0    0  0.88025311798E+01  0.60489037642E+02  0.60787550294E+02  0.86212148220E+02  0.10000000000E+01 0.  0.
    9000005    1    3    3    0    0 -0.23102258502E+02 -0.30544444800E+02 -0.27712234055E+02  0.47282611733E+02  0.10000000000E+01 0.  0.
          4    1    1    2  501    0  0.14299727322E+02 -0.29944592843E+02  0.79890712005E+02  0.86517625989E+02  0.12700000000E+01 0. -1.
<mgrwt>
<rscale>  1 0.12933242E+03</rscale>
<asrwt>0</asrwt>
<pdfrwt beam="1">  1       21 0.25612565E-01 0.12933242E+03</pdfrwt>
<pdfrwt beam="2">  1        4 0.82347079E-02 0.12933242E+03</pdfrwt>
<totfact> 0.61337807E+04</totfact>
</mgrwt>
</event>
<event>
 6    4  0.3189516E-003  0.1383463E+03  0.7818608E-02  0.1215572E+00
         21   -1    0    0  501  502  0.00000000000E+00  0.00000000000E+00  0.28245270388E+02  0.28245270388E+02  0.00000000000E+00 0. -1.
         -4   -1    0    0    0  501 -0.00000000000E+00 -0.00000000000E+00 -0.57512834260E+03  0.57512974480E+03  0.12700000000E+01 0.  1.
         25    2    1    2    0    0  0.10600653718E+02  0.58336974675E+02 -0.52030900655E+03  0.53838755225E+03  0.12499647056E+03 0.  0.
    9000005    1    3    3    0    0 -0.54743432240E+02  0.39228374034E+02 -0.31366187662E+03  0.32081222163E+03  0.10000000000E+01 0.  0.
    9000005    1    3    3    0    0  0.65344085958E+02  0.19108600640E+02 -0.20664712993E+03  0.21757533062E+03  0.10000000000E+01 0.  0.
         -4    1    1    2    0  502 -0.10600653718E+02 -0.58336974675E+02 -0.26574065660E+02  0.64987462938E+02  0.12700000000E+01 0. -1.
<mgrwt>
<rscale>  1 0.13834628E+03</rscale>
<asrwt>0</asrwt>
<pdfrwt beam="1">  1       21 0.43454264E-02 0.13834628E+03</pdfrwt>
<pdfrwt beam="2">  1       -4 0.88483584E-01 0.13834628E+03</pdfrwt>
<totfact> 0.15767397E+04</totfact>
</mgrwt>
</event>
<event>
 6    4  0.3189516E-003  0.1293528E+03  0.7818608E-02  0.1228419E+00
         -4   -1    0    0    0  501 -0.00000000000E+00  0.00000000000E+00  0.12017542977E+03  0.12018214018E+03  0.12700000000E+01 0.  1.
         21   -1    0    0  501  502  0.00000000000E+00 -0.00000000000E+00 -0.60712457128E+02  0.60712457128E+02  0.00000000000E+00 0.  1.
         25    2    1    2    0    0  0.22769951029E+00  0.33292354464E+02  0.22786342062E+02  0.13134441222E+03  0.12499481798E+03 0.  0.
    9000005    1    3    3    0    0  0.14870939347E+02 -0.41557923517E+02  0.31981739982E+02  0.54516396950E+02  0.10000000000E+01 0.  0.
    9000005    1    3    3    0    0 -0.14643239837E+02  0.74850277981E+02 -0.91953979200E+01  0.76828015265E+02  0.10000000000E+01 0.  0.
         -4    1    1    2    0  502 -0.22769951029E+00 -0.33292354464E+02  0.36676630575E+02  0.49550185097E+02  0.12700000000E+01 0. -1.
<mgrwt>
<rscale>  1 0.12935276E+03</rscale>
<asrwt>0</asrwt>
<pdfrwt beam="2">  1       21 0.93403781E-02 0.12935276E+03</pdfrwt>
<pdfrwt beam="1">  1       -4 0.18490066E-01 0.12935276E+03</pdfrwt>
<totfact> 0.95169471E+04</totfact>
</mgrwt>
</event>
<event>
 6    4  0.3189516E-003  0.1276856E+03  0.7818608E-02  0.1230931E+00
          4   -1    0    0  502    0 -0.00000000000E+00  0.00000000000E+00  0.71755885777E+03  0.71755998165E+03  0.12700000000E+01 0. -1.
         21   -1    0    0  501  502  0.00000000000E+00 -0.00000000000E+00 -0.13950697567E+02  0.13950697567E+02  0.00000000000E+00 0. -1.
         25    2    1    2    0    0  0.14952005612E+02  0.21410208410E+02  0.69060641837E+03  0.70231106130E+03  0.12498656821E+03 0.  0.
    9000005    1    3    3    0    0  0.35405516728E+02  0.57169650621E+02  0.22372493383E+03  0.23361456629E+03  0.10000000000E+01 0.  0.
    9000005    1    3    3    0    0 -0.20453511116E+02 -0.35759442211E+02  0.46688148454E+03  0.46869649501E+03  0.10000000000E+01 0.  0.
          4    1    1    2  501    0 -0.14952005612E+02 -0.21410208410E+02  0.13001741838E+02  0.29199617922E+02  0.12700000000E+01 0.  1.
<mgrwt>
<rscale>  1 0.12768556E+03</rscale>
<asrwt>0</asrwt>
<pdfrwt beam="2">  1       21 0.21462617E-02 0.12768556E+03</pdfrwt>
<pdfrwt beam="1">  1        4 0.11039817E+00 0.12768556E+03</pdfrwt>
<totfact> 0.29901509E+04</totfact>
</mgrwt>
</event>
<event>
 6    4  0.3189516E-003  0.1273170E+03  0.7818608E-02  0.1231492E+00
          4   -1    0    0  502    0 -0.00000000000E+00  0.00000000000E+00  0.71949624063E+03  0.71949736148E+03  0.12700000000E+01 0. -1.
         21   -1    0    0  501  502  0.00000000000E+00 -0.00000000000E+00 -0.83416628279E+01  0.83416628279E+01  0.00000000000E+00 0. -1.
         25    2    1    2    0    0  0.22711363687E+02 -0.83455115241E+01  0.64356614339E+03  0.65603886436E+03  0.12499662806E+03 0.  0.
    9000005    1    3    3    0    0 -0.19596991338E+02 -0.10533435778E+02  0.16939864632E+02  0.27981321494E+02  0.10000000000E+01 0.  0.
    9000005    1    3    3    0    0  0.42308355024E+02  0.21879242543E+01  0.62662627876E+03  0.62805754286E+03  0.10000000000E+01 0.  0.
          4    1    1    2  501    0 -0.22711363687E+02  0.83455115241E+01  0.67588434410E+02  0.71800159952E+02  0.12700000000E+01 0.  1.
<mgrwt>
<rscale>  1 0.12731697E+03</rscale>
<asrwt>0</asrwt>
<pdfrwt beam="2">  1       21 0.12833333E-02 0.12731697E+03</pdfrwt>
<pdfrwt beam="1">  1        4 0.11069920E+00 0.12731697E+03</pdfrwt>
<totfact> 0.67704476E+04</totfact>
</mgrwt>
</event>
<event>
 6    4  0.3189516E-003  0.1324416E+03  0.7818608E-02  0.1223877E+00
         -4   -1    0    0    0  501 -0.00000000000E+00  0.00000000000E+00  0.11148978173E+03  0.11149701489E+03  0.12700000000E+01 0.  1.
         21   -1    0    0  501  502  0.00000000000E+00 -0.00000000000E+00 -0.75225939757E+02  0.75225939757E+02  0.00000000000E+00 0.  1.
         25    2    1    2    0    0  0.43355338475E+02 -0.60274043580E+01  0.43069161635E+01  0.13251158144E+03  0.12499901885E+03 0.  0.
    9000005    1    3    3    0    0  0.87764033996E+02 -0.63093225561E+01  0.16581582029E+01  0.88011832744E+02  0.10000000000E+01 0.  0.
    9000005    1    3    3    0    0 -0.44408695520E+02  0.28191819809E+00  0.26487579606E+01  0.44499748701E+02  0.10000000000E+01 0.  0.
         -4    1    1    2    0  502 -0.43355338475E+02  0.60274043580E+01  0.31956925807E+02  0.54211373204E+02  0.12700000000E+01 0. -1.
<mgrwt>
<rscale>  1 0.13244157E+03</rscale>
<asrwt>0</asrwt>
<pdfrwt beam="2">  1       21 0.11573222E-01 0.13244157E+03</pdfrwt>
<pdfrwt beam="1">  1       -4 0.17153655E-01 0.13244157E+03</pdfrwt>
<totfact> 0.74886893E+04</totfact>
</mgrwt>
</event>
<event>
 6    4  0.3189516E-003  0.1738412E+03  0.7818608E-02  0.1173900E+00
         -4   -1    0    0    0  501 -0.00000000000E+00  0.00000000000E+00  0.22875695914E+04  0.22875699439E+04  0.12700000000E+01 0.  1.
         21   -1    0    0  501  502  0.00000000000E+00 -0.00000000000E+00 -0.34401009593E+02  0.34401009593E+02  0.00000000000E+00 0. -1.
         25    2    1    2    0    0  0.64950585730E+02  0.10186662267E+03  0.21660604750E+04  0.21730252500E+04  0.12500147520E+03 0.  0.
    9000005    1    3    3    0    0  0.93024539608E+02  0.57706061301E+02  0.10392810561E+04  0.10450309412E+04  0.10000000000E+01 0.  0.
    9000005    1    3    3    0    0 -0.28073953878E+02  0.44160561369E+02  0.11267794188E+04  0.11279943088E+04  0.10000000000E+01 0.  0.
         -4    1    1    2    0  502 -0.64950585730E+02 -0.10186662267E+03  0.87108106822E+02  0.14894570345E+03  0.12700000000E+01 0. -1.
<mgrwt>
<rscale>  1 0.17384118E+03</rscale>
<asrwt>0</asrwt>
<pdfrwt beam="2">  1       21 0.52924648E-02 0.17384118E+03</pdfrwt>
<pdfrwt beam="1">  1       -4 0.35193549E+00 0.17384118E+03</pdfrwt>
<totfact> 0.18698631E+02</totfact>
</mgrwt>
</event>
<event>
 6    4  0.3189516E-003  0.1369580E+03  0.7818608E-02  0.1217482E+00
          4   -1    0    0  502    0 -0.00000000000E+00  0.00000000000E+00  0.58079886028E+02  0.58093769554E+02  0.12700000000E+01 0. -1.
         21   -1    0    0  501  502  0.00000000000E+00 -0.00000000000E+00 -0.24498959352E+03  0.24498959352E+03  0.00000000000E+00 0.  1.
         25    2    1    2    0    0 -0.55810447745E+02  0.30864078318E+01 -0.35214432348E+02  0.14141270590E+03  0.12503265634E+03 0.  0.
    9000005    1    3    3    0    0 -0.51273084883E+02 -0.11158272974E+02  0.39199061316E+02  0.65505745529E+02  0.10000000000E+01 0.  0.
    9000005    1    3    3    0    0 -0.45373628617E+01  0.14244680806E+02 -0.74413493664E+02  0.75906960368E+02  0.10000000000E+01 0.  0.
          4    1    1    2  501    0  0.55810447745E+02 -0.30864078318E+01 -0.15169527514E+03  0.16167065718E+03  0.12700000000E+01 0.  1.
<mgrwt>
<rscale>  1 0.13695801E+03</rscale>
<asrwt>0</asrwt>
<pdfrwt beam="2">  1       21 0.37690708E-01 0.13695801E+03</pdfrwt>
<pdfrwt beam="1">  1        4 0.89366881E-02 0.13695801E+03</pdfrwt>
<totfact> 0.25466505E+04</totfact>
</mgrwt>
</event>
<event>
 6    4  0.3189516E-003  0.1271733E+03  0.7818608E-02  0.1231711E+00
         -4   -1    0    0    0  501 -0.00000000000E+00  0.00000000000E+00  0.31153787969E+02  0.31179663321E+02  0.12700000000E+01 0. -1.
         21   -1    0    0  501  502  0.00000000000E+00 -0.00000000000E+00 -0.18756206369E+03  0.18756206369E+03  0.00000000000E+00 0. -1.
         25    2    1    2    0    0 -0.20598848812E+02  0.11132084619E+02 -0.14433082499E+03  0.19236534370E+03  0.12499921014E+03 0.  0.
    9000005    1    3    3    0    0 -0.59151573711E+02  0.29823391761E+02 -0.34987095689E+02  0.74922895255E+02  0.10000000000E+01 0.  0.
    9000005    1    3    3    0    0  0.38552724899E+02 -0.18691307142E+02 -0.10934372930E+03  0.11744244845E+03  0.10000000000E+01 0.  0.
         -4    1    1    2    0  502  0.20598848812E+02 -0.11132084619E+02 -0.12077450733E+02  0.26376383311E+02  0.12700000000E+01 0.  1.
<mgrwt>
<rscale>  1 0.12717326E+03</rscale>
<asrwt>0</asrwt>
<pdfrwt beam="2">  1       21 0.28855703E-01 0.12717326E+03</pdfrwt>
<pdfrwt beam="1">  1       -4 0.47952115E-02 0.12717326E+03</pdfrwt>
<totfact> 0.11763034E+05</totfact>
</mgrwt>
</event>
<event>
 6    4  0.3189516E-003  0.1274529E+03  0.7818608E-02  0.1231285E+00
          4   -1    0    0  502    0 -0.00000000000E+00  0.00000000000E+00  0.18042178904E+04  0.18042183374E+04  0.12700000000E+01 0.  1.
         21   -1    0    0  501  502  0.00000000000E+00 -0.00000000000E+00 -0.38341251253E+01  0.38341251253E+01  0.00000000000E+00 0.  1.
         25    2    1    2    0    0 -0.22168358634E+02 -0.11316441105E+02  0.16940261194E+04  0.16988139175E+04  0.12499894143E+03 0.  0.
    9000005    1    3    3    0    0 -0.38125143658E+02 -0.59635409978E+02  0.72364951245E+03  0.72710351778E+03  0.10000000000E+01 0.  0.
    9000005    1    3    3    0    0  0.15956785023E+02  0.48318968873E+02  0.97037660691E+03  0.97171039975E+03  0.10000000000E+01 0.  0.
          4    1    1    2  501    0  0.22168358634E+02  0.11316441105E+02  0.10635764593E+03  0.10923854499E+03  0.12700000000E+01 0. -1.
<mgrwt>
<rscale>  1 0.12745287E+03</rscale>
<asrwt>0</asrwt>
<pdfrwt beam="2">  1       21 0.58986685E-03 0.12745287E+03</pdfrwt>
<pdfrwt beam="1">  1        4 0.27758752E+00 0.12745287E+03</pdfrwt>
<totfact> 0.17725447E+04</totfact>
</mgrwt>
</event>
<event>
 6    4  0.3189516E-003  0.1414423E+03  0.7818608E-02  0.1211401E+00
         21   -1    0    0  501  502  0.00000000000E+00  0.00000000000E+00  0.33981778895E+03  0.33981778895E+03  0.00000000000E+00 0.  1.
         -4   -1    0    0    0  501 -0.00000000000E+00 -0.00000000000E+00 -0.49576330722E+02  0.49592594889E+02  0.12700000000E+01 0. -1.
         25    2    1    2    0    0 -0.66103473835E+02  0.31917913851E+01  0.66898746908E+02  0.15646524784E+03  0.12500429856E+03 0.  0.
    9000005    1    3    3    0    0  0.56228117812E+01 -0.19753447733E+02  0.77705622949E+02  0.80380212413E+02  0.10000000000E+01 0.  0.
    9000005    1    3    3    0    0 -0.71726285616E+02  0.22945239118E+02 -0.10806876041E+02  0.76085035429E+02  0.10000000000E+01 0.  0.
         -4    1    1    2    0  502  0.66103473835E+02 -0.31917913851E+01  0.22334271132E+03  0.23294513600E+03  0.12700000000E+01 0.  1.
<mgrwt>
<rscale>  1 0.14144233E+03</rscale>
<asrwt>0</asrwt>
<pdfrwt beam="1">  1       21 0.52279658E-01 0.14144233E+03</pdfrwt>
<pdfrwt beam="2">  1       -4 0.76285617E-02 0.14144233E+03</pdfrwt>
<totfact> 0.17080933E+04</totfact>
</mgrwt>
</event>
<event>
 6    4  0.3189516E-003  0.1294647E+03  0.7818608E-02  0.1228252E+00
          4   -1    0    0  502    0 -0.00000000000E+00  0.00000000000E+00  0.10774507321E+02  0.10849097105E+02  0.12700000000E+01 0. -1.
         21   -1    0    0  501  502  0.00000000000E+00 -0.00000000000E+00 -0.82882093150E+03  0.82882093150E+03  0.00000000000E+00 0. -1.
         25    2    1    2    0    0  0.30116468491E+02 -0.15160993722E+02 -0.40368549485E+03  0.42393760256E+03  0.12499701882E+03 0.  0.
    9000005    1    3    3    0    0 -0.18756598540E+00 -0.39131952525E+02 -0.37173409347E+03  0.37378948773E+03  0.10000000000E+01 0.  0.
    9000005    1    3    3    0    0  0.30304034476E+02  0.23970958802E+02 -0.31951401376E+02  0.50148114833E+02  0.10000000000E+01 0.  0.
          4    1    1    2  501    0 -0.30116468491E+02  0.15160993722E+02 -0.41436092933E+03  0.41573242604E+03  0.12700000000E+01 0.  1.
<mgrwt>
<rscale>  1 0.12946471E+03</rscale>
<asrwt>0</asrwt>
<pdfrwt beam="2">  1       21 0.12751088E+00 0.12946471E+03</pdfrwt>
<pdfrwt beam="1">  1        4 0.16634295E-02 0.12946471E+03</pdfrwt>
<totfact> 0.25246671E+04</totfact>
</mgrwt>
</event>
<event>
 6    4  0.3189516E-003  0.1278011E+03  0.7818608E-02  0.1230755E+00
          4   -1    0    0  502    0 -0.00000000000E+00  0.00000000000E+00  0.31566778370E+02  0.31592315468E+02  0.12700000000E+01 0.  1.
         21   -1    0    0  501  502  0.00000000000E+00 -0.00000000000E+00 -0.19354168581E+03  0.19354168581E+03  0.00000000000E+00 0. -1.
         25    2    1    2    0    0 -0.63281006838E+01  0.25859655547E+02 -0.11936367746E+03  0.17487371414E+03  0.12499744700E+03 0.  0.
    9000005    1    3    3    0    0 -0.70058401286E+01 -0.47153022134E+02 -0.76666878605E+02  0.90284547777E+02  0.10000000000E+01 0.  0.
    9000005    1    3    3    0    0  0.67773944484E+00  0.73012677681E+02 -0.42696798857E+02  0.84589166360E+02  0.10000000000E+01 0.  0.
          4    1    1    2  501    0  0.63281006838E+01 -0.25859655547E+02 -0.42611229979E+02  0.50260287142E+02  0.12700000000E+01 0. -1.
<mgrwt>
<rscale>  1 0.12780113E+03</rscale>
<asrwt>0</asrwt>
<pdfrwt beam="2">  1       21 0.29775644E-01 0.12780113E+03</pdfrwt>
<pdfrwt beam="1">  1        4 0.48587124E-02 0.12780113E+03</pdfrwt>
<totfact> 0.10850286E+05</totfact>
</mgrwt>
</event>
<event>
 6    4  0.3189516E-003  0.1287648E+03  0.7818608E-02  0.1229300E+00
         21   -1    0    0  501  502  0.00000000000E+00  0.00000000000E+00  0.47463399479E+02  0.47463399479E+02  0.00000000000E+00 0.  1.
          4   -1    0    0  502    0 -0.00000000000E+00 -0.00000000000E+00 -0.13474307486E+03  0.13474905982E+03  0.12700000000E+01 0. -1.
         25    2    1    2    0    0 -0.28077458015E+02 -0.13225937189E+02 -0.73087414074E+02  0.14806129176E+03  0.12496842385E+03 0.  0.
    9000005    1    3    3    0    0  0.41523344218E+02 -0.10420448986E+02 -0.65125957175E+02  0.77943339485E+02  0.10000000000E+01 0.  0.
    9000005    1    3    3    0    0 -0.69600802233E+02 -0.28054882031E+01 -0.79614568992E+01  0.70117952276E+02  0.10000000000E+01 0.  0.
          4    1    1    2  501    0  0.28077458015E+02  0.13225937189E+02 -0.14192261303E+02  0.34151167535E+02  0.12700000000E+01 0.  1.
<mgrwt>
<rscale>  1 0.12876481E+03</rscale>
<asrwt>0</asrwt>
<pdfrwt beam="1">  1       21 0.73020615E-02 0.12876481E+03</pdfrwt>
<pdfrwt beam="2">  1        4 0.20731471E-01 0.12876481E+03</pdfrwt>
<totfact> 0.11853271E+05</totfact>
</mgrwt>
</event>
<event>
 6    4  0.3189516E-003  0.1277671E+03  0.7818608E-02  0.1230807E+00
          4   -1    0    0  502    0 -0.00000000000E+00  0.00000000000E+00  0.18645770886E+02  0.18688971934E+02  0.12700000000E+01 0.  1.
         21   -1    0    0  501  502  0.00000000000E+00 -0.00000000000E+00 -0.33052974481E+03  0.33052974481E+03  0.00000000000E+00 0.  1.
         25    2    1    2    0    0  0.26382995944E+02  0.16909037179E+01 -0.28005109419E+03  0.30781984281E+03  0.12500207456E+03 0.  0.
    9000005    1    3    3    0    0  0.66724373095E+02 -0.31557760569E+02 -0.18771138623E+03  0.20170423580E+03  0.10000000000E+01 0.  0.
    9000005    1    3    3    0    0 -0.40341377151E+02  0.33248664287E+02 -0.92339707951E+02  0.10611560701E+03  0.10000000000E+01 0.  0.
          4    1    1    2  501    0 -0.26382995944E+02 -0.16909037179E+01 -0.31832879736E+02  0.41398873930E+02  0.12700000000E+01 0. -1.
<mgrwt>
<rscale>  1 0.12776713E+03</rscale>
<asrwt>0</asrwt>
<pdfrwt beam="2">  1       21 0.50850731E-01 0.12776713E+03</pdfrwt>
<pdfrwt beam="1">  1        4 0.28720909E-02 0.12776713E+03</pdfrwt>
<totfact> 0.85745204E+04</totfact>
</mgrwt>
</event>
<event>
 6    4  0.3189516E-003  0.1284761E+03  0.7818608E-02  0.1229735E+00
         21   -1    0    0  501  502  0.00000000000E+00  0.00000000000E+00  0.13130636130E+02  0.13130636130E+02  0.00000000000E+00 0. -1.
         -4   -1    0    0    0  501 -0.00000000000E+00 -0.00000000000E+00 -0.47749671518E+03  0.47749840409E+03  0.12700000000E+01 0. -1.
         25    2    1    2    0    0  0.27060298636E+02 -0.12164518635E+02 -0.36724172455E+03  0.38906630880E+03  0.12500349242E+03 0.  0.
    9000005    1    3    3    0    0  0.23265012084E+02 -0.17620699146E+02 -0.87122077773E+01  0.30473798418E+02  0.10000000000E+01 0.  0.
    9000005    1    3    3    0    0  0.37952865521E+01  0.54561805112E+01 -0.35852951677E+03  0.35859251038E+03  0.10000000000E+01 0.  0.
         -4    1    1    2    0  502 -0.27060298636E+02  0.12164518635E+02 -0.97124354500E+02  0.10156273142E+03  0.12700000000E+01 0.  1.
<mgrwt>
<rscale>  1 0.12847610E+03</rscale>
<asrwt>0</asrwt>
<pdfrwt beam="1">  1       21 0.20200978E-02 0.12847610E+03</pdfrwt>
<pdfrwt beam="2">  1       -4 0.73465891E-01 0.12847610E+03</pdfrwt>
<totfact> 0.82890061E+04</totfact>
</mgrwt>
</event>
<event>
 6    4  0.3189516E-003  0.1278593E+03  0.7818608E-02  0.1230667E+00
          4   -1    0    0  502    0 -0.00000000000E+00  0.00000000000E+00  0.23996842127E+02  0.24030425133E+02  0.12700000000E+01 0. -1.
         21   -1    0    0  501  502  0.00000000000E+00 -0.00000000000E+00 -0.44265562342E+03  0.44265562342E+03  0.00000000000E+00 0.  1.
         25    2    1    2    0    0  0.23687670407E+02 -0.12752341713E+02 -0.15180263333E+03  0.19847429536E+03  0.12499711390E+03 0.  0.
    9000005    1    3    3    0    0 -0.12583156255E+02 -0.13522835600E+02 -0.16016567187E+03  0.16123041074E+03  0.10000000000E+01 0.  0.
    9000005    1    3    3    0    0  0.36270826662E+02  0.77049388614E+00  0.83630385337E+01  0.37243884614E+02  0.10000000000E+01 0.  0.
          4    1    1    2  501    0 -0.23687670407E+02  0.12752341713E+02 -0.26685614796E+03  0.26821175319E+03  0.12700000000E+01 0.  1.
<mgrwt>
<rscale>  1 0.12785932E+03</rscale>
<asrwt>0</asrwt>
<pdfrwt beam="2">  1       21 0.68100861E-01 0.12785932E+03</pdfrwt>
<pdfrwt beam="1">  1        4 0.36945455E-02 0.12785932E+03</pdfrwt>
<totfact> 0.31113187E+04</totfact>
</mgrwt>
</event>
<event>
 6    4  0.3189516E-003  0.1280109E+03  0.7818608E-02  0.1230437E+00
          4   -1    0    0  502    0 -0.00000000000E+00  0.00000000000E+00  0.28953656010E+02  0.28981495757E+02  0.12700000000E+01 0. -1.
         21   -1    0    0  501  502  0.00000000000E+00 -0.00000000000E+00 -0.35408654112E+03  0.35408654112E+03  0.00000000000E+00 0. -1.
         25    2    1    2    0    0 -0.21820264636E+02  0.16910489181E+02 -0.11800056701E+03  0.17410033914E+03  0.12499882273E+03 0.  0.
    9000005    1    3    3    0    0 -0.55273316443E+02  0.46569923638E+02 -0.10510050344E+03  0.12755788146E+03  0.10000000000E+01 0.  0.
    9000005    1    3    3    0    0  0.33453051806E+02 -0.29659434458E+02 -0.12900063565E+02  0.46542457686E+02  0.10000000000E+01 0.  0.
          4    1    1    2  501    0  0.21820264636E+02 -0.16910489181E+02 -0.20713231811E+03  0.20896769774E+03  0.12700000000E+01 0.  1.
<mgrwt>
<rscale>  1 0.12801091E+03</rscale>
<asrwt>0</asrwt>
<pdfrwt beam="2">  1       21 0.54474856E-01 0.12801091E+03</pdfrwt>
<pdfrwt beam="1">  1        4 0.44567250E-02 0.12801091E+03</pdfrwt>
<totfact> 0.37160561E+04</totfact>
</mgrwt>
</event>
<event>
 6    4  0.3189516E-003  0.1324956E+03  0.7818608E-02  0.1223799E+00
         21   -1    0    0  501  502  0.00000000000E+00  0.00000000000E+00  0.26871424684E+03  0.26871424684E+03  0.00000000000E+00 0.  1.
          4   -1    0    0  502    0 -0.00000000000E+00 -0.00000000000E+00 -0.83796714275E+02  0.83806337608E+02  0.12700000000E+01 0. -1.
         25    2    1    2    0    0  0.37690194847E+02  0.22575196962E+02 -0.27740141449E+02  0.13536835784E+03  0.12499954620E+03 0.  0.
    9000005    1    3    3    0    0  0.83704130726E+02  0.89628659125E+01 -0.22111349886E+02  0.87043818044E+02  0.10000000000E+01 0.  0.
    9000005    1    3    3    0    0 -0.46013935879E+02  0.13612331049E+02 -0.56287915629E+01  0.48324539792E+02  0.10000000000E+01 0.  0.
          4    1    1    2  501    0 -0.37690194847E+02 -0.22575196962E+02  0.21265767401E+03  0.21715222661E+03  0.12700000000E+01 0.  1.
<mgrwt>
<rscale>  1 0.13249557E+03</rscale>
<asrwt>0</asrwt>
<pdfrwt beam="1">  1       21 0.41340653E-01 0.13249557E+03</pdfrwt>
<pdfrwt beam="2">  1        4 0.12892773E-01 0.13249557E+03</pdfrwt>
<totfact> 0.11345125E+04</totfact>
</mgrwt>
</event>
<event>
 6    4  0.3189516E-003  0.1282532E+03  0.7818608E-02  0.1230071E+00
          4   -1    0    0  502    0 -0.00000000000E+00  0.00000000000E+00  0.58788777138E+02  0.58802493292E+02  0.12700000000E+01 0. -1.
         21   -1    0    0  501  502  0.00000000000E+00 -0.00000000000E+00 -0.10729462832E+03  0.10729462832E+03  0.00000000000E+00 0. -1.
         25    2    1    2    0    0 -0.26966654578E+02 -0.95632540124E+01 -0.29134004335E+02  0.13152057412E+03  0.12502085794E+03 0.  0.
    9000005    1    3    3    0    0 -0.34211804523E+02 -0.64361583822E+02 -0.14373948126E+02  0.74299875004E+02  0.10000000000E+01 0.  0.
    9000005    1    3    3    0    0  0.72451499453E+01  0.54798329810E+02 -0.14760056209E+02  0.57220699113E+02  0.10000000000E+01 0.  0.
          4    1    1    2  501    0  0.26966654578E+02  0.95632540124E+01 -0.19371846847E+02  0.34576547496E+02  0.12700000000E+01 0.  1.
<mgrwt>
<rscale>  1 0.12825315E+03</rscale>
<asrwt>0</asrwt>
<pdfrwt beam="2">  1       21 0.16506866E-01 0.12825315E+03</pdfrwt>
<pdfrwt beam="1">  1        4 0.90460605E-02 0.12825315E+03</pdfrwt>
<totfact> 0.11832922E+05</totfact>
</mgrwt>
</event>
<event>
 6    4  0.3189516E-003  0.1267601E+03  0.7818608E-02  0.1232344E+00
         21   -1    0    0  501  502  0.00000000000E+00  0.00000000000E+00  0.24206021159E+03  0.24206021159E+03  0.00000000000E+00 0.  1.
          4   -1    0    0  502    0 -0.00000000000E+00 -0.00000000000E+00 -0.40483607730E+02  0.40503523240E+02  0.12700000000E+01 0.  1.
         25    2    1    2    0    0  0.13714558086E+02  0.15969619094E+02  0.61468874762E+02  0.14087779166E+03  0.12500004713E+03 0.  0.
    9000005    1    3    3    0    0  0.37672455530E+02  0.55382843807E+01  0.92655161464E+02  0.10017916672E+03  0.10000000000E+01 0.  0.
    9000005    1    3    3    0    0 -0.23957897444E+02  0.10431334713E+02 -0.31186286702E+02  0.40698624941E+02  0.10000000000E+01 0.  0.
          4    1    1    2  501    0 -0.13714558086E+02 -0.15969619094E+02  0.14010772910E+03  0.14168594316E+03  0.12700000000E+01 0. -1.
<mgrwt>
<rscale>  1 0.12676013E+03</rscale>
<asrwt>0</asrwt>
<pdfrwt beam="1">  1       21 0.37240032E-01 0.12676013E+03</pdfrwt>
<pdfrwt beam="2">  1        4 0.62300357E-02 0.12676013E+03</pdfrwt>
<totfact> 0.46884627E+04</totfact>
</mgrwt>
</event>
<event>
 6    4  0.3189516E-003  0.1270670E+03  0.7818608E-02  0.1231874E+00
         21   -1    0    0  501  502  0.00000000000E+00  0.00000000000E+00  0.11506523548E+02  0.11506523548E+02  0.00000000000E+00 0. -1.
          4   -1    0    0  502    0 -0.00000000000E+00 -0.00000000000E+00 -0.92895923199E+03  0.92896010011E+03  0.12700000000E+01 0.  1.
         25    2    1    2    0    0 -0.21616409918E+02 -0.73175485120E+01 -0.90606247563E+03  0.91492908272E+03  0.12500080383E+03 0.  0.
    9000005    1    3    3    0    0  0.20951484237E+02 -0.38402970646E+02 -0.13180326755E+03  0.13887711901E+03  0.10000000000E+01 0.  0.
    9000005    1    3    3    0    0 -0.42567894155E+02  0.31085422134E+02 -0.77425920808E+03  0.77605196371E+03  0.10000000000E+01 0.  0.
          4    1    1    2  501    0  0.21616409918E+02  0.73175485120E+01 -0.11390232811E+02  0.25537540943E+02  0.12700000000E+01 0. -1.
<mgrwt>
<rscale>  1 0.12706698E+03</rscale>
<asrwt>0</asrwt>
<pdfrwt beam="1">  1       21 0.17702343E-02 0.12706698E+03</pdfrwt>
<pdfrwt beam="2">  1        4 0.14292227E+00 0.12706698E+03</pdfrwt>
<totfact> 0.21788035E+04</totfact>
</mgrwt>
</event>
<event>
 6    4  0.3189516E-003  0.1280583E+03  0.7818608E-02  0.1230366E+00
         21   -1    0    0  501  502  0.00000000000E+00  0.00000000000E+00  0.34429994457E+02  0.34429994457E+02  0.00000000000E+00 0.  1.
         -4   -1    0    0    0  501 -0.00000000000E+00 -0.00000000000E+00 -0.31940444198E+03  0.31940696682E+03  0.12700000000E+01 0. -1.
         25    2    1    2    0    0  0.27728482198E+02  0.22108214526E+01 -0.29705644021E+03  0.32348331399E+03  0.12500067721E+03 0.  0.
    9000005    1    3    3    0    0 -0.11510262064E+02  0.58014448664E+02 -0.15465451920E+03  0.16558134766E+03  0.10000000000E+01 0.  0.
    9000005    1    3    3    0    0  0.39238744262E+02 -0.55803627211E+02 -0.14240192101E+03  0.15790196633E+03  0.10000000000E+01 0.  0.
         -4    1    1    2    0  502 -0.27728482198E+02 -0.22108214526E+01  0.12081992688E+02  0.30353647290E+02  0.12700000000E+01 0.  1.
<mgrwt>
<rscale>  1 0.12805829E+03</rscale>
<asrwt>0</asrwt>
<pdfrwt beam="1">  1       21 0.52969222E-02 0.12805829E+03</pdfrwt>
<pdfrwt beam="2">  1       -4 0.49141141E-01 0.12805829E+03</pdfrwt>
<totfact> 0.39388093E+04</totfact>
</mgrwt>
</event>
<event>
 6    4  0.3189516E-003  0.1296215E+03  0.7818608E-02  0.1228018E+00
          4   -1    0    0  502    0 -0.00000000000E+00  0.00000000000E+00  0.94458120509E+02  0.94466657770E+02  0.12700000000E+01 0. -1.
         21   -1    0    0  501  502  0.00000000000E+00 -0.00000000000E+00 -0.20978954012E+03  0.20978954012E+03  0.00000000000E+00 0.  1.
         25    2    1    2    0    0  0.25705316565E+02 -0.22705664154E+02  0.47345988516E+02  0.13799777705E+03  0.12500173342E+03 0.  0.
    9000005    1    3    3    0    0 -0.48560409313E+02 -0.16549347974E+02  0.35834580209E+02  0.62586830961E+02  0.10000000000E+01 0.  0.
    9000005    1    3    3    0    0  0.74265725878E+02 -0.61563161801E+01  0.11511408307E+02  0.75410946091E+02  0.10000000000E+01 0.  0.
          4    1    1    2  501    0 -0.25705316565E+02  0.22705664154E+02 -0.16267740812E+03  0.16625842083E+03  0.12700000000E+01 0.  1.
<mgrwt>
<rscale>  1 0.12962154E+03</rscale>
<asrwt>0</asrwt>
<pdfrwt beam="2">  1       21 0.32275314E-01 0.12962154E+03</pdfrwt>
<pdfrwt beam="1">  1        4 0.14532971E-01 0.12962154E+03</pdfrwt>
<totfact> 0.15013886E+04</totfact>
</mgrwt>
</event>
<event>
 6    4  0.3189516E-003  0.1370205E+03  0.7818608E-02  0.1217395E+00
         -4   -1    0    0    0  501 -0.00000000000E+00  0.00000000000E+00  0.24145744446E+02  0.24179120639E+02  0.12700000000E+01 0.  1.
         21   -1    0    0  501  502  0.00000000000E+00 -0.00000000000E+00 -0.15280967054E+04  0.15280967054E+04  0.00000000000E+00 0. -1.
         25    2    1    2    0    0  0.40442034589E+02  0.38907013869E+02 -0.17556973160E+03  0.22270912320E+03  0.12500123605E+03 0.  0.
    9000005    1    3    3    0    0  0.74404459089E+02  0.39681991459E+02 -0.16787020683E+03  0.18786189161E+03  0.10000000000E+01 0.  0.
    9000005    1    3    3    0    0 -0.33962424500E+02 -0.77497759022E+00 -0.76995247738E+01  0.34847231596E+02  0.10000000000E+01 0.  0.
         -4    1    1    2    0  502 -0.40442034589E+02 -0.38907013869E+02 -0.13283812294E+04  0.13295667028E+04  0.12700000000E+01 0. -1.
<mgrwt>
<rscale>  1 0.13702052E+03</rscale>
<asrwt>0</asrwt>
<pdfrwt beam="2">  1       21 0.23509185E+00 0.13702052E+03</pdfrwt>
<pdfrwt beam="1">  1       -4 0.37173371E-02 0.13702052E+03</pdfrwt>
<totfact> 0.13397939E+03</totfact>
</mgrwt>
</event>
<event>
 6    4  0.3189516E-003  0.1392768E+03  0.7818608E-02  0.1214305E+00
          4   -1    0    0  502    0 -0.00000000000E+00  0.00000000000E+00  0.15668468177E+03  0.15668982864E+03  0.12700000000E+01 0. -1.
         21   -1    0    0  501  502  0.00000000000E+00 -0.00000000000E+00 -0.98268976395E+02  0.98268976395E+02  0.00000000000E+00 0.  1.
         25    2    1    2    0    0  0.59314143312E+02  0.15939159795E+02  0.10781350354E+03  0.17613000462E+03  0.12500321024E+03 0.  0.
    9000005    1    3    3    0    0  0.61926358061E+01  0.92298014474E+01 -0.27998692673E+02  0.30140749234E+02  0.10000000000E+01 0.  0.
    9000005    1    3    3    0    0  0.53121507506E+02  0.67093583472E+01  0.13581219621E+03  0.14598925539E+03  0.10000000000E+01 0.  0.
          4    1    1    2  501    0 -0.59314143312E+02 -0.15939159795E+02 -0.49397798165E+02  0.78828800418E+02  0.12700000000E+01 0.  1.
<mgrwt>
<rscale>  1 0.13927680E+03</rscale>
<asrwt>0</asrwt>
<pdfrwt beam="2">  1       21 0.15118304E-01 0.13927680E+03</pdfrwt>
<pdfrwt beam="1">  1        4 0.24106363E-01 0.13927680E+03</pdfrwt>
<totfact> 0.25297237E+04</totfact>
</mgrwt>
</event>
<event>
 6    4  0.3189516E-003  0.1272679E+03  0.7818608E-02  0.1231567E+00
         21   -1    0    0  501  502  0.00000000000E+00  0.00000000000E+00  0.40388870055E+03  0.40388870055E+03  0.00000000000E+00 0. -1.
         -4   -1    0    0    0  501 -0.00000000000E+00 -0.00000000000E+00 -0.19757750851E+03  0.19758159016E+03  0.12700000000E+01 0.  1.
         25    2    1    2    0    0  0.17992247828E+02 -0.15848078911E+02 -0.17667011559E+03  0.21773707937E+03  0.12498889313E+03 0.  0.
    9000005    1    3    3    0    0 -0.36898842803E+02  0.32629573560E+02 -0.43347095442E+02  0.65621523558E+02  0.10000000000E+01 0.  0.
    9000005    1    3    3    0    0  0.54891090631E+02 -0.48477652471E+02 -0.13332302015E+03  0.15211555582E+03  0.10000000000E+01 0.  0.
         -4    1    1    2    0  502 -0.17992247828E+02  0.15848078911E+02  0.38298130763E+03  0.38373321134E+03  0.12700000000E+01 0. -1.
<mgrwt>
<rscale>  1 0.12726785E+03</rscale>
<asrwt>0</asrwt>
<pdfrwt beam="1">  1       21 0.62136723E-01 0.12726785E+03</pdfrwt>
<pdfrwt beam="2">  1       -4 0.30397007E-01 0.12726785E+03</pdfrwt>
<totfact> 0.10415967E+03</totfact>
</mgrwt>
</event>
<event>
 6    4  0.3189516E-003  0.1266675E+03  0.7818608E-02  0.1232486E+00
         -4   -1    0    0    0  501 -0.00000000000E+00  0.00000000000E+00  0.21640260598E+02  0.21677494752E+02  0.12700000000E+01 0. -1.
         21   -1    0    0  501  502  0.00000000000E+00 -0.00000000000E+00 -0.52810105231E+03  0.52810105231E+03  0.00000000000E+00 0.  1.
         25    2    1    2    0    0 -0.82538107031E+01 -0.18826029342E+02 -0.16655398245E+03  0.20924837710E+03  0.12498843737E+03 0.  0.
    9000005    1    3    3    0    0  0.19138756113E+02 -0.19778621864E+02 -0.17756881666E+03  0.17969187660E+03  0.10000000000E+01 0.  0.
    9000005    1    3    3    0    0 -0.27392566816E+02  0.95259252131E+00  0.11014834203E+02  0.29556500500E+02  0.10000000000E+01 0.  0.
         -4    1    1    2    0  502  0.82538107031E+01  0.18826029342E+02 -0.33990680925E+03  0.34053016996E+03  0.12700000000E+01 0.  1.
<mgrwt>
<rscale>  1 0.12666749E+03</rscale>
<asrwt>0</asrwt>
<pdfrwt beam="2">  1       21 0.81246309E-01 0.12666749E+03</pdfrwt>
<pdfrwt beam="1">  1       -4 0.33322528E-02 0.12666749E+03</pdfrwt>
<totfact> 0.24790979E+04</totfact>
</mgrwt>
</event>
<event>
 6    4  0.3189516E-003  0.1288423E+03  0.7818608E-02  0.1229184E+00
         21   -1    0    0  501  502  0.00000000000E+00  0.00000000000E+00  0.27180403615E+02  0.27180403615E+02  0.00000000000E+00 0.  1.
         -4   -1    0    0    0  501 -0.00000000000E+00 -0.00000000000E+00 -0.26387249473E+03  0.26387555092E+03  0.12700000000E+01 0.  1.
         25    2    1    2    0    0 -0.73406226381E+01  0.30322504528E+02 -0.22169773547E+03  0.25641807610E+03  0.12500801900E+03 0.  0.
    9000005    1    3    3    0    0  0.38938885625E+02  0.55809576091E+01 -0.13337370627E+02  0.41548397764E+02  0.10000000000E+01 0.  0.
    9000005    1    3    3    0    0 -0.46279508263E+02  0.24741546919E+02 -0.20836036485E+03  0.21486967833E+03  0.10000000000E+01 0.  0.
         -4    1    1    2    0  502  0.73406226381E+01 -0.30322504528E+02 -0.14994355640E+02  0.34637878437E+02  0.12700000000E+01 0. -1.
<mgrwt>
<rscale>  1 0.12884232E+03</rscale>
<asrwt>0</asrwt>
<pdfrwt beam="1">  1       21 0.41816005E-02 0.12884232E+03</pdfrwt>
<pdfrwt beam="2">  1       -4 0.40598286E-01 0.12884232E+03</pdfrwt>
<totfact> 0.85791190E+04</totfact>
</mgrwt>
</event>
<event>
 6    4  0.3189516E-003  0.1276968E+03  0.7818608E-02  0.1230914E+00
         -4   -1    0    0    0  501 -0.00000000000E+00  0.00000000000E+00  0.74801332534E+03  0.74801440346E+03  0.12700000000E+01 0.  1.
         21   -1    0    0  501  502  0.00000000000E+00 -0.00000000000E+00 -0.99536977058E+01  0.99536977058E+01  0.00000000000E+00 0. -1.
         25    2    1    2    0    0  0.21684423709E+02  0.14530783907E+02  0.70150319657E+03  0.71303099552E+03  0.12500043139E+03 0.  0.
    9000005    1    3    3    0    0 -0.11302173261E+02  0.63468196573E+02  0.45579649423E+03  0.46033400401E+03  0.10000000000E+01 0.  0.
    9000005    1    3    3    0    0  0.32986596970E+02 -0.48937412666E+02  0.24570670235E+03  0.25269699151E+03  0.10000000000E+01 0.  0.
         -4    1    1    2    0  502 -0.21684423709E+02 -0.14530783907E+02  0.36556431058E+02  0.44937105651E+02  0.12700000000E+01 0. -1.
<mgrwt>
<rscale>  1 0.12769677E+03</rscale>
<asrwt>0</asrwt>
<pdfrwt beam="2">  1       21 0.15313387E-02 0.12769677E+03</pdfrwt>
<pdfrwt beam="1">  1       -4 0.11508524E+00 0.12769677E+03</pdfrwt>
<totfact> 0.46635921E+04</totfact>
</mgrwt>
</event>
<event>
 6    4  0.3189516E-003  0.1357850E+03  0.7818608E-02  0.1219116E+00
         21   -1    0    0  501  502  0.00000000000E+00  0.00000000000E+00  0.17969397047E+03  0.17969397047E+03  0.00000000000E+00 0. -1.
          4   -1    0    0  502    0 -0.00000000000E+00 -0.00000000000E+00 -0.49980444046E+02  0.49996576753E+02  0.12700000000E+01 0.  1.
         25    2    1    2    0    0 -0.52912599958E+02 -0.36475986138E+01  0.84061819921E+02  0.15969955197E+03  0.12499803647E+03 0.  0.
    9000005    1    3    3    0    0 -0.41136352925E+02 -0.32411749803E+02 -0.16117854178E+02  0.54804254219E+02  0.10000000000E+01 0.  0.
    9000005    1    3    3    0    0 -0.11776247033E+02  0.28764151189E+02  0.10017967410E+03  0.10489529775E+03  0.10000000000E+01 0.  0.
          4    1    1    2  501    0  0.52912599958E+02  0.36475986138E+01  0.45651706505E+02  0.69990995255E+02  0.12700000000E+01 0. -1.
<mgrwt>
<rscale>  1 0.13578497E+03</rscale>
<asrwt>0</asrwt>
<pdfrwt beam="1">  1       21 0.27645226E-01 0.13578497E+03</pdfrwt>
<pdfrwt beam="2">  1        4 0.76908854E-02 0.13578497E+03</pdfrwt>
<totfact> 0.59733647E+04</totfact>
</mgrwt>
</event>
<event>
 6    4  0.3189516E-003  0.1282335E+03  0.7818608E-02  0.1230101E+00
          4   -1    0    0  502    0 -0.00000000000E+00  0.00000000000E+00  0.12473537093E+03  0.12474183605E+03  0.12700000000E+01 0. -1.
         21   -1    0    0  501  502  0.00000000000E+00 -0.00000000000E+00 -0.49327636821E+02  0.49327636821E+02  0.00000000000E+00 0.  1.
         25    2    1    2    0    0 -0.11436291261E+02 -0.26240062543E+02  0.61263391765E+02  0.14211630464E+03  0.12499804491E+03 0.  0.
    9000005    1    3    3    0    0 -0.18835694764E+02  0.27098145820E+02 -0.24312803084E+02  0.41002503557E+02  0.10000000000E+01 0.  0.
    9000005    1    3    3    0    0  0.73994035033E+01 -0.53338208363E+02  0.85576194849E+02  0.10111380108E+03  0.10000000000E+01 0.  0.
          4    1    1    2  501    0  0.11436291261E+02  0.26240062543E+02  0.14144342346E+02  0.31953168238E+02  0.12700000000E+01 0.  1.
<mgrwt>
<rscale>  1 0.12823354E+03</rscale>
<asrwt>0</asrwt>
<pdfrwt beam="2">  1       21 0.75888673E-02 0.12823354E+03</pdfrwt>
<pdfrwt beam="1">  1        4 0.19191812E-01 0.12823354E+03</pdfrwt>
<totfact> 0.12736659E+05</totfact>
</mgrwt>
</event>
<event>
 6    4  0.3189516E-003  0.1276956E+03  0.7818608E-02  0.1230916E+00
         21   -1    0    0  501  502  0.00000000000E+00  0.00000000000E+00  0.15789888497E+03  0.15789888497E+03  0.00000000000E+00 0.  1.
         -4   -1    0    0    0  501 -0.00000000000E+00 -0.00000000000E+00 -0.14225062347E+03  0.14225629258E+03  0.12700000000E+01 0.  1.
         25    2    1    2    0    0 -0.27557067882E+01 -0.25947615825E+02 -0.11200468714E+03  0.16985644047E+03  0.12500115096E+03 0.  0.
    9000005    1    3    3    0    0  0.52271831226E+02  0.16021453976E+02 -0.70253609807E+02  0.89025844664E+02  0.10000000000E+01 0.  0.
    9000005    1    3    3    0    0 -0.55027538014E+02 -0.41969069801E+02 -0.41751077338E+02  0.80830595809E+02  0.10000000000E+01 0.  0.
         -4    1    1    2    0  502  0.27557067882E+01  0.25947615825E+02  0.12765294864E+03  0.13029873707E+03  0.12700000000E+01 0. -1.
<mgrwt>
<rscale>  1 0.12769558E+03</rscale>
<asrwt>0</asrwt>
<pdfrwt beam="1">  1       21 0.24292136E-01 0.12769558E+03</pdfrwt>
<pdfrwt beam="2">  1       -4 0.21885540E-01 0.12769558E+03</pdfrwt>
<totfact> 0.12485199E+04</totfact>
</mgrwt>
</event>
<event>
 6    4  0.3189516E-003  0.1374764E+03  0.7818608E-02  0.1216766E+00
         21   -1    0    0  501  502  0.00000000000E+00  0.00000000000E+00  0.54762149622E+02  0.54762149622E+02  0.00000000000E+00 0.  1.
          4   -1    0    0  502    0 -0.00000000000E+00 -0.00000000000E+00 -0.19285972270E+03  0.19286390419E+03  0.12700000000E+01 0. -1.
         25    2    1    2    0    0 -0.68267793686E+00 -0.57218800008E+02 -0.13109507992E+03  0.18996233096E+03  0.12500124031E+03 0.  0.
    9000005    1    3    3    0    0 -0.38484777005E+02 -0.83006135634E+02 -0.82412894347E+02  0.12314212021E+03  0.10000000000E+01 0.  0.
    9000005    1    3    3    0    0  0.37802099068E+02  0.25787335626E+02 -0.48682185575E+02  0.66820210752E+02  0.10000000000E+01 0.  0.
          4    1    1    2  501    0  0.68267793686E+00  0.57218800008E+02 -0.70024931580E+01  0.57663722859E+02  0.12700000000E+01 0.  1.
<mgrwt>
<rscale>  1 0.13747642E+03</rscale>
<asrwt>0</asrwt>
<pdfrwt beam="1">  1       21 0.84249461E-02 0.13747642E+03</pdfrwt>
<pdfrwt beam="2">  1        4 0.29672181E-01 0.13747642E+03</pdfrwt>
<totfact> 0.48235541E+04</totfact>
</mgrwt>
</event>
<event>
 6    4  0.3189516E-003  0.1267492E+03  0.7818608E-02  0.1232361E+00
         21   -1    0    0  501  502  0.00000000000E+00  0.00000000000E+00  0.31083356284E+02  0.31083356284E+02  0.00000000000E+00 0.  1.
          4   -1    0    0  502    0 -0.00000000000E+00 -0.00000000000E+00 -0.18452375827E+03  0.18452812866E+03  0.12700000000E+01 0.  1.
         25    2    1    2    0    0  0.96498840534E+01  0.18635993655E+02 -0.14592032060E+03  0.19328246692E+03  0.12499980613E+03 0.  0.
    9000005    1    3    3    0    0 -0.22852767613E+02 -0.87546768445E+00  0.15383891764E+02  0.27580419813E+02  0.10000000000E+01 0.  0.
    9000005    1    3    3    0    0  0.32502651667E+02  0.19511461340E+02 -0.16130421237E+03  0.16570204711E+03  0.10000000000E+01 0.  0.
          4    1    1    2  501    0 -0.96498840534E+01 -0.18635993655E+02 -0.75200813826E+01  0.22329018021E+02  0.12700000000E+01 0. -1.
<mgrwt>
<rscale>  1 0.12674925E+03</rscale>
<asrwt>0</asrwt>
<pdfrwt beam="1">  1       21 0.47820548E-02 0.12674925E+03</pdfrwt>
<pdfrwt beam="2">  1        4 0.28390603E-01 0.12674925E+03</pdfrwt>
<totfact> 0.13593359E+05</totfact>
</mgrwt>
</event>
<event>
 6    4  0.3189516E-003  0.1269523E+03  0.7818608E-02  0.1232049E+00
         21   -1    0    0  501  502  0.00000000000E+00  0.00000000000E+00  0.14118390266E+03  0.14118390266E+03  0.00000000000E+00 0.  1.
         -4   -1    0    0    0  501 -0.00000000000E+00 -0.00000000000E+00 -0.43092448046E+02  0.43111158400E+02  0.12700000000E+01 0.  1.
         25    2    1    2    0    0  0.20367639039E+02 -0.87780269971E+01  0.60502540701E+02  0.14063233294E+03  0.12500000463E+03 0.  0.
    9000005    1    3    3    0    0  0.52114607815E+02 -0.37946521721E+02  0.71350132599E+02  0.96165026284E+02  0.10000000000E+01 0.  0.
    9000005    1    3    3    0    0 -0.31746968775E+02  0.29168494724E+02 -0.10847591898E+02  0.44467306652E+02  0.10000000000E+01 0.  0.
         -4    1    1    2    0  502 -0.20367639039E+02  0.87780269971E+01  0.37588913909E+02  0.43662728120E+02  0.12700000000E+01 0. -1.
<mgrwt>
<rscale>  1 0.12695234E+03</rscale>
<asrwt>0</asrwt>
<pdfrwt beam="1">  1       21 0.21720600E-01 0.12695234E+03</pdfrwt>
<pdfrwt beam="2">  1       -4 0.66314861E-02 0.12695234E+03</pdfrwt>
<totfact> 0.11908943E+05</totfact>
</mgrwt>
</event>
<event>
 6    4  0.3189516E-003  0.1361411E+03  0.7818608E-02  0.1218618E+00
         -4   -1    0    0    0  501 -0.00000000000E+00  0.00000000000E+00  0.10821640708E+03  0.10822385902E+03  0.12700000000E+01 0.  1.
         21   -1    0    0  501  502  0.00000000000E+00 -0.00000000000E+00 -0.15309392770E+03  0.15309392770E+03  0.00000000000E+00 0. -1.
         25    2    1    2    0    0 -0.45725747803E+02  0.28611989943E+02  0.55769269767E+02  0.14712111735E+03  0.12499968696E+03 0.  0.
    9000005    1    3    3    0    0 -0.60129630500E+02  0.69884256035E+02  0.33902375631E+02  0.98233155192E+02  0.10000000000E+01 0.  0.
    9000005    1    3    3    0    0  0.14403882697E+02 -0.41272266092E+02  0.21866894137E+02  0.48887962161E+02  0.10000000000E+01 0.  0.
         -4    1    1    2    0  502  0.45725747803E+02 -0.28611989943E+02 -0.10064679038E+03  0.11419666937E+03  0.12700000000E+01 0. -1.
<mgrwt>
<rscale>  1 0.13614115E+03</rscale>
<asrwt>0</asrwt>
<pdfrwt beam="2">  1       21 0.23552912E-01 0.13614115E+03</pdfrwt>
<pdfrwt beam="1">  1       -4 0.16649656E-01 0.13614115E+03</pdfrwt>
<totfact> 0.21711584E+04</totfact>
</mgrwt>
</event>
<event>
 6    4  0.3189516E-003  0.1295762E+03  0.7818608E-02  0.1228086E+00
         21   -1    0    0  501  502  0.00000000000E+00  0.00000000000E+00  0.17612238034E+02  0.17612238034E+02  0.00000000000E+00 0. -1.
         -4   -1    0    0    0  501 -0.00000000000E+00 -0.00000000000E+00 -0.39998054381E+03  0.39998256003E+03  0.12700000000E+01 0. -1.
         25    2    1    2    0    0 -0.11495141103E+02  0.32134158650E+02 -0.33509898307E+03  0.35927889808E+03  0.12500102293E+03 0.  0.
    9000005    1    3    3    0    0 -0.64383793990E+02  0.14159933648E+02 -0.11866361707E+03  0.13574914609E+03  0.10000000000E+01 0.  0.
    9000005    1    3    3    0    0  0.52888652887E+02  0.17974225002E+02 -0.21643536600E+03  0.22352975199E+03  0.10000000000E+01 0.  0.
         -4    1    1    2    0  502  0.11495141103E+02 -0.32134158650E+02 -0.47269322706E+02  0.58315899978E+02  0.12700000000E+01 0.  1.
<mgrwt>
<rscale>  1 0.12957623E+03</rscale>
<asrwt>0</asrwt>
<pdfrwt beam="1">  1       21 0.27095753E-02 0.12957623E+03</pdfrwt>
<pdfrwt beam="2">  1       -4 0.61539141E-01 0.12957623E+03</pdfrwt>
<totfact> 0.75273514E+04</totfact>
</mgrwt>
</event>
<event>
 6    4  0.3189516E-003  0.1281670E+03  0.7818608E-02  0.1230201E+00
          4   -1    0    0  502    0 -0.00000000000E+00  0.00000000000E+00  0.11995236063E+03  0.11995908353E+03  0.12700000000E+01 0.  1.
         21   -1    0    0  501  502  0.00000000000E+00 -0.00000000000E+00 -0.52191702222E+02  0.52191702222E+02  0.00000000000E+00 0.  1.
         25    2    1    2    0    0  0.27613110330E+02 -0.62371664086E+01  0.45111617796E+02  0.13587437403E+03  0.12500160539E+03 0.  0.
    9000005    1    3    3    0    0 -0.44630319955E+01 -0.39569624538E+02  0.72054208495E+02  0.82331541966E+02  0.10000000000E+01 0.  0.
    9000005    1    3    3    0    0  0.32076142326E+02  0.33332458129E+02 -0.26942590700E+02  0.53542832060E+02  0.10000000000E+01 0.  0.
          4    1    1    2  501    0 -0.27613110330E+02  0.62371664086E+01  0.22649040616E+02  0.36276411726E+02  0.12700000000E+01 0. -1.
<mgrwt>
<rscale>  1 0.12816703E+03</rscale>
<asrwt>0</asrwt>
<pdfrwt beam="2">  1       21 0.80294927E-02 0.12816703E+03</pdfrwt>
<pdfrwt beam="1">  1        4 0.18455915E-01 0.12816703E+03</pdfrwt>
<totfact> 0.12391909E+05</totfact>
</mgrwt>
</event>
<event>
 6    4  0.3189516E-003  0.1402311E+03  0.7818608E-02  0.1213018E+00
         21   -1    0    0  501  502  0.00000000000E+00  0.00000000000E+00  0.50597017851E+03  0.50597017851E+03  0.00000000000E+00 0. -1.
         -4   -1    0    0    0  501 -0.00000000000E+00 -0.00000000000E+00 -0.83558407870E+02  0.83568058645E+02  0.12700000000E+01 0.  1.
         25    2    1    2    0    0 -0.27604226874E+02 -0.57254788846E+02 -0.20821814224E+02  0.14176851080E+03  0.12499863407E+03 0.  0.
    9000005    1    3    3    0    0  0.17977686954E+02  0.19452074910E+01 -0.56235314504E+02  0.59079536709E+02  0.10000000000E+01 0.  0.
    9000005    1    3    3    0    0 -0.45581913828E+02 -0.59199996337E+02  0.35413500280E+02  0.82688974093E+02  0.10000000000E+01 0.  0.
         -4    1    1    2    0  502  0.27604226874E+02  0.57254788846E+02  0.44323358487E+03  0.44776972636E+03  0.12700000000E+01 0. -1.
<mgrwt>
<rscale>  1 0.14023110E+03</rscale>
<asrwt>0</asrwt>
<pdfrwt beam="1">  1       21 0.77841564E-01 0.14023110E+03</pdfrwt>
<pdfrwt beam="2">  1       -4 0.12856005E-01 0.14023110E+03</pdfrwt>
<totfact> 0.30070205E+03</totfact>
</mgrwt>
</event>
<event>
 6    4  0.3189516E-003  0.1276690E+03  0.7818608E-02  0.1230956E+00
         -4   -1    0    0    0  501 -0.00000000000E+00  0.00000000000E+00  0.44804882625E+03  0.44805062616E+03  0.12700000000E+01 0.  1.
         21   -1    0    0  501  502  0.00000000000E+00 -0.00000000000E+00 -0.13184446930E+02  0.13184446930E+02  0.00000000000E+00 0.  1.
         25    2    1    2    0    0 -0.23624022160E+01 -0.25843419549E+02  0.36647931838E+03  0.38808049198E+03  0.12500365665E+03 0.  0.
    9000005    1    3    3    0    0  0.45519856373E+02  0.28665435159E+02  0.18397916098E+03  0.19168488770E+03  0.10000000000E+01 0.  0.
    9000005    1    3    3    0    0 -0.47882258589E+02 -0.54508854707E+02  0.18250015740E+03  0.19639560427E+03  0.10000000000E+01 0.  0.
         -4    1    1    2    0  502  0.23624022160E+01  0.25843419549E+02  0.68385060944E+02  0.73154581118E+02  0.12700000000E+01 0. -1.
<mgrwt>
<rscale>  1 0.12766902E+03</rscale>
<asrwt>0</asrwt>
<pdfrwt beam="2">  1       21 0.20283768E-02 0.12766902E+03</pdfrwt>
<pdfrwt beam="1">  1       -4 0.68935420E-01 0.12766902E+03</pdfrwt>
<totfact> 0.94400299E+04</totfact>
</mgrwt>
</event>
<event>
 6    4  0.3189516E-003  0.1401528E+03  0.7818608E-02  0.1213124E+00
         21   -1    0    0  501  502  0.00000000000E+00  0.00000000000E+00  0.13164146401E+03  0.13164146401E+03  0.00000000000E+00 0.  1.
         -4   -1    0    0    0  501 -0.00000000000E+00 -0.00000000000E+00 -0.78707980420E+02  0.78718225855E+02  0.12700000000E+01 0.  1.
         25    2    1    2    0    0  0.51944510345E+02  0.36320400377E+02  0.38430510234E+02  0.14532621560E+03  0.12500160473E+03 0.  0.
    9000005    1    3    3    0    0 -0.34741398668E+01  0.63021306965E+02 -0.13807112688E+02  0.64617266579E+02  0.10000000000E+01 0.  0.
    9000005    1    3    3    0    0  0.55418650212E+02 -0.26700906588E+02  0.52237622922E+02  0.80708949023E+02  0.10000000000E+01 0.  0.
         -4    1    1    2    0  502 -0.51944510345E+02 -0.36320400377E+02  0.14502973358E+02  0.65033474264E+02  0.12700000000E+01 0. -1.
<mgrwt>
<rscale>  1 0.14015279E+03</rscale>
<asrwt>0</asrwt>
<pdfrwt beam="1">  1       21 0.20252533E-01 0.14015279E+03</pdfrwt>
<pdfrwt beam="2">  1       -4 0.12110179E-01 0.14015279E+03</pdfrwt>
<totfact> 0.50205253E+04</totfact>
</mgrwt>
</event>
<event>
 6    4  0.3189516E-003  0.1268081E+03  0.7818608E-02  0.1232270E+00
          4   -1    0    0  502    0 -0.00000000000E+00  0.00000000000E+00  0.88627487245E+01  0.89532795642E+01  0.12700000000E+01 0. -1.
         21   -1    0    0  501  502  0.00000000000E+00 -0.00000000000E+00 -0.75569572778E+03  0.75569572778E+03  0.00000000000E+00 0. -1.
         25    2    1    2    0    0 -0.30015955620E+01  0.21173207721E+02 -0.46430811518E+03  0.48131311849E+03  0.12499191139E+03 0.  0.
    9000005    1    3    3    0    0  0.54402195718E+01  0.37019065987E+02 -0.46161554221E+03  0.46313056047E+03  0.10000000000E+01 0.  0.
    9000005    1    3    3    0    0 -0.84418151338E+01 -0.15845858267E+02 -0.26925729675E+01  0.18182558020E+02  0.10000000000E+01 0.  0.
          4    1    1    2  501    0  0.30015955620E+01 -0.21173207721E+02 -0.28252486388E+03  0.28333588885E+03  0.12700000000E+01 0.  1.
<mgrwt>
<rscale>  1 0.12680809E+03</rscale>
<asrwt>0</asrwt>
<pdfrwt beam="2">  1       21 0.11626087E+00 0.12680809E+03</pdfrwt>
<pdfrwt beam="1">  1        4 0.13705460E-02 0.12680809E+03</pdfrwt>
<totfact> 0.42446507E+04</totfact>
</mgrwt>
</event>
<event>
 6    4  0.3189516E-003  0.1508926E+03  0.7818608E-02  0.1199380E+00
         -4   -1    0    0    0  501 -0.00000000000E+00  0.00000000000E+00  0.43256367911E+03  0.43256554346E+03  0.12700000000E+01 0.  1.
         21   -1    0    0  501  502  0.00000000000E+00 -0.00000000000E+00 -0.68979496318E+02  0.68979496318E+02  0.00000000000E+00 0. -1.
         25    2    1    2    0    0 -0.83137572482E+02  0.15225303991E+02  0.38570383628E+03  0.41416908307E+03  0.12499965682E+03 0.  0.
    9000005    1    3    3    0    0 -0.40506725427E+02 -0.50518240073E+02  0.24169325025E+03  0.25021893334E+03  0.10000000000E+01 0.  0.
    9000005    1    3    3    0    0 -0.42630847055E+02  0.65743544064E+02  0.14401058603E+03  0.16395014973E+03  0.10000000000E+01 0.  0.
         -4    1    1    2    0  502  0.83137572482E+02 -0.15225303991E+02 -0.22119653489E+02  0.87375956707E+02  0.12700000000E+01 0. -1.
<mgrwt>
<rscale>  1 0.15089261E+03</rscale>
<asrwt>0</asrwt>
<pdfrwt beam="2">  1       21 0.10612230E-01 0.15089261E+03</pdfrwt>
<pdfrwt beam="1">  1       -4 0.66549299E-01 0.15089261E+03</pdfrwt>
<totfact> 0.64312047E+03</totfact>
</mgrwt>
</event>
<event>
 6    4  0.3189516E-003  0.1511744E+03  0.7818608E-02  0.1199037E+00
          4   -1    0    0  502    0 -0.00000000000E+00  0.00000000000E+00  0.14472843121E+04  0.14472848693E+04  0.12700000000E+01 0.  1.
         21   -1    0    0  501  502  0.00000000000E+00 -0.00000000000E+00 -0.97659400436E+01  0.97659400436E+01  0.00000000000E+00 0.  1.
         25    2    1    2    0    0  0.73190257418E+02 -0.43273115641E+02  0.83714795683E+03  0.85068819121E+03  0.12499728281E+03 0.  0.
    9000005    1    3    3    0    0  0.10608406841E+03 -0.26764796148E+02  0.70763852296E+03  0.71604710952E+03  0.10000000000E+01 0.  0.
    9000005    1    3    3    0    0 -0.32893810991E+02 -0.16508319493E+02  0.12950943388E+03  0.13464108168E+03  0.10000000000E+01 0.  0.
          4    1    1    2  501    0 -0.73190257418E+02  0.43273115641E+02  0.60037041519E+03  0.60636261812E+03  0.12700000000E+01 0. -1.
<mgrwt>
<rscale>  1 0.15117439E+03</rscale>
<asrwt>0</asrwt>
<pdfrwt beam="2">  1       21 0.15024535E-02 0.15117439E+03</pdfrwt>
<pdfrwt beam="1">  1        4 0.22266535E+00 0.15117439E+03</pdfrwt>
<totfact> 0.85561275E+03</totfact>
</mgrwt>
</event>
<event>
 6    4  0.3189516E-003  0.1276633E+03  0.7818608E-02  0.1230965E+00
         21   -1    0    0  501  502  0.00000000000E+00  0.00000000000E+00  0.41127647661E+02  0.41127647661E+02  0.00000000000E+00 0.  1.
         -4   -1    0    0    0  501 -0.00000000000E+00 -0.00000000000E+00 -0.22583140845E+03  0.22583497945E+03  0.12700000000E+01 0.  1.
         25    2    1    2    0    0 -0.25906654437E+02 -0.10382718800E+01 -0.19967372290E+03  0.23699688971E+03  0.12500278943E+03 0.  0.
    9000005    1    3    3    0    0 -0.22889409288E+02  0.55314165462E+02 -0.15110740341E+03  0.16253624003E+03  0.10000000000E+01 0.  0.
    9000005    1    3    3    0    0 -0.30172451495E+01 -0.56352437342E+02 -0.48566319487E+02  0.74460649683E+02  0.10000000000E+01 0.  0.
         -4    1    1    2    0  502  0.25906654437E+02  0.10382718800E+01  0.14969962102E+02  0.29965737401E+02  0.12700000000E+01 0. -1.
<mgrwt>
<rscale>  1 0.12766335E+03</rscale>
<asrwt>0</asrwt>
<pdfrwt beam="1">  1       21 0.63273305E-02 0.12766335E+03</pdfrwt>
<pdfrwt beam="2">  1       -4 0.34745076E-01 0.12766335E+03</pdfrwt>
<totfact> 0.57810046E+04</totfact>
</mgrwt>
</event>
<event>
 6    4  0.3189516E-003  0.1823294E+03  0.7818608E-02  0.1165567E+00
         21   -1    0    0  501  502  0.00000000000E+00  0.00000000000E+00  0.16981704157E+03  0.16981704157E+03  0.00000000000E+00 0.  1.
         -4   -1    0    0    0  501 -0.00000000000E+00 -0.00000000000E+00 -0.39863280588E+03  0.39863482891E+03  0.12700000000E+01 0. -1.
         25    2    1    2    0    0  0.11882962861E+03  0.59176332565E+02 -0.34617738231E+03  0.39125796187E+03  0.12498677423E+03 0.  0.
    9000005    1    3    3    0    0  0.58918462758E+02 -0.15122336528E+02 -0.24384854432E+03  0.25132286582E+03  0.10000000000E+01 0.  0.
    9000005    1    3    3    0    0  0.59911165849E+02  0.74298669093E+02 -0.10232883799E+03  0.13993509605E+03  0.10000000000E+01 0.  0.
         -4    1    1    2    0  502 -0.11882962861E+03 -0.59176332565E+02  0.11736161799E+03  0.17719390861E+03  0.12700000000E+01 0.  1.
<mgrwt>
<rscale>  1 0.18232941E+03</rscale>
<asrwt>0</asrwt>
<pdfrwt beam="1">  1       21 0.26125699E-01 0.18232941E+03</pdfrwt>
<pdfrwt beam="2">  1       -4 0.61328645E-01 0.18232941E+03</pdfrwt>
<totfact> 0.14808645E+03</totfact>
</mgrwt>
</event>
<event>
 6    4  0.3189516E-003  0.1298815E+03  0.7818608E-02  0.1227632E+00
          4   -1    0    0  502    0 -0.00000000000E+00  0.00000000000E+00  0.12562283444E+03  0.12562925389E+03  0.12700000000E+01 0.  1.
         21   -1    0    0  501  502  0.00000000000E+00 -0.00000000000E+00 -0.51592378930E+03  0.51592378930E+03  0.00000000000E+00 0. -1.
         25    2    1    2    0    0 -0.11788827649E+02 -0.33268388197E+02  0.91235305485E+02  0.15872331644E+03  0.12499379226E+03 0.  0.
    9000005    1    3    3    0    0  0.63665989431E+01 -0.26319772392E+02  0.12053702565E+03  0.12354528948E+03  0.10000000000E+01 0.  0.
    9000005    1    3    3    0    0 -0.18155426592E+02 -0.69486158048E+01 -0.29301720160E+02  0.35178026958E+02  0.10000000000E+01 0.  0.
          4    1    1    2  501    0  0.11788827649E+02  0.33268388197E+02 -0.48153626034E+03  0.48282972675E+03  0.12700000000E+01 0. -1.
<mgrwt>
<rscale>  1 0.12988152E+03</rscale>
<asrwt>0</asrwt>
<pdfrwt beam="2">  1       21 0.79372891E-01 0.12988152E+03</pdfrwt>
<pdfrwt beam="1">  1        4 0.19327204E-01 0.12988152E+03</pdfrwt>
<totfact> 0.14043211E+03</totfact>
</mgrwt>
</event>
<event>
 6    4  0.3189516E-003  0.1276483E+03  0.7818608E-02  0.1230988E+00
         21   -1    0    0  501  502  0.00000000000E+00  0.00000000000E+00  0.12920630525E+02  0.12920630525E+02  0.00000000000E+00 0.  1.
          4   -1    0    0  502    0 -0.00000000000E+00 -0.00000000000E+00 -0.52997347205E+03  0.52997499373E+03  0.12700000000E+01 0.  1.
         25    2    1    2    0    0  0.28103809920E+00 -0.25883713059E+02 -0.48582360972E+03  0.50231332019E+03  0.12499618512E+03 0.  0.
    9000005    1    3    3    0    0 -0.49888473125E+02 -0.37068537356E+02 -0.37535890578E+03  0.38047108216E+03  0.10000000000E+01 0.  0.
    9000005    1    3    3    0    0  0.50169511225E+02  0.11184824298E+02 -0.11046470394E+03  0.12184223803E+03  0.10000000000E+01 0.  0.
          4    1    1    2  501    0 -0.28103809920E+00  0.25883713059E+02 -0.31229231810E+02  0.40582304069E+02  0.12700000000E+01 0. -1.
<mgrwt>
<rscale>  1 0.12764831E+03</rscale>
<asrwt>0</asrwt>
<pdfrwt beam="1">  1       21 0.19877893E-02 0.12764831E+03</pdfrwt>
<pdfrwt beam="2">  1        4 0.81539299E-01 0.12764831E+03</pdfrwt>
<totfact> 0.67610626E+04</totfact>
</mgrwt>
</event>
<event>
 6    4  0.3189516E-003  0.1277873E+03  0.7818608E-02  0.1230776E+00
         -4   -1    0    0    0  501 -0.00000000000E+00  0.00000000000E+00  0.27041162134E+03  0.27041460363E+03  0.12700000000E+01 0. -1.
         21   -1    0    0  501  502  0.00000000000E+00 -0.00000000000E+00 -0.25101054083E+03  0.25101054083E+03  0.00000000000E+00 0.  1.
         25    2    1    2    0    0 -0.26148395718E+02  0.46575325945E+01  0.25452487315E+03  0.28480257163E+03  0.12499665014E+03 0.  0.
    9000005    1    3    3    0    0  0.45558780022E+02  0.26225288860E+02  0.95139209418E+02  0.10870067793E+03  0.10000000000E+01 0.  0.
    9000005    1    3    3    0    0 -0.71707175740E+02 -0.21567756266E+02  0.15938566373E+03  0.17610189371E+03  0.10000000000E+01 0.  0.
         -4    1    1    2    0  502  0.26148395718E+02 -0.46575325945E+01 -0.23512379264E+03  0.23662257283E+03  0.12700000000E+01 0.  1.
<mgrwt>
<rscale>  1 0.12778730E+03</rscale>
<asrwt>0</asrwt>
<pdfrwt beam="2">  1       21 0.38617006E-01 0.12778730E+03</pdfrwt>
<pdfrwt beam="1">  1       -4 0.41602264E-01 0.12778730E+03</pdfrwt>
<totfact> 0.15120197E+03</totfact>
</mgrwt>
</event>
<event>
 6    4  0.3189516E-003  0.1294069E+03  0.7818608E-02  0.1228338E+00
         21   -1    0    0  501  502  0.00000000000E+00  0.00000000000E+00  0.57287463458E+02  0.57287463458E+02  0.00000000000E+00 0. -1.
         -4   -1    0    0    0  501 -0.00000000000E+00 -0.00000000000E+00 -0.45042448776E+03  0.45042627817E+03  0.12700000000E+01 0.  1.
         25    2    1    2    0    0 -0.10020981319E+02  0.31951724114E+02 -0.43514372208E+03  0.45397820126E+03  0.12499926244E+03 0.  0.
    9000005    1    3    3    0    0  0.54833523964E+02 -0.96280951804E+00 -0.22549867843E+03  0.23207390272E+03  0.10000000000E+01 0.  0.
    9000005    1    3    3    0    0 -0.64854505283E+02  0.32914533632E+02 -0.20964504365E+03  0.22190429853E+03  0.10000000000E+01 0.  0.
         -4    1    1    2    0  502  0.10020981319E+02 -0.31951724114E+02  0.42006697785E+02  0.53735540373E+02  0.12700000000E+01 0. -1.
<mgrwt>
<rscale>  1 0.12940691E+03</rscale>
<asrwt>0</asrwt>
<pdfrwt beam="1">  1       21 0.88134556E-02 0.12940691E+03</pdfrwt>
<pdfrwt beam="2">  1       -4 0.69297298E-01 0.12940691E+03</pdfrwt>
<totfact> 0.80600763E+03</totfact>
</mgrwt>
</event>
<event>
 6    4  0.3189516E-003  0.1356092E+03  0.7818608E-02  0.1219362E+00
         21   -1    0    0  501  502  0.00000000000E+00  0.00000000000E+00  0.14525742230E+02  0.14525742230E+02  0.00000000000E+00 0.  1.
          4   -1    0    0  502    0 -0.00000000000E+00 -0.00000000000E+00 -0.15409414053E+04  0.15409419286E+04  0.12700000000E+01 0. -1.
         25    2    1    2    0    0 -0.52584432341E+02  0.62774904068E+00 -0.14772616618E+04  0.14834729118E+04  0.12499738400E+03 0.  0.
    9000005    1    3    3    0    0  0.35351956693E+02  0.31694552948E+01 -0.76104696899E+03  0.76187485541E+03  0.10000000000E+01 0.  0.
    9000005    1    3    3    0    0 -0.87936389034E+02 -0.25417062541E+01 -0.71621469280E+03  0.72159805638E+03  0.10000000000E+01 0.  0.
          4    1    1    2  501    0  0.52584432341E+02 -0.62774904068E+00 -0.49154001238E+02  0.71994759054E+02  0.12700000000E+01 0.  1.
<mgrwt>
<rscale>  1 0.13560923E+03</rscale>
<asrwt>0</asrwt>
<pdfrwt beam="1">  1       21 0.22347294E-02 0.13560923E+03</pdfrwt>
<pdfrwt beam="2">  1        4 0.23707224E+00 0.13560923E+03</pdfrwt>
<totfact> 0.36882005E+03</totfact>
</mgrwt>
</event>
<event>
 6    4  0.3189516E-003  0.1313599E+03  0.7818608E-02  0.1225452E+00
         21   -1    0    0  501  502  0.00000000000E+00  0.00000000000E+00  0.40586788923E+03  0.40586788923E+03  0.00000000000E+00 0. -1.
         -4   -1    0    0    0  501 -0.00000000000E+00 -0.00000000000E+00 -0.34686087120E+02  0.34709329289E+02  0.12700000000E+01 0.  1.
         25    2    1    2    0    0  0.38527609580E+02  0.12091344589E+02  0.96640263794E+02  0.16307902668E+03  0.12499940417E+03 0.  0.
    9000005    1    3    3    0    0  0.42015651148E+02 -0.51964557863E+02  0.43199260165E+02  0.79578931219E+02  0.10000000000E+01 0.  0.
    9000005    1    3    3    0    0 -0.34880415675E+01  0.64055902452E+02  0.53441003629E+02  0.83500095460E+02  0.10000000000E+01 0.  0.
         -4    1    1    2    0  502 -0.38527609580E+02 -0.12091344589E+02  0.27454153831E+03  0.27749819184E+03  0.12700000000E+01 0. -1.
<mgrwt>
<rscale>  1 0.13135992E+03</rscale>
<asrwt>0</asrwt>
<pdfrwt beam="1">  1       21 0.62441210E-01 0.13135992E+03</pdfrwt>
<pdfrwt beam="2">  1       -4 0.53382621E-02 0.13135992E+03</pdfrwt>
<totfact> 0.20898761E+04</totfact>
</mgrwt>
</event>
<event>
 6    4  0.3189516E-003  0.1273865E+03  0.7818608E-02  0.1231386E+00
         21   -1    0    0  501  502  0.00000000000E+00  0.00000000000E+00  0.90312499212E+02  0.90312499212E+02  0.00000000000E+00 0. -1.
          4   -1    0    0  502    0 -0.00000000000E+00 -0.00000000000E+00 -0.65747129260E+02  0.65759394050E+02  0.12700000000E+01 0. -1.
         25    2    1    2    0    0 -0.53987937911E+01 -0.23998928174E+02  0.10771602507E+02  0.12784112196E+03  0.12498891757E+03 0.  0.
    9000005    1    3    3    0    0  0.17033061244E+02 -0.17105096292E+02  0.64676126650E+02  0.69041370590E+02  0.10000000000E+01 0.  0.
    9000005    1    3    3    0    0 -0.22431855035E+02 -0.68938318821E+01 -0.53904524143E+02  0.58799751372E+02  0.10000000000E+01 0.  0.
          4    1    1    2  501    0  0.53987937911E+01  0.23998928174E+02  0.13793767445E+02  0.28230771300E+02  0.12700000000E+01 0.  1.
<mgrwt>
<rscale>  1 0.12738652E+03</rscale>
<asrwt>0</asrwt>
<pdfrwt beam="1">  1       21 0.13894231E-01 0.12738652E+03</pdfrwt>
<pdfrwt beam="2">  1        4 0.10116573E-01 0.12738652E+03</pdfrwt>
<totfact> 0.13371603E+05</totfact>
</mgrwt>
</event>
<event>
 6    4  0.3189516E-003  0.1560716E+03  0.7818608E-02  0.1193205E+00
          4   -1    0    0  502    0 -0.00000000000E+00  0.00000000000E+00  0.33555557407E+03  0.33555797739E+03  0.12700000000E+01 0.  1.
         21   -1    0    0  501  502  0.00000000000E+00 -0.00000000000E+00 -0.70394000165E+02  0.70394000165E+02  0.00000000000E+00 0. -1.
         25    2    1    2    0    0  0.69166744777E+02  0.62845003225E+02  0.27054545583E+03  0.31233503412E+03  0.12499918740E+03 0.  0.
    9000005    1    3    3    0    0  0.21179395161E+01 -0.24356099026E+02  0.13770222288E+03  0.13985924143E+03  0.10000000000E+01 0.  0.
    9000005    1    3    3    0    0  0.67048805261E+02  0.87201102251E+02  0.13284323295E+03  0.17247579269E+03  0.10000000000E+01 0.  0.
          4    1    1    2  501    0 -0.69166744777E+02 -0.62845003225E+02 -0.53838819321E+01  0.93616943435E+02  0.12700000000E+01 0. -1.
<mgrwt>
<rscale>  1 0.15607155E+03</rscale>
<asrwt>0</asrwt>
<pdfrwt beam="2">  1       21 0.10829846E-01 0.15607155E+03</pdfrwt>
<pdfrwt beam="1">  1        4 0.51625000E-01 0.15607155E+03</pdfrwt>
<totfact> 0.10597697E+04</totfact>
</mgrwt>
</event>
<event>
 6    4  0.3189516E-003  0.1458528E+03  0.7818608E-02  0.1205664E+00
         21   -1    0    0  501  502  0.00000000000E+00  0.00000000000E+00  0.10371580286E+04  0.10371580286E+04  0.00000000000E+00 0. -1.
          4   -1    0    0  502    0 -0.00000000000E+00 -0.00000000000E+00 -0.12091733145E+02  0.12158244547E+02  0.12700000000E+01 0.  1.
         25    2    1    2    0    0  0.66140280950E+02  0.35672108574E+02  0.58695299258E+03  0.60480315169E+03  0.12500400272E+03 0.  0.
    9000005    1    3    3    0    0 -0.37457109696E+02  0.50462426853E+01  0.14908159150E+03  0.15380123718E+03  0.10000000000E+01 0.  0.
    9000005    1    3    3    0    0  0.10359739065E+03  0.30625865889E+02  0.43787140108E+03  0.45100191451E+03  0.10000000000E+01 0.  0.
          4    1    1    2  501    0 -0.66140280950E+02 -0.35672108574E+02  0.43811330282E+03  0.44451312141E+03  0.12700000000E+01 0. -1.
<mgrwt>
<rscale>  1 0.14585279E+03</rscale>
<asrwt>0</asrwt>
<pdfrwt beam="1">  1       21 0.15956270E+00 0.14585279E+03</pdfrwt>
<pdfrwt beam="2">  1        4 0.18654435E-02 0.14585279E+03</pdfrwt>
<totfact> 0.12005653E+04</totfact>
</mgrwt>
</event>
<event>
 6    4  0.3189516E-003  0.1288673E+03  0.7818608E-02  0.1229146E+00
         -4   -1    0    0    0  501 -0.00000000000E+00  0.00000000000E+00  0.46262253000E+02  0.46279681855E+02  0.12700000000E+01 0.  1.
         21   -1    0    0  501  502  0.00000000000E+00 -0.00000000000E+00 -0.20459643742E+03  0.20459643742E+03  0.00000000000E+00 0.  1.
         25    2    1    2    0    0  0.30997743799E+02  0.45834327420E+01 -0.50222647455E+02  0.13830798301E+03  0.12499966349E+03 0.  0.
    9000005    1    3    3    0    0 -0.24992866924E+02 -0.30991824179E+02  0.17501660811E+02  0.43502237807E+02  0.10000000000E+01 0.  0.
    9000005    1    3    3    0    0  0.55990610724E+02  0.35575256921E+02 -0.67724308265E+02  0.94805745207E+02  0.10000000000E+01 0.  0.
         -4    1    1    2    0  502 -0.30997743799E+02 -0.45834327420E+01 -0.10811153697E+03  0.11256813626E+03  0.12700000000E+01 0. -1.
<mgrwt>
<rscale>  1 0.12886731E+03</rscale>
<asrwt>0</asrwt>
<pdfrwt beam="2">  1       21 0.31476375E-01 0.12886731E+03</pdfrwt>
<pdfrwt beam="1">  1       -4 0.71189136E-02 0.12886731E+03</pdfrwt>
<totfact> 0.52510327E+04</totfact>
</mgrwt>
</event>
<event>
 6    4  0.3189516E-003  0.1533351E+03  0.7818608E-02  0.1196434E+00
         -4   -1    0    0    0  501 -0.00000000000E+00  0.00000000000E+00  0.35660516382E+02  0.35683123863E+02  0.12700000000E+01 0.  1.
         21   -1    0    0  501  502  0.00000000000E+00 -0.00000000000E+00 -0.56845891918E+03  0.56845891918E+03  0.00000000000E+00 0. -1.
         25    2    1    2    0    0  0.31511873425E+02  0.83028872470E+02 -0.16283491113E+03  0.22366682717E+03  0.12499939784E+03 0.  0.
    9000005    1    3    3    0    0 -0.24566540995E+01  0.37358026992E+02  0.12372844942E+02  0.39442928670E+02  0.10000000000E+01 0.  0.
    9000005    1    3    3    0    0  0.33968527524E+02  0.45670845478E+02 -0.17520775607E+03  0.18422389850E+03  0.10000000000E+01 0.  0.
         -4    1    1    2    0  502 -0.31511873425E+02 -0.83028872470E+02 -0.36996349167E+03  0.38047521588E+03  0.12700000000E+01 0. -1.
<mgrwt>
<rscale>  1 0.15333506E+03</rscale>
<asrwt>0</asrwt>
<pdfrwt beam="2">  1       21 0.87455211E-01 0.15333506E+03</pdfrwt>
<pdfrwt beam="1">  1       -4 0.54880819E-02 0.15333506E+03</pdfrwt>
<totfact> 0.96002863E+03</totfact>
</mgrwt>
</event>
<event>
 6    4  0.3189516E-003  0.1288628E+03  0.7818608E-02  0.1229153E+00
         21   -1    0    0  501  502  0.00000000000E+00  0.00000000000E+00  0.13221071286E+03  0.13221071286E+03  0.00000000000E+00 0. -1.
         -4   -1    0    0    0  501 -0.00000000000E+00 -0.00000000000E+00 -0.49585662514E+02  0.49601923621E+02  0.12700000000E+01 0. -1.
         25    2    1    2    0    0  0.74961145907E-01 -0.31314833150E+02  0.55279917346E+02  0.14021944481E+03  0.12499999619E+03 0.  0.
    9000005    1    3    3    0    0 -0.32498946617E+02 -0.29510022284E+02  0.85259055563E+02  0.95901665793E+02  0.10000000000E+01 0.  0.
    9000005    1    3    3    0    0  0.32573907763E+02 -0.18048108660E+01 -0.29979138216E+02  0.44317779022E+02  0.10000000000E+01 0.  0.
         -4    1    1    2    0  502 -0.74961145907E-01  0.31314833150E+02  0.27345133004E+02  0.41593191671E+02  0.12700000000E+01 0.  1.
<mgrwt>
<rscale>  1 0.12886281E+03</rscale>
<asrwt>0</asrwt>
<pdfrwt beam="1">  1       21 0.20340110E-01 0.12886281E+03</pdfrwt>
<pdfrwt beam="2">  1       -4 0.76302836E-02 0.12886281E+03</pdfrwt>
<totfact> 0.10708705E+05</totfact>
</mgrwt>
</event>
<event>
 6    4  0.3189516E-003  0.1318771E+03  0.7818608E-02  0.1224697E+00
          4   -1    0    0  502    0 -0.00000000000E+00  0.00000000000E+00  0.35448793020E+03  0.35449020516E+03  0.12700000000E+01 0. -1.
         21   -1    0    0  501  502  0.00000000000E+00 -0.00000000000E+00 -0.53600578025E+02  0.53600578025E+02  0.00000000000E+00 0.  1.
         25    2    1    2    0    0 -0.20682698300E+02 -0.36599945473E+02  0.33103931260E+03  0.35634057898E+03  0.12499700686E+03 0.  0.
    9000005    1    3    3    0    0 -0.20828648094E+02  0.20180221826E+02  0.10578050680E+02  0.30886390054E+02  0.10000000000E+01 0.  0.
    9000005    1    3    3    0    0  0.14594979330E+00 -0.56780167299E+02  0.32046126192E+03  0.32545418893E+03  0.10000000000E+01 0.  0.
          4    1    1    2  501    0  0.20682698300E+02  0.36599945473E+02 -0.30151960428E+02  0.51750204205E+02  0.12700000000E+01 0.  1.
<mgrwt>
<rscale>  1 0.13187715E+03</rscale>
<asrwt>0</asrwt>
<pdfrwt beam="2">  1       21 0.82462430E-02 0.13187715E+03</pdfrwt>
<pdfrwt beam="1">  1        4 0.54537936E-01 0.13187715E+03</pdfrwt>
<totfact> 0.15009184E+04</totfact>
</mgrwt>
</event>
<event>
 6    4  0.3189516E-003  0.1326203E+03  0.7818608E-02  0.1223619E+00
         -4   -1    0    0    0  501 -0.00000000000E+00  0.00000000000E+00  0.15811786893E+02  0.15862707989E+02  0.12700000000E+01 0.  1.
         21   -1    0    0  501  502  0.00000000000E+00 -0.00000000000E+00 -0.94393103035E+03  0.94393103035E+03  0.00000000000E+00 0. -1.
         25    2    1    2    0    0 -0.42192984255E+02  0.13589857483E+02 -0.27642483971E+03  0.30659228325E+03  0.12499281578E+03 0.  0.
    9000005    1    3    3    0    0  0.18625748881E+02  0.38971742777E+02 -0.32900337135E+02  0.54306053438E+02  0.10000000000E+01 0.  0.
    9000005    1    3    3    0    0 -0.60818733135E+02 -0.25381885294E+02 -0.24352450257E+03  0.25228622981E+03  0.10000000000E+01 0.  0.
         -4    1    1    2    0  502  0.42192984255E+02 -0.13589857483E+02 -0.65169440375E+03  0.65320145509E+03  0.12700000000E+01 0. -1.
<mgrwt>
<rscale>  1 0.13262027E+03</rscale>
<asrwt>0</asrwt>
<pdfrwt beam="2">  1       21 0.14522010E+00 0.13262027E+03</pdfrwt>
<pdfrwt beam="1">  1       -4 0.24365664E-02 0.13262027E+03</pdfrwt>
<totfact> 0.10119703E+04</totfact>
</mgrwt>
</event>
<event>
 6    4  0.3189516E-003  0.1269510E+03  0.7818608E-02  0.1232051E+00
         -4   -1    0    0    0  501 -0.00000000000E+00  0.00000000000E+00  0.25171808580E+03  0.25172128957E+03  0.12700000000E+01 0. -1.
         21   -1    0    0  501  502  0.00000000000E+00 -0.00000000000E+00 -0.23751118452E+02  0.23751118452E+02  0.00000000000E+00 0. -1.
         25    2    1    2    0    0 -0.14156045345E+02  0.17064359863E+02  0.21520268372E+03  0.24985745469E+03  0.12499986635E+03 0.  0.
    9000005    1    3    3    0    0 -0.69562162103E+02  0.50213184237E+01  0.10768252745E+03  0.12829900527E+03  0.10000000000E+01 0.  0.
    9000005    1    3    3    0    0  0.55406116759E+02  0.12043041439E+02  0.10752015627E+03  0.12155844942E+03  0.10000000000E+01 0.  0.
         -4    1    1    2    0  502  0.14156045345E+02 -0.17064359863E+02  0.12764283632E+02  0.25614953328E+02  0.12700000000E+01 0.  1.
<mgrwt>
<rscale>  1 0.12695098E+03</rscale>
<asrwt>0</asrwt>
<pdfrwt beam="2">  1       21 0.36540184E-02 0.12695098E+03</pdfrwt>
<pdfrwt beam="1">  1       -4 0.38728716E-01 0.12695098E+03</pdfrwt>
<totfact> 0.11744577E+05</totfact>
</mgrwt>
</event>
<event>
 6    4  0.3189516E-003  0.1386842E+03  0.7818608E-02  0.1215110E+00
         21   -1    0    0  501  502  0.00000000000E+00  0.00000000000E+00  0.54294698681E+03  0.54294698681E+03  0.00000000000E+00 0.  1.
         -4   -1    0    0    0  501 -0.00000000000E+00 -0.00000000000E+00 -0.18877615006E+02  0.18920286687E+02  0.12700000000E+01 0. -1.
         25    2    1    2    0    0 -0.52630042745E+02  0.28956535923E+02  0.31165825174E+03  0.34112194693E+03  0.12499965772E+03 0.  0.
    9000005    1    3    3    0    0 -0.59328026890E+02  0.20288942620E+02  0.52651807536E+02  0.81882042012E+02  0.10000000000E+01 0.  0.
    9000005    1    3    3    0    0  0.66979841455E+01  0.86675933035E+01  0.25900644420E+03  0.25923990492E+03  0.10000000000E+01 0.  0.
         -4    1    1    2    0  502  0.52630042745E+02 -0.28956535923E+02  0.21241112006E+03  0.22074532656E+03  0.12700000000E+01 0.  1.
<mgrwt>
<rscale>  1 0.13868423E+03</rscale>
<asrwt>0</asrwt>
<pdfrwt beam="1">  1       21 0.83530294E-01 0.13868423E+03</pdfrwt>
<pdfrwt beam="2">  1       -4 0.29076456E-02 0.13868423E+03</pdfrwt>
<totfact> 0.29072314E+04</totfact>
</mgrwt>
</event>
<event>
 6    4  0.3189516E-003  0.1295252E+03  0.7818608E-02  0.1228162E+00
         21   -1    0    0  501  502  0.00000000000E+00  0.00000000000E+00  0.81916157695E+01  0.81916157695E+01  0.00000000000E+00 0. -1.
         -4   -1    0    0    0  501 -0.00000000000E+00 -0.00000000000E+00 -0.95251296355E+03  0.95251381020E+03  0.12700000000E+01 0. -1.
         25    2    1    2    0    0  0.15479107343E+02  0.30205697331E+02 -0.86162002304E+03  0.87130123743E+03  0.12499918131E+03 0.  0.
    9000005    1    3    3    0    0  0.65593885374E+02  0.23169572510E+02 -0.64996920905E+03  0.65368215487E+03  0.10000000000E+01 0.  0.
    9000005    1    3    3    0    0 -0.50114778031E+02  0.70361248213E+01 -0.21165081399E+03  0.21761908255E+03  0.10000000000E+01 0.  0.
         -4    1    1    2    0  502 -0.15479107343E+02 -0.30205697331E+02 -0.82701324744E+02  0.89404188547E+02  0.12700000000E+01 0.  1.
<mgrwt>
<rscale>  1 0.12952522E+03</rscale>
<asrwt>0</asrwt>
<pdfrwt beam="1">  1       21 0.12602487E-02 0.12952522E+03</pdfrwt>
<pdfrwt beam="2">  1       -4 0.14654808E+00 0.12952522E+03</pdfrwt>
<totfact> 0.35270244E+04</totfact>
</mgrwt>
</event>
<event>
 6    4  0.3189516E-003  0.1290817E+03  0.7818608E-02  0.1228825E+00
         -4   -1    0    0    0  501 -0.00000000000E+00  0.00000000000E+00  0.29177055201E+03  0.29177331598E+03  0.12700000000E+01 0.  1.
         21   -1    0    0  501  502  0.00000000000E+00 -0.00000000000E+00 -0.23412218902E+02  0.23412218902E+02  0.00000000000E+00 0.  1.
         25    2    1    2    0    0 -0.20262847671E+02 -0.25028964612E+02  0.23880384721E+03  0.27145782511E+03  0.12500016523E+03 0.  0.
    9000005    1    3    3    0    0 -0.30241784817E+02 -0.72331523351E+02  0.17162506009E+03  0.18868644909E+03  0.10000000000E+01 0.  0.
    9000005    1    3    3    0    0  0.99789371456E+01  0.47302558739E+02  0.67178787111E+02  0.82771376015E+02  0.10000000000E+01 0.  0.
         -4    1    1    2    0  502  0.20262847671E+02  0.25028964612E+02  0.29554485901E+02  0.43727709775E+02  0.12700000000E+01 0. -1.
<mgrwt>
<rscale>  1 0.12908165E+03</rscale>
<asrwt>0</asrwt>
<pdfrwt beam="2">  1       21 0.36018801E-02 0.12908165E+03</pdfrwt>
<pdfrwt beam="1">  1       -4 0.44890637E-01 0.12908165E+03</pdfrwt>
<totfact> 0.90037426E+04</totfact>
</mgrwt>
</event>
<event>
 6    4  0.3189516E-003  0.1272854E+03  0.7818608E-02  0.1231540E+00
         21   -1    0    0  501  502  0.00000000000E+00  0.00000000000E+00  0.29640086920E+03  0.29640086920E+03  0.00000000000E+00 0. -1.
         -4   -1    0    0    0  501 -0.00000000000E+00 -0.00000000000E+00 -0.38500718102E+02  0.38521658770E+02  0.12700000000E+01 0.  1.
         25    2    1    2    0    0 -0.21279900031E+02 -0.11123461062E+02  0.69557284158E+02  0.14505095569E+03  0.12499999375E+03 0.  0.
    9000005    1    3    3    0    0 -0.82585927034E+01  0.55662029062E+02  0.47106754790E+02  0.73392861912E+02  0.10000000000E+01 0.  0.
    9000005    1    3    3    0    0 -0.13021307327E+02 -0.66785490124E+02  0.22450529368E+02  0.71658093783E+02  0.10000000000E+01 0.  0.
         -4    1    1    2    0  502  0.21279900031E+02  0.11123461062E+02  0.18834286694E+03  0.18987157228E+03  0.12700000000E+01 0. -1.
<mgrwt>
<rscale>  1 0.12728536E+03</rscale>
<asrwt>0</asrwt>
<pdfrwt beam="1">  1       21 0.45600132E-01 0.12728536E+03</pdfrwt>
<pdfrwt beam="2">  1       -4 0.59250077E-02 0.12728536E+03</pdfrwt>
<totfact> 0.33896066E+04</totfact>
</mgrwt>
</event>
<event>
 6    4  0.3189516E-003  0.1278741E+03  0.7818608E-02  0.1230645E+00
         21   -1    0    0  501  502  0.00000000000E+00  0.00000000000E+00  0.17981832029E+03  0.17981832029E+03  0.00000000000E+00 0. -1.
          4   -1    0    0  502    0 -0.00000000000E+00 -0.00000000000E+00 -0.55432725988E+02  0.55447272344E+02  0.12700000000E+01 0.  1.
         25    2    1    2    0    0 -0.44281315228E+01 -0.26601253161E+02  0.22468052889E+02  0.12983299252E+03  0.12499823010E+03 0.  0.
    9000005    1    3    3    0    0  0.39606395532E+02 -0.60354734288E+02  0.16166494786E+02  0.73984566443E+02  0.10000000000E+01 0.  0.
    9000005    1    3    3    0    0 -0.44034527055E+02  0.33753481127E+02  0.63015581036E+01  0.55848426081E+02  0.10000000000E+01 0.  0.
          4    1    1    2  501    0  0.44281315228E+01  0.26601253161E+02  0.10191754142E+03  0.10543260012E+03  0.12700000000E+01 0. -1.
<mgrwt>
<rscale>  1 0.12787413E+03</rscale>
<asrwt>0</asrwt>
<pdfrwt beam="1">  1       21 0.27664357E-01 0.12787413E+03</pdfrwt>
<pdfrwt beam="2">  1        4 0.85295757E-02 0.12787413E+03</pdfrwt>
<totfact> 0.49899491E+04</totfact>
</mgrwt>
</event>
<event>
 6    4  0.3189516E-003  0.1368372E+03  0.7818608E-02  0.1217649E+00
         21   -1    0    0  501  502  0.00000000000E+00  0.00000000000E+00  0.59011508887E+03  0.59011508887E+03  0.00000000000E+00 0. -1.
          4   -1    0    0  502    0 -0.00000000000E+00 -0.00000000000E+00 -0.32591912152E+02  0.32616646635E+02  0.12700000000E+01 0.  1.
         25    2    1    2    0    0  0.12505321589E+02  0.54248547605E+02  0.12097252920E+03  0.18264382528E+03  0.12500050442E+03 0.  0.
    9000005    1    3    3    0    0  0.23471626729E+02 -0.30299623554E+02  0.78557138518E+02  0.87414006092E+02  0.10000000000E+01 0.  0.
    9000005    1    3    3    0    0 -0.10966305140E+02  0.84548171159E+02  0.42415390685E+02  0.95229819184E+02  0.10000000000E+01 0.  0.
          4    1    1    2  501    0 -0.12505321589E+02 -0.54248547605E+02  0.43655064752E+03  0.44008791023E+03  0.12700000000E+01 0. -1.
<mgrwt>
<rscale>  1 0.13683718E+03</rscale>
<asrwt>0</asrwt>
<pdfrwt beam="1">  1       21 0.90786929E-01 0.13683718E+03</pdfrwt>
<pdfrwt beam="2">  1        4 0.50161485E-02 0.13683718E+03</pdfrwt>
<totfact> 0.10119969E+04</totfact>
</mgrwt>
</event>
<event>
 6    4  0.3189516E-003  0.1302184E+03  0.7818608E-02  0.1227132E+00
         -4   -1    0    0    0  501 -0.00000000000E+00  0.00000000000E+00  0.17820337867E+03  0.17820790406E+03  0.12700000000E+01 0. -1.
         21   -1    0    0  501  502  0.00000000000E+00 -0.00000000000E+00 -0.12315082536E+03  0.12315082536E+03  0.00000000000E+00 0.  1.
         25    2    1    2    0    0 -0.36483020553E+02  0.92595248126E+00  0.15058815763E+03  0.19908198344E+03  0.12499989895E+03 0.  0.
    9000005    1    3    3    0    0 -0.24102008001E+02 -0.53094359188E+02  0.28307540336E+02  0.64824645060E+02  0.10000000000E+01 0.  0.
    9000005    1    3    3    0    0 -0.12381012552E+02  0.54020311669E+02  0.12228061729E+03  0.13425733838E+03  0.10000000000E+01 0.  0.
         -4    1    1    2    0  502  0.36483020553E+02 -0.92595248126E+00 -0.95535604313E+02  0.10227674598E+03  0.12700000000E+01 0.  1.
<mgrwt>
<rscale>  1 0.13021844E+03</rscale>
<asrwt>0</asrwt>
<pdfrwt beam="2">  1       21 0.18946281E-01 0.13021844E+03</pdfrwt>
<pdfrwt beam="1">  1       -4 0.27416756E-01 0.13021844E+03</pdfrwt>
<totfact> 0.13123974E+04</totfact>
</mgrwt>
</event>
<event>
 6    4  0.3189516E-003  0.1302753E+03  0.7818608E-02  0.1227048E+00
         21   -1    0    0  501  502  0.00000000000E+00  0.00000000000E+00  0.13653816835E+03  0.13653816835E+03  0.00000000000E+00 0. -1.
          4   -1    0    0  502    0 -0.00000000000E+00 -0.00000000000E+00 -0.54853267166E+02  0.54867967146E+02  0.12700000000E+01 0. -1.
         25    2    1    2    0    0 -0.35126132870E+02  0.10656212162E+02  0.40954339062E+02  0.13656097473E+03  0.12499696742E+03 0.  0.
    9000005    1    3    3    0    0  0.14027837631E+02  0.55249607086E+02 -0.27693540996E+01  0.57078618009E+02  0.10000000000E+01 0.  0.
    9000005    1    3    3    0    0 -0.49153970502E+02 -0.44593394924E+02  0.43723693162E+02  0.79482356725E+02  0.10000000000E+01 0.  0.
          4    1    1    2  501    0  0.35126132870E+02 -0.10656212162E+02  0.40730562120E+02  0.54845160759E+02  0.12700000000E+01 0.  1.
<mgrwt>
<rscale>  1 0.13027525E+03</rscale>
<asrwt>0</asrwt>
<pdfrwt beam="1">  1       21 0.21005872E-01 0.13027525E+03</pdfrwt>
<pdfrwt beam="2">  1        4 0.84405493E-02 0.13027525E+03</pdfrwt>
<totfact> 0.85482487E+04</totfact>
</mgrwt>
</event>
<event>
 6    4  0.3189516E-003  0.1508504E+03  0.7818608E-02  0.1199432E+00
         21   -1    0    0  501  502  0.00000000000E+00  0.00000000000E+00  0.27717470708E+03  0.27717470708E+03  0.00000000000E+00 0. -1.
         -4   -1    0    0    0  501 -0.00000000000E+00 -0.00000000000E+00 -0.64188672736E+02  0.64201235250E+02  0.12700000000E+01 0.  1.
         25    2    1    2    0    0 -0.52932588844E+01  0.84290889984E+02  0.51973320217E+02  0.15955273222E+03  0.12499150219E+03 0.  0.
    9000005    1    3    3    0    0 -0.61442387171E+02  0.30099882324E+02  0.53263478654E+01  0.68633372631E+02  0.10000000000E+01 0.  0.
    9000005    1    3    3    0    0  0.56149128287E+02  0.54191007660E+02  0.46646972351E+02  0.90919359589E+02  0.10000000000E+01 0.  0.
         -4    1    1    2    0  502  0.52932588844E+01 -0.84290889984E+02  0.16101271412E+03  0.18182321011E+03  0.12700000000E+01 0. -1.
<mgrwt>
<rscale>  1 0.15085042E+03</rscale>
<asrwt>0</asrwt>
<pdfrwt beam="1">  1       21 0.42642262E-01 0.15085042E+03</pdfrwt>
<pdfrwt beam="2">  1       -4 0.98763707E-02 0.15085042E+03</pdfrwt>
<totfact> 0.16952716E+04</totfact>
</mgrwt>
</event>
<event>
 6    4  0.3189516E-003  0.1314056E+03  0.7818608E-02  0.1225385E+00
         -4   -1    0    0    0  501 -0.00000000000E+00  0.00000000000E+00  0.11571761271E+03  0.11572458162E+03  0.12700000000E+01 0. -1.
         21   -1    0    0  501  502  0.00000000000E+00 -0.00000000000E+00 -0.64570702219E+02  0.64570702219E+02  0.00000000000E+00 0. -1.
         25    2    1    2    0    0  0.22760148357E+02 -0.33533360923E+02  0.30975125110E+02  0.13500704614E+03  0.12499973394E+03 0.  0.
    9000005    1    3    3    0    0  0.22116642411E+01 -0.17233196859E+02  0.78667224173E+02  0.80569266422E+02  0.10000000000E+01 0.  0.
    9000005    1    3    3    0    0  0.20548484115E+02 -0.16300164064E+02 -0.47692099063E+02  0.54437779722E+02  0.10000000000E+01 0.  0.
         -4    1    1    2    0  502 -0.22760148357E+02  0.33533360923E+02  0.20171785380E+02  0.45288237694E+02  0.12700000000E+01 0.  1.
<mgrwt>
<rscale>  1 0.13140565E+03</rscale>
<asrwt>0</asrwt>
<pdfrwt beam="2">  1       21 0.99339543E-02 0.13140565E+03</pdfrwt>
<pdfrwt beam="1">  1       -4 0.17804206E-01 0.13140565E+03</pdfrwt>
<totfact> 0.91611544E+04</totfact>
</mgrwt>
</event>
<event>
 6    4  0.3189516E-003  0.1392393E+03  0.7818608E-02  0.1214356E+00
          4   -1    0    0  502    0 -0.00000000000E+00  0.00000000000E+00  0.68111634868E+02  0.68123473960E+02  0.12700000000E+01 0. -1.
         21   -1    0    0  501  502  0.00000000000E+00 -0.00000000000E+00 -0.22887807493E+03  0.22887807493E+03  0.00000000000E+00 0.  1.
         25    2    1    2    0    0 -0.61165910230E+02  0.48523571182E+01 -0.16487078538E+02  0.14021200522E+03  0.12499107450E+03 0.  0.
    9000005    1    3    3    0    0 -0.11790796248E+02  0.53845541530E+02 -0.38505324371E+02  0.67246005263E+02  0.10000000000E+01 0.  0.
    9000005    1    3    3    0    0 -0.49375113982E+02 -0.48993184412E+02  0.22018245833E+02  0.72965999953E+02  0.10000000000E+01 0.  0.
          4    1    1    2  501    0  0.61165910230E+02 -0.48523571182E+01 -0.14427936152E+03  0.15678954367E+03  0.12700000000E+01 0.  1.
<mgrwt>
<rscale>  1 0.13923930E+03</rscale>
<asrwt>0</asrwt>
<pdfrwt beam="2">  1       21 0.35212011E-01 0.13923930E+03</pdfrwt>
<pdfrwt beam="1">  1        4 0.10479895E-01 0.13923930E+03</pdfrwt>
<totfact> 0.22322688E+04</totfact>
</mgrwt>
</event>
<event>
 6    4  0.3189516E-003  0.1269192E+03  0.7818608E-02  0.1232100E+00
         21   -1    0    0  501  502  0.00000000000E+00  0.00000000000E+00  0.24064888438E+02  0.24064888438E+02  0.00000000000E+00 0.  1.
          4   -1    0    0  502    0 -0.00000000000E+00 -0.00000000000E+00 -0.13077829167E+04  0.13077835334E+04  0.12700000000E+01 0. -1.
         25    2    1    2    0    0 -0.10342101864E+02 -0.19398471167E+02 -0.12989102533E+04  0.13050962938E+04  0.12500092090E+03 0.  0.
    9000005    1    3    3    0    0 -0.60436444364E+02  0.18473667049E+02 -0.72936087513E+03  0.73209434252E+03  0.10000000000E+01 0.  0.
    9000005    1    3    3    0    0  0.50094342500E+02 -0.37872138215E+02 -0.56954937813E+03  0.57300195125E+03  0.10000000000E+01 0.  0.
          4    1    1    2  501    0  0.10342101864E+02  0.19398471167E+02  0.15192224985E+02  0.26752128038E+02  0.12700000000E+01 0.  1.
<mgrwt>
<rscale>  1 0.12691923E+03</rscale>
<asrwt>0</asrwt>
<pdfrwt beam="1">  1       21 0.37022909E-02 0.12691923E+03</pdfrwt>
<pdfrwt beam="2">  1        4 0.20119997E+00 0.12691923E+03</pdfrwt>
<totfact> 0.26343445E+03</totfact>
</mgrwt>
</event>
<event>
 6    4  0.3189516E-003  0.1295806E+03  0.7818608E-02  0.1228079E+00
         21   -1    0    0  501  502  0.00000000000E+00  0.00000000000E+00  0.30744533285E+02  0.30744533285E+02  0.00000000000E+00 0.  1.
         -4   -1    0    0    0  501 -0.00000000000E+00 -0.00000000000E+00 -0.21864376464E+03  0.21864745303E+03  0.12700000000E+01 0.  1.
         25    2    1    2    0    0 -0.27499662903E+02  0.20221784152E+02 -0.14300952573E+03  0.19298409161E+03  0.12500393254E+03 0.  0.
    9000005    1    3    3    0    0  0.14683805568E+02  0.75190615688E+01  0.18945474466E+02  0.25141229795E+02  0.10000000000E+01 0.  0.
    9000005    1    3    3    0    0 -0.42183468471E+02  0.12702722583E+02 -0.16195500019E+03  0.16784286181E+03  0.10000000000E+01 0.  0.
         -4    1    1    2    0  502  0.27499662903E+02 -0.20221784152E+02 -0.44889705625E+02  0.56407894706E+02  0.12700000000E+01 0. -1.
<mgrwt>
<rscale>  1 0.12958061E+03</rscale>
<asrwt>0</asrwt>
<pdfrwt beam="1">  1       21 0.47299283E-02 0.12958061E+03</pdfrwt>
<pdfrwt beam="2">  1       -4 0.33639803E-01 0.12958061E+03</pdfrwt>
<totfact> 0.10071983E+05</totfact>
</mgrwt>
</event>
<event>
 6    4  0.3189516E-003  0.1327941E+03  0.7818608E-02  0.1223368E+00
         21   -1    0    0  501  502  0.00000000000E+00  0.00000000000E+00  0.24177239737E+03  0.24177239737E+03  0.00000000000E+00 0. -1.
          4   -1    0    0  502    0 -0.00000000000E+00 -0.00000000000E+00 -0.50333882678E+02  0.50349902139E+02  0.12700000000E+01 0. -1.
         25    2    1    2    0    0 -0.30977102199E+02  0.32401636533E+02  0.46974014710E+02  0.14085746035E+03  0.12499927667E+03 0.  0.
    9000005    1    3    3    0    0 -0.47242794593E+02  0.51485449731E+02 -0.17185191732E+02  0.71965019209E+02  0.10000000000E+01 0.  0.
    9000005    1    3    3    0    0  0.16265692393E+02 -0.19083813197E+02  0.64159206441E+02  0.68892441141E+02  0.10000000000E+01 0.  0.
          4    1    1    2  501    0  0.30977102199E+02 -0.32401636533E+02  0.14446449998E+03  0.15126483916E+03  0.12700000000E+01 0.  1.
<mgrwt>
<rscale>  1 0.13279407E+03</rscale>
<asrwt>0</asrwt>
<pdfrwt beam="1">  1       21 0.37195753E-01 0.13279407E+03</pdfrwt>
<pdfrwt beam="2">  1        4 0.77451632E-02 0.13279407E+03</pdfrwt>
<totfact> 0.33059034E+04</totfact>
</mgrwt>
</event>
<event>
 6    4  0.3189516E-003  0.1308908E+03  0.7818608E-02  0.1226140E+00
         21   -1    0    0  501  502  0.00000000000E+00  0.00000000000E+00  0.20838522680E+03  0.20838522680E+03  0.00000000000E+00 0. -1.
          4   -1    0    0  502    0 -0.00000000000E+00 -0.00000000000E+00 -0.34752785868E+02  0.34775983460E+02  0.12700000000E+01 0. -1.
         25    2    1    2    0    0 -0.19780669216E+02 -0.33413668766E+02  0.14138502754E+03  0.19267104581E+03  0.12499863099E+03 0.  0.
    9000005    1    3    3    0    0 -0.16694759392E+02 -0.69202883976E+02  0.13958139664E+03  0.15668988617E+03  0.10000000000E+01 0.  0.
    9000005    1    3    3    0    0 -0.30859098241E+01  0.35789215210E+02  0.18036309009E+01  0.35981159642E+02  0.10000000000E+01 0.  0.
          4    1    1    2  501    0  0.19780669216E+02  0.33413668766E+02  0.32247413394E+02  0.50490164445E+02  0.12700000000E+01 0.  1.
<mgrwt>
<rscale>  1 0.13089082E+03</rscale>
<asrwt>0</asrwt>
<pdfrwt beam="1">  1       21 0.32059265E-01 0.13089082E+03</pdfrwt>
<pdfrwt beam="2">  1        4 0.53486647E-02 0.13089082E+03</pdfrwt>
<totfact> 0.80833457E+04</totfact>
</mgrwt>
</event>
<event>
 6    4  0.3189516E-003  0.1271945E+03  0.7818608E-02  0.1231679E+00
         -4   -1    0    0    0  501 -0.00000000000E+00  0.00000000000E+00  0.96222159468E+02  0.96230540229E+02  0.12700000000E+01 0.  1.
         21   -1    0    0  501  502  0.00000000000E+00 -0.00000000000E+00 -0.60785785537E+02  0.60785785537E+02  0.00000000000E+00 0.  1.
         25    2    1    2    0    0 -0.14648551695E+02 -0.18433893551E+02  0.39288431861E+02  0.13312407287E+03  0.12499619755E+03 0.  0.
    9000005    1    3    3    0    0  0.46391259753E+02 -0.41119889686E+02  0.21331264770E+02  0.65566890776E+02  0.10000000000E+01 0.  0.
    9000005    1    3    3    0    0 -0.61039811449E+02  0.22685996136E+02  0.17957167091E+02  0.67557182093E+02  0.10000000000E+01 0.  0.
         -4    1    1    2    0  502  0.14648551695E+02  0.18433893551E+02 -0.38520579290E+01  0.23892252897E+02  0.12700000000E+01 0. -1.
<mgrwt>
<rscale>  1 0.12719449E+03</rscale>
<asrwt>0</asrwt>
<pdfrwt beam="2">  1       21 0.93516593E-02 0.12719449E+03</pdfrwt>
<pdfrwt beam="1">  1       -4 0.14805074E-01 0.12719449E+03</pdfrwt>
<totfact> 0.14011949E+05</totfact>
</mgrwt>
</event>
<event>
 6    4  0.3189516E-003  0.1278524E+03  0.7818608E-02  0.1230678E+00
         -4   -1    0    0    0  501 -0.00000000000E+00  0.00000000000E+00  0.63926430438E+03  0.63926556591E+03  0.12700000000E+01 0.  1.
         21   -1    0    0  501  502  0.00000000000E+00 -0.00000000000E+00 -0.14400220087E+02  0.14400220087E+02  0.00000000000E+00 0. -1.
         25    2    1    2    0    0  0.37838750334E+01  0.26565295224E+02  0.60940405523E+03  0.62267130230E+03  0.12500486215E+03 0.  0.
    9000005    1    3    3    0    0  0.14117010287E+02  0.28676413333E+02  0.32238992879E+02  0.45409022484E+02  0.10000000000E+01 0.  0.
    9000005    1    3    3    0    0 -0.10333135254E+02 -0.21111181094E+01  0.57716506235E+03  0.57726227982E+03  0.10000000000E+01 0.  0.
         -4    1    1    2    0  502 -0.37838750334E+01 -0.26565295224E+02  0.15460029063E+02  0.30994483690E+02  0.12700000000E+01 0. -1.
<mgrwt>
<rscale>  1 0.12785245E+03</rscale>
<asrwt>0</asrwt>
<pdfrwt beam="2">  1       21 0.22154190E-02 0.12785245E+03</pdfrwt>
<pdfrwt beam="1">  1       -4 0.98352737E-01 0.12785245E+03</pdfrwt>
<totfact> 0.37188123E+04</totfact>
</mgrwt>
</event>
<event>
 6    4  0.3189516E-003  0.1307439E+03  0.7818608E-02  0.1226356E+00
         21   -1    0    0  501  502  0.00000000000E+00  0.00000000000E+00  0.19631644041E+03  0.19631644041E+03  0.00000000000E+00 0. -1.
          4   -1    0    0  502    0 -0.00000000000E+00 -0.00000000000E+00 -0.68814361104E+02  0.68826079317E+02  0.12700000000E+01 0.  1.
         25    2    1    2    0    0 -0.27014098858E+02 -0.27199477425E+02 -0.13003192429E+01  0.13075039242E+03  0.12499760470E+03 0.  0.
    9000005    1    3    3    0    0 -0.11980129303E+02 -0.39423806700E+02 -0.57812454001E+02  0.71000280778E+02  0.10000000000E+01 0.  0.
    9000005    1    3    3    0    0 -0.15033969555E+02  0.12224329275E+02  0.56512134758E+02  0.59750111646E+02  0.10000000000E+01 0.  0.
          4    1    1    2  501    0  0.27014098858E+02  0.27199477425E+02  0.12880239855E+03  0.13439212731E+03  0.12700000000E+01 0. -1.
<mgrwt>
<rscale>  1 0.13074393E+03</rscale>
<asrwt>0</asrwt>
<pdfrwt beam="1">  1       21 0.30202529E-01 0.13074393E+03</pdfrwt>
<pdfrwt beam="2">  1        4 0.10588042E-01 0.13074393E+03</pdfrwt>
<totfact> 0.29412638E+04</totfact>
</mgrwt>
</event>
<event>
 6    4  0.3189516E-003  0.1272294E+03  0.7818608E-02  0.1231626E+00
         21   -1    0    0  501  502  0.00000000000E+00  0.00000000000E+00  0.46318589600E+03  0.46318589600E+03  0.00000000000E+00 0. -1.
          4   -1    0    0  502    0 -0.00000000000E+00 -0.00000000000E+00 -0.28123262346E+02  0.28151923291E+02  0.12700000000E+01 0.  1.
         25    2    1    2    0    0 -0.23625880187E+02 -0.23610590689E+01  0.11844631080E+03  0.17382992078E+03  0.12499422388E+03 0.  0.
    9000005    1    3    3    0    0  0.29695518024E+02 -0.48149084669E+02  0.46359760643E+02  0.73146329724E+02  0.10000000000E+01 0.  0.
    9000005    1    3    3    0    0 -0.53321398212E+02  0.45788025600E+02  0.72086550155E+02  0.10068359106E+03  0.10000000000E+01 0.  0.
          4    1    1    2  501    0  0.23625880187E+02  0.23610590689E+01  0.31661632286E+03  0.31750789851E+03  0.12700000000E+01 0. -1.
<mgrwt>
<rscale>  1 0.12722937E+03</rscale>
<asrwt>0</asrwt>
<pdfrwt beam="1">  1       21 0.71259363E-01 0.12722937E+03</pdfrwt>
<pdfrwt beam="2">  1        4 0.43289947E-02 0.12722937E+03</pdfrwt>
<totfact> 0.21912718E+04</totfact>
</mgrwt>
</event>
<event>
 6    4  0.3189516E-003  0.1269032E+03  0.7818608E-02  0.1232125E+00
         21   -1    0    0  501  502  0.00000000000E+00  0.00000000000E+00  0.93637543008E+01  0.93637543008E+01  0.00000000000E+00 0.  1.
         -4   -1    0    0    0  501 -0.00000000000E+00 -0.00000000000E+00 -0.10527498935E+04  0.10527506595E+04  0.12700000000E+01 0. -1.
         25    2    1    2    0    0  0.21905313104E+02 -0.16931489555E-02 -0.10267910943E+04  0.10346034858E+04  0.12499831497E+03 0.  0.
    9000005    1    3    3    0    0 -0.22605056268E+02 -0.41139885801E+02 -0.19367183972E+03  0.19928186138E+03  0.10000000000E+01 0.  0.
    9000005    1    3    3    0    0  0.44510369371E+02  0.41138192652E+02 -0.83311925461E+03  0.83532162445E+03  0.10000000000E+01 0.  0.
         -4    1    1    2    0  502 -0.21905313104E+02  0.16931489555E-02 -0.16595044824E+02  0.27510927970E+02  0.12700000000E+01 0.  1.
<mgrwt>
<rscale>  1 0.12690320E+03</rscale>
<asrwt>0</asrwt>
<pdfrwt beam="1">  1       21 0.14405781E-02 0.12690320E+03</pdfrwt>
<pdfrwt beam="2">  1       -4 0.16196815E+00 0.12690320E+03</pdfrwt>
<totfact> 0.22004180E+04</totfact>
</mgrwt>
</event>
<event>
 6    4  0.3189516E-003  0.1268928E+03  0.7818608E-02  0.1232140E+00
         -4   -1    0    0    0  501 -0.00000000000E+00  0.00000000000E+00  0.12226713029E+03  0.12227372592E+03  0.12700000000E+01 0.  1.
         21   -1    0    0  501  502  0.00000000000E+00 -0.00000000000E+00 -0.76505511152E+02  0.76505511152E+02  0.00000000000E+00 0.  1.
         25    2    1    2    0    0  0.10081561668E+02 -0.19238000343E+02  0.85823422434E+02  0.15319086655E+03  0.12502017123E+03 0.  0.
    9000005    1    3    3    0    0  0.42058866153E+02  0.34306927477E+02  0.70469342745E+02  0.88954155394E+02  0.10000000000E+01 0.  0.
    9000005    1    3    3    0    0 -0.31977304485E+02 -0.53544927820E+02  0.15354079689E+02  0.64236711159E+02  0.10000000000E+01 0.  0.
         -4    1    1    2    0  502 -0.10081561668E+02  0.19238000343E+02 -0.40061803296E+02  0.45588370515E+02  0.12700000000E+01 0. -1.
<mgrwt>
<rscale>  1 0.12689280E+03</rscale>
<asrwt>0</asrwt>
<pdfrwt beam="2">  1       21 0.11770079E-01 0.12689280E+03</pdfrwt>
<pdfrwt beam="1">  1       -4 0.18811646E-01 0.12689280E+03</pdfrwt>
<totfact> 0.61348167E+04</totfact>
</mgrwt>
</event>
<event>
 6    4  0.3189516E-003  0.1290506E+03  0.7818608E-02  0.1228871E+00
         21   -1    0    0  501  502  0.00000000000E+00  0.00000000000E+00  0.46302570465E+02  0.46302570465E+02  0.00000000000E+00 0.  1.
          4   -1    0    0  502    0 -0.00000000000E+00 -0.00000000000E+00 -0.15265772971E+03  0.15266301235E+03  0.12700000000E+01 0.  1.
         25    2    1    2    0    0  0.15681205729E+02 -0.27984255737E+02 -0.10576922592E+03  0.16685678339E+03  0.12500015292E+03 0.  0.
    9000005    1    3    3    0    0 -0.45495971533E+02 -0.30298330677E+02 -0.13826287216E+02  0.56391829955E+02  0.10000000000E+01 0.  0.
    9000005    1    3    3    0    0  0.61177177262E+02  0.23140749398E+01 -0.91942938704E+02  0.11046495344E+03  0.10000000000E+01 0.  0.
          4    1    1    2  501    0 -0.15681205729E+02  0.27984255737E+02 -0.58593332228E+00  0.32108799419E+02  0.12700000000E+01 0. -1.
<mgrwt>
<rscale>  1 0.12905060E+03</rscale>
<asrwt>0</asrwt>
<pdfrwt beam="1">  1       21 0.71234725E-02 0.12905060E+03</pdfrwt>
<pdfrwt beam="2">  1        4 0.23487550E-01 0.12905060E+03</pdfrwt>
<totfact> 0.98605890E+04</totfact>
</mgrwt>
</event>
<event>
 6    4  0.3189516E-003  0.1386033E+03  0.7818608E-02  0.1215221E+00
         21   -1    0    0  501  502  0.00000000000E+00  0.00000000000E+00  0.12092865812E+02  0.12092865812E+02  0.00000000000E+00 0.  1.
         -4   -1    0    0    0  501 -0.00000000000E+00 -0.00000000000E+00 -0.81946662884E+03  0.81946761296E+03  0.12700000000E+01 0.  1.
         25    2    1    2    0    0  0.36439541879E+02  0.47504662644E+02 -0.59270854673E+03  0.60869885988E+03  0.12500538975E+03 0.  0.
    9000005    1    3    3    0    0  0.82940893382E+02  0.37481098174E+02 -0.38798538472E+03  0.39851936373E+03  0.10000000000E+01 0.  0.
    9000005    1    3    3    0    0 -0.46501351504E+02  0.10023564470E+02 -0.20472316201E+03  0.21017949615E+03  0.10000000000E+01 0.  0.
         -4    1    1    2    0  502 -0.36439541879E+02 -0.47504662644E+02 -0.21466521630E+03  0.22286161889E+03  0.12700000000E+01 0. -1.
<mgrwt>
<rscale>  1 0.13860332E+03</rscale>
<asrwt>0</asrwt>
<pdfrwt beam="1">  1       21 0.18604416E-02 0.13860332E+03</pdfrwt>
<pdfrwt beam="2">  1       -4 0.12607694E+00 0.13860332E+03</pdfrwt>
<totfact> 0.27675408E+04</totfact>
</mgrwt>
</event>
<event>
 6    4  0.3189516E-003  0.1430123E+03  0.7818608E-02  0.1209332E+00
          4   -1    0    0  502    0 -0.00000000000E+00  0.00000000000E+00  0.21003421120E+02  0.21041782214E+02  0.12700000000E+01 0. -1.
         21   -1    0    0  501  502  0.00000000000E+00 -0.00000000000E+00 -0.63236740230E+03  0.63236740230E+03  0.00000000000E+00 0.  1.
         25    2    1    2    0    0 -0.62707981337E+02  0.29923757452E+02 -0.27524200192E+03  0.31017847489E+03  0.12499921794E+03 0.  0.
    9000005    1    3    3    0    0 -0.13050666484E+02 -0.33810055765E+02 -0.17868415221E+02  0.40419302678E+02  0.10000000000E+01 0.  0.
    9000005    1    3    3    0    0 -0.49657314853E+02  0.63733813216E+02 -0.25737358670E+03  0.26975917222E+03  0.10000000000E+01 0.  0.
          4    1    1    2  501    0  0.62707981337E+02 -0.29923757452E+02 -0.33612197927E+03  0.34323070962E+03  0.12700000000E+01 0.  1.
<mgrwt>
<rscale>  1 0.14301233E+03</rscale>
<asrwt>0</asrwt>
<pdfrwt beam="2">  1       21 0.97287283E-01 0.14301233E+03</pdfrwt>
<pdfrwt beam="1">  1        4 0.32343448E-02 0.14301233E+03</pdfrwt>
<totfact> 0.17380174E+04</totfact>
</mgrwt>
</event>
<event>
 6    4  0.3189516E-003  0.1366827E+03  0.7818608E-02  0.1217864E+00
         21   -1    0    0  501  502  0.00000000000E+00  0.00000000000E+00  0.23370786844E+03  0.23370786844E+03  0.00000000000E+00 0.  1.
         -4   -1    0    0    0  501 -0.00000000000E+00 -0.00000000000E+00 -0.73368794323E+02  0.73379785230E+02  0.12700000000E+01 0. -1.
         25    2    1    2    0    0  0.28585472239E+02 -0.47342408379E+02 -0.83456971236E+00  0.13668522053E+03  0.12499488050E+03 0.  0.
    9000005    1    3    3    0    0  0.72612547017E+02 -0.55491751707E+02 -0.60618082770E+01  0.91595098184E+02  0.10000000000E+01 0.  0.
    9000005    1    3    3    0    0 -0.44027074778E+02  0.81493433278E+01  0.52272385646E+01  0.45090122346E+02  0.10000000000E+01 0.  0.
         -4    1    1    2    0  502 -0.28585472239E+02  0.47342408379E+02  0.16117364383E+03  0.17040243313E+03  0.12700000000E+01 0.  1.
<mgrwt>
<rscale>  1 0.13668267E+03</rscale>
<asrwt>0</asrwt>
<pdfrwt beam="1">  1       21 0.35955056E-01 0.13668267E+03</pdfrwt>
<pdfrwt beam="2">  1       -4 0.11288618E-01 0.13668267E+03</pdfrwt>
<totfact> 0.18852075E+04</totfact>
</mgrwt>
</event>
<event>
 6    4  0.3189516E-003  0.1267834E+03  0.7818608E-02  0.1232308E+00
         -4   -1    0    0    0  501 -0.00000000000E+00  0.00000000000E+00  0.91005642665E+01  0.91887523619E+01  0.12700000000E+01 0.  1.
         21   -1    0    0  501  502  0.00000000000E+00 -0.00000000000E+00 -0.96559547287E+03  0.96559547287E+03  0.00000000000E+00 0. -1.
         25    2    1    2    0    0 -0.16547166991E+02 -0.13189437830E+02 -0.44123971806E+03  0.45909314106E+03  0.12500501340E+03 0.  0.
    9000005    1    3    3    0    0 -0.25825124165E+02  0.60132213729E+01 -0.11660731034E+02  0.28983935510E+02  0.10000000000E+01 0.  0.
    9000005    1    3    3    0    0  0.92779571736E+01 -0.19202659203E+02 -0.42957898702E+03  0.43010920555E+03  0.10000000000E+01 0.  0.
         -4    1    1    2    0  502  0.16547166991E+02  0.13189437830E+02 -0.51525519054E+03  0.51569108417E+03  0.12700000000E+01 0. -1.
<mgrwt>
<rscale>  1 0.12678337E+03</rscale>
<asrwt>0</asrwt>
<pdfrwt beam="2">  1       21 0.14855312E+00 0.12678337E+03</pdfrwt>
<pdfrwt beam="1">  1       -4 0.14069351E-02 0.12678337E+03</pdfrwt>
<totfact> 0.22120049E+04</totfact>
</mgrwt>
</event>
<event>
 6    4  0.3189516E-003  0.1269979E+03  0.7818608E-02  0.1231980E+00
         21   -1    0    0  501  502  0.00000000000E+00  0.00000000000E+00  0.15325818696E+02  0.15325818696E+02  0.00000000000E+00 0. -1.
          4   -1    0    0  502    0 -0.00000000000E+00 -0.00000000000E+00 -0.69577037465E+03  0.69577153372E+03  0.12700000000E+01 0. -1.
         25    2    1    2    0    0  0.10690789460E+02 -0.19744287696E+02 -0.67643569849E+03  0.68825411022E+03  0.12499734464E+03 0.  0.
    9000005    1    3    3    0    0  0.56002759780E+02  0.26746854618E+02 -0.33019867608E+03  0.33598194747E+03  0.10000000000E+01 0.  0.
    9000005    1    3    3    0    0 -0.45311970320E+02 -0.46491142314E+02 -0.34623702241E+03  0.35227216276E+03  0.10000000000E+01 0.  0.
          4    1    1    2  501    0 -0.10690789460E+02  0.19744287696E+02 -0.40088574612E+01  0.22843242197E+02  0.12700000000E+01 0.  1.
<mgrwt>
<rscale>  1 0.12699790E+03</rscale>
<asrwt>0</asrwt>
<pdfrwt beam="1">  1       21 0.23578185E-02 0.12699790E+03</pdfrwt>
<pdfrwt beam="2">  1        4 0.10704572E+00 0.12699790E+03</pdfrwt>
<totfact> 0.27586493E+04</totfact>
</mgrwt>
</event>
<event>
 6    4  0.3189516E-003  0.1278915E+03  0.7818608E-02  0.1230618E+00
         21   -1    0    0  501  502  0.00000000000E+00  0.00000000000E+00  0.56061447099E+03  0.56061447099E+03  0.00000000000E+00 0. -1.
          4   -1    0    0  502    0 -0.00000000000E+00 -0.00000000000E+00 -0.17126159574E+02  0.17173183797E+02  0.12700000000E+01 0. -1.
         25    2    1    2    0    0  0.49962390989E+01 -0.26683249442E+02  0.23034587379E+03  0.26346814004E+03  0.12497712207E+03 0.  0.
    9000005    1    3    3    0    0  0.21786934783E+02 -0.40936046124E+02  0.23615633879E+03  0.24066833350E+03  0.10000000000E+01 0.  0.
    9000005    1    3    3    0    0 -0.16790695684E+02  0.14252796681E+02 -0.58104650015E+01  0.22799806542E+02  0.10000000000E+01 0.  0.
          4    1    1    2  501    0 -0.49962390989E+01  0.26683249442E+02  0.31314243763E+03  0.31431951475E+03  0.12700000000E+01 0.  1.
<mgrwt>
<rscale>  1 0.12789151E+03</rscale>
<asrwt>0</asrwt>
<pdfrwt beam="1">  1       21 0.86248366E-01 0.12789151E+03</pdfrwt>
<pdfrwt beam="2">  1        4 0.26385221E-02 0.12789151E+03</pdfrwt>
<totfact> 0.31241282E+04</totfact>
</mgrwt>
</event>
<event>
 6    4  0.3189516E-003  0.1302520E+03  0.7818608E-02  0.1227082E+00
         -4   -1    0    0    0  501 -0.00000000000E+00  0.00000000000E+00  0.46856919831E+02  0.46874127577E+02  0.12700000000E+01 0.  1.
         21   -1    0    0  501  502  0.00000000000E+00 -0.00000000000E+00 -0.85058876251E+03  0.85058876251E+03  0.00000000000E+00 0. -1.
         25    2    1    2    0    0 -0.36113751667E+02 -0.60847077082E+01 -0.44940020374E+02  0.13778672933E+03  0.12499740246E+03 0.  0.
    9000005    1    3    3    0    0 -0.34162265468E+02  0.55856417321E+02 -0.88855554255E+01  0.66082923914E+02  0.10000000000E+01 0.  0.
    9000005    1    3    3    0    0 -0.19514861987E+01 -0.61941125029E+02 -0.36054464949E+02  0.71703805415E+02  0.10000000000E+01 0.  0.
         -4    1    1    2    0  502  0.36113751667E+02  0.60847077082E+01 -0.75879182231E+03  0.75967616076E+03  0.12700000000E+01 0. -1.
<mgrwt>
<rscale>  1 0.13025198E+03</rscale>
<asrwt>0</asrwt>
<pdfrwt beam="2">  1       21 0.13085980E+00 0.13025198E+03</pdfrwt>
<pdfrwt beam="1">  1       -4 0.72101540E-02 0.13025198E+03</pdfrwt>
<totfact> 0.23368974E+03</totfact>
</mgrwt>
</event>
<event>
 6    4  0.3189516E-003  0.1284128E+03  0.7818608E-02  0.1229830E+00
         21   -1    0    0  501  502  0.00000000000E+00  0.00000000000E+00  0.45421354423E+03  0.45421354423E+03  0.00000000000E+00 0. -1.
         -4   -1    0    0    0  501 -0.00000000000E+00 -0.00000000000E+00 -0.13720606200E+02  0.13779257400E+02  0.12700000000E+01 0. -1.
         25    2    1    2    0    0  0.10162639829E+02  0.27622932781E+02  0.36685238388E+03  0.38867792422E+03  0.12499420607E+03 0.  0.
    9000005    1    3    3    0    0 -0.17995753682E+02 -0.45042830887E+02  0.10911051204E+03  0.11941024915E+03  0.10000000000E+01 0.  0.
    9000005    1    3    3    0    0  0.28158393511E+02  0.72665763667E+02  0.25774187184E+03  0.26926767507E+03  0.10000000000E+01 0.  0.
         -4    1    1    2    0  502 -0.10162639829E+02 -0.27622932781E+02  0.73640554149E+02  0.79314877413E+02  0.12700000000E+01 0.  1.
<mgrwt>
<rscale>  1 0.12841284E+03</rscale>
<asrwt>0</asrwt>
<pdfrwt beam="1">  1       21 0.69878995E-01 0.12841284E+03</pdfrwt>
<pdfrwt beam="2">  1       -4 0.21155111E-02 0.12841284E+03</pdfrwt>
<totfact> 0.70239500E+04</totfact>
</mgrwt>
</event>
<event>
 6    4  0.3189516E-003  0.1267265E+03  0.7818608E-02  0.1232395E+00
         21   -1    0    0  501  502  0.00000000000E+00  0.00000000000E+00  0.53383274084E+02  0.53383274084E+02  0.00000000000E+00 0.  1.
         -4   -1    0    0    0  501 -0.00000000000E+00 -0.00000000000E+00 -0.12019138578E+03  0.12019809531E+03  0.12700000000E+01 0.  1.
         25    2    1    2    0    0  0.92022653216E+01  0.18707663257E+02 -0.79060412644E+02  0.14936587580E+03  0.12499983062E+03 0.  0.
    9000005    1    3    3    0    0  0.25067550236E+01 -0.45035281148E+02  0.30244522812E+01  0.45217338272E+02  0.10000000000E+01 0.  0.
    9000005    1    3    3    0    0  0.66955102980E+01  0.63742944405E+02 -0.82084864925E+02  0.10414853753E+03  0.10000000000E+01 0.  0.
         -4    1    1    2    0  502 -0.92022653216E+01 -0.18707663257E+02  0.12252300945E+02  0.24215493595E+02  0.12700000000E+01 0. -1.
<mgrwt>
<rscale>  1 0.12672654E+03</rscale>
<asrwt>0</asrwt>
<pdfrwt beam="1">  1       21 0.82128114E-02 0.12672654E+03</pdfrwt>
<pdfrwt beam="2">  1       -4 0.18492661E-01 0.12672654E+03</pdfrwt>
<totfact> 0.11856504E+05</totfact>
</mgrwt>
</event>
<event>
 6    4  0.3189516E-003  0.1288427E+03  0.7818608E-02  0.1229183E+00
         21   -1    0    0  501  502  0.00000000000E+00  0.00000000000E+00  0.17115444327E+03  0.17115444327E+03  0.00000000000E+00 0. -1.
          4   -1    0    0  502    0 -0.00000000000E+00 -0.00000000000E+00 -0.46612555717E+02  0.46629853640E+02  0.12700000000E+01 0. -1.
         25    2    1    2    0    0 -0.29248705195E+02  0.10981142626E+02  0.52276055151E+02  0.13904399159E+03  0.12499749360E+03 0.  0.
    9000005    1    3    3    0    0 -0.21920436790E+01 -0.33296207224E+02  0.75223076653E+02  0.82297957035E+02  0.10000000000E+01 0.  0.
    9000005    1    3    3    0    0 -0.27056661516E+02  0.44277349849E+02 -0.22947021502E+02  0.56746034556E+02  0.10000000000E+01 0.  0.
          4    1    1    2  501    0  0.29248705195E+02 -0.10981142626E+02  0.72265832404E+02  0.78740305320E+02  0.12700000000E+01 0.  1.
<mgrwt>
<rscale>  1 0.12884272E+03</rscale>
<asrwt>0</asrwt>
<pdfrwt beam="1">  1       21 0.26331452E-01 0.12884272E+03</pdfrwt>
<pdfrwt beam="2">  1        4 0.71728556E-02 0.12884272E+03</pdfrwt>
<totfact> 0.73056261E+04</totfact>
</mgrwt>
</event>
<event>
 6    4  0.3189516E-003  0.1292655E+03  0.7818608E-02  0.1228550E+00
         21   -1    0    0  501  502  0.00000000000E+00  0.00000000000E+00  0.29228081190E+02  0.29228081190E+02  0.00000000000E+00 0. -1.
          4   -1    0    0  502    0 -0.00000000000E+00 -0.00000000000E+00 -0.39953189574E+03  0.39953391422E+03  0.12700000000E+01 0.  1.
         25    2    1    2    0    0 -0.45474350905E+01  0.32580002195E+02 -0.37392978877E+03  0.39564257062E+03  0.12500968382E+03 0.  0.
    9000005    1    3    3    0    0  0.54698114639E+02  0.20443806468E+02 -0.26185112072E+03  0.26828500218E+03  0.10000000000E+01 0.  0.
    9000005    1    3    3    0    0 -0.59245549730E+02  0.12136195727E+02 -0.11207866805E+03  0.12735756845E+03  0.10000000000E+01 0.  0.
          4    1    1    2  501    0  0.45474350905E+01 -0.32580002195E+02  0.36259742270E+01  0.33119424784E+02  0.12700000000E+01 0. -1.
<mgrwt>
<rscale>  1 0.12926545E+03</rscale>
<asrwt>0</asrwt>
<pdfrwt beam="1">  1       21 0.44966285E-02 0.12926545E+03</pdfrwt>
<pdfrwt beam="2">  1        4 0.61468715E-01 0.12926545E+03</pdfrwt>
<totfact> 0.32680404E+04</totfact>
</mgrwt>
</event>
<event>
 6    4  0.3189516E-003  0.1272524E+03  0.7818608E-02  0.1231591E+00
          4   -1    0    0  502    0 -0.00000000000E+00  0.00000000000E+00  0.73433273383E+02  0.73444254641E+02  0.12700000000E+01 0.  1.
         21   -1    0    0  501  502  0.00000000000E+00 -0.00000000000E+00 -0.46673030500E+03  0.46673030500E+03  0.00000000000E+00 0. -1.
         25    2    1    2    0    0 -0.23805397046E+02  0.14771734312E+01  0.17705787790E+02  0.12847830094E+03  0.12499719965E+03 0.  0.
    9000005    1    3    3    0    0 -0.50110582438E+02  0.19184521685E+02  0.56791768844E+02  0.78137195708E+02  0.10000000000E+01 0.  0.
    9000005    1    3    3    0    0  0.26305185393E+02 -0.17707348254E+02 -0.39085981055E+02  0.50341105230E+02  0.10000000000E+01 0.  0.
          4    1    1    2  501    0  0.23805397046E+02 -0.14771734312E+01 -0.41100281941E+03  0.41169625871E+03  0.12700000000E+01 0. -1.
<mgrwt>
<rscale>  1 0.12725242E+03</rscale>
<asrwt>0</asrwt>
<pdfrwt beam="2">  1       21 0.71804661E-01 0.12725242E+03</pdfrwt>
<pdfrwt beam="1">  1        4 0.11298405E-01 0.12725242E+03</pdfrwt>
<totfact> 0.44624020E+03</totfact>
</mgrwt>
</event>
<event>
 6    4  0.3189516E-003  0.1613799E+03  0.7818608E-02  0.1187148E+00
         21   -1    0    0  501  502  0.00000000000E+00  0.00000000000E+00  0.41342092604E+02  0.41342092604E+02  0.00000000000E+00 0.  1.
          4   -1    0    0  502    0 -0.00000000000E+00 -0.00000000000E+00 -0.42124715448E+03  0.42124906891E+03  0.12700000000E+01 0.  1.
         25    2    1    2    0    0 -0.70430210099E+02 -0.73873708907E+02 -0.24616830661E+03  0.29435064329E+03  0.12500290663E+03 0.  0.
    9000005    1    3    3    0    0 -0.29928327731E+02 -0.10246705121E+03 -0.19944613605E+03  0.22621883779E+03  0.10000000000E+01 0.  0.
    9000005    1    3    3    0    0 -0.40501882368E+02  0.28593342306E+02 -0.46722170558E+02  0.68131805504E+02  0.10000000000E+01 0.  0.
          4    1    1    2  501    0  0.70430210099E+02  0.73873708907E+02 -0.13373675527E+03  0.16824051822E+03  0.12700000000E+01 0. -1.
<mgrwt>
<rscale>  1 0.16137988E+03</rscale>
<asrwt>0</asrwt>
<pdfrwt beam="1">  1       21 0.63603221E-02 0.16137988E+03</pdfrwt>
<pdfrwt beam="2">  1        4 0.64808901E-01 0.16137988E+03</pdfrwt>
<totfact> 0.16645415E+04</totfact>
</mgrwt>
</event>
<event>
 6    4  0.3189516E-003  0.1277951E+03  0.7818608E-02  0.1230764E+00
         -4   -1    0    0    0  501 -0.00000000000E+00  0.00000000000E+00  0.49076444138E+03  0.49076608463E+03  0.12700000000E+01 0. -1.
         21   -1    0    0  501  502  0.00000000000E+00 -0.00000000000E+00 -0.32077980006E+02  0.32077980006E+02  0.00000000000E+00 0.  1.
         25    2    1    2    0    0 -0.26009262718E+02  0.54435331706E+01  0.47482947065E+03  0.49172616868E+03  0.12500193985E+03 0.  0.
    9000005    1    3    3    0    0 -0.72492469904E+02 -0.17746463201E+02  0.24609348162E+03  0.25716356049E+03  0.10000000000E+01 0.  0.
    9000005    1    3    3    0    0  0.46483207186E+02  0.23189996372E+02  0.22873598903E+03  0.23456260819E+03  0.10000000000E+01 0.  0.
         -4    1    1    2    0  502  0.26009262718E+02 -0.54435331706E+01 -0.16143009273E+02  0.31117895959E+02  0.12700000000E+01 0.  1.
<mgrwt>
<rscale>  1 0.12779514E+03</rscale>
<asrwt>0</asrwt>
<pdfrwt beam="2">  1       21 0.49350742E-02 0.12779514E+03</pdfrwt>
<pdfrwt beam="1">  1       -4 0.75504277E-01 0.12779514E+03</pdfrwt>
<totfact> 0.17966715E+04</totfact>
</mgrwt>
</event>
<event>
 6    4  0.3189516E-003  0.1351034E+03  0.7818608E-02  0.1220074E+00
         21   -1    0    0  501  502  0.00000000000E+00  0.00000000000E+00  0.33896240031E+03  0.33896240031E+03  0.00000000000E+00 0.  1.
          4   -1    0    0  502    0 -0.00000000000E+00 -0.00000000000E+00 -0.34083454284E+02  0.34107107118E+02  0.12700000000E+01 0.  1.
         25    2    1    2    0    0  0.23236532296E+01  0.51211771690E+02  0.11831632708E+03  0.17958754803E+03  0.12499955692E+03 0.  0.
    9000005    1    3    3    0    0 -0.17566976738E+02  0.70294774781E+02  0.16792797437E+02  0.74383815975E+02  0.10000000000E+01 0.  0.
    9000005    1    3    3    0    0  0.19890629967E+02 -0.19083003091E+02  0.10152352964E+03  0.10520373205E+03  0.10000000000E+01 0.  0.
          4    1    1    2  501    0 -0.23236532296E+01 -0.51211771690E+02  0.18656261895E+03  0.19348195940E+03  0.12700000000E+01 0. -1.
<mgrwt>
<rscale>  1 0.13510342E+03</rscale>
<asrwt>0</asrwt>
<pdfrwt beam="1">  1       21 0.52148059E-01 0.13510342E+03</pdfrwt>
<pdfrwt beam="2">  1        4 0.52456110E-02 0.13510342E+03</pdfrwt>
<totfact> 0.31508106E+04</totfact>
</mgrwt>
</event>
<event>
 6    4  0.3189516E-003  0.1266990E+03  0.7818608E-02  0.1232438E+00
         21   -1    0    0  501  502  0.00000000000E+00  0.00000000000E+00  0.66157150871E+01  0.66157150871E+01  0.00000000000E+00 0.  1.
         -4   -1    0    0    0  501 -0.00000000000E+00 -0.00000000000E+00 -0.85123708948E+03  0.85123803687E+03  0.12700000000E+01 0.  1.
         25    2    1    2    0    0 -0.14916902320E+02  0.14384019393E+02 -0.77181466360E+03  0.78214480912E+03  0.12499285377E+03 0.  0.
    9000005    1    3    3    0    0 -0.38306900249E+02 -0.33093436490E+02 -0.60540156899E+03  0.60751514704E+03  0.10000000000E+01 0.  0.
    9000005    1    3    3    0    0  0.23389997929E+02  0.47477455883E+02 -0.16641309462E+03  0.17462966208E+03  0.10000000000E+01 0.  0.
         -4    1    1    2    0  502  0.14916902320E+02 -0.14384019393E+02 -0.72806710792E+02  0.75708942834E+02  0.12700000000E+01 0. -1.
<mgrwt>
<rscale>  1 0.12669896E+03</rscale>
<asrwt>0</asrwt>
<pdfrwt beam="1">  1       21 0.10178023E-02 0.12669896E+03</pdfrwt>
<pdfrwt beam="2">  1       -4 0.13096900E+00 0.12669896E+03</pdfrwt>
<totfact> 0.65208215E+04</totfact>
</mgrwt>
</event>
<event>
 6    4  0.3189516E-003  0.1302511E+03  0.7818608E-02  0.1227084E+00
          4   -1    0    0  502    0 -0.00000000000E+00  0.00000000000E+00  0.62294914670E+02  0.62307859005E+02  0.12700000000E+01 0. -1.
         21   -1    0    0  501  502  0.00000000000E+00 -0.00000000000E+00 -0.11451259654E+03  0.11451259654E+03  0.00000000000E+00 0. -1.
         25    2    1    2    0    0 -0.31480581365E+02  0.18682007728E+02 -0.51844517248E+02  0.14018991409E+03  0.12500125450E+03 0.  0.
    9000005    1    3    3    0    0 -0.33100573958E+02 -0.15171731485E+02  0.32793477711E+02  0.49012667883E+02  0.10000000000E+01 0.  0.
    9000005    1    3    3    0    0  0.16199925933E+01  0.33853739214E+02 -0.84637994959E+02  0.91177246205E+02  0.10000000000E+01 0.  0.
          4    1    1    2  501    0  0.31480581365E+02 -0.18682007728E+02 -0.37316462485E+00  0.36630541461E+02  0.12700000000E+01 0.  1.
<mgrwt>
<rscale>  1 0.13025113E+03</rscale>
<asrwt>0</asrwt>
<pdfrwt beam="2">  1       21 0.17617322E-01 0.13025113E+03</pdfrwt>
<pdfrwt beam="1">  1        4 0.95853706E-02 0.13025113E+03</pdfrwt>
<totfact> 0.95590516E+04</totfact>
</mgrwt>
</event>
<event>
 6    4  0.3189516E-003  0.1313309E+03  0.7818608E-02  0.1225494E+00
         21   -1    0    0  501  502  0.00000000000E+00  0.00000000000E+00  0.27070179417E+02  0.27070179417E+02  0.00000000000E+00 0. -1.
         -4   -1    0    0    0  501 -0.00000000000E+00 -0.00000000000E+00 -0.34764559012E+03  0.34764790986E+03  0.12700000000E+01 0.  1.
         25    2    1    2    0    0 -0.33094988834E+02  0.23115342593E+02 -0.30382405589E+03  0.33099374666E+03  0.12497282121E+03 0.  0.
    9000005    1    3    3    0    0 -0.52609832946E+02 -0.39389231618E+02 -0.15908692060E+03  0.17213063178E+03  0.10000000000E+01 0.  0.
    9000005    1    3    3    0    0  0.19514844112E+02  0.62504574212E+02 -0.14473713529E+03  0.15886311489E+03  0.10000000000E+01 0.  0.
         -4    1    1    2    0  502  0.33094988834E+02 -0.23115342593E+02 -0.16751354812E+02  0.43724342616E+02  0.12700000000E+01 0. -1.
<mgrwt>
<rscale>  1 0.13133089E+03</rscale>
<asrwt>0</asrwt>
<pdfrwt beam="1">  1       21 0.41646431E-02 0.13133089E+03</pdfrwt>
<pdfrwt beam="2">  1       -4 0.53486405E-01 0.13133089E+03</pdfrwt>
<totfact> 0.49717677E+04</totfact>
</mgrwt>
</event>
<event>
 6    4  0.3189516E-003  0.1401398E+03  0.7818608E-02  0.1213141E+00
         21   -1    0    0  501  502  0.00000000000E+00  0.00000000000E+00  0.15083696710E+03  0.15083696710E+03  0.00000000000E+00 0.  1.
         -4   -1    0    0    0  501 -0.00000000000E+00 -0.00000000000E+00 -0.10175333208E+03  0.10176125731E+03  0.12700000000E+01 0. -1.
         25    2    1    2    0    0  0.57408019370E+02  0.26803599209E+02 -0.37717275266E+02  0.14512671867E+03  0.12500023200E+03 0.  0.
    9000005    1    3    3    0    0  0.56784223077E+02  0.18809918851E+02  0.36756363076E+02  0.70216032815E+02  0.10000000000E+01 0.  0.
    9000005    1    3    3    0    0  0.62379629278E+00  0.79936803586E+01 -0.74473638341E+02  0.74910685855E+02  0.10000000000E+01 0.  0.
         -4    1    1    2    0  502 -0.57408019370E+02 -0.26803599209E+02  0.86800910288E+02  0.10747150574E+03  0.12700000000E+01 0.  1.
<mgrwt>
<rscale>  1 0.14013983E+03</rscale>
<asrwt>0</asrwt>
<pdfrwt beam="1">  1       21 0.23205687E-01 0.14013983E+03</pdfrwt>
<pdfrwt beam="2">  1       -4 0.15655380E-01 0.14013983E+03</pdfrwt>
<totfact> 0.24950131E+04</totfact>
</mgrwt>
</event>
<event>
 6    4  0.3189516E-003  0.1353597E+03  0.7818608E-02  0.1219713E+00
         -4   -1    0    0    0  501 -0.00000000000E+00  0.00000000000E+00  0.90539681572E+02  0.90548588279E+02  0.12700000000E+01 0. -1.
         21   -1    0    0  501  502  0.00000000000E+00 -0.00000000000E+00 -0.10082523039E+03  0.10082523039E+03  0.00000000000E+00 0.  1.
         25    2    1    2    0    0  0.46097696037E+02 -0.23887904275E+02  0.97447682624E+01  0.13571004182E+03  0.12500650140E+03 0.  0.
    9000005    1    3    3    0    0 -0.11538524263E+02 -0.48932972464E+02 -0.32598141664E+02  0.59926723390E+02  0.10000000000E+01 0.  0.
    9000005    1    3    3    0    0  0.57636220300E+02  0.25045068189E+02  0.42342909927E+02  0.75783318429E+02  0.10000000000E+01 0.  0.
         -4    1    1    2    0  502 -0.46097696037E+02  0.23887904275E+02 -0.20030317076E+02  0.55663776846E+02  0.12700000000E+01 0.  1.
<mgrwt>
<rscale>  1 0.13535972E+03</rscale>
<asrwt>0</asrwt>
<pdfrwt beam="2">  1       21 0.15511574E-01 0.13535972E+03</pdfrwt>
<pdfrwt beam="1">  1       -4 0.13930482E-01 0.13535972E+03</pdfrwt>
<totfact> 0.64021908E+04</totfact>
</mgrwt>
</event>
<event>
 6    4  0.3189516E-003  0.1267827E+03  0.7818608E-02  0.1232309E+00
         21   -1    0    0  501  502  0.00000000000E+00  0.00000000000E+00  0.11832963252E+03  0.11832963252E+03  0.00000000000E+00 0.  1.
          4   -1    0    0  502    0 -0.00000000000E+00 -0.00000000000E+00 -0.78962235881E+02  0.78972448330E+02  0.12700000000E+01 0.  1.
         25    2    1    2    0    0  0.17250698236E+02  0.12264529005E+02 -0.25269148413E+02  0.12927634221E+03  0.12500335008E+03 0.  0.
    9000005    1    3    3    0    0  0.83524258678E+01 -0.47630269454E+02  0.21330832093E+02  0.52862179145E+02  0.10000000000E+01 0.  0.
    9000005    1    3    3    0    0  0.88982723686E+01  0.59894798459E+02 -0.46599980506E+02  0.76414163064E+02  0.10000000000E+01 0.  0.
          4    1    1    2  501    0 -0.17250698236E+02 -0.12264529005E+02  0.64636545051E+02  0.68025738640E+02  0.12700000000E+01 0. -1.
<mgrwt>
<rscale>  1 0.12678266E+03</rscale>
<asrwt>0</asrwt>
<pdfrwt beam="1">  1       21 0.18204559E-01 0.12678266E+03</pdfrwt>
<pdfrwt beam="2">  1        4 0.12149346E-01 0.12678266E+03</pdfrwt>
<totfact> 0.60045518E+04</totfact>
</mgrwt>
</event>
<event>
 6    4  0.3189516E-003  0.1273531E+03  0.7818608E-02  0.1231437E+00
         21   -1    0    0  501  502  0.00000000000E+00  0.00000000000E+00  0.25257469848E+03  0.25257469848E+03  0.00000000000E+00 0.  1.
         -4   -1    0    0    0  501 -0.00000000000E+00 -0.00000000000E+00 -0.87467053684E+02  0.87476273241E+02  0.12700000000E+01 0. -1.
         25    2    1    2    0    0  0.20821965639E+02 -0.12653210907E+02 -0.40007910528E+02  0.13348945078E+03  0.12500057025E+03 0.  0.
    9000005    1    3    3    0    0 -0.14860536152E+02  0.39249245751E+02  0.19989442012E+02  0.46496415117E+02  0.10000000000E+01 0.  0.
    9000005    1    3    3    0    0  0.35682501792E+02 -0.51902456658E+02 -0.59997352540E+02  0.86993035658E+02  0.10000000000E+01 0.  0.
         -4    1    1    2    0  502 -0.20821965639E+02  0.12653210907E+02  0.20511555532E+03  0.20656152094E+03  0.12700000000E+01 0.  1.
<mgrwt>
<rscale>  1 0.12735305E+03</rscale>
<asrwt>0</asrwt>
<pdfrwt beam="1">  1       21 0.38857646E-01 0.12735305E+03</pdfrwt>
<pdfrwt beam="2">  1       -4 0.13457425E-01 0.12735305E+03</pdfrwt>
<totfact> 0.11887914E+04</totfact>
</mgrwt>
</event>
<event>
 6    4  0.3189516E-003  0.1273678E+03  0.7818608E-02  0.1231415E+00
         -4   -1    0    0    0  501 -0.00000000000E+00  0.00000000000E+00  0.12469351609E+03  0.12469998338E+03  0.12700000000E+01 0. -1.
         21   -1    0    0  501  502  0.00000000000E+00 -0.00000000000E+00 -0.73437351425E+02  0.73437351425E+02  0.00000000000E+00 0.  1.
         25    2    1    2    0    0  0.47069093778E+01  0.24008419241E+02  0.87401580878E+02  0.15447198008E+03  0.12499598833E+03 0.  0.
    9000005    1    3    3    0    0  0.62313237802E+02 -0.45281969628E+01  0.50491304665E+02  0.80335646010E+02  0.10000000000E+01 0.  0.
    9000005    1    3    3    0    0 -0.57606328424E+02  0.28536616203E+02  0.36910276213E+02  0.74136334068E+02  0.10000000000E+01 0.  0.
         -4    1    1    2    0  502 -0.47069093778E+01 -0.24008419241E+02 -0.36145416212E+02  0.43665354727E+02  0.12700000000E+01 0.  1.
<mgrwt>
<rscale>  1 0.12736780E+03</rscale>
<asrwt>0</asrwt>
<pdfrwt beam="2">  1       21 0.11298054E-01 0.12736780E+03</pdfrwt>
<pdfrwt beam="1">  1       -4 0.19184960E-01 0.12736780E+03</pdfrwt>
<totfact> 0.63702784E+04</totfact>
</mgrwt>
</event>
<event>
 6    4  0.3189516E-003  0.1341918E+03  0.7818608E-02  0.1221365E+00
         -4   -1    0    0    0  501 -0.00000000000E+00  0.00000000000E+00  0.25359224560E+02  0.25391005697E+02  0.12700000000E+01 0. -1.
         21   -1    0    0  501  502  0.00000000000E+00 -0.00000000000E+00 -0.47909610556E+03  0.47909610556E+03  0.00000000000E+00 0. -1.
         25    2    1    2    0    0 -0.46336811272E+02 -0.15344432627E+02 -0.17000870985E+03  0.21658810171E+03  0.12499957075E+03 0.  0.
    9000005    1    3    3    0    0  0.33335342924E+02  0.25296937429E+02 -0.76403677329E+02  0.87118896002E+02  0.10000000000E+01 0.  0.
    9000005    1    3    3    0    0 -0.79672154197E+02 -0.40641370056E+02 -0.93605032518E+02  0.12946920571E+03  0.10000000000E+01 0.  0.
         -4    1    1    2    0  502  0.46336811272E+02  0.15344432627E+02 -0.28372817116E+03  0.28789900955E+03  0.12700000000E+01 0.  1.
<mgrwt>
<rscale>  1 0.13419182E+03</rscale>
<asrwt>0</asrwt>
<pdfrwt beam="2">  1       21 0.73707085E-01 0.13419182E+03</pdfrwt>
<pdfrwt beam="1">  1       -4 0.39039938E-02 0.13419182E+03</pdfrwt>
<totfact> 0.24090564E+04</totfact>
</mgrwt>
</event>
<event>
 6    4  0.3189516E-003  0.1298814E+03  0.7818608E-02  0.1227632E+00
         21   -1    0    0  501  502  0.00000000000E+00  0.00000000000E+00  0.11953819835E+03  0.11953819835E+03  0.00000000000E+00 0. -1.
         -4   -1    0    0    0  501 -0.00000000000E+00 -0.00000000000E+00 -0.10298863757E+03  0.10299646774E+03  0.12700000000E+01 0.  1.
         25    2    1    2    0    0  0.34393292036E+02 -0.78220144128E+01 -0.56320719698E+02  0.14156693719E+03  0.12500036716E+03 0.  0.
    9000005    1    3    3    0    0  0.72772257615E+02 -0.36242471484E+02 -0.43014974828E+02  0.91981554004E+02  0.10000000000E+01 0.  0.
    9000005    1    3    3    0    0 -0.38378965579E+02  0.28420457071E+02 -0.13305744869E+02  0.49585383184E+02  0.10000000000E+01 0.  0.
         -4    1    1    2    0  502 -0.34393292036E+02  0.78220144128E+01  0.72870280484E+02  0.80967728907E+02  0.12700000000E+01 0. -1.
<mgrwt>
<rscale>  1 0.12988139E+03</rscale>
<asrwt>0</asrwt>
<pdfrwt beam="1">  1       21 0.18390492E-01 0.12988139E+03</pdfrwt>
<pdfrwt beam="2">  1       -4 0.15845527E-01 0.12988139E+03</pdfrwt>
<totfact> 0.37321082E+04</totfact>
</mgrwt>
</event>
<event>
 6    4  0.3189516E-003  0.1593292E+03  0.7818608E-02  0.1189456E+00
         21   -1    0    0  501  502  0.00000000000E+00  0.00000000000E+00  0.31411524929E+03  0.31411524929E+03  0.00000000000E+00 0. -1.
         -4   -1    0    0    0  501 -0.00000000000E+00 -0.00000000000E+00 -0.13753013984E+03  0.13753600352E+03  0.12700000000E+01 0.  1.
         25    2    1    2    0    0  0.75642497729E+02  0.63559332529E+02 -0.78848919063E+02  0.17777220645E+03  0.12499691650E+03 0.  0.
    9000005    1    3    3    0    0  0.41350598871E+02  0.27602806656E+02 -0.10888559348E+03  0.11970321395E+03  0.10000000000E+01 0.  0.
    9000005    1    3    3    0    0  0.34291898858E+02  0.35956525874E+02  0.30036674415E+02  0.58068992501E+02  0.10000000000E+01 0.  0.
         -4    1    1    2    0  502 -0.75642497729E+02 -0.63559332529E+02  0.25543402851E+03  0.27387904636E+03  0.12700000000E+01 0. -1.
<mgrwt>
<rscale>  1 0.15932924E+03</rscale>
<asrwt>0</asrwt>
<pdfrwt beam="1">  1       21 0.48325423E-01 0.15932924E+03</pdfrwt>
<pdfrwt beam="2">  1       -4 0.21159132E-01 0.15932924E+03</pdfrwt>
<totfact> 0.34801439E+03</totfact>
</mgrwt>
</event>
<event>
 6    4  0.3189516E-003  0.1267266E+03  0.7818608E-02  0.1232395E+00
         21   -1    0    0  501  502  0.00000000000E+00  0.00000000000E+00  0.18968840600E+03  0.18968840600E+03  0.00000000000E+00 0. -1.
          4   -1    0    0  502    0 -0.00000000000E+00 -0.00000000000E+00 -0.13360498715E+03  0.13361102309E+03  0.12700000000E+01 0.  1.
         25    2    1    2    0    0  0.10683118162E+02 -0.17913320443E+02 -0.10271892987E+03  0.16312822406E+03  0.12499849146E+03 0.  0.
    9000005    1    3    3    0    0  0.51798468332E+02 -0.51929473685E+02 -0.59134113268E+02  0.94220989756E+02  0.10000000000E+01 0.  0.
    9000005    1    3    3    0    0 -0.41115350170E+02  0.34016153242E+02 -0.43584816601E+02  0.68907234302E+02  0.10000000000E+01 0.  0.
          4    1    1    2  501    0 -0.10683118162E+02  0.17913320443E+02  0.15880234872E+03  0.16017120503E+03  0.12700000000E+01 0. -1.
<mgrwt>
<rscale>  1 0.12672663E+03</rscale>
<asrwt>0</asrwt>
<pdfrwt beam="1">  1       21 0.29182832E-01 0.12672663E+03</pdfrwt>
<pdfrwt beam="2">  1        4 0.20555405E-01 0.12672663E+03</pdfrwt>
<totfact> 0.98586181E+03</totfact>
</mgrwt>
</event>
<event>
 6    4  0.3189516E-003  0.1267483E+03  0.7818608E-02  0.1232362E+00
         21   -1    0    0  501  502  0.00000000000E+00  0.00000000000E+00  0.26734202985E+02  0.26734202985E+02  0.00000000000E+00 0.  1.
         -4   -1    0    0    0  501 -0.00000000000E+00 -0.00000000000E+00 -0.31054021025E+03  0.31054280716E+03  0.12700000000E+01 0. -1.
         25    2    1    2    0    0  0.17910585256E+00 -0.20967528479E+02 -0.28905617257E+03  0.31562414740E+03  0.12500184874E+03 0.  0.
    9000005    1    3    3    0    0 -0.32083959909E+02  0.15975248911E+02 -0.17916775396E+02  0.40082413872E+02  0.10000000000E+01 0.  0.
    9000005    1    3    3    0    0  0.32263065762E+02 -0.36942777389E+02 -0.27113939718E+03  0.27554173353E+03  0.10000000000E+01 0.  0.
         -4    1    1    2    0  502 -0.17910585256E+00  0.20967528479E+02  0.52501653103E+01  0.21652862748E+02  0.12700000000E+01 0.  1.
<mgrwt>
<rscale>  1 0.12674830E+03</rscale>
<asrwt>0</asrwt>
<pdfrwt beam="1">  1       21 0.41129545E-02 0.12674830E+03</pdfrwt>
<pdfrwt beam="2">  1       -4 0.47777935E-01 0.12674830E+03</pdfrwt>
<totfact> 0.63584336E+04</totfact>
</mgrwt>
</event>
<event>
 6    4  0.3189516E-003  0.1297463E+03  0.7818608E-02  0.1227833E+00
          4   -1    0    0  502    0 -0.00000000000E+00  0.00000000000E+00  0.35077750930E+02  0.35100733757E+02  0.12700000000E+01 0. -1.
         21   -1    0    0  501  502  0.00000000000E+00 -0.00000000000E+00 -0.19300722937E+03  0.19300722937E+03  0.00000000000E+00 0. -1.
         25    2    1    2    0    0  0.34716533458E+02  0.17130628156E+01 -0.12185343132E+03  0.17799542621E+03  0.12500376294E+03 0.  0.
    9000005    1    3    3    0    0  0.42859425235E+02 -0.80449045097E+01  0.10633299476E+02  0.44896746850E+02  0.10000000000E+01 0.  0.
    9000005    1    3    3    0    0 -0.81428917766E+01  0.97579673253E+01 -0.13248673079E+03  0.13309867936E+03  0.10000000000E+01 0.  0.
          4    1    1    2  501    0 -0.34716533458E+02 -0.17130628156E+01 -0.36076047121E+02  0.50112536909E+02  0.12700000000E+01 0.  1.
<mgrwt>
<rscale>  1 0.12974634E+03</rscale>
<asrwt>0</asrwt>
<pdfrwt beam="2">  1       21 0.29693420E-01 0.12974634E+03</pdfrwt>
<pdfrwt beam="1">  1        4 0.53986664E-02 0.12974634E+03</pdfrwt>
<totfact> 0.92263184E+04</totfact>
</mgrwt>
</event>
<event>
 6    4  0.3189516E-003  0.1335514E+03  0.7818608E-02  0.1222279E+00
          4   -1    0    0  502    0 -0.00000000000E+00  0.00000000000E+00  0.20545114254E+02  0.20584329469E+02  0.12700000000E+01 0.  1.
         21   -1    0    0  501  502  0.00000000000E+00 -0.00000000000E+00 -0.52635954535E+03  0.52635954535E+03  0.00000000000E+00 0. -1.
         25    2    1    2    0    0 -0.12361449597E+02 -0.45376747644E+02 -0.22061110844E+03  0.25788609026E+03  0.12499647882E+03 0.  0.
    9000005    1    3    3    0    0  0.38844319119E+02 -0.51873402770E+01 -0.14598463432E+02  0.41831862994E+02  0.10000000000E+01 0.  0.
    9000005    1    3    3    0    0 -0.51205768715E+02 -0.40189407367E+02 -0.20601264501E+03  0.21605422726E+03  0.10000000000E+01 0.  0.
          4    1    1    2  501    0  0.12361449597E+02  0.45376747644E+02 -0.28520332265E+03  0.28905778456E+03  0.12700000000E+01 0. -1.
<mgrwt>
<rscale>  1 0.13355139E+03</rscale>
<asrwt>0</asrwt>
<pdfrwt beam="2">  1       21 0.80978378E-01 0.13355139E+03</pdfrwt>
<pdfrwt beam="1">  1        4 0.31639217E-02 0.13355139E+03</pdfrwt>
<totfact> 0.27220287E+04</totfact>
</mgrwt>
</event>
<event>
 6    4  0.3189516E-003  0.1410299E+03  0.7818608E-02  0.1211950E+00
         21   -1    0    0  501  502  0.00000000000E+00  0.00000000000E+00  0.20095950747E+03  0.20095950747E+03  0.00000000000E+00 0. -1.
          4   -1    0    0  502    0 -0.00000000000E+00 -0.00000000000E+00 -0.95752631678E+02  0.95761053531E+02  0.12700000000E+01 0.  1.
         25    2    1    2    0    0 -0.31069479100E+01  0.65231831873E+02 -0.32128646941E+02  0.14464326579E+03  0.12499831746E+03 0.  0.
    9000005    1    3    3    0    0  0.77535588314E+01  0.29607329026E+02 -0.79024070817E+02  0.84749721976E+02  0.10000000000E+01 0.  0.
    9000005    1    3    3    0    0 -0.10860506741E+02  0.35624502848E+02  0.46895423875E+02  0.59893543811E+02  0.10000000000E+01 0.  0.
          4    1    1    2  501    0  0.31069479100E+01 -0.65231831873E+02  0.13733552273E+03  0.15207729521E+03  0.12700000000E+01 0. -1.
<mgrwt>
<rscale>  1 0.14102987E+03</rscale>
<asrwt>0</asrwt>
<pdfrwt beam="1">  1       21 0.30916847E-01 0.14102987E+03</pdfrwt>
<pdfrwt beam="2">  1        4 0.14732131E-01 0.14102987E+03</pdfrwt>
<totfact> 0.16056720E+04</totfact>
</mgrwt>
</event>
<event>
 6    4  0.3189516E-003  0.1284626E+03  0.7818608E-02  0.1229755E+00
          4   -1    0    0  502    0 -0.00000000000E+00  0.00000000000E+00  0.50106764559E+03  0.50106925505E+03  0.12700000000E+01 0.  1.
         21   -1    0    0  501  502  0.00000000000E+00 -0.00000000000E+00 -0.17538699787E+02  0.17538699787E+02  0.00000000000E+00 0. -1.
         25    2    1    2    0    0  0.88468942642E+01  0.28285914698E+02  0.46762499566E+03  0.48494924068E+03  0.12499707582E+03 0.  0.
    9000005    1    3    3    0    0  0.34383114049E+02  0.39015816282E+02  0.44794841436E+03  0.45095810713E+03  0.10000000000E+01 0.  0.
    9000005    1    3    3    0    0 -0.25536219785E+02 -0.10729901584E+02  0.19676581294E+02  0.33991133554E+02  0.10000000000E+01 0.  0.
          4    1    1    2  501    0 -0.88468942642E+01 -0.28285914698E+02  0.15903950144E+02  0.33658714156E+02  0.12700000000E+01 0. -1.
<mgrwt>
<rscale>  1 0.12846256E+03</rscale>
<asrwt>0</asrwt>
<pdfrwt beam="2">  1       21 0.26982619E-02 0.12846256E+03</pdfrwt>
<pdfrwt beam="1">  1        4 0.77090980E-01 0.12846256E+03</pdfrwt>
<totfact> 0.46641399E+04</totfact>
</mgrwt>
</event>
<event>
 6    4  0.3189516E-003  0.1292796E+03  0.7818608E-02  0.1228529E+00
         21   -1    0    0  501  502  0.00000000000E+00  0.00000000000E+00  0.56238896487E+02  0.56238896487E+02  0.00000000000E+00 0. -1.
         -4   -1    0    0    0  501 -0.00000000000E+00 -0.00000000000E+00 -0.13144296822E+03  0.13144910344E+03  0.12700000000E+01 0.  1.
         25    2    1    2    0    0 -0.32042850828E+02  0.78989957381E+01 -0.83160135005E+02  0.15371668459E+03  0.12499629052E+03 0.  0.
    9000005    1    3    3    0    0 -0.17086041614E+02  0.65530471641E+02 -0.57616157260E+02  0.88920172677E+02  0.10000000000E+01 0.  0.
    9000005    1    3    3    0    0 -0.14956809214E+02 -0.57631475903E+02 -0.25543977745E+02  0.64796511910E+02  0.10000000000E+01 0.  0.
         -4    1    1    2    0  502  0.32042850828E+02 -0.78989957381E+01  0.79560632740E+01  0.33971315336E+02  0.12700000000E+01 0. -1.
<mgrwt>
<rscale>  1 0.12927958E+03</rscale>
<asrwt>0</asrwt>
<pdfrwt beam="1">  1       21 0.86521380E-02 0.12927958E+03</pdfrwt>
<pdfrwt beam="2">  1       -4 0.20223570E-01 0.12927958E+03</pdfrwt>
<totfact> 0.92580540E+04</totfact>
</mgrwt>
</event>
<event>
 6    4  0.3189516E-003  0.1271617E+03  0.7818608E-02  0.1231729E+00
         21   -1    0    0  501  502  0.00000000000E+00  0.00000000000E+00  0.19148824749E+03  0.19148824749E+03  0.00000000000E+00 0. -1.
         -4   -1    0    0    0  501 -0.00000000000E+00 -0.00000000000E+00 -0.34127759840E+02  0.34151381988E+02  0.12700000000E+01 0. -1.
         25    2    1    2    0    0  0.16957488353E+02 -0.16052929863E+02  0.94092647274E+02  0.15818827297E+03  0.12499940187E+03 0.  0.
    9000005    1    3    3    0    0  0.55238072258E+02 -0.25094717471E+02  0.51095587463E+01  0.60894146372E+02  0.10000000000E+01 0.  0.
    9000005    1    3    3    0    0 -0.38280583905E+02  0.90417876079E+01  0.88983088528E+02  0.97294126602E+02  0.10000000000E+01 0.  0.
         -4    1    1    2    0  502 -0.16957488353E+02  0.16052929863E+02  0.63267840379E+02  0.67451356507E+02  0.12700000000E+01 0.  1.
<mgrwt>
<rscale>  1 0.12716172E+03</rscale>
<asrwt>0</asrwt>
<pdfrwt beam="1">  1       21 0.29459730E-01 0.12716172E+03</pdfrwt>
<pdfrwt beam="2">  1       -4 0.52525657E-02 0.12716172E+03</pdfrwt>
<totfact> 0.97653680E+04</totfact>
</mgrwt>
</event>
<event>
 6    4  0.3189516E-003  0.1271453E+03  0.7818608E-02  0.1231754E+00
          4   -1    0    0  502    0 -0.00000000000E+00  0.00000000000E+00  0.47591392794E+03  0.47591562247E+03  0.12700000000E+01 0. -1.
         21   -1    0    0  501  502  0.00000000000E+00 -0.00000000000E+00 -0.17961140228E+02  0.17961140228E+02  0.00000000000E+00 0.  1.
         25    2    1    2    0    0 -0.78442640429E+01  0.21884645474E+02  0.45241881217E+03  0.46994544491E+03  0.12500187759E+03 0.  0.
    9000005    1    3    3    0    0  0.72864551808E+01  0.46878193455E+02  0.43124819732E+03  0.43385097112E+03  0.10000000000E+01 0.  0.
    9000005    1    3    3    0    0 -0.15130719224E+02 -0.24993547981E+02  0.21170614844E+02  0.36094473784E+02  0.10000000000E+01 0.  0.
          4    1    1    2  501    0  0.78442640429E+01 -0.21884645474E+02  0.55339755510E+01  0.23931317793E+02  0.12700000000E+01 0.  1.
<mgrwt>
<rscale>  1 0.12714535E+03</rscale>
<asrwt>0</asrwt>
<pdfrwt beam="2">  1       21 0.27632527E-02 0.12714535E+03</pdfrwt>
<pdfrwt beam="1">  1        4 0.73221102E-01 0.12714535E+03</pdfrwt>
<totfact> 0.50131225E+04</totfact>
</mgrwt>
</event>
<event>
 6    4  0.3189516E-003  0.1271740E+03  0.7818608E-02  0.1231710E+00
         21   -1    0    0  501  502  0.00000000000E+00  0.00000000000E+00  0.22406522483E+03  0.22406522483E+03  0.00000000000E+00 0.  1.
         -4   -1    0    0    0  501 -0.00000000000E+00 -0.00000000000E+00 -0.30512083768E+02  0.30538502843E+02  0.12700000000E+01 0.  1.
         25    2    1    2    0    0 -0.20995683255E+02  0.10540975315E+02  0.11112809635E+03  0.16888656619E+03  0.12498514939E+03 0.  0.
    9000005    1    3    3    0    0  0.40152525383E+02  0.18532406480E+02  0.29138455300E+01  0.44330191521E+02  0.10000000000E+01 0.  0.
    9000005    1    3    3    0    0 -0.61148208637E+02 -0.79914311651E+01  0.10821425082E+03  0.12455637467E+03  0.10000000000E+01 0.  0.
         -4    1    1    2    0  502  0.20995683255E+02 -0.10540975315E+02  0.82425044714E+02  0.85717161479E+02  0.12700000000E+01 0. -1.
<mgrwt>
<rscale>  1 0.12717397E+03</rscale>
<asrwt>0</asrwt>
<pdfrwt beam="1">  1       21 0.34471572E-01 0.12717397E+03</pdfrwt>
<pdfrwt beam="2">  1       -4 0.46964760E-02 0.12717397E+03</pdfrwt>
<totfact> 0.86138786E+04</totfact>
</mgrwt>
</event>
<event>
 6    4  0.3189516E-003  0.1641927E+03  0.7818608E-02  0.1184043E+00
         21   -1    0    0  501  502  0.00000000000E+00  0.00000000000E+00  0.17538384433E+04  0.17538384433E+04  0.00000000000E+00 0. -1.
          4   -1    0    0  502    0 -0.00000000000E+00 -0.00000000000E+00 -0.18269559287E+02  0.18313647822E+02  0.12700000000E+01 0.  1.
         25    2    1    2    0    0  0.63644788462E+02  0.85339398774E+02  0.40057870379E+03  0.43292325845E+03  0.12500311073E+03 0.  0.
    9000005    1    3    3    0    0  0.45880413264E+02  0.11411438570E+02  0.31464113626E+03  0.31817491711E+03  0.10000000000E+01 0.  0.
    9000005    1    3    3    0    0  0.17764375199E+02  0.73927960204E+02  0.85937567530E+02  0.11474834134E+03  0.10000000000E+01 0.  0.
          4    1    1    2  501    0 -0.63644788462E+02 -0.85339398774E+02  0.13349901802E+04  0.13392288327E+04  0.12700000000E+01 0. -1.
<mgrwt>
<rscale>  1 0.16419272E+03</rscale>
<asrwt>0</asrwt>
<pdfrwt beam="1">  1       21 0.26982117E+00 0.16419272E+03</pdfrwt>
<pdfrwt beam="2">  1        4 0.28141296E-02 0.16419272E+03</pdfrwt>
<totfact> 0.12959670E+03</totfact>
</mgrwt>
</event>
<event>
 6    4  0.3189516E-003  0.1319747E+03  0.7818608E-02  0.1224555E+00
         -4   -1    0    0    0  501 -0.00000000000E+00  0.00000000000E+00  0.14508079333E+03  0.14508635185E+03  0.12700000000E+01 0. -1.
         21   -1    0    0  501  502  0.00000000000E+00 -0.00000000000E+00 -0.59671022774E+02  0.59671022774E+02  0.00000000000E+00 0. -1.
         25    2    1    2    0    0  0.41627605095E+02 -0.75315888867E+01  0.30540867516E+02  0.13546241263E+03  0.12501095276E+03 0.  0.
    9000005    1    3    3    0    0 -0.13345739362E+02 -0.56511357743E+02  0.92100640023E+01  0.58800234625E+02  0.10000000000E+01 0.  0.
    9000005    1    3    3    0    0  0.54973344457E+02  0.48979768856E+02  0.21330803514E+02  0.76662178005E+02  0.10000000000E+01 0.  0.
         -4    1    1    2    0  502 -0.41627605095E+02  0.75315888867E+01  0.54868903043E+02  0.69294961998E+02  0.12700000000E+01 0.  1.
<mgrwt>
<rscale>  1 0.13197470E+03</rscale>
<asrwt>0</asrwt>
<pdfrwt beam="2">  1       21 0.91801574E-02 0.13197470E+03</pdfrwt>
<pdfrwt beam="1">  1       -4 0.22321589E-01 0.13197470E+03</pdfrwt>
<totfact> 0.70066427E+04</totfact>
</mgrwt>
</event>
<event>
 6    4  0.3189516E-003  0.1288719E+03  0.7818608E-02  0.1229139E+00
          4   -1    0    0  502    0 -0.00000000000E+00  0.00000000000E+00  0.32123963678E+02  0.32149058188E+02  0.12700000000E+01 0. -1.
         21   -1    0    0  501  502  0.00000000000E+00 -0.00000000000E+00 -0.41856249436E+03  0.41856249436E+03  0.00000000000E+00 0.  1.
         25    2    1    2    0    0  0.31354212343E+02  0.68431357305E+00 -0.10148350514E+03  0.16403310132E+03  0.12499760636E+03 0.  0.
    9000005    1    3    3    0    0  0.41211153843E+02 -0.37696569380E+02 -0.11010749535E+03  0.12346680152E+03  0.10000000000E+01 0.  0.
    9000005    1    3    3    0    0 -0.98569415005E+01  0.38380882953E+02  0.86239902178E+01  0.40566299797E+02  0.10000000000E+01 0.  0.
          4    1    1    2  501    0 -0.31354212343E+02 -0.68431357305E+00 -0.28495502555E+03  0.28667845123E+03  0.12700000000E+01 0.  1.
<mgrwt>
<rscale>  1 0.12887186E+03</rscale>
<asrwt>0</asrwt>
<pdfrwt beam="2">  1       21 0.64394223E-01 0.12887186E+03</pdfrwt>
<pdfrwt beam="1">  1        4 0.49442273E-02 0.12887186E+03</pdfrwt>
<totfact> 0.22094090E+04</totfact>
</mgrwt>
</event>
<event>
 6    4  0.3189516E-003  0.1312072E+03  0.7818608E-02  0.1225675E+00
          4   -1    0    0  502    0 -0.00000000000E+00  0.00000000000E+00  0.31452289164E+03  0.31452545567E+03  0.12700000000E+01 0.  1.
         21   -1    0    0  501  502  0.00000000000E+00 -0.00000000000E+00 -0.23344423258E+02  0.23344423258E+02  0.00000000000E+00 0.  1.
         25    2    1    2    0    0  0.84713368234E+01 -0.38949865265E+02  0.23138413532E+03  0.26599616525E+03  0.12500594505E+03 0.  0.
    9000005    1    3    3    0    0  0.59729831580E+02 -0.11484996125E+01  0.67375358813E+02  0.90052267085E+02  0.10000000000E+01 0.  0.
    9000005    1    3    3    0    0 -0.51258494757E+02 -0.37801365652E+02  0.16400877651E+03  0.17594389817E+03  0.10000000000E+01 0.  0.
          4    1    1    2  501    0 -0.84713368234E+01  0.38949865265E+02  0.59794333055E+02  0.71873713674E+02  0.12700000000E+01 0. -1.
<mgrwt>
<rscale>  1 0.13120725E+03</rscale>
<asrwt>0</asrwt>
<pdfrwt beam="2">  1       21 0.35914500E-02 0.13120725E+03</pdfrwt>
<pdfrwt beam="1">  1        4 0.48390989E-01 0.13120725E+03</pdfrwt>
<totfact> 0.77966709E+04</totfact>
</mgrwt>
</event>
<event>
 6    4  0.3189516E-003  0.1322783E+03  0.7818608E-02  0.1224114E+00
         -4   -1    0    0    0  501 -0.00000000000E+00  0.00000000000E+00  0.56290839663E+02  0.56305164327E+02  0.12700000000E+01 0.  1.
         21   -1    0    0  501  502  0.00000000000E+00 -0.00000000000E+00 -0.13889142499E+03  0.13889142499E+03  0.00000000000E+00 0.  1.
         25    2    1    2    0    0  0.45714129640E+00 -0.43272602549E+02 -0.72083271162E+02  0.15064376779E+03  0.12499927872E+03 0.  0.
    9000005    1    3    3    0    0 -0.30105203304E+02  0.35849403975E+02 -0.32762577473E+02  0.57147961591E+02  0.10000000000E+01 0.  0.
    9000005    1    3    3    0    0  0.30562344600E+02 -0.79122006524E+02 -0.39320693689E+02  0.93495806194E+02  0.10000000000E+01 0.  0.
         -4    1    1    2    0  502 -0.45714129640E+00  0.43272602549E+02 -0.10517314170E+02  0.44552821536E+02  0.12700000000E+01 0. -1.
<mgrwt>
<rscale>  1 0.13227829E+03</rscale>
<asrwt>0</asrwt>
<pdfrwt beam="2">  1       21 0.21367911E-01 0.13227829E+03</pdfrwt>
<pdfrwt beam="1">  1       -4 0.86616778E-02 0.13227829E+03</pdfrwt>
<totfact> 0.79481427E+04</totfact>
</mgrwt>
</event>
<event>
 6    4  0.3189516E-003  0.1279422E+03  0.7818608E-02  0.1230541E+00
         21   -1    0    0  501  502  0.00000000000E+00  0.00000000000E+00  0.11990270380E+03  0.11990270380E+03  0.00000000000E+00 0.  1.
         -4   -1    0    0    0  501 -0.00000000000E+00 -0.00000000000E+00 -0.16150532272E+03  0.16151031598E+03  0.12700000000E+01 0. -1.
         25    2    1    2    0    0 -0.50311380706E+00  0.27266499658E+02 -0.13387877613E+03  0.18518299735E+03  0.12500200272E+03 0.  0.
    9000005    1    3    3    0    0  0.33489877428E+02  0.17784350060E+02  0.81788905398E+01  0.38803984945E+02  0.10000000000E+01 0.  0.
    9000005    1    3    3    0    0 -0.33992991235E+02  0.94821495987E+01 -0.14205766667E+03  0.14637901241E+03  0.10000000000E+01 0.  0.
         -4    1    1    2    0  502  0.50311380706E+00 -0.27266499658E+02  0.92276157211E+02  0.96230022429E+02  0.12700000000E+01 0.  1.
<mgrwt>
<rscale>  1 0.12794224E+03</rscale>
<asrwt>0</asrwt>
<pdfrwt beam="1">  1       21 0.18446570E-01 0.12794224E+03</pdfrwt>
<pdfrwt beam="2">  1       -4 0.24847874E-01 0.12794224E+03</pdfrwt>
<totfact> 0.16514554E+04</totfact>
</mgrwt>
</event>
<event>
 6    4  0.3189516E-003  0.1361593E+03  0.7818608E-02  0.1218592E+00
         -4   -1    0    0    0  501 -0.00000000000E+00  0.00000000000E+00  0.61431223428E+02  0.61444349715E+02  0.12700000000E+01 0.  1.
         21   -1    0    0  501  502  0.00000000000E+00 -0.00000000000E+00 -0.23319582956E+03  0.23319582956E+03  0.00000000000E+00 0. -1.
         25    2    1    2    0    0  0.37889352647E+02 -0.38452755981E+02 -0.25235558305E+02  0.13847810884E+03  0.12500054295E+03 0.  0.
    9000005    1    3    3    0    0  0.51595830046E+02 -0.33679845371E+02 -0.68909718720E+02  0.92444637467E+02  0.10000000000E+01 0.  0.
    9000005    1    3    3    0    0 -0.13706477398E+02 -0.47729106097E+01  0.43674160415E+02  0.46033471370E+02  0.10000000000E+01 0.  0.
         -4    1    1    2    0  502 -0.37889352647E+02  0.38452755981E+02 -0.14652904783E+03  0.15616207044E+03  0.12700000000E+01 0. -1.
<mgrwt>
<rscale>  1 0.13615929E+03</rscale>
<asrwt>0</asrwt>
<pdfrwt beam="2">  1       21 0.35876281E-01 0.13615929E+03</pdfrwt>
<pdfrwt beam="1">  1       -4 0.94522333E-02 0.13615929E+03</pdfrwt>
<totfact> 0.25548473E+04</totfact>
</mgrwt>
</event>
<event>
 6    4  0.3189516E-003  0.1281901E+03  0.7818608E-02  0.1230166E+00
         21   -1    0    0  501  502  0.00000000000E+00  0.00000000000E+00  0.21439620152E+04  0.21439620152E+04  0.00000000000E+00 0.  1.
         -4   -1    0    0    0  501 -0.00000000000E+00 -0.00000000000E+00 -0.42449435906E+01  0.44308516210E+01  0.12700000000E+01 0.  1.
         25    2    1    2    0    0  0.21401966801E+02 -0.18719393310E+02  0.98269368181E+03  0.99101946237E+03  0.12499697066E+03 0.  0.
    9000005    1    3    3    0    0 -0.38528903784E+02  0.31161625281E+02  0.33448896310E+03  0.33814107966E+03  0.10000000000E+01 0.  0.
    9000005    1    3    3    0    0  0.59930870584E+02 -0.49881018591E+02  0.64820471871E+03  0.65287838272E+03  0.10000000000E+01 0.  0.
         -4    1    1    2    0  502 -0.21401966801E+02  0.18719393310E+02  0.11570233898E+04  0.11573734045E+04  0.12700000000E+01 0. -1.
<mgrwt>
<rscale>  1 0.12819010E+03</rscale>
<asrwt>0</asrwt>
<pdfrwt beam="1">  1       21 0.32983946E+00 0.12819010E+03</pdfrwt>
<pdfrwt beam="2">  1       -4 0.66739951E-03 0.12819010E+03</pdfrwt>
<totfact> 0.53829772E+03</totfact>
</mgrwt>
</event>
<event>
 6    4  0.3189516E-003  0.2285591E+03  0.7818608E-02  0.1127658E+00
         -4   -1    0    0    0  501 -0.00000000000E+00  0.00000000000E+00  0.12399994006E+03  0.12400644352E+03  0.12700000000E+01 0.  1.
         21   -1    0    0  501  502  0.00000000000E+00 -0.00000000000E+00 -0.40249530197E+03  0.40249530197E+03  0.00000000000E+00 0.  1.
         25    2    1    2    0    0  0.17805643051E+03 -0.70123862261E+02 -0.60513399537E+02  0.23643417177E+03  0.12497118689E+03 0.  0.
    9000005    1    3    3    0    0  0.16488186652E+03 -0.82045266484E+02 -0.87665588496E+02  0.20396987784E+03  0.10000000000E+01 0.  0.
    9000005    1    3    3    0    0  0.13174563992E+02  0.11921404224E+02  0.27152188959E+02  0.32464293929E+02  0.10000000000E+01 0.  0.
         -4    1    1    2    0  502 -0.17805643051E+03  0.70123862261E+02 -0.21798196238E+03  0.29006757372E+03  0.12700000000E+01 0. -1.
<mgrwt>
<rscale>  1 0.22855906E+03</rscale>
<asrwt>0</asrwt>
<pdfrwt beam="2">  1       21 0.61922355E-01 0.22855906E+03</pdfrwt>
<pdfrwt beam="1">  1       -4 0.19077568E-01 0.22855906E+03</pdfrwt>
<totfact> 0.25073733E+03</totfact>
</mgrwt>
</event>
<event>
 6    4  0.3189516E-003  0.1273032E+03  0.7818608E-02  0.1231513E+00
         -4   -1    0    0    0  501 -0.00000000000E+00  0.00000000000E+00  0.47277475382E+02  0.47294530112E+02  0.12700000000E+01 0.  1.
         21   -1    0    0  501  502  0.00000000000E+00 -0.00000000000E+00 -0.13110083491E+03  0.13110083491E+03  0.00000000000E+00 0.  1.
         25    2    1    2    0    0 -0.23654204179E+02  0.46308984713E+01 -0.49838289158E+02  0.13671126129E+03  0.12500058920E+03 0.  0.
    9000005    1    3    3    0    0 -0.61438845103E+02 -0.37686072684E+01  0.12982449850E+02  0.62916437379E+02  0.10000000000E+01 0.  0.
    9000005    1    3    3    0    0  0.37784640923E+02  0.83995057397E+01 -0.62820739008E+02  0.73794823909E+02  0.10000000000E+01 0.  0.
         -4    1    1    2    0  502  0.23654204179E+02 -0.46308984713E+01 -0.33985070373E+02  0.41684103736E+02  0.12700000000E+01 0. -1.
<mgrwt>
<rscale>  1 0.12730324E+03</rscale>
<asrwt>0</asrwt>
<pdfrwt beam="2">  1       21 0.20169359E-01 0.12730324E+03</pdfrwt>
<pdfrwt beam="1">  1       -4 0.72752429E-02 0.12730324E+03</pdfrwt>
<totfact> 0.11744823E+05</totfact>
</mgrwt>
</event>
<event>
 6    4  0.3189516E-003  0.1325505E+03  0.7818608E-02  0.1223720E+00
          4   -1    0    0  502    0 -0.00000000000E+00  0.00000000000E+00  0.18298191449E+03  0.18298632171E+03  0.12700000000E+01 0. -1.
         21   -1    0    0  501  502  0.00000000000E+00 -0.00000000000E+00 -0.48192053268E+02  0.48192053268E+02  0.00000000000E+00 0.  1.
         25    2    1    2    0    0  0.52059214873E+00 -0.44098706605E+02  0.13185063807E+03  0.18696051803E+03  0.12499871040E+03 0.  0.
    9000005    1    3    3    0    0 -0.61510637893E+02 -0.12539759111E+02  0.57924785349E+02  0.85422976360E+02  0.10000000000E+01 0.  0.
    9000005    1    3    3    0    0  0.62031230041E+02 -0.31558947494E+02  0.73925852718E+02  0.10153754167E+03  0.10000000000E+01 0.  0.
          4    1    1    2  501    0 -0.52059214873E+00  0.44098706605E+02  0.29392231597E+01  0.44217856949E+02  0.12700000000E+01 0.  1.
<mgrwt>
<rscale>  1 0.13255054E+03</rscale>
<asrwt>0</asrwt>
<pdfrwt beam="2">  1       21 0.74141622E-02 0.13255054E+03</pdfrwt>
<pdfrwt beam="1">  1        4 0.28152690E-01 0.13255054E+03</pdfrwt>
<totfact> 0.66081605E+04</totfact>
</mgrwt>
</event>
<event>
 6    4  0.3189516E-003  0.1488534E+03  0.7818608E-02  0.1201889E+00
         -4   -1    0    0    0  501 -0.00000000000E+00  0.00000000000E+00  0.51050713562E+02  0.51066508155E+02  0.12700000000E+01 0.  1.
         21   -1    0    0  501  502  0.00000000000E+00 -0.00000000000E+00 -0.67357295554E+03  0.67357295554E+03  0.00000000000E+00 0. -1.
         25    2    1    2    0    0 -0.51467515827E+02 -0.62283914351E+02 -0.66941647050E+02  0.16321306466E+03  0.12501651568E+03 0.  0.
    9000005    1    3    3    0    0  0.21575538549E+02 -0.63850646290E+02 -0.59247686515E+02  0.89742393843E+02  0.10000000000E+01 0.  0.
    9000005    1    3    3    0    0 -0.73043054376E+02  0.15667319389E+01 -0.76939605348E+01  0.73470670817E+02  0.10000000000E+01 0.  0.
         -4    1    1    2    0  502  0.51467515827E+02  0.62283914351E+02 -0.55558059493E+03  0.56142639904E+03  0.12700000000E+01 0. -1.
<mgrwt>
<rscale>  1 0.14885335E+03</rscale>
<asrwt>0</asrwt>
<pdfrwt beam="2">  1       21 0.10362660E+00 0.14885335E+03</pdfrwt>
<pdfrwt beam="1">  1       -4 0.78552634E-02 0.14885335E+03</pdfrwt>
<totfact> 0.35892604E+03</totfact>
</mgrwt>
</event>
<event>
 6    4  0.3189516E-003  0.1437484E+03  0.7818608E-02  0.1208372E+00
         -4   -1    0    0    0  501 -0.00000000000E+00  0.00000000000E+00  0.79981667076E+02  0.79991749376E+02  0.12700000000E+01 0.  1.
         21   -1    0    0  501  502  0.00000000000E+00 -0.00000000000E+00 -0.20294962593E+03  0.20294962593E+03  0.00000000000E+00 0. -1.
         25    2    1    2    0    0 -0.26722925266E+02  0.65761667297E+02 -0.32854404394E+01  0.14378595955E+03  0.12499958570E+03 0.  0.
    9000005    1    3    3    0    0  0.44977330417E+02  0.53522229437E+02  0.72068679789E+01  0.70288891308E+02  0.10000000000E+01 0.  0.
    9000005    1    3    3    0    0 -0.71700255682E+02  0.12239437860E+02 -0.10492308418E+02  0.73497068241E+02  0.10000000000E+01 0.  0.
         -4    1    1    2    0  502  0.26722925266E+02 -0.65761667297E+02 -0.11968251842E+03  0.13915541576E+03  0.12700000000E+01 0. -1.
<mgrwt>
<rscale>  1 0.14374842E+03</rscale>
<asrwt>0</asrwt>
<pdfrwt beam="2">  1       21 0.31223019E-01 0.14374842E+03</pdfrwt>
<pdfrwt beam="1">  1       -4 0.12305953E-01 0.14374842E+03</pdfrwt>
<totfact> 0.21542424E+04</totfact>
</mgrwt>
</event>
<event>
 6    4  0.3189516E-003  0.1273431E+03  0.7818608E-02  0.1231452E+00
         21   -1    0    0  501  502  0.00000000000E+00  0.00000000000E+00  0.32652551231E+03  0.32652551231E+03  0.00000000000E+00 0. -1.
         -4   -1    0    0    0  501 -0.00000000000E+00 -0.00000000000E+00 -0.19679892134E+02  0.19720827934E+02  0.12700000000E+01 0. -1.
         25    2    1    2    0    0  0.23754752405E+02  0.45420401885E+01  0.29005199391E+03  0.31677504618E+03  0.12502540670E+03 0.  0.
    9000005    1    3    3    0    0  0.43929346585E+02 -0.31881814786E+02  0.25950818430E+03  0.26512588581E+03  0.10000000000E+01 0.  0.
    9000005    1    3    3    0    0 -0.20174594180E+02  0.36423854975E+02  0.30543809604E+02  0.51649160368E+02  0.10000000000E+01 0.  0.
         -4    1    1    2    0  502 -0.23754752405E+02 -0.45420401885E+01  0.16793626273E+02  0.29471294072E+02  0.12700000000E+01 0.  1.
<mgrwt>
<rscale>  1 0.12734312E+03</rscale>
<asrwt>0</asrwt>
<pdfrwt beam="1">  1       21 0.50234690E-01 0.12734312E+03</pdfrwt>
<pdfrwt beam="2">  1       -4 0.30310148E-02 0.12734312E+03</pdfrwt>
<totfact> 0.80798331E+04</totfact>
</mgrwt>
</event>
<event>
 6    4  0.3189516E-003  0.1272647E+03  0.7818608E-02  0.1231572E+00
         -4   -1    0    0    0  501 -0.00000000000E+00  0.00000000000E+00  0.15206567382E+02  0.15259508234E+02  0.12700000000E+01 0. -1.
         21   -1    0    0  501  502  0.00000000000E+00 -0.00000000000E+00 -0.56863301849E+03  0.56863301849E+03  0.00000000000E+00 0. -1.
         25    2    1    2    0    0 -0.16062159736E+02 -0.17691654027E+02 -0.25983684732E+03  0.28932936550E+03  0.12500122767E+03 0.  0.
    9000005    1    3    3    0    0  0.20612403671E+02 -0.25765985346E+02 -0.70364738714E+01  0.33753061350E+02  0.10000000000E+01 0.  0.
    9000005    1    3    3    0    0 -0.36674563407E+02  0.80743313196E+01 -0.25280037345E+03  0.25557630415E+03  0.10000000000E+01 0.  0.
         -4    1    1    2    0  502  0.16062159736E+02  0.17691654027E+02 -0.29358960378E+03  0.29456316122E+03  0.12700000000E+01 0.  1.
<mgrwt>
<rscale>  1 0.12726466E+03</rscale>
<asrwt>0</asrwt>
<pdfrwt beam="2">  1       21 0.87482006E-01 0.12726466E+03</pdfrwt>
<pdfrwt beam="1">  1       -4 0.23436533E-02 0.12726466E+03</pdfrwt>
<totfact> 0.36341179E+04</totfact>
</mgrwt>
</event>
<event>
 6    4  0.3189516E-003  0.1370358E+03  0.7818608E-02  0.1217374E+00
          4   -1    0    0  502    0 -0.00000000000E+00  0.00000000000E+00  0.15553462183E+04  0.15553467369E+04  0.12700000000E+01 0.  1.
         21   -1    0    0  501  502  0.00000000000E+00 -0.00000000000E+00 -0.64276598993E+01  0.64276598993E+01  0.00000000000E+00 0. -1.
         25    2    1    2    0    0  0.34463204068E+02 -0.44341643761E+02  0.12612381050E+04  0.12686608522E+04  0.12499962631E+03 0.  0.
    9000005    1    3    3    0    0  0.65118383620E+02 -0.64219123337E+02  0.10740883495E+04  0.10779755481E+04  0.10000000000E+01 0.  0.
    9000005    1    3    3    0    0 -0.30655179552E+02  0.19877479576E+02  0.18714975546E+03  0.19068530410E+03  0.10000000000E+01 0.  0.
          4    1    1    2  501    0 -0.34463204068E+02  0.44341643761E+02  0.28768045347E+03  0.29311354458E+03  0.12700000000E+01 0. -1.
<mgrwt>
<rscale>  1 0.13703576E+03</rscale>
<asrwt>0</asrwt>
<pdfrwt beam="2">  1       21 0.98887199E-03 0.13703576E+03</pdfrwt>
<pdfrwt beam="1">  1        4 0.23929343E+00 0.13703576E+03</pdfrwt>
<totfact> 0.13190858E+04</totfact>
</mgrwt>
</event>
<event>
 6    4  0.3189516E-003  0.1313251E+03  0.7818608E-02  0.1225503E+00
         21   -1    0    0  501  502  0.00000000000E+00  0.00000000000E+00  0.21673981020E+03  0.21673981020E+03  0.00000000000E+00 0. -1.
          4   -1    0    0  502    0 -0.00000000000E+00 -0.00000000000E+00 -0.35205339709E+02  0.35228239298E+02  0.12700000000E+01 0. -1.
         25    2    1    2    0    0  0.24594899706E+02 -0.31906583648E+02  0.11701838219E+03  0.17589651920E+03  0.12499337793E+03 0.  0.
    9000005    1    3    3    0    0  0.74841500378E+02 -0.10111756598E+02  0.78474142298E+02  0.10891597133E+03  0.10000000000E+01 0.  0.
    9000005    1    3    3    0    0 -0.50246600672E+02 -0.21794827049E+02  0.38544239890E+02  0.66980547877E+02  0.10000000000E+01 0.  0.
          4    1    1    2  501    0 -0.24594899706E+02  0.31906583648E+02  0.64516088301E+02  0.76071530294E+02  0.12700000000E+01 0.  1.
<mgrwt>
<rscale>  1 0.13132511E+03</rscale>
<asrwt>0</asrwt>
<pdfrwt beam="1">  1       21 0.33344585E-01 0.13132511E+03</pdfrwt>
<pdfrwt beam="2">  1        4 0.54182540E-02 0.13132511E+03</pdfrwt>
<totfact> 0.73356453E+04</totfact>
</mgrwt>
</event>
<event>
 6    4  0.3189516E-003  0.1279669E+03  0.7818608E-02  0.1230504E+00
         21   -1    0    0  501  502  0.00000000000E+00  0.00000000000E+00  0.20486175638E+03  0.20486175638E+03  0.00000000000E+00 0. -1.
         -4   -1    0    0    0  501 -0.00000000000E+00 -0.00000000000E+00 -0.29723474900E+02  0.29750594282E+02  0.12700000000E+01 0.  1.
         25    2    1    2    0    0 -0.25587515467E+02  0.98464948738E+01  0.13524941284E+03  0.18619325163E+03  0.12499539540E+03 0.  0.
    9000005    1    3    3    0    0 -0.67929073004E+02 -0.16287556206E+02  0.11019648611E+03  0.13047570271E+03  0.10000000000E+01 0.  0.
    9000005    1    3    3    0    0  0.42341557537E+02  0.26134051080E+02  0.25052926723E+02  0.55717548922E+02  0.10000000000E+01 0.  0.
         -4    1    1    2    0  502  0.25587515467E+02 -0.98464948738E+01  0.39888868640E+02  0.48419099026E+02  0.12700000000E+01 0. -1.
<mgrwt>
<rscale>  1 0.12796688E+03</rscale>
<asrwt>0</asrwt>
<pdfrwt beam="1">  1       21 0.31517192E-01 0.12796688E+03</pdfrwt>
<pdfrwt beam="2">  1       -4 0.45752313E-02 0.12796688E+03</pdfrwt>
<totfact> 0.10704843E+05</totfact>
</mgrwt>
</event>
<event>
 6    4  0.3189516E-003  0.1307571E+03  0.7818608E-02  0.1226337E+00
          4   -1    0    0  502    0 -0.00000000000E+00  0.00000000000E+00  0.18882065292E+02  0.18924726938E+02  0.12700000000E+01 0.  1.
         21   -1    0    0  501  502  0.00000000000E+00 -0.00000000000E+00 -0.67172104789E+03  0.67172104789E+03  0.00000000000E+00 0. -1.
         25    2    1    2    0    0  0.40277572425E+01  0.38197266804E+02 -0.21869106343E+03  0.25480029459E+03  0.12498861901E+03 0.  0.
    9000005    1    3    3    0    0  0.24768309866E+01  0.78449749551E+02 -0.87445307955E+02  0.11750821154E+03  0.10000000000E+01 0.  0.
    9000005    1    3    3    0    0  0.15509262559E+01 -0.40252482747E+02 -0.13124575547E+03  0.13729208305E+03  0.10000000000E+01 0.  0.
          4    1    1    2  501    0 -0.40277572425E+01 -0.38197266804E+02 -0.43414791917E+03  0.43584548024E+03  0.12700000000E+01 0. -1.
<mgrwt>
<rscale>  1 0.13075706E+03</rscale>
<asrwt>0</asrwt>
<pdfrwt beam="2">  1       21 0.10334166E+00 0.13075706E+03</pdfrwt>
<pdfrwt beam="1">  1        4 0.29083082E-02 0.13075706E+03</pdfrwt>
<totfact> 0.17703876E+04</totfact>
</mgrwt>
</event>
<event>
 6    4  0.3189516E-003  0.1826339E+03  0.7818608E-02  0.1165278E+00
         -4   -1    0    0    0  501 -0.00000000000E+00  0.00000000000E+00  0.98518802512E+02  0.98526987919E+02  0.12700000000E+01 0.  1.
         21   -1    0    0  501  502  0.00000000000E+00 -0.00000000000E+00 -0.30928596681E+03  0.30928596681E+03  0.00000000000E+00 0. -1.
         25    2    1    2    0    0 -0.76372168419E+02 -0.10907799971E+03 -0.32823238876E+02  0.18556000958E+03  0.12499773604E+03 0.  0.
    9000005    1    3    3    0    0 -0.20042718990E+02 -0.10014305073E+03 -0.64023941516E+02  0.12054213488E+03  0.10000000000E+01 0.  0.
    9000005    1    3    3    0    0 -0.56329449430E+02 -0.89349489867E+01  0.31200702640E+02  0.65017874709E+02  0.10000000000E+01 0.  0.
         -4    1    1    2    0  502  0.76372168419E+02  0.10907799971E+03 -0.17794392542E+03  0.22225294514E+03  0.12700000000E+01 0. -1.
<mgrwt>
<rscale>  1 0.18263393E+03</rscale>
<asrwt>0</asrwt>
<pdfrwt beam="2">  1       21 0.47582455E-01 0.18263393E+03</pdfrwt>
<pdfrwt beam="1">  1       -4 0.15157569E-01 0.18263393E+03</pdfrwt>
<totfact> 0.65575788E+03</totfact>
</mgrwt>
</event>
<event>
 6    4  0.3189516E-003  0.1274208E+03  0.7818608E-02  0.1231334E+00
         21   -1    0    0  501  502  0.00000000000E+00  0.00000000000E+00  0.90841428791E+02  0.90841428791E+02  0.00000000000E+00 0.  1.
          4   -1    0    0  502    0 -0.00000000000E+00 -0.00000000000E+00 -0.12093303087E+03  0.12093969926E+03  0.12700000000E+01 0. -1.
         25    2    1    2    0    0  0.22691926520E+02  0.98020792151E+01 -0.83893624378E+02  0.15255887894E+03  0.12500026818E+03 0.  0.
    9000005    1    3    3    0    0  0.27783408034E+02  0.55216390309E+02 -0.58267760515E+01  0.62094434854E+02  0.10000000000E+01 0.  0.
    9000005    1    3    3    0    0 -0.50914815136E+01 -0.45414311094E+02 -0.78066848327E+02  0.90464444086E+02  0.10000000000E+01 0.  0.
          4    1    1    2  501    0 -0.22691926520E+02 -0.98020792151E+01  0.53802022296E+02  0.59222249107E+02  0.12700000000E+01 0.  1.
<mgrwt>
<rscale>  1 0.12742084E+03</rscale>
<asrwt>0</asrwt>
<pdfrwt beam="1">  1       21 0.13975605E-01 0.12742084E+03</pdfrwt>
<pdfrwt beam="2">  1        4 0.18606277E-01 0.12742084E+03</pdfrwt>
<totfact> 0.46106555E+04</totfact>
</mgrwt>
</event>
<event>
 6    4  0.3189516E-003  0.1266979E+03  0.7818608E-02  0.1232439E+00
         -4   -1    0    0    0  501 -0.00000000000E+00  0.00000000000E+00  0.30518194330E+02  0.30544608119E+02  0.12700000000E+01 0.  1.
         21   -1    0    0  501  502  0.00000000000E+00 -0.00000000000E+00 -0.17791295233E+03  0.17791295233E+03  0.00000000000E+00 0.  1.
         25    2    1    2    0    0  0.32246431824E+01 -0.20415299722E+02 -0.12619234551E+03  0.17882079305E+03  0.12500074070E+03 0.  0.
    9000005    1    3    3    0    0  0.45079332809E+02 -0.47484605878E+02 -0.10690233283E+03  0.12536364228E+03  0.10000000000E+01 0.  0.
    9000005    1    3    3    0    0 -0.41854689626E+02  0.27069306156E+02 -0.19290012689E+02  0.53457150775E+02  0.10000000000E+01 0.  0.
         -4    1    1    2    0  502 -0.32246431824E+01  0.20415299722E+02 -0.21202412485E+02  0.29636767394E+02  0.12700000000E+01 0. -1.
<mgrwt>
<rscale>  1 0.12669794E+03</rscale>
<asrwt>0</asrwt>
<pdfrwt beam="2">  1       21 0.27371224E-01 0.12669794E+03</pdfrwt>
<pdfrwt beam="1">  1       -4 0.46974873E-02 0.12669794E+03</pdfrwt>
<totfact> 0.13443443E+05</totfact>
</mgrwt>
</event>
<event>
 6    4  0.3189516E-003  0.1399306E+03  0.7818608E-02  0.1213422E+00
          4   -1    0    0  502    0 -0.00000000000E+00  0.00000000000E+00  0.16921227888E+03  0.16921704472E+03  0.12700000000E+01 0. -1.
         21   -1    0    0  501  502  0.00000000000E+00 -0.00000000000E+00 -0.66486964886E+02  0.66486964886E+02  0.00000000000E+00 0.  1.
         25    2    1    2    0    0 -0.56104184930E+02 -0.28445474849E+02  0.10134006004E+03  0.17277264672E+03  0.12499502022E+03 0.  0.
    9000005    1    3    3    0    0  0.21724999754E+02 -0.13003398704E+02 -0.16839064379E+02  0.30423972149E+02  0.10000000000E+01 0.  0.
    9000005    1    3    3    0    0 -0.77829184684E+02 -0.15442076145E+02  0.11817912442E+03  0.14234867457E+03  0.10000000000E+01 0.  0.
          4    1    1    2  501    0  0.56104184930E+02  0.28445474849E+02  0.13852539567E+01  0.62931362885E+02  0.12700000000E+01 0.  1.
<mgrwt>
<rscale>  1 0.13993062E+03</rscale>
<asrwt>0</asrwt>
<pdfrwt beam="2">  1       21 0.10228764E-01 0.13993062E+03</pdfrwt>
<pdfrwt beam="1">  1        4 0.26033958E-01 0.13993062E+03</pdfrwt>
<totfact> 0.44023222E+04</totfact>
</mgrwt>
</event>
<event>
 6    4  0.3189516E-003  0.1391800E+03  0.7818608E-02  0.1214437E+00
         21   -1    0    0  501  502  0.00000000000E+00  0.00000000000E+00  0.66448777231E+03  0.66448777231E+03  0.00000000000E+00 0. -1.
         -4   -1    0    0    0  501 -0.00000000000E+00 -0.00000000000E+00 -0.21107897096E+02  0.21146068661E+02  0.12700000000E+01 0.  1.
         25    2    1    2    0    0 -0.22773511329E+00 -0.61222163767E+02  0.23842541632E+03  0.27607562548E+03  0.12499146625E+03 0.  0.
    9000005    1    3    3    0    0  0.41189023867E+02 -0.40050789817E+02  0.21767835103E+03  0.22513432870E+03  0.10000000000E+01 0.  0.
    9000005    1    3    3    0    0 -0.41416758980E+02 -0.21171373951E+02  0.20747065292E+02  0.50941296780E+02  0.10000000000E+01 0.  0.
         -4    1    1    2    0  502  0.22773511329E+00  0.61222163767E+02  0.40495445889E+03  0.40955821549E+03  0.12700000000E+01 0. -1.
<mgrwt>
<rscale>  1 0.13918000E+03</rscale>
<asrwt>0</asrwt>
<pdfrwt beam="1">  1       21 0.10222887E+00 0.13918000E+03</pdfrwt>
<pdfrwt beam="2">  1       -4 0.32503989E-02 0.13918000E+03</pdfrwt>
<totfact> 0.15323075E+04</totfact>
</mgrwt>
</event>
<event>
 6    4  0.3189516E-003  0.1285406E+03  0.7818608E-02  0.1229637E+00
         21   -1    0    0  501  502  0.00000000000E+00  0.00000000000E+00  0.17481378215E+03  0.17481378215E+03  0.00000000000E+00 0.  1.
          4   -1    0    0  502    0 -0.00000000000E+00 -0.00000000000E+00 -0.68967493001E+02  0.68979185200E+02  0.12700000000E+01 0. -1.
         25    2    1    2    0    0 -0.26646017766E+02 -0.13680040050E+02 -0.53245355708E+01  0.12865079902E+03  0.12500209459E+03 0.  0.
    9000005    1    3    3    0    0 -0.59975039012E+02  0.33331092236E+02  0.91396432259E+01  0.69227885223E+02  0.10000000000E+01 0.  0.
    9000005    1    3    3    0    0  0.33329021246E+02 -0.47011132286E+02 -0.14464178797E+02  0.59422913798E+02  0.10000000000E+01 0.  0.
          4    1    1    2  501    0  0.26646017766E+02  0.13680040050E+02  0.11117082472E+03  0.11514216833E+03  0.12700000000E+01 0.  1.
<mgrwt>
<rscale>  1 0.12854057E+03</rscale>
<asrwt>0</asrwt>
<pdfrwt beam="1">  1       21 0.26894428E-01 0.12854057E+03</pdfrwt>
<pdfrwt beam="2">  1        4 0.10611638E-01 0.12854057E+03</pdfrwt>
<totfact> 0.36536246E+04</totfact>
</mgrwt>
</event>
<event>
 6    4  0.3189516E-003  0.1381170E+03  0.7818608E-02  0.1215885E+00
         -4   -1    0    0    0  501 -0.00000000000E+00  0.00000000000E+00  0.20450834258E+03  0.20451228590E+03  0.12700000000E+01 0.  1.
         21   -1    0    0  501  502  0.00000000000E+00 -0.00000000000E+00 -0.57674465334E+02  0.57674465334E+02  0.00000000000E+00 0.  1.
         25    2    1    2    0    0 -0.46881532623E+02 -0.35398922817E+02  0.46171787666E+02  0.14563019408E+03  0.12500143045E+03 0.  0.
    9000005    1    3    3    0    0  0.82882070736E+00 -0.61401096826E+02  0.63742804482E+02  0.88515121637E+02  0.10000000000E+01 0.  0.
    9000005    1    3    3    0    0 -0.47710353331E+02  0.26002174010E+02 -0.17571016816E+02  0.57115072442E+02  0.10000000000E+01 0.  0.
         -4    1    1    2    0  502  0.46881532623E+02  0.35398922817E+02  0.10066208958E+03  0.11655655716E+03  0.12700000000E+01 0. -1.
<mgrwt>
<rscale>  1 0.13811705E+03</rscale>
<asrwt>0</asrwt>
<pdfrwt beam="2">  1       21 0.88729948E-02 0.13811705E+03</pdfrwt>
<pdfrwt beam="1">  1       -4 0.31464200E-01 0.13811705E+03</pdfrwt>
<totfact> 0.39472449E+04</totfact>
</mgrwt>
</event>
<event>
 6    4  0.3189516E-003  0.1385223E+03  0.7818608E-02  0.1215331E+00
          4   -1    0    0  502    0 -0.00000000000E+00  0.00000000000E+00  0.19136186936E+03  0.19136608358E+03  0.12700000000E+01 0.  1.
         21   -1    0    0  501  502  0.00000000000E+00 -0.00000000000E+00 -0.14156800423E+03  0.14156800423E+03  0.00000000000E+00 0. -1.
         25    2    1    2    0    0  0.36073898202E+02 -0.47559827463E+02  0.15752263991E+03  0.20976605164E+03  0.12500060406E+03 0.  0.
    9000005    1    3    3    0    0  0.59825543105E+02  0.22582335017E+02  0.81980999333E+02  0.10397567847E+03  0.10000000000E+01 0.  0.
    9000005    1    3    3    0    0 -0.23751644903E+02 -0.70142162480E+02  0.75541640581E+02  0.10579037317E+03  0.10000000000E+01 0.  0.
          4    1    1    2  501    0 -0.36073898202E+02  0.47559827463E+02 -0.10772877478E+03  0.12316803618E+03  0.12700000000E+01 0. -1.
<mgrwt>
<rscale>  1 0.13852225E+03</rscale>
<asrwt>0</asrwt>
<pdfrwt beam="2">  1       21 0.21779693E-01 0.13852225E+03</pdfrwt>
<pdfrwt beam="1">  1        4 0.29441050E-01 0.13852225E+03</pdfrwt>
<totfact> 0.89138544E+03</totfact>
</mgrwt>
</event>
<event>
 6    4  0.3189516E-003  0.1311332E+03  0.7818608E-02  0.1225784E+00
         21   -1    0    0  501  502  0.00000000000E+00  0.00000000000E+00  0.85343598657E+02  0.85343598657E+02  0.00000000000E+00 0.  1.
         -4   -1    0    0    0  501 -0.00000000000E+00 -0.00000000000E+00 -0.99175071797E+02  0.99183203043E+02  0.12700000000E+01 0.  1.
         25    2    1    2    0    0  0.18448710423E+02  0.35127866257E+02  0.19646768088E+02  0.13259677725E+03  0.12498635100E+03 0.  0.
    9000005    1    3    3    0    0  0.32268733568E+02 -0.27910739192E+02  0.46119396644E+02  0.62835334607E+02  0.10000000000E+01 0.  0.
    9000005    1    3    3    0    0 -0.13820023145E+02  0.63038605448E+02 -0.26472628556E+02  0.69761442640E+02  0.10000000000E+01 0.  0.
         -4    1    1    2    0  502 -0.18448710423E+02 -0.35127866257E+02 -0.33478241228E+02  0.51930024453E+02  0.12700000000E+01 0. -1.
<mgrwt>
<rscale>  1 0.13113318E+03</rscale>
<asrwt>0</asrwt>
<pdfrwt beam="1">  1       21 0.13129784E-01 0.13113318E+03</pdfrwt>
<pdfrwt beam="2">  1       -4 0.15259056E-01 0.13113318E+03</pdfrwt>
<totfact> 0.73424942E+04</totfact>
</mgrwt>
</event>
<event>
 6    4  0.3189516E-003  0.1362434E+03  0.7818608E-02  0.1218475E+00
         21   -1    0    0  501  502  0.00000000000E+00  0.00000000000E+00  0.11588200643E+03  0.11588200643E+03  0.00000000000E+00 0.  1.
         -4   -1    0    0    0  501 -0.00000000000E+00 -0.00000000000E+00 -0.23048649790E+03  0.23048999678E+03  0.12700000000E+01 0. -1.
         25    2    1    2    0    0  0.35412845568E+02  0.41013977705E+02 -0.20192931165E+03  0.24359334240E+03  0.12500421416E+03 0.  0.
    9000005    1    3    3    0    0  0.61787218508E+02  0.58184701071E+02 -0.76474228181E+02  0.11424722047E+03  0.10000000000E+01 0.  0.
    9000005    1    3    3    0    0 -0.26374372940E+02 -0.17170723365E+02 -0.12545508347E+03  0.12934612193E+03  0.10000000000E+01 0.  0.
         -4    1    1    2    0  502 -0.35412845568E+02 -0.41013977705E+02  0.87324820185E+02  0.10277866081E+03  0.12700000000E+01 0.  1.
<mgrwt>
<rscale>  1 0.13624342E+03</rscale>
<asrwt>0</asrwt>
<pdfrwt beam="1">  1       21 0.17828001E-01 0.13624342E+03</pdfrwt>
<pdfrwt beam="2">  1       -4 0.35460266E-01 0.13624342E+03</pdfrwt>
<totfact> 0.90374416E+03</totfact>
</mgrwt>
</event>
<event>
 6    4  0.3189516E-003  0.1380847E+03  0.7818608E-02  0.1215930E+00
         21   -1    0    0  501  502  0.00000000000E+00  0.00000000000E+00  0.17607836294E+03  0.17607836294E+03  0.00000000000E+00 0. -1.
         -4   -1    0    0    0  501 -0.00000000000E+00 -0.00000000000E+00 -0.37944033153E+03  0.37944245690E+03  0.12700000000E+01 0.  1.
         25    2    1    2    0    0  0.41524999322E+02  0.41436253640E+02 -0.36143212349E+03  0.38691158090E+03  0.12500441135E+03 0.  0.
    9000005    1    3    3    0    0  0.17873614207E+02  0.17453608459E+02 -0.35063621668E+03  0.35152645844E+03  0.10000000000E+01 0.  0.
    9000005    1    3    3    0    0  0.23651385114E+02  0.23982645181E+02 -0.10795906811E+02  0.35385122461E+02  0.10000000000E+01 0.  0.
         -4    1    1    2    0  502 -0.41524999322E+02 -0.41436253640E+02  0.15807015490E+03  0.16860923894E+03  0.12700000000E+01 0. -1.
<mgrwt>
<rscale>  1 0.13808473E+03</rscale>
<asrwt>0</asrwt>
<pdfrwt beam="1">  1       21 0.27088979E-01 0.13808473E+03</pdfrwt>
<pdfrwt beam="2">  1       -4 0.58375951E-01 0.13808473E+03</pdfrwt>
<totfact> 0.15200738E+03</totfact>
</mgrwt>
</event>
<event>
 6    4  0.3189516E-003  0.1399579E+03  0.7818608E-02  0.1213386E+00
         21   -1    0    0  501  502  0.00000000000E+00  0.00000000000E+00  0.20265049472E+02  0.20265049472E+02  0.00000000000E+00 0. -1.
          4   -1    0    0  502    0 -0.00000000000E+00 -0.00000000000E+00 -0.11006177915E+04  0.11006185242E+04  0.12700000000E+01 0.  1.
         25    2    1    2    0    0 -0.62736996855E+02  0.52347687511E+01 -0.10321186819E+04  0.10415647800E+04  0.12499953524E+03 0.  0.
    9000005    1    3    3    0    0  0.78428343451E+00  0.47006560913E+01 -0.82286236802E+03  0.82287677569E+03  0.10000000000E+01 0.  0.
    9000005    1    3    3    0    0 -0.63521280289E+02  0.53411265973E+00 -0.20925631391E+03  0.21868800433E+03  0.10000000000E+01 0.  0.
          4    1    1    2  501    0  0.62736996855E+02 -0.52347687511E+01 -0.48234060121E+02  0.79318793700E+02  0.12700000000E+01 0. -1.
<mgrwt>
<rscale>  1 0.13995791E+03</rscale>
<asrwt>0</asrwt>
<pdfrwt beam="1">  1       21 0.31177010E-02 0.13995791E+03</pdfrwt>
<pdfrwt beam="2">  1        4 0.16932887E+00 0.13995791E+03</pdfrwt>
<totfact> 0.56575094E+03</totfact>
</mgrwt>
</event>
<event>
 6    4  0.3189516E-003  0.1357267E+03  0.7818608E-02  0.1219198E+00
         21   -1    0    0  501  502  0.00000000000E+00  0.00000000000E+00  0.23678310580E+04  0.23678310580E+04  0.00000000000E+00 0. -1.
          4   -1    0    0  502    0 -0.00000000000E+00 -0.00000000000E+00 -0.79093471227E+01  0.80106598921E+01  0.12700000000E+01 0.  1.
         25    2    1    2    0    0 -0.40530164680E+02  0.33977874739E+02  0.60144522382E+03  0.61656960743E+03  0.12499813330E+03 0.  0.
    9000005    1    3    3    0    0 -0.11749898126E+02  0.58365621576E+02  0.12317158188E+03  0.13680951893E+03  0.10000000000E+01 0.  0.
    9000005    1    3    3    0    0 -0.28780266554E+02 -0.24387746837E+02  0.47827364194E+03  0.47976008849E+03  0.10000000000E+01 0.  0.
          4    1    1    2  501    0  0.40530164680E+02 -0.33977874739E+02  0.17584764870E+04  0.17592721104E+04  0.12700000000E+01 0. -1.
<mgrwt>
<rscale>  1 0.13572665E+03</rscale>
<asrwt>0</asrwt>
<pdfrwt beam="1">  1       21 0.36428114E+00 0.13572665E+03</pdfrwt>
<pdfrwt beam="2">  1        4 0.12246440E-02 0.13572665E+03</pdfrwt>
<totfact> 0.13634953E+03</totfact>
</mgrwt>
</event>
<event>
 6    4  0.3189516E-003  0.1296496E+03  0.7818608E-02  0.1227977E+00
          4   -1    0    0  502    0 -0.00000000000E+00  0.00000000000E+00  0.80798374293E+02  0.80808354694E+02  0.12700000000E+01 0. -1.
         21   -1    0    0  501  502  0.00000000000E+00 -0.00000000000E+00 -0.15370193833E+03  0.15370193833E+03  0.00000000000E+00 0.  1.
         25    2    1    2    0    0  0.34287355298E+02  0.24426979988E+00  0.23874772343E+02  0.13182951735E+03  0.12503333351E+03 0.  0.
    9000005    1    3    3    0    0 -0.34050128551E+02 -0.37392801438E+02  0.17589556011E+02  0.53553947888E+02  0.10000000000E+01 0.  0.
    9000005    1    3    3    0    0  0.68337483848E+02  0.37637071238E+02  0.62852163313E+01  0.78275569461E+02  0.10000000000E+01 0.  0.
          4    1    1    2  501    0 -0.34287355298E+02 -0.24426979988E+00 -0.96778336384E+02  0.10268077568E+03  0.12700000000E+01 0.  1.
<mgrwt>
<rscale>  1 0.12964959E+03</rscale>
<asrwt>0</asrwt>
<pdfrwt beam="2">  1       21 0.23646452E-01 0.12964959E+03</pdfrwt>
<pdfrwt beam="1">  1        4 0.12431691E-01 0.12964959E+03</pdfrwt>
<totfact> 0.35632257E+04</totfact>
</mgrwt>
</event>
<event>
 6    4  0.3189516E-003  0.1270753E+03  0.7818608E-02  0.1231861E+00
          4   -1    0    0  502    0 -0.00000000000E+00  0.00000000000E+00  0.54052435258E+02  0.54067352972E+02  0.12700000000E+01 0.  1.
         21   -1    0    0  501  502  0.00000000000E+00 -0.00000000000E+00 -0.11998670404E+03  0.11998670404E+03  0.00000000000E+00 0.  1.
         25    2    1    2    0    0 -0.93962180028E+01  0.20827159769E+02 -0.28583193273E+02  0.13025023026E+03  0.12500425612E+03 0.  0.
    9000005    1    3    3    0    0 -0.55328514289E+02  0.22661233753E+02 -0.51461826377E+02  0.78892937471E+02  0.10000000000E+01 0.  0.
    9000005    1    3    3    0    0  0.45932296287E+02 -0.18340739835E+01  0.22878633105E+02  0.51357292786E+02  0.10000000000E+01 0.  0.
          4    1    1    2  501    0  0.93962180028E+01 -0.20827159769E+02 -0.37351075514E+02  0.43803826760E+02  0.12700000000E+01 0. -1.
<mgrwt>
<rscale>  1 0.12707527E+03</rscale>
<asrwt>0</asrwt>
<pdfrwt beam="2">  1       21 0.18459493E-01 0.12707527E+03</pdfrwt>
<pdfrwt beam="1">  1        4 0.83174238E-02 0.12707527E+03</pdfrwt>
<totfact> 0.11081684E+05</totfact>
</mgrwt>
</event>
<event>
 6    4  0.3189516E-003  0.1307459E+03  0.7818608E-02  0.1226353E+00
          4   -1    0    0  502    0 -0.00000000000E+00  0.00000000000E+00  0.54681829858E+02  0.54696575913E+02  0.12700000000E+01 0. -1.
         21   -1    0    0  501  502  0.00000000000E+00 -0.00000000000E+00 -0.13799759891E+03  0.13799759891E+03  0.00000000000E+00 0. -1.
         25    2    1    2    0    0  0.31059635023E+02  0.22469634973E+02 -0.44466549808E+02  0.13810058400E+03  0.12499964730E+03 0.  0.
    9000005    1    3    3    0    0  0.31773364052E+02 -0.47462907873E+02 -0.39314029205E+01  0.57260197484E+02  0.10000000000E+01 0.  0.
    9000005    1    3    3    0    0 -0.71372902865E+00  0.69932542847E+02 -0.40535146888E+02  0.80840386512E+02  0.10000000000E+01 0.  0.
          4    1    1    2  501    0 -0.31059635023E+02 -0.22469634973E+02 -0.38849219240E+02  0.54593590825E+02  0.12700000000E+01 0.  1.
<mgrwt>
<rscale>  1 0.13074593E+03</rscale>
<asrwt>0</asrwt>
<pdfrwt beam="2">  1       21 0.21230400E-01 0.13074593E+03</pdfrwt>
<pdfrwt beam="1">  1        4 0.84141731E-02 0.13074593E+03</pdfrwt>
<totfact> 0.84286693E+04</totfact>
</mgrwt>
</event>
<event>
 6    4  0.3189516E-003  0.1282504E+03  0.7818608E-02  0.1230075E+00
         -4   -1    0    0    0  501 -0.00000000000E+00  0.00000000000E+00  0.28573172103E+02  0.28601382205E+02  0.12700000000E+01 0. -1.
         21   -1    0    0  501  502  0.00000000000E+00 -0.00000000000E+00 -0.21509059468E+03  0.21509059468E+03  0.00000000000E+00 0. -1.
         25    2    1    2    0    0  0.60511010127E+01 -0.27901267352E+02 -0.15171000744E+03  0.19865570714E+03  0.12503226416E+03 0.  0.
    9000005    1    3    3    0    0 -0.97593048726E+01  0.43882827463E+02 -0.97334821600E+02  0.10721946686E+03  0.10000000000E+01 0.  0.
    9000005    1    3    3    0    0  0.15810405885E+02 -0.71784094815E+02 -0.54375185835E+02  0.91436240284E+02  0.10000000000E+01 0.  0.
         -4    1    1    2    0  502 -0.60511010127E+01  0.27901267352E+02 -0.34807415140E+02  0.45036269739E+02  0.12700000000E+01 0.  1.
<mgrwt>
<rscale>  1 0.12825039E+03</rscale>
<asrwt>0</asrwt>
<pdfrwt beam="2">  1       21 0.33090862E-01 0.12825039E+03</pdfrwt>
<pdfrwt beam="1">  1       -4 0.43983308E-02 0.12825039E+03</pdfrwt>
<totfact> 0.10372500E+05</totfact>
</mgrwt>
</event>
<event>
 6    4  0.3189516E-003  0.1280256E+03  0.7818608E-02  0.1230415E+00
          4   -1    0    0  502    0 -0.00000000000E+00  0.00000000000E+00  0.18032895038E+02  0.18077560771E+02  0.12700000000E+01 0.  1.
         21   -1    0    0  501  502  0.00000000000E+00 -0.00000000000E+00 -0.35351560773E+03  0.35351560773E+03  0.00000000000E+00 0.  1.
         25    2    1    2    0    0  0.24187224379E+02 -0.13287284698E+02 -0.23772418672E+03  0.27000618086E+03  0.12501589896E+03 0.  0.
    9000005    1    3    3    0    0  0.35370437883E+02  0.60552676162E+01 -0.24411927547E+03  0.24674471584E+03  0.10000000000E+01 0.  0.
    9000005    1    3    3    0    0 -0.11183213504E+02 -0.19342552314E+02  0.63950887530E+01  0.23261465011E+02  0.10000000000E+01 0.  0.
          4    1    1    2  501    0 -0.24187224379E+02  0.13287284698E+02 -0.97758525979E+02  0.10158698765E+03  0.12700000000E+01 0. -1.
<mgrwt>
<rscale>  1 0.12802558E+03</rscale>
<asrwt>0</asrwt>
<pdfrwt beam="2">  1       21 0.54387009E-01 0.12802558E+03</pdfrwt>
<pdfrwt beam="1">  1        4 0.27779032E-02 0.12802558E+03</pdfrwt>
<totfact> 0.78565168E+04</totfact>
</mgrwt>
</event>
<event>
 6    4  0.3189516E-003  0.1368354E+03  0.7818608E-02  0.1217652E+00
         21   -1    0    0  501  502  0.00000000000E+00  0.00000000000E+00  0.21065601173E+04  0.21065601173E+04  0.00000000000E+00 0. -1.
          4   -1    0    0  502    0 -0.00000000000E+00 -0.00000000000E+00 -0.55634657028E+01  0.57065795909E+01  0.12700000000E+01 0. -1.
         25    2    1    2    0    0 -0.52163271624E+02  0.19442548854E+02  0.93697847545E+03  0.94691741581E+03  0.12499963719E+03 0.  0.
    9000005    1    3    3    0    0 -0.36776757601E+02  0.61091867690E+02  0.79409718784E+03  0.79729297622E+03  0.10000000000E+01 0.  0.
    9000005    1    3    3    0    0 -0.15386514023E+02 -0.41649318836E+02  0.14288128761E+03  0.14962443959E+03  0.10000000000E+01 0.  0.
          4    1    1    2  501    0  0.52163271624E+02 -0.19442548854E+02  0.11640181761E+04  0.11653492811E+04  0.12700000000E+01 0.  1.
<mgrwt>
<rscale>  1 0.13683541E+03</rscale>
<asrwt>0</asrwt>
<pdfrwt beam="1">  1       21 0.32408554E+00 0.13683541E+03</pdfrwt>
<pdfrwt beam="2">  1        4 0.86695769E-03 0.13683541E+03</pdfrwt>
<totfact> 0.39104984E+03</totfact>
</mgrwt>
</event>
<event>
 6    4  0.3189516E-003  0.1270512E+03  0.7818608E-02  0.1231898E+00
         21   -1    0    0  501  502  0.00000000000E+00  0.00000000000E+00  0.24395413019E+02  0.24395413019E+02  0.00000000000E+00 0. -1.
          4   -1    0    0  502    0 -0.00000000000E+00 -0.00000000000E+00 -0.33346163285E+03  0.33346405126E+03  0.12700000000E+01 0. -1.
         25    2    1    2    0    0  0.45547110804E+01  0.22268354022E+02 -0.31005177262E+03  0.33507330185E+03  0.12500156368E+03 0.  0.
    9000005    1    3    3    0    0  0.50354602801E+02  0.22787349941E+02 -0.26541174634E+03  0.27110744076E+03  0.10000000000E+01 0.  0.
    9000005    1    3    3    0    0 -0.45799891721E+02 -0.51899591802E+00 -0.44640026285E+02  0.63965861091E+02  0.10000000000E+01 0.  0.
          4    1    1    2  501    0 -0.45547110804E+01 -0.22268354022E+02  0.98555279406E+00  0.22786162428E+02  0.12700000000E+01 0.  1.
<mgrwt>
<rscale>  1 0.12705123E+03</rscale>
<asrwt>0</asrwt>
<pdfrwt beam="1">  1       21 0.37531407E-02 0.12705123E+03</pdfrwt>
<pdfrwt beam="2">  1        4 0.51304516E-01 0.12705123E+03</pdfrwt>
<totfact> 0.64068220E+04</totfact>
</mgrwt>
</event>
<event>
 6    4  0.3189516E-003  0.1274290E+03  0.7818608E-02  0.1231321E+00
         -4   -1    0    0    0  501 -0.00000000000E+00  0.00000000000E+00  0.91361718563E+02  0.91370545138E+02  0.12700000000E+01 0. -1.
         21   -1    0    0  501  502  0.00000000000E+00 -0.00000000000E+00 -0.17776209618E+03  0.17776209618E+03  0.00000000000E+00 0.  1.
         25    2    1    2    0    0 -0.16920031448E+02  0.18099085026E+02  0.45204764614E+02  0.13520956375E+03  0.12499716414E+03 0.  0.
    9000005    1    3    3    0    0 -0.98862273349E+01 -0.52587973927E+02  0.33689056334E+02  0.63239109809E+02  0.10000000000E+01 0.  0.
    9000005    1    3    3    0    0 -0.70338041135E+01  0.70687058954E+02  0.11515708279E+02  0.71970453945E+02  0.10000000000E+01 0.  0.
         -4    1    1    2    0  502  0.16920031448E+02 -0.18099085026E+02 -0.13160514223E+03  0.13392307756E+03  0.12700000000E+01 0.  1.
<mgrwt>
<rscale>  1 0.12742902E+03</rscale>
<asrwt>0</asrwt>
<pdfrwt beam="2">  1       21 0.27348015E-01 0.12742902E+03</pdfrwt>
<pdfrwt beam="1">  1       -4 0.14056677E-01 0.12742902E+03</pdfrwt>
<totfact> 0.21853548E+04</totfact>
</mgrwt>
</event>
<event>
 6    4  0.3189516E-003  0.1331025E+03  0.7818608E-02  0.1222923E+00
         -4   -1    0    0    0  501 -0.00000000000E+00  0.00000000000E+00  0.12759514793E+03  0.12760146816E+03  0.12700000000E+01 0.  1.
         21   -1    0    0  501  502  0.00000000000E+00 -0.00000000000E+00 -0.78933645272E+02  0.78933645272E+02  0.00000000000E+00 0.  1.
         25    2    1    2    0    0  0.45265184602E+02  0.65315755748E+01  0.75966172033E+02  0.15325513327E+03  0.12499871265E+03 0.  0.
    9000005    1    3    3    0    0  0.54231430733E+02  0.71551487853E+01 -0.18957307741E+02  0.57901845828E+02  0.10000000000E+01 0.  0.
    9000005    1    3    3    0    0 -0.89662461307E+01 -0.62357321048E+00  0.94923479774E+02  0.95353287440E+02  0.10000000000E+01 0.  0.
         -4    1    1    2    0  502 -0.45265184602E+02 -0.65315755748E+01 -0.27304669371E+02  0.53279980162E+02  0.12700000000E+01 0. -1.
<mgrwt>
<rscale>  1 0.13310250E+03</rscale>
<asrwt>0</asrwt>
<pdfrwt beam="2">  1       21 0.12143638E-01 0.13310250E+03</pdfrwt>
<pdfrwt beam="1">  1       -4 0.19631295E-01 0.13310250E+03</pdfrwt>
<totfact> 0.54112462E+04</totfact>
</mgrwt>
</event>
<event>
 6    4  0.3189516E-003  0.1531010E+03  0.7818608E-02  0.1196713E+00
         21   -1    0    0  501  502  0.00000000000E+00  0.00000000000E+00  0.68947505900E+03  0.68947505900E+03  0.00000000000E+00 0. -1.
         -4   -1    0    0    0  501 -0.00000000000E+00 -0.00000000000E+00 -0.24856781296E+02  0.24889204013E+02  0.12700000000E+01 0.  1.
         25    2    1    2    0    0  0.81340950299E+02  0.34606659839E+02  0.54193893382E+03  0.56314982780E+03  0.12500379779E+03 0.  0.
    9000005    1    3    3    0    0 -0.21567792970E+02  0.23492943171E+02  0.27498293318E+03  0.27682792781E+03  0.10000000000E+01 0.  0.
    9000005    1    3    3    0    0  0.10290874327E+03  0.11113716668E+02  0.26695600064E+03  0.28632189999E+03  0.10000000000E+01 0.  0.
         -4    1    1    2    0  502 -0.81340950299E+02 -0.34606659839E+02  0.12267934388E+03  0.15121443521E+03  0.12700000000E+01 0. -1.
<mgrwt>
<rscale>  1 0.15310101E+03</rscale>
<asrwt>0</asrwt>
<pdfrwt beam="1">  1       21 0.10607307E+00 0.15310101E+03</pdfrwt>
<pdfrwt beam="2">  1       -4 0.38267047E-02 0.15310101E+03</pdfrwt>
<totfact> 0.10907571E+04</totfact>
</mgrwt>
</event>
<event>
 6    4  0.3189516E-003  0.1279192E+03  0.7818608E-02  0.1230576E+00
         -4   -1    0    0    0  501 -0.00000000000E+00  0.00000000000E+00  0.59294114406E+02  0.59307713691E+02  0.12700000000E+01 0. -1.
         21   -1    0    0  501  502  0.00000000000E+00 -0.00000000000E+00 -0.20674046999E+03  0.20674046999E+03  0.00000000000E+00 0.  1.
         25    2    1    2    0    0  0.11201325321E+02  0.24755860514E+02 -0.12659711558E+02  0.12854409419E+03  0.12499997414E+03 0.  0.
    9000005    1    3    3    0    0 -0.26157096417E+02 -0.17581005294E+02 -0.51230728236E+02  0.60157069042E+02  0.10000000000E+01 0.  0.
    9000005    1    3    3    0    0  0.37358421738E+02  0.42336865808E+02  0.38571016677E+02  0.68387025149E+02  0.10000000000E+01 0.  0.
         -4    1    1    2    0  502 -0.11201325321E+02 -0.24755860514E+02 -0.13478664402E+03  0.13750408948E+03  0.12700000000E+01 0.  1.
<mgrwt>
<rscale>  1 0.12791918E+03</rscale>
<asrwt>0</asrwt>
<pdfrwt beam="2">  1       21 0.31806226E-01 0.12791918E+03</pdfrwt>
<pdfrwt beam="1">  1       -4 0.91235176E-02 0.12791918E+03</pdfrwt>
<totfact> 0.34094935E+04</totfact>
</mgrwt>
</event>
<event>
 6    4  0.3189516E-003  0.1292580E+03  0.7818608E-02  0.1228561E+00
         -4   -1    0    0    0  501 -0.00000000000E+00  0.00000000000E+00  0.39485197611E+03  0.39485401851E+03  0.12700000000E+01 0. -1.
         21   -1    0    0  501  502  0.00000000000E+00 -0.00000000000E+00 -0.20412605761E+02  0.20412605761E+02  0.00000000000E+00 0.  1.
         25    2    1    2    0    0 -0.73561624486E+01  0.32076620100E+02  0.35312218590E+03  0.37603579538E+03  0.12499847418E+03 0.  0.
    9000005    1    3    3    0    0  0.58636917117E+02  0.16590004212E+02  0.18403845925E+03  0.19386766304E+03  0.10000000000E+01 0.  0.
    9000005    1    3    3    0    0 -0.65993079566E+02  0.15486615889E+02  0.16908372665E+03  0.18216813234E+03  0.10000000000E+01 0.  0.
         -4    1    1    2    0  502  0.73561624486E+01 -0.32076620100E+02  0.21317184445E+02  0.39230828894E+02  0.12700000000E+01 0.  1.
<mgrwt>
<rscale>  1 0.12925804E+03</rscale>
<asrwt>0</asrwt>
<pdfrwt beam="2">  1       21 0.31404012E-02 0.12925804E+03</pdfrwt>
<pdfrwt beam="1">  1       -4 0.60749648E-01 0.12925804E+03</pdfrwt>
<totfact> 0.60717396E+04</totfact>
</mgrwt>
</event>
<event>
 6    4  0.3189516E-003  0.1321410E+03  0.7818608E-02  0.1224313E+00
         21   -1    0    0  501  502  0.00000000000E+00  0.00000000000E+00  0.30271351144E+03  0.30271351144E+03  0.00000000000E+00 0.  1.
          4   -1    0    0  502    0 -0.00000000000E+00 -0.00000000000E+00 -0.30095900869E+02  0.30122684958E+02  0.12700000000E+01 0.  1.
         25    2    1    2    0    0 -0.39124678515E+02  0.17498059149E+02  0.25353332409E+03  0.28590278151E+03  0.12499732600E+03 0.  0.
    9000005    1    3    3    0    0 -0.21308954796E+02  0.65171535116E+02  0.81576464189E+02  0.10656978959E+03  0.10000000000E+01 0.  0.
    9000005    1    3    3    0    0 -0.17815723719E+02 -0.47673475968E+02  0.17195685990E+03  0.17933299192E+03  0.10000000000E+01 0.  0.
          4    1    1    2  501    0  0.39124678515E+02 -0.17498059149E+02  0.19084286482E+02  0.46933414892E+02  0.12700000000E+01 0. -1.
<mgrwt>
<rscale>  1 0.13214104E+03</rscale>
<asrwt>0</asrwt>
<pdfrwt beam="1">  1       21 0.46571308E-01 0.13214104E+03</pdfrwt>
<pdfrwt beam="2">  1        4 0.46324040E-02 0.13214104E+03</pdfrwt>
<totfact> 0.48459230E+04</totfact>
</mgrwt>
</event>
<event>
 6    4  0.3189516E-003  0.1271801E+03  0.7818608E-02  0.1231701E+00
         -4   -1    0    0    0  501 -0.00000000000E+00  0.00000000000E+00  0.18769889306E+02  0.18812805334E+02  0.12700000000E+01 0.  1.
         21   -1    0    0  501  502  0.00000000000E+00 -0.00000000000E+00 -0.31289913161E+03  0.31289913161E+03  0.00000000000E+00 0.  1.
         25    2    1    2    0    0 -0.79835196631E+01 -0.22037635788E+02 -0.22187899422E+03  0.25574414623E+03  0.12500154511E+03 0.  0.
    9000005    1    3    3    0    0  0.27824778338E+02 -0.40464419606E+02 -0.20708399213E+03  0.21282943250E+03  0.10000000000E+01 0.  0.
    9000005    1    3    3    0    0 -0.35808298001E+02  0.18426783818E+02 -0.14795002091E+02  0.42914713729E+02  0.10000000000E+01 0.  0.
         -4    1    1    2    0  502  0.79835196631E+01  0.22037635788E+02 -0.72250248088E+02  0.75967790715E+02  0.12700000000E+01 0. -1.
<mgrwt>
<rscale>  1 0.12718011E+03</rscale>
<asrwt>0</asrwt>
<pdfrwt beam="2">  1       21 0.48138322E-01 0.12718011E+03</pdfrwt>
<pdfrwt beam="1">  1       -4 0.28911751E-02 0.12718011E+03</pdfrwt>
<totfact> 0.94949277E+04</totfact>
</mgrwt>
</event>
<event>
 6    4  0.3189516E-003  0.1293695E+03  0.7818608E-02  0.1228394E+00
          4   -1    0    0  502    0 -0.00000000000E+00  0.00000000000E+00  0.20127912887E+02  0.20167939339E+02  0.12700000000E+01 0. -1.
         21   -1    0    0  501  502  0.00000000000E+00 -0.00000000000E+00 -0.14148761199E+04  0.14148761199E+04  0.00000000000E+00 0.  1.
         25    2    1    2    0    0  0.33313013109E+02  0.38751928058E+00 -0.19015750951E+03  0.22999208177E+03  0.12500628879E+03 0.  0.
    9000005    1    3    3    0    0  0.40979029553E+02  0.56264494301E+02 -0.78677809139E+02  0.10505318573E+03  0.10000000000E+01 0.  0.
    9000005    1    3    3    0    0 -0.76660164441E+01 -0.55876975021E+02 -0.11147970038E+03  0.12493889603E+03  0.10000000000E+01 0.  0.
          4    1    1    2  501    0 -0.33313013109E+02 -0.38751928058E+00 -0.12045906975E+04  0.12050519774E+04  0.12700000000E+01 0.  1.
<mgrwt>
<rscale>  1 0.12936955E+03</rscale>
<asrwt>0</asrwt>
<pdfrwt beam="2">  1       21 0.21767324E+00 0.12936955E+03</pdfrwt>
<pdfrwt beam="1">  1        4 0.30997249E-02 0.12936955E+03</pdfrwt>
<totfact> 0.22671360E+03</totfact>
</mgrwt>
</event>
<event>
 6    4  0.3189516E-003  0.1334795E+03  0.7818608E-02  0.1222382E+00
         -4   -1    0    0    0  501 -0.00000000000E+00  0.00000000000E+00  0.17756446079E+03  0.17756900246E+03  0.12700000000E+01 0. -1.
         21   -1    0    0  501  502  0.00000000000E+00 -0.00000000000E+00 -0.18983963989E+03  0.18983963989E+03  0.00000000000E+00 0.  1.
         25    2    1    2    0    0  0.42932331814E+02 -0.18668701506E+02  0.14866371874E+03  0.19979406283E+03  0.12500024297E+03 0.  0.
    9000005    1    3    3    0    0 -0.28858831362E+02  0.29483305225E+02  0.77575096863E+02  0.87869181673E+02  0.10000000000E+01 0.  0.
    9000005    1    3    3    0    0  0.71791163176E+02 -0.48152006731E+02  0.71088621876E+02  0.11192488116E+03  0.10000000000E+01 0.  0.
         -4    1    1    2    0  502 -0.42932331814E+02  0.18668701506E+02 -0.16093889784E+03  0.16761457952E+03  0.12700000000E+01 0.  1.
<mgrwt>
<rscale>  1 0.13347946E+03</rscale>
<asrwt>0</asrwt>
<pdfrwt beam="2">  1       21 0.29206098E-01 0.13347946E+03</pdfrwt>
<pdfrwt beam="1">  1       -4 0.27318285E-01 0.13347946E+03</pdfrwt>
<totfact> 0.58674790E+03</totfact>
</mgrwt>
</event>
<event>
 6    4  0.3189516E-003  0.1274168E+03  0.7818608E-02  0.1231340E+00
         -4   -1    0    0    0  501 -0.00000000000E+00  0.00000000000E+00  0.19728791083E+04  0.19728795171E+04  0.12700000000E+01 0.  1.
         21   -1    0    0  501  502  0.00000000000E+00 -0.00000000000E+00 -0.63565905879E+01  0.63565905879E+01  0.00000000000E+00 0. -1.
         25    2    1    2    0    0  0.18245068549E+02 -0.16613432001E+02  0.19349688923E+04  0.19391595206E+04  0.12500457479E+03 0.  0.
    9000005    1    3    3    0    0  0.64055402029E+01 -0.43809863894E+02  0.18161584172E+04  0.18166983050E+04  0.10000000000E+01 0.  0.
    9000005    1    3    3    0    0  0.11839528347E+02  0.27196431893E+02  0.11881047511E+03  0.12246121564E+03  0.10000000000E+01 0.  0.
         -4    1    1    2    0  502 -0.18245068549E+02  0.16613432001E+02  0.31553625413E+02  0.40076587005E+02  0.12700000000E+01 0. -1.
<mgrwt>
<rscale>  1 0.12741677E+03</rscale>
<asrwt>0</asrwt>
<pdfrwt beam="2">  1       21 0.97793858E-03 0.12741677E+03</pdfrwt>
<pdfrwt beam="1">  1       -4 0.30352917E+00 0.12741677E+03</pdfrwt>
<totfact> 0.57081069E+03</totfact>
</mgrwt>
</event>
<event>
 6    4  0.3189516E-003  0.1321739E+03  0.7818608E-02  0.1224265E+00
          4   -1    0    0  502    0 -0.00000000000E+00  0.00000000000E+00  0.14990499332E+03  0.14991037297E+03  0.12700000000E+01 0. -1.
         21   -1    0    0  501  502  0.00000000000E+00 -0.00000000000E+00 -0.69258309962E+02  0.69258309962E+02  0.00000000000E+00 0. -1.
         25    2    1    2    0    0  0.71340306646E+01 -0.42349869610E+02  0.10586974545E+03  0.16934678402E+03  0.12500209761E+03 0.  0.
    9000005    1    3    3    0    0  0.51850721517E+02  0.23259937012E+01  0.90429083806E+02  0.10427045011E+03  0.10000000000E+01 0.  0.
    9000005    1    3    3    0    0 -0.44716690853E+02 -0.44675863311E+02  0.15440661645E+02  0.65076333912E+02  0.10000000000E+01 0.  0.
          4    1    1    2  501    0 -0.71340306646E+01  0.42349869610E+02 -0.25223062089E+02  0.49821898906E+02  0.12700000000E+01 0.  1.
<mgrwt>
<rscale>  1 0.13217386E+03</rscale>
<asrwt>0</asrwt>
<pdfrwt beam="2">  1       21 0.10655125E-01 0.13217386E+03</pdfrwt>
<pdfrwt beam="1">  1        4 0.23063616E-01 0.13217386E+03</pdfrwt>
<totfact> 0.50874982E+04</totfact>
</mgrwt>
</event>
<event>
 6    4  0.3189516E-003  0.1346738E+03  0.7818608E-02  0.1220681E+00
         21   -1    0    0  501  502  0.00000000000E+00  0.00000000000E+00  0.27382978912E+03  0.27382978912E+03  0.00000000000E+00 0.  1.
         -4   -1    0    0    0  501 -0.00000000000E+00 -0.00000000000E+00 -0.49225110609E+02  0.49241490783E+02  0.12700000000E+01 0.  1.
         25    2    1    2    0    0 -0.42458387626E+01 -0.49936363964E+02  0.53733699108E+02  0.14499777796E+03  0.12500151039E+03 0.  0.
    9000005    1    3    3    0    0  0.32864264544E+02 -0.75201436841E+02  0.57073469020E+02  0.99968479297E+02  0.10000000000E+01 0.  0.
    9000005    1    3    3    0    0 -0.37110103306E+02  0.25265072877E+02 -0.33397699118E+01  0.45029298661E+02  0.10000000000E+01 0.  0.
         -4    1    1    2    0  502  0.42458387626E+01  0.49936363964E+02  0.17087097940E+03  0.17807350194E+03  0.12700000000E+01 0. -1.
<mgrwt>
<rscale>  1 0.13467385E+03</rscale>
<asrwt>0</asrwt>
<pdfrwt beam="1">  1       21 0.42127659E-01 0.13467385E+03</pdfrwt>
<pdfrwt beam="2">  1       -4 0.75745807E-02 0.13467385E+03</pdfrwt>
<totfact> 0.26779395E+04</totfact>
</mgrwt>
</event>
<event>
 6    4  0.3189516E-003  0.1358328E+03  0.7818608E-02  0.1219049E+00
         21   -1    0    0  501  502  0.00000000000E+00  0.00000000000E+00  0.26116144890E+02  0.26116144890E+02  0.00000000000E+00 0. -1.
         -4   -1    0    0    0  501 -0.00000000000E+00 -0.00000000000E+00 -0.40021992262E+03  0.40022193763E+03  0.12700000000E+01 0.  1.
         25    2    1    2    0    0 -0.20151068584E+02 -0.49188777154E+02 -0.33134651512E+03  0.35810760715E+03  0.12499977543E+03 0.  0.
    9000005    1    3    3    0    0 -0.28121830691E+02  0.72942672408E+01 -0.85396641902E+01  0.30298012484E+02  0.10000000000E+01 0.  0.
    9000005    1    3    3    0    0  0.79707621066E+01 -0.56483044394E+02 -0.32280685093E+03  0.32780959467E+03  0.10000000000E+01 0.  0.
         -4    1    1    2    0  502  0.20151068584E+02  0.49188777154E+02 -0.42757262613E+02  0.68230475369E+02  0.12700000000E+01 0. -1.
<mgrwt>
<rscale>  1 0.13583278E+03</rscale>
<asrwt>0</asrwt>
<pdfrwt beam="1">  1       21 0.40178687E-02 0.13583278E+03</pdfrwt>
<pdfrwt beam="2">  1       -4 0.61574823E-01 0.13583278E+03</pdfrwt>
<totfact> 0.39522030E+04</totfact>
</mgrwt>
</event>
<event>
 6    4  0.3189516E-003  0.1271279E+03  0.7818608E-02  0.1231781E+00
          4   -1    0    0  502    0 -0.00000000000E+00  0.00000000000E+00  0.20906058876E+03  0.20906444622E+03  0.12700000000E+01 0. -1.
         21   -1    0    0  501  502  0.00000000000E+00 -0.00000000000E+00 -0.73796202277E+02  0.73796202277E+02  0.00000000000E+00 0.  1.
         25    2    1    2    0    0 -0.12287561911E+02  0.19625997835E+02  0.18702579657E+03  0.22614186464E+03  0.12500132155E+03 0.  0.
    9000005    1    3    3    0    0  0.50105437857E+02 -0.18519590827E+02  0.89584455951E+02  0.10430678259E+03  0.10000000000E+01 0.  0.
    9000005    1    3    3    0    0 -0.62392999768E+02  0.38145588662E+02  0.97441340621E+02  0.12183508204E+03  0.10000000000E+01 0.  0.
          4    1    1    2  501    0  0.12287561911E+02 -0.19625997835E+02 -0.51761410085E+02  0.56718783862E+02  0.12700000000E+01 0.  1.
<mgrwt>
<rscale>  1 0.12712787E+03</rscale>
<asrwt>0</asrwt>
<pdfrwt beam="2">  1       21 0.11353262E-01 0.12712787E+03</pdfrwt>
<pdfrwt beam="1">  1        4 0.32164304E-01 0.12712787E+03</pdfrwt>
<totfact> 0.24353054E+04</totfact>
</mgrwt>
</event>
<event>
 6    4  0.3189516E-003  0.1330602E+03  0.7818608E-02  0.1222984E+00
          4   -1    0    0  502    0 -0.00000000000E+00  0.00000000000E+00  0.19024358648E+03  0.19024782547E+03  0.12700000000E+01 0.  1.
         21   -1    0    0  501  502  0.00000000000E+00 -0.00000000000E+00 -0.61190584885E+02  0.61190584885E+02  0.00000000000E+00 0.  1.
         25    2    1    2    0    0 -0.45576781855E+02  0.10115233766E+01  0.15063201322E+03  0.20098513626E+03  0.12500702128E+03 0.  0.
    9000005    1    3    3    0    0 -0.68117621116E+02 -0.45067589389E+02  0.89313077507E+02  0.12103273827E+03  0.10000000000E+01 0.  0.
    9000005    1    3    3    0    0  0.22540839261E+02  0.46079112766E+02  0.61318935709E+02  0.79952397990E+02  0.10000000000E+01 0.  0.
          4    1    1    2  501    0  0.45576781855E+02 -0.10115233766E+01 -0.21579011625E+02  0.50453274091E+02  0.12700000000E+01 0. -1.
<mgrwt>
<rscale>  1 0.13306022E+03</rscale>
<asrwt>0</asrwt>
<pdfrwt beam="2">  1       21 0.94139362E-02 0.13306022E+03</pdfrwt>
<pdfrwt beam="1">  1        4 0.29269584E-01 0.13306022E+03</pdfrwt>
<totfact> 0.40654828E+04</totfact>
</mgrwt>
</event>
<event>
 6    4  0.3189516E-003  0.1284781E+03  0.7818608E-02  0.1229732E+00
         21   -1    0    0  501  502  0.00000000000E+00  0.00000000000E+00  0.42037061775E+02  0.42037061775E+02  0.00000000000E+00 0.  1.
          4   -1    0    0  502    0 -0.00000000000E+00 -0.00000000000E+00 -0.19024172078E+03  0.19024595982E+03  0.12700000000E+01 0. -1.
         25    2    1    2    0    0 -0.28846158228E+02  0.70200338116E+01 -0.15547569697E+03  0.20169114992E+03  0.12500098355E+03 0.  0.
    9000005    1    3    3    0    0  0.43173392869E+02  0.10983576357E+01 -0.10500144327E+03  0.11354052726E+03  0.10000000000E+01 0.  0.
    9000005    1    3    3    0    0 -0.72019551097E+02  0.59216761759E+01 -0.50474253699E+02  0.88150622661E+02  0.10000000000E+01 0.  0.
          4    1    1    2  501    0  0.28846158228E+02 -0.70200338116E+01  0.72710379625E+01  0.30591871670E+02  0.12700000000E+01 0.  1.
<mgrwt>
<rscale>  1 0.12847812E+03</rscale>
<asrwt>0</asrwt>
<pdfrwt beam="1">  1       21 0.64672402E-02 0.12847812E+03</pdfrwt>
<pdfrwt beam="2">  1        4 0.29269759E-01 0.12847812E+03</pdfrwt>
<totfact> 0.77261276E+04</totfact>
</mgrwt>
</event>
<event>
 6    4  0.3189516E-003  0.1293860E+03  0.7818608E-02  0.1228370E+00
          4   -1    0    0  502    0 -0.00000000000E+00  0.00000000000E+00  0.29053188247E+02  0.29080932710E+02  0.12700000000E+01 0. -1.
         21   -1    0    0  501  502  0.00000000000E+00 -0.00000000000E+00 -0.24258437171E+03  0.24258437171E+03  0.00000000000E+00 0. -1.
         25    2    1    2    0    0  0.17549611871E+02 -0.28414937597E+02 -0.13853593372E+03  0.18955989693E+03  0.12500140814E+03 0.  0.
    9000005    1    3    3    0    0 -0.29693636343E+02  0.25918029535E+02 -0.10085960909E+03  0.10829181428E+03  0.10000000000E+01 0.  0.
    9000005    1    3    3    0    0  0.47243248214E+02 -0.54332967132E+02 -0.37676324624E+02  0.81268082642E+02  0.10000000000E+01 0.  0.
          4    1    1    2  501    0 -0.17549611871E+02  0.28414937597E+02 -0.74995249745E+02  0.82105407494E+02  0.12700000000E+01 0.  1.
<mgrwt>
<rscale>  1 0.12938605E+03</rscale>
<asrwt>0</asrwt>
<pdfrwt beam="2">  1       21 0.37320673E-01 0.12938605E+03</pdfrwt>
<pdfrwt beam="1">  1        4 0.44721111E-02 0.12938605E+03</pdfrwt>
<totfact> 0.79831879E+04</totfact>
</mgrwt>
</event>
<event>
 6    4  0.3189516E-003  0.1281064E+03  0.7818608E-02  0.1230293E+00
         21   -1    0    0  501  502  0.00000000000E+00  0.00000000000E+00  0.25052244972E+03  0.25052244972E+03  0.00000000000E+00 0. -1.
          4   -1    0    0  502    0 -0.00000000000E+00 -0.00000000000E+00 -0.25164523813E+02  0.25196550533E+02  0.12700000000E+01 0. -1.
         25    2    1    2    0    0  0.12556326193E+02 -0.25074535555E+02  0.16286374609E+03  0.20720966460E+03  0.12499940661E+03 0.  0.
    9000005    1    3    3    0    0  0.17333297862E+02 -0.18327585696E+02  0.18335824681E+03  0.18508806090E+03  0.10000000000E+01 0.  0.
    9000005    1    3    3    0    0 -0.47769716692E+01 -0.67469498588E+01 -0.20494500720E+02  0.22121603705E+02  0.10000000000E+01 0.  0.
          4    1    1    2  501    0 -0.12556326193E+02  0.25074535555E+02  0.62494179817E+02  0.68509335654E+02  0.12700000000E+01 0.  1.
<mgrwt>
<rscale>  1 0.12810638E+03</rscale>
<asrwt>0</asrwt>
<pdfrwt beam="1">  1       21 0.38541914E-01 0.12810638E+03</pdfrwt>
<pdfrwt beam="2">  1        4 0.38741766E-02 0.12810638E+03</pdfrwt>
<totfact> 0.93969287E+04</totfact>
</mgrwt>
</event>
<event>
 6    4  0.3189516E-003  0.1276002E+03  0.7818608E-02  0.1231061E+00
          4   -1    0    0  502    0 -0.00000000000E+00  0.00000000000E+00  0.71876637414E+02  0.71887856456E+02  0.12700000000E+01 0.  1.
         21   -1    0    0  501  502  0.00000000000E+00 -0.00000000000E+00 -0.85208031246E+02  0.85208031246E+02  0.00000000000E+00 0.  1.
         25    2    1    2    0    0  0.19487116198E+02 -0.16644788701E+02  0.12030533444E+01  0.12760589375E+03  0.12500008037E+03 0.  0.
    9000005    1    3    3    0    0  0.48284787060E+02  0.40731046319E+02  0.43186264787E+01  0.63325266129E+02  0.10000000000E+01 0.  0.
    9000005    1    3    3    0    0 -0.28797670862E+02 -0.57375835020E+02 -0.31155731343E+01  0.64280627620E+02  0.10000000000E+01 0.  0.
          4    1    1    2  501    0 -0.19487116198E+02  0.16644788701E+02 -0.14534447177E+02  0.29489993953E+02  0.12700000000E+01 0. -1.
<mgrwt>
<rscale>  1 0.12760022E+03</rscale>
<asrwt>0</asrwt>
<pdfrwt beam="2">  1       21 0.13108928E-01 0.12760022E+03</pdfrwt>
<pdfrwt beam="1">  1        4 0.11059535E-01 0.12760022E+03</pdfrwt>
<totfact> 0.12765328E+05</totfact>
</mgrwt>
</event>
<event>
 6    4  0.3189516E-003  0.1391033E+03  0.7818608E-02  0.1214541E+00
          4   -1    0    0  502    0 -0.00000000000E+00  0.00000000000E+00  0.24501252585E+03  0.24501581729E+03  0.12700000000E+01 0. -1.
         21   -1    0    0  501  502  0.00000000000E+00 -0.00000000000E+00 -0.45729023032E+02  0.45729023032E+02  0.00000000000E+00 0.  1.
         25    2    1    2    0    0  0.61025995446E+02  0.34203703021E+00  0.17842006325E+03  0.22623759174E+03  0.12500175933E+03 0.  0.
    9000005    1    3    3    0    0  0.47550660472E+01  0.46198987215E+02  0.17394363123E+02  0.49603638387E+02  0.10000000000E+01 0.  0.
    9000005    1    3    3    0    0  0.56270929398E+02 -0.45856950185E+02  0.16102570012E+03  0.17663395335E+03  0.10000000000E+01 0.  0.
          4    1    1    2  501    0 -0.61025995446E+02 -0.34203703021E+00  0.20863439569E+02  0.64507248586E+02  0.12700000000E+01 0.  1.
<mgrwt>
<rscale>  1 0.13910330E+03</rscale>
<asrwt>0</asrwt>
<pdfrwt beam="2">  1       21 0.70352345E-02 0.13910330E+03</pdfrwt>
<pdfrwt beam="1">  1        4 0.37695843E-01 0.13910330E+03</pdfrwt>
<totfact> 0.41630790E+04</totfact>
</mgrwt>
</event>
<event>
 6    4  0.3189516E-003  0.1273948E+03  0.7818608E-02  0.1231373E+00
         21   -1    0    0  501  502  0.00000000000E+00  0.00000000000E+00  0.48102170563E+02  0.48102170563E+02  0.00000000000E+00 0.  1.
         -4   -1    0    0    0  501 -0.00000000000E+00 -0.00000000000E+00 -0.20407906416E+03  0.20408301577E+03  0.12700000000E+01 0.  1.
         25    2    1    2    0    0  0.22004377379E+02 -0.10936970730E+02 -0.17818355236E+03  0.21904067629E+03  0.12500251832E+03 0.  0.
    9000005    1    3    3    0    0 -0.49407723197E+02 -0.44655644454E+01 -0.10725847203E+03  0.11817971146E+03  0.10000000000E+01 0.  0.
    9000005    1    3    3    0    0  0.71412100576E+02 -0.64714062846E+01 -0.70925080330E+02  0.10086096484E+03  0.10000000000E+01 0.  0.
         -4    1    1    2    0  502 -0.22004377379E+02  0.10936970730E+02  0.22206658765E+02  0.33144510045E+02  0.12700000000E+01 0. -1.
<mgrwt>
<rscale>  1 0.12739482E+03</rscale>
<asrwt>0</asrwt>
<pdfrwt beam="1">  1       21 0.74003340E-02 0.12739482E+03</pdfrwt>
<pdfrwt beam="2">  1       -4 0.31398373E-01 0.12739482E+03</pdfrwt>
<totfact> 0.53677038E+04</totfact>
</mgrwt>
</event>
<event>
 6    4  0.3189516E-003  0.1306126E+03  0.7818608E-02  0.1226550E+00
         21   -1    0    0  501  502  0.00000000000E+00  0.00000000000E+00  0.10383921034E+03  0.10383921034E+03  0.00000000000E+00 0. -1.
         -4   -1    0    0    0  501 -0.00000000000E+00 -0.00000000000E+00 -0.11088962033E+03  0.11089689264E+03  0.12700000000E+01 0.  1.
         25    2    1    2    0    0  0.12248325169E+02  0.35835369465E+02 -0.64691674858E+02  0.14575550071E+03  0.12500183206E+03 0.  0.
    9000005    1    3    3    0    0  0.67343857681E+02  0.20977451800E+02 -0.20164233127E+02  0.73367874094E+02  0.10000000000E+01 0.  0.
    9000005    1    3    3    0    0 -0.55095532513E+02  0.14857917665E+02 -0.44527441731E+02  0.72387626618E+02  0.10000000000E+01 0.  0.
         -4    1    1    2    0  502 -0.12248325169E+02 -0.35835369465E+02  0.57641264864E+02  0.68980602268E+02  0.12700000000E+01 0. -1.
<mgrwt>
<rscale>  1 0.13061261E+03</rscale>
<asrwt>0</asrwt>
<pdfrwt beam="1">  1       21 0.15975263E-01 0.13061261E+03</pdfrwt>
<pdfrwt beam="2">  1       -4 0.17061098E-01 0.13061261E+03</pdfrwt>
<totfact> 0.42385591E+04</totfact>
</mgrwt>
</event>
<event>
 6    4  0.3189516E-003  0.1271434E+03  0.7818608E-02  0.1231757E+00
          4   -1    0    0  502    0 -0.00000000000E+00  0.00000000000E+00  0.26063990161E+03  0.26064299570E+03  0.12700000000E+01 0.  1.
         21   -1    0    0  501  502  0.00000000000E+00 -0.00000000000E+00 -0.28172018706E+02  0.28172018706E+02  0.00000000000E+00 0.  1.
         25    2    1    2    0    0  0.22860487682E+02  0.42085527856E+01  0.12301100283E+03  0.17690998634E+03  0.12500049054E+03 0.  0.
    9000005    1    3    3    0    0 -0.46041007408E+02  0.22919477428E+02  0.74700026902E+02  0.90698240490E+02  0.10000000000E+01 0.  0.
    9000005    1    3    3    0    0  0.68901495090E+02 -0.18710924643E+02  0.48310975929E+02  0.86211745847E+02  0.10000000000E+01 0.  0.
          4    1    1    2  501    0 -0.22860487682E+02 -0.42085527856E+01  0.10945688007E+03  0.11190502807E+03  0.12700000000E+01 0. -1.
<mgrwt>
<rscale>  1 0.12714337E+03</rscale>
<asrwt>0</asrwt>
<pdfrwt beam="2">  1       21 0.43341569E-02 0.12714337E+03</pdfrwt>
<pdfrwt beam="1">  1        4 0.40100885E-01 0.12714337E+03</pdfrwt>
<totfact> 0.82645022E+04</totfact>
</mgrwt>
</event>
<event>
 6    4  0.3189516E-003  0.1369273E+03  0.7818608E-02  0.1217524E+00
         21   -1    0    0  501  502  0.00000000000E+00  0.00000000000E+00  0.25193709486E+03  0.25193709486E+03  0.00000000000E+00 0. -1.
         -4   -1    0    0    0  501 -0.00000000000E+00 -0.00000000000E+00 -0.50774040534E+02  0.50789921167E+02  0.12700000000E+01 0.  1.
         25    2    1    2    0    0 -0.53535075831E+02  0.16119286428E+02  0.57403267690E+02  0.14847292405E+03  0.12499295298E+03 0.  0.
    9000005    1    3    3    0    0 -0.70938863408E+02  0.53754469122E+02  0.59296951984E+02  0.10695323187E+03  0.10000000000E+01 0.  0.
    9000005    1    3    3    0    0  0.17403787577E+02 -0.37635182694E+02 -0.18936842948E+01  0.41519692179E+02  0.10000000000E+01 0.  0.
         -4    1    1    2    0  502  0.53535075831E+02 -0.16119286428E+02  0.14375978664E+03  0.15425409198E+03  0.12700000000E+01 0. -1.
<mgrwt>
<rscale>  1 0.13692726E+03</rscale>
<asrwt>0</asrwt>
<pdfrwt beam="1">  1       21 0.38759553E-01 0.13692726E+03</pdfrwt>
<pdfrwt beam="2">  1       -4 0.78128588E-02 0.13692726E+03</pdfrwt>
<totfact> 0.30117166E+04</totfact>
</mgrwt>
</event>
<event>
 6    4  0.3189516E-003  0.1294282E+03  0.7818608E-02  0.1228307E+00
         21   -1    0    0  501  502  0.00000000000E+00  0.00000000000E+00  0.17543117366E+02  0.17543117366E+02  0.00000000000E+00 0.  1.
         -4   -1    0    0    0  501 -0.00000000000E+00 -0.00000000000E+00 -0.65489009684E+03  0.65489132827E+03  0.12700000000E+01 0. -1.
         25    2    1    2    0    0 -0.30714203438E+02  0.13540920443E+02 -0.62231860894E+03  0.63563521140E+03  0.12499980849E+03 0.  0.
    9000005    1    3    3    0    0 -0.27036856601E+02  0.16325251938E+02 -0.30895206947E+02  0.44192977700E+02  0.10000000000E+01 0.  0.
    9000005    1    3    3    0    0 -0.36773468373E+01 -0.27843314949E+01 -0.59142340199E+03  0.59144223370E+03  0.10000000000E+01 0.  0.
         -4    1    1    2    0  502  0.30714203438E+02 -0.13540920443E+02 -0.15028370538E+02  0.36799234235E+02  0.12700000000E+01 0.  1.
<mgrwt>
<rscale>  1 0.12942825E+03</rscale>
<asrwt>0</asrwt>
<pdfrwt beam="1">  1       21 0.26989413E-02 0.12942825E+03</pdfrwt>
<pdfrwt beam="2">  1       -4 0.10075595E+00 0.12942825E+03</pdfrwt>
<totfact> 0.25554267E+04</totfact>
</mgrwt>
</event>
<event>
 6    4  0.3189516E-003  0.1668074E+03  0.7818608E-02  0.1181219E+00
         21   -1    0    0  501  502  0.00000000000E+00  0.00000000000E+00  0.24230690994E+03  0.24230690994E+03  0.00000000000E+00 0.  1.
         -4   -1    0    0    0  501 -0.00000000000E+00 -0.00000000000E+00 -0.79970693010E+02  0.79980776694E+02  0.12700000000E+01 0. -1.
         25    2    1    2    0    0  0.71253201518E+02  0.84397430600E+02  0.83202207539E+02  0.18640630689E+03  0.12499903556E+03 0.  0.
    9000005    1    3    3    0    0  0.77316775096E+02  0.73567587608E+02  0.11219607231E+03  0.15485164610E+03  0.10000000000E+01 0.  0.
    9000005    1    3    3    0    0 -0.60635735777E+01  0.10829842992E+02 -0.28993864766E+02  0.31554660794E+02  0.10000000000E+01 0.  0.
         -4    1    1    2    0  502 -0.71253201518E+02 -0.84397430600E+02  0.79134009387E+02  0.13588137974E+03  0.12700000000E+01 0.  1.
<mgrwt>
<rscale>  1 0.16680739E+03</rscale>
<asrwt>0</asrwt>
<pdfrwt beam="1">  1       21 0.37277986E-01 0.16680739E+03</pdfrwt>
<pdfrwt beam="2">  1       -4 0.12304215E-01 0.16680739E+03</pdfrwt>
<totfact> 0.15389046E+04</totfact>
</mgrwt>
</event>
<event>
 6    4  0.3189516E-003  0.1272834E+03  0.7818608E-02  0.1231543E+00
         21   -1    0    0  501  502  0.00000000000E+00  0.00000000000E+00  0.79070329890E+01  0.79070329890E+01  0.00000000000E+00 0. -1.
          4   -1    0    0  502    0 -0.00000000000E+00 -0.00000000000E+00 -0.92401324034E+03  0.92401411311E+03  0.12700000000E+01 0. -1.
         25    2    1    2    0    0  0.79217199965E+01 -0.22651316895E+02 -0.87575632427E+03  0.88495773726E+03  0.12500088574E+03 0.  0.
    9000005    1    3    3    0    0 -0.97709553156E+01  0.42838406737E+02 -0.15789782101E+03  0.16390034332E+03  0.10000000000E+01 0.  0.
    9000005    1    3    3    0    0  0.17692675312E+02 -0.65489723632E+02 -0.71785850326E+03  0.72105739394E+03  0.10000000000E+01 0.  0.
          4    1    1    2  501    0 -0.79217199965E+01  0.22651316895E+02 -0.40349883079E+02  0.46963408834E+02  0.12700000000E+01 0.  1.
<mgrwt>
<rscale>  1 0.12728337E+03</rscale>
<asrwt>0</asrwt>
<pdfrwt beam="1">  1       21 0.12164668E-02 0.12728337E+03</pdfrwt>
<pdfrwt beam="2">  1        4 0.14216377E+00 0.12728337E+03</pdfrwt>
<totfact> 0.40181155E+04</totfact>
</mgrwt>
</event>
<event>
 6    4  0.3189516E-003  0.1302474E+03  0.7818608E-02  0.1227089E+00
         21   -1    0    0  501  502  0.00000000000E+00  0.00000000000E+00  0.57436111982E+02  0.57436111982E+02  0.00000000000E+00 0.  1.
         -4   -1    0    0    0  501 -0.00000000000E+00 -0.00000000000E+00 -0.14746757368E+03  0.14747304224E+03  0.12700000000E+01 0.  1.
         25    2    1    2    0    0  0.34302421402E+02 -0.12685978411E+02 -0.10303323505E+03  0.16607297042E+03  0.12500717506E+03 0.  0.
    9000005    1    3    3    0    0 -0.27090117627E+01  0.53895629749E+02 -0.45791642478E+02  0.70781015616E+02  0.10000000000E+01 0.  0.
    9000005    1    3    3    0    0  0.37011433165E+02 -0.66581608160E+02 -0.57241592573E+02  0.95291954804E+02  0.10000000000E+01 0.  0.
         -4    1    1    2    0  502 -0.34302421402E+02  0.12685978411E+02  0.13001773349E+02  0.38836183805E+02  0.12700000000E+01 0. -1.
<mgrwt>
<rscale>  1 0.13024740E+03</rscale>
<asrwt>0</asrwt>
<pdfrwt beam="1">  1       21 0.88363249E-02 0.13024740E+03</pdfrwt>
<pdfrwt beam="2">  1       -4 0.22688820E-01 0.13024740E+03</pdfrwt>
<totfact> 0.72549163E+04</totfact>
</mgrwt>
</event>
<event>
 6    4  0.3189516E-003  0.1338060E+03  0.7818608E-02  0.1221915E+00
          4   -1    0    0  502    0 -0.00000000000E+00  0.00000000000E+00  0.40555898113E+03  0.40556096961E+03  0.12700000000E+01 0.  1.
         21   -1    0    0  501  502  0.00000000000E+00 -0.00000000000E+00 -0.32750197603E+02  0.32750197603E+02  0.00000000000E+00 0. -1.
         25    2    1    2    0    0 -0.27977992312E+02 -0.38697729392E+02  0.36645704902E+03  0.39012154442E+03  0.12499507324E+03 0.  0.
    9000005    1    3    3    0    0  0.42699311768E+02  0.14740029012E+02  0.12626242376E+03  0.13410331590E+03  0.10000000000E+01 0.  0.
    9000005    1    3    3    0    0 -0.70677304080E+02 -0.53437758403E+02  0.24019462525E+03  0.25601822852E+03  0.10000000000E+01 0.  0.
          4    1    1    2  501    0  0.27977992312E+02  0.38697729392E+02  0.63517345101E+01  0.48189622795E+02  0.12700000000E+01 0. -1.
<mgrwt>
<rscale>  1 0.13380602E+03</rscale>
<asrwt>0</asrwt>
<pdfrwt beam="2">  1       21 0.50384922E-02 0.13380602E+03</pdfrwt>
<pdfrwt beam="1">  1        4 0.62395733E-01 0.13380602E+03</pdfrwt>
<totfact> 0.26273896E+04</totfact>
</mgrwt>
</event>
<event>
 6    4  0.3189516E-003  0.1305650E+03  0.7818608E-02  0.1226620E+00
          4   -1    0    0  502    0 -0.00000000000E+00  0.00000000000E+00  0.95991487666E+01  0.96827969639E+01  0.12700000000E+01 0. -1.
         21   -1    0    0  501  502  0.00000000000E+00 -0.00000000000E+00 -0.73730431167E+03  0.73730431167E+03  0.00000000000E+00 0. -1.
         25    2    1    2    0    0  0.15174442480E+02 -0.34525985453E+02 -0.54436819291E+03  0.55980707540E+03  0.12499969935E+03 0.  0.
    9000005    1    3    3    0    0  0.41781264506E+02  0.19229086726E+01 -0.47629164137E+03  0.47812561036E+03  0.10000000000E+01 0.  0.
    9000005    1    3    3    0    0 -0.26606822026E+02 -0.36448894125E+02 -0.68076551538E+02  0.81681465037E+02  0.10000000000E+01 0.  0.
          4    1    1    2  501    0 -0.15174442480E+02  0.34525985453E+02 -0.18333696999E+03  0.18718003324E+03  0.12700000000E+01 0.  1.
<mgrwt>
<rscale>  1 0.13056505E+03</rscale>
<asrwt>0</asrwt>
<pdfrwt beam="2">  1       21 0.11343144E+00 0.13056505E+03</pdfrwt>
<pdfrwt beam="1">  1        4 0.14833107E-02 0.13056505E+03</pdfrwt>
<totfact> 0.40038478E+04</totfact>
</mgrwt>
</event>
<event>
 6    4  0.3189516E-003  0.1316271E+03  0.7818608E-02  0.1225061E+00
          4   -1    0    0  502    0 -0.00000000000E+00  0.00000000000E+00  0.79537875359E+02  0.79548013907E+02  0.12700000000E+01 0. -1.
         21   -1    0    0  501  502  0.00000000000E+00 -0.00000000000E+00 -0.99785634604E+02  0.99785634604E+02  0.00000000000E+00 0. -1.
         25    2    1    2    0    0 -0.34557514387E+02 -0.22537250355E+02  0.35749652567E+01  0.13167565278E+03  0.12499419068E+03 0.  0.
    9000005    1    3    3    0    0  0.43973054650E+02 -0.19024077221E+02  0.19017501992E+02  0.51557835790E+02  0.10000000000E+01 0.  0.
    9000005    1    3    3    0    0 -0.78530569037E+02 -0.35131731331E+01 -0.15442536736E+02  0.80117816992E+02  0.10000000000E+01 0.  0.
          4    1    1    2  501    0  0.34557514387E+02  0.22537250355E+02 -0.23822724501E+02  0.47657995728E+02  0.12700000000E+01 0.  1.
<mgrwt>
<rscale>  1 0.13162711E+03</rscale>
<asrwt>0</asrwt>
<pdfrwt beam="2">  1       21 0.15351636E-01 0.13162711E+03</pdfrwt>
<pdfrwt beam="1">  1        4 0.12237998E-01 0.13162711E+03</pdfrwt>
<totfact> 0.81257476E+04</totfact>
</mgrwt>
</event>
<event>
 6    4  0.3189516E-003  0.1268768E+03  0.7818608E-02  0.1232165E+00
         21   -1    0    0  501  502  0.00000000000E+00  0.00000000000E+00  0.40733893021E+02  0.40733893021E+02  0.00000000000E+00 0.  1.
         -4   -1    0    0    0  501 -0.00000000000E+00 -0.00000000000E+00 -0.22029994647E+03  0.22030360713E+03  0.12700000000E+01 0. -1.
         25    2    1    2    0    0 -0.16371979234E+02 -0.14267926321E+02 -0.19620222231E+03  0.23365154682E+03  0.12500447139E+03 0.  0.
    9000005    1    3    3    0    0  0.13912529495E+01  0.48999136886E+02 -0.13583786149E+03  0.14441528871E+03  0.10000000000E+01 0.  0.
    9000005    1    3    3    0    0 -0.17763232183E+02 -0.63267063207E+02 -0.60364360821E+02  0.89236258112E+02  0.10000000000E+01 0.  0.
         -4    1    1    2    0  502  0.16371979234E+02  0.14267926321E+02  0.16636168858E+02  0.27385953330E+02  0.12700000000E+01 0.  1.
<mgrwt>
<rscale>  1 0.12687684E+03</rscale>
<asrwt>0</asrwt>
<pdfrwt beam="1">  1       21 0.62667529E-02 0.12687684E+03</pdfrwt>
<pdfrwt beam="2">  1       -4 0.33894103E-01 0.12687684E+03</pdfrwt>
<totfact> 0.61580193E+04</totfact>
</mgrwt>
</event>
<event>
 6    4  0.3189516E-003  0.1271094E+03  0.7818608E-02  0.1231809E+00
         21   -1    0    0  501  502  0.00000000000E+00  0.00000000000E+00  0.35274538936E+02  0.35274538936E+02  0.00000000000E+00 0.  1.
          4   -1    0    0  502    0 -0.00000000000E+00 -0.00000000000E+00 -0.22021362948E+03  0.22021729158E+03  0.12700000000E+01 0.  1.
         25    2    1    2    0    0  0.15606883792E+02  0.16967809661E+02 -0.19294788410E+03  0.23105343735E+03  0.12500129417E+03 0.  0.
    9000005    1    3    3    0    0  0.40702562026E+02 -0.13722606264E+02 -0.18586789268E+03  0.19076918516E+03  0.10000000000E+01 0.  0.
    9000005    1    3    3    0    0 -0.25095678234E+02  0.30690415925E+02 -0.70799914268E+01  0.40284252187E+02  0.10000000000E+01 0.  0.
          4    1    1    2  501    0 -0.15606883792E+02 -0.16967809661E+02  0.80087935575E+01  0.24438393168E+02  0.12700000000E+01 0. -1.
<mgrwt>
<rscale>  1 0.12710942E+03</rscale>
<asrwt>0</asrwt>
<pdfrwt beam="1">  1       21 0.54268523E-02 0.12710942E+03</pdfrwt>
<pdfrwt beam="2">  1        4 0.33881060E-01 0.12710942E+03</pdfrwt>
<totfact> 0.78638347E+04</totfact>
</mgrwt>
</event>
<event>
 6    4  0.3189516E-003  0.1299796E+03  0.7818608E-02  0.1227486E+00
         -4   -1    0    0    0  501 -0.00000000000E+00  0.00000000000E+00  0.94899753769E+01  0.95745774138E+01  0.12700000000E+01 0.  1.
         21   -1    0    0  501  502  0.00000000000E+00 -0.00000000000E+00 -0.78200516145E+03  0.78200516145E+03  0.00000000000E+00 0.  1.
         25    2    1    2    0    0 -0.93940547955E+01  0.34355604876E+02 -0.49481630293E+03  0.51160324262E+03  0.12500459335E+03 0.  0.
    9000005    1    3    3    0    0  0.22244040680E+01 -0.16690872131E+02 -0.41969542924E+03  0.42003426826E+03  0.10000000000E+01 0.  0.
    9000005    1    3    3    0    0 -0.11618458863E+02  0.51046477007E+02 -0.75120873690E+02  0.91568974359E+02  0.10000000000E+01 0.  0.
         -4    1    1    2    0  502  0.93940547955E+01 -0.34355604876E+02 -0.27769888314E+03  0.27997649624E+03  0.12700000000E+01 0. -1.
<mgrwt>
<rscale>  1 0.12997963E+03</rscale>
<asrwt>0</asrwt>
<pdfrwt beam="2">  1       21 0.12030850E+00 0.12997963E+03</pdfrwt>
<pdfrwt beam="1">  1       -4 0.14665832E-02 0.12997963E+03</pdfrwt>
<totfact> 0.35315711E+04</totfact>
</mgrwt>
</event>
<event>
 6    4  0.3189516E-003  0.1571544E+03  0.7818608E-02  0.1191947E+00
         -4   -1    0    0    0  501 -0.00000000000E+00  0.00000000000E+00  0.45922281435E+02  0.45939839270E+02  0.12700000000E+01 0.  1.
         21   -1    0    0  501  502  0.00000000000E+00 -0.00000000000E+00 -0.40725732386E+03  0.40725732386E+03  0.00000000000E+00 0.  1.
         25    2    1    2    0    0 -0.58317815588E+02  0.75311402160E+02 -0.13333209663E+03  0.20609448993E+03  0.12499886351E+03 0.  0.
    9000005    1    3    3    0    0 -0.65717860642E+02 -0.14070948931E+02 -0.62847449895E+02  0.92019730327E+02  0.10000000000E+01 0.  0.
    9000005    1    3    3    0    0  0.74000450541E+01  0.89382351091E+02 -0.70484646730E+02  0.11407475960E+03  0.10000000000E+01 0.  0.
         -4    1    1    2    0  502  0.58317815588E+02 -0.75311402160E+02 -0.22800294580E+03  0.24710267320E+03  0.12700000000E+01 0. -1.
<mgrwt>
<rscale>  1 0.15715435E+03</rscale>
<asrwt>0</asrwt>
<pdfrwt beam="2">  1       21 0.62654973E-01 0.15715435E+03</pdfrwt>
<pdfrwt beam="1">  1       -4 0.70664693E-02 0.15715435E+03</pdfrwt>
<totfact> 0.13319020E+04</totfact>
</mgrwt>
</event>
<event>
 6    4  0.3189516E-003  0.1350498E+03  0.7818608E-02  0.1220149E+00
         21   -1    0    0  501  502  0.00000000000E+00  0.00000000000E+00  0.14752242195E+02  0.14752242195E+02  0.00000000000E+00 0. -1.
          4   -1    0    0  502    0 -0.00000000000E+00 -0.00000000000E+00 -0.75687098183E+03  0.75687204734E+03  0.12700000000E+01 0.  1.
         25    2    1    2    0    0 -0.50838775463E+02 -0.52851943524E+01 -0.66842215777E+03  0.68192861823E+03  0.12500377996E+03 0.  0.
    9000005    1    3    3    0    0 -0.51282567532E+01 -0.20204556911E+02 -0.12667919003E+02  0.24413097083E+02  0.10000000000E+01 0.  0.
    9000005    1    3    3    0    0 -0.45710518709E+02  0.14919362559E+02 -0.65575423876E+03  0.65751552115E+03  0.10000000000E+01 0.  0.
          4    1    1    2  501    0  0.50838775463E+02  0.52851943524E+01 -0.73696581872E+02  0.89695671297E+02  0.12700000000E+01 0. -1.
<mgrwt>
<rscale>  1 0.13504984E+03</rscale>
<asrwt>0</asrwt>
<pdfrwt beam="1">  1       21 0.22695753E-02 0.13504984E+03</pdfrwt>
<pdfrwt beam="2">  1        4 0.11644600E+00 0.13504984E+03</pdfrwt>
<totfact> 0.24234781E+04</totfact>
</mgrwt>
</event>
<event>
 6    4  0.3189516E-003  0.1789314E+03  0.7818608E-02  0.1168841E+00
         21   -1    0    0  501  502  0.00000000000E+00  0.00000000000E+00  0.62577328169E+02  0.62577328169E+02  0.00000000000E+00 0.  1.
         -4   -1    0    0    0  501 -0.00000000000E+00 -0.00000000000E+00 -0.38072906994E+03  0.38073118811E+03  0.12700000000E+01 0. -1.
         25    2    1    2    0    0  0.12455861356E+03 -0.29591786548E+02 -0.20838022332E+03  0.27466118838E+03  0.12500371549E+03 0.  0.
    9000005    1    3    3    0    0  0.67277086037E+02 -0.24427926270E+01 -0.12114319904E+02  0.68410015994E+02  0.10000000000E+01 0.  0.
    9000005    1    3    3    0    0  0.57281527525E+02 -0.27148993921E+02 -0.19626590342E+03  0.20625117239E+03  0.10000000000E+01 0.  0.
         -4    1    1    2    0  502 -0.12455861356E+03  0.29591786548E+02 -0.10977151845E+03  0.16864732790E+03  0.12700000000E+01 0.  1.
<mgrwt>
<rscale>  1 0.17893141E+03</rscale>
<asrwt>0</asrwt>
<pdfrwt beam="1">  1       21 0.96272812E-02 0.17893141E+03</pdfrwt>
<pdfrwt beam="2">  1       -4 0.58574857E-01 0.17893141E+03</pdfrwt>
<totfact> 0.10131568E+04</totfact>
</mgrwt>
</event>
<event>
 6    4  0.3189516E-003  0.1266282E+03  0.7818608E-02  0.1232546E+00
         21   -1    0    0  501  502  0.00000000000E+00  0.00000000000E+00  0.17922066673E+02  0.17922066673E+02  0.00000000000E+00 0. -1.
         -4   -1    0    0    0  501 -0.00000000000E+00 -0.00000000000E+00 -0.39536733856E+03  0.39536937830E+03  0.12700000000E+01 0. -1.
         25    2    1    2    0    0 -0.13676418705E+02 -0.14936797340E+02 -0.37097749597E+03  0.39199361953E+03  0.12499817157E+03 0.  0.
    9000005    1    3    3    0    0  0.38667330507E+02 -0.43981606494E+02 -0.25303476154E+03  0.25972511374E+03  0.10000000000E+01 0.  0.
    9000005    1    3    3    0    0 -0.52343749212E+02  0.29044809154E+02 -0.11794273443E+03  0.13226850579E+03  0.10000000000E+01 0.  0.
         -4    1    1    2    0  502  0.13676418705E+02  0.14936797340E+02 -0.64677759201E+01  0.21297825446E+02  0.12700000000E+01 0.  1.
<mgrwt>
<rscale>  1 0.12662818E+03</rscale>
<asrwt>0</asrwt>
<pdfrwt beam="1">  1       21 0.27572413E-02 0.12662818E+03</pdfrwt>
<pdfrwt beam="2">  1       -4 0.60829356E-01 0.12662818E+03</pdfrwt>
<totfact> 0.74719337E+04</totfact>
</mgrwt>
</event>
<event>
 6    4  0.3189516E-003  0.1271818E+03  0.7818608E-02  0.1231698E+00
         21   -1    0    0  501  502  0.00000000000E+00  0.00000000000E+00  0.22101080755E+02  0.22101080755E+02  0.00000000000E+00 0. -1.
          4   -1    0    0  502    0 -0.00000000000E+00 -0.00000000000E+00 -0.26018974255E+03  0.26019284200E+03  0.12700000000E+01 0. -1.
         25    2    1    2    0    0 -0.21942266176E+02 -0.81727539736E+01 -0.21193498660E+03  0.24716722951E+03  0.12500777513E+03 0.  0.
    9000005    1    3    3    0    0  0.40051271003E+02  0.17217470371E+02 -0.14898244534E+03  0.15523309767E+03  0.10000000000E+01 0.  0.
    9000005    1    3    3    0    0 -0.61993537178E+02 -0.25390224344E+02 -0.62952541267E+02  0.91934131834E+02  0.10000000000E+01 0.  0.
          4    1    1    2  501    0  0.21942266176E+02  0.81727539736E+01 -0.26153675190E+02  0.35126693246E+02  0.12700000000E+01 0.  1.
<mgrwt>
<rscale>  1 0.12718176E+03</rscale>
<asrwt>0</asrwt>
<pdfrwt beam="1">  1       21 0.34001665E-02 0.12718176E+03</pdfrwt>
<pdfrwt beam="2">  1        4 0.40032233E-01 0.12718176E+03</pdfrwt>
<totfact> 0.12399459E+05</totfact>
</mgrwt>
</event>
<event>
 6    4  0.3189516E-003  0.1381941E+03  0.7818608E-02  0.1215780E+00
          4   -1    0    0  502    0 -0.00000000000E+00  0.00000000000E+00  0.25087029021E+03  0.25087350479E+03  0.12700000000E+01 0.  1.
         21   -1    0    0  501  502  0.00000000000E+00 -0.00000000000E+00 -0.56607428891E+02  0.56607428891E+02  0.00000000000E+00 0. -1.
         25    2    1    2    0    0  0.49270518479E+02  0.32328193998E+02  0.20533403469E+03  0.24750694017E+03  0.12499969404E+03 0.  0.
    9000005    1    3    3    0    0 -0.24241040625E+02 -0.59682589734E+01 -0.11431613888E+01  0.25011097211E+02  0.10000000000E+01 0.  0.
    9000005    1    3    3    0    0  0.73511559104E+02  0.38296452972E+02  0.20647719608E+03  0.22249584296E+03  0.10000000000E+01 0.  0.
          4    1    1    2  501    0 -0.49270518479E+02 -0.32328193998E+02 -0.11071173377E+02  0.59973993517E+02  0.12700000000E+01 0. -1.
<mgrwt>
<rscale>  1 0.13819414E+03</rscale>
<asrwt>0</asrwt>
<pdfrwt beam="2">  1       21 0.87088354E-02 0.13819414E+03</pdfrwt>
<pdfrwt beam="1">  1        4 0.38596772E-01 0.13819414E+03</pdfrwt>
<totfact> 0.27489616E+04</totfact>
</mgrwt>
</event>
<event>
 6    4  0.3189516E-003  0.1281366E+03  0.7818608E-02  0.1230247E+00
         21   -1    0    0  501  502  0.00000000000E+00  0.00000000000E+00  0.64683796813E+03  0.64683796813E+03  0.00000000000E+00 0.  1.
          4   -1    0    0  502    0 -0.00000000000E+00 -0.00000000000E+00 -0.10270297296E+02  0.10348521950E+02  0.12700000000E+01 0.  1.
         25    2    1    2    0    0  0.14934904243E+02 -0.23874069248E+02  0.42943394960E+03  0.44814339902E+03  0.12500386582E+03 0.  0.
    9000005    1    3    3    0    0 -0.25027920481E+02 -0.65041369678E+02  0.26376010490E+03  0.27281343352E+03  0.10000000000E+01 0.  0.
    9000005    1    3    3    0    0  0.39962824724E+02  0.41167300430E+02  0.16567384470E+03  0.17532996550E+03  0.10000000000E+01 0.  0.
          4    1    1    2  501    0 -0.14934904243E+02  0.23874069248E+02  0.20713372124E+03  0.20904309106E+03  0.12700000000E+01 0. -1.
<mgrwt>
<rscale>  1 0.12813660E+03</rscale>
<asrwt>0</asrwt>
<pdfrwt beam="1">  1       21 0.99513502E-01 0.12813660E+03</pdfrwt>
<pdfrwt beam="2">  1        4 0.15861594E-02 0.12813660E+03</pdfrwt>
<totfact> 0.49239289E+04</totfact>
</mgrwt>
</event>
<event>
 6    4  0.3189516E-003  0.1357059E+03  0.7818608E-02  0.1219227E+00
         21   -1    0    0  501  502  0.00000000000E+00  0.00000000000E+00  0.54782684249E+02  0.54782684249E+02  0.00000000000E+00 0.  1.
         -4   -1    0    0    0  501 -0.00000000000E+00 -0.00000000000E+00 -0.18561182256E+03  0.18561616733E+03  0.12700000000E+01 0. -1.
         25    2    1    2    0    0 -0.22380034163E+02  0.47854542680E+02 -0.12943600006E+03  0.18753603933E+03  0.12500065901E+03 0.  0.
    9000005    1    3    3    0    0  0.48327726902E+02  0.43007157006E+02 -0.57763929806E+02  0.86734401064E+02  0.10000000000E+01 0.  0.
    9000005    1    3    3    0    0 -0.70707761065E+02  0.48473856741E+01 -0.71672070255E+02  0.10080163827E+03  0.10000000000E+01 0.  0.
         -4    1    1    2    0  502  0.22380034163E+02 -0.47854542680E+02 -0.13931382483E+01  0.52862812245E+02  0.12700000000E+01 0.  1.
<mgrwt>
<rscale>  1 0.13570589E+03</rscale>
<asrwt>0</asrwt>
<pdfrwt beam="1">  1       21 0.84281052E-02 0.13570589E+03</pdfrwt>
<pdfrwt beam="2">  1       -4 0.28557132E-01 0.13570589E+03</pdfrwt>
<totfact> 0.51728259E+04</totfact>
</mgrwt>
</event>
<event>
 6    4  0.3189516E-003  0.1310617E+03  0.7818608E-02  0.1225889E+00
         -4   -1    0    0    0  501 -0.00000000000E+00  0.00000000000E+00  0.10065498271E+03  0.10066299441E+03  0.12700000000E+01 0.  1.
         21   -1    0    0  501  502  0.00000000000E+00 -0.00000000000E+00 -0.84893721308E+02  0.84893721308E+02  0.00000000000E+00 0. -1.
         25    2    1    2    0    0 -0.37579573520E+02  0.11867199996E+02  0.42655787051E+02  0.13782849355E+03  0.12499649068E+03 0.  0.
    9000005    1    3    3    0    0 -0.71153659964E+02  0.44412865259E+02  0.32564230560E+02  0.89982081765E+02  0.10000000000E+01 0.  0.
    9000005    1    3    3    0    0  0.33574086444E+02 -0.32545665263E+02  0.10091556492E+02  0.47846411782E+02  0.10000000000E+01 0.  0.
         -4    1    1    2    0  502  0.37579573520E+02 -0.11867199996E+02 -0.26894525651E+02  0.47728222172E+02  0.12700000000E+01 0. -1.
<mgrwt>
<rscale>  1 0.13106173E+03</rscale>
<asrwt>0</asrwt>
<pdfrwt beam="2">  1       21 0.13060573E-01 0.13106173E+03</pdfrwt>
<pdfrwt beam="1">  1       -4 0.15486729E-01 0.13106173E+03</pdfrwt>
<totfact> 0.72220292E+04</totfact>
</mgrwt>
</event>
<event>
 6    4  0.3189516E-003  0.1277367E+03  0.7818608E-02  0.1230853E+00
         -4   -1    0    0    0  501 -0.00000000000E+00  0.00000000000E+00  0.92563021195E+02  0.92571733228E+02  0.12700000000E+01 0.  1.
         21   -1    0    0  501  502  0.00000000000E+00 -0.00000000000E+00 -0.64380924895E+02  0.64380924895E+02  0.00000000000E+00 0.  1.
         25    2    1    2    0    0  0.17473790707E+02  0.19570756451E+02  0.19083239457E+02  0.12915427749E+03  0.12501323729E+03 0.  0.
    9000005    1    3    3    0    0  0.64628052960E+02 -0.18377587977E+02  0.95902709652E+01  0.67878525812E+02  0.10000000000E+01 0.  0.
    9000005    1    3    3    0    0 -0.47154262253E+02  0.37948344428E+02  0.94929684922E+01  0.61275751682E+02  0.10000000000E+01 0.  0.
         -4    1    1    2    0  502 -0.17473790707E+02 -0.19570756451E+02  0.90988568430E+01  0.27798380629E+02  0.12700000000E+01 0. -1.
<mgrwt>
<rscale>  1 0.12773667E+03</rscale>
<asrwt>0</asrwt>
<pdfrwt beam="2">  1       21 0.99047577E-02 0.12773667E+03</pdfrwt>
<pdfrwt beam="1">  1       -4 0.14242098E-01 0.12773667E+03</pdfrwt>
<totfact> 0.13567865E+05</totfact>
</mgrwt>
</event>
<event>
 6    4  0.3189516E-003  0.1364951E+03  0.7818608E-02  0.1218124E+00
         21   -1    0    0  501  502  0.00000000000E+00  0.00000000000E+00  0.35040600483E+02  0.35040600483E+02  0.00000000000E+00 0. -1.
          4   -1    0    0  502    0 -0.00000000000E+00 -0.00000000000E+00 -0.44241383049E+03  0.44241565333E+03  0.12700000000E+01 0.  1.
         25    2    1    2    0    0  0.49532053441E+00 -0.54823349170E+02 -0.39934971079E+03  0.42203211902E+03  0.12500029207E+03 0.  0.
    9000005    1    3    3    0    0  0.17719329559E+02 -0.86916809709E+02 -0.34760250707E+03  0.35874365412E+03  0.10000000000E+01 0.  0.
    9000005    1    3    3    0    0 -0.17224009024E+02  0.32093460539E+02 -0.51747203725E+02  0.63288464902E+02  0.10000000000E+01 0.  0.
          4    1    1    2  501    0 -0.49532053441E+00  0.54823349170E+02 -0.80235192125E+01  0.55424134790E+02  0.12700000000E+01 0. -1.
<mgrwt>
<rscale>  1 0.13649512E+03</rscale>
<asrwt>0</asrwt>
<pdfrwt beam="1">  1       21 0.53908623E-02 0.13649512E+03</pdfrwt>
<pdfrwt beam="2">  1        4 0.68065568E-01 0.13649512E+03</pdfrwt>
<totfact> 0.19521487E+04</totfact>
</mgrwt>
</event>
<event>
 6    4  0.3189516E-003  0.1461914E+03  0.7818608E-02  0.1205233E+00
         21   -1    0    0  501  502  0.00000000000E+00  0.00000000000E+00  0.14774434897E+03  0.14774434897E+03  0.00000000000E+00 0.  1.
         -4   -1    0    0    0  501 -0.00000000000E+00 -0.00000000000E+00 -0.89461816807E+02  0.89470830813E+02  0.12700000000E+01 0.  1.
         25    2    1    2    0    0 -0.53570530472E+02 -0.53636826322E+02  0.67158983214E+02  0.16087963658E+03  0.12500087027E+03 0.  0.
    9000005    1    3    3    0    0 -0.43709187129E+00 -0.24510041893E+02 -0.34615819417E+02  0.42428624263E+02  0.10000000000E+01 0.  0.
    9000005    1    3    3    0    0 -0.53133438601E+02 -0.29126784430E+02  0.10177480263E+03  0.11845101232E+03  0.10000000000E+01 0.  0.
         -4    1    1    2    0  502  0.53570530472E+02  0.53636826322E+02 -0.88764510482E+01  0.76335543204E+02  0.12700000000E+01 0. -1.
<mgrwt>
<rscale>  1 0.14619141E+03</rscale>
<asrwt>0</asrwt>
<pdfrwt beam="1">  1       21 0.22729900E-01 0.14619141E+03</pdfrwt>
<pdfrwt beam="2">  1       -4 0.13764470E-01 0.14619141E+03</pdfrwt>
<totfact> 0.32608692E+04</totfact>
</mgrwt>
</event>
<event>
 6    4  0.3189516E-003  0.1268221E+03  0.7818608E-02  0.1232249E+00
         21   -1    0    0  501  502  0.00000000000E+00  0.00000000000E+00  0.20184387503E+03  0.20184387503E+03  0.00000000000E+00 0.  1.
         -4   -1    0    0    0  501 -0.00000000000E+00 -0.00000000000E+00 -0.31275678752E+02  0.31301453343E+02  0.12700000000E+01 0.  1.
         25    2    1    2    0    0  0.16597154094E+02 -0.13504973482E+02  0.16948697511E+03  0.21168299457E+03  0.12500402245E+03 0.  0.
    9000005    1    3    3    0    0 -0.22992430508E+02 -0.11633587625E+02  0.17008829359E+03  0.17203203143E+03  0.10000000000E+01 0.  0.
    9000005    1    3    3    0    0  0.39589584602E+02 -0.18713858572E+01 -0.60131848553E+00  0.39650963139E+02  0.10000000000E+01 0.  0.
         -4    1    1    2    0  502 -0.16597154094E+02  0.13504973482E+02  0.10812211655E+01  0.21462333796E+02  0.12700000000E+01 0. -1.
<mgrwt>
<rscale>  1 0.12682214E+03</rscale>
<asrwt>0</asrwt>
<pdfrwt beam="1">  1       21 0.31052903E-01 0.12682214E+03</pdfrwt>
<pdfrwt beam="2">  1       -4 0.48139330E-02 0.12682214E+03</pdfrwt>
<totfact> 0.10144056E+05</totfact>
</mgrwt>
</event>
<event>
 6    4  0.3189516E-003  0.1269137E+03  0.7818608E-02  0.1232108E+00
         21   -1    0    0  501  502  0.00000000000E+00  0.00000000000E+00  0.16217205568E+03  0.16217205568E+03  0.00000000000E+00 0.  1.
          4   -1    0    0  502    0 -0.00000000000E+00 -0.00000000000E+00 -0.45393246481E+02  0.45411008865E+02  0.12700000000E+01 0. -1.
         25    2    1    2    0    0  0.10176845578E+02  0.19457356982E+02  0.48527018105E+02  0.13587478877E+03  0.12499971925E+03 0.  0.
    9000005    1    3    3    0    0 -0.31488139024E+02 -0.21024293023E+02  0.65222858257E+02  0.75422443845E+02  0.10000000000E+01 0.  0.
    9000005    1    3    3    0    0  0.41664984602E+02  0.40481650005E+02 -0.16695840152E+02  0.60452344929E+02  0.10000000000E+01 0.  0.
          4    1    1    2  501    0 -0.10176845578E+02 -0.19457356982E+02  0.68251791097E+02  0.71708275775E+02  0.12700000000E+01 0.  1.
<mgrwt>
<rscale>  1 0.12691370E+03</rscale>
<asrwt>0</asrwt>
<pdfrwt beam="1">  1       21 0.24949547E-01 0.12691370E+03</pdfrwt>
<pdfrwt beam="2">  1        4 0.69853253E-02 0.12691370E+03</pdfrwt>
<totfact> 0.84340123E+04</totfact>
</mgrwt>
</event>
<event>
 6    4  0.3189516E-003  0.1420786E+03  0.7818608E-02  0.1210559E+00
         -4   -1    0    0    0  501 -0.00000000000E+00  0.00000000000E+00  0.84859567582E+02  0.84869070397E+02  0.12700000000E+01 0. -1.
         21   -1    0    0  501  502  0.00000000000E+00 -0.00000000000E+00 -0.13751113889E+03  0.13751113889E+03  0.00000000000E+00 0.  1.
         25    2    1    2    0    0 -0.50836203254E+02  0.44415548855E+02 -0.98092410771E+01  0.14241685080E+03  0.12501710939E+03 0.  0.
    9000005    1    3    3    0    0  0.32251325507E+02 -0.17449369491E+02 -0.12595426935E+02  0.38784961935E+02  0.10000000000E+01 0.  0.
    9000005    1    3    3    0    0 -0.83087528762E+02  0.61864918346E+02  0.27861858583E+01  0.10363188886E+03  0.10000000000E+01 0.  0.
         -4    1    1    2    0  502  0.50836203254E+02 -0.44415548855E+02 -0.42842330232E+02  0.79963358491E+02  0.12700000000E+01 0.  1.
<mgrwt>
<rscale>  1 0.14207863E+03</rscale>
<asrwt>0</asrwt>
<pdfrwt beam="2">  1       21 0.21155560E-01 0.14207863E+03</pdfrwt>
<pdfrwt beam="1">  1       -4 0.13056500E-01 0.14207863E+03</pdfrwt>
<totfact> 0.40739299E+04</totfact>
</mgrwt>
</event>
<event>
 6    4  0.3189516E-003  0.1294357E+03  0.7818608E-02  0.1228295E+00
         21   -1    0    0  501  502  0.00000000000E+00  0.00000000000E+00  0.23155677926E+03  0.23155677926E+03  0.00000000000E+00 0. -1.
         -4   -1    0    0    0  501 -0.00000000000E+00 -0.00000000000E+00 -0.12161765672E+03  0.12162428757E+03  0.12700000000E+01 0.  1.
         25    2    1    2    0    0 -0.28072022768E+02  0.18482937753E+02 -0.85333120092E+02  0.15503334645E+03  0.12499575863E+03 0.  0.
    9000005    1    3    3    0    0  0.36144950255E+02 -0.19622620689E+02  0.65319298991E+00  0.41145246782E+02  0.10000000000E+01 0.  0.
    9000005    1    3    3    0    0 -0.64216973023E+02  0.38105558443E+02 -0.85986313082E+02  0.11388809967E+03  0.10000000000E+01 0.  0.
         -4    1    1    2    0  502  0.28072022768E+02 -0.18482937753E+02  0.19527224263E+03  0.19814772038E+03  0.12700000000E+01 0. -1.
<mgrwt>
<rscale>  1 0.12943569E+03</rscale>
<asrwt>0</asrwt>
<pdfrwt beam="1">  1       21 0.35624120E-01 0.12943569E+03</pdfrwt>
<pdfrwt beam="2">  1       -4 0.18711187E-01 0.12943569E+03</pdfrwt>
<totfact> 0.79302285E+03</totfact>
</mgrwt>
</event>
<event>
 6    4  0.3189516E-003  0.1326184E+03  0.7818608E-02  0.1223621E+00
         -4   -1    0    0    0  501 -0.00000000000E+00  0.00000000000E+00  0.28985678896E+03  0.28985957118E+03  0.12700000000E+01 0.  1.
         21   -1    0    0  501  502  0.00000000000E+00 -0.00000000000E+00 -0.54677344026E+02  0.54677344026E+02  0.00000000000E+00 0. -1.
         25    2    1    2    0    0 -0.42970141158E+02 -0.10836123618E+02  0.26133769283E+03  0.29306147020E+03  0.12499512397E+03 0.  0.
    9000005    1    3    3    0    0 -0.16710801279E+02 -0.51696093693E+02  0.42748220519E+02  0.69138609619E+02  0.10000000000E+01 0.  0.
    9000005    1    3    3    0    0 -0.26259339878E+02  0.40859970075E+02  0.21858947231E+03  0.22392286058E+03  0.10000000000E+01 0.  0.
         -4    1    1    2    0  502  0.42970141158E+02  0.10836123618E+02 -0.26158247895E+02  0.51475445011E+02  0.12700000000E+01 0. -1.
<mgrwt>
<rscale>  1 0.13261838E+03</rscale>
<asrwt>0</asrwt>
<pdfrwt beam="2">  1       21 0.84118993E-02 0.13261838E+03</pdfrwt>
<pdfrwt beam="1">  1       -4 0.44594700E-01 0.13261838E+03</pdfrwt>
<totfact> 0.21841402E+04</totfact>
</mgrwt>
</event>
<event>
 6    4  0.3189516E-003  0.1378415E+03  0.7818608E-02  0.1216263E+00
          4   -1    0    0  502    0 -0.00000000000E+00  0.00000000000E+00  0.79181174777E+02  0.79191358993E+02  0.12700000000E+01 0.  1.
         21   -1    0    0  501  502  0.00000000000E+00 -0.00000000000E+00 -0.14148612716E+03  0.14148612716E+03  0.00000000000E+00 0. -1.
         25    2    1    2    0    0 -0.35004523904E+02 -0.46373277103E+02 -0.33327821581E+01  0.13788179010E+03  0.12499793231E+03 0.  0.
    9000005    1    3    3    0    0 -0.46982505054E+02 -0.71825827405E+02 -0.37453913194E+02  0.93648816742E+02  0.10000000000E+01 0.  0.
    9000005    1    3    3    0    0  0.11977981150E+02  0.25452550303E+02  0.34121131035E+02  0.44232973362E+02  0.10000000000E+01 0.  0.
          4    1    1    2  501    0  0.35004523904E+02  0.46373277103E+02 -0.58972170221E+02  0.82795696045E+02  0.12700000000E+01 0. -1.
<mgrwt>
<rscale>  1 0.13784151E+03</rscale>
<asrwt>0</asrwt>
<pdfrwt beam="2">  1       21 0.21767096E-01 0.13784151E+03</pdfrwt>
<pdfrwt beam="1">  1        4 0.12182941E-01 0.13784151E+03</pdfrwt>
<totfact> 0.43370538E+04</totfact>
</mgrwt>
</event>
<event>
 6    4  0.3189516E-003  0.1281600E+03  0.7818608E-02  0.1230212E+00
         -4   -1    0    0    0  501 -0.00000000000E+00  0.00000000000E+00  0.21005462449E+03  0.21005846369E+03  0.12700000000E+01 0. -1.
         21   -1    0    0  501  502  0.00000000000E+00 -0.00000000000E+00 -0.66965429777E+02  0.66965429777E+02  0.00000000000E+00 0.  1.
         25    2    1    2    0    0 -0.70610015319E+01 -0.27387893651E+02  0.18584098633E+03  0.22574735842E+03  0.12500017269E+03 0.  0.
    9000005    1    3    3    0    0 -0.52509883835E+02 -0.52701967040E+02  0.90750532459E+02  0.11735179748E+03  0.10000000000E+01 0.  0.
    9000005    1    3    3    0    0  0.45448882303E+02  0.25314073389E+02  0.95090453866E+02  0.10839556094E+03  0.10000000000E+01 0.  0.
         -4    1    1    2    0  502  0.70610015319E+01  0.27387893651E+02 -0.42751791612E+02  0.51276535056E+02  0.12700000000E+01 0.  1.
<mgrwt>
<rscale>  1 0.12816005E+03</rscale>
<asrwt>0</asrwt>
<pdfrwt beam="2">  1       21 0.10302374E-01 0.12816005E+03</pdfrwt>
<pdfrwt beam="1">  1       -4 0.32317318E-01 0.12816005E+03</pdfrwt>
<totfact> 0.28654463E+04</totfact>
</mgrwt>
</event>
<event>
 6    4  0.3189516E-003  0.1310384E+03  0.7818608E-02  0.1225923E+00
         21   -1    0    0  501  502  0.00000000000E+00  0.00000000000E+00  0.80475009121E+02  0.80475009121E+02  0.00000000000E+00 0. -1.
          4   -1    0    0  502    0 -0.00000000000E+00 -0.00000000000E+00 -0.90953014337E+02  0.90961880571E+02  0.12700000000E+01 0. -1.
         25    2    1    2    0    0 -0.14262684942E+01 -0.39290091326E+02 -0.13042634653E+01  0.13104486132E+03  0.12500123622E+03 0.  0.
    9000005    1    3    3    0    0 -0.19832671998E+02 -0.82077130490E+02 -0.13469969637E+01  0.84455933059E+02  0.10000000000E+01 0.  0.
    9000005    1    3    3    0    0  0.18406403503E+02  0.42787039164E+02  0.42733498425E-01  0.46588928261E+02  0.10000000000E+01 0.  0.
          4    1    1    2  501    0  0.14262684942E+01  0.39290091326E+02 -0.91737417504E+01  0.40392028371E+02  0.12700000000E+01 0.  1.
<mgrwt>
<rscale>  1 0.13103837E+03</rscale>
<asrwt>0</asrwt>
<pdfrwt beam="1">  1       21 0.12380771E-01 0.13103837E+03</pdfrwt>
<pdfrwt beam="2">  1        4 0.13994224E-01 0.13103837E+03</pdfrwt>
<totfact> 0.94759113E+04</totfact>
</mgrwt>
</event>
<event>
 6    4  0.3189516E-003  0.1265963E+03  0.7818608E-02  0.1232595E+00
         -4   -1    0    0    0  501 -0.00000000000E+00  0.00000000000E+00  0.22090412870E+02  0.22126889541E+02  0.12700000000E+01 0. -1.
         21   -1    0    0  501  502  0.00000000000E+00 -0.00000000000E+00 -0.25369889578E+03  0.25369889578E+03  0.00000000000E+00 0. -1.
         25    2    1    2    0    0 -0.43408554886E+01  0.19601078055E+02 -0.17686751955E+03  0.21750570939E+03  0.12499427530E+03 0.  0.
    9000005    1    3    3    0    0 -0.17293638780E+02  0.20987484421E+02  0.10877684430E+02  0.29306457703E+02  0.10000000000E+01 0.  0.
    9000005    1    3    3    0    0  0.12952783291E+02 -0.13864063657E+01 -0.18774520398E+03  0.18819925168E+03  0.10000000000E+01 0.  0.
         -4    1    1    2    0  502  0.43408554886E+01 -0.19601078055E+02 -0.54740963362E+02  0.58320075935E+02  0.12700000000E+01 0.  1.
<mgrwt>
<rscale>  1 0.12659626E+03</rscale>
<asrwt>0</asrwt>
<pdfrwt beam="2">  1       21 0.39030601E-01 0.12659626E+03</pdfrwt>
<pdfrwt beam="1">  1       -4 0.34015753E-02 0.12659626E+03</pdfrwt>
<totfact> 0.11236058E+05</totfact>
</mgrwt>
</event>
<event>
 6    4  0.3189516E-003  0.1334266E+03  0.7818608E-02  0.1222458E+00
          4   -1    0    0  502    0 -0.00000000000E+00  0.00000000000E+00  0.50477843953E+02  0.50493817742E+02  0.12700000000E+01 0.  1.
         21   -1    0    0  501  502  0.00000000000E+00 -0.00000000000E+00 -0.16479152489E+03  0.16479152489E+03  0.00000000000E+00 0.  1.
         25    2    1    2    0    0 -0.46520700484E+02 -0.39504786688E+01 -0.69006326013E+02  0.15021498713E+03  0.12499154961E+03 0.  0.
    9000005    1    3    3    0    0 -0.10135263326E+02 -0.59528942414E+02 -0.97190117629E+01  0.61170889623E+02  0.10000000000E+01 0.  0.
    9000005    1    3    3    0    0 -0.36385437158E+02  0.55578463746E+02 -0.59287314250E+02  0.89044097505E+02  0.10000000000E+01 0.  0.
          4    1    1    2  501    0  0.46520700484E+02  0.39504786688E+01 -0.45307354925E+02  0.65070355505E+02  0.12700000000E+01 0. -1.
<mgrwt>
<rscale>  1 0.13342664E+03</rscale>
<asrwt>0</asrwt>
<pdfrwt beam="2">  1       21 0.25352542E-01 0.13342664E+03</pdfrwt>
<pdfrwt beam="1">  1        4 0.77674273E-02 0.13342664E+03</pdfrwt>
<totfact> 0.69150271E+04</totfact>
</mgrwt>
</event>
<event>
 6    4  0.3189516E-003  0.1280519E+03  0.7818608E-02  0.1230375E+00
          4   -1    0    0  502    0 -0.00000000000E+00  0.00000000000E+00  0.40935307673E+02  0.40955003531E+02  0.12700000000E+01 0.  1.
         21   -1    0    0  501  502  0.00000000000E+00 -0.00000000000E+00 -0.26315815152E+03  0.26315815152E+03  0.00000000000E+00 0.  1.
         25    2    1    2    0    0 -0.27167247337E+02 -0.58833332456E+01 -0.63430289333E+02  0.14290099296E+03  0.12499847697E+03 0.  0.
    9000005    1    3    3    0    0 -0.44064129631E+02  0.21780239868E+02 -0.88950565099E+02  0.10163281655E+03  0.10000000000E+01 0.  0.
    9000005    1    3    3    0    0  0.16896882294E+02 -0.27663573114E+02  0.25520275766E+02  0.41268176406E+02  0.10000000000E+01 0.  0.
          4    1    1    2  501    0  0.27167247337E+02  0.58833332456E+01 -0.15879255451E+03  0.16121216209E+03  0.12700000000E+01 0. -1.
<mgrwt>
<rscale>  1 0.12805191E+03</rscale>
<asrwt>0</asrwt>
<pdfrwt beam="2">  1       21 0.40485868E-01 0.12805191E+03</pdfrwt>
<pdfrwt beam="1">  1        4 0.62994907E-02 0.12805191E+03</pdfrwt>
<totfact> 0.39035297E+04</totfact>
</mgrwt>
</event>
<event>
 6    4  0.3189516E-003  0.1277601E+03  0.7818608E-02  0.1230818E+00
          4   -1    0    0  502    0 -0.00000000000E+00  0.00000000000E+00  0.26958250975E+03  0.26958550121E+03  0.12700000000E+01 0. -1.
         21   -1    0    0  501  502  0.00000000000E+00 -0.00000000000E+00 -0.22129657689E+02  0.22129657689E+02  0.00000000000E+00 0. -1.
         25    2    1    2    0    0  0.19799253357E+02  0.17474912790E+02  0.19805554839E+03  0.23568758069E+03  0.12500100972E+03 0.  0.
    9000005    1    3    3    0    0 -0.41644928557E+02  0.35810648006E+02  0.49760530223E+02  0.74120260073E+02  0.10000000000E+01 0.  0.
    9000005    1    3    3    0    0  0.61444181914E+02 -0.18335735216E+02  0.14829501817E+03  0.16156732062E+03  0.10000000000E+01 0.  0.
          4    1    1    2  501    0 -0.19799253357E+02 -0.17474912790E+02  0.49397303668E+02  0.56027578211E+02  0.12700000000E+01 0.  1.
<mgrwt>
<rscale>  1 0.12776007E+03</rscale>
<asrwt>0</asrwt>
<pdfrwt beam="2">  1       21 0.34045629E-02 0.12776007E+03</pdfrwt>
<pdfrwt beam="1">  1        4 0.41477263E-01 0.12776007E+03</pdfrwt>
<totfact> 0.11546006E+05</totfact>
</mgrwt>
</event>
<event>
 6    4  0.3189516E-003  0.1269894E+03  0.7818608E-02  0.1231993E+00
         -4   -1    0    0    0  501 -0.00000000000E+00  0.00000000000E+00  0.16081870201E+03  0.16082371658E+03  0.12700000000E+01 0. -1.
         21   -1    0    0  501  502  0.00000000000E+00 -0.00000000000E+00 -0.67363395301E+02  0.67363395301E+02  0.00000000000E+00 0.  1.
         25    2    1    2    0    0  0.68281297177E+01 -0.21340445556E+02  0.13226332941E+03  0.18335728366E+03  0.12499706874E+03 0.  0.
    9000005    1    3    3    0    0  0.35171654562E+02  0.18120041265E+02  0.12868158059E+03  0.13463034711E+03  0.10000000000E+01 0.  0.
    9000005    1    3    3    0    0 -0.28343524845E+02 -0.39460486821E+02  0.35817488196E+01  0.48726936548E+02  0.10000000000E+01 0.  0.
         -4    1    1    2    0  502 -0.68281297177E+01  0.21340445556E+02 -0.38808022706E+02  0.44829828221E+02  0.12700000000E+01 0.  1.
<mgrwt>
<rscale>  1 0.12698939E+03</rscale>
<asrwt>0</asrwt>
<pdfrwt beam="2">  1       21 0.10363599E-01 0.12698939E+03</pdfrwt>
<pdfrwt beam="1">  1       -4 0.24742645E-01 0.12698939E+03</pdfrwt>
<totfact> 0.46715491E+04</totfact>
</mgrwt>
</event>
<event>
 6    4  0.3189516E-003  0.1298202E+03  0.7818608E-02  0.1227723E+00
          4   -1    0    0  502    0 -0.00000000000E+00  0.00000000000E+00  0.13182192629E+03  0.13182804387E+03  0.12700000000E+01 0.  1.
         21   -1    0    0  501  502  0.00000000000E+00 -0.00000000000E+00 -0.10667322687E+03  0.10667322687E+03  0.00000000000E+00 0. -1.
         25    2    1    2    0    0  0.12943659941E+02  0.32577634940E+02  0.94642386848E+02  0.16065638573E+03  0.12499780900E+03 0.  0.
    9000005    1    3    3    0    0 -0.40933247182E+02  0.54059264627E+02  0.70502299383E+02  0.97823867410E+02  0.10000000000E+01 0.  0.
    9000005    1    3    3    0    0  0.53876907123E+02 -0.21481629687E+02  0.24140087465E+02  0.62832518316E+02  0.10000000000E+01 0.  0.
          4    1    1    2  501    0 -0.12943659941E+02 -0.32577634940E+02 -0.69493687429E+02  0.77844885017E+02  0.12700000000E+01 0. -1.
<mgrwt>
<rscale>  1 0.12982023E+03</rscale>
<asrwt>0</asrwt>
<pdfrwt beam="2">  1       21 0.16411266E-01 0.12982023E+03</pdfrwt>
<pdfrwt beam="1">  1        4 0.20281349E-01 0.12982023E+03</pdfrwt>
<totfact> 0.29633944E+04</totfact>
</mgrwt>
</event>
<event>
 6    4  0.3189516E-003  0.1276917E+03  0.7818608E-02  0.1230922E+00
         21   -1    0    0  501  502  0.00000000000E+00  0.00000000000E+00  0.23023648331E+03  0.23023648331E+03  0.00000000000E+00 0.  1.
         -4   -1    0    0    0  501 -0.00000000000E+00 -0.00000000000E+00 -0.33190007829E+02  0.33214296917E+02  0.12700000000E+01 0.  1.
         25    2    1    2    0    0 -0.10228797388E+02 -0.23982178120E+02  0.97835240559E+02  0.16086298759E+03  0.12500157326E+03 0.  0.
    9000005    1    3    3    0    0  0.38437162969E+02 -0.57037608879E+02  0.55289367942E+02  0.88253150262E+02  0.10000000000E+01 0.  0.
    9000005    1    3    3    0    0 -0.48665960357E+02  0.33055430759E+02  0.42545872617E+02  0.72609837328E+02  0.10000000000E+01 0.  0.
         -4    1    1    2    0  502  0.10228797388E+02  0.23982178120E+02  0.99211234925E+02  0.10258779264E+03  0.12700000000E+01 0. -1.
<mgrwt>
<rscale>  1 0.12769169E+03</rscale>
<asrwt>0</asrwt>
<pdfrwt beam="1">  1       21 0.35420996E-01 0.12769169E+03</pdfrwt>
<pdfrwt beam="2">  1       -4 0.51082930E-02 0.12769169E+03</pdfrwt>
<totfact> 0.71402291E+04</totfact>
</mgrwt>
</event>
<event>
 6    4  0.3189516E-003  0.1270859E+03  0.7818608E-02  0.1231845E+00
         21   -1    0    0  501  502  0.00000000000E+00  0.00000000000E+00  0.11563169820E+02  0.11563169820E+02  0.00000000000E+00 0.  1.
          4   -1    0    0  502    0 -0.00000000000E+00 -0.00000000000E+00 -0.56009827184E+03  0.56009971167E+03  0.12700000000E+01 0.  1.
         25    2    1    2    0    0 -0.18968796598E+02  0.13024461914E+02 -0.51826346349E+03  0.53361768664E+03  0.12498546335E+03 0.  0.
    9000005    1    3    3    0    0 -0.35988679971E+02  0.62092052601E+02 -0.23824143071E+03  0.24881838234E+03  0.10000000000E+01 0.  0.
    9000005    1    3    3    0    0  0.17019883373E+02 -0.49067590687E+02 -0.28002203278E+03  0.28479930430E+03  0.10000000000E+01 0.  0.
          4    1    1    2  501    0  0.18968796598E+02 -0.13024461914E+02 -0.30271638524E+02  0.38045194854E+02  0.12700000000E+01 0. -1.
<mgrwt>
<rscale>  1 0.12708587E+03</rscale>
<asrwt>0</asrwt>
<pdfrwt beam="1">  1       21 0.17789491E-02 0.12708587E+03</pdfrwt>
<pdfrwt beam="2">  1        4 0.86174445E-01 0.12708587E+03</pdfrwt>
<totfact> 0.71427043E+04</totfact>
</mgrwt>
</event>
<event>
 6    4  0.3189516E-003  0.1299594E+03  0.7818608E-02  0.1227516E+00
          4   -1    0    0  502    0 -0.00000000000E+00  0.00000000000E+00  0.12911409602E+04  0.12911415848E+04  0.12700000000E+01 0.  1.
         21   -1    0    0  501  502  0.00000000000E+00 -0.00000000000E+00 -0.19712860813E+02  0.19712860813E+02  0.00000000000E+00 0. -1.
         25    2    1    2    0    0  0.33141138466E+02  0.12877319167E+02  0.12685181537E+04  0.12751579319E+04  0.12500113813E+03 0.  0.
    9000005    1    3    3    0    0  0.32446603010E+01 -0.41205396690E+02  0.93801592419E+03  0.93892666730E+03  0.10000000000E+01 0.  0.
    9000005    1    3    3    0    0  0.29896478165E+02  0.54082715857E+02  0.33050222953E+03  0.33623126459E+03  0.10000000000E+01 0.  0.
          4    1    1    2  501    0 -0.33141138466E+02 -0.12877319167E+02  0.29099456556E+01  0.35696513716E+02  0.12700000000E+01 0. -1.
<mgrwt>
<rscale>  1 0.12995940E+03</rscale>
<asrwt>0</asrwt>
<pdfrwt beam="2">  1       21 0.30327488E-02 0.12995940E+03</pdfrwt>
<pdfrwt beam="1">  1        4 0.19864020E+00 0.12995940E+03</pdfrwt>
<totfact> 0.38008110E+03</totfact>
</mgrwt>
</event>
<event>
 6    4  0.3189516E-003  0.1269639E+03  0.7818608E-02  0.1232032E+00
          4   -1    0    0  502    0 -0.00000000000E+00  0.00000000000E+00  0.13539358218E+03  0.13539953839E+03  0.12700000000E+01 0.  1.
         21   -1    0    0  501  502  0.00000000000E+00 -0.00000000000E+00 -0.52771665589E+02  0.52771665589E+02  0.00000000000E+00 0.  1.
         25    2    1    2    0    0 -0.10430108118E+02  0.19644628723E+02  0.98601562820E+02  0.16075477484E+03  0.12500052340E+03 0.  0.
    9000005    1    3    3    0    0  0.66807826722E+01 -0.33368922872E+02  0.99363140425E+02  0.10503404946E+03  0.10000000000E+01 0.  0.
    9000005    1    3    3    0    0 -0.17110890790E+02  0.53013551595E+02 -0.76157760544E+00  0.55720725379E+02  0.10000000000E+01 0.  0.
          4    1    1    2  501    0  0.10430108118E+02 -0.19644628723E+02 -0.15979646229E+02  0.27416429137E+02  0.12700000000E+01 0. -1.
<mgrwt>
<rscale>  1 0.12696389E+03</rscale>
<asrwt>0</asrwt>
<pdfrwt beam="2">  1       21 0.81187178E-02 0.12696389E+03</pdfrwt>
<pdfrwt beam="1">  1        4 0.20831415E-01 0.12696389E+03</pdfrwt>
<totfact> 0.97721529E+04</totfact>
</mgrwt>
</event>
<event>
 6    4  0.3189516E-003  0.1340412E+03  0.7818608E-02  0.1221580E+00
         21   -1    0    0  501  502  0.00000000000E+00  0.00000000000E+00  0.69163171798E+02  0.69163171798E+02  0.00000000000E+00 0.  1.
         -4   -1    0    0    0  501 -0.00000000000E+00 -0.00000000000E+00 -0.13461390715E+03  0.13461989785E+03  0.12700000000E+01 0.  1.
         25    2    1    2    0    0  0.19291276478E+02  0.44385857842E+02 -0.76205629191E+02  0.15418933651E+03  0.12499918340E+03 0.  0.
    9000005    1    3    3    0    0  0.79525450458E+00 -0.42888677565E+02 -0.37312021424E+02  0.56861744924E+02  0.10000000000E+01 0.  0.
    9000005    1    3    3    0    0  0.18496021973E+02  0.87274535408E+02 -0.38893607767E+02  0.97327591590E+02  0.10000000000E+01 0.  0.
         -4    1    1    2    0  502 -0.19291276478E+02 -0.44385857842E+02  0.10754893843E+02  0.49593733134E+02  0.12700000000E+01 0. -1.
<mgrwt>
<rscale>  1 0.13404124E+03</rscale>
<asrwt>0</asrwt>
<pdfrwt beam="1">  1       21 0.10640488E-01 0.13404124E+03</pdfrwt>
<pdfrwt beam="2">  1       -4 0.20711189E-01 0.13404124E+03</pdfrwt>
<totfact> 0.62111202E+04</totfact>
</mgrwt>
</event>
<event>
 6    4  0.3189516E-003  0.1268131E+03  0.7818608E-02  0.1232263E+00
         21   -1    0    0  501  502  0.00000000000E+00  0.00000000000E+00  0.54468404850E+03  0.54468404850E+03  0.00000000000E+00 0. -1.
         -4   -1    0    0    0  501 -0.00000000000E+00 -0.00000000000E+00 -0.10308691140E+02  0.10386626643E+02  0.12700000000E+01 0. -1.
         25    2    1    2    0    0 -0.13693281907E+02 -0.16418137519E+02  0.42077663541E+03  0.43947074548E+03  0.12499799206E+03 0.  0.
    9000005    1    3    3    0    0  0.17016500838E+01 -0.43264672645E+02  0.45127765955E+02  0.62547923804E+02  0.10000000000E+01 0.  0.
    9000005    1    3    3    0    0 -0.15394931991E+02  0.26846535127E+02  0.37564886945E+03  0.37692282168E+03  0.10000000000E+01 0.  0.
         -4    1    1    2    0  502  0.13693281907E+02  0.16418137519E+02  0.11359872195E+03  0.11559992966E+03  0.12700000000E+01 0.  1.
<mgrwt>
<rscale>  1 0.12681309E+03</rscale>
<asrwt>0</asrwt>
<pdfrwt beam="1">  1       21 0.83797523E-01 0.12681309E+03</pdfrwt>
<pdfrwt beam="2">  1       -4 0.15920618E-02 0.12681309E+03</pdfrwt>
<totfact> 0.72536679E+04</totfact>
</mgrwt>
</event>
<event>
 6    4  0.3189516E-003  0.1397237E+03  0.7818608E-02  0.1213701E+00
          4   -1    0    0  502    0 -0.00000000000E+00  0.00000000000E+00  0.40264043328E+03  0.40264243617E+03  0.12700000000E+01 0. -1.
         21   -1    0    0  501  502  0.00000000000E+00 -0.00000000000E+00 -0.10115788139E+03  0.10115788139E+03  0.00000000000E+00 0.  1.
         25    2    1    2    0    0  0.59502564637E+02 -0.18918882062E+02  0.37918681673E+03  0.40411057400E+03  0.12499693891E+03 0.  0.
    9000005    1    3    3    0    0 -0.35570593592E+02 -0.31553843709E+01  0.52481218655E+02  0.63486233866E+02  0.10000000000E+01 0.  0.
    9000005    1    3    3    0    0  0.95073158229E+02 -0.15763497691E+02  0.32670559808E+03  0.34062434013E+03  0.10000000000E+01 0.  0.
          4    1    1    2  501    0 -0.59502564637E+02  0.18918882062E+02 -0.77704264845E+02  0.99689743565E+02  0.12700000000E+01 0.  1.
<mgrwt>
<rscale>  1 0.13972371E+03</rscale>
<asrwt>0</asrwt>
<pdfrwt beam="2">  1       21 0.15562751E-01 0.13972371E+03</pdfrwt>
<pdfrwt beam="1">  1        4 0.61945449E-01 0.13972371E+03</pdfrwt>
<totfact> 0.37599728E+03</totfact>
</mgrwt>
</event>
<event>
 6    4  0.3189516E-003  0.1272306E+03  0.7818608E-02  0.1231624E+00
         21   -1    0    0  501  502  0.00000000000E+00  0.00000000000E+00  0.54219911849E+01  0.54219911849E+01  0.00000000000E+00 0. -1.
         -4   -1    0    0    0  501 -0.00000000000E+00 -0.00000000000E+00 -0.11081451394E+04  0.11081458671E+04  0.12700000000E+01 0. -1.
         25    2    1    2    0    0 -0.21091763134E+02  0.10852002513E+02 -0.10038868511E+04  0.10119172068E+04  0.12499998066E+03 0.  0.
    9000005    1    3    3    0    0 -0.41101107538E+02 -0.26713734127E+02 -0.16960214872E+03  0.17654691581E+03  0.10000000000E+01 0.  0.
    9000005    1    3    3    0    0  0.20009344405E+02  0.37565736640E+02 -0.83428470236E+03  0.83537029096E+03  0.10000000000E+01 0.  0.
         -4    1    1    2    0  502  0.21091763134E+02 -0.10852002513E+02 -0.98836297106E+02  0.10165065153E+03  0.12700000000E+01 0.  1.
<mgrwt>
<rscale>  1 0.12723059E+03</rscale>
<asrwt>0</asrwt>
<pdfrwt beam="1">  1       21 0.83415083E-03 0.12723059E+03</pdfrwt>
<pdfrwt beam="2">  1       -4 0.17049570E+00 0.12723059E+03</pdfrwt>
<totfact> 0.45593357E+04</totfact>
</mgrwt>
</event>
<event>
 6    4  0.3189516E-003  0.1911919E+03  0.7818608E-02  0.1157391E+00
         21   -1    0    0  501  502  0.00000000000E+00  0.00000000000E+00  0.38774572298E+03  0.38774572298E+03  0.00000000000E+00 0.  1.
          4   -1    0    0  502    0 -0.00000000000E+00 -0.00000000000E+00 -0.15185496080E+03  0.15186027137E+03  0.12700000000E+01 0. -1.
         25    2    1    2    0    0  0.12500039223E+03 -0.72829211966E+02 -0.68088798334E+02  0.20295427775E+03  0.12500064890E+03 0.  0.
    9000005    1    3    3    0    0  0.11814774583E+03 -0.59187716992E+01 -0.66409277670E+02  0.13566544830E+03  0.10000000000E+01 0.  0.
    9000005    1    3    3    0    0  0.68526464077E+01 -0.66910440266E+02 -0.16795206646E+01  0.67288829453E+02  0.10000000000E+01 0.  0.
          4    1    1    2  501    0 -0.12500039223E+03  0.72829211966E+02  0.30397956051E+03  0.33665171659E+03  0.12700000000E+01 0.  1.
<mgrwt>
<rscale>  1 0.19119193E+03</rscale>
<asrwt>0</asrwt>
<pdfrwt beam="1">  1       21 0.59653188E-01 0.19119193E+03</pdfrwt>
<pdfrwt beam="2">  1        4 0.23362870E-01 0.19119193E+03</pdfrwt>
<totfact> 0.18734818E+03</totfact>
</mgrwt>
</event>
<event>
 6    4  0.3189516E-003  0.1439406E+03  0.7818608E-02  0.1208123E+00
         21   -1    0    0  501  502  0.00000000000E+00  0.00000000000E+00  0.76708590591E+02  0.76708590591E+02  0.00000000000E+00 0.  1.
          4   -1    0    0  502    0 -0.00000000000E+00 -0.00000000000E+00 -0.15110581935E+03  0.15111115625E+03  0.12700000000E+01 0. -1.
         25    2    1    2    0    0 -0.11325106163E+02 -0.70473464357E+02 -0.49587201575E+02  0.15224251775E+03  0.12499650572E+03 0.  0.
    9000005    1    3    3    0    0 -0.51115790224E+01 -0.10055283462E+03 -0.62934737439E+02  0.11873829192E+03  0.10000000000E+01 0.  0.
    9000005    1    3    3    0    0 -0.62135271405E+01  0.30079370265E+02  0.13347535863E+02  0.33504225833E+02  0.10000000000E+01 0.  0.
          4    1    1    2  501    0  0.11325106163E+02  0.70473464357E+02 -0.24810027188E+02  0.75577229091E+02  0.12700000000E+01 0.  1.
<mgrwt>
<rscale>  1 0.14394059E+03</rscale>
<asrwt>0</asrwt>
<pdfrwt beam="1">  1       21 0.11801322E-01 0.14394059E+03</pdfrwt>
<pdfrwt beam="2">  1        4 0.23248268E-01 0.14394059E+03</pdfrwt>
<totfact> 0.42279311E+04</totfact>
</mgrwt>
</event>
<event>
 6    4  0.3189516E-003  0.1283494E+03  0.7818608E-02  0.1229926E+00
         21   -1    0    0  501  502  0.00000000000E+00  0.00000000000E+00  0.26057714759E+02  0.26057714759E+02  0.00000000000E+00 0.  1.
          4   -1    0    0  502    0 -0.00000000000E+00 -0.00000000000E+00 -0.61751552106E+03  0.61751682702E+03  0.12700000000E+01 0. -1.
         25    2    1    2    0    0  0.25980192447E+02  0.13186411422E+02 -0.59969071506E+03  0.61327197534E+03  0.12499884069E+03 0.  0.
    9000005    1    3    3    0    0  0.49792761425E+02 -0.67472786331E+01 -0.56280234325E+03  0.56504187670E+03  0.10000000000E+01 0.  0.
    9000005    1    3    3    0    0 -0.23812568979E+02  0.19933690055E+02 -0.36888371803E+02  0.48230098640E+02  0.10000000000E+01 0.  0.
          4    1    1    2  501    0 -0.25980192447E+02 -0.13186411422E+02  0.82329087546E+01  0.30302566431E+02  0.12700000000E+01 0.  1.
<mgrwt>
<rscale>  1 0.12834937E+03</rscale>
<asrwt>0</asrwt>
<pdfrwt beam="1">  1       21 0.40088790E-02 0.12834937E+03</pdfrwt>
<pdfrwt beam="2">  1        4 0.95004873E-01 0.12834937E+03</pdfrwt>
<totfact> 0.15231104E+04</totfact>
</mgrwt>
</event>
<event>
 6    4  0.3189516E-003  0.1281525E+03  0.7818608E-02  0.1230223E+00
          4   -1    0    0  502    0 -0.00000000000E+00  0.00000000000E+00  0.69863051989E+02  0.69874594333E+02  0.12700000000E+01 0. -1.
         21   -1    0    0  501  502  0.00000000000E+00 -0.00000000000E+00 -0.71398246018E+03  0.71398246018E+03  0.00000000000E+00 0.  1.
         25    2    1    2    0    0  0.12049783041E+02  0.25468417694E+02  0.10544782326E+02  0.12858562006E+03  0.12501692557E+03 0.  0.
    9000005    1    3    3    0    0  0.16042861753E+02  0.27169805607E+02 -0.54717771737E+02  0.63171245784E+02  0.10000000000E+01 0.  0.
    9000005    1    3    3    0    0 -0.39930787127E+01 -0.17013879128E+01  0.65262554064E+02  0.65414374272E+02  0.10000000000E+01 0.  0.
          4    1    1    2  501    0 -0.12049783041E+02 -0.25468417694E+02 -0.65466419052E+03  0.65527143446E+03  0.12700000000E+01 0.  1.
<mgrwt>
<rscale>  1 0.12815252E+03</rscale>
<asrwt>0</asrwt>
<pdfrwt beam="2">  1       21 0.10984346E+00 0.12815252E+03</pdfrwt>
<pdfrwt beam="1">  1        4 0.10749137E-01 0.12815252E+03</pdfrwt>
<totfact> 0.18396652E+03</totfact>
</mgrwt>
</event>
<event>
 6    4  0.3189516E-003  0.1277751E+03  0.7818608E-02  0.1230795E+00
         21   -1    0    0  501  502  0.00000000000E+00  0.00000000000E+00  0.18836605169E+04  0.18836605169E+04  0.00000000000E+00 0. -1.
         -4   -1    0    0    0  501 -0.00000000000E+00 -0.00000000000E+00 -0.43233520789E+01  0.45060263202E+01  0.12700000000E+01 0. -1.
         25    2    1    2    0    0  0.17219180572E+02  0.20113891125E+02  0.96225809495E+03  0.97070444477E+03  0.12500163601E+03 0.  0.
    9000005    1    3    3    0    0  0.21207475241E+02 -0.41837088429E+02  0.68384578216E+03  0.68545324622E+03  0.10000000000E+01 0.  0.
    9000005    1    3    3    0    0 -0.39882946695E+01  0.61950979554E+02  0.27841231279E+03  0.28525119855E+03  0.10000000000E+01 0.  0.
         -4    1    1    2    0  502 -0.17219180572E+02 -0.20113891125E+02  0.91707906990E+03  0.91746209848E+03  0.12700000000E+01 0.  1.
<mgrwt>
<rscale>  1 0.12777511E+03</rscale>
<asrwt>0</asrwt>
<pdfrwt beam="1">  1       21 0.28979328E+00 0.12777511E+03</pdfrwt>
<pdfrwt beam="2">  1       -4 0.67921739E-03 0.12777511E+03</pdfrwt>
<totfact> 0.88158788E+03</totfact>
</mgrwt>
</event>
<event>
 6    4  0.3189516E-003  0.1344833E+03  0.7818608E-02  0.1220951E+00
         21   -1    0    0  501  502  0.00000000000E+00  0.00000000000E+00  0.13877967227E+04  0.13877967227E+04  0.00000000000E+00 0. -1.
          4   -1    0    0  502    0 -0.00000000000E+00 -0.00000000000E+00 -0.62748046319E+01  0.64020366422E+01  0.12700000000E+01 0. -1.
         25    2    1    2    0    0  0.26351233318E+02  0.42031595152E+02  0.11165589289E+04  0.11246286553E+04  0.12499891210E+03 0.  0.
    9000005    1    3    3    0    0  0.25363159716E+01  0.36711538301E+02  0.83189500008E+02  0.90970670300E+02  0.10000000000E+01 0.  0.
    9000005    1    3    3    0    0  0.23814917347E+02  0.53200568516E+01  0.10333694289E+04  0.10336579850E+04  0.10000000000E+01 0.  0.
          4    1    1    2  501    0 -0.26351233318E+02 -0.42031595152E+02  0.26496298911E+03  0.26957010403E+03  0.12700000000E+01 0.  1.
<mgrwt>
<rscale>  1 0.13448335E+03</rscale>
<asrwt>0</asrwt>
<pdfrwt beam="1">  1       21 0.21350695E+00 0.13448335E+03</pdfrwt>
<pdfrwt beam="2">  1        4 0.97518744E-03 0.13448335E+03</pdfrwt>
<totfact> 0.14149801E+04</totfact>
</mgrwt>
</event>
<event>
 6    4  0.3189516E-003  0.1493875E+03  0.7818608E-02  0.1201228E+00
          4   -1    0    0  502    0 -0.00000000000E+00  0.00000000000E+00  0.20167699576E+03  0.20168099445E+03  0.12700000000E+01 0.  1.
         21   -1    0    0  501  502  0.00000000000E+00 -0.00000000000E+00 -0.96692000789E+02  0.96692000789E+02  0.00000000000E+00 0.  1.
         25    2    1    2    0    0 -0.77533792754E+02 -0.26087652437E+02  0.14421360398E+03  0.20763958742E+03  0.12499832024E+03 0.  0.
    9000005    1    3    3    0    0 -0.26199915260E+02 -0.72075270336E+02  0.52635421686E+02  0.93020254621E+02  0.10000000000E+01 0.  0.
    9000005    1    3    3    0    0 -0.51333877494E+02  0.45987617899E+02  0.91578182299E+02  0.11461933280E+03  0.10000000000E+01 0.  0.
          4    1    1    2  501    0  0.77533792754E+02  0.26087652437E+02 -0.39228609009E+02  0.90733407813E+02  0.12700000000E+01 0. -1.
<mgrwt>
<rscale>  1 0.14938753E+03</rscale>
<asrwt>0</asrwt>
<pdfrwt beam="2">  1       21 0.14875692E-01 0.14938753E+03</pdfrwt>
<pdfrwt beam="1">  1        4 0.31028179E-01 0.14938753E+03</pdfrwt>
<totfact> 0.16357943E+04</totfact>
</mgrwt>
</event>
<event>
 6    4  0.3189516E-003  0.1278616E+03  0.7818608E-02  0.1230664E+00
         -4   -1    0    0    0  501 -0.00000000000E+00  0.00000000000E+00  0.17290492366E+03  0.17290958772E+03  0.12700000000E+01 0. -1.
         21   -1    0    0  501  502  0.00000000000E+00 -0.00000000000E+00 -0.62516462204E+02  0.62516462204E+02  0.00000000000E+00 0.  1.
         25    2    1    2    0    0  0.11795169774E+02 -0.24198707033E+02  0.14384974759E+03  0.19246125012E+03  0.12499551778E+03 0.  0.
    9000005    1    3    3    0    0  0.89716445376E+01 -0.33634224689E+02 -0.11593044629E+02  0.36703544242E+02  0.10000000000E+01 0.  0.
    9000005    1    3    3    0    0  0.28235252366E+01  0.94355176561E+01  0.15544279222E+03  0.15575770588E+03  0.10000000000E+01 0.  0.
         -4    1    1    2    0  502 -0.11795169774E+02  0.24198707033E+02 -0.33461286136E+02  0.42964799801E+02  0.12700000000E+01 0.  1.
<mgrwt>
<rscale>  1 0.12786158E+03</rscale>
<asrwt>0</asrwt>
<pdfrwt beam="2">  1       21 0.96179174E-02 0.12786158E+03</pdfrwt>
<pdfrwt beam="1">  1       -4 0.26602108E-01 0.12786158E+03</pdfrwt>
<totfact> 0.46595264E+04</totfact>
</mgrwt>
</event>
<event>
 6    4  0.3189516E-003  0.1971260E+03  0.7818608E-02  0.1152187E+00
         21   -1    0    0  501  502  0.00000000000E+00  0.00000000000E+00  0.47520623600E+02  0.47520623600E+02  0.00000000000E+00 0.  1.
          4   -1    0    0  502    0 -0.00000000000E+00 -0.00000000000E+00 -0.73410235753E+03  0.73410345608E+03  0.12700000000E+01 0. -1.
         25    2    1    2    0    0 -0.85898690711E+02 -0.12591547370E+03 -0.51855167332E+03  0.55475626409E+03  0.12500153223E+03 0.  0.
    9000005    1    3    3    0    0 -0.51207444202E+02  0.12858919188E+02 -0.11338965844E+03  0.12508304755E+03  0.10000000000E+01 0.  0.
    9000005    1    3    3    0    0 -0.34691246509E+02 -0.13877439289E+03 -0.40516201488E+03  0.42967321654E+03  0.10000000000E+01 0.  0.
          4    1    1    2  501    0  0.85898690711E+02  0.12591547370E+03 -0.16803006061E+03  0.22686781559E+03  0.12700000000E+01 0.  1.
<mgrwt>
<rscale>  1 0.19712604E+03</rscale>
<asrwt>0</asrwt>
<pdfrwt beam="1">  1       21 0.73108654E-02 0.19712604E+03</pdfrwt>
<pdfrwt beam="2">  1        4 0.11294021E+00 0.19712604E+03</pdfrwt>
<totfact> 0.37875005E+03</totfact>
</mgrwt>
</event>
<event>
 6    4  0.3189516E-003  0.1342471E+03  0.7818608E-02  0.1221286E+00
         -4   -1    0    0    0  501 -0.00000000000E+00  0.00000000000E+00  0.24400214378E+03  0.24400544885E+03  0.12700000000E+01 0. -1.
         21   -1    0    0  501  502  0.00000000000E+00 -0.00000000000E+00 -0.62671329933E+02  0.62671329933E+02  0.00000000000E+00 0.  1.
         25    2    1    2    0    0  0.48089909165E+02 -0.92153238046E+01  0.21050223425E+03  0.24966672507E+03  0.12499888568E+03 0.  0.
    9000005    1    3    3    0    0 -0.26326086300E+02 -0.44363895627E+02  0.89945213737E+02  0.10369358480E+03  0.10000000000E+01 0.  0.
    9000005    1    3    3    0    0  0.74415995464E+02  0.35148571822E+02  0.12055702052E+03  0.14597314026E+03  0.10000000000E+01 0.  0.
         -4    1    1    2    0  502 -0.48089909165E+02  0.92153238046E+01 -0.29171420408E+02  0.57010053718E+02  0.12700000000E+01 0.  1.
<mgrwt>
<rscale>  1 0.13424710E+03</rscale>
<asrwt>0</asrwt>
<pdfrwt beam="2">  1       21 0.96417432E-02 0.13424710E+03</pdfrwt>
<pdfrwt beam="1">  1       -4 0.37540035E-01 0.13424710E+03</pdfrwt>
<totfact> 0.24233504E+04</totfact>
</mgrwt>
</event>
<event>
 6    4  0.3189516E-003  0.1283873E+03  0.7818608E-02  0.1229868E+00
          4   -1    0    0  502    0 -0.00000000000E+00  0.00000000000E+00  0.10088413536E+04  0.10088421530E+04  0.12700000000E+01 0. -1.
         21   -1    0    0  501  502  0.00000000000E+00 -0.00000000000E+00 -0.98655741507E+01  0.98655741507E+01  0.00000000000E+00 0.  1.
         25    2    1    2    0    0 -0.19867957213E+02 -0.21530430190E+02  0.96634589732E+03  0.97483726718E+03  0.12500003628E+03 0.  0.
    9000005    1    3    3    0    0  0.37068495530E+02 -0.13823761394E+02  0.74831799005E+03  0.74936371941E+03  0.10000000000E+01 0.  0.
    9000005    1    3    3    0    0 -0.56936452743E+02 -0.77066687962E+01  0.21802790727E+03  0.22547354777E+03  0.10000000000E+01 0.  0.
          4    1    1    2  501    0  0.19867957213E+02  0.21530430190E+02  0.32629882103E+02  0.43870459925E+02  0.12700000000E+01 0.  1.
<mgrwt>
<rscale>  1 0.12838732E+03</rscale>
<asrwt>0</asrwt>
<pdfrwt beam="2">  1       21 0.15177814E-02 0.12838732E+03</pdfrwt>
<pdfrwt beam="1">  1        4 0.15521263E+00 0.12838732E+03</pdfrwt>
<totfact> 0.22639412E+04</totfact>
</mgrwt>
</event>
<event>
 6    4  0.3189516E-003  0.1352941E+03  0.7818608E-02  0.1219805E+00
         21   -1    0    0  501  502  0.00000000000E+00  0.00000000000E+00  0.42427331456E+03  0.42427331456E+03  0.00000000000E+00 0. -1.
         -4   -1    0    0    0  501 -0.00000000000E+00 -0.00000000000E+00 -0.23938805203E+02  0.23972469513E+02  0.12700000000E+01 0.  1.
         25    2    1    2    0    0  0.51450723288E+02  0.56671110533E+01  0.20096965234E+03  0.24226701772E+03  0.12500085455E+03 0.  0.
    9000005    1    3    3    0    0  0.84497216722E+02  0.16423852052E+02  0.84143200139E+02  0.12037691091E+03  0.10000000000E+01 0.  0.
    9000005    1    3    3    0    0 -0.33046493435E+02 -0.10756740999E+02  0.11682645220E+03  0.12189010681E+03  0.10000000000E+01 0.  0.
         -4    1    1    2    0  502 -0.51450723288E+02 -0.56671110533E+01  0.19936485702E+03  0.20597876635E+03  0.12700000000E+01 0. -1.
<mgrwt>
<rscale>  1 0.13529415E+03</rscale>
<asrwt>0</asrwt>
<pdfrwt beam="1">  1       21 0.65272812E-01 0.13529415E+03</pdfrwt>
<pdfrwt beam="2">  1       -4 0.36856292E-02 0.13529415E+03</pdfrwt>
<totfact> 0.34418443E+04</totfact>
</mgrwt>
</event>
<event>
 6    4  0.3189516E-003  0.1289204E+03  0.7818608E-02  0.1229067E+00
          4   -1    0    0  502    0 -0.00000000000E+00  0.00000000000E+00  0.34866292116E+03  0.34866523413E+03  0.12700000000E+01 0. -1.
         21   -1    0    0  501  502  0.00000000000E+00 -0.00000000000E+00 -0.19054746226E+02  0.19054746226E+02  0.00000000000E+00 0.  1.
         25    2    1    2    0    0 -0.63471646009E+01  0.30912655545E+02  0.28751350370E+03  0.31509438756E+03  0.12499831794E+03 0.  0.
    9000005    1    3    3    0    0 -0.56485793654E+02 -0.17565947963E+02  0.13368368621E+03  0.14619006592E+03  0.10000000000E+01 0.  0.
    9000005    1    3    3    0    0  0.50138629053E+02  0.48478603508E+02  0.15382981749E+03  0.16890432164E+03  0.10000000000E+01 0.  0.
          4    1    1    2  501    0  0.63471646009E+01 -0.30912655545E+02  0.42094671236E+02  0.52625592803E+02  0.12700000000E+01 0.  1.
<mgrwt>
<rscale>  1 0.12892036E+03</rscale>
<asrwt>0</asrwt>
<pdfrwt beam="2">  1       21 0.29314997E-02 0.12892036E+03</pdfrwt>
<pdfrwt beam="1">  1        4 0.53643878E-01 0.12892036E+03</pdfrwt>
<totfact> 0.88019144E+04</totfact>
</mgrwt>
</event>
<event>
 6    4  0.3189516E-003  0.1278218E+03  0.7818608E-02  0.1230724E+00
          4   -1    0    0  502    0 -0.00000000000E+00  0.00000000000E+00  0.17607792570E+02  0.17653533901E+02  0.12700000000E+01 0.  1.
         21   -1    0    0  501  502  0.00000000000E+00 -0.00000000000E+00 -0.33888546782E+03  0.33888546782E+03  0.00000000000E+00 0.  1.
         25    2    1    2    0    0 -0.25013450939E+02  0.94091268293E+01 -0.26791718882E+03  0.29684680116E+03  0.12499679556E+03 0.  0.
    9000005    1    3    3    0    0  0.27656343137E+02  0.47919899957E+02 -0.75091119266E+02  0.93278434379E+02  0.10000000000E+01 0.  0.
    9000005    1    3    3    0    0 -0.52669794076E+02 -0.38510773128E+02 -0.19282606956E+03  0.20356836678E+03  0.10000000000E+01 0.  0.
          4    1    1    2  501    0  0.25013450939E+02 -0.94091268293E+01 -0.53360486431E+02  0.59692200561E+02  0.12700000000E+01 0. -1.
<mgrwt>
<rscale>  1 0.12782176E+03</rscale>
<asrwt>0</asrwt>
<pdfrwt beam="2">  1       21 0.52136222E-01 0.12782176E+03</pdfrwt>
<pdfrwt beam="1">  1        4 0.27125930E-02 0.12782176E+03</pdfrwt>
<totfact> 0.89015532E+04</totfact>
</mgrwt>
</event>
<event>
 6    4  0.3189516E-003  0.1309158E+03  0.7818608E-02  0.1226103E+00
         -4   -1    0    0    0  501 -0.00000000000E+00  0.00000000000E+00  0.79164268854E+02  0.79174455244E+02  0.12700000000E+01 0.  1.
         21   -1    0    0  501  502  0.00000000000E+00 -0.00000000000E+00 -0.24681081390E+03  0.24681081390E+03  0.00000000000E+00 0. -1.
         25    2    1    2    0    0 -0.32170555165E+02  0.21888290592E+02  0.21678791643E+02  0.13269859630E+03  0.12499962228E+03 0.  0.
    9000005    1    3    3    0    0 -0.93492372646E+01 -0.51979149439E+02  0.15900947213E+02  0.55164121819E+02  0.10000000000E+01 0.  0.
    9000005    1    3    3    0    0 -0.22821317900E+02  0.73867440031E+02  0.57778444301E+01  0.77534474485E+02  0.10000000000E+01 0.  0.
         -4    1    1    2    0  502  0.32170555165E+02 -0.21888290592E+02 -0.18932533669E+03  0.19328667284E+03  0.12700000000E+01 0. -1.
<mgrwt>
<rscale>  1 0.13091580E+03</rscale>
<asrwt>0</asrwt>
<pdfrwt beam="2">  1       21 0.37970895E-01 0.13091580E+03</pdfrwt>
<pdfrwt beam="1">  1       -4 0.12180153E-01 0.13091580E+03</pdfrwt>
<totfact> 0.14808025E+04</totfact>
</mgrwt>
</event>
<event>
 6    4  0.3189516E-003  0.1333588E+03  0.7818608E-02  0.1222555E+00
         21   -1    0    0  501  502  0.00000000000E+00  0.00000000000E+00  0.58589635979E+03  0.58589635979E+03  0.00000000000E+00 0.  1.
          4   -1    0    0  502    0 -0.00000000000E+00 -0.00000000000E+00 -0.13948777867E+02  0.14006473646E+02  0.12700000000E+01 0.  1.
         25    2    1    2    0    0  0.36263519496E+02 -0.29056319726E+02  0.45198884990E+03  0.47125205477E+03  0.12500106452E+03 0.  0.
    9000005    1    3    3    0    0  0.30261481447E+02 -0.70490419094E+02  0.38251273205E+03  0.39013029442E+03  0.10000000000E+01 0.  0.
    9000005    1    3    3    0    0  0.60020380495E+01  0.41434099368E+02  0.69476117849E+02  0.81121760351E+02  0.10000000000E+01 0.  0.
          4    1    1    2  501    0 -0.36263519496E+02  0.29056319726E+02  0.11995873202E+03  0.12865077866E+03  0.12700000000E+01 0. -1.
<mgrwt>
<rscale>  1 0.13335883E+03</rscale>
<asrwt>0</asrwt>
<pdfrwt beam="1">  1       21 0.90137882E-01 0.13335883E+03</pdfrwt>
<pdfrwt beam="2">  1        4 0.21505103E-02 0.13335883E+03</pdfrwt>
<totfact> 0.38942137E+04</totfact>
</mgrwt>
</event>
<event>
 6    4  0.3189516E-003  0.1271199E+03  0.7818608E-02  0.1231793E+00
         21   -1    0    0  501  502  0.00000000000E+00  0.00000000000E+00  0.18400266939E+02  0.18400266939E+02  0.00000000000E+00 0. -1.
         -4   -1    0    0    0  501 -0.00000000000E+00 -0.00000000000E+00 -0.36995638012E+03  0.36995855997E+03  0.12700000000E+01 0. -1.
         25    2    1    2    0    0  0.14119117332E+02  0.18327334523E+02 -0.33890162232E+03  0.36195826434E+03  0.12499693935E+03 0.  0.
    9000005    1    3    3    0    0 -0.55609648639E+02  0.32936416979E+01 -0.14285797151E+03  0.15333845285E+03  0.10000000000E+01 0.  0.
    9000005    1    3    3    0    0  0.69728765971E+02  0.15033692825E+02 -0.19604365081E+03  0.20861981149E+03  0.10000000000E+01 0.  0.
         -4    1    1    2    0  502 -0.14119117332E+02 -0.18327334523E+02 -0.12654490863E+02  0.26400562568E+02  0.12700000000E+01 0.  1.
<mgrwt>
<rscale>  1 0.12711993E+03</rscale>
<asrwt>0</asrwt>
<pdfrwt beam="1">  1       21 0.28308103E-02 0.12711993E+03</pdfrwt>
<pdfrwt beam="2">  1       -4 0.56919906E-01 0.12711993E+03</pdfrwt>
<totfact> 0.82277277E+04</totfact>
</mgrwt>
</event>
<event>
 6    4  0.3189516E-003  0.1267428E+03  0.7818608E-02  0.1232371E+00
          4   -1    0    0  502    0 -0.00000000000E+00  0.00000000000E+00  0.99697340061E+02  0.99705428715E+02  0.12700000000E+01 0. -1.
         21   -1    0    0  501  502  0.00000000000E+00 -0.00000000000E+00 -0.70603930150E+02  0.70603930150E+02  0.00000000000E+00 0. -1.
         25    2    1    2    0    0 -0.47255851629E+01 -0.20402303004E+02  0.53979724449E+02  0.13775898753E+03  0.12500057148E+03 0.  0.
    9000005    1    3    3    0    0 -0.60883070249E+02  0.11764427243E+02  0.26307809682E+02  0.67366540965E+02  0.10000000000E+01 0.  0.
    9000005    1    3    3    0    0  0.56157485086E+02 -0.32166730247E+02  0.27671914767E+02  0.70392446561E+02  0.10000000000E+01 0.  0.
          4    1    1    2  501    0  0.47255851629E+01  0.20402303004E+02 -0.24886314538E+02  0.32550371339E+02  0.12700000000E+01 0.  1.
<mgrwt>
<rscale>  1 0.12674276E+03</rscale>
<asrwt>0</asrwt>
<pdfrwt beam="2">  1       21 0.10862143E-01 0.12674276E+03</pdfrwt>
<pdfrwt beam="1">  1        4 0.15339553E-01 0.12674276E+03</pdfrwt>
<totfact> 0.10130532E+05</totfact>
</mgrwt>
</event>
<event>
 6    4  0.3189516E-003  0.1382832E+03  0.7818608E-02  0.1215658E+00
          4   -1    0    0  502    0 -0.00000000000E+00  0.00000000000E+00  0.12504455065E+02  0.12568782617E+02  0.12700000000E+01 0. -1.
         21   -1    0    0  501  502  0.00000000000E+00 -0.00000000000E+00 -0.82183274273E+03  0.82183274273E+03  0.00000000000E+00 0. -1.
         25    2    1    2    0    0  0.54449686844E+02  0.23071913394E+02 -0.46862037084E+03  0.48859727571E+03  0.12500065709E+03 0.  0.
    9000005    1    3    3    0    0 -0.39621583224E+02 -0.35089179748E+01 -0.15943304736E+03  0.16432309318E+03  0.10000000000E+01 0.  0.
    9000005    1    3    3    0    0  0.94071270067E+02  0.26580831369E+02 -0.30918732348E+03  0.32427418252E+03  0.10000000000E+01 0.  0.
          4    1    1    2  501    0 -0.54449686844E+02 -0.23071913394E+02 -0.34070791682E+03  0.34580424964E+03  0.12700000000E+01 0.  1.
<mgrwt>
<rscale>  1 0.13828321E+03</rscale>
<asrwt>0</asrwt>
<pdfrwt beam="2">  1       21 0.12643578E+00 0.13828321E+03</pdfrwt>
<pdfrwt beam="1">  1        4 0.19287864E-02 0.13828321E+03</pdfrwt>
<totfact> 0.20641426E+04</totfact>
</mgrwt>
</event>
<event>
 6    4  0.3189516E-003  0.1349227E+03  0.7818608E-02  0.1220329E+00
         21   -1    0    0  501  502  0.00000000000E+00  0.00000000000E+00  0.22206029002E+02  0.22206029002E+02  0.00000000000E+00 0.  1.
          4   -1    0    0  502    0 -0.00000000000E+00 -0.00000000000E+00 -0.39024233289E+03  0.39024439942E+03  0.12700000000E+01 0. -1.
         25    2    1    2    0    0 -0.22352869813E+02 -0.45549701986E+02 -0.25341360790E+03  0.28709333259E+03  0.12501879383E+03 0.  0.
    9000005    1    3    3    0    0 -0.45388679188E+02  0.14330492182E+02 -0.34032736158E+02  0.58521127254E+02  0.10000000000E+01 0.  0.
    9000005    1    3    3    0    0  0.23035809375E+02 -0.59880194168E+02 -0.21938087174E+03  0.22857220534E+03  0.10000000000E+01 0.  0.
          4    1    1    2  501    0  0.22352869813E+02  0.45549701986E+02 -0.11462269599E+03  0.12535709583E+03  0.12700000000E+01 0.  1.
<mgrwt>
<rscale>  1 0.13492266E+03</rscale>
<asrwt>0</asrwt>
<pdfrwt beam="1">  1       21 0.34163124E-02 0.13492266E+03</pdfrwt>
<pdfrwt beam="2">  1        4 0.60040230E-01 0.13492266E+03</pdfrwt>
<totfact> 0.54485135E+04</totfact>
</mgrwt>
</event>
<event>
 6    4  0.3189516E-003  0.1274831E+03  0.7818608E-02  0.1231239E+00
         21   -1    0    0  501  502  0.00000000000E+00  0.00000000000E+00  0.53523634911E+02  0.53523634911E+02  0.00000000000E+00 0. -1.
          4   -1    0    0  502    0 -0.00000000000E+00 -0.00000000000E+00 -0.13799313748E+03  0.13799898149E+03  0.12700000000E+01 0. -1.
         25    2    1    2    0    0  0.24247037452E+02 -0.63689306495E+01 -0.99982894557E+02  0.16201396794E+03  0.12499385785E+03 0.  0.
    9000005    1    3    3    0    0 -0.46526758852E+02  0.18354596611E+02 -0.24798427817E+02  0.55835405686E+02  0.10000000000E+01 0.  0.
    9000005    1    3    3    0    0  0.70773796304E+02 -0.24723527261E+02 -0.75184466740E+02  0.10617856225E+03  0.10000000000E+01 0.  0.
          4    1    1    2  501    0 -0.24247037452E+02  0.63689306495E+01  0.15513391988E+02  0.29508648458E+02  0.12700000000E+01 0.  1.
<mgrwt>
<rscale>  1 0.12748312E+03</rscale>
<asrwt>0</asrwt>
<pdfrwt beam="1">  1       21 0.82344053E-02 0.12748312E+03</pdfrwt>
<pdfrwt beam="2">  1        4 0.21231322E-01 0.12748312E+03</pdfrwt>
<totfact> 0.92197869E+04</totfact>
</mgrwt>
</event>
<event>
 6    4  0.3189516E-003  0.1290766E+03  0.7818608E-02  0.1228832E+00
         21   -1    0    0  501  502  0.00000000000E+00  0.00000000000E+00  0.31737048427E+03  0.31737048427E+03  0.00000000000E+00 0.  1.
          4   -1    0    0  502    0 -0.00000000000E+00 -0.00000000000E+00 -0.35279074543E+02  0.35301926302E+02  0.12700000000E+01 0. -1.
         25    2    1    2    0    0 -0.13686202531E+02 -0.29126566876E+02  0.88695424423E+02  0.15661300868E+03  0.12500034855E+03 0.  0.
    9000005    1    3    3    0    0  0.55024852456E+02 -0.21831680101E+02  0.32473422875E+02  0.67526882329E+02  0.10000000000E+01 0.  0.
    9000005    1    3    3    0    0 -0.68711054987E+02 -0.72948867746E+01  0.56222001547E+02  0.89086126353E+02  0.10000000000E+01 0.  0.
          4    1    1    2  501    0  0.13686202531E+02  0.29126566876E+02  0.19339598531E+03  0.19605940189E+03  0.12700000000E+01 0.  1.
<mgrwt>
<rscale>  1 0.12907655E+03</rscale>
<asrwt>0</asrwt>
<pdfrwt beam="1">  1       21 0.48826226E-01 0.12907655E+03</pdfrwt>
<pdfrwt beam="2">  1        4 0.54295034E-02 0.12907655E+03</pdfrwt>
<totfact> 0.33994686E+04</totfact>
</mgrwt>
</event>
<event>
 6    4  0.3189516E-003  0.1467404E+03  0.7818608E-02  0.1204537E+00
         -4   -1    0    0    0  501 -0.00000000000E+00  0.00000000000E+00  0.74654789376E+03  0.74654897400E+03  0.12700000000E+01 0. -1.
         21   -1    0    0  501  502  0.00000000000E+00 -0.00000000000E+00 -0.17456842562E+02  0.17456842562E+02  0.00000000000E+00 0.  1.
         25    2    1    2    0    0 -0.61536579200E+02  0.46062026659E+02  0.40034256347E+03  0.42638821932E+03  0.12499713826E+03 0.  0.
    9000005    1    3    3    0    0 -0.61165395289E+02  0.77067258550E+02  0.19195670145E+03  0.21570568642E+03  0.10000000000E+01 0.  0.
    9000005    1    3    3    0    0 -0.37118391169E+00 -0.31005231891E+02  0.20838586202E+03  0.21068253290E+03  0.10000000000E+01 0.  0.
         -4    1    1    2    0  502  0.61536579200E+02 -0.46062026659E+02  0.32874848773E+03  0.33761759724E+03  0.12700000000E+01 0.  1.
<mgrwt>
<rscale>  1 0.14674040E+03</rscale>
<asrwt>0</asrwt>
<pdfrwt beam="2">  1       21 0.26856687E-02 0.14674040E+03</pdfrwt>
<pdfrwt beam="1">  1       -4 0.11485713E+00 0.14674040E+03</pdfrwt>
<totfact> 0.19196799E+04</totfact>
</mgrwt>
</event>
<event>
 6    4  0.3189516E-003  0.1269400E+03  0.7818608E-02  0.1232068E+00
         -4   -1    0    0    0  501 -0.00000000000E+00  0.00000000000E+00  0.29210600103E+02  0.29238195197E+02  0.12700000000E+01 0. -1.
         21   -1    0    0  501  502  0.00000000000E+00 -0.00000000000E+00 -0.19177957466E+03  0.19177957466E+03  0.00000000000E+00 0. -1.
         25    2    1    2    0    0 -0.81086128533E+01  0.20556631148E+02 -0.13053091960E+03  0.18207711563E+03  0.12500172149E+03 0.  0.
    9000005    1    3    3    0    0  0.39061433146E+02  0.14676787049E+01  0.29590975195E+01  0.39213593285E+02  0.10000000000E+01 0.  0.
    9000005    1    3    3    0    0 -0.47170046000E+02  0.19088952443E+02 -0.13349001712E+03  0.14286352234E+03  0.10000000000E+01 0.  0.
         -4    1    1    2    0  502  0.81086128533E+01 -0.20556631148E+02 -0.32038054960E+02  0.38940654234E+02  0.12700000000E+01 0.  1.
<mgrwt>
<rscale>  1 0.12693997E+03</rscale>
<asrwt>0</asrwt>
<pdfrwt beam="2">  1       21 0.29504549E-01 0.12693997E+03</pdfrwt>
<pdfrwt beam="1">  1       -4 0.44963848E-02 0.12693997E+03</pdfrwt>
<totfact> 0.12489014E+05</totfact>
</mgrwt>
</event>
<event>
 6    4  0.3189516E-003  0.1392864E+03  0.7818608E-02  0.1214292E+00
         -4   -1    0    0    0  501 -0.00000000000E+00  0.00000000000E+00  0.16146041462E+04  0.16146046457E+04  0.12700000000E+01 0.  1.
         21   -1    0    0  501  502  0.00000000000E+00 -0.00000000000E+00 -0.86462349764E+01  0.86462349764E+01  0.00000000000E+00 0.  1.
         25    2    1    2    0    0 -0.57517292677E+02  0.21579012947E+02  0.62327853459E+03  0.63865235184E+03  0.12500720812E+03 0.  0.
    9000005    1    3    3    0    0 -0.50889192841E+02  0.73207014017E+01  0.62053244675E+03  0.62265947362E+03  0.10000000000E+01 0.  0.
    9000005    1    3    3    0    0 -0.66280998365E+01  0.14258311545E+02  0.27460878375E+01  0.15992878227E+02  0.10000000000E+01 0.  0.
         -4    1    1    2    0  502  0.57517292677E+02 -0.21579012947E+02  0.98267937664E+03  0.98459852881E+03  0.12700000000E+01 0. -1.
<mgrwt>
<rscale>  1 0.13928638E+03</rscale>
<asrwt>0</asrwt>
<pdfrwt beam="2">  1       21 0.13301913E-02 0.13928638E+03</pdfrwt>
<pdfrwt beam="1">  1       -4 0.24840761E+00 0.13928638E+03</pdfrwt>
<totfact> 0.73070164E+03</totfact>
</mgrwt>
</event>
<event>
 6    4  0.3189516E-003  0.1268432E+03  0.7818608E-02  0.1232216E+00
         21   -1    0    0  501  502  0.00000000000E+00  0.00000000000E+00  0.13011057456E+03  0.13011057456E+03  0.00000000000E+00 0.  1.
          4   -1    0    0  502    0 -0.00000000000E+00 -0.00000000000E+00 -0.71120745780E+02  0.71132084043E+02  0.12700000000E+01 0.  1.
         25    2    1    2    0    0  0.82270751057E+01 -0.19918786155E+02 -0.11650514354E+02  0.12737714713E+03  0.12499904128E+03 0.  0.
    9000005    1    3    3    0    0  0.61820566746E+02 -0.30844728164E+02  0.73063830902E+01  0.69480666103E+02  0.10000000000E+01 0.  0.
    9000005    1    3    3    0    0 -0.53593491640E+02  0.10925942009E+02 -0.18956897444E+02  0.57896481030E+02  0.10000000000E+01 0.  0.
          4    1    1    2  501    0 -0.82270751057E+01  0.19918786155E+02  0.70640343135E+02  0.73865511471E+02  0.12700000000E+01 0. -1.
<mgrwt>
<rscale>  1 0.12684322E+03</rscale>
<asrwt>0</asrwt>
<pdfrwt beam="1">  1       21 0.20017012E-01 0.12684322E+03</pdfrwt>
<pdfrwt beam="2">  1        4 0.10943002E-01 0.12684322E+03</pdfrwt>
<totfact> 0.60252139E+04</totfact>
</mgrwt>
</event>
<event>
 6    4  0.3189516E-003  0.1273417E+03  0.7818608E-02  0.1231454E+00
         -4   -1    0    0    0  501 -0.00000000000E+00  0.00000000000E+00  0.20319937863E+02  0.20359586803E+02  0.12700000000E+01 0. -1.
         21   -1    0    0  501  502  0.00000000000E+00 -0.00000000000E+00 -0.40832745438E+03  0.40832745438E+03  0.00000000000E+00 0. -1.
         25    2    1    2    0    0  0.11583204143E+02  0.21355294955E+02 -0.18716922201E+03  0.22638070742E+03  0.12500275110E+03 0.  0.
    9000005    1    3    3    0    0  0.21003421135E+02 -0.31040094112E+02 -0.65280255374E+01  0.38055830818E+02  0.10000000000E+01 0.  0.
    9000005    1    3    3    0    0 -0.94202169921E+01  0.52395389066E+02 -0.18064119647E+03  0.18832487660E+03  0.10000000000E+01 0.  0.
         -4    1    1    2    0  502 -0.11583204143E+02 -0.21355294955E+02 -0.20083829451E+03  0.20230633377E+03  0.12700000000E+01 0.  1.
<mgrwt>
<rscale>  1 0.12734169E+03</rscale>
<asrwt>0</asrwt>
<pdfrwt beam="2">  1       21 0.62819603E-01 0.12734169E+03</pdfrwt>
<pdfrwt beam="1">  1       -4 0.31293464E-02 0.12734169E+03</pdfrwt>
<totfact> 0.48056950E+04</totfact>
</mgrwt>
</event>
<event>
 6    4  0.3189516E-003  0.1268012E+03  0.7818608E-02  0.1232281E+00
         21   -1    0    0  501  502  0.00000000000E+00  0.00000000000E+00  0.36702150406E+02  0.36702150406E+02  0.00000000000E+00 0. -1.
          4   -1    0    0  502    0 -0.00000000000E+00 -0.00000000000E+00 -0.40546978705E+03  0.40547177597E+03  0.12700000000E+01 0. -1.
         25    2    1    2    0    0 -0.14212144900E+02 -0.15860528086E+02 -0.39118764833E+03  0.41122540076E+03  0.12500005045E+03 0.  0.
    9000005    1    3    3    0    0 -0.43027459411E+02 -0.56992921959E+02 -0.28414380153E+03  0.29298166387E+03  0.10000000000E+01 0.  0.
    9000005    1    3    3    0    0  0.28815314511E+02  0.41132393873E+02 -0.10704384680E+03  0.11824373689E+03  0.10000000000E+01 0.  0.
          4    1    1    2  501    0  0.14212144900E+02  0.15860528086E+02  0.22420011686E+02  0.30948525617E+02  0.12700000000E+01 0.  1.
<mgrwt>
<rscale>  1 0.12680124E+03</rscale>
<asrwt>0</asrwt>
<pdfrwt beam="1">  1       21 0.56464846E-02 0.12680124E+03</pdfrwt>
<pdfrwt beam="2">  1        4 0.62381812E-01 0.12680124E+03</pdfrwt>
<totfact> 0.21560241E+04</totfact>
</mgrwt>
</event>
<event>
 6    4  0.3189516E-003  0.1280386E+03  0.7818608E-02  0.1230395E+00
         -4   -1    0    0    0  501 -0.00000000000E+00  0.00000000000E+00  0.59649564411E+02  0.59663082676E+02  0.12700000000E+01 0.  1.
         21   -1    0    0  501  502  0.00000000000E+00 -0.00000000000E+00 -0.13335744211E+03  0.13335744211E+03  0.00000000000E+00 0. -1.
         25    2    1    2    0    0 -0.21947492920E+02  0.16941269422E+02 -0.16063255067E+02  0.12904229041E+03  0.12500074198E+03 0.  0.
    9000005    1    3    3    0    0  0.27529570577E+02  0.52156041418E+02 -0.30801355725E+02  0.66542117693E+02  0.10000000000E+01 0.  0.
    9000005    1    3    3    0    0 -0.49477063497E+02 -0.35214771996E+02  0.14738100659E+02  0.62500172720E+02  0.10000000000E+01 0.  0.
         -4    1    1    2    0  502  0.21947492920E+02 -0.16941269422E+02 -0.57644622637E+02  0.63978234378E+02  0.12700000000E+01 0. -1.
<mgrwt>
<rscale>  1 0.12803861E+03</rscale>
<asrwt>0</asrwt>
<pdfrwt beam="2">  1       21 0.20516529E-01 0.12803861E+03</pdfrwt>
<pdfrwt beam="1">  1       -4 0.91783612E-02 0.12803861E+03</pdfrwt>
<totfact> 0.77486445E+04</totfact>
</mgrwt>
</event>
<event>
 6    4  0.3189516E-003  0.1267103E+03  0.7818608E-02  0.1232420E+00
         -4   -1    0    0    0  501 -0.00000000000E+00  0.00000000000E+00  0.21245991431E+03  0.21246371005E+03  0.12700000000E+01 0. -1.
         21   -1    0    0  501  502  0.00000000000E+00 -0.00000000000E+00 -0.29569857051E+02  0.29569857051E+02  0.00000000000E+00 0. -1.
         25    2    1    2    0    0 -0.20120163501E+02  0.50778204260E+01  0.18129007549E+03  0.22118223426E+03  0.12499953617E+03 0.  0.
    9000005    1    3    3    0    0  0.18404177416E+02  0.47850495320E+02  0.14331730083E+03  0.15221442890E+03  0.10000000000E+01 0.  0.
    9000005    1    3    3    0    0 -0.38524340918E+02 -0.42772674894E+02  0.37972774657E+02  0.68967805358E+02  0.10000000000E+01 0.  0.
         -4    1    1    2    0  502  0.20120163501E+02 -0.50778204260E+01  0.15999817716E+01  0.20851332842E+02  0.12700000000E+01 0.  1.
<mgrwt>
<rscale>  1 0.12671026E+03</rscale>
<asrwt>0</asrwt>
<pdfrwt beam="2">  1       21 0.45492089E-02 0.12671026E+03</pdfrwt>
<pdfrwt beam="1">  1       -4 0.32688529E-01 0.12671026E+03</pdfrwt>
<totfact> 0.11318818E+05</totfact>
</mgrwt>
</event>
<event>
 6    4  0.3189516E-003  0.1272229E+03  0.7818608E-02  0.1231636E+00
         21   -1    0    0  501  502  0.00000000000E+00  0.00000000000E+00  0.13028173081E+02  0.13028173081E+02  0.00000000000E+00 0.  1.
          4   -1    0    0  502    0 -0.00000000000E+00 -0.00000000000E+00 -0.46345869697E+03  0.46346043704E+03  0.12700000000E+01 0.  1.
         25    2    1    2    0    0 -0.19985282086E+02  0.12718849464E+02 -0.41319871533E+03  0.43234111755E+03  0.12499793173E+03 0.  0.
    9000005    1    3    3    0    0 -0.42436050231E+02  0.14282847899E+02 -0.40632869770E+03  0.40878946742E+03  0.10000000000E+01 0.  0.
    9000005    1    3    3    0    0  0.22450768144E+02 -0.15639984345E+01 -0.68700176380E+01  0.23551650127E+02  0.10000000000E+01 0.  0.
          4    1    1    2  501    0  0.19985282086E+02 -0.12718849464E+02 -0.37231808558E+02  0.44147492571E+02  0.12700000000E+01 0. -1.
<mgrwt>
<rscale>  1 0.12722289E+03</rscale>
<asrwt>0</asrwt>
<pdfrwt beam="1">  1       21 0.20043348E-02 0.12722289E+03</pdfrwt>
<pdfrwt beam="2">  1        4 0.71306218E-01 0.12722289E+03</pdfrwt>
<totfact> 0.89423760E+04</totfact>
</mgrwt>
</event>
<event>
 6    4  0.3189516E-003  0.1276622E+03  0.7818608E-02  0.1230966E+00
          4   -1    0    0  502    0 -0.00000000000E+00  0.00000000000E+00  0.99269630569E+03  0.99269711808E+03  0.12700000000E+01 0.  1.
         21   -1    0    0  501  502  0.00000000000E+00 -0.00000000000E+00 -0.10068006002E+02  0.10068006002E+02  0.00000000000E+00 0. -1.
         25    2    1    2    0    0 -0.32561076926E+01  0.25728669239E+02  0.95961471981E+03  0.96806923935E+03  0.12500030017E+03 0.  0.
    9000005    1    3    3    0    0  0.60633196270E+02  0.18084048190E+02  0.46547107659E+03  0.46975285037E+03  0.10000000000E+01 0.  0.
    9000005    1    3    3    0    0 -0.63889303963E+02  0.76446210489E+01  0.49414364322E+03  0.49831638898E+03  0.10000000000E+01 0.  0.
          4    1    1    2  501    0  0.32561076926E+01 -0.25728669239E+02  0.23013579880E+02  0.34695884727E+02  0.12700000000E+01 0. -1.
<mgrwt>
<rscale>  1 0.12766222E+03</rscale>
<asrwt>0</asrwt>
<pdfrwt beam="2">  1       21 0.15489248E-02 0.12766222E+03</pdfrwt>
<pdfrwt beam="1">  1        4 0.15272866E+00 0.12766222E+03</pdfrwt>
<totfact> 0.22825847E+04</totfact>
</mgrwt>
</event>
<event>
 6    4  0.3189516E-003  0.1268253E+03  0.7818608E-02  0.1232244E+00
         21   -1    0    0  501  502  0.00000000000E+00  0.00000000000E+00  0.77131829959E+03  0.77131829959E+03  0.00000000000E+00 0.  1.
         -4   -1    0    0    0  501 -0.00000000000E+00 -0.00000000000E+00 -0.71599711711E+01  0.72717320613E+01  0.12700000000E+01 0.  1.
         25    2    1    2    0    0  0.54215229890E+01 -0.20950608656E+02  0.67694846098E+03  0.68872627481E+03  0.12496536271E+03 0.  0.
    9000005    1    3    3    0    0  0.50292360937E+02  0.53946674485E+01  0.13305111730E+03  0.14234473584E+03  0.10000000000E+01 0.  0.
    9000005    1    3    3    0    0 -0.44870837948E+02 -0.26345276105E+02  0.54389734368E+03  0.54638153897E+03  0.10000000000E+01 0.  0.
         -4    1    1    2    0  502 -0.54215229890E+01  0.20950608656E+02  0.87209867439E+02  0.89863756840E+02  0.12700000000E+01 0. -1.
<mgrwt>
<rscale>  1 0.12682532E+03</rscale>
<asrwt>0</asrwt>
<pdfrwt beam="1">  1       21 0.11866429E+00 0.12682532E+03</pdfrwt>
<pdfrwt beam="2">  1       -4 0.11102121E-02 0.12682532E+03</pdfrwt>
<totfact> 0.55565261E+04</totfact>
</mgrwt>
</event>
<event>
 6    4  0.3189516E-003  0.1373080E+03  0.7818608E-02  0.1216998E+00
         21   -1    0    0  501  502  0.00000000000E+00  0.00000000000E+00  0.63595422478E+03  0.63595422478E+03  0.00000000000E+00 0. -1.
         -4   -1    0    0    0  501 -0.00000000000E+00 -0.00000000000E+00 -0.15017702867E+02  0.15071307156E+02  0.12700000000E+01 0.  1.
         25    2    1    2    0    0 -0.24939180414E+02  0.51058758767E+02  0.40069899234E+03  0.42357192810E+03  0.12499814496E+03 0.  0.
    9000005    1    3    3    0    0 -0.62378080540E+02  0.65565369103E+02  0.33078660696E+03  0.34294405069E+03  0.10000000000E+01 0.  0.
    9000005    1    3    3    0    0  0.37438900127E+02 -0.14506610336E+02  0.69912385379E+02  0.80627877409E+02  0.10000000000E+01 0.  0.
         -4    1    1    2    0  502  0.24939180414E+02 -0.51058758767E+02  0.22023752957E+03  0.22745360384E+03  0.12700000000E+01 0. -1.
<mgrwt>
<rscale>  1 0.13730803E+03</rscale>
<asrwt>0</asrwt>
<pdfrwt beam="1">  1       21 0.97839090E-01 0.13730803E+03</pdfrwt>
<pdfrwt beam="2">  1       -4 0.23146373E-02 0.13730803E+03</pdfrwt>
<totfact> 0.28829996E+04</totfact>
</mgrwt>
</event>
<event>
 6    4  0.3189516E-003  0.1430275E+03  0.7818608E-02  0.1209312E+00
         21   -1    0    0  501  502  0.00000000000E+00  0.00000000000E+00  0.34325525756E+02  0.34325525756E+02  0.00000000000E+00 0. -1.
         -4   -1    0    0    0  501 -0.00000000000E+00 -0.00000000000E+00 -0.73812686664E+03  0.73812795920E+03  0.12700000000E+01 0.  1.
         25    2    1    2    0    0  0.35886952360E+02 -0.59532414102E+02 -0.68591097702E+03  0.70066449069E+03  0.12499951378E+03 0.  0.
    9000005    1    3    3    0    0  0.23325065042E+02 -0.20481130252E+02 -0.63273567727E+03  0.63349741329E+03  0.10000000000E+01 0.  0.
    9000005    1    3    3    0    0  0.12561887318E+02 -0.39051283851E+02 -0.53175299744E+02  0.67167077399E+02  0.10000000000E+01 0.  0.
         -4    1    1    2    0  502 -0.35886952360E+02  0.59532414102E+02 -0.17890363869E+02  0.71788994267E+02  0.12700000000E+01 0. -1.
<mgrwt>
<rscale>  1 0.14302748E+03</rscale>
<asrwt>0</asrwt>
<pdfrwt beam="1">  1       21 0.52808500E-02 0.14302748E+03</pdfrwt>
<pdfrwt beam="2">  1       -4 0.11355987E+00 0.14302748E+03</pdfrwt>
<totfact> 0.63969834E+03</totfact>
</mgrwt>
</event>
<event>
 6    4  0.3189516E-003  0.1857824E+03  0.7818608E-02  0.1162321E+00
         21   -1    0    0  501  502  0.00000000000E+00  0.00000000000E+00  0.59340135362E+03  0.59340135362E+03  0.00000000000E+00 0.  1.
          4   -1    0    0  502    0 -0.00000000000E+00 -0.00000000000E+00 -0.83755974864E+02  0.83765602877E+02  0.12700000000E+01 0. -1.
         25    2    1    2    0    0 -0.13699951748E+03 -0.11005702520E+02  0.42990648067E+02  0.19069162942E+03  0.12500043373E+03 0.  0.
    9000005    1    3    3    0    0 -0.79217305869E+02 -0.59688878553E+02 -0.80289619860E+01  0.99516872954E+02  0.10000000000E+01 0.  0.
    9000005    1    3    3    0    0 -0.57782211610E+02  0.48683176033E+02  0.51019610053E+02  0.91174756469E+02  0.10000000000E+01 0.  0.
          4    1    1    2  501    0  0.13699951748E+03  0.11005702520E+02  0.46665473069E+03  0.48647532708E+03  0.12700000000E+01 0.  1.
<mgrwt>
<rscale>  1 0.18578240E+03</rscale>
<asrwt>0</asrwt>
<pdfrwt beam="1">  1       21 0.91292513E-01 0.18578240E+03</pdfrwt>
<pdfrwt beam="2">  1        4 0.12886380E-01 0.18578240E+03</pdfrwt>
<totfact> 0.20997310E+03</totfact>
</mgrwt>
</event>
<event>
 6    4  0.3189516E-003  0.1438244E+03  0.7818608E-02  0.1208274E+00
         21   -1    0    0  501  502  0.00000000000E+00  0.00000000000E+00  0.32231284448E+03  0.32231284448E+03  0.00000000000E+00 0. -1.
         -4   -1    0    0    0  501 -0.00000000000E+00 -0.00000000000E+00 -0.13870039710E+03  0.13870621131E+03  0.12700000000E+01 0.  1.
         25    2    1    2    0    0  0.68554795027E+02  0.18986039821E+02 -0.95722170523E+02  0.17276626518E+03  0.12500087530E+03 0.  0.
    9000005    1    3    3    0    0  0.42167174588E+02 -0.52658388258E+02 -0.44996302028E+02  0.81096508327E+02  0.10000000000E+01 0.  0.
    9000005    1    3    3    0    0  0.26387620439E+02  0.71644428080E+02 -0.50725868495E+02  0.91669756855E+02  0.10000000000E+01 0.  0.
         -4    1    1    2    0  502 -0.68554795027E+02 -0.18986039821E+02  0.27933461791E+03  0.28825279060E+03  0.12700000000E+01 0. -1.
<mgrwt>
<rscale>  1 0.14382437E+03</rscale>
<asrwt>0</asrwt>
<pdfrwt beam="1">  1       21 0.49586591E-01 0.14382437E+03</pdfrwt>
<pdfrwt beam="2">  1       -4 0.21339162E-01 0.14382437E+03</pdfrwt>
<totfact> 0.32340225E+03</totfact>
</mgrwt>
</event>
<event>
 6    4  0.3189516E-003  0.1276784E+03  0.7818608E-02  0.1230942E+00
          4   -1    0    0  502    0 -0.00000000000E+00  0.00000000000E+00  0.44561958602E+01  0.46336358882E+01  0.12700000000E+01 0.  1.
         21   -1    0    0  501  502  0.00000000000E+00 -0.00000000000E+00 -0.17337265728E+04  0.17337265728E+04  0.00000000000E+00 0. -1.
         25    2    1    2    0    0  0.12643663626E+02 -0.22752107924E+02 -0.93671786630E+03  0.94537936676E+03  0.12499706158E+03 0.  0.
    9000005    1    3    3    0    0  0.10793272828E+01  0.51978469001E+02 -0.39504147934E+03  0.39844911417E+03  0.10000000000E+01 0.  0.
    9000005    1    3    3    0    0  0.11564336343E+02 -0.74730576925E+02 -0.54167638696E+03  0.54693025259E+03  0.10000000000E+01 0.  0.
          4    1    1    2  501    0 -0.12643663626E+02  0.22752107924E+02 -0.79255251062E+03  0.79298084191E+03  0.12700000000E+01 0. -1.
<mgrwt>
<rscale>  1 0.12767845E+03</rscale>
<asrwt>0</asrwt>
<pdfrwt beam="2">  1       21 0.26672733E+00 0.12767845E+03</pdfrwt>
<pdfrwt beam="1">  1        4 0.69925318E-03 0.12767845E+03</pdfrwt>
<totfact> 0.11384774E+04</totfact>
</mgrwt>
</event>
<event>
 6    4  0.3189516E-003  0.1312849E+03  0.7818608E-02  0.1225562E+00
         21   -1    0    0  501  502  0.00000000000E+00  0.00000000000E+00  0.89504994291E+02  0.89504994291E+02  0.00000000000E+00 0.  1.
         -4   -1    0    0    0  501 -0.00000000000E+00 -0.00000000000E+00 -0.85409171597E+02  0.85418613270E+02  0.12700000000E+01 0.  1.
         25    2    1    2    0    0  0.39946242623E+02  0.41958123029E+01  0.17754054499E+02  0.13247991148E+03  0.12498965299E+03 0.  0.
    9000005    1    3    3    0    0  0.29301752475E+02 -0.24829478385E+02 -0.47007393319E+02  0.60710713401E+02  0.10000000000E+01 0.  0.
    9000005    1    3    3    0    0  0.10644490148E+02  0.29025290688E+02  0.64761447818E+02  0.71769198083E+02  0.10000000000E+01 0.  0.
         -4    1    1    2    0  502 -0.39946242623E+02 -0.41958123029E+01 -0.13658231806E+02  0.42443696077E+02  0.12700000000E+01 0. -1.
<mgrwt>
<rscale>  1 0.13128488E+03</rscale>
<asrwt>0</asrwt>
<pdfrwt beam="1">  1       21 0.13769999E-01 0.13128488E+03</pdfrwt>
<pdfrwt beam="2">  1       -4 0.13141292E-01 0.13128488E+03</pdfrwt>
<totfact> 0.87407182E+04</totfact>
</mgrwt>
</event>
<event>
 6    4  0.3189516E-003  0.1324932E+03  0.7818608E-02  0.1223803E+00
         21   -1    0    0  501  502  0.00000000000E+00  0.00000000000E+00  0.32029283107E+02  0.32029283107E+02  0.00000000000E+00 0.  1.
         -4   -1    0    0    0  501 -0.00000000000E+00 -0.00000000000E+00 -0.28637708245E+03  0.28637989848E+03  0.12700000000E+01 0.  1.
         25    2    1    2    0    0  0.35413367423E+02 -0.25984090492E+02 -0.23629090097E+03  0.27090187657E+03  0.12500062919E+03 0.  0.
    9000005    1    3    3    0    0  0.55344548822E+02  0.92497397724E+01 -0.22034956476E+03  0.22738405279E+03  0.10000000000E+01 0.  0.
    9000005    1    3    3    0    0 -0.19931181399E+02 -0.35233830265E+02 -0.15941336212E+02  0.43517823789E+02  0.10000000000E+01 0.  0.
         -4    1    1    2    0  502 -0.35413367423E+02  0.25984090492E+02 -0.18056898371E+02  0.47507305015E+02  0.12700000000E+01 0. -1.
<mgrwt>
<rscale>  1 0.13249316E+03</rscale>
<asrwt>0</asrwt>
<pdfrwt beam="1">  1       21 0.49275820E-02 0.13249316E+03</pdfrwt>
<pdfrwt beam="2">  1       -4 0.44060167E-01 0.13249316E+03</pdfrwt>
<totfact> 0.55650811E+04</totfact>
</mgrwt>
</event>
<event>
 6    4  0.3189516E-003  0.1272927E+03  0.7818608E-02  0.1231529E+00
         21   -1    0    0  501  502  0.00000000000E+00  0.00000000000E+00  0.37432719612E+03  0.37432719612E+03  0.00000000000E+00 0.  1.
          4   -1    0    0  502    0 -0.00000000000E+00 -0.00000000000E+00 -0.29237795724E+02  0.29265365174E+02  0.12700000000E+01 0. -1.
         25    2    1    2    0    0 -0.23605519901E+02 -0.50945751175E+01  0.11289787098E+03  0.17014514859E+03  0.12498106677E+03 0.  0.
    9000005    1    3    3    0    0 -0.62410246186E+02 -0.33187035311E+02  0.35475277462E+02  0.79094332621E+02  0.10000000000E+01 0.  0.
    9000005    1    3    3    0    0  0.38804726285E+02  0.28092460193E+02  0.77422593519E+02  0.91050815971E+02  0.10000000000E+01 0.  0.
          4    1    1    2  501    0  0.23605519901E+02  0.50945751175E+01  0.23219152942E+03  0.23344741270E+03  0.12700000000E+01 0.  1.
<mgrwt>
<rscale>  1 0.12729274E+03</rscale>
<asrwt>0</asrwt>
<pdfrwt beam="1">  1       21 0.57588796E-01 0.12729274E+03</pdfrwt>
<pdfrwt beam="2">  1        4 0.45004092E-02 0.12729274E+03</pdfrwt>
<totfact> 0.32539400E+04</totfact>
</mgrwt>
</event>
<event>
 6    4  0.3189516E-003  0.1347618E+03  0.7818608E-02  0.1220556E+00
          4   -1    0    0  502    0 -0.00000000000E+00  0.00000000000E+00  0.49138919882E+03  0.49139083998E+03  0.12700000000E+01 0.  1.
         21   -1    0    0  501  502  0.00000000000E+00 -0.00000000000E+00 -0.20251345336E+02  0.20251345336E+02  0.00000000000E+00 0. -1.
         25    2    1    2    0    0 -0.45644675292E+02 -0.21268041156E+02  0.41444256413E+03  0.43580199352E+03  0.12499989054E+03 0.  0.
    9000005    1    3    3    0    0 -0.62509139459E+02  0.24304806450E+02  0.34232892941E+03  0.34883837525E+03  0.10000000000E+01 0.  0.
    9000005    1    3    3    0    0  0.16864464166E+02 -0.45572847606E+02  0.72113634719E+02  0.86963618272E+02  0.10000000000E+01 0.  0.
          4    1    1    2  501    0  0.45644675292E+02  0.21268041156E+02  0.56695289354E+02  0.75840191799E+02  0.12700000000E+01 0. -1.
<mgrwt>
<rscale>  1 0.13476178E+03</rscale>
<asrwt>0</asrwt>
<pdfrwt beam="2">  1       21 0.31155920E-02 0.13476178E+03</pdfrwt>
<pdfrwt beam="1">  1        4 0.75601518E-01 0.13476178E+03</pdfrwt>
<totfact> 0.38696150E+04</totfact>
</mgrwt>
</event>
<event>
 6    4  0.3189516E-003  0.1279274E+03  0.7818608E-02  0.1230564E+00
         21   -1    0    0  501  502  0.00000000000E+00  0.00000000000E+00  0.18243974929E+03  0.18243974929E+03  0.00000000000E+00 0. -1.
          4   -1    0    0  502    0 -0.00000000000E+00 -0.00000000000E+00 -0.35602932741E+02  0.35625576764E+02  0.12700000000E+01 0. -1.
         25    2    1    2    0    0 -0.27097798667E+02  0.10197250424E+01  0.94293330323E+02  0.15892345107E+03  0.12502040083E+03 0.  0.
    9000005    1    3    3    0    0  0.35905817409E+02 -0.31843974837E+02  0.10657227034E+02  0.49171566431E+02  0.10000000000E+01 0.  0.
    9000005    1    3    3    0    0 -0.63003616077E+02  0.32863699879E+02  0.83636103289E+02  0.10975188464E+03  0.10000000000E+01 0.  0.
          4    1    1    2  501    0  0.27097798667E+02 -0.10197250424E+01  0.52543486231E+02  0.59141874988E+02  0.12700000000E+01 0.  1.
<mgrwt>
<rscale>  1 0.12792744E+03</rscale>
<asrwt>0</asrwt>
<pdfrwt beam="1">  1       21 0.28067653E-01 0.12792744E+03</pdfrwt>
<pdfrwt beam="2">  1        4 0.54794562E-02 0.12792744E+03</pdfrwt>
<totfact> 0.10017816E+05</totfact>
</mgrwt>
</event>
<event>
 6    4  0.3189516E-003  0.1279746E+03  0.7818608E-02  0.1230492E+00
         21   -1    0    0  501  502  0.00000000000E+00  0.00000000000E+00  0.56228422487E+02  0.56228422487E+02  0.00000000000E+00 0.  1.
          4   -1    0    0  502    0 -0.00000000000E+00 -0.00000000000E+00 -0.15228019768E+03  0.15228549342E+03  0.12700000000E+01 0.  1.
         25    2    1    2    0    0  0.21664323617E+02 -0.16832699150E+02 -0.11744742670E+03  0.17369912764E+03  0.12499922490E+03 0.  0.
    9000005    1    3    3    0    0 -0.56139033116E+01 -0.36690140048E+02  0.12702354003E+02  0.39243242531E+02  0.10000000000E+01 0.  0.
    9000005    1    3    3    0    0  0.27278226928E+02  0.19857440897E+02 -0.13014978071E+03  0.13445588511E+03  0.10000000000E+01 0.  0.
          4    1    1    2  501    0 -0.21664323617E+02  0.16832699150E+02  0.21395651508E+02  0.34814788264E+02  0.12700000000E+01 0. -1.
<mgrwt>
<rscale>  1 0.12797456E+03</rscale>
<asrwt>0</asrwt>
<pdfrwt beam="1">  1       21 0.86505266E-02 0.12797456E+03</pdfrwt>
<pdfrwt beam="2">  1        4 0.23429233E-01 0.12797456E+03</pdfrwt>
<totfact> 0.70812802E+04</totfact>
</mgrwt>
</event>
<event>
 6    4  0.3189516E-003  0.1280104E+03  0.7818608E-02  0.1230438E+00
         21   -1    0    0  501  502  0.00000000000E+00  0.00000000000E+00  0.39448989906E+03  0.39448989906E+03  0.00000000000E+00 0. -1.
         -4   -1    0    0    0  501 -0.00000000000E+00 -0.00000000000E+00 -0.17360372384E+02  0.17406763895E+02  0.12700000000E+01 0. -1.
         25    2    1    2    0    0  0.28193056908E+01  0.27479948246E+02  0.23998201383E+03  0.27198901763E+03  0.12499425071E+03 0.  0.
    9000005    1    3    3    0    0  0.25821664669E+02 -0.24448161912E+01 -0.29652938871E+01  0.26125245651E+02  0.10000000000E+01 0.  0.
    9000005    1    3    3    0    0 -0.23002358979E+02  0.29924764437E+02  0.24294730771E+03  0.24586377198E+03  0.10000000000E+01 0.  0.
         -4    1    1    2    0  502 -0.28193056908E+01 -0.27479948246E+02  0.13714751285E+03  0.13990764533E+03  0.12700000000E+01 0.  1.
<mgrwt>
<rscale>  1 0.12801039E+03</rscale>
<asrwt>0</asrwt>
<pdfrwt beam="1">  1       21 0.60690747E-01 0.12801039E+03</pdfrwt>
<pdfrwt beam="2">  1       -4 0.26745526E-02 0.12801039E+03</pdfrwt>
<totfact> 0.66142129E+04</totfact>
</mgrwt>
</event>
<event>
 6    4  0.3189516E-003  0.1266180E+03  0.7818608E-02  0.1232562E+00
          4   -1    0    0  502    0 -0.00000000000E+00  0.00000000000E+00  0.12496639579E+02  0.12561007156E+02  0.12700000000E+01 0. -1.
         21   -1    0    0  501  502  0.00000000000E+00 -0.00000000000E+00 -0.10865675032E+04  0.10865675032E+04  0.00000000000E+00 0. -1.
         25    2    1    2    0    0  0.17835405067E+02  0.94413278657E+01 -0.31096628602E+03  0.33575609168E+03  0.12499952684E+03 0.  0.
    9000005    1    3    3    0    0  0.16983164005E+02  0.42574739458E+02 -0.29573146619E+03  0.29926432529E+03  0.10000000000E+01 0.  0.
    9000005    1    3    3    0    0  0.85224106188E+00 -0.33133411592E+02 -0.15234819835E+02  0.36491766386E+02  0.10000000000E+01 0.  0.
          4    1    1    2  501    0 -0.17835405067E+02 -0.94413278657E+01 -0.76310457764E+03  0.76337241872E+03  0.12700000000E+01 0.  1.
<mgrwt>
<rscale>  1 0.12661802E+03</rscale>
<asrwt>0</asrwt>
<pdfrwt beam="2">  1       21 0.16716425E+00 0.12661802E+03</pdfrwt>
<pdfrwt beam="1">  1        4 0.19275682E-02 0.12661802E+03</pdfrwt>
<totfact> 0.10021544E+04</totfact>
</mgrwt>
</event>
<event>
 6    4  0.3189516E-003  0.1332046E+03  0.7818608E-02  0.1222777E+00
         21   -1    0    0  501  502  0.00000000000E+00  0.00000000000E+00  0.12658324887E+03  0.12658324887E+03  0.00000000000E+00 0.  1.
          4   -1    0    0  502    0 -0.00000000000E+00 -0.00000000000E+00 -0.63856352912E+02  0.63868980790E+02  0.12700000000E+01 0. -1.
         25    2    1    2    0    0  0.45637459244E+02  0.59892201102E+01  0.39860105699E+02  0.13904064108E+03  0.12499929360E+03 0.  0.
    9000005    1    3    3    0    0  0.60943310783E+02  0.54765949927E+02  0.27541248853E+02  0.86446033969E+02  0.10000000000E+01 0.  0.
    9000005    1    3    3    0    0 -0.15305851538E+02 -0.48776729817E+02  0.12318856846E+02  0.52594607109E+02  0.10000000000E+01 0.  0.
          4    1    1    2  501    0 -0.45637459244E+02 -0.59892201102E+01  0.22866790258E+02  0.51411588582E+02  0.12700000000E+01 0.  1.
<mgrwt>
<rscale>  1 0.13320462E+03</rscale>
<asrwt>0</asrwt>
<pdfrwt beam="1">  1       21 0.19474346E-01 0.13320462E+03</pdfrwt>
<pdfrwt beam="2">  1        4 0.98255157E-02 0.13320462E+03</pdfrwt>
<totfact> 0.76510326E+04</totfact>
</mgrwt>
</event>
<event>
 6    4  0.3189516E-003  0.1335878E+03  0.7818608E-02  0.1222227E+00
         21   -1    0    0  501  502  0.00000000000E+00  0.00000000000E+00  0.14424134239E+02  0.14424134239E+02  0.00000000000E+00 0. -1.
         -4   -1    0    0    0  501 -0.00000000000E+00 -0.00000000000E+00 -0.15830558078E+04  0.15830563173E+04  0.12700000000E+01 0.  1.
         25    2    1    2    0    0 -0.20852186693E+02  0.42245306284E+02 -0.15319385979E+04  0.15377521140E+04  0.12500486767E+03 0.  0.
    9000005    1    3    3    0    0  0.24835150698E+02 -0.13038550515E+02 -0.95889522143E+02  0.99912906907E+02  0.10000000000E+01 0.  0.
    9000005    1    3    3    0    0 -0.45687337391E+02  0.55283856799E+02 -0.14360490757E+04  0.14378392071E+04  0.10000000000E+01 0.  0.
         -4    1    1    2    0  502  0.20852186693E+02 -0.42245306284E+02 -0.36693075752E+02  0.59728337504E+02  0.12700000000E+01 0. -1.
<mgrwt>
<rscale>  1 0.13358779E+03</rscale>
<asrwt>0</asrwt>
<pdfrwt beam="1">  1       21 0.22190978E-02 0.13358779E+03</pdfrwt>
<pdfrwt beam="2">  1       -4 0.24355136E+00 0.13358779E+03</pdfrwt>
<totfact> 0.34185019E+03</totfact>
</mgrwt>
</event>
<event>
 6    4  0.3189516E-003  0.1272705E+03  0.7818608E-02  0.1231563E+00
         21   -1    0    0  501  502  0.00000000000E+00  0.00000000000E+00  0.43116673639E+03  0.43116673639E+03  0.00000000000E+00 0.  1.
          4   -1    0    0  502    0 -0.00000000000E+00 -0.00000000000E+00 -0.13462910212E+02  0.13522679149E+02  0.12700000000E+01 0.  1.
         25    2    1    2    0    0  0.17036413425E+02  0.16794047421E+02  0.32754524356E+03  0.35140242647E+03  0.12500199732E+03 0.  0.
    9000005    1    3    3    0    0  0.29247437624E+02 -0.23059630595E+02  0.29795408336E+03  0.30027453265E+03  0.10000000000E+01 0.  0.
    9000005    1    3    3    0    0 -0.12211024199E+02  0.39853678016E+02  0.29591160205E+02  0.51127893812E+02  0.10000000000E+01 0.  0.
          4    1    1    2  501    0 -0.17036413425E+02 -0.16794047421E+02  0.90158582611E+02  0.93286989069E+02  0.12700000000E+01 0. -1.
<mgrwt>
<rscale>  1 0.12727049E+03</rscale>
<asrwt>0</asrwt>
<pdfrwt beam="1">  1       21 0.66333333E-01 0.12727049E+03</pdfrwt>
<pdfrwt beam="2">  1        4 0.20759588E-02 0.12727049E+03</pdfrwt>
<totfact> 0.80877229E+04</totfact>
</mgrwt>
</event>
<event>
 6    4  0.3189516E-003  0.1275035E+03  0.7818608E-02  0.1231208E+00
         21   -1    0    0  501  502  0.00000000000E+00  0.00000000000E+00  0.90840232610E+02  0.90840232610E+02  0.00000000000E+00 0.  1.
         -4   -1    0    0    0  501 -0.00000000000E+00 -0.00000000000E+00 -0.59586006817E+03  0.59586142159E+03  0.12700000000E+01 0. -1.
         25    2    1    2    0    0  0.64723058531E+01 -0.24315563331E+02 -0.58712900584E+03  0.60081413410E+03  0.12499606743E+03 0.  0.
    9000005    1    3    3    0    0  0.57039740146E+01 -0.71438058514E+02 -0.45317735579E+03  0.45881003403E+03  0.10000000000E+01 0.  0.
    9000005    1    3    3    0    0  0.76833183850E+00  0.47122495183E+02 -0.13395165005E+03  0.14200410007E+03  0.10000000000E+01 0.  0.
         -4    1    1    2    0  502 -0.64723058531E+01  0.24315563331E+02  0.82109170286E+02  0.85887520096E+02  0.12700000000E+01 0.  1.
<mgrwt>
<rscale>  1 0.12750355E+03</rscale>
<asrwt>0</asrwt>
<pdfrwt beam="1">  1       21 0.13975420E-01 0.12750355E+03</pdfrwt>
<pdfrwt beam="2">  1       -4 0.91671567E-01 0.12750355E+03</pdfrwt>
<totfact> 0.19269134E+03</totfact>
</mgrwt>
</event>
<event>
 6    4  0.3189516E-003  0.1274196E+03  0.7818608E-02  0.1231336E+00
         -4   -1    0    0    0  501 -0.00000000000E+00  0.00000000000E+00  0.15006298935E+02  0.15059943816E+02  0.12700000000E+01 0. -1.
         21   -1    0    0  501  502  0.00000000000E+00 -0.00000000000E+00 -0.80527240911E+03  0.80527240911E+03  0.00000000000E+00 0.  1.
         25    2    1    2    0    0 -0.32170292319E+00 -0.24707001947E+02 -0.26054295389E+03  0.29003170740E+03  0.12500088415E+03 0.  0.
    9000005    1    3    3    0    0  0.41402532935E+02 -0.32983439590E+02 -0.42544993781E+02  0.67920199620E+02  0.10000000000E+01 0.  0.
    9000005    1    3    3    0    0 -0.41724235858E+02  0.82764376426E+01 -0.21799796011E+03  0.22211150778E+03  0.10000000000E+01 0.  0.
         -4    1    1    2    0  502  0.32170292319E+00  0.24707001947E+02 -0.52972315629E+03  0.53030064552E+03  0.12700000000E+01 0.  1.
<mgrwt>
<rscale>  1 0.12741962E+03</rscale>
<asrwt>0</asrwt>
<pdfrwt beam="2">  1       21 0.12388804E+00 0.12741962E+03</pdfrwt>
<pdfrwt beam="1">  1       -4 0.23128653E-02 0.12741962E+03</pdfrwt>
<totfact> 0.16312346E+04</totfact>
</mgrwt>
</event>
<event>
 6    4  0.3189516E-003  0.1532202E+03  0.7818608E-02  0.1196571E+00
         21   -1    0    0  501  502  0.00000000000E+00  0.00000000000E+00  0.67775588275E+02  0.67775588275E+02  0.00000000000E+00 0.  1.
         -4   -1    0    0    0  501 -0.00000000000E+00 -0.00000000000E+00 -0.33674388454E+03  0.33674627938E+03  0.12700000000E+01 0. -1.
         25    2    1    2    0    0  0.12280199468E+01  0.88599244881E+02 -0.27594623499E+03  0.31563070524E+03  0.12500033303E+03 0.  0.
    9000005    1    3    3    0    0  0.56127609033E+02  0.99751533180E+01 -0.11265178812E+03  0.12625861375E+03  0.10000000000E+01 0.  0.
    9000005    1    3    3    0    0 -0.54899589087E+02  0.78624091563E+02 -0.16329444687E+03  0.18937209149E+03  0.10000000000E+01 0.  0.
         -4    1    1    2    0  502 -0.12280199468E+01 -0.88599244881E+02  0.69779387257E+01  0.88891162414E+02  0.12700000000E+01 0.  1.
<mgrwt>
<rscale>  1 0.15322016E+03</rscale>
<asrwt>0</asrwt>
<pdfrwt beam="1">  1       21 0.10427014E-01 0.15322016E+03</pdfrwt>
<pdfrwt beam="2">  1       -4 0.51807850E-01 0.15322016E+03</pdfrwt>
<totfact> 0.11231028E+04</totfact>
</mgrwt>
</event>
<event>
 6    4  0.3189516E-003  0.1278234E+03  0.7818608E-02  0.1230722E+00
         21   -1    0    0  501  502  0.00000000000E+00  0.00000000000E+00  0.17869338368E+03  0.17869338368E+03  0.00000000000E+00 0.  1.
         -4   -1    0    0    0  501 -0.00000000000E+00 -0.00000000000E+00 -0.53325934737E+02  0.53341055629E+02  0.12700000000E+01 0. -1.
         25    2    1    2    0    0 -0.25375828624E+02  0.83492886331E+01  0.27725026254E+02  0.13079561816E+03  0.12500069340E+03 0.  0.
    9000005    1    3    3    0    0 -0.70556978769E+01  0.35852930596E+02  0.68896072471E+02  0.77992847792E+02  0.10000000000E+01 0.  0.
    9000005    1    3    3    0    0 -0.18320130747E+02 -0.27503641963E+02 -0.41171046217E+02  0.52802770367E+02  0.10000000000E+01 0.  0.
         -4    1    1    2    0  502  0.25375828624E+02 -0.83492886331E+01  0.97642422693E+02  0.10123882115E+03  0.12700000000E+01 0.  1.
<mgrwt>
<rscale>  1 0.12782338E+03</rscale>
<asrwt>0</asrwt>
<pdfrwt beam="1">  1       21 0.27491290E-01 0.12782338E+03</pdfrwt>
<pdfrwt beam="2">  1       -4 0.82055003E-02 0.12782338E+03</pdfrwt>
<totfact> 0.53852272E+04</totfact>
</mgrwt>
</event>
<event>
 6    4  0.3189516E-003  0.1930349E+03  0.7818608E-02  0.1155752E+00
          4   -1    0    0  502    0 -0.00000000000E+00  0.00000000000E+00  0.16634692023E+03  0.16635176816E+03  0.12700000000E+01 0. -1.
         21   -1    0    0  501  502  0.00000000000E+00 -0.00000000000E+00 -0.25636010407E+03  0.25636010407E+03  0.00000000000E+00 0.  1.
         25    2    1    2    0    0 -0.14558391850E+03  0.21046315695E+02  0.70019710430E+02  0.20534176187E+03  0.12499941835E+03 0.  0.
    9000005    1    3    3    0    0  0.97200592972E+01  0.22527505168E+02  0.40326845810E+02  0.47214643225E+02  0.10000000000E+01 0.  0.
    9000005    1    3    3    0    0 -0.15530397780E+03 -0.14811894735E+01  0.29692864620E+02  0.15812711864E+03  0.10000000000E+01 0.  0.
          4    1    1    2  501    0  0.14558391850E+03 -0.21046315695E+02 -0.16003289428E+03  0.21737011036E+03  0.12700000000E+01 0.  1.
<mgrwt>
<rscale>  1 0.19303492E+03</rscale>
<asrwt>0</asrwt>
<pdfrwt beam="2">  1       21 0.39440016E-01 0.19303492E+03</pdfrwt>
<pdfrwt beam="1">  1        4 0.25592449E-01 0.19303492E+03</pdfrwt>
<totfact> 0.37380203E+03</totfact>
</mgrwt>
</event>
<event>
 6    4  0.3189516E-003  0.1279015E+03  0.7818608E-02  0.1230603E+00
         21   -1    0    0  501  502  0.00000000000E+00  0.00000000000E+00  0.95889963594E+02  0.95889963594E+02  0.00000000000E+00 0.  1.
          4   -1    0    0  502    0 -0.00000000000E+00 -0.00000000000E+00 -0.13076817992E+03  0.13077434679E+03  0.12700000000E+01 0. -1.
         25    2    1    2    0    0  0.46671919630E+01  0.26672680095E+02 -0.95920646015E+02  0.15987355005E+03  0.12500226849E+03 0.  0.
    9000005    1    3    3    0    0 -0.54884076670E+02 -0.64243554047E+01 -0.22403070611E+02  0.59635826372E+02  0.10000000000E+01 0.  0.
    9000005    1    3    3    0    0  0.59551268633E+02  0.33097035500E+02 -0.73517575403E+02  0.10023772368E+03  0.10000000000E+01 0.  0.
          4    1    1    2  501    0 -0.46671919630E+01 -0.26672680095E+02  0.61042429690E+02  0.66790760340E+02  0.12700000000E+01 0.  1.
<mgrwt>
<rscale>  1 0.12790145E+03</rscale>
<asrwt>0</asrwt>
<pdfrwt beam="1">  1       21 0.14752302E-01 0.12790145E+03</pdfrwt>
<pdfrwt beam="2">  1        4 0.20119303E-01 0.12790145E+03</pdfrwt>
<totfact> 0.36390717E+04</totfact>
</mgrwt>
</event>
<event>
 6    4  0.3189516E-003  0.1296703E+03  0.7818608E-02  0.1227946E+00
          4   -1    0    0  502    0 -0.00000000000E+00  0.00000000000E+00  0.12364382768E+04  0.12364389291E+04  0.12700000000E+01 0.  1.
         21   -1    0    0  501  502  0.00000000000E+00 -0.00000000000E+00 -0.55225597176E+01  0.55225597176E+01  0.00000000000E+00 0.  1.
         25    2    1    2    0    0  0.20126758987E+02 -0.28007904204E+02  0.10256645265E+04  0.10338288550E+04  0.12499940500E+03 0.  0.
    9000005    1    3    3    0    0 -0.25212939391E+02  0.40263899763E+02  0.40387794228E+03  0.40666357865E+03  0.10000000000E+01 0.  0.
    9000005    1    3    3    0    0  0.45339698378E+02 -0.68271803968E+02  0.62178658425E+03  0.62716527631E+03  0.10000000000E+01 0.  0.
          4    1    1    2  501    0 -0.20126758987E+02  0.28007904204E+02  0.20525119060E+03  0.20813263383E+03  0.12700000000E+01 0. -1.
<mgrwt>
<rscale>  1 0.12967028E+03</rscale>
<asrwt>0</asrwt>
<pdfrwt beam="2">  1       21 0.84962556E-03 0.12967028E+03</pdfrwt>
<pdfrwt beam="1">  1        4 0.19023234E+00 0.12967028E+03</pdfrwt>
<totfact> 0.32962555E+04</totfact>
</mgrwt>
</event>
<event>
 6    4  0.3189516E-003  0.1267916E+03  0.7818608E-02  0.1232296E+00
         -4   -1    0    0    0  501 -0.00000000000E+00  0.00000000000E+00  0.95658351174E+03  0.95658435479E+03  0.12700000000E+01 0.  1.
         21   -1    0    0  501  502  0.00000000000E+00 -0.00000000000E+00 -0.97540513033E+01  0.97540513033E+01  0.00000000000E+00 0. -1.
         25    2    1    2    0    0  0.76052228000E+01 -0.19839976970E+02  0.93154368133E+03  0.94013283335E+03  0.12499860004E+03 0.  0.
    9000005    1    3    3    0    0 -0.25783027640E+02 -0.11557935858E+02  0.86273158543E+03  0.86319472826E+03  0.10000000000E+01 0.  0.
    9000005    1    3    3    0    0  0.33388250440E+02 -0.82820411126E+01  0.68812095899E+02  0.76938105087E+02  0.10000000000E+01 0.  0.
         -4    1    1    2    0  502 -0.76052228000E+01  0.19839976970E+02  0.15285779101E+02  0.26205572742E+02  0.12700000000E+01 0. -1.
<mgrwt>
<rscale>  1 0.12679162E+03</rscale>
<asrwt>0</asrwt>
<pdfrwt beam="2">  1       21 0.15006240E-02 0.12679162E+03</pdfrwt>
<pdfrwt beam="1">  1       -4 0.14717304E+00 0.12679162E+03</pdfrwt>
<totfact> 0.26359631E+04</totfact>
</mgrwt>
</event>
<event>
 6    4  0.3189516E-003  0.1286726E+03  0.7818608E-02  0.1229439E+00
         21   -1    0    0  501  502  0.00000000000E+00  0.00000000000E+00  0.22959177290E+02  0.22959177290E+02  0.00000000000E+00 0. -1.
          4   -1    0    0  502    0 -0.00000000000E+00 -0.00000000000E+00 -0.43666304796E+03  0.43666489480E+03  0.12700000000E+01 0. -1.
         25    2    1    2    0    0 -0.14757503098E+02  0.26762577275E+02 -0.16595734160E+03  0.20999639934E+03  0.12499051589E+03 0.  0.
    9000005    1    3    3    0    0 -0.20250321821E+01  0.76713760442E+02 -0.10695326007E+03  0.13164004572E+03  0.10000000000E+01 0.  0.
    9000005    1    3    3    0    0 -0.12732470916E+02 -0.49951183167E+02 -0.59004081530E+02  0.78356353620E+02  0.10000000000E+01 0.  0.
          4    1    1    2  501    0  0.14757503098E+02 -0.26762577275E+02 -0.24774652907E+03  0.24962767276E+03  0.12700000000E+01 0.  1.
<mgrwt>
<rscale>  1 0.12867264E+03</rscale>
<asrwt>0</asrwt>
<pdfrwt beam="1">  1       21 0.35321812E-02 0.12867264E+03</pdfrwt>
<pdfrwt beam="2">  1        4 0.67181774E-01 0.12867264E+03</pdfrwt>
<totfact> 0.40387137E+04</totfact>
</mgrwt>
</event>
<event>
 6    4  0.3189516E-003  0.1292196E+03  0.7818608E-02  0.1228618E+00
         21   -1    0    0  501  502  0.00000000000E+00  0.00000000000E+00  0.32820020027E+03  0.32820020027E+03  0.00000000000E+00 0.  1.
          4   -1    0    0  502    0 -0.00000000000E+00 -0.00000000000E+00 -0.27530059444E+02  0.27559337310E+02  0.12700000000E+01 0.  1.
         25    2    1    2    0    0  0.24083871118E+02  0.22196901502E+02  0.13499265274E+03  0.18687088123E+03  0.12499989870E+03 0.  0.
    9000005    1    3    3    0    0 -0.64759331381E+01  0.25191844752E+02 -0.17466413548E+02  0.31347126730E+02  0.10000000000E+01 0.  0.
    9000005    1    3    3    0    0  0.30559804256E+02 -0.29949432498E+01  0.15245906628E+03  0.15552375450E+03  0.10000000000E+01 0.  0.
          4    1    1    2  501    0 -0.24083871118E+02 -0.22196901502E+02  0.16567748809E+03  0.16888865635E+03  0.12700000000E+01 0. -1.
<mgrwt>
<rscale>  1 0.12921962E+03</rscale>
<asrwt>0</asrwt>
<pdfrwt beam="1">  1       21 0.50492336E-01 0.12921962E+03</pdfrwt>
<pdfrwt beam="2">  1        4 0.42378352E-02 0.12921962E+03</pdfrwt>
<totfact> 0.47192717E+04</totfact>
</mgrwt>
</event>
<event>
 6    4  0.3189516E-003  0.1360944E+03  0.7818608E-02  0.1218683E+00
          4   -1    0    0  502    0 -0.00000000000E+00  0.00000000000E+00  0.22031248985E+02  0.22067823450E+02  0.12700000000E+01 0. -1.
         21   -1    0    0  501  502  0.00000000000E+00 -0.00000000000E+00 -0.42256406294E+03  0.42256406294E+03  0.00000000000E+00 0. -1.
         25    2    1    2    0    0 -0.32415302929E+02 -0.42966433999E+02 -0.24817221737E+03  0.28303909383E+03  0.12499925139E+03 0.  0.
    9000005    1    3    3    0    0 -0.30020896570E+02 -0.66647514622E+01  0.14263816560E+01  0.30801099129E+02  0.10000000000E+01 0.  0.
    9000005    1    3    3    0    0 -0.23944063582E+01 -0.36301682537E+02 -0.24959859902E+03  0.25223799470E+03  0.10000000000E+01 0.  0.
          4    1    1    2  501    0  0.32415302929E+02  0.42966433999E+02 -0.15236059659E+03  0.16159279256E+03  0.12700000000E+01 0.  1.
<mgrwt>
<rscale>  1 0.13609438E+03</rscale>
<asrwt>0</asrwt>
<pdfrwt beam="2">  1       21 0.65009852E-01 0.13609438E+03</pdfrwt>
<pdfrwt beam="1">  1        4 0.33923834E-02 0.13609438E+03</pdfrwt>
<totfact> 0.39596279E+04</totfact>
</mgrwt>
</event>
<event>
 6    4  0.3189516E-003  0.1281377E+03  0.7818608E-02  0.1230245E+00
         -4   -1    0    0    0  501 -0.00000000000E+00  0.00000000000E+00  0.48388272489E+02  0.48404935848E+02  0.12700000000E+01 0.  1.
         21   -1    0    0  501  502  0.00000000000E+00 -0.00000000000E+00 -0.13444473014E+03  0.13444473014E+03  0.00000000000E+00 0.  1.
         25    2    1    2    0    0 -0.12159699943E+02  0.25427686257E+02 -0.51157528989E+02  0.13797234819E+03  0.12499940224E+03 0.  0.
    9000005    1    3    3    0    0 -0.20650243852E+02 -0.25189432293E+02  0.28443214398E+02  0.43254554855E+02  0.10000000000E+01 0.  0.
    9000005    1    3    3    0    0  0.84905439096E+01  0.50617118551E+02 -0.79600743387E+02  0.94717793334E+02  0.10000000000E+01 0.  0.
         -4    1    1    2    0  502  0.12159699943E+02 -0.25427686257E+02 -0.34898928666E+02  0.44877317802E+02  0.12700000000E+01 0. -1.
<mgrwt>
<rscale>  1 0.12813772E+03</rscale>
<asrwt>0</asrwt>
<pdfrwt beam="2">  1       21 0.20683804E-01 0.12813772E+03</pdfrwt>
<pdfrwt beam="1">  1       -4 0.74460929E-02 0.12813772E+03</pdfrwt>
<totfact> 0.10799404E+05</totfact>
</mgrwt>
</event>
<event>
 6    4  0.3189516E-003  0.1315266E+03  0.7818608E-02  0.1225208E+00
         21   -1    0    0  501  502  0.00000000000E+00  0.00000000000E+00  0.30116217130E+02  0.30116217130E+02  0.00000000000E+00 0.  1.
          4   -1    0    0  502    0 -0.00000000000E+00 -0.00000000000E+00 -0.12090557609E+04  0.12090564279E+04  0.12700000000E+01 0. -1.
         25    2    1    2    0    0  0.11337268437E+02 -0.39313366435E+02 -0.11896186116E+04  0.11968674465E+04  0.12500067675E+03 0.  0.
    9000005    1    3    3    0    0 -0.49107998145E+02 -0.19894533824E+01 -0.26483622957E+03  0.26935994858E+03  0.10000000000E+01 0.  0.
    9000005    1    3    3    0    0  0.60445266582E+02 -0.37323913053E+02 -0.92478238198E+03  0.92750749795E+03  0.10000000000E+01 0.  0.
          4    1    1    2  501    0 -0.11337268437E+02  0.39313366435E+02  0.10679067741E+02  0.42305198544E+02  0.12700000000E+01 0.  1.
<mgrwt>
<rscale>  1 0.13152659E+03</rscale>
<asrwt>0</asrwt>
<pdfrwt beam="1">  1       21 0.46332654E-02 0.13152659E+03</pdfrwt>
<pdfrwt beam="2">  1        4 0.18601064E+00 0.13152659E+03</pdfrwt>
<totfact> 0.22650861E+03</totfact>
</mgrwt>
</event>
<event>
 6    4  0.3189516E-003  0.1291279E+03  0.7818608E-02  0.1228756E+00
         -4   -1    0    0    0  501 -0.00000000000E+00  0.00000000000E+00  0.89052812039E+02  0.89061867440E+02  0.12700000000E+01 0. -1.
         21   -1    0    0  501  502  0.00000000000E+00 -0.00000000000E+00 -0.12484790392E+03  0.12484790392E+03  0.00000000000E+00 0.  1.
         25    2    1    2    0    0  0.32019574808E+02  0.51100216179E+01  0.36903573878E+02  0.13429774717E+03  0.12499058220E+03 0.  0.
    9000005    1    3    3    0    0  0.73311822242E+02 -0.72410755508E+01  0.50235309563E+02  0.89171984291E+02  0.10000000000E+01 0.  0.
    9000005    1    3    3    0    0 -0.41292247434E+02  0.12351097169E+02 -0.13331735685E+02  0.45125762883E+02  0.10000000000E+01 0.  0.
         -4    1    1    2    0  502 -0.32019574808E+02 -0.51100216179E+01 -0.72698665760E+02  0.79612024186E+02  0.12700000000E+01 0.  1.
<mgrwt>
<rscale>  1 0.12912789E+03</rscale>
<asrwt>0</asrwt>
<pdfrwt beam="2">  1       21 0.19207370E-01 0.12912789E+03</pdfrwt>
<pdfrwt beam="1">  1       -4 0.13701626E-01 0.12912789E+03</pdfrwt>
<totfact> 0.44350977E+04</totfact>
</mgrwt>
</event>
<event>
 6    4  0.3189516E-003  0.1349857E+03  0.7818608E-02  0.1220240E+00
         21   -1    0    0  501  502  0.00000000000E+00  0.00000000000E+00  0.43136146094E+03  0.43136146094E+03  0.00000000000E+00 0. -1.
          4   -1    0    0  502    0 -0.00000000000E+00 -0.00000000000E+00 -0.20918271544E+02  0.20956788503E+02  0.12700000000E+01 0. -1.
         25    2    1    2    0    0  0.50941164887E+02 -0.98016703267E+00  0.25195022621E+03  0.28583222814E+03  0.12500073261E+03 0.  0.
    9000005    1    3    3    0    0  0.75232658120E+02  0.94448542625E+01  0.24769101125E+03  0.25903859785E+03  0.10000000000E+01 0.  0.
    9000005    1    3    3    0    0 -0.24291493233E+02 -0.10425021295E+02  0.42592149564E+01  0.26793630298E+02  0.10000000000E+01 0.  0.
          4    1    1    2  501    0 -0.50941164887E+02  0.98016703267E+00  0.15849296318E+03  0.16648602129E+03  0.12700000000E+01 0.  1.
<mgrwt>
<rscale>  1 0.13498573E+03</rscale>
<asrwt>0</asrwt>
<pdfrwt beam="1">  1       21 0.66363295E-01 0.13498573E+03</pdfrwt>
<pdfrwt beam="2">  1        4 0.32213026E-02 0.13498573E+03</pdfrwt>
<totfact> 0.41053357E+04</totfact>
</mgrwt>
</event>
<event>
 6    4  0.3189516E-003  0.1284680E+03  0.7818608E-02  0.1229747E+00
          4   -1    0    0  502    0 -0.00000000000E+00  0.00000000000E+00  0.56877973357E+02  0.56892150190E+02  0.12700000000E+01 0.  1.
         21   -1    0    0  501  502  0.00000000000E+00 -0.00000000000E+00 -0.20328694797E+03  0.20328694797E+03  0.00000000000E+00 0. -1.
         25    2    1    2    0    0 -0.43812920084E+01 -0.29330856805E+02 -0.19614947597E+02  0.12995685326E+03  0.12499817062E+03 0.  0.
    9000005    1    3    3    0    0 -0.44589871425E+02  0.18701150692E+02 -0.41365410214E+02  0.63640292528E+02  0.10000000000E+01 0.  0.
    9000005    1    3    3    0    0  0.40208579416E+02 -0.48032007497E+02  0.21750462617E+02  0.66316560729E+02  0.10000000000E+01 0.  0.
          4    1    1    2  501    0  0.43812920084E+01  0.29330856805E+02 -0.12679402702E+03  0.13022224491E+03  0.12700000000E+01 0. -1.
<mgrwt>
<rscale>  1 0.12846804E+03</rscale>
<asrwt>0</asrwt>
<pdfrwt beam="2">  1       21 0.31274915E-01 0.12846804E+03</pdfrwt>
<pdfrwt beam="1">  1        4 0.87518531E-02 0.12846804E+03</pdfrwt>
<totfact> 0.37776186E+04</totfact>
</mgrwt>
</event>
<event>
 6    4  0.3189516E-003  0.1324698E+03  0.7818608E-02  0.1223836E+00
         -4   -1    0    0    0  501 -0.00000000000E+00  0.00000000000E+00  0.23545178318E+03  0.23545520827E+03  0.12700000000E+01 0. -1.
         21   -1    0    0  501  502  0.00000000000E+00 -0.00000000000E+00 -0.45003405255E+02  0.45003405255E+02  0.00000000000E+00 0.  1.
         25    2    1    2    0    0  0.23965078876E+02 -0.36699178271E+02  0.19567540384E+03  0.23629879705E+03  0.12500841223E+03 0.  0.
    9000005    1    3    3    0    0 -0.24540842221E+02 -0.30623905587E+02  0.51422992803E+01  0.39591915491E+02  0.10000000000E+01 0.  0.
    9000005    1    3    3    0    0  0.48505921098E+02 -0.60752726834E+01  0.19053310456E+03  0.19670688156E+03  0.10000000000E+01 0.  0.
         -4    1    1    2    0  502 -0.23965078876E+02  0.36699178271E+02 -0.52270259154E+01  0.44159816476E+02  0.12700000000E+01 0.  1.
<mgrwt>
<rscale>  1 0.13246984E+03</rscale>
<asrwt>0</asrwt>
<pdfrwt beam="2">  1       21 0.69236010E-02 0.13246984E+03</pdfrwt>
<pdfrwt beam="1">  1       -4 0.36224992E-01 0.13246984E+03</pdfrwt>
<totfact> 0.45963393E+04</totfact>
</mgrwt>
</event>
<event>
 6    4  0.3189516E-003  0.1397824E+03  0.7818608E-02  0.1213622E+00
         -4   -1    0    0    0  501 -0.00000000000E+00  0.00000000000E+00  0.61162465872E+02  0.61175649825E+02  0.12700000000E+01 0. -1.
         21   -1    0    0  501  502  0.00000000000E+00 -0.00000000000E+00 -0.40952832247E+03  0.40952832247E+03  0.00000000000E+00 0.  1.
         25    2    1    2    0    0 -0.22170685767E+02 -0.58505109571E+02 -0.25824163083E+02  0.14214782168E+03  0.12499891462E+03 0.  0.
    9000005    1    3    3    0    0 -0.67755427878E+02 -0.60521011383E+02 -0.31490028387E+02  0.96157229128E+02  0.10000000000E+01 0.  0.
    9000005    1    3    3    0    0  0.45584742111E+02  0.20159018121E+01  0.56658653033E+01  0.45990592550E+02  0.10000000000E+01 0.  0.
         -4    1    1    2    0  502  0.22170685767E+02  0.58505109571E+02 -0.32254169351E+03  0.32855615062E+03  0.12700000000E+01 0.  1.
<mgrwt>
<rscale>  1 0.13978239E+03</rscale>
<asrwt>0</asrwt>
<pdfrwt beam="2">  1       21 0.63004356E-01 0.13978239E+03</pdfrwt>
<pdfrwt beam="1">  1       -4 0.94107759E-02 0.13978239E+03</pdfrwt>
<totfact> 0.81109085E+03</totfact>
</mgrwt>
</event>
<event>
 6    4  0.3189516E-003  0.1504373E+03  0.7818608E-02  0.1199937E+00
         21   -1    0    0  501  502  0.00000000000E+00  0.00000000000E+00  0.38772641638E+03  0.38772641638E+03  0.00000000000E+00 0. -1.
          4   -1    0    0  502    0 -0.00000000000E+00 -0.00000000000E+00 -0.16547826401E+03  0.16548313739E+03  0.12700000000E+01 0.  1.
         25    2    1    2    0    0 -0.12833798996E+02 -0.82730607041E+02 -0.12525873878E+03  0.19575786188E+03  0.12498931598E+03 0.  0.
    9000005    1    3    3    0    0  0.43264767048E+02 -0.42127821193E+01 -0.85422630399E+01  0.44312050942E+02  0.10000000000E+01 0.  0.
    9000005    1    3    3    0    0 -0.56098566044E+02 -0.78517824922E+02 -0.11671647574E+03  0.15144581094E+03  0.10000000000E+01 0.  0.
          4    1    1    2  501    0  0.12833798996E+02  0.82730607041E+02  0.34750689115E+03  0.35745169189E+03  0.12700000000E+01 0. -1.
<mgrwt>
<rscale>  1 0.15043733E+03</rscale>
<asrwt>0</asrwt>
<pdfrwt beam="1">  1       21 0.59650218E-01 0.15043733E+03</pdfrwt>
<pdfrwt beam="2">  1        4 0.25458729E-01 0.15043733E+03</pdfrwt>
<totfact> 0.15905751E+03</totfact>
</mgrwt>
</event>
<event>
 6    4  0.3189516E-003  0.1364575E+03  0.7818608E-02  0.1218177E+00
         -4   -1    0    0    0  501 -0.00000000000E+00  0.00000000000E+00  0.17542110921E+02  0.17588023072E+02  0.12700000000E+01 0. -1.
         21   -1    0    0  501  502  0.00000000000E+00 -0.00000000000E+00 -0.62670439230E+03  0.62670439230E+03  0.00000000000E+00 0.  1.
         25    2    1    2    0    0  0.52131559829E+02 -0.16644091514E+02 -0.29037866209E+03  0.32084329396E+03  0.12500370623E+03 0.  0.
    9000005    1    3    3    0    0  0.18288337786E+02  0.32062377403E+02 -0.16202087872E+02  0.40323281056E+02  0.10000000000E+01 0.  0.
    9000005    1    3    3    0    0  0.33843222043E+02 -0.48706468916E+02 -0.27417657421E+03  0.28052001290E+03  0.10000000000E+01 0.  0.
         -4    1    1    2    0  502 -0.52131559829E+02  0.16644091514E+02 -0.31878361929E+03  0.32344912141E+03  0.12700000000E+01 0.  1.
<mgrwt>
<rscale>  1 0.13645751E+03</rscale>
<asrwt>0</asrwt>
<pdfrwt beam="2">  1       21 0.96416077E-01 0.13645751E+03</pdfrwt>
<pdfrwt beam="1">  1       -4 0.27024165E-02 0.13645751E+03</pdfrwt>
<totfact> 0.23435489E+04</totfact>
</mgrwt>
</event>
<event>
 6    4  0.3189516E-003  0.1269935E+03  0.7818608E-02  0.1231986E+00
         21   -1    0    0  501  502  0.00000000000E+00  0.00000000000E+00  0.10345685225E+04  0.10345685225E+04  0.00000000000E+00 0. -1.
          4   -1    0    0  502    0 -0.00000000000E+00 -0.00000000000E+00 -0.54903992705E+01  0.56353690340E+01  0.12700000000E+01 0. -1.
         25    2    1    2    0    0 -0.14394380532E+02  0.17208981839E+02  0.79877270731E+03  0.80880478880E+03  0.12499600468E+03 0.  0.
    9000005    1    3    3    0    0  0.33658896573E+02  0.30508350154E+02  0.12183273038E+03  0.13003036160E+03  0.10000000000E+01 0.  0.
    9000005    1    3    3    0    0 -0.48053277105E+02 -0.13299368315E+02  0.67693997694E+03  0.67877442719E+03  0.10000000000E+01 0.  0.
          4    1    1    2  501    0  0.14394380532E+02 -0.17208981839E+02  0.23030541590E+03  0.23139910272E+03  0.12700000000E+01 0.  1.
<mgrwt>
<rscale>  1 0.12699350E+03</rscale>
<asrwt>0</asrwt>
<pdfrwt beam="1">  1       21 0.15916423E+00 0.12699350E+03</pdfrwt>
<pdfrwt beam="2">  1        4 0.85588912E-03 0.12699350E+03</pdfrwt>
<totfact> 0.39094073E+04</totfact>
</mgrwt>
</event>
<event>
 6    4  0.3189516E-003  0.1420464E+03  0.7818608E-02  0.1210602E+00
         -4   -1    0    0    0  501 -0.00000000000E+00  0.00000000000E+00  0.72541773186E+02  0.72552889377E+02  0.12700000000E+01 0. -1.
         21   -1    0    0  501  502  0.00000000000E+00 -0.00000000000E+00 -0.32694602862E+03  0.32694602862E+03  0.00000000000E+00 0.  1.
         25    2    1    2    0    0 -0.15087381119E+02 -0.65765373816E+02 -0.60893144791E+01  0.14217687024E+03  0.12499787685E+03 0.  0.
    9000005    1    3    3    0    0  0.34762366530E+02 -0.82249168277E+02 -0.77653535009E+01  0.89636200968E+02  0.10000000000E+01 0.  0.
    9000005    1    3    3    0    0 -0.49849747649E+02  0.16483794461E+02  0.16760390218E+01  0.52540669269E+02  0.10000000000E+01 0.  0.
         -4    1    1    2    0  502  0.15087381119E+02  0.65765373816E+02 -0.24831494096E+03  0.25732204776E+03  0.12700000000E+01 0.  1.
<mgrwt>
<rscale>  1 0.14204641E+03</rscale>
<asrwt>0</asrwt>
<pdfrwt beam="2">  1       21 0.50299389E-01 0.14204641E+03</pdfrwt>
<pdfrwt beam="1">  1       -4 0.11161318E-01 0.14204641E+03</pdfrwt>
<totfact> 0.97819178E+03</totfact>
</mgrwt>
</event>
<event>
 6    4  0.3189516E-003  0.1334958E+03  0.7818608E-02  0.1222359E+00
         -4   -1    0    0    0  501 -0.00000000000E+00  0.00000000000E+00  0.12253187178E+03  0.12253845315E+03  0.12700000000E+01 0. -1.
         21   -1    0    0  501  502  0.00000000000E+00 -0.00000000000E+00 -0.17198135561E+03  0.17198135561E+03  0.00000000000E+00 0.  1.
         25    2    1    2    0    0 -0.39509925188E+02 -0.25195270047E+02  0.80832496714E+02  0.15606099476E+03  0.12500122295E+03 0.  0.
    9000005    1    3    3    0    0 -0.30107296217E+02  0.47954384692E+02  0.18754183571E+02  0.59655609108E+02  0.10000000000E+01 0.  0.
    9000005    1    3    3    0    0 -0.94026289708E+01 -0.73149654738E+02  0.62078313143E+02  0.96405385651E+02  0.10000000000E+01 0.  0.
         -4    1    1    2    0  502  0.39509925188E+02  0.25195270047E+02 -0.13028198054E+03  0.13845881400E+03  0.12700000000E+01 0.  1.
<mgrwt>
<rscale>  1 0.13349585E+03</rscale>
<asrwt>0</asrwt>
<pdfrwt beam="2">  1       21 0.26458670E-01 0.13349585E+03</pdfrwt>
<pdfrwt beam="1">  1       -4 0.18851924E-01 0.13349585E+03</pdfrwt>
<totfact> 0.13950325E+04</totfact>
</mgrwt>
</event>
<event>
 6    4  0.3189516E-003  0.1321084E+03  0.7818608E-02  0.1224360E+00
          4   -1    0    0  502    0 -0.00000000000E+00  0.00000000000E+00  0.20949956409E+03  0.20950341347E+03  0.12700000000E+01 0. -1.
         21   -1    0    0  501  502  0.00000000000E+00 -0.00000000000E+00 -0.18013960806E+03  0.18013960806E+03  0.00000000000E+00 0.  1.
         25    2    1    2    0    0 -0.42723882270E+02 -0.74810561356E+00  0.18551257248E+03  0.22774446594E+03  0.12500694958E+03 0.  0.
    9000005    1    3    3    0    0 -0.39489550956E+02 -0.56178964746E+02  0.62843519488E+02  0.93090325256E+02  0.10000000000E+01 0.  0.
    9000005    1    3    3    0    0 -0.32343313136E+01  0.55430859132E+02  0.12266905299E+03  0.13465414069E+03  0.10000000000E+01 0.  0.
          4    1    1    2  501    0  0.42723882270E+02  0.74810561356E+00 -0.15615261644E+03  0.16189855558E+03  0.12700000000E+01 0.  1.
<mgrwt>
<rscale>  1 0.13210839E+03</rscale>
<asrwt>0</asrwt>
<pdfrwt beam="2">  1       21 0.27713786E-01 0.13210839E+03</pdfrwt>
<pdfrwt beam="1">  1        4 0.32231343E-01 0.13210839E+03</pdfrwt>
<totfact> 0.47464745E+03</totfact>
</mgrwt>
</event>
<event>
 6    4  0.3189516E-003  0.1462375E+03  0.7818608E-02  0.1205174E+00
         21   -1    0    0  501  502  0.00000000000E+00  0.00000000000E+00  0.51783178149E+03  0.51783178149E+03  0.00000000000E+00 0. -1.
          4   -1    0    0  502    0 -0.00000000000E+00 -0.00000000000E+00 -0.52125958580E+02  0.52141427463E+02  0.12700000000E+01 0.  1.
         25    2    1    2    0    0 -0.74292654819E+02 -0.15542038662E+02  0.61403027098E+02  0.15860559097E+03  0.12499779288E+03 0.  0.
    9000005    1    3    3    0    0 -0.10346984679E+03 -0.36999418636E+02  0.48872271919E+02  0.12026830479E+03  0.10000000000E+01 0.  0.
    9000005    1    3    3    0    0  0.29177191968E+02  0.21457379973E+02  0.12530755179E+02  0.38337286182E+02  0.10000000000E+01 0.  0.
          4    1    1    2  501    0  0.74292654819E+02  0.15542038662E+02  0.40430279582E+03  0.41136761799E+03  0.12700000000E+01 0. -1.
<mgrwt>
<rscale>  1 0.14623748E+03</rscale>
<asrwt>0</asrwt>
<pdfrwt beam="1">  1       21 0.79666424E-01 0.14623748E+03</pdfrwt>
<pdfrwt beam="2">  1        4 0.80206883E-02 0.14623748E+03</pdfrwt>
<totfact> 0.63481572E+03</totfact>
</mgrwt>
</event>
<event>
 6    4  0.3189516E-003  0.1300973E+03  0.7818608E-02  0.1227311E+00
         -4   -1    0    0    0  501 -0.00000000000E+00  0.00000000000E+00  0.34325975383E+03  0.34326210321E+03  0.12700000000E+01 0. -1.
         21   -1    0    0  501  502  0.00000000000E+00 -0.00000000000E+00 -0.83802548986E+02  0.83802548986E+02  0.00000000000E+00 0.  1.
         25    2    1    2    0    0  0.26102641978E+02 -0.24883675905E+02  0.32620285279E+03  0.35118883481E+03  0.12499900512E+03 0.  0.
    9000005    1    3    3    0    0  0.58140682432E+02  0.12744562815E+02  0.26936145716E+03  0.27586111984E+03  0.10000000000E+01 0.  0.
    9000005    1    3    3    0    0 -0.32038040454E+02 -0.37628238720E+02  0.56841395633E+02  0.75327714971E+02  0.10000000000E+01 0.  0.
         -4    1    1    2    0  502 -0.26102641978E+02  0.24883675905E+02 -0.66745647945E+02  0.75875817389E+02  0.12700000000E+01 0.  1.
<mgrwt>
<rscale>  1 0.13009726E+03</rscale>
<asrwt>0</asrwt>
<pdfrwt beam="2">  1       21 0.12892700E-01 0.13009726E+03</pdfrwt>
<pdfrwt beam="1">  1       -4 0.52810113E-01 0.13009726E+03</pdfrwt>
<totfact> 0.73141555E+03</totfact>
</mgrwt>
</event>
<event>
 6    4  0.3189516E-003  0.1384961E+03  0.7818608E-02  0.1215367E+00
         21   -1    0    0  501  502  0.00000000000E+00  0.00000000000E+00  0.18421784612E+03  0.18421784612E+03  0.00000000000E+00 0. -1.
          4   -1    0    0  502    0 -0.00000000000E+00 -0.00000000000E+00 -0.60300382986E+02  0.60313755381E+02  0.12700000000E+01 0. -1.
         25    2    1    2    0    0  0.24430548651E+02  0.54404935929E+02  0.45036212706E+02  0.14563461808E+03  0.12499773105E+03 0.  0.
    9000005    1    3    3    0    0  0.35958009872E+02 -0.32943838613E+02  0.26800464599E+02  0.55655546706E+02  0.10000000000E+01 0.  0.
    9000005    1    3    3    0    0 -0.11527461220E+02  0.87348774541E+02  0.18235748108E+02  0.89979071373E+02  0.10000000000E+01 0.  0.
          4    1    1    2  501    0 -0.24430548651E+02 -0.54404935929E+02  0.78881250425E+02  0.98896983420E+02  0.12700000000E+01 0.  1.
<mgrwt>
<rscale>  1 0.13849614E+03</rscale>
<asrwt>0</asrwt>
<pdfrwt beam="1">  1       21 0.28341207E-01 0.13849614E+03</pdfrwt>
<pdfrwt beam="2">  1        4 0.92783475E-02 0.13849614E+03</pdfrwt>
<totfact> 0.41772428E+04</totfact>
</mgrwt>
</event>
<event>
 6    4  0.3189516E-003  0.1272189E+03  0.7818608E-02  0.1231642E+00
         -4   -1    0    0    0  501 -0.00000000000E+00  0.00000000000E+00  0.23333802405E+03  0.23334148017E+03  0.12700000000E+01 0. -1.
         21   -1    0    0  501  502  0.00000000000E+00 -0.00000000000E+00 -0.47137713220E+02  0.47137713220E+02  0.00000000000E+00 0. -1.
         25    2    1    2    0    0  0.15239858892E+02 -0.18088013477E+02  0.21087342341E+03  0.24627678243E+03  0.12500089332E+03 0.  0.
    9000005    1    3    3    0    0  0.29824750338E+02 -0.62758010941E+02  0.73796367563E+02  0.10136561318E+03  0.10000000000E+01 0.  0.
    9000005    1    3    3    0    0 -0.14584891446E+02  0.44669997464E+02  0.13707705585E+03  0.14491116925E+03  0.10000000000E+01 0.  0.
         -4    1    1    2    0  502 -0.15239858892E+02  0.18088013477E+02 -0.24673112587E+02  0.34202410958E+02  0.12700000000E+01 0.  1.
<mgrwt>
<rscale>  1 0.12721892E+03</rscale>
<asrwt>0</asrwt>
<pdfrwt beam="2">  1       21 0.72519561E-02 0.12721892E+03</pdfrwt>
<pdfrwt beam="1">  1       -4 0.35899739E-01 0.12721892E+03</pdfrwt>
<totfact> 0.42982376E+04</totfact>
</mgrwt>
</event>
<event>
 6    4  0.3189516E-003  0.1396509E+03  0.7818608E-02  0.1213799E+00
          4   -1    0    0  502    0 -0.00000000000E+00  0.00000000000E+00  0.19069579836E+03  0.19070002730E+03  0.12700000000E+01 0.  1.
         21   -1    0    0  501  502  0.00000000000E+00 -0.00000000000E+00 -0.54153725781E+02  0.54153725781E+02  0.00000000000E+00 0.  1.
         25    2    1    2    0    0 -0.48791269067E+02  0.38675992894E+02  0.10698832077E+03  0.17592293624E+03  0.12500383335E+03 0.  0.
    9000005    1    3    3    0    0  0.31395516789E+02  0.49471457420E+02  0.41161387272E+02  0.71612592300E+02  0.10000000000E+01 0.  0.
    9000005    1    3    3    0    0 -0.80186785856E+02 -0.10795464525E+02  0.65826933496E+02  0.10431034394E+03  0.10000000000E+01 0.  0.
          4    1    1    2  501    0  0.48791269067E+02 -0.38675992894E+02  0.29553751808E+02  0.68930816834E+02  0.12700000000E+01 0. -1.
<mgrwt>
<rscale>  1 0.13965092E+03</rscale>
<asrwt>0</asrwt>
<pdfrwt beam="2">  1       21 0.83313425E-02 0.13965092E+03</pdfrwt>
<pdfrwt beam="1">  1        4 0.29339286E-01 0.13965092E+03</pdfrwt>
<totfact> 0.50330435E+04</totfact>
</mgrwt>
</event>
<event>
 6    4  0.3189516E-003  0.1267320E+03  0.7818608E-02  0.1232387E+00
          4   -1    0    0  502    0 -0.00000000000E+00  0.00000000000E+00  0.85354814660E+02  0.85364262345E+02  0.12700000000E+01 0.  1.
         21   -1    0    0  501  502  0.00000000000E+00 -0.00000000000E+00 -0.66578793348E+02  0.66578793348E+02  0.00000000000E+00 0.  1.
         25    2    1    2    0    0 -0.46132551601E+01 -0.20392237367E+02  0.26760894187E+02  0.12952662059E+03  0.12499549798E+03 0.  0.
    9000005    1    3    3    0    0 -0.41061962455E+02  0.33543960879E+02 -0.11147017059E+02  0.54189833561E+02  0.10000000000E+01 0.  0.
    9000005    1    3    3    0    0  0.36448707294E+02 -0.53936198245E+02  0.37907911246E+02  0.75336787028E+02  0.10000000000E+01 0.  0.
          4    1    1    2  501    0  0.46132551601E+01  0.20392237367E+02 -0.79848728750E+01  0.22416435105E+02  0.12700000000E+01 0. -1.
<mgrwt>
<rscale>  1 0.12673200E+03</rscale>
<asrwt>0</asrwt>
<pdfrwt beam="2">  1       21 0.10242891E-01 0.12673200E+03</pdfrwt>
<pdfrwt beam="1">  1        4 0.13133168E-01 0.12673200E+03</pdfrwt>
<totfact> 0.14700861E+05</totfact>
</mgrwt>
</event>
<event>
 6    4  0.3189516E-003  0.1331603E+03  0.7818608E-02  0.1222840E+00
         -4   -1    0    0    0  501 -0.00000000000E+00  0.00000000000E+00  0.65998600560E+02  0.66010818628E+02  0.12700000000E+01 0. -1.
         21   -1    0    0  501  502  0.00000000000E+00 -0.00000000000E+00 -0.12164400448E+03  0.12164400448E+03  0.00000000000E+00 0. -1.
         25    2    1    2    0    0  0.14828901101E+02 -0.43428674453E+02 -0.44668217550E+02  0.14045251815E+03  0.12500285646E+03 0.  0.
    9000005    1    3    3    0    0  0.64058848033E+02 -0.52819190604E+02 -0.27733115021E+02  0.87541581983E+02  0.10000000000E+01 0.  0.
    9000005    1    3    3    0    0 -0.49229946932E+02  0.93905161518E+01 -0.16935102529E+02  0.52910936168E+02  0.10000000000E+01 0.  0.
         -4    1    1    2    0  502 -0.14828901101E+02  0.43428674453E+02 -0.10977186369E+02  0.47202304956E+02  0.12700000000E+01 0.  1.
<mgrwt>
<rscale>  1 0.13316028E+03</rscale>
<asrwt>0</asrwt>
<pdfrwt beam="2">  1       21 0.18714462E-01 0.13316028E+03</pdfrwt>
<pdfrwt beam="1">  1       -4 0.10155081E-01 0.13316028E+03</pdfrwt>
<totfact> 0.77879463E+04</totfact>
</mgrwt>
</event>
<event>
 6    4  0.3189516E-003  0.1290887E+03  0.7818608E-02  0.1228814E+00
         -4   -1    0    0    0  501 -0.00000000000E+00  0.00000000000E+00  0.16697554060E+02  0.16745781905E+02  0.12700000000E+01 0. -1.
         21   -1    0    0  501  502  0.00000000000E+00 -0.00000000000E+00 -0.42563398939E+03  0.42563398939E+03  0.00000000000E+00 0. -1.
         25    2    1    2    0    0 -0.28395528069E+02  0.15245740569E+02 -0.26365122041E+03  0.29355724210E+03  0.12500059900E+03 0.  0.
    9000005    1    3    3    0    0  0.94473693846E+01  0.63556335856E+02 -0.10099407843E+03  0.11970574127E+03  0.10000000000E+01 0.  0.
    9000005    1    3    3    0    0 -0.37842897454E+02 -0.48310595288E+02 -0.16265714198E+03  0.17385150083E+03  0.10000000000E+01 0.  0.
         -4    1    1    2    0  502  0.28395528069E+02 -0.15245740569E+02 -0.14528521492E+03  0.14882252919E+03  0.12700000000E+01 0.  1.
<mgrwt>
<rscale>  1 0.12908868E+03</rscale>
<asrwt>0</asrwt>
<pdfrwt beam="2">  1       21 0.65482162E-01 0.12908868E+03</pdfrwt>
<pdfrwt beam="1">  1       -4 0.25727097E-02 0.12908868E+03</pdfrwt>
<totfact> 0.59765398E+04</totfact>
</mgrwt>
</event>
<event>
 6    4  0.3189516E-003  0.1297401E+03  0.7818608E-02  0.1227842E+00
         -4   -1    0    0    0  501 -0.00000000000E+00  0.00000000000E+00  0.10620422967E+02  0.10696087322E+02  0.12700000000E+01 0.  1.
         21   -1    0    0  501  502  0.00000000000E+00 -0.00000000000E+00 -0.71970942379E+03  0.71970942379E+03  0.00000000000E+00 0.  1.
         25    2    1    2    0    0 -0.19201934237E+02 -0.28993857214E+02 -0.42974364365E+03  0.44890098271E+03  0.12499253973E+03 0.  0.
    9000005    1    3    3    0    0 -0.40655196745E+01  0.51212804108E+01 -0.40281001144E+03  0.40286432118E+03  0.10000000000E+01 0.  0.
    9000005    1    3    3    0    0 -0.15136414563E+02 -0.34115137625E+02 -0.26933632204E+02  0.46036661528E+02  0.10000000000E+01 0.  0.
         -4    1    1    2    0  502  0.19201934237E+02  0.28993857214E+02 -0.27934535718E+03  0.28150452840E+03  0.12700000000E+01 0. -1.
<mgrwt>
<rscale>  1 0.12974010E+03</rscale>
<asrwt>0</asrwt>
<pdfrwt beam="2">  1       21 0.11072453E+00 0.12974010E+03</pdfrwt>
<pdfrwt beam="1">  1       -4 0.16398177E-02 0.12974010E+03</pdfrwt>
<totfact> 0.36384669E+04</totfact>
</mgrwt>
</event>
<event>
 6    4  0.3189516E-003  0.1279535E+03  0.7818608E-02  0.1230524E+00
          4   -1    0    0  502    0 -0.00000000000E+00  0.00000000000E+00  0.11394077844E+02  0.11464637365E+02  0.12700000000E+01 0. -1.
         21   -1    0    0  501  502  0.00000000000E+00 -0.00000000000E+00 -0.77388563187E+03  0.77388563187E+03  0.00000000000E+00 0. -1.
         25    2    1    2    0    0  0.17250435652E+01 -0.27274265930E+02 -0.36241413268E+03  0.38433852710E+03  0.12500095396E+03 0.  0.
    9000005    1    3    3    0    0  0.23986280278E+02  0.15112282933E+02 -0.31724157861E+03  0.31850736559E+03  0.10000000000E+01 0.  0.
    9000005    1    3    3    0    0 -0.22261236713E+02 -0.42386548863E+02 -0.45172554066E+02  0.65831161507E+02  0.10000000000E+01 0.  0.
          4    1    1    2  501    0 -0.17250435652E+01  0.27274265930E+02 -0.40007742135E+03  0.40101174214E+03  0.12700000000E+01 0.  1.
<mgrwt>
<rscale>  1 0.12795351E+03</rscale>
<asrwt>0</asrwt>
<pdfrwt beam="2">  1       21 0.11905936E+00 0.12795351E+03</pdfrwt>
<pdfrwt beam="1">  1        4 0.17584424E-02 0.12795351E+03</pdfrwt>
<totfact> 0.27425631E+04</totfact>
</mgrwt>
</event>
<event>
 6    4  0.3189516E-003  0.1268123E+03  0.7818608E-02  0.1232264E+00
         21   -1    0    0  501  502  0.00000000000E+00  0.00000000000E+00  0.26396717039E+03  0.26396717039E+03  0.00000000000E+00 0.  1.
         -4   -1    0    0    0  501 -0.00000000000E+00 -0.00000000000E+00 -0.27364755809E+02  0.27394210346E+02  0.12700000000E+01 0.  1.
         25    2    1    2    0    0  0.18507642858E+02 -0.10640842575E+02  0.12620208100E+03  0.17890869322E+03  0.12500237952E+03 0.  0.
    9000005    1    3    3    0    0  0.23794925983E+02  0.47610017645E+02  0.10306339511E+03  0.11599989523E+03  0.10000000000E+01 0.  0.
    9000005    1    3    3    0    0 -0.52872831251E+01 -0.58250860220E+02  0.23138685890E+02  0.62908797985E+02  0.10000000000E+01 0.  0.
         -4    1    1    2    0  502 -0.18507642858E+02  0.10640842575E+02  0.11040033358E+03  0.11245268751E+03  0.12700000000E+01 0. -1.
<mgrwt>
<rscale>  1 0.12681228E+03</rscale>
<asrwt>0</asrwt>
<pdfrwt beam="1">  1       21 0.40610332E-01 0.12681228E+03</pdfrwt>
<pdfrwt beam="2">  1       -4 0.42124634E-02 0.12681228E+03</pdfrwt>
<totfact> 0.74035101E+04</totfact>
</mgrwt>
</event>
<event>
 6    4  0.3189516E-003  0.1504632E+03  0.7818608E-02  0.1199905E+00
         21   -1    0    0  501  502  0.00000000000E+00  0.00000000000E+00  0.14475759597E+04  0.14475759597E+04  0.00000000000E+00 0.  1.
         -4   -1    0    0    0  501 -0.00000000000E+00 -0.00000000000E+00 -0.13562922316E+02  0.13622252448E+02  0.12700000000E+01 0. -1.
         25    2    1    2    0    0  0.65441001682E+01  0.83490764995E+02  0.46871296701E+03  0.49227129445E+03  0.12500259519E+03 0.  0.
    9000005    1    3    3    0    0  0.15149062383E+02 -0.30895527711E+02  0.82835281100E+02  0.89703464362E+02  0.10000000000E+01 0.  0.
    9000005    1    3    3    0    0 -0.86049622147E+01  0.11438629271E+03  0.38587768591E+03  0.40256783008E+03  0.10000000000E+01 0.  0.
         -4    1    1    2    0  502 -0.65441001682E+01 -0.83490764995E+02  0.96530007034E+03  0.96892691767E+03  0.12700000000E+01 0.  1.
<mgrwt>
<rscale>  1 0.15046322E+03</rscale>
<asrwt>0</asrwt>
<pdfrwt beam="1">  1       21 0.22270387E+00 0.15046322E+03</pdfrwt>
<pdfrwt beam="2">  1       -4 0.20912113E-02 0.15046322E+03</pdfrwt>
<totfact> 0.38938407E+03</totfact>
</mgrwt>
</event>
<event>
 6    4  0.3189516E-003  0.1308504E+03  0.7818608E-02  0.1226199E+00
         -4   -1    0    0    0  501 -0.00000000000E+00  0.00000000000E+00  0.23338337719E+03  0.23338683264E+03  0.12700000000E+01 0. -1.
         21   -1    0    0  501  502  0.00000000000E+00 -0.00000000000E+00 -0.33568326194E+02  0.33568326194E+02  0.00000000000E+00 0. -1.
         25    2    1    2    0    0 -0.65950193874E+01 -0.38115230580E+02  0.18248529194E+03  0.22454998779E+03  0.12500220060E+03 0.  0.
    9000005    1    3    3    0    0 -0.15302085710E+02 -0.81918428793E+02  0.13983908789E+03  0.16279051971E+03  0.10000000000E+01 0.  0.
    9000005    1    3    3    0    0  0.87070663228E+01  0.43803198214E+02  0.42646204049E+02  0.61759468080E+02  0.10000000000E+01 0.  0.
         -4    1    1    2    0  502  0.65950193874E+01  0.38115230580E+02  0.17329759056E+02  0.42405171050E+02  0.12700000000E+01 0.  1.
<mgrwt>
<rscale>  1 0.13085035E+03</rscale>
<asrwt>0</asrwt>
<pdfrwt beam="2">  1       21 0.51643580E-02 0.13085035E+03</pdfrwt>
<pdfrwt beam="1">  1       -4 0.35907248E-01 0.13085035E+03</pdfrwt>
<totfact> 0.76750658E+04</totfact>
</mgrwt>
</event>
<event>
 6    4  0.3189516E-003  0.1336549E+03  0.7818608E-02  0.1222131E+00
         -4   -1    0    0    0  501 -0.00000000000E+00  0.00000000000E+00  0.25632528428E+02  0.25663971119E+02  0.12700000000E+01 0.  1.
         21   -1    0    0  501  502  0.00000000000E+00 -0.00000000000E+00 -0.42278983145E+03  0.42278983145E+03  0.00000000000E+00 0.  1.
         25    2    1    2    0    0 -0.35708356518E+02 -0.30996320872E+02 -0.16909761558E+03  0.21554031526E+03  0.12501106061E+03 0.  0.
    9000005    1    3    3    0    0 -0.22523182164E+02 -0.17129815446E+02 -0.18711134111E+03  0.18924158709E+03  0.10000000000E+01 0.  0.
    9000005    1    3    3    0    0 -0.13185174354E+02 -0.13866505426E+02  0.18013725537E+02  0.26298728167E+02  0.10000000000E+01 0.  0.
         -4    1    1    2    0  502  0.35708356518E+02  0.30996320872E+02 -0.22805968745E+03  0.23291348731E+03  0.12700000000E+01 0. -1.
<mgrwt>
<rscale>  1 0.13365487E+03</rscale>
<asrwt>0</asrwt>
<pdfrwt beam="2">  1       21 0.65044588E-01 0.13365487E+03</pdfrwt>
<pdfrwt beam="1">  1       -4 0.39460314E-02 0.13365487E+03</pdfrwt>
<totfact> 0.31089440E+04</totfact>
</mgrwt>
</event>
<event>
 6    4  0.3189516E-003  0.1438624E+03  0.7818608E-02  0.1208224E+00
         21   -1    0    0  501  502  0.00000000000E+00  0.00000000000E+00  0.38560481820E+02  0.38560481820E+02  0.00000000000E+00 0. -1.
          4   -1    0    0  502    0 -0.00000000000E+00 -0.00000000000E+00 -0.40680636886E+03  0.40680835125E+03  0.12700000000E+01 0. -1.
         25    2    1    2    0    0 -0.54016963203E+02 -0.46399720705E+02 -0.33921149377E+03  0.36845735611E+03  0.12500247747E+03 0.  0.
    9000005    1    3    3    0    0  0.20492073381E+02  0.28360238864E+02 -0.54123732594E+02  0.64456238253E+02  0.10000000000E+01 0.  0.
    9000005    1    3    3    0    0 -0.74509036584E+02 -0.74759959569E+02 -0.28508776118E+03  0.30400111786E+03  0.10000000000E+01 0.  0.
          4    1    1    2  501    0  0.54016963203E+02  0.46399720705E+02 -0.29034393274E+02  0.76911476958E+02  0.12700000000E+01 0.  1.
<mgrwt>
<rscale>  1 0.14386238E+03</rscale>
<asrwt>0</asrwt>
<pdfrwt beam="1">  1       21 0.59323816E-02 0.14386238E+03</pdfrwt>
<pdfrwt beam="2">  1        4 0.62587358E-01 0.14386238E+03</pdfrwt>
<totfact> 0.19959865E+04</totfact>
</mgrwt>
</event>
<event>
 6    4  0.3189516E-003  0.1365231E+03  0.7818608E-02  0.1218085E+00
          4   -1    0    0  502    0 -0.00000000000E+00  0.00000000000E+00  0.26532011855E+03  0.26532315806E+03  0.12700000000E+01 0. -1.
         21   -1    0    0  501  502  0.00000000000E+00 -0.00000000000E+00 -0.38413648701E+02  0.38413648701E+02  0.00000000000E+00 0. -1.
         25    2    1    2    0    0  0.18163058956E+02  0.51808448537E+02  0.20109332741E+03  0.24305778837E+03  0.12499820043E+03 0.  0.
    9000005    1    3    3    0    0 -0.84036403566E+01  0.89685082617E+02  0.12713055861E+03  0.15581146989E+03  0.10000000000E+01 0.  0.
    9000005    1    3    3    0    0  0.26566699312E+02 -0.37876634080E+02  0.73962768796E+02  0.87246318487E+02  0.10000000000E+01 0.  0.
          4    1    1    2  501    0 -0.18163058956E+02 -0.51808448537E+02  0.25813142436E+02  0.60679018391E+02  0.12700000000E+01 0.  1.
<mgrwt>
<rscale>  1 0.13652312E+03</rscale>
<asrwt>0</asrwt>
<pdfrwt beam="2">  1       21 0.59097923E-02 0.13652312E+03</pdfrwt>
<pdfrwt beam="1">  1        4 0.40820327E-01 0.13652312E+03</pdfrwt>
<totfact> 0.47828251E+04</totfact>
</mgrwt>
</event>
<event>
 6    4  0.3189516E-003  0.1467810E+03  0.7818608E-02  0.1204485E+00
         21   -1    0    0  501  502  0.00000000000E+00  0.00000000000E+00  0.17972700125E+04  0.17972700125E+04  0.00000000000E+00 0.  1.
          4   -1    0    0  502    0 -0.00000000000E+00 -0.00000000000E+00 -0.10713273951E+02  0.10788287109E+02  0.12700000000E+01 0. -1.
         25    2    1    2    0    0 -0.45623788067E+02  0.61954437068E+02  0.55441726816E+03  0.57351823558E+03  0.12499910798E+03 0.  0.
    9000005    1    3    3    0    0  0.43491949543E+02  0.25976191588E+02  0.18971506896E+03  0.19636476159E+03  0.10000000000E+01 0.  0.
    9000005    1    3    3    0    0 -0.89115737610E+02  0.35978245480E+02  0.36470219920E+03  0.37715347398E+03  0.10000000000E+01 0.  0.
          4    1    1    2  501    0  0.45623788067E+02 -0.61954437068E+02  0.12321394704E+04  0.12345400640E+04  0.12700000000E+01 0.  1.
<mgrwt>
<rscale>  1 0.14678099E+03</rscale>
<asrwt>0</asrwt>
<pdfrwt beam="1">  1       21 0.27650284E+00 0.14678099E+03</pdfrwt>
<pdfrwt beam="2">  1        4 0.16540022E-02 0.14678099E+03</pdfrwt>
<totfact> 0.27215311E+03</totfact>
</mgrwt>
</event>
<event>
 6    4  0.3189516E-003  0.1412702E+03  0.7818608E-02  0.1211630E+00
          4   -1    0    0  502    0 -0.00000000000E+00  0.00000000000E+00  0.84209171732E+03  0.84209267500E+03  0.12700000000E+01 0.  1.
         21   -1    0    0  501  502  0.00000000000E+00 -0.00000000000E+00 -0.22269214280E+02  0.22269214280E+02  0.00000000000E+00 0. -1.
         25    2    1    2    0    0 -0.57585068519E+02  0.31884261611E+02  0.76715028517E+03  0.78004924675E+03  0.12499848422E+03 0.  0.
    9000005    1    3    3    0    0 -0.96476869607E+01 -0.44737089385E+02  0.36542771301E+03  0.36828372006E+03  0.10000000000E+01 0.  0.
    9000005    1    3    3    0    0 -0.47937381559E+02  0.76621350996E+02  0.40172257216E+03  0.41176552668E+03  0.10000000000E+01 0.  0.
          4    1    1    2  501    0  0.57585068519E+02 -0.31884261611E+02  0.52672217874E+02  0.84312642532E+02  0.12700000000E+01 0. -1.
<mgrwt>
<rscale>  1 0.14127019E+03</rscale>
<asrwt>0</asrwt>
<pdfrwt beam="2">  1       21 0.34260336E-02 0.14127019E+03</pdfrwt>
<pdfrwt beam="1">  1        4 0.12955541E+00 0.14127019E+03</pdfrwt>
<totfact> 0.95796866E+03</totfact>
</mgrwt>
</event>
<event>
 6    4  0.3189516E-003  0.1562148E+03  0.7818608E-02  0.1193038E+00
         21   -1    0    0  501  502  0.00000000000E+00  0.00000000000E+00  0.45460129611E+03  0.45460129611E+03  0.00000000000E+00 0. -1.
         -4   -1    0    0    0  501 -0.00000000000E+00 -0.00000000000E+00 -0.39299193195E+02  0.39319708617E+02  0.12700000000E+01 0. -1.
         25    2    1    2    0    0 -0.89023921135E+02 -0.29191599316E+02  0.16771242945E+03  0.22919535937E+03  0.12500258301E+03 0.  0.
    9000005    1    3    3    0    0  0.25460480315E+02 -0.32793298672E+02  0.40398518347E+02  0.57936834400E+02  0.10000000000E+01 0.  0.
    9000005    1    3    3    0    0 -0.11448440145E+03  0.36016993566E+01  0.12731391111E+03  0.17125852497E+03  0.10000000000E+01 0.  0.
         -4    1    1    2    0  502  0.89023921135E+02  0.29191599316E+02  0.24758967346E+03  0.26472564536E+03  0.12700000000E+01 0.  1.
<mgrwt>
<rscale>  1 0.15621477E+03</rscale>
<asrwt>0</asrwt>
<pdfrwt beam="1">  1       21 0.69938657E-01 0.15621477E+03</pdfrwt>
<pdfrwt beam="2">  1       -4 0.60477446E-02 0.15621477E+03</pdfrwt>
<totfact> 0.13533576E+04</totfact>
</mgrwt>
</event>
<event>
 6    4  0.3189516E-003  0.1279562E+03  0.7818608E-02  0.1230520E+00
          4   -1    0    0  502    0 -0.00000000000E+00  0.00000000000E+00  0.40412258089E+02  0.40432208743E+02  0.12700000000E+01 0.  1.
         21   -1    0    0  501  502  0.00000000000E+00 -0.00000000000E+00 -0.22002712958E+03  0.22002712958E+03  0.00000000000E+00 0. -1.
         25    2    1    2    0    0 -0.25008494316E+02 -0.11061939995E+02 -0.66746713918E+02  0.14431879760E+03  0.12500000088E+03 0.  0.
    9000005    1    3    3    0    0 -0.21486425353E+02 -0.91565584297E+01 -0.10412311756E+03  0.10671519408E+03  0.10000000000E+01 0.  0.
    9000005    1    3    3    0    0 -0.35220689627E+01 -0.19053815649E+01  0.37376403644E+02  0.37603603525E+02  0.10000000000E+01 0.  0.
          4    1    1    2  501    0  0.25008494316E+02  0.11061939995E+02 -0.11286815757E+03  0.11614054071E+03  0.12700000000E+01 0. -1.
<mgrwt>
<rscale>  1 0.12795621E+03</rscale>
<asrwt>0</asrwt>
<pdfrwt beam="2">  1       21 0.33850329E-01 0.12795621E+03</pdfrwt>
<pdfrwt beam="1">  1        4 0.62190869E-02 0.12795621E+03</pdfrwt>
<totfact> 0.56791528E+04</totfact>
</mgrwt>
</event>
<event>
 6    4  0.3189516E-003  0.1272932E+03  0.7818608E-02  0.1231528E+00
          4   -1    0    0  502    0 -0.00000000000E+00  0.00000000000E+00  0.27093349733E+03  0.27093647388E+03  0.12700000000E+01 0. -1.
         21   -1    0    0  501  502  0.00000000000E+00 -0.00000000000E+00 -0.51895323435E+02  0.51895323435E+02  0.00000000000E+00 0. -1.
         25    2    1    2    0    0 -0.71837981914E+01 -0.22966391394E+02  0.25180912247E+03  0.28215489895E+03  0.12499796301E+03 0.  0.
    9000005    1    3    3    0    0 -0.24291658469E+02 -0.71568885024E+02  0.15686577554E+03  0.17412656750E+03  0.10000000000E+01 0.  0.
    9000005    1    3    3    0    0  0.17107860278E+02  0.48602493630E+02  0.94943346930E+02  0.10802833145E+03  0.10000000000E+01 0.  0.
          4    1    1    2  501    0  0.71837981914E+01  0.22966391394E+02 -0.32770948568E+02  0.40676898360E+02  0.12700000000E+01 0.  1.
<mgrwt>
<rscale>  1 0.12729318E+03</rscale>
<asrwt>0</asrwt>
<pdfrwt beam="2">  1       21 0.79838961E-02 0.12729318E+03</pdfrwt>
<pdfrwt beam="1">  1        4 0.41683500E-01 0.12729318E+03</pdfrwt>
<totfact> 0.27208601E+04</totfact>
</mgrwt>
</event>
<event>
 6    4  0.3189516E-003  0.1265935E+03  0.7818608E-02  0.1232600E+00
         21   -1    0    0  501  502  0.00000000000E+00  0.00000000000E+00  0.19078476533E+03  0.19078476533E+03  0.00000000000E+00 0.  1.
          4   -1    0    0  502    0 -0.00000000000E+00 -0.00000000000E+00 -0.18700224496E+03  0.18700655742E+03  0.12700000000E+01 0. -1.
         25    2    1    2    0    0  0.52656491900E+01  0.19323964345E+02 -0.16491678203E+03  0.20790250561E+03  0.12499905672E+03 0.  0.
    9000005    1    3    3    0    0  0.14994189264E+02 -0.71901763641E+01  0.17001149292E+02  0.23802592823E+02  0.10000000000E+01 0.  0.
    9000005    1    3    3    0    0 -0.97285400738E+01  0.26514140710E+02 -0.18191793133E+03  0.18409991278E+03  0.10000000000E+01 0.  0.
          4    1    1    2  501    0 -0.52656491900E+01 -0.19323964345E+02  0.16869930240E+03  0.16988881714E+03  0.12700000000E+01 0.  1.
<mgrwt>
<rscale>  1 0.12659347E+03</rscale>
<asrwt>0</asrwt>
<pdfrwt beam="1">  1       21 0.29351502E-01 0.12659347E+03</pdfrwt>
<pdfrwt beam="2">  1        4 0.28770233E-01 0.12659347E+03</pdfrwt>
<totfact> 0.52552623E+03</totfact>
</mgrwt>
</event>
<event>
 6    4  0.3189516E-003  0.1501279E+03  0.7818608E-02  0.1200316E+00
         21   -1    0    0  501  502  0.00000000000E+00  0.00000000000E+00  0.14672658629E+04  0.14672658629E+04  0.00000000000E+00 0. -1.
         -4   -1    0    0    0  501 -0.00000000000E+00 -0.00000000000E+00 -0.38056567312E+02  0.38077752239E+02  0.12700000000E+01 0.  1.
         25    2    1    2    0    0  0.80395020823E+02  0.21172267264E+02  0.11656288726E+03  0.19006652248E+03  0.12500700783E+03 0.  0.
    9000005    1    3    3    0    0  0.76524864612E+02 -0.38826774006E+02  0.46037615273E+02  0.97386011848E+02  0.10000000000E+01 0.  0.
    9000005    1    3    3    0    0  0.38701562107E+01  0.59999041271E+02  0.70525271987E+02  0.92680510633E+02  0.10000000000E+01 0.  0.
         -4    1    1    2    0  502 -0.80395020823E+02 -0.21172267264E+02  0.13126464083E+04  0.13152770927E+04  0.12700000000E+01 0. -1.
<mgrwt>
<rscale>  1 0.15012787E+03</rscale>
<asrwt>0</asrwt>
<pdfrwt beam="1">  1       21 0.22573317E+00 0.15012787E+03</pdfrwt>
<pdfrwt beam="2">  1       -4 0.58565295E-02 0.15012787E+03</pdfrwt>
<totfact> 0.73167306E+02</totfact>
</mgrwt>
</event>
<event>
 6    4  0.3189516E-003  0.1321946E+03  0.7818608E-02  0.1224235E+00
          4   -1    0    0  502    0 -0.00000000000E+00  0.00000000000E+00  0.13323719308E+03  0.13324324568E+03  0.12700000000E+01 0. -1.
         21   -1    0    0  501  502  0.00000000000E+00 -0.00000000000E+00 -0.57628888879E+02  0.57628888879E+02  0.00000000000E+00 0. -1.
         25    2    1    2    0    0 -0.27162241348E+02 -0.33350291264E+02  0.55434767771E+02  0.14334725944E+03  0.12500157611E+03 0.  0.
    9000005    1    3    3    0    0 -0.24275812988E+02 -0.79226221377E+02  0.50650520337E+02  0.97121493297E+02  0.10000000000E+01 0.  0.
    9000005    1    3    3    0    0 -0.28864283603E+01  0.45875930113E+02  0.47842474347E+01  0.46225766148E+02  0.10000000000E+01 0.  0.
          4    1    1    2  501    0  0.27162241348E+02  0.33350291264E+02  0.20173536425E+02  0.47524875112E+02  0.12700000000E+01 0.  1.
<mgrwt>
<rscale>  1 0.13219464E+03</rscale>
<asrwt>0</asrwt>
<pdfrwt beam="2">  1       21 0.88659829E-02 0.13219464E+03</pdfrwt>
<pdfrwt beam="1">  1        4 0.20499572E-01 0.13219464E+03</pdfrwt>
<totfact> 0.86875699E+04</totfact>
</mgrwt>
</event>
<event>
 6    4  0.3189516E-003  0.1270829E+03  0.7818608E-02  0.1231849E+00
         21   -1    0    0  501  502  0.00000000000E+00  0.00000000000E+00  0.15598995364E+03  0.15598995364E+03  0.00000000000E+00 0. -1.
         -4   -1    0    0    0  501 -0.00000000000E+00 -0.00000000000E+00 -0.36198332271E+02  0.36220604071E+02  0.12700000000E+01 0. -1.
         25    2    1    2    0    0  0.22642889959E+02 -0.41165410356E+01  0.10472953306E+03  0.16467647374E+03  0.12498167679E+03 0.  0.
    9000005    1    3    3    0    0  0.49577012925E+02 -0.40243550471E+02  0.17064959169E+02  0.66103225311E+02  0.10000000000E+01 0.  0.
    9000005    1    3    3    0    0 -0.26934122966E+02  0.36127009435E+02  0.87664573886E+02  0.98573248426E+02  0.10000000000E+01 0.  0.
         -4    1    1    2    0  502 -0.22642889959E+02  0.41165410356E+01  0.15062088308E+02  0.27534083969E+02  0.12700000000E+01 0.  1.
<mgrwt>
<rscale>  1 0.12708291E+03</rscale>
<asrwt>0</asrwt>
<pdfrwt beam="1">  1       21 0.23998454E-01 0.12708291E+03</pdfrwt>
<pdfrwt beam="2">  1       -4 0.55710851E-02 0.12708291E+03</pdfrwt>
<totfact> 0.13115369E+05</totfact>
</mgrwt>
</event>
<event>
 6    4  0.3189516E-003  0.1628728E+03  0.7818608E-02  0.1185491E+00
         21   -1    0    0  501  502  0.00000000000E+00  0.00000000000E+00  0.31162319108E+03  0.31162319108E+03  0.00000000000E+00 0.  1.
          4   -1    0    0  502    0 -0.00000000000E+00 -0.00000000000E+00 -0.11452719425E+03  0.11453423559E+03  0.12700000000E+01 0. -1.
         25    2    1    2    0    0  0.81555596512E+02 -0.65196111386E+02 -0.39455991815E+02  0.16758383077E+03  0.12500286710E+03 0.  0.
    9000005    1    3    3    0    0  0.78850308813E+02 -0.71432741807E+02 -0.75772227946E+02  0.13062326872E+03  0.10000000000E+01 0.  0.
    9000005    1    3    3    0    0  0.27052876996E+01  0.62366304216E+01  0.36316236131E+02  0.36960562054E+02  0.10000000000E+01 0.  0.
          4    1    1    2  501    0 -0.81555596512E+02  0.65196111386E+02  0.23655198865E+03  0.25857359590E+03  0.12700000000E+01 0.  1.
<mgrwt>
<rscale>  1 0.16287285E+03</rscale>
<asrwt>0</asrwt>
<pdfrwt beam="1">  1       21 0.47942029E-01 0.16287285E+03</pdfrwt>
<pdfrwt beam="2">  1        4 0.17620309E-01 0.16287285E+03</pdfrwt>
<totfact> 0.49213000E+03</totfact>
</mgrwt>
</event>
<event>
 6    4  0.3189516E-003  0.1267417E+03  0.7818608E-02  0.1232372E+00
          4   -1    0    0  502    0 -0.00000000000E+00  0.00000000000E+00  0.13600755459E+03  0.13601348391E+03  0.12700000000E+01 0.  1.
         21   -1    0    0  501  502  0.00000000000E+00 -0.00000000000E+00 -0.42334802681E+02  0.42334802681E+02  0.00000000000E+00 0.  1.
         25    2    1    2    0    0 -0.81563939766E+01 -0.19291268342E+02  0.93268999094E+02  0.15736124980E+03  0.12499910780E+03 0.  0.
    9000005    1    3    3    0    0 -0.38089985208E+02  0.40600282621E+02  0.22847323347E+02  0.60184965782E+02  0.10000000000E+01 0.  0.
    9000005    1    3    3    0    0  0.29933591231E+02 -0.59891550963E+02  0.70421675748E+02  0.97176284020E+02  0.10000000000E+01 0.  0.
          4    1    1    2  501    0  0.81563939766E+01  0.19291268342E+02  0.40375281627E+00  0.20987036791E+02  0.12700000000E+01 0. -1.
<mgrwt>
<rscale>  1 0.12674169E+03</rscale>
<asrwt>0</asrwt>
<pdfrwt beam="2">  1       21 0.65130467E-02 0.12674169E+03</pdfrwt>
<pdfrwt beam="1">  1        4 0.20926160E-01 0.12674169E+03</pdfrwt>
<totfact> 0.14136193E+05</totfact>
</mgrwt>
</event>
<event>
 6    4  0.3189516E-003  0.1286581E+03  0.7818608E-02  0.1229461E+00
         -4   -1    0    0    0  501 -0.00000000000E+00  0.00000000000E+00  0.79026014174E+01  0.80039995729E+01  0.12700000000E+01 0.  1.
         21   -1    0    0  501  502  0.00000000000E+00 -0.00000000000E+00 -0.14860933166E+04  0.14860933166E+04  0.00000000000E+00 0. -1.
         25    2    1    2    0    0 -0.28843095658E+02  0.98213108821E+01 -0.52913893124E+03  0.54455569844E+03  0.12499807130E+03 0.  0.
    9000005    1    3    3    0    0  0.81918123136E+01 -0.53795169932E+02 -0.25158945960E+03  0.25740878438E+03  0.10000000000E+01 0.  0.
    9000005    1    3    3    0    0 -0.37034907971E+02  0.63616480814E+02 -0.27754947164E+03  0.28714691405E+03  0.10000000000E+01 0.  0.
         -4    1    1    2    0  502  0.28843095658E+02 -0.98213108821E+01 -0.94905178393E+03  0.94954161772E+03  0.12700000000E+01 0. -1.
<mgrwt>
<rscale>  1 0.12865807E+03</rscale>
<asrwt>0</asrwt>
<pdfrwt beam="2">  1       21 0.22862987E+00 0.12865807E+03</pdfrwt>
<pdfrwt beam="1">  1       -4 0.12236258E-02 0.12865807E+03</pdfrwt>
<totfact> 0.81490309E+03</totfact>
</mgrwt>
</event>
<event>
 6    4  0.3189516E-003  0.1387491E+03  0.7818608E-02  0.1215022E+00
         21   -1    0    0  501  502  0.00000000000E+00  0.00000000000E+00  0.77785070579E+02  0.77785070579E+02  0.00000000000E+00 0. -1.
          4   -1    0    0  502    0 -0.00000000000E+00 -0.00000000000E+00 -0.18111458080E+03  0.18111903346E+03  0.12700000000E+01 0. -1.
         25    2    1    2    0    0 -0.59586551965E+02  0.82953522311E+01 -0.13265854391E+03  0.19196252383E+03  0.12502780186E+03 0.  0.
    9000005    1    3    3    0    0  0.39843718019E+01  0.13252195829E+02 -0.12720350553E+03  0.12795791391E+03  0.10000000000E+01 0.  0.
    9000005    1    3    3    0    0 -0.63570923767E+02 -0.49568435978E+01 -0.54550383830E+01  0.64004609919E+02  0.10000000000E+01 0.  0.
          4    1    1    2  501    0  0.59586551965E+02 -0.82953522311E+01  0.29329033687E+02  0.66941580208E+02  0.12700000000E+01 0.  1.
<mgrwt>
<rscale>  1 0.13874913E+03</rscale>
<asrwt>0</asrwt>
<pdfrwt beam="1">  1       21 0.11966934E-01 0.13874913E+03</pdfrwt>
<pdfrwt beam="2">  1        4 0.27864921E-01 0.13874913E+03</pdfrwt>
<totfact> 0.29372651E+04</totfact>
</mgrwt>
</event>
<event>
 6    4  0.3189516E-003  0.1354097E+03  0.7818608E-02  0.1219642E+00
         21   -1    0    0  501  502  0.00000000000E+00  0.00000000000E+00  0.14433345586E+02  0.14433345586E+02  0.00000000000E+00 0.  1.
         -4   -1    0    0    0  501 -0.00000000000E+00 -0.00000000000E+00 -0.87029135919E+03  0.87029228583E+03  0.12700000000E+01 0.  1.
         25    2    1    2    0    0 -0.52058985523E+02  0.90106191746E+00 -0.78605871060E+03  0.79763656503E+03  0.12499937385E+03 0.  0.
    9000005    1    3    3    0    0 -0.29519538825E+02 -0.47215691775E+02 -0.63621393310E+03  0.63864692389E+03  0.10000000000E+01 0.  0.
    9000005    1    3    3    0    0 -0.22539446697E+02  0.48116753692E+02 -0.14984477750E+03  0.15898964114E+03  0.10000000000E+01 0.  0.
         -4    1    1    2    0  502  0.52058985523E+02 -0.90106191746E+00 -0.69799302999E+02  0.87089066394E+02  0.12700000000E+01 0. -1.
<mgrwt>
<rscale>  1 0.13540972E+03</rscale>
<asrwt>0</asrwt>
<pdfrwt beam="1">  1       21 0.22205141E-02 0.13540972E+03</pdfrwt>
<pdfrwt beam="2">  1       -4 0.13389538E+00 0.13540972E+03</pdfrwt>
<totfact> 0.17899740E+04</totfact>
</mgrwt>
</event>
<event>
 6    4  0.3189516E-003  0.1279778E+03  0.7818608E-02  0.1230487E+00
         21   -1    0    0  501  502  0.00000000000E+00  0.00000000000E+00  0.15757063063E+04  0.15757063063E+04  0.00000000000E+00 0.  1.
         -4   -1    0    0    0  501 -0.00000000000E+00 -0.00000000000E+00 -0.70806060086E+01  0.71936000340E+01  0.12700000000E+01 0. -1.
         25    2    1    2    0    0 -0.22536961012E+02 -0.15629572069E+02  0.58253923865E+03  0.59643129514E+03  0.12500450841E+03 0.  0.
    9000005    1    3    3    0    0  0.45508801899E+02  0.20860244127E+02  0.25997622625E+03  0.26475429940E+03  0.10000000000E+01 0.  0.
    9000005    1    3    3    0    0 -0.68045762911E+02 -0.36489816196E+02  0.32256301240E+03  0.33167699574E+03  0.10000000000E+01 0.  0.
         -4    1    1    2    0  502  0.22536961012E+02  0.15629572069E+02  0.98608646163E+03  0.98646861119E+03  0.12700000000E+01 0.  1.
<mgrwt>
<rscale>  1 0.12797783E+03</rscale>
<asrwt>0</asrwt>
<pdfrwt beam="1">  1       21 0.24241608E+00 0.12797783E+03</pdfrwt>
<pdfrwt beam="2">  1       -4 0.10980565E-02 0.12797783E+03</pdfrwt>
<totfact> 0.79719749E+03</totfact>
</mgrwt>
</event>
<event>
 6    4  0.3189516E-003  0.1270153E+03  0.7818608E-02  0.1231953E+00
         21   -1    0    0  501  502  0.00000000000E+00  0.00000000000E+00  0.14489386409E+03  0.14489386409E+03  0.00000000000E+00 0.  1.
          4   -1    0    0  502    0 -0.00000000000E+00 -0.00000000000E+00 -0.50571750530E+02  0.50587694667E+02  0.12700000000E+01 0.  1.
         25    2    1    2    0    0  0.16705160639E+02  0.15127158345E+02  0.10997744731E+03  0.16801165365E+03  0.12499993413E+03 0.  0.
    9000005    1    3    3    0    0 -0.35532902206E+02  0.16787754541E+01 -0.95728369724E+01  0.36851657139E+02  0.10000000000E+01 0.  0.
    9000005    1    3    3    0    0  0.52238062844E+02  0.13448382891E+02  0.11955028428E+03  0.13115999651E+03  0.10000000000E+01 0.  0.
          4    1    1    2  501    0 -0.16705160639E+02 -0.15127158345E+02 -0.15655333754E+02  0.27469905106E+02  0.12700000000E+01 0. -1.
<mgrwt>
<rscale>  1 0.12701526E+03</rscale>
<asrwt>0</asrwt>
<pdfrwt beam="1">  1       21 0.22291363E-01 0.12701526E+03</pdfrwt>
<pdfrwt beam="2">  1        4 0.77819240E-02 0.12701526E+03</pdfrwt>
<totfact> 0.87257571E+04</totfact>
</mgrwt>
</event>
<event>
 6    4  0.3189516E-003  0.1287002E+03  0.7818608E-02  0.1229397E+00
          4   -1    0    0  502    0 -0.00000000000E+00  0.00000000000E+00  0.46480799642E+02  0.46498146580E+02  0.12700000000E+01 0. -1.
         21   -1    0    0  501  502  0.00000000000E+00 -0.00000000000E+00 -0.34256830169E+03  0.34256830169E+03  0.00000000000E+00 0.  1.
         25    2    1    2    0    0 -0.23842052452E+02  0.19239492431E+02 -0.45343061548E+02  0.13645411905E+03  0.12500052736E+03 0.  0.
    9000005    1    3    3    0    0  0.42333746205E+02 -0.71068760076E+01  0.12469495634E+02  0.44711766636E+02  0.10000000000E+01 0.  0.
    9000005    1    3    3    0    0 -0.66175798657E+02  0.26346368439E+02 -0.57812557182E+02  0.91742352410E+02  0.10000000000E+01 0.  0.
          4    1    1    2  501    0  0.23842052452E+02 -0.19239492431E+02 -0.25074444050E+03  0.25261232922E+03  0.12700000000E+01 0.  1.
<mgrwt>
<rscale>  1 0.12870017E+03</rscale>
<asrwt>0</asrwt>
<pdfrwt beam="2">  1       21 0.52702814E-01 0.12870017E+03</pdfrwt>
<pdfrwt beam="1">  1        4 0.71524080E-02 0.12870017E+03</pdfrwt>
<totfact> 0.18530590E+04</totfact>
</mgrwt>
</event>
<event>
 6    4  0.3189516E-003  0.1574322E+03  0.7818608E-02  0.1191627E+00
         21   -1    0    0  501  502  0.00000000000E+00  0.00000000000E+00  0.37651914191E+02  0.37651914191E+02  0.00000000000E+00 0. -1.
         -4   -1    0    0    0  501 -0.00000000000E+00 -0.00000000000E+00 -0.95934167375E+03  0.95934251438E+03  0.12700000000E+01 0.  1.
         25    2    1    2    0    0  0.24960101716E+02  0.92396622472E+02 -0.87760351336E+03  0.89161249214E+03  0.12499906782E+03 0.  0.
    9000005    1    3    3    0    0  0.73927505842E+02  0.62502928324E+02 -0.45935852420E+03  0.46944983324E+03  0.10000000000E+01 0.  0.
    9000005    1    3    3    0    0 -0.48967404126E+02  0.29893694147E+02 -0.41824498916E+03  0.42216265890E+03  0.10000000000E+01 0.  0.
         -4    1    1    2    0  502 -0.24960101716E+02 -0.92396622472E+02 -0.44086246200E+02  0.10538193643E+03  0.12700000000E+01 0. -1.
<mgrwt>
<rscale>  1 0.15743224E+03</rscale>
<asrwt>0</asrwt>
<pdfrwt beam="1">  1       21 0.57926033E-02 0.15743224E+03</pdfrwt>
<pdfrwt beam="2">  1       -4 0.14759271E+00 0.15743224E+03</pdfrwt>
<totfact> 0.28909927E+03</totfact>
</mgrwt>
</event>
<event>
 6    4  0.3189516E-003  0.1421178E+03  0.7818608E-02  0.1210507E+00
         -4   -1    0    0    0  501 -0.00000000000E+00  0.00000000000E+00  0.12716026954E+04  0.12716033296E+04  0.12700000000E+01 0. -1.
         21   -1    0    0  501  502  0.00000000000E+00 -0.00000000000E+00 -0.88703516997E+01  0.88703516997E+01  0.00000000000E+00 0.  1.
         25    2    1    2    0    0 -0.52212629627E+02 -0.42971896184E+02  0.94461962395E+03  0.95525059184E+03  0.12499886677E+03 0.  0.
    9000005    1    3    3    0    0 -0.70003486438E+02 -0.11888002328E+02  0.86536119414E+03  0.86827000930E+03  0.10000000000E+01 0.  0.
    9000005    1    3    3    0    0  0.17790856811E+02 -0.31083893856E+02  0.79258429809E+02  0.86980582540E+02  0.10000000000E+01 0.  0.
         -4    1    1    2    0  502  0.52212629627E+02  0.42971896184E+02  0.31811271974E+03  0.32522308945E+03  0.12700000000E+01 0.  1.
<mgrwt>
<rscale>  1 0.14211777E+03</rscale>
<asrwt>0</asrwt>
<pdfrwt beam="2">  1       21 0.13646705E-02 0.14211777E+03</pdfrwt>
<pdfrwt beam="1">  1       -4 0.19563808E+00 0.14211777E+03</pdfrwt>
<totfact> 0.14528191E+04</totfact>
</mgrwt>
</event>
<event>
 6    4  0.3189516E-003  0.1265974E+03  0.7818608E-02  0.1232594E+00
         21   -1    0    0  501  502  0.00000000000E+00  0.00000000000E+00  0.13114085075E+04  0.13114085075E+04  0.00000000000E+00 0. -1.
         -4   -1    0    0    0  501 -0.00000000000E+00 -0.00000000000E+00 -0.40192964833E+01  0.42151683502E+01  0.12700000000E+01 0. -1.
         25    2    1    2    0    0  0.15963685023E+02 -0.12173416797E+02  0.10998990174E+04  0.11071606703E+04  0.12499548060E+03 0.  0.
    9000005    1    3    3    0    0  0.61133602536E+02 -0.19256767127E+02  0.34681832948E+03  0.35269263403E+03  0.10000000000E+01 0.  0.
    9000005    1    3    3    0    0 -0.45169917513E+02  0.70833503301E+01  0.75308068788E+03  0.75446803627E+03  0.10000000000E+01 0.  0.
         -4    1    1    2    0  502 -0.15963685023E+02  0.12173416797E+02  0.20749019369E+03  0.20846300558E+03  0.12700000000E+01 0.  1.
<mgrwt>
<rscale>  1 0.12659740E+03</rscale>
<asrwt>0</asrwt>
<pdfrwt beam="1">  1       21 0.20175482E+00 0.12659740E+03</pdfrwt>
<pdfrwt beam="2">  1       -4 0.63346872E-03 0.12659740E+03</pdfrwt>
<totfact> 0.31794936E+04</totfact>
</mgrwt>
</event>
<event>
 6    4  0.3189516E-003  0.1288561E+03  0.7818608E-02  0.1229163E+00
          4   -1    0    0  502    0 -0.00000000000E+00  0.00000000000E+00  0.14872512587E+03  0.14873054819E+03  0.12700000000E+01 0.  1.
         21   -1    0    0  501  502  0.00000000000E+00 -0.00000000000E+00 -0.78293311828E+02  0.78293311828E+02  0.00000000000E+00 0. -1.
         25    2    1    2    0    0  0.31264201372E+02  0.96373272195E+00  0.11489857498E+03  0.17264293693E+03  0.12500208827E+03 0.  0.
    9000005    1    3    3    0    0  0.35848048517E+01  0.17133901532E+02  0.13411384177E+03  0.13525510697E+03  0.10000000000E+01 0.  0.
    9000005    1    3    3    0    0  0.27679396520E+02 -0.16170168810E+02 -0.19215266793E+02  0.37387829958E+02  0.10000000000E+01 0.  0.
          4    1    1    2  501    0 -0.31264201372E+02 -0.96373272195E+00 -0.44466760934E+02  0.54380923090E+02  0.12700000000E+01 0. -1.
<mgrwt>
<rscale>  1 0.12885613E+03</rscale>
<asrwt>0</asrwt>
<pdfrwt beam="2">  1       21 0.12045125E-01 0.12885613E+03</pdfrwt>
<pdfrwt beam="1">  1        4 0.22881998E-01 0.12885613E+03</pdfrwt>
<totfact> 0.41438776E+04</totfact>
</mgrwt>
</event>
<event>
 6    4  0.3189516E-003  0.1268570E+03  0.7818608E-02  0.1232195E+00
         21   -1    0    0  501  502  0.00000000000E+00  0.00000000000E+00  0.13021231499E+03  0.13021231499E+03  0.00000000000E+00 0. -1.
         -4   -1    0    0    0  501 -0.00000000000E+00 -0.00000000000E+00 -0.66082417622E+02  0.66094620195E+02  0.12700000000E+01 0. -1.
         25    2    1    2    0    0 -0.14132450837E+02  0.16393341819E+02 -0.18350551415E+01  0.12687023248E+03  0.12499688252E+03 0.  0.
    9000005    1    3    3    0    0 -0.73016435806E+01 -0.52838329378E+02 -0.16346545607E+02  0.55797962362E+02  0.10000000000E+01 0.  0.
    9000005    1    3    3    0    0 -0.68308072566E+01  0.69231671197E+02  0.14511490466E+02  0.71072270120E+02  0.10000000000E+01 0.  0.
         -4    1    1    2    0  502  0.14132450837E+02 -0.16393341819E+02  0.65964952512E+02  0.69436702705E+02  0.12700000000E+01 0.  1.
<mgrwt>
<rscale>  1 0.12685696E+03</rscale>
<asrwt>0</asrwt>
<pdfrwt beam="1">  1       21 0.20032664E-01 0.12685696E+03</pdfrwt>
<pdfrwt beam="2">  1       -4 0.10167941E-01 0.12685696E+03</pdfrwt>
<totfact> 0.68117571E+04</totfact>
</mgrwt>
</event>
<event>
 6    4  0.3189516E-003  0.1407785E+03  0.7818608E-02  0.1212285E+00
          4   -1    0    0  502    0 -0.00000000000E+00  0.00000000000E+00  0.14016151058E+02  0.14073570637E+02  0.12700000000E+01 0.  1.
         21   -1    0    0  501  502  0.00000000000E+00 -0.00000000000E+00 -0.81215881573E+03  0.81215881573E+03  0.00000000000E+00 0.  1.
         25    2    1    2    0    0  0.33897793971E+02  0.55155939211E+02 -0.43057782308E+03  0.45300756975E+03  0.12500943346E+03 0.  0.
    9000005    1    3    3    0    0 -0.13138993029E+02  0.84037549690E+02 -0.24197978092E+03  0.25649592057E+03  0.10000000000E+01 0.  0.
    9000005    1    3    3    0    0  0.47036786999E+02 -0.28881610479E+02 -0.18859804217E+03  0.19651164918E+03  0.10000000000E+01 0.  0.
          4    1    1    2  501    0 -0.33897793971E+02 -0.55155939211E+02 -0.36756484159E+03  0.37322481662E+03  0.12700000000E+01 0. -1.
<mgrwt>
<rscale>  1 0.14077854E+03</rscale>
<asrwt>0</asrwt>
<pdfrwt beam="2">  1       21 0.12494746E+00 0.14077854E+03</pdfrwt>
<pdfrwt beam="1">  1        4 0.21608251E-02 0.14077854E+03</pdfrwt>
<totfact> 0.17859925E+04</totfact>
</mgrwt>
</event>
<event>
 6    4  0.3189516E-003  0.1271363E+03  0.7818608E-02  0.1231768E+00
         21   -1    0    0  501  502  0.00000000000E+00  0.00000000000E+00  0.25477731309E+03  0.25477731309E+03  0.00000000000E+00 0. -1.
          4   -1    0    0  502    0 -0.00000000000E+00 -0.00000000000E+00 -0.43766815035E+02  0.43785237219E+02  0.12700000000E+01 0.  1.
         25    2    1    2    0    0  0.31219672496E-01 -0.23200833453E+02  0.51178741901E+02  0.13705068442E+03  0.12500138731E+03 0.  0.
    9000005    1    3    3    0    0 -0.19473916135E+02 -0.70652410087E+02  0.16531435192E+02  0.75135110369E+02  0.10000000000E+01 0.  0.
    9000005    1    3    3    0    0  0.19505135807E+02  0.47451576634E+02  0.34647306708E+02  0.61915574051E+02  0.10000000000E+01 0.  0.
          4    1    1    2  501    0 -0.31219672496E-01  0.23200833453E+02  0.15983175616E+03  0.16151186589E+03  0.12700000000E+01 0. -1.
<mgrwt>
<rscale>  1 0.12713625E+03</rscale>
<asrwt>0</asrwt>
<pdfrwt beam="1">  1       21 0.39196509E-01 0.12713625E+03</pdfrwt>
<pdfrwt beam="2">  1        4 0.67350169E-02 0.12713625E+03</pdfrwt>
<totfact> 0.37309614E+04</totfact>
</mgrwt>
</event>
<event>
 6    4  0.3189516E-003  0.1283929E+03  0.7818608E-02  0.1229860E+00
          4   -1    0    0  502    0 -0.00000000000E+00  0.00000000000E+00  0.33555179367E+03  0.33555419702E+03  0.12700000000E+01 0.  1.
         21   -1    0    0  501  502  0.00000000000E+00 -0.00000000000E+00 -0.24392827307E+02  0.24392827307E+02  0.00000000000E+00 0.  1.
         25    2    1    2    0    0  0.13161371693E+02  0.26193606980E+02  0.30362167720E+03  0.32965262914E+03  0.12500162512E+03 0.  0.
    9000005    1    3    3    0    0 -0.13173699060E+02 -0.35208347725E+02  0.30333740820E+02  0.48314696818E+02  0.10000000000E+01 0.  0.
    9000005    1    3    3    0    0  0.26335070753E+02  0.61401954706E+02  0.27328793638E+03  0.28133793232E+03  0.10000000000E+01 0.  0.
          4    1    1    2  501    0 -0.13161371693E+02 -0.26193606980E+02  0.75372891636E+01  0.30294395182E+02  0.12700000000E+01 0. -1.
<mgrwt>
<rscale>  1 0.12839289E+03</rscale>
<asrwt>0</asrwt>
<pdfrwt beam="2">  1       21 0.37527429E-02 0.12839289E+03</pdfrwt>
<pdfrwt beam="1">  1        4 0.51626078E-01 0.12839289E+03</pdfrwt>
<totfact> 0.63359227E+04</totfact>
</mgrwt>
</event>
<event>
 6    4  0.3189516E-003  0.1278669E+03  0.7818608E-02  0.1230656E+00
         21   -1    0    0  501  502  0.00000000000E+00  0.00000000000E+00  0.37952501927E+02  0.37952501927E+02  0.00000000000E+00 0.  1.
         -4   -1    0    0    0  501 -0.00000000000E+00 -0.00000000000E+00 -0.20462163573E+03  0.20462557687E+03  0.12700000000E+01 0.  1.
         25    2    1    2    0    0  0.91304009811E+01 -0.25341380977E+02 -0.77726237737E+02  0.14963722948E+03  0.12499753038E+03 0.  0.
    9000005    1    3    3    0    0 -0.18038365920E+02  0.28617822157E+02  0.16540284145E+02  0.37668864990E+02  0.10000000000E+01 0.  0.
    9000005    1    3    3    0    0  0.27168766901E+02 -0.53959203134E+02 -0.94266521882E+02  0.11196836449E+03  0.10000000000E+01 0.  0.
         -4    1    1    2    0  502 -0.91304009811E+01  0.25341380977E+02 -0.88942896064E+02  0.92940849319E+02  0.12700000000E+01 0. -1.
<mgrwt>
<rscale>  1 0.12786685E+03</rscale>
<asrwt>0</asrwt>
<pdfrwt beam="1">  1       21 0.58388464E-02 0.12786685E+03</pdfrwt>
<pdfrwt beam="2">  1       -4 0.31482190E-01 0.12786685E+03</pdfrwt>
<totfact> 0.80021029E+04</totfact>
</mgrwt>
</event>
<event>
 6    4  0.3189516E-003  0.1317578E+03  0.7818608E-02  0.1224871E+00
          4   -1    0    0  502    0 -0.00000000000E+00  0.00000000000E+00  0.93192650765E+02  0.93201303943E+02  0.12700000000E+01 0. -1.
         21   -1    0    0  501  502  0.00000000000E+00 -0.00000000000E+00 -0.16681639104E+03  0.16681639104E+03  0.00000000000E+00 0.  1.
         25    2    1    2    0    0  0.38353927221E+02  0.16255241789E+02  0.41051013490E+02  0.13800470932E+03  0.12499942987E+03 0.  0.
    9000005    1    3    3    0    0  0.19193291427E+02  0.67374286801E+02  0.44987308730E+02  0.83261845430E+02  0.10000000000E+01 0.  0.
    9000005    1    3    3    0    0  0.19160635794E+02 -0.51119045011E+02 -0.39362952401E+01  0.54742863892E+02  0.10000000000E+01 0.  0.
          4    1    1    2  501    0 -0.38353927221E+02 -0.16255241789E+02 -0.11467475376E+03  0.12201298566E+03  0.12700000000E+01 0.  1.
<mgrwt>
<rscale>  1 0.13175779E+03</rscale>
<asrwt>0</asrwt>
<pdfrwt beam="2">  1       21 0.25664060E-01 0.13175779E+03</pdfrwt>
<pdfrwt beam="1">  1        4 0.14338368E-01 0.13175779E+03</pdfrwt>
<totfact> 0.23907803E+04</totfact>
</mgrwt>
</event>
<event>
 6    4  0.3189516E-003  0.1777589E+03  0.7818608E-02  0.1169990E+00
         21   -1    0    0  501  502  0.00000000000E+00  0.00000000000E+00  0.29610016090E+03  0.29610016090E+03  0.00000000000E+00 0.  1.
          4   -1    0    0  502    0 -0.00000000000E+00 -0.00000000000E+00 -0.16225478598E+03  0.16225975618E+03  0.12700000000E+01 0. -1.
         25    2    1    2    0    0  0.12220319793E+03  0.32282896584E+02 -0.91543717486E+02  0.19994617350E+03  0.12498965193E+03 0.  0.
    9000005    1    3    3    0    0  0.34639961424E+02  0.35176093514E+01  0.30985096362E+02  0.46619488410E+02  0.10000000000E+01 0.  0.
    9000005    1    3    3    0    0  0.87563236504E+02  0.28765287232E+02 -0.12252881385E+03  0.15332668509E+03  0.10000000000E+01 0.  0.
          4    1    1    2  501    0 -0.12220319793E+03 -0.32282896584E+02  0.22538909240E+03  0.25841374358E+03  0.12700000000E+01 0.  1.
<mgrwt>
<rscale>  1 0.17775888E+03</rscale>
<asrwt>0</asrwt>
<pdfrwt beam="1">  1       21 0.45553871E-01 0.17775888E+03</pdfrwt>
<pdfrwt beam="2">  1        4 0.24962867E-01 0.17775888E+03</pdfrwt>
<totfact> 0.29120184E+03</totfact>
</mgrwt>
</event>
<event>
 6    4  0.3189516E-003  0.1412796E+03  0.7818608E-02  0.1211617E+00
         21   -1    0    0  501  502  0.00000000000E+00  0.00000000000E+00  0.92599981163E+02  0.92599981163E+02  0.00000000000E+00 0.  1.
         -4   -1    0    0    0  501 -0.00000000000E+00 -0.00000000000E+00 -0.13475896374E+03  0.13476494800E+03  0.12700000000E+01 0.  1.
         25    2    1    2    0    0  0.33936137901E+02 -0.56417533787E+02 -0.67791166026E+02  0.15670219993E+03  0.12500135078E+03 0.  0.
    9000005    1    3    3    0    0  0.58135683426E+02 -0.56265245806E+02 -0.91958745269E+02  0.12248651519E+03  0.10000000000E+01 0.  0.
    9000005    1    3    3    0    0 -0.24199545525E+02 -0.15228798091E+00  0.24167579244E+02  0.34215684733E+02  0.10000000000E+01 0.  0.
         -4    1    1    2    0  502 -0.33936137901E+02  0.56417533787E+02  0.25632183448E+02  0.70662729233E+02  0.12700000000E+01 0. -1.
<mgrwt>
<rscale>  1 0.14127964E+03</rscale>
<asrwt>0</asrwt>
<pdfrwt beam="1">  1       21 0.14246151E-01 0.14127964E+03</pdfrwt>
<pdfrwt beam="2">  1       -4 0.20733278E-01 0.14127964E+03</pdfrwt>
<totfact> 0.37121122E+04</totfact>
</mgrwt>
</event>
<event>
 6    4  0.3189516E-003  0.1338188E+03  0.7818608E-02  0.1221897E+00
         -4   -1    0    0    0  501 -0.00000000000E+00  0.00000000000E+00  0.79090226759E+02  0.79100422684E+02  0.12700000000E+01 0. -1.
         21   -1    0    0  501  502  0.00000000000E+00 -0.00000000000E+00 -0.10424753853E+03  0.10424753853E+03  0.00000000000E+00 0. -1.
         25    2    1    2    0    0 -0.54919690473E+01  0.47448471384E+02 -0.19498029114E+02  0.13523185642E+03  0.12500385070E+03 0.  0.
    9000005    1    3    3    0    0  0.31427457930E+02  0.89934800135E+01 -0.59959949895E+02  0.68299073098E+02  0.10000000000E+01 0.  0.
    9000005    1    3    3    0    0 -0.36919426978E+02  0.38454991371E+02  0.40461920781E+02  0.66932783320E+02  0.10000000000E+01 0.  0.
         -4    1    1    2    0  502  0.54919690473E+01 -0.47448471384E+02 -0.56592826586E+01  0.48116104798E+02  0.12700000000E+01 0.  1.
<mgrwt>
<rscale>  1 0.13381884E+03</rscale>
<asrwt>0</asrwt>
<pdfrwt beam="2">  1       21 0.16038083E-01 0.13381884E+03</pdfrwt>
<pdfrwt beam="1">  1       -4 0.12169107E-01 0.13381884E+03</pdfrwt>
<totfact> 0.75960569E+04</totfact>
</mgrwt>
</event>
<event>
 6    4  0.3189516E-003  0.1324728E+03  0.7818608E-02  0.1223832E+00
         21   -1    0    0  501  502  0.00000000000E+00  0.00000000000E+00  0.91575338737E+02  0.91575338737E+02  0.00000000000E+00 0.  1.
          4   -1    0    0  502    0 -0.00000000000E+00 -0.00000000000E+00 -0.15416789305E+03  0.15417312395E+03  0.12700000000E+01 0. -1.
         25    2    1    2    0    0  0.18270561810E+02  0.39880086246E+02 -0.11637781491E+03  0.17633159250E+03  0.12499920001E+03 0.  0.
    9000005    1    3    3    0    0 -0.52687681351E+02  0.25216026143E+02 -0.65630416030E+02  0.87864618868E+02  0.10000000000E+01 0.  0.
    9000005    1    3    3    0    0  0.70958243160E+02  0.14664060103E+02 -0.50747398882E+02  0.88466973636E+02  0.10000000000E+01 0.  0.
          4    1    1    2  501    0 -0.18270561810E+02 -0.39880086246E+02  0.53785260599E+02  0.69416870179E+02  0.12700000000E+01 0.  1.
<mgrwt>
<rscale>  1 0.13247277E+03</rscale>
<asrwt>0</asrwt>
<pdfrwt beam="1">  1       21 0.14088514E-01 0.13247277E+03</pdfrwt>
<pdfrwt beam="2">  1        4 0.23719217E-01 0.13247277E+03</pdfrwt>
<totfact> 0.29438589E+04</totfact>
</mgrwt>
</event>
<event>
 6    4  0.3189516E-003  0.1273437E+03  0.7818608E-02  0.1231451E+00
          4   -1    0    0  502    0 -0.00000000000E+00  0.00000000000E+00  0.59150753905E+03  0.59150890243E+03  0.12700000000E+01 0.  1.
         21   -1    0    0  501  502  0.00000000000E+00 -0.00000000000E+00 -0.19086233622E+02  0.19086233622E+02  0.00000000000E+00 0. -1.
         25    2    1    2    0    0 -0.23792472648E+02 -0.40061473657E+01  0.57244111041E+03  0.58643433591E+03  0.12503709238E+03 0.  0.
    9000005    1    3    3    0    0  0.20139060315E+02  0.30461478795E+02  0.55238367333E+02  0.66225075812E+02  0.10000000000E+01 0.  0.
    9000005    1    3    3    0    0 -0.43931532963E+02 -0.34467626161E+02  0.51720274308E+03  0.52020926009E+03  0.10000000000E+01 0.  0.
          4    1    1    2  501    0  0.23792472648E+02  0.40061473657E+01 -0.19804981814E-01  0.24160800145E+02  0.12700000000E+01 0. -1.
<mgrwt>
<rscale>  1 0.12734365E+03</rscale>
<asrwt>0</asrwt>
<pdfrwt beam="2">  1       21 0.29363441E-02 0.12734365E+03</pdfrwt>
<pdfrwt beam="1">  1        4 0.91004501E-01 0.12734365E+03</pdfrwt>
<totfact> 0.28041393E+04</totfact>
</mgrwt>
</event>
<event>
 6    4  0.3189516E-003  0.1389530E+03  0.7818608E-02  0.1214745E+00
          4   -1    0    0  502    0 -0.00000000000E+00  0.00000000000E+00  0.22351630779E+03  0.22351991577E+03  0.12700000000E+01 0.  1.
         21   -1    0    0  501  502  0.00000000000E+00 -0.00000000000E+00 -0.90006311222E+02  0.90006311222E+02  0.00000000000E+00 0. -1.
         25    2    1    2    0    0  0.45587469550E+02  0.40062809577E+02  0.18675699373E+03  0.23277908031E+03  0.12499871771E+03 0.  0.
    9000005    1    3    3    0    0 -0.13145777109E+02 -0.62194777085E+01 -0.12969082842E+02  0.19511290796E+02  0.10000000000E+01 0.  0.
    9000005    1    3    3    0    0  0.58733246658E+02  0.46282287286E+02  0.19972607657E+03  0.21326778951E+03  0.10000000000E+01 0.  0.
          4    1    1    2  501    0 -0.45587469550E+02 -0.40062809577E+02 -0.53246997166E+02  0.80747146688E+02  0.12700000000E+01 0. -1.
<mgrwt>
<rscale>  1 0.13895296E+03</rscale>
<asrwt>0</asrwt>
<pdfrwt beam="2">  1       21 0.13847125E-01 0.13895296E+03</pdfrwt>
<pdfrwt beam="1">  1        4 0.34388091E-01 0.13895296E+03</pdfrwt>
<totfact> 0.15185958E+04</totfact>
</mgrwt>
</event>
<event>
 6    4  0.3189516E-003  0.1285612E+03  0.7818608E-02  0.1229606E+00
         21   -1    0    0  501  502  0.00000000000E+00  0.00000000000E+00  0.10905472280E+03  0.10905472280E+03  0.00000000000E+00 0. -1.
         -4   -1    0    0    0  501 -0.00000000000E+00 -0.00000000000E+00 -0.57743665609E+02  0.57757629955E+02  0.12700000000E+01 0. -1.
         25    2    1    2    0    0  0.28792076714E+02  0.85966763817E+01  0.39380063942E+02  0.13445732183E+03  0.12500038172E+03 0.  0.
    9000005    1    3    3    0    0  0.10169369932E+02 -0.55646904571E+02  0.36838151750E+02  0.67513283860E+02  0.10000000000E+01 0.  0.
    9000005    1    3    3    0    0  0.18622706782E+02  0.64243580953E+02  0.25419121925E+01  0.66944037966E+02  0.10000000000E+01 0.  0.
         -4    1    1    2    0  502 -0.28792076714E+02 -0.85966763817E+01  0.11930993243E+02  0.32355030924E+02  0.12700000000E+01 0.  1.
<mgrwt>
<rscale>  1 0.12856120E+03</rscale>
<asrwt>0</asrwt>
<pdfrwt beam="1">  1       21 0.16777650E-01 0.12856120E+03</pdfrwt>
<pdfrwt beam="2">  1       -4 0.88852839E-02 0.12856120E+03</pdfrwt>
<totfact> 0.11841081E+05</totfact>
</mgrwt>
</event>
<event>
 6    4  0.3189516E-003  0.1300221E+03  0.7818608E-02  0.1227423E+00
         21   -1    0    0  501  502  0.00000000000E+00  0.00000000000E+00  0.18000331956E+04  0.18000331956E+04  0.00000000000E+00 0. -1.
         -4   -1    0    0    0  501 -0.00000000000E+00 -0.00000000000E+00 -0.66874561136E+01  0.68069794529E+01  0.12700000000E+01 0.  1.
         25    2    1    2    0    0 -0.31444622980E+02 -0.17049988263E+02  0.64697887173E+03  0.65991468715E+03  0.12500506964E+03 0.  0.
    9000005    1    3    3    0    0 -0.41443656181E+02 -0.29361613518E+02  0.64088362954E+03  0.64289385407E+03  0.10000000000E+01 0.  0.
    9000005    1    3    3    0    0  0.99990332006E+01  0.12311625256E+02  0.60952421884E+01  0.17020833079E+02  0.10000000000E+01 0.  0.
         -4    1    1    2    0  502  0.31444622980E+02  0.17049988263E+02  0.11463668678E+04  0.11469254879E+04  0.12700000000E+01 0. -1.
<mgrwt>
<rscale>  1 0.13002205E+03</rscale>
<asrwt>0</asrwt>
<pdfrwt beam="1">  1       21 0.27692780E+00 0.13002205E+03</pdfrwt>
<pdfrwt beam="2">  1       -4 0.10380694E-02 0.13002205E+03</pdfrwt>
<totfact> 0.55157517E+03</totfact>
</mgrwt>
</event>
<event>
 6    4  0.3189516E-003  0.1293005E+03  0.7818608E-02  0.1228497E+00
         21   -1    0    0  501  502  0.00000000000E+00  0.00000000000E+00  0.18514829009E+02  0.18514829009E+02  0.00000000000E+00 0. -1.
          4   -1    0    0  502    0 -0.00000000000E+00 -0.00000000000E+00 -0.37560411101E+03  0.37560625808E+03  0.12700000000E+01 0. -1.
         25    2    1    2    0    0  0.42173438085E+01 -0.32791534359E+02 -0.31556237071E+03  0.34102524944E+03  0.12500216091E+03 0.  0.
    9000005    1    3    3    0    0  0.26653424882E+02  0.19761665540E+02 -0.17485373081E+02  0.37518885306E+02  0.10000000000E+01 0.  0.
    9000005    1    3    3    0    0 -0.22436081074E+02 -0.52553199898E+02 -0.29807699763E+03  0.30350636413E+03  0.10000000000E+01 0.  0.
          4    1    1    2  501    0 -0.42173438085E+01  0.32791534359E+02 -0.41526911295E+02  0.53095837653E+02  0.12700000000E+01 0.  1.
<mgrwt>
<rscale>  1 0.12930047E+03</rscale>
<asrwt>0</asrwt>
<pdfrwt beam="1">  1       21 0.28484352E-02 0.12930047E+03</pdfrwt>
<pdfrwt beam="2">  1        4 0.57788764E-01 0.12930047E+03</pdfrwt>
<totfact> 0.79114337E+04</totfact>
</mgrwt>
</event>
<event>
 6    4  0.3189516E-003  0.1908775E+03  0.7818608E-02  0.1157672E+00
         21   -1    0    0  501  502  0.00000000000E+00  0.00000000000E+00  0.17626425329E+03  0.17626425329E+03  0.00000000000E+00 0.  1.
         -4   -1    0    0    0  501 -0.00000000000E+00 -0.00000000000E+00 -0.29786099443E+03  0.29786370189E+03  0.12700000000E+01 0. -1.
         25    2    1    2    0    0  0.95109667004E+02  0.10845854725E+03 -0.22617142587E+03  0.29595224747E+03  0.12500045469E+03 0.  0.
    9000005    1    3    3    0    0  0.71869476361E+02  0.39484026780E+02 -0.20398865593E+03  0.21985582037E+03  0.10000000000E+01 0.  0.
    9000005    1    3    3    0    0  0.23240190643E+02  0.68974520469E+02 -0.22182769941E+02  0.76096427099E+02  0.10000000000E+01 0.  0.
         -4    1    1    2    0  502 -0.95109667004E+02 -0.10845854725E+03  0.10457468473E+03  0.17817570770E+03  0.12700000000E+01 0.  1.
<mgrwt>
<rscale>  1 0.19087750E+03</rscale>
<asrwt>0</asrwt>
<pdfrwt beam="1">  1       21 0.27117577E-01 0.19087750E+03</pdfrwt>
<pdfrwt beam="2">  1       -4 0.45825328E-01 0.19087750E+03</pdfrwt>
<totfact> 0.25239249E+03</totfact>
</mgrwt>
</event>
<event>
 6    4  0.3189516E-003  0.1314163E+03  0.7818608E-02  0.1225369E+00
         21   -1    0    0  501  502  0.00000000000E+00  0.00000000000E+00  0.32584217779E+02  0.32584217779E+02  0.00000000000E+00 0. -1.
         -4   -1    0    0    0  501 -0.00000000000E+00 -0.00000000000E+00 -0.63506532217E+03  0.63506659204E+03  0.12700000000E+01 0.  1.
         25    2    1    2    0    0 -0.38662454347E+02 -0.12256903079E+02 -0.61201652436E+03  0.62596682988E+03  0.12500091590E+03 0.  0.
    9000005    1    3    3    0    0  0.38293700193E+02 -0.32840573169E+02 -0.28133688747E+03  0.28582574232E+03  0.10000000000E+01 0.  0.
    9000005    1    3    3    0    0 -0.76956154541E+02  0.20583670090E+02 -0.33067963689E+03  0.34014108757E+03  0.10000000000E+01 0.  0.
         -4    1    1    2    0  502  0.38662454347E+02  0.12256903079E+02  0.95354199682E+01  0.41683979935E+02  0.12700000000E+01 0. -1.
<mgrwt>
<rscale>  1 0.13141631E+03</rscale>
<asrwt>0</asrwt>
<pdfrwt beam="1">  1       21 0.50129563E-02 0.13141631E+03</pdfrwt>
<pdfrwt beam="2">  1       -4 0.97704363E-01 0.13141631E+03</pdfrwt>
<totfact> 0.98569549E+03</totfact>
</mgrwt>
</event>
<event>
 6    4  0.3189516E-003  0.1375596E+03  0.7818608E-02  0.1216651E+00
         -4   -1    0    0    0  501 -0.00000000000E+00  0.00000000000E+00  0.19093033869E+03  0.19093456243E+03  0.12700000000E+01 0. -1.
         21   -1    0    0  501  502  0.00000000000E+00 -0.00000000000E+00 -0.67512434019E+02  0.67512434019E+02  0.00000000000E+00 0. -1.
         25    2    1    2    0    0  0.13053976485E+02  0.55928125606E+02  0.14235714129E+03  0.19796006299E+03  0.12499707728E+03 0.  0.
    9000005    1    3    3    0    0  0.82422028175E+01  0.24287539316E+01  0.14395207482E+03  0.14421176303E+03  0.10000000000E+01 0.  0.
    9000005    1    3    3    0    0  0.48117736671E+01  0.53499371675E+02 -0.15949335301E+01  0.53748299958E+02  0.10000000000E+01 0.  0.
         -4    1    1    2    0  502 -0.13053976485E+02 -0.55928125606E+02 -0.18939236617E+02  0.60486933461E+02  0.12700000000E+01 0.  1.
<mgrwt>
<rscale>  1 0.13755955E+03</rscale>
<asrwt>0</asrwt>
<pdfrwt beam="2">  1       21 0.10386528E-01 0.13755955E+03</pdfrwt>
<pdfrwt beam="1">  1       -4 0.29375142E-01 0.13755955E+03</pdfrwt>
<totfact> 0.34124383E+04</totfact>
</mgrwt>
</event>
<event>
 6    4  0.3189516E-003  0.1286728E+03  0.7818608E-02  0.1229438E+00
         21   -1    0    0  501  502  0.00000000000E+00  0.00000000000E+00  0.12640268961E+03  0.12640268961E+03  0.00000000000E+00 0. -1.
          4   -1    0    0  502    0 -0.00000000000E+00 -0.00000000000E+00 -0.69518380709E+02  0.69529980271E+02  0.12700000000E+01 0.  1.
         25    2    1    2    0    0 -0.47304608128E+01 -0.30156355792E+02 -0.29972230076E+01  0.12870772051E+03  0.12499964368E+03 0.  0.
    9000005    1    3    3    0    0 -0.28201916137E+02 -0.64850035839E+02  0.28540419558E+02  0.76265528062E+02  0.10000000000E+01 0.  0.
    9000005    1    3    3    0    0  0.23471455325E+02  0.34693680046E+02 -0.31537642566E+02  0.52442192448E+02  0.10000000000E+01 0.  0.
          4    1    1    2  501    0  0.47304608128E+01  0.30156355792E+02  0.59881531911E+02  0.67224949373E+02  0.12700000000E+01 0. -1.
<mgrwt>
<rscale>  1 0.12867282E+03</rscale>
<asrwt>0</asrwt>
<pdfrwt beam="1">  1       21 0.19446568E-01 0.12867282E+03</pdfrwt>
<pdfrwt beam="2">  1        4 0.10696519E-01 0.12867282E+03</pdfrwt>
<totfact> 0.66176167E+04</totfact>
</mgrwt>
</event>
<event>
 6    4  0.3189516E-003  0.1267036E+03  0.7818608E-02  0.1232431E+00
          4   -1    0    0  502    0 -0.00000000000E+00  0.00000000000E+00  0.30970806046E+03  0.30971066435E+03  0.12700000000E+01 0.  1.
         21   -1    0    0  501  502  0.00000000000E+00 -0.00000000000E+00 -0.19260985721E+02  0.19260985721E+02  0.00000000000E+00 0.  1.
         25    2    1    2    0    0 -0.19172824639E+02  0.77603847552E+01  0.20457101900E+03  0.24063065945E+03  0.12500396663E+03 0.  0.
    9000005    1    3    3    0    0  0.37940063096E+02 -0.61013463017E+01  0.13531091028E+02  0.40752487517E+02  0.10000000000E+01 0.  0.
    9000005    1    3    3    0    0 -0.57112887735E+02  0.13861731057E+02  0.19103992797E+03  0.19987817193E+03  0.10000000000E+01 0.  0.
          4    1    1    2  501    0  0.19172824639E+02 -0.77603847552E+01  0.85876055733E+02  0.88340990624E+02  0.12700000000E+01 0. -1.
<mgrwt>
<rscale>  1 0.12670364E+03</rscale>
<asrwt>0</asrwt>
<pdfrwt beam="2">  1       21 0.29632288E-02 0.12670364E+03</pdfrwt>
<pdfrwt beam="1">  1        4 0.47650811E-01 0.12670364E+03</pdfrwt>
<totfact> 0.10981190E+05</totfact>
</mgrwt>
</event>
<event>
 6    4  0.3189516E-003  0.1268276E+03  0.7818608E-02  0.1232240E+00
          4   -1    0    0  502    0 -0.00000000000E+00  0.00000000000E+00  0.22103781034E+02  0.22140235681E+02  0.12700000000E+01 0.  1.
         21   -1    0    0  501  502  0.00000000000E+00 -0.00000000000E+00 -0.29477187836E+03  0.29477187836E+03  0.00000000000E+00 0.  1.
         25    2    1    2    0    0 -0.33083611464E+01  0.21182757213E+02 -0.17042746887E+03  0.21244004378E+03  0.12500238238E+03 0.  0.
    9000005    1    3    3    0    0  0.10392818090E+02  0.62714896452E+02 -0.40587464428E+02  0.75428848418E+02  0.10000000000E+01 0.  0.
    9000005    1    3    3    0    0 -0.13701179236E+02 -0.41532139239E+02 -0.12984000444E+03  0.13701119537E+03  0.10000000000E+01 0.  0.
          4    1    1    2  501    0  0.33083611464E+01 -0.21182757213E+02 -0.10224062845E+03  0.10447207025E+03  0.12700000000E+01 0. -1.
<mgrwt>
<rscale>  1 0.12682764E+03</rscale>
<asrwt>0</asrwt>
<pdfrwt beam="2">  1       21 0.45349520E-01 0.12682764E+03</pdfrwt>
<pdfrwt beam="1">  1        4 0.34035963E-02 0.12682764E+03</pdfrwt>
<totfact> 0.83019291E+04</totfact>
</mgrwt>
</event>
<event>
 6    4  0.3189516E-003  0.1271776E+03  0.7818608E-02  0.1231705E+00
         21   -1    0    0  501  502  0.00000000000E+00  0.00000000000E+00  0.18967866765E+02  0.18967866765E+02  0.00000000000E+00 0.  1.
          4   -1    0    0  502    0 -0.00000000000E+00 -0.00000000000E+00 -0.32343628496E+03  0.32343877833E+03  0.12700000000E+01 0.  1.
         25    2    1    2    0    0  0.22593308368E+02  0.62213021032E+01 -0.28435066149E+03  0.31149549472E+03  0.12499992943E+03 0.  0.
    9000005    1    3    3    0    0  0.64243910022E+02  0.37883989967E+02 -0.15720650881E+03  0.17400391686E+03  0.10000000000E+01 0.  0.
    9000005    1    3    3    0    0 -0.41650601654E+02 -0.31662687863E+02 -0.12714415268E+03  0.13749157786E+03  0.10000000000E+01 0.  0.
          4    1    1    2  501    0 -0.22593308368E+02 -0.62213021032E+01 -0.20117756701E+02  0.30911150376E+02  0.12700000000E+01 0. -1.
<mgrwt>
<rscale>  1 0.12717761E+03</rscale>
<asrwt>0</asrwt>
<pdfrwt beam="1">  1       21 0.29181334E-02 0.12717761E+03</pdfrwt>
<pdfrwt beam="2">  1        4 0.49762889E-01 0.12717761E+03</pdfrwt>
<totfact> 0.10319409E+05</totfact>
</mgrwt>
</event>
<event>
 6    4  0.3189516E-003  0.1269032E+03  0.7818608E-02  0.1232124E+00
         21   -1    0    0  501  502  0.00000000000E+00  0.00000000000E+00  0.19848873625E+03  0.19848873625E+03  0.00000000000E+00 0.  1.
         -4   -1    0    0    0  501 -0.00000000000E+00 -0.00000000000E+00 -0.27899972784E+02  0.27928862872E+02  0.12700000000E+01 0.  1.
         25    2    1    2    0    0  0.80976932179E+01 -0.20379056372E+02  0.14456787149E+03  0.19236501782E+03  0.12499420803E+03 0.  0.
    9000005    1    3    3    0    0  0.45565094906E+02  0.23473321500E+02  0.19891535598E+02  0.54989525225E+02  0.10000000000E+01 0.  0.
    9000005    1    3    3    0    0 -0.37467401688E+02 -0.43852377872E+02  0.12467633589E+03  0.13737549259E+03  0.10000000000E+01 0.  0.
         -4    1    1    2    0  502 -0.80976932179E+01  0.20379056372E+02  0.26020891975E+02  0.34052581301E+02  0.12700000000E+01 0. -1.
<mgrwt>
<rscale>  1 0.12690323E+03</rscale>
<asrwt>0</asrwt>
<pdfrwt beam="1">  1       21 0.30536728E-01 0.12690323E+03</pdfrwt>
<pdfrwt beam="2">  1       -4 0.42948385E-02 0.12690323E+03</pdfrwt>
<totfact> 0.12573774E+05</totfact>
</mgrwt>
</event>
<event>
 6    4  0.3189516E-003  0.1271917E+03  0.7818608E-02  0.1231683E+00
         21   -1    0    0  501  502  0.00000000000E+00  0.00000000000E+00  0.12157275595E+03  0.12157275595E+03  0.00000000000E+00 0.  1.
          4   -1    0    0  502    0 -0.00000000000E+00 -0.00000000000E+00 -0.78463398390E+02  0.78473675758E+02  0.12700000000E+01 0.  1.
         25    2    1    2    0    0  0.21953383106E+02  0.84053907832E+01 -0.23548758757E+02  0.12935329912E+03  0.12500052132E+03 0.  0.
    9000005    1    3    3    0    0  0.34034180262E+02 -0.26939705464E+02 -0.62030099835E+02  0.75715298600E+02  0.10000000000E+01 0.  0.
    9000005    1    3    3    0    0 -0.12080797155E+02  0.35345096247E+02  0.38481341078E+02  0.53638000520E+02  0.10000000000E+01 0.  0.
          4    1    1    2  501    0 -0.21953383106E+02 -0.84053907832E+01  0.66658116313E+02  0.70693132583E+02  0.12700000000E+01 0. -1.
<mgrwt>
<rscale>  1 0.12719171E+03</rscale>
<asrwt>0</asrwt>
<pdfrwt beam="1">  1       21 0.18703501E-01 0.12719171E+03</pdfrwt>
<pdfrwt beam="2">  1        4 0.12072593E-01 0.12719171E+03</pdfrwt>
<totfact> 0.57787096E+04</totfact>
</mgrwt>
</event>
<event>
 6    4  0.3189516E-003  0.1272094E+03  0.7818608E-02  0.1231656E+00
         21   -1    0    0  501  502  0.00000000000E+00  0.00000000000E+00  0.72937325241E+02  0.72937325241E+02  0.00000000000E+00 0.  1.
          4   -1    0    0  502    0 -0.00000000000E+00 -0.00000000000E+00 -0.45150093245E+03  0.45150271860E+03  0.12700000000E+01 0. -1.
         25    2    1    2    0    0 -0.15889169166E+02  0.17510658116E+02 -0.44030539153E+03  0.45831327411E+03  0.12499252203E+03 0.  0.
    9000005    1    3    3    0    0  0.50857949906E+02  0.18930301034E+02 -0.26970382043E+03  0.27511095602E+03  0.10000000000E+01 0.  0.
    9000005    1    3    3    0    0 -0.66747119071E+02 -0.14196429183E+01 -0.17060157111E+03  0.18320231809E+03  0.10000000000E+01 0.  0.
          4    1    1    2  501    0  0.15889169166E+02 -0.17510658116E+02  0.61741784323E+02  0.66126769737E+02  0.12700000000E+01 0.  1.
<mgrwt>
<rscale>  1 0.12720935E+03</rscale>
<asrwt>0</asrwt>
<pdfrwt beam="1">  1       21 0.11221127E-01 0.12720935E+03</pdfrwt>
<pdfrwt beam="2">  1        4 0.69462670E-01 0.12720935E+03</pdfrwt>
<totfact> 0.52489674E+03</totfact>
</mgrwt>
</event>
<event>
 6    4  0.3189516E-003  0.1308415E+03  0.7818608E-02  0.1226212E+00
         -4   -1    0    0    0  501 -0.00000000000E+00  0.00000000000E+00  0.22997818532E+02  0.23032858208E+02  0.12700000000E+01 0. -1.
         21   -1    0    0  501  502  0.00000000000E+00 -0.00000000000E+00 -0.31593926203E+03  0.31593926203E+03  0.00000000000E+00 0. -1.
         25    2    1    2    0    0  0.61191682249E+01 -0.38177949690E+02 -0.24073483776E+03  0.27399410361E+03  0.12499802654E+03 0.  0.
    9000005    1    3    3    0    0  0.27911436172E+02 -0.42128665997E+02 -0.23693532645E+02  0.55823438241E+02  0.10000000000E+01 0.  0.
    9000005    1    3    3    0    0 -0.21792267947E+02  0.39507163073E+01 -0.21704130511E+03  0.21817066537E+03  0.10000000000E+01 0.  0.
         -4    1    1    2    0  502 -0.61191682249E+01  0.38177949690E+02 -0.52206605740E+02  0.64978016630E+02  0.12700000000E+01 0.  1.
<mgrwt>
<rscale>  1 0.13084153E+03</rscale>
<asrwt>0</asrwt>
<pdfrwt beam="2">  1       21 0.48606041E-01 0.13084153E+03</pdfrwt>
<pdfrwt beam="1">  1       -4 0.35410176E-02 0.13084153E+03</pdfrwt>
<totfact> 0.67945602E+04</totfact>
</mgrwt>
</event>
<event>
 6    4  0.3189516E-003  0.1341479E+03  0.7818608E-02  0.1221428E+00
         -4   -1    0    0    0  501 -0.00000000000E+00  0.00000000000E+00  0.15261918024E+03  0.15262446421E+03  0.12700000000E+01 0.  1.
         21   -1    0    0  501  502  0.00000000000E+00 -0.00000000000E+00 -0.13602188180E+03  0.13602188180E+03  0.00000000000E+00 0. -1.
         25    2    1    2    0    0 -0.29975790683E+02 -0.38334945068E+02  0.11639769241E+03  0.17760649921E+03  0.12501011848E+03 0.  0.
    9000005    1    3    3    0    0  0.15890409409E+02  0.88285255536E+00  0.11616146640E+03  0.11725088834E+03  0.10000000000E+01 0.  0.
    9000005    1    3    3    0    0 -0.45866200093E+02 -0.39217797624E+02  0.23622601059E+00  0.60355610875E+02  0.10000000000E+01 0.  0.
         -4    1    1    2    0  502  0.29975790683E+02  0.38334945068E+02 -0.99800393972E+02  0.11103984680E+03  0.12700000000E+01 0. -1.
<mgrwt>
<rscale>  1 0.13414785E+03</rscale>
<asrwt>0</asrwt>
<pdfrwt beam="2">  1       21 0.20926443E-01 0.13414785E+03</pdfrwt>
<pdfrwt beam="1">  1       -4 0.23480736E-01 0.13414785E+03</pdfrwt>
<totfact> 0.14582090E+04</totfact>
</mgrwt>
</event>
<event>
 6    4  0.3189516E-003  0.1275210E+03  0.7818608E-02  0.1231181E+00
         -4   -1    0    0    0  501 -0.00000000000E+00  0.00000000000E+00  0.37629033599E+03  0.37629247915E+03  0.12700000000E+01 0. -1.
         21   -1    0    0  501  502  0.00000000000E+00 -0.00000000000E+00 -0.19286085090E+02  0.19286085090E+02  0.00000000000E+00 0.  1.
         25    2    1    2    0    0 -0.10974133110E+02  0.22726635972E+02  0.34458126697E+03  0.36742052791E+03  0.12499865280E+03 0.  0.
    9000005    1    3    3    0    0  0.22122520546E+02  0.36791979973E+02  0.34027143204E+02  0.54789617450E+02  0.10000000000E+01 0.  0.
    9000005    1    3    3    0    0 -0.33096653656E+02 -0.14065344002E+02  0.31055412377E+03  0.31263091046E+03  0.10000000000E+01 0.  0.
         -4    1    1    2    0  502  0.10974133110E+02 -0.22726635972E+02  0.12422983932E+02  0.28158036329E+02  0.12700000000E+01 0.  1.
<mgrwt>
<rscale>  1 0.12752096E+03</rscale>
<asrwt>0</asrwt>
<pdfrwt beam="2">  1       21 0.29670903E-02 0.12752096E+03</pdfrwt>
<pdfrwt beam="1">  1       -4 0.57894197E-01 0.12752096E+03</pdfrwt>
<totfact> 0.73571707E+04</totfact>
</mgrwt>
</event>
<event>
 6    4  0.3189516E-003  0.1338681E+03  0.7818608E-02  0.1221827E+00
         -4   -1    0    0    0  501 -0.00000000000E+00  0.00000000000E+00  0.40473627386E+03  0.40473826638E+03  0.12700000000E+01 0. -1.
         21   -1    0    0  501  502  0.00000000000E+00 -0.00000000000E+00 -0.27561622971E+02  0.27561622971E+02  0.00000000000E+00 0. -1.
         25    2    1    2    0    0 -0.23340645188E+02 -0.41838286639E+02  0.15405933866E+03  0.20409541219E+03  0.12500171800E+03 0.  0.
    9000005    1    3    3    0    0 -0.28668451890E+02 -0.84429319489E+02  0.11877898800E+03  0.14852487372E+03  0.10000000000E+01 0.  0.
    9000005    1    3    3    0    0  0.53278067023E+01  0.42591032850E+02  0.35280350651E+02  0.55570538467E+02  0.10000000000E+01 0.  0.
         -4    1    1    2    0  502  0.23340645188E+02  0.41838286639E+02  0.22311531223E+03  0.22820447716E+03  0.12700000000E+01 0.  1.
<mgrwt>
<rscale>  1 0.13386806E+03</rscale>
<asrwt>0</asrwt>
<pdfrwt beam="2">  1       21 0.42402500E-02 0.13386806E+03</pdfrwt>
<pdfrwt beam="1">  1       -4 0.62269518E-01 0.13386806E+03</pdfrwt>
<totfact> 0.35224786E+04</totfact>
</mgrwt>
</event>
<event>
 6    4  0.3189516E-003  0.1374544E+03  0.7818608E-02  0.1216796E+00
         21   -1    0    0  501  502  0.00000000000E+00  0.00000000000E+00  0.57838054558E+02  0.57838054558E+02  0.00000000000E+00 0. -1.
          4   -1    0    0  502    0 -0.00000000000E+00 -0.00000000000E+00 -0.17475743623E+03  0.17476205085E+03  0.12700000000E+01 0. -1.
         25    2    1    2    0    0  0.14040148357E+02  0.55415082774E+02 -0.10782865245E+03  0.17470182027E+03  0.12500300217E+03 0.  0.
    9000005    1    3    3    0    0 -0.58833582100E+00  0.93266629525E+02 -0.92352904114E+02  0.13125954906E+03  0.10000000000E+01 0.  0.
    9000005    1    3    3    0    0  0.14628484178E+02 -0.37851546751E+02 -0.15475748337E+02  0.43442271204E+02  0.10000000000E+01 0.  0.
          4    1    1    2  501    0 -0.14040148357E+02 -0.55415082774E+02 -0.90907292238E+01  0.57898285144E+02  0.12700000000E+01 0.  1.
<mgrwt>
<rscale>  1 0.13745438E+03</rscale>
<asrwt>0</asrwt>
<pdfrwt beam="1">  1       21 0.88981623E-02 0.13745438E+03</pdfrwt>
<pdfrwt beam="2">  1        4 0.26887187E-01 0.13745438E+03</pdfrwt>
<totfact> 0.52778996E+04</totfact>
</mgrwt>
</event>
<event>
 6    4  0.3189516E-003  0.1355331E+03  0.7818608E-02  0.1219469E+00
         21   -1    0    0  501  502  0.00000000000E+00  0.00000000000E+00  0.10009271278E+03  0.10009271278E+03  0.00000000000E+00 0. -1.
         -4   -1    0    0    0  501 -0.00000000000E+00 -0.00000000000E+00 -0.10515714958E+03  0.10516481829E+03  0.12700000000E+01 0.  1.
         25    2    1    2    0    0  0.40456954624E+02  0.33266201741E+02  0.34203657910E+02  0.13978233334E+03  0.12500322054E+03 0.  0.
    9000005    1    3    3    0    0  0.24613871037E+02  0.52139663281E+02 -0.34216365162E+02  0.67053312964E+02  0.10000000000E+01 0.  0.
    9000005    1    3    3    0    0  0.15843083587E+02 -0.18873461541E+02  0.68420023072E+02  0.72729020379E+02  0.10000000000E+01 0.  0.
         -4    1    1    2    0  502 -0.40456954624E+02 -0.33266201741E+02 -0.39268094708E+02  0.65475197730E+02  0.12700000000E+01 0. -1.
<mgrwt>
<rscale>  1 0.13553306E+03</rscale>
<asrwt>0</asrwt>
<pdfrwt beam="1">  1       21 0.15398879E-01 0.13553306E+03</pdfrwt>
<pdfrwt beam="2">  1       -4 0.16179233E-01 0.13553306E+03</pdfrwt>
<totfact> 0.49961523E+04</totfact>
</mgrwt>
</event>
<event>
 6    4  0.3189516E-003  0.1277653E+03  0.7818608E-02  0.1230810E+00
          4   -1    0    0  502    0 -0.00000000000E+00  0.00000000000E+00  0.11916057890E+02  0.11983544369E+02  0.12700000000E+01 0.  1.
         21   -1    0    0  501  502  0.00000000000E+00 -0.00000000000E+00 -0.58334851399E+03  0.58334851399E+03  0.00000000000E+00 0.  1.
         25    2    1    2    0    0 -0.18805044005E+02  0.18595065087E+02 -0.35510646213E+03  0.37739180349E+03  0.12499827107E+03 0.  0.
    9000005    1    3    3    0    0  0.37513793484E+01  0.46259192074E+02 -0.43088646688E+02  0.63337328422E+02  0.10000000000E+01 0.  0.
    9000005    1    3    3    0    0 -0.22556423353E+02 -0.27664126987E+02 -0.31201781545E+03  0.31405447507E+03  0.10000000000E+01 0.  0.
          4    1    1    2  501    0  0.18805044005E+02 -0.18595065087E+02 -0.21632599396E+03  0.21794025486E+03  0.12700000000E+01 0. -1.
<mgrwt>
<rscale>  1 0.12776531E+03</rscale>
<asrwt>0</asrwt>
<pdfrwt beam="2">  1       21 0.89745903E-01 0.12776531E+03</pdfrwt>
<pdfrwt beam="1">  1        4 0.18385377E-02 0.12776531E+03</pdfrwt>
<totfact> 0.49854820E+04</totfact>
</mgrwt>
</event>
<event>
 6    4  0.3189516E-003  0.1289823E+03  0.7818608E-02  0.1228974E+00
         21   -1    0    0  501  502  0.00000000000E+00  0.00000000000E+00  0.27512031773E+03  0.27512031773E+03  0.00000000000E+00 0. -1.
         -4   -1    0    0    0  501 -0.00000000000E+00 -0.00000000000E+00 -0.32489566220E+02  0.32514378561E+02  0.12700000000E+01 0.  1.
         25    2    1    2    0    0  0.20438731566E+02  0.24372735688E+02  0.10484533759E+03  0.16621968583E+03  0.12499866860E+03 0.  0.
    9000005    1    3    3    0    0  0.65742861691E+02 -0.14920731793E+02  0.68363904699E+02  0.96017579465E+02  0.10000000000E+01 0.  0.
    9000005    1    3    3    0    0 -0.45304130125E+02  0.39293467480E+02  0.36481432888E+02  0.70202106369E+02  0.10000000000E+01 0.  0.
         -4    1    1    2    0  502 -0.20438731566E+02 -0.24372735688E+02  0.13778541393E+03  0.14141501046E+03  0.12700000000E+01 0. -1.
<mgrwt>
<rscale>  1 0.12898232E+03</rscale>
<asrwt>0</asrwt>
<pdfrwt beam="1">  1       21 0.42326201E-01 0.12898232E+03</pdfrwt>
<pdfrwt beam="2">  1       -4 0.50005291E-02 0.12898232E+03</pdfrwt>
<totfact> 0.51901397E+04</totfact>
</mgrwt>
</event>
<event>
 6    4  0.3189516E-003  0.1275338E+03  0.7818608E-02  0.1231162E+00
          4   -1    0    0  502    0 -0.00000000000E+00  0.00000000000E+00  0.15835362567E+03  0.15835871830E+03  0.12700000000E+01 0.  1.
         21   -1    0    0  501  502  0.00000000000E+00 -0.00000000000E+00 -0.46162811282E+02  0.46162811282E+02  0.00000000000E+00 0.  1.
         25    2    1    2    0    0  0.18127257298E+02  0.17651302003E+02  0.12281109683E+03  0.17705210624E+03  0.12499886759E+03 0.  0.
    9000005    1    3    3    0    0 -0.19606245492E+02  0.62482916923E+02  0.85005360901E+02  0.10730997694E+03  0.10000000000E+01 0.  0.
    9000005    1    3    3    0    0  0.37733502790E+02 -0.44831614920E+02  0.37805735933E+02  0.69742129294E+02  0.10000000000E+01 0.  0.
          4    1    1    2  501    0 -0.18127257298E+02 -0.17651302003E+02 -0.10620282451E+02  0.27469423345E+02  0.12700000000E+01 0. -1.
<mgrwt>
<rscale>  1 0.12753385E+03</rscale>
<asrwt>0</asrwt>
<pdfrwt beam="2">  1       21 0.71019711E-02 0.12753385E+03</pdfrwt>
<pdfrwt beam="1">  1        4 0.24363831E-01 0.12753385E+03</pdfrwt>
<totfact> 0.92518803E+04</totfact>
</mgrwt>
</event>
<event>
 6    4  0.3189516E-003  0.1348537E+03  0.7818608E-02  0.1220426E+00
         -4   -1    0    0    0  501 -0.00000000000E+00  0.00000000000E+00  0.90660009311E+02  0.90668904197E+02  0.12700000000E+01 0. -1.
         21   -1    0    0  501  502  0.00000000000E+00 -0.00000000000E+00 -0.94876655357E+02  0.94876655357E+02  0.00000000000E+00 0. -1.
         25    2    1    2    0    0 -0.50459572832E+02  0.37549297199E+01 -0.45249920367E+01  0.13492959404E+03  0.12500100723E+03 0.  0.
    9000005    1    3    3    0    0  0.28312530203E+02 -0.14039136736E+02 -0.36301238757E+02  0.48140177213E+02  0.10000000000E+01 0.  0.
    9000005    1    3    3    0    0 -0.78772103036E+02  0.17794066456E+02  0.31776246720E+02  0.86789416828E+02  0.10000000000E+01 0.  0.
         -4    1    1    2    0  502  0.50459572832E+02 -0.37549297199E+01  0.30834599045E+00  0.50615965514E+02  0.12700000000E+01 0.  1.
<mgrwt>
<rscale>  1 0.13485370E+03</rscale>
<asrwt>0</asrwt>
<pdfrwt beam="2">  1       21 0.14596409E-01 0.13485370E+03</pdfrwt>
<pdfrwt beam="1">  1       -4 0.13949032E-01 0.13485370E+03</pdfrwt>
<totfact> 0.71253663E+04</totfact>
</mgrwt>
</event>
<event>
 6    4  0.3189516E-003  0.1284858E+03  0.7818608E-02  0.1229720E+00
          4   -1    0    0  502    0 -0.00000000000E+00  0.00000000000E+00  0.37551477125E+03  0.37551691883E+03  0.12700000000E+01 0. -1.
         21   -1    0    0  501  502  0.00000000000E+00 -0.00000000000E+00 -0.20019773152E+02  0.20019773152E+02  0.00000000000E+00 0. -1.
         25    2    1    2    0    0  0.23427980639E+02  0.18308337056E+02  0.33658936314E+03  0.36027904861E+03  0.12499811203E+03 0.  0.
    9000005    1    3    3    0    0  0.57432080875E+02 -0.25707938320E+02  0.24642887010E+03  0.25433743339E+03  0.10000000000E+01 0.  0.
    9000005    1    3    3    0    0 -0.34004100236E+02  0.44016275375E+02  0.90160493036E+02  0.10594161522E+03  0.10000000000E+01 0.  0.
          4    1    1    2  501    0 -0.23427980639E+02 -0.18308337056E+02  0.18905634963E+02  0.35257643369E+02  0.12700000000E+01 0.  1.
<mgrwt>
<rscale>  1 0.12848577E+03</rscale>
<asrwt>0</asrwt>
<pdfrwt beam="2">  1       21 0.30799654E-02 0.12848577E+03</pdfrwt>
<pdfrwt beam="1">  1        4 0.57774762E-01 0.12848577E+03</pdfrwt>
<totfact> 0.69574279E+04</totfact>
</mgrwt>
</event>
<event>
 6    4  0.3189516E-003  0.1283949E+03  0.7818608E-02  0.1229857E+00
         -4   -1    0    0    0  501 -0.00000000000E+00  0.00000000000E+00  0.31233305243E+02  0.31259114774E+02  0.12700000000E+01 0.  1.
         21   -1    0    0  501  502  0.00000000000E+00 -0.00000000000E+00 -0.28776321660E+03  0.28776321660E+03  0.00000000000E+00 0.  1.
         25    2    1    2    0    0 -0.24072171479E+02  0.16749934497E+02 -0.10846895761E+03  0.16807966455E+03  0.12500091649E+03 0.  0.
    9000005    1    3    3    0    0  0.24322382904E+02 -0.25542239411E+02 -0.96431726467E+02  0.10268428397E+03  0.10000000000E+01 0.  0.
    9000005    1    3    3    0    0 -0.48394554383E+02  0.42292173908E+02 -0.12037231148E+02  0.65395380582E+02  0.10000000000E+01 0.  0.
         -4    1    1    2    0  502  0.24072171479E+02 -0.16749934497E+02 -0.14806095374E+03  0.15094266683E+03  0.12700000000E+01 0. -1.
<mgrwt>
<rscale>  1 0.12839493E+03</rscale>
<asrwt>0</asrwt>
<pdfrwt beam="2">  1       21 0.44271264E-01 0.12839493E+03</pdfrwt>
<pdfrwt beam="1">  1       -4 0.48073248E-02 0.12839493E+03</pdfrwt>
<totfact> 0.50462773E+04</totfact>
</mgrwt>
</event>
<event>
 6    4  0.3189516E-003  0.1274743E+03  0.7818608E-02  0.1231252E+00
         -4   -1    0    0    0  501 -0.00000000000E+00  0.00000000000E+00  0.11510809137E+04  0.11510816143E+04  0.12700000000E+01 0. -1.
         21   -1    0    0  501  502  0.00000000000E+00 -0.00000000000E+00 -0.58337985101E+01  0.58337985101E+01  0.00000000000E+00 0. -1.
         25    2    1    2    0    0  0.31557486515E+01 -0.24802297447E+02  0.10710396166E+04  0.10785988855E+04  0.12499833078E+03 0.  0.
    9000005    1    3    3    0    0 -0.29875583795E+02  0.11824478930E+02  0.78403442235E+02  0.84737645491E+02  0.10000000000E+01 0.  0.
    9000005    1    3    3    0    0  0.33031332446E+02 -0.36626776377E+02  0.99263617438E+03  0.99386123999E+03  0.10000000000E+01 0.  0.
         -4    1    1    2    0  502 -0.31557486515E+01  0.24802297447E+02  0.74207498581E+02  0.78316527335E+02  0.12700000000E+01 0.  1.
<mgrwt>
<rscale>  1 0.12747429E+03</rscale>
<asrwt>0</asrwt>
<pdfrwt beam="2">  1       21 0.89750838E-03 0.12747429E+03</pdfrwt>
<pdfrwt beam="1">  1       -4 0.17709988E+00 0.12747429E+03</pdfrwt>
<totfact> 0.36723526E+04</totfact>
</mgrwt>
</event>
<event>
 6    4  0.3189516E-003  0.1268372E+03  0.7818608E-02  0.1232226E+00
         -4   -1    0    0    0  501 -0.00000000000E+00  0.00000000000E+00  0.85801199482E+02  0.85810598020E+02  0.12700000000E+01 0.  1.
         21   -1    0    0  501  502  0.00000000000E+00 -0.00000000000E+00 -0.68520141425E+02  0.68520141425E+02  0.00000000000E+00 0.  1.
         25    2    1    2    0    0  0.83838674838E+01  0.19794213065E+02  0.18796542015E+00  0.12683734350E+03  0.12500230506E+03 0.  0.
    9000005    1    3    3    0    0 -0.42928089988E+02  0.83398468294E+01  0.41246628202E+02  0.60122028352E+02  0.10000000000E+01 0.  0.
    9000005    1    3    3    0    0  0.51311957471E+02  0.11454366236E+02 -0.41058662782E+02  0.66715315145E+02  0.10000000000E+01 0.  0.
         -4    1    1    2    0  502 -0.83838674838E+01 -0.19794213065E+02  0.17093092637E+02  0.27493395948E+02  0.12700000000E+01 0. -1.
<mgrwt>
<rscale>  1 0.12683720E+03</rscale>
<asrwt>0</asrwt>
<pdfrwt beam="2">  1       21 0.10541560E-01 0.12683720E+03</pdfrwt>
<pdfrwt beam="1">  1       -4 0.13201813E-01 0.12683720E+03</pdfrwt>
<totfact> 0.13855260E+05</totfact>
</mgrwt>
</event>
<event>
 6    4  0.3189516E-003  0.1287287E+03  0.7818608E-02  0.1229354E+00
          4   -1    0    0  502    0 -0.00000000000E+00  0.00000000000E+00  0.65096497049E+03  0.65096620934E+03  0.12700000000E+01 0.  1.
         21   -1    0    0  501  502  0.00000000000E+00 -0.00000000000E+00 -0.17124192452E+02  0.17124192452E+02  0.00000000000E+00 0. -1.
         25    2    1    2    0    0 -0.20487602895E+02 -0.22929064906E+02  0.62189497339E+03  0.63507829737E+03  0.12500240787E+03 0.  0.
    9000005    1    3    3    0    0 -0.68612553843E+02 -0.15436610386E+02  0.24015892442E+03  0.25024643946E+03  0.10000000000E+01 0.  0.
    9000005    1    3    3    0    0  0.48124950948E+02 -0.74924545204E+01  0.38173604896E+03  0.38483185790E+03  0.10000000000E+01 0.  0.
          4    1    1    2  501    0  0.20487602895E+02  0.22929064906E+02  0.11945804653E+02  0.33012104427E+02  0.12700000000E+01 0. -1.
<mgrwt>
<rscale>  1 0.12872873E+03</rscale>
<asrwt>0</asrwt>
<pdfrwt beam="2">  1       21 0.26344916E-02 0.12872873E+03</pdfrwt>
<pdfrwt beam="1">  1        4 0.10015216E+00 0.12872873E+03</pdfrwt>
<totfact> 0.26937593E+04</totfact>
</mgrwt>
</event>
<event>
 6    4  0.3189516E-003  0.1578536E+03  0.7818608E-02  0.1191142E+00
          4   -1    0    0  502    0 -0.00000000000E+00  0.00000000000E+00  0.64530718474E+03  0.64530843446E+03  0.12700000000E+01 0. -1.
         21   -1    0    0  501  502  0.00000000000E+00 -0.00000000000E+00 -0.45680890946E+02  0.45680890946E+02  0.00000000000E+00 0.  1.
         25    2    1    2    0    0 -0.41068493003E+02  0.87211973664E+02  0.56800208364E+03  0.58952872696E+03  0.12500081369E+03 0.  0.
    9000005    1    3    3    0    0 -0.77254122768E+02  0.18082254098E+02  0.26360330299E+03  0.27528688444E+03  0.10000000000E+01 0.  0.
    9000005    1    3    3    0    0  0.36185629765E+02  0.69129719566E+02  0.30439878065E+03  0.31424184252E+03  0.10000000000E+01 0.  0.
          4    1    1    2  501    0  0.41068493003E+02 -0.87211973664E+02  0.31624210155E+02  0.10146059844E+03  0.12700000000E+01 0.  1.
<mgrwt>
<rscale>  1 0.15785358E+03</rscale>
<asrwt>0</asrwt>
<pdfrwt beam="2">  1       21 0.70278299E-02 0.15785358E+03</pdfrwt>
<pdfrwt beam="1">  1        4 0.99279476E-01 0.15785358E+03</pdfrwt>
<totfact> 0.54295068E+03</totfact>
</mgrwt>
</event>
<event>
 6    4  0.3189516E-003  0.1592126E+03  0.7818608E-02  0.1189589E+00
         21   -1    0    0  501  502  0.00000000000E+00  0.00000000000E+00  0.92032708534E+03  0.92032708534E+03  0.00000000000E+00 0.  1.
          4   -1    0    0  502    0 -0.00000000000E+00 -0.00000000000E+00 -0.29505450919E+02  0.29532770509E+02  0.12700000000E+01 0. -1.
         25    2    1    2    0    0 -0.54288010657E+02  0.82316377052E+02  0.21854859878E+03  0.27039254878E+03  0.12500186548E+03 0.  0.
    9000005    1    3    3    0    0  0.23470398181E+02  0.34217838370E+02  0.10020693771E+02  0.42698177445E+02  0.10000000000E+01 0.  0.
    9000005    1    3    3    0    0 -0.77758408838E+02  0.48098538682E+02  0.20852790501E+03  0.22769437133E+03  0.10000000000E+01 0.  0.
          4    1    1    2  501    0  0.54288010657E+02 -0.82316377052E+02  0.67227303564E+03  0.67946730707E+03  0.12700000000E+01 0.  1.
<mgrwt>
<rscale>  1 0.15921256E+03</rscale>
<asrwt>0</asrwt>
<pdfrwt beam="1">  1       21 0.14158876E+00 0.15921256E+03</pdfrwt>
<pdfrwt beam="2">  1        4 0.45414698E-02 0.15921256E+03</pdfrwt>
<totfact> 0.40724401E+03</totfact>
</mgrwt>
</event>
<event>
 6    4  0.3189516E-003  0.1269605E+03  0.7818608E-02  0.1232037E+00
         21   -1    0    0  501  502  0.00000000000E+00  0.00000000000E+00  0.26036738566E+02  0.26036738566E+02  0.00000000000E+00 0.  1.
          4   -1    0    0  502    0 -0.00000000000E+00 -0.00000000000E+00 -0.37506433136E+03  0.37506648152E+03  0.12700000000E+01 0. -1.
         25    2    1    2    0    0 -0.17633058083E+02 -0.13749446929E+02 -0.35574499197E+03  0.37772142418E+03  0.12497600947E+03 0.  0.
    9000005    1    3    3    0    0  0.20921039973E+02 -0.69321120113E+01 -0.33025710198E+03  0.33099319857E+03  0.10000000000E+01 0.  0.
    9000005    1    3    3    0    0 -0.38554098056E+02 -0.68173349175E+01 -0.25487889984E+02  0.46728225604E+02  0.10000000000E+01 0.  0.
          4    1    1    2  501    0  0.17633058083E+02  0.13749446929E+02  0.67173991739E+01  0.23381795907E+02  0.12700000000E+01 0.  1.
<mgrwt>
<rscale>  1 0.12696053E+03</rscale>
<asrwt>0</asrwt>
<pdfrwt beam="1">  1       21 0.40056519E-02 0.12696053E+03</pdfrwt>
<pdfrwt beam="2">  1        4 0.57704755E-01 0.12696053E+03</pdfrwt>
<totfact> 0.45123981E+04</totfact>
</mgrwt>
</event>
<event>
 6    4  0.3189516E-003  0.1292492E+03  0.7818608E-02  0.1228574E+00
          4   -1    0    0  502    0 -0.00000000000E+00  0.00000000000E+00  0.46211447525E+02  0.46228895535E+02  0.12700000000E+01 0.  1.
         21   -1    0    0  501  502  0.00000000000E+00 -0.00000000000E+00 -0.61181281197E+03  0.61181281197E+03  0.00000000000E+00 0. -1.
         25    2    1    2    0    0 -0.25356569865E+02  0.20909511030E+02 -0.45684374774E+02  0.13708542111E+03  0.12500074918E+03 0.  0.
    9000005    1    3    3    0    0  0.26070681895E+00  0.97126736720E+01 -0.86803970359E+02  0.87351778848E+02  0.10000000000E+01 0.  0.
    9000005    1    3    3    0    0 -0.25617276684E+02  0.11196837358E+02  0.41119595585E+02  0.49733642261E+02  0.10000000000E+01 0.  0.
          4    1    1    2  501    0  0.25356569865E+02 -0.20909511030E+02 -0.51991698967E+03  0.52095628639E+03  0.12700000000E+01 0. -1.
<mgrwt>
<rscale>  1 0.12924918E+03</rscale>
<asrwt>0</asrwt>
<pdfrwt beam="2">  1       21 0.94125050E-01 0.12924918E+03</pdfrwt>
<pdfrwt beam="1">  1        4 0.71108969E-02 0.12924918E+03</pdfrwt>
<totfact> 0.52664026E+03</totfact>
</mgrwt>
</event>
<event>
 6    4  0.3189516E-003  0.1266888E+03  0.7818608E-02  0.1232453E+00
         21   -1    0    0  501  502  0.00000000000E+00  0.00000000000E+00  0.21319415689E+04  0.21319415689E+04  0.00000000000E+00 0.  1.
         -4   -1    0    0    0  501 -0.00000000000E+00 -0.00000000000E+00 -0.24637093989E+01  0.27717799339E+01  0.12700000000E+01 0.  1.
         25    2    1    2    0    0 -0.20475985812E+02 -0.22573650402E+01  0.16846261101E+04  0.16893830742E+04  0.12500271497E+03 0.  0.
    9000005    1    3    3    0    0 -0.35322639804E+02 -0.32057594747E+02  0.15487185875E+04  0.15494533363E+04  0.10000000000E+01 0.  0.
    9000005    1    3    3    0    0  0.14846653992E+02  0.29800229707E+02  0.13590752264E+03  0.13992973785E+03  0.10000000000E+01 0.  0.
         -4    1    1    2    0  502  0.20475985812E+02  0.22573650402E+01  0.44485174936E+03  0.44533027463E+03  0.12700000000E+01 0. -1.
<mgrwt>
<rscale>  1 0.12668875E+03</rscale>
<asrwt>0</asrwt>
<pdfrwt beam="1">  1       21 0.32798962E+00 0.12668875E+03</pdfrwt>
<pdfrwt beam="2">  1       -4 0.40276075E-03 0.12668875E+03</pdfrwt>
<totfact> 0.11641940E+04</totfact>
</mgrwt>
</event>
<event>
 6    4  0.3189516E-003  0.1270051E+03  0.7818608E-02  0.1231968E+00
         21   -1    0    0  501  502  0.00000000000E+00  0.00000000000E+00  0.99554133791E+02  0.99554133791E+02  0.00000000000E+00 0.  1.
         -4   -1    0    0    0  501 -0.00000000000E+00 -0.00000000000E+00 -0.65371649891E+02  0.65383985115E+02  0.12700000000E+01 0.  1.
         25    2    1    2    0    0 -0.22160379008E+02  0.36001433014E+01  0.37001753394E+01  0.12705900243E+03  0.12500502139E+03 0.  0.
    9000005    1    3    3    0    0 -0.44857996797E+02 -0.16760220878E+02 -0.47501397301E+02  0.67457598728E+02  0.10000000000E+01 0.  0.
    9000005    1    3    3    0    0  0.22697617789E+02  0.20360364180E+02  0.51201572640E+02  0.59601403706E+02  0.10000000000E+01 0.  0.
         -4    1    1    2    0  502  0.22160379008E+02 -0.36001433014E+01  0.30482308560E+02  0.37879116473E+02  0.12700000000E+01 0. -1.
<mgrwt>
<rscale>  1 0.12700511E+03</rscale>
<asrwt>0</asrwt>
<pdfrwt beam="1">  1       21 0.15316021E-01 0.12700511E+03</pdfrwt>
<pdfrwt beam="2">  1       -4 0.10058749E-01 0.12700511E+03</pdfrwt>
<totfact> 0.11326758E+05</totfact>
</mgrwt>
</event>
<event>
 6    4  0.3189516E-003  0.1292170E+03  0.7818608E-02  0.1228622E+00
         21   -1    0    0  501  502  0.00000000000E+00  0.00000000000E+00  0.21287841741E+03  0.21287841741E+03  0.00000000000E+00 0. -1.
         -4   -1    0    0    0  501 -0.00000000000E+00 -0.00000000000E+00 -0.37824890227E+02  0.37846204839E+02  0.12700000000E+01 0. -1.
         25    2    1    2    0    0 -0.10552302664E+02  0.31006511008E+02  0.84428408326E+02  0.15435408793E+03  0.12499709402E+03 0.  0.
    9000005    1    3    3    0    0  0.33535878759E+02 -0.34198557246E+02  0.17416367648E+02  0.50975742701E+02  0.10000000000E+01 0.  0.
    9000005    1    3    3    0    0 -0.44088181422E+02  0.65205068255E+02  0.67012040678E+02  0.10337834523E+03  0.10000000000E+01 0.  0.
         -4    1    1    2    0  502  0.10552302664E+02 -0.31006511008E+02  0.90625118854E+02  0.96370534313E+02  0.12700000000E+01 0.  1.
<mgrwt>
<rscale>  1 0.12921698E+03</rscale>
<asrwt>0</asrwt>
<pdfrwt beam="1">  1       21 0.32750525E-01 0.12921698E+03</pdfrwt>
<pdfrwt beam="2">  1       -4 0.58211450E-02 0.12921698E+03</pdfrwt>
<totfact> 0.67519763E+04</totfact>
</mgrwt>
</event>
<event>
 6    4  0.3189516E-003  0.1328636E+03  0.7818608E-02  0.1223267E+00
         21   -1    0    0  501  502  0.00000000000E+00  0.00000000000E+00  0.49212372888E+03  0.49212372888E+03  0.00000000000E+00 0.  1.
          4   -1    0    0  502    0 -0.00000000000E+00 -0.00000000000E+00 -0.23600794652E+02  0.23634940411E+02  0.12700000000E+01 0. -1.
         25    2    1    2    0    0  0.41191216518E+02 -0.18295468203E+02  0.17995048977E+03  0.22368486171E+03  0.12498519158E+03 0.  0.
    9000005    1    3    3    0    0  0.65781822295E+02  0.18319169385E+02  0.45198348783E+02  0.81894632572E+02  0.10000000000E+01 0.  0.
    9000005    1    3    3    0    0 -0.24590605777E+02 -0.36614637588E+02  0.13475214099E+03  0.14179022914E+03  0.10000000000E+01 0.  0.
          4    1    1    2  501    0 -0.41191216518E+02  0.18295468203E+02  0.28857244446E+03  0.29207380758E+03  0.12700000000E+01 0.  1.
<mgrwt>
<rscale>  1 0.13286361E+03</rscale>
<asrwt>0</asrwt>
<pdfrwt beam="1">  1       21 0.75711335E-01 0.13286361E+03</pdfrwt>
<pdfrwt beam="2">  1        4 0.36336445E-02 0.13286361E+03</pdfrwt>
<totfact> 0.25414633E+04</totfact>
</mgrwt>
</event>
<event>
 6    4  0.3189516E-003  0.1484226E+03  0.7818608E-02  0.1202425E+00
         -4   -1    0    0    0  501 -0.00000000000E+00  0.00000000000E+00  0.54003981043E+03  0.54004130375E+03  0.12700000000E+01 0.  1.
         21   -1    0    0  501  502  0.00000000000E+00 -0.00000000000E+00 -0.31130547192E+02  0.31130547192E+02  0.00000000000E+00 0. -1.
         25    2    1    2    0    0  0.50001550619E+02  0.62481200004E+02  0.44391512450E+03  0.46807041356E+03  0.12500087550E+03 0.  0.
    9000005    1    3    3    0    0 -0.35774305437E+02  0.96822802467E+01  0.55045766598E+02  0.66367039264E+02  0.10000000000E+01 0.  0.
    9000005    1    3    3    0    0  0.85775856055E+02  0.52798919757E+02  0.38886935790E+03  0.40170337430E+03  0.10000000000E+01 0.  0.
         -4    1    1    2    0  502 -0.50001550619E+02 -0.62481200004E+02  0.64994138745E+02  0.10310143738E+03  0.12700000000E+01 0. -1.
<mgrwt>
<rscale>  1 0.14842262E+03</rscale>
<asrwt>0</asrwt>
<pdfrwt beam="2">  1       21 0.47893153E-02 0.14842262E+03</pdfrwt>
<pdfrwt beam="1">  1       -4 0.83085149E-01 0.14842262E+03</pdfrwt>
<totfact> 0.15531797E+04</totfact>
</mgrwt>
</event>
<event>
 6    4  0.3189516E-003  0.1328621E+03  0.7818608E-02  0.1223270E+00
         -4   -1    0    0    0  501 -0.00000000000E+00  0.00000000000E+00  0.23479316523E+02  0.23513638689E+02  0.12700000000E+01 0.  1.
         21   -1    0    0  501  502  0.00000000000E+00 -0.00000000000E+00 -0.67454988199E+03  0.67454988199E+03  0.00000000000E+00 0. -1.
         25    2    1    2    0    0  0.44655127697E+02 -0.57709151689E+01 -0.17427051504E+03  0.21914047375E+03  0.12499980373E+03 0.  0.
    9000005    1    3    3    0    0 -0.22120033826E+02  0.25597032208E+02 -0.12719092362E+03  0.13161700120E+03  0.10000000000E+01 0.  0.
    9000005    1    3    3    0    0  0.66775161523E+02 -0.31367947377E+02 -0.47079591423E+02  0.87523472552E+02  0.10000000000E+01 0.  0.
         -4    1    1    2    0  502 -0.44655127697E+02  0.57709151689E+01 -0.47680005043E+03  0.47892304693E+03  0.12700000000E+01 0. -1.
<mgrwt>
<rscale>  1 0.13286209E+03</rscale>
<asrwt>0</asrwt>
<pdfrwt beam="2">  1       21 0.10377691E+00 0.13286209E+03</pdfrwt>
<pdfrwt beam="1">  1       -4 0.36149344E-02 0.13286209E+03</pdfrwt>
<totfact> 0.12468426E+04</totfact>
</mgrwt>
</event>
<event>
 6    4  0.3189516E-003  0.1377116E+03  0.7818608E-02  0.1216442E+00
          4   -1    0    0  502    0 -0.00000000000E+00  0.00000000000E+00  0.10843152221E+03  0.10843895936E+03  0.12700000000E+01 0. -1.
         21   -1    0    0  501  502  0.00000000000E+00 -0.00000000000E+00 -0.13348172883E+03  0.13348172883E+03  0.00000000000E+00 0.  1.
         25    2    1    2    0    0 -0.87359412710E+01  0.57121609609E+02  0.50602960349E+02  0.14671454592E+03  0.12500121373E+03 0.  0.
    9000005    1    3    3    0    0  0.43855995901E+02  0.45382289822E+02 -0.11850688892E+02  0.64221020182E+02  0.10000000000E+01 0.  0.
    9000005    1    3    3    0    0 -0.52591937172E+02  0.11739319787E+02  0.62453649242E+02  0.82493525735E+02  0.10000000000E+01 0.  0.
          4    1    1    2  501    0  0.87359412710E+01 -0.57121609609E+02 -0.75653166972E+02  0.95206142276E+02  0.12700000000E+01 0.  1.
<mgrwt>
<rscale>  1 0.13771165E+03</rscale>
<asrwt>0</asrwt>
<pdfrwt beam="2">  1       21 0.20535651E-01 0.13771165E+03</pdfrwt>
<pdfrwt beam="1">  1        4 0.16682809E-01 0.13771165E+03</pdfrwt>
<totfact> 0.27984092E+04</totfact>
</mgrwt>
</event>
<event>
 6    4  0.3189516E-003  0.1445741E+03  0.7818608E-02  0.1207303E+00
         21   -1    0    0  501  502  0.00000000000E+00  0.00000000000E+00  0.18301115609E+03  0.18301115609E+03  0.00000000000E+00 0. -1.
         -4   -1    0    0    0  501 -0.00000000000E+00 -0.00000000000E+00 -0.97058046027E+02  0.97066354616E+02  0.12700000000E+01 0.  1.
         25    2    1    2    0    0  0.35294284186E+02 -0.63488960489E+02 -0.25727779367E+02  0.14684550042E+03  0.12500059105E+03 0.  0.
    9000005    1    3    3    0    0 -0.40578138197E+02 -0.41611866026E+02 -0.34164012044E+02  0.67426348060E+02  0.10000000000E+01 0.  0.
    9000005    1    3    3    0    0  0.75872422383E+02 -0.21877094463E+02  0.84362326767E+01  0.79419152364E+02  0.10000000000E+01 0.  0.
         -4    1    1    2    0  502 -0.35294284186E+02  0.63488960489E+02  0.11168088944E+03  0.13323201029E+03  0.12700000000E+01 0. -1.
<mgrwt>
<rscale>  1 0.14457414E+03</rscale>
<asrwt>0</asrwt>
<pdfrwt beam="1">  1       21 0.28155562E-01 0.14457414E+03</pdfrwt>
<pdfrwt beam="2">  1       -4 0.14932985E-01 0.14457414E+03</pdfrwt>
<totfact> 0.18826368E+04</totfact>
</mgrwt>
</event>
<event>
 6    4  0.3189516E-003  0.1267321E+03  0.7818608E-02  0.1232387E+00
         21   -1    0    0  501  502  0.00000000000E+00  0.00000000000E+00  0.85421280384E+02  0.85421280384E+02  0.00000000000E+00 0.  1.
          4   -1    0    0  502    0 -0.00000000000E+00 -0.00000000000E+00 -0.23281798860E+03  0.23282145244E+03  0.12700000000E+01 0. -1.
         25    2    1    2    0    0 -0.19845688615E+02  0.65197244714E+01 -0.21384466885E+03  0.24857708464E+03  0.12499866578E+03 0.  0.
    9000005    1    3    3    0    0 -0.72977596282E+02  0.40639226428E+01 -0.13383304456E+03  0.15249435676E+03  0.10000000000E+01 0.  0.
    9000005    1    3    3    0    0  0.53131907667E+02  0.24558018286E+01 -0.80011624297E+02  0.96082727884E+02  0.10000000000E+01 0.  0.
          4    1    1    2  501    0  0.19845688615E+02 -0.65197244714E+01  0.66447960639E+02  0.69665648184E+02  0.12700000000E+01 0.  1.
<mgrwt>
<rscale>  1 0.12673210E+03</rscale>
<asrwt>0</asrwt>
<pdfrwt beam="1">  1       21 0.13141735E-01 0.12673210E+03</pdfrwt>
<pdfrwt beam="2">  1        4 0.35819145E-01 0.12673210E+03</pdfrwt>
<totfact> 0.15277578E+04</totfact>
</mgrwt>
</event>
<event>
 6    4  0.3189516E-003  0.1362553E+03  0.7818608E-02  0.1218458E+00
         -4   -1    0    0    0  501 -0.00000000000E+00  0.00000000000E+00  0.37549898745E+03  0.37550113511E+03  0.12700000000E+01 0. -1.
         21   -1    0    0  501  502  0.00000000000E+00 -0.00000000000E+00 -0.31149394638E+02  0.31149394638E+02  0.00000000000E+00 0. -1.
         25    2    1    2    0    0 -0.53851936527E+02  0.63937318139E+01  0.31878472565E+03  0.34668315357E+03  0.12499838711E+03 0.  0.
    9000005    1    3    3    0    0 -0.51999829076E+02 -0.54434207941E+02  0.18299698513E+03  0.19787865420E+03  0.10000000000E+01 0.  0.
    9000005    1    3    3    0    0 -0.18521074510E+01  0.60827939755E+02  0.13578774052E+03  0.14880449937E+03  0.10000000000E+01 0.  0.
         -4    1    1    2    0  502  0.53851936527E+02 -0.63937318139E+01  0.25564867153E+02  0.59967376188E+02  0.12700000000E+01 0.  1.
<mgrwt>
<rscale>  1 0.13625530E+03</rscale>
<asrwt>0</asrwt>
<pdfrwt beam="2">  1       21 0.47922148E-02 0.13625530E+03</pdfrwt>
<pdfrwt beam="1">  1       -4 0.57771228E-01 0.13625530E+03</pdfrwt>
<totfact> 0.33666713E+04</totfact>
</mgrwt>
</event>
<event>
 6    4  0.3189516E-003  0.1700216E+03  0.7818608E-02  0.1177825E+00
          4   -1    0    0  502    0 -0.00000000000E+00  0.00000000000E+00  0.69667732136E+03  0.69667847892E+03  0.12700000000E+01 0.  1.
         21   -1    0    0  501  502  0.00000000000E+00 -0.00000000000E+00 -0.58763603589E+02  0.58763603589E+02  0.00000000000E+00 0. -1.
         25    2    1    2    0    0  0.10944379189E+03  0.36116717984E+02  0.61481914867E+03  0.63789493060E+03  0.12499998407E+03 0.  0.
    9000005    1    3    3    0    0  0.56556920145E+02  0.62909214107E+02  0.17813783105E+03  0.19720634191E+03  0.10000000000E+01 0.  0.
    9000005    1    3    3    0    0  0.52886871741E+02 -0.26792496123E+02  0.43668131762E+03  0.44068858870E+03  0.10000000000E+01 0.  0.
          4    1    1    2  501    0 -0.10944379189E+03 -0.36116717984E+02  0.23094569098E+02  0.11754715191E+03  0.12700000000E+01 0. -1.
<mgrwt>
<rscale>  1 0.17002164E+03</rscale>
<asrwt>0</asrwt>
<pdfrwt beam="2">  1       21 0.90405549E-02 0.17002164E+03</pdfrwt>
<pdfrwt beam="1">  1        4 0.10718227E+00 0.17002164E+03</pdfrwt>
<totfact> 0.29439769E+03</totfact>
</mgrwt>
</event>
<event>
 6    4  0.3189516E-003  0.1454452E+03  0.7818608E-02  0.1206184E+00
          4   -1    0    0  502    0 -0.00000000000E+00  0.00000000000E+00  0.38006759905E+02  0.38027972579E+02  0.12700000000E+01 0.  1.
         21   -1    0    0  501  502  0.00000000000E+00 -0.00000000000E+00 -0.35903308909E+03  0.35903308909E+03  0.00000000000E+00 0. -1.
         25    2    1    2    0    0 -0.23203880673E+02 -0.70645186486E+02 -0.14229727712E+03  0.20347684381E+03  0.12500059375E+03 0.  0.
    9000005    1    3    3    0    0  0.15753461880E+02  0.31363967343E+02 -0.46097745596E+02  0.57947149694E+02  0.10000000000E+01 0.  0.
    9000005    1    3    3    0    0 -0.38957342553E+02 -0.10200915383E+03 -0.96199531520E+02  0.14552969411E+03  0.10000000000E+01 0.  0.
          4    1    1    2  501    0  0.23203880673E+02  0.70645186486E+02 -0.17872905207E+03  0.19358421786E+03  0.12700000000E+01 0. -1.
<mgrwt>
<rscale>  1 0.14544522E+03</rscale>
<asrwt>0</asrwt>
<pdfrwt beam="2">  1       21 0.55235861E-01 0.14544522E+03</pdfrwt>
<pdfrwt beam="1">  1        4 0.58489982E-02 0.14544522E+03</pdfrwt>
<totfact> 0.23581973E+04</totfact>
</mgrwt>
</event>
<event>
 6    4  0.3189516E-003  0.1326697E+03  0.7818608E-02  0.1223547E+00
         21   -1    0    0  501  502  0.00000000000E+00  0.00000000000E+00  0.87550649587E+03  0.87550649587E+03  0.00000000000E+00 0.  1.
          4   -1    0    0  502    0 -0.00000000000E+00 -0.00000000000E+00 -0.22933993320E+02  0.22969130363E+02  0.12700000000E+01 0. -1.
         25    2    1    2    0    0  0.23385100196E+02  0.37807195264E+02  0.17579660067E+03  0.22024006156E+03  0.12499997193E+03 0.  0.
    9000005    1    3    3    0    0  0.69052679703E+02  0.49950434851E+02  0.11841564565E+03  0.14589922429E+03  0.10000000000E+01 0.  0.
    9000005    1    3    3    0    0 -0.45667579507E+02 -0.12143239587E+02  0.57380955027E+02  0.74340837267E+02  0.10000000000E+01 0.  0.
          4    1    1    2  501    0 -0.23385100196E+02 -0.37807195264E+02  0.67677590187E+03  0.67823556467E+03  0.12700000000E+01 0.  1.
<mgrwt>
<rscale>  1 0.13266966E+03</rscale>
<asrwt>0</asrwt>
<pdfrwt beam="1">  1       21 0.13469328E+00 0.13266966E+03</pdfrwt>
<pdfrwt beam="2">  1        4 0.35310811E-02 0.13266966E+03</pdfrwt>
<totfact> 0.68587483E+03</totfact>
</mgrwt>
</event>
<event>
 6    4  0.3189516E-003  0.1326264E+03  0.7818608E-02  0.1223610E+00
          4   -1    0    0  502    0 -0.00000000000E+00  0.00000000000E+00  0.68470912732E+03  0.68471030512E+03  0.12700000000E+01 0. -1.
         21   -1    0    0  501  502  0.00000000000E+00 -0.00000000000E+00 -0.11438466015E+02  0.11438466015E+02  0.00000000000E+00 0. -1.
         25    2    1    2    0    0  0.33916646925E+02  0.28538068963E+02  0.51023031834E+03  0.52718567856E+03  0.12500000641E+03 0.  0.
    9000005    1    3    3    0    0  0.35585441308E+02 -0.34674889535E+01  0.32339091128E+02  0.48219953626E+02  0.10000000000E+01 0.  0.
    9000005    1    3    3    0    0 -0.16687943834E+01  0.32005557916E+02  0.47789122721E+03  0.47896572493E+03  0.10000000000E+01 0.  0.
          4    1    1    2  501    0 -0.33916646925E+02 -0.28538068963E+02  0.16304034297E+03  0.16896309258E+03  0.12700000000E+01 0.  1.
<mgrwt>
<rscale>  1 0.13262640E+03</rscale>
<asrwt>0</asrwt>
<pdfrwt beam="2">  1       21 0.17597645E-02 0.13262640E+03</pdfrwt>
<pdfrwt beam="1">  1        4 0.10534535E+00 0.13262640E+03</pdfrwt>
<totfact> 0.46190759E+04</totfact>
</mgrwt>
</event>
<event>
 6    4  0.3189516E-003  0.1379325E+03  0.7818608E-02  0.1216138E+00
          4   -1    0    0  502    0 -0.00000000000E+00  0.00000000000E+00  0.13232060449E+03  0.13232669901E+03  0.12700000000E+01 0. -1.
         21   -1    0    0  501  502  0.00000000000E+00 -0.00000000000E+00 -0.12799346408E+03  0.12799346408E+03  0.00000000000E+00 0.  1.
         25    2    1    2    0    0 -0.40336836297E+02 -0.42096390199E+02  0.84066444686E+02  0.16153182382E+03  0.12500478612E+03 0.  0.
    9000005    1    3    3    0    0 -0.76405785367E+02 -0.59304095821E+02  0.49359528677E+02  0.10859181779E+03  0.10000000000E+01 0.  0.
    9000005    1    3    3    0    0  0.36068949070E+02  0.17207705622E+02  0.34706916010E+02  0.52940006033E+02  0.10000000000E+01 0.  0.
          4    1    1    2  501    0  0.40336836297E+02  0.42096390199E+02 -0.79739304276E+02  0.98788339274E+02  0.12700000000E+01 0.  1.
<mgrwt>
<rscale>  1 0.13793246E+03</rscale>
<asrwt>0</asrwt>
<pdfrwt beam="2">  1       21 0.19691302E-01 0.13793246E+03</pdfrwt>
<pdfrwt beam="1">  1        4 0.20357970E-01 0.13793246E+03</pdfrwt>
<totfact> 0.21210374E+04</totfact>
</mgrwt>
</event>
<event>
 6    4  0.3189516E-003  0.1334692E+03  0.7818608E-02  0.1222397E+00
         21   -1    0    0  501  502  0.00000000000E+00  0.00000000000E+00  0.30892711944E+03  0.30892711944E+03  0.00000000000E+00 0. -1.
         -4   -1    0    0    0  501 -0.00000000000E+00 -0.00000000000E+00 -0.33720461793E+02  0.33744369064E+02  0.12700000000E+01 0.  1.
         25    2    1    2    0    0  0.14180969967E+02 -0.44586374609E+02  0.11634960108E+03  0.17706284734E+03  0.12499991010E+03 0.  0.
    9000005    1    3    3    0    0 -0.15862880180E+02 -0.48463905260E+02  0.13302592363E+03  0.14246851385E+03  0.10000000000E+01 0.  0.
    9000005    1    3    3    0    0  0.30043850147E+02  0.38775306516E+01 -0.16676322547E+02  0.34594333486E+02  0.10000000000E+01 0.  0.
         -4    1    1    2    0  502 -0.14180969967E+02  0.44586374609E+02  0.15885705656E+03  0.16560864117E+03  0.12700000000E+01 0. -1.
<mgrwt>
<rscale>  1 0.13346918E+03</rscale>
<asrwt>0</asrwt>
<pdfrwt beam="1">  1       21 0.47527247E-01 0.13346918E+03</pdfrwt>
<pdfrwt beam="2">  1       -4 0.51898034E-02 0.13346918E+03</pdfrwt>
<totfact> 0.38776045E+04</totfact>
</mgrwt>
</event>
<event>
 6    4  0.3189516E-003  0.1269350E+03  0.7818608E-02  0.1232076E+00
         21   -1    0    0  501  502  0.00000000000E+00  0.00000000000E+00  0.16134818756E+02  0.16134818756E+02  0.00000000000E+00 0. -1.
          4   -1    0    0  502    0 -0.00000000000E+00 -0.00000000000E+00 -0.68798009035E+03  0.68798126255E+03  0.12700000000E+01 0.  1.
         25    2    1    2    0    0 -0.14761511064E+02  0.16386009288E+02 -0.67003311391E+03  0.68195078580E+03  0.12500438798E+03 0.  0.
    9000005    1    3    3    0    0 -0.22348589256E+02 -0.51630914039E+02 -0.24024340399E+03  0.24674501796E+03  0.10000000000E+01 0.  0.
    9000005    1    3    3    0    0  0.75870781915E+01  0.68016923327E+02 -0.42978970992E+03  0.43520576784E+03  0.10000000000E+01 0.  0.
          4    1    1    2  501    0  0.14761511064E+02 -0.16386009288E+02 -0.18121576876E+01  0.22165295504E+02  0.12700000000E+01 0. -1.
<mgrwt>
<rscale>  1 0.12693502E+03</rscale>
<asrwt>0</asrwt>
<pdfrwt beam="1">  1       21 0.24822810E-02 0.12693502E+03</pdfrwt>
<pdfrwt beam="2">  1        4 0.10584697E+00 0.12693502E+03</pdfrwt>
<totfact> 0.26050518E+04</totfact>
</mgrwt>
</event>
<event>
 6    4  0.3189516E-003  0.1298197E+03  0.7818608E-02  0.1227724E+00
         21   -1    0    0  501  502  0.00000000000E+00  0.00000000000E+00  0.39192373641E+02  0.39192373641E+02  0.00000000000E+00 0.  1.
         -4   -1    0    0    0  501 -0.00000000000E+00 -0.00000000000E+00 -0.50929582030E+03  0.50929740376E+03  0.12700000000E+01 0. -1.
         25    2    1    2    0    0  0.25174368108E+02  0.24409272791E+02 -0.49084997079E+03  0.50772714045E+03  0.12499437555E+03 0.  0.
    9000005    1    3    3    0    0  0.77968856203E+01 -0.35831888847E+02 -0.47760980241E+02  0.60223142705E+02  0.10000000000E+01 0.  0.
    9000005    1    3    3    0    0  0.17377482488E+02  0.60241161638E+02 -0.44308899055E+03  0.44750399775E+03  0.10000000000E+01 0.  0.
         -4    1    1    2    0  502 -0.25174368108E+02 -0.24409272791E+02  0.20746524127E+02  0.40762636951E+02  0.12700000000E+01 0.  1.
<mgrwt>
<rscale>  1 0.12981970E+03</rscale>
<asrwt>0</asrwt>
<pdfrwt beam="1">  1       21 0.60295965E-02 0.12981970E+03</pdfrwt>
<pdfrwt beam="2">  1       -4 0.78354901E-01 0.12981970E+03</pdfrwt>
<totfact> 0.11834407E+04</totfact>
</mgrwt>
</event>
<event>
 6    4  0.3189516E-003  0.1275221E+03  0.7818608E-02  0.1231180E+00
          4   -1    0    0  502    0 -0.00000000000E+00  0.00000000000E+00  0.10626941206E+04  0.10626948795E+04  0.12700000000E+01 0.  1.
         21   -1    0    0  501  502  0.00000000000E+00 -0.00000000000E+00 -0.55728861905E+01  0.55728861905E+01  0.00000000000E+00 0.  1.
         25    2    1    2    0    0 -0.22909713338E+02  0.10554348742E+02  0.82865384804E+03  0.83840865930E+03  0.12500252349E+03 0.  0.
    9000005    1    3    3    0    0  0.46178241273E+02  0.29280646898E+02  0.41790093602E+03  0.42146408931E+03  0.10000000000E+01 0.  0.
    9000005    1    3    3    0    0 -0.69087954611E+02 -0.18726298156E+02  0.41075291202E+03  0.41694457000E+03  0.10000000000E+01 0.  0.
          4    1    1    2  501    0  0.22909713338E+02 -0.10554348742E+02  0.22846738641E+03  0.22985910640E+03  0.12700000000E+01 0. -1.
<mgrwt>
<rscale>  1 0.12752208E+03</rscale>
<asrwt>0</asrwt>
<pdfrwt beam="2">  1       21 0.85736795E-03 0.12752208E+03</pdfrwt>
<pdfrwt beam="1">  1        4 0.16350243E+00 0.12752208E+03</pdfrwt>
<totfact> 0.48785541E+04</totfact>
</mgrwt>
</event>
<event>
 6    4  0.3189516E-003  0.1274711E+03  0.7818608E-02  0.1231257E+00
         -4   -1    0    0    0  501 -0.00000000000E+00  0.00000000000E+00  0.42508916161E+02  0.42527883244E+02  0.12700000000E+01 0. -1.
         21   -1    0    0  501  502  0.00000000000E+00 -0.00000000000E+00 -0.20500698353E+03  0.20500698353E+03  0.00000000000E+00 0. -1.
         25    2    1    2    0    0 -0.10285121135E+02  0.22783844528E+02 -0.57937516094E+02  0.14002017442E+03  0.12499602468E+03 0.  0.
    9000005    1    3    3    0    0 -0.22130538103E+02  0.63772717134E+02 -0.68371557831E+02  0.96085327120E+02  0.10000000000E+01 0.  0.
    9000005    1    3    3    0    0  0.11845416968E+02 -0.40988872606E+02  0.10434041738E+02  0.43934847304E+02  0.10000000000E+01 0.  0.
         -4    1    1    2    0  502  0.10285121135E+02 -0.22783844528E+02 -0.10456055127E+03  0.10751469235E+03  0.12700000000E+01 0.  1.
<mgrwt>
<rscale>  1 0.12747115E+03</rscale>
<asrwt>0</asrwt>
<pdfrwt beam="2">  1       21 0.31539535E-01 0.12747115E+03</pdfrwt>
<pdfrwt beam="1">  1       -4 0.65415950E-02 0.12747115E+03</pdfrwt>
<totfact> 0.59994523E+04</totfact>
</mgrwt>
</event>
<event>
 6    4  0.3189516E-003  0.1267038E+03  0.7818608E-02  0.1232430E+00
         21   -1    0    0  501  502  0.00000000000E+00  0.00000000000E+00  0.38717780525E+03  0.38717780525E+03  0.00000000000E+00 0.  1.
         -4   -1    0    0    0  501 -0.00000000000E+00 -0.00000000000E+00 -0.14120343508E+02  0.14177341104E+02  0.12700000000E+01 0.  1.
         25    2    1    2    0    0  0.18729122554E+02  0.88337872727E+01  0.30708174078E+03  0.33219428686E+03  0.12500013150E+03 0.  0.
    9000005    1    3    3    0    0  0.21678238248E+02  0.51822161254E+02  0.63321155755E+02  0.84652532016E+02  0.10000000000E+01 0.  0.
    9000005    1    3    3    0    0 -0.29491156939E+01 -0.42988373981E+02  0.24376058502E+03  0.24754175484E+03  0.10000000000E+01 0.  0.
         -4    1    1    2    0  502 -0.18729122554E+02 -0.88337872727E+01  0.65975720969E+02  0.69160859499E+02  0.12700000000E+01 0. -1.
<mgrwt>
<rscale>  1 0.12670378E+03</rscale>
<asrwt>0</asrwt>
<pdfrwt beam="1">  1       21 0.59565808E-01 0.12670378E+03</pdfrwt>
<pdfrwt beam="2">  1       -4 0.21769055E-02 0.12670378E+03</pdfrwt>
<totfact> 0.94576963E+04</totfact>
</mgrwt>
</event>
<event>
 6    4  0.3189516E-003  0.1276832E+03  0.7818608E-02  0.1230934E+00
          4   -1    0    0  502    0 -0.00000000000E+00  0.00000000000E+00  0.32272041299E+02  0.32297020755E+02  0.12700000000E+01 0. -1.
         21   -1    0    0  501  502  0.00000000000E+00 -0.00000000000E+00 -0.18325775154E+03  0.18325775154E+03  0.00000000000E+00 0.  1.
         25    2    1    2    0    0 -0.19691712550E+02 -0.17047273512E+02 -0.12796265713E+03  0.18076904315E+03  0.12499852905E+03 0.  0.
    9000005    1    3    3    0    0  0.75798967290E+01  0.52418610135E+02 -0.50063525587E+02  0.72887050408E+02  0.10000000000E+01 0.  0.
    9000005    1    3    3    0    0 -0.27271609279E+02 -0.69465883647E+02 -0.77899131539E+02  0.10788199274E+03  0.10000000000E+01 0.  0.
          4    1    1    2  501    0  0.19691712550E+02  0.17047273512E+02 -0.23023053110E+02  0.34785729140E+02  0.12700000000E+01 0.  1.
<mgrwt>
<rscale>  1 0.12768322E+03</rscale>
<asrwt>0</asrwt>
<pdfrwt beam="2">  1       21 0.28193500E-01 0.12768322E+03</pdfrwt>
<pdfrwt beam="1">  1        4 0.49671895E-02 0.12768322E+03</pdfrwt>
<totfact> 0.11629258E+05</totfact>
</mgrwt>
</event>
<event>
 6    4  0.3189516E-003  0.1375314E+03  0.7818608E-02  0.1216690E+00
          4   -1    0    0  502    0 -0.00000000000E+00  0.00000000000E+00  0.16937298250E+04  0.16937303011E+04  0.12700000000E+01 0.  1.
         21   -1    0    0  501  502  0.00000000000E+00 -0.00000000000E+00 -0.12642476012E+02  0.12642476012E+02  0.00000000000E+00 0. -1.
         25    2    1    2    0    0  0.28723996128E+02  0.49649262808E+02  0.16059845445E+04  0.16118626645E+04  0.12499909896E+03 0.  0.
    9000005    1    3    3    0    0  0.27108100875E+02  0.44101616644E+02  0.16050969063E+04  0.16059317795E+04  0.10000000000E+01 0.  0.
    9000005    1    3    3    0    0  0.16158952532E+01  0.55476461637E+01  0.88763820213E+00  0.59308850103E+01  0.10000000000E+01 0.  0.
          4    1    1    2  501    0 -0.28723996128E+02 -0.49649262808E+02  0.75102804416E+02  0.94510112592E+02  0.12700000000E+01 0. -1.
<mgrwt>
<rscale>  1 0.13753142E+03</rscale>
<asrwt>0</asrwt>
<pdfrwt beam="2">  1       21 0.19449976E-02 0.13753142E+03</pdfrwt>
<pdfrwt beam="1">  1        4 0.26057858E+00 0.13753142E+03</pdfrwt>
<totfact> 0.33785744E+03</totfact>
</mgrwt>
</event>
<event>
 6    4  0.3189516E-003  0.1269013E+03  0.7818608E-02  0.1232127E+00
         -4   -1    0    0    0  501 -0.00000000000E+00  0.00000000000E+00  0.75409475956E+03  0.75409582899E+03  0.12700000000E+01 0.  1.
         21   -1    0    0  501  502  0.00000000000E+00 -0.00000000000E+00 -0.12661572244E+02  0.12661572244E+02  0.00000000000E+00 0. -1.
         25    2    1    2    0    0  0.19459782543E+02 -0.10037757292E+02  0.73193789087E+03  0.74285733297E+03  0.12499800540E+03 0.  0.
    9000005    1    3    3    0    0  0.11170741589E+02  0.12387063756E+02  0.71060066340E+03  0.71079710722E+03  0.10000000000E+01 0.  0.
    9000005    1    3    3    0    0  0.82890409542E+01 -0.22424821048E+02  0.21337227474E+02  0.32060225752E+02  0.10000000000E+01 0.  0.
         -4    1    1    2    0  502 -0.19459782543E+02  0.10037757292E+02  0.94952964463E+01  0.23900068257E+02  0.12700000000E+01 0. -1.
<mgrwt>
<rscale>  1 0.12690130E+03</rscale>
<asrwt>0</asrwt>
<pdfrwt beam="2">  1       21 0.19479348E-02 0.12690130E+03</pdfrwt>
<pdfrwt beam="1">  1       -4 0.11601952E+00 0.12690130E+03</pdfrwt>
<totfact> 0.31073232E+04</totfact>
</mgrwt>
</event>
<event>
 6    4  0.3189516E-003  0.1288451E+03  0.7818608E-02  0.1229179E+00
         21   -1    0    0  501  502  0.00000000000E+00  0.00000000000E+00  0.12844886158E+02  0.12844886158E+02  0.00000000000E+00 0. -1.
         -4   -1    0    0    0  501 -0.00000000000E+00 -0.00000000000E+00 -0.54157598548E+03  0.54157747456E+03  0.12700000000E+01 0. -1.
         25    2    1    2    0    0  0.15473224037E+02  0.27119338016E+02 -0.34962472900E+03  0.37261041407E+03  0.12500476144E+03 0.  0.
    9000005    1    3    3    0    0  0.63035156110E+02  0.45165167402E+02 -0.19630306230E+03  0.21106685083E+03  0.10000000000E+01 0.  0.
    9000005    1    3    3    0    0 -0.47561932073E+02 -0.18045829386E+02 -0.15332166670E+03  0.16154356323E+03  0.10000000000E+01 0.  0.
         -4    1    1    2    0  502 -0.15473224037E+02 -0.27119338016E+02 -0.17910637032E+03  0.18181194665E+03  0.12700000000E+01 0.  1.
<mgrwt>
<rscale>  1 0.12884514E+03</rscale>
<asrwt>0</asrwt>
<pdfrwt beam="1">  1       21 0.19761368E-02 0.12884514E+03</pdfrwt>
<pdfrwt beam="2">  1       -4 0.83324305E-01 0.12884514E+03</pdfrwt>
<totfact> 0.65137072E+04</totfact>
</mgrwt>
</event>
<event>
 6    4  0.3189516E-003  0.1278812E+03  0.7818608E-02  0.1230634E+00
         21   -1    0    0  501  502  0.00000000000E+00  0.00000000000E+00  0.95331628863E+02  0.95331628863E+02  0.00000000000E+00 0. -1.
         -4   -1    0    0    0  501 -0.00000000000E+00 -0.00000000000E+00 -0.67821947328E+02  0.67833836979E+02  0.12700000000E+01 0. -1.
         25    2    1    2    0    0 -0.12943456948E+02 -0.23718745730E+02  0.50075281538E+01  0.12797922160E+03  0.12499397524E+03 0.  0.
    9000005    1    3    3    0    0  0.13900522505E+02  0.44323807405E+02 -0.20117776196E+02  0.50631505487E+02  0.10000000000E+01 0.  0.
    9000005    1    3    3    0    0 -0.26843979453E+02 -0.68042553135E+02  0.25125304349E+02  0.77347716118E+02  0.10000000000E+01 0.  0.
         -4    1    1    2    0  502  0.12943456948E+02  0.23718745730E+02  0.22502153381E+02  0.35186244238E+02  0.12700000000E+01 0.  1.
<mgrwt>
<rscale>  1 0.12788122E+03</rscale>
<asrwt>0</asrwt>
<pdfrwt beam="1">  1       21 0.14666404E-01 0.12788122E+03</pdfrwt>
<pdfrwt beam="2">  1       -4 0.10435711E-01 0.12788122E+03</pdfrwt>
<totfact> 0.11521596E+05</totfact>
</mgrwt>
</event>
<event>
 6    4  0.3189516E-003  0.1503946E+03  0.7818608E-02  0.1199989E+00
         21   -1    0    0  501  502  0.00000000000E+00  0.00000000000E+00  0.88898293903E+03  0.88898293903E+03  0.00000000000E+00 0. -1.
          4   -1    0    0  502    0 -0.00000000000E+00 -0.00000000000E+00 -0.15870993605E+02  0.15921725347E+02  0.12700000000E+01 0.  1.
         25    2    1    2    0    0 -0.37295833515E+02 -0.74852150641E+02  0.48066547925E+03  0.50364456747E+03  0.12499889500E+03 0.  0.
    9000005    1    3    3    0    0 -0.43256701829E+02  0.39027446984E+01  0.51985771229E+02  0.67748757033E+02  0.10000000000E+01 0.  0.
    9000005    1    3    3    0    0  0.59608683136E+01 -0.78754895339E+02  0.42867970802E+03  0.43589581044E+03  0.10000000000E+01 0.  0.
          4    1    1    2  501    0  0.37295833515E+02  0.74852150641E+02  0.39244646618E+03  0.40126009691E+03  0.12700000000E+01 0. -1.
<mgrwt>
<rscale>  1 0.15039464E+03</rscale>
<asrwt>0</asrwt>
<pdfrwt beam="1">  1       21 0.13676657E+00 0.15039464E+03</pdfrwt>
<pdfrwt beam="2">  1        4 0.24456642E-02 0.15039464E+03</pdfrwt>
<totfact> 0.11800510E+04</totfact>
</mgrwt>
</event>
<event>
 6    4  0.3189516E-003  0.1340854E+03  0.7818608E-02  0.1221517E+00
          4   -1    0    0  502    0 -0.00000000000E+00  0.00000000000E+00  0.33001494356E+04  0.33001496800E+04  0.12700000000E+01 0. -1.
         21   -1    0    0  501  502  0.00000000000E+00 -0.00000000000E+00 -0.68571088777E+01  0.68571088777E+01  0.00000000000E+00 0.  1.
         25    2    1    2    0    0  0.14072168122E+02 -0.46427936900E+02  0.31906883200E+04  0.31935044790E+04  0.12500129174E+03 0.  0.
    9000005    1    3    3    0    0  0.49323800399E+01  0.11344840105E+02  0.32725858703E+02  0.35000222824E+02  0.10000000000E+01 0.  0.
    9000005    1    3    3    0    0  0.91397880825E+01 -0.57772777005E+02  0.31579624613E+04  0.31585042562E+04  0.10000000000E+01 0.  0.
          4    1    1    2  501    0 -0.14072168122E+02  0.46427936900E+02  0.10260400680E+03  0.11350230990E+03  0.12700000000E+01 0.  1.
<mgrwt>
<rscale>  1 0.13408543E+03</rscale>
<asrwt>0</asrwt>
<pdfrwt beam="2">  1       21 0.10549425E-02 0.13408543E+03</pdfrwt>
<pdfrwt beam="1">  1        4 0.50772310E+00 0.13408543E+03</pdfrwt>
<totfact> 0.21844199E+02</totfact>
</mgrwt>
</event>
<event>
 6    4  0.3189516E-003  0.1314265E+03  0.7818608E-02  0.1225354E+00
          4   -1    0    0  502    0 -0.00000000000E+00  0.00000000000E+00  0.25791765883E+03  0.25792078558E+03  0.12700000000E+01 0. -1.
         21   -1    0    0  501  502  0.00000000000E+00 -0.00000000000E+00 -0.55026850572E+02  0.55026850572E+02  0.00000000000E+00 0.  1.
         25    2    1    2    0    0  0.98750930432E+01 -0.39374715553E+02  0.22944726017E+03  0.26442193445E+03  0.12500011414E+03 0.  0.
    9000005    1    3    3    0    0 -0.25779800237E+02  0.36781602522E+02  0.57133789944E+02  0.72682558690E+02  0.10000000000E+01 0.  0.
    9000005    1    3    3    0    0  0.35654893280E+02 -0.76156318075E+02  0.17231347022E+03  0.19173937576E+03  0.10000000000E+01 0.  0.
          4    1    1    2  501    0 -0.98750930432E+01  0.39374715553E+02 -0.26556451912E+02  0.48525701701E+02  0.12700000000E+01 0.  1.
<mgrwt>
<rscale>  1 0.13142646E+03</rscale>
<asrwt>0</asrwt>
<pdfrwt beam="2">  1       21 0.84656695E-02 0.13142646E+03</pdfrwt>
<pdfrwt beam="1">  1        4 0.39681007E-01 0.13142646E+03</pdfrwt>
<totfact> 0.27196785E+04</totfact>
</mgrwt>
</event>
<event>
 6    4  0.3189516E-003  0.1297008E+03  0.7818608E-02  0.1227900E+00
         21   -1    0    0  501  502  0.00000000000E+00  0.00000000000E+00  0.58040505624E+02  0.58040505624E+02  0.00000000000E+00 0. -1.
          4   -1    0    0  502    0 -0.00000000000E+00 -0.00000000000E+00 -0.66611317278E+03  0.66611438345E+03  0.12700000000E+01 0.  1.
         25    2    1    2    0    0  0.31613675863E+02 -0.13944100313E+02 -0.65396094190E+03  0.66669873976E+03  0.12501373382E+03 0.  0.
    9000005    1    3    3    0    0  0.36705879984E+02  0.47001073126E+02 -0.44469444873E+03  0.44867647056E+03  0.10000000000E+01 0.  0.
    9000005    1    3    3    0    0 -0.50922041214E+01 -0.60945173439E+02 -0.20926649316E+03  0.21802226921E+03  0.10000000000E+01 0.  0.
          4    1    1    2  501    0 -0.31613675863E+02  0.13944100313E+02  0.45888274744E+02  0.57456149315E+02  0.12700000000E+01 0. -1.
<mgrwt>
<rscale>  1 0.12970079E+03</rscale>
<asrwt>0</asrwt>
<pdfrwt beam="1">  1       21 0.89293080E-02 0.12970079E+03</pdfrwt>
<pdfrwt beam="2">  1        4 0.10248012E+00 0.12970079E+03</pdfrwt>
<totfact> 0.32910430E+03</totfact>
</mgrwt>
</event>
<event>
 6    4  0.3189516E-003  0.1356190E+03  0.7818608E-02  0.1219348E+00
         21   -1    0    0  501  502  0.00000000000E+00  0.00000000000E+00  0.47486432538E+02  0.47486432538E+02  0.00000000000E+00 0. -1.
          4   -1    0    0  502    0 -0.00000000000E+00 -0.00000000000E+00 -0.22569514228E+03  0.22569871543E+03  0.12700000000E+01 0.  1.
         25    2    1    2    0    0 -0.43736640211E+02  0.29363599992E+02 -0.17359322910E+03  0.22028873729E+03  0.12496961185E+03 0.  0.
    9000005    1    3    3    0    0  0.22636381605E+02  0.23509871173E+02  0.17614872626E+01  0.32698970200E+02  0.10000000000E+01 0.  0.
    9000005    1    3    3    0    0 -0.66373021817E+02  0.58537288189E+01 -0.17535471636E+03  0.18758976709E+03  0.10000000000E+01 0.  0.
          4    1    1    2  501    0  0.43736640211E+02 -0.29363599992E+02 -0.46154806411E+01  0.52896410682E+02  0.12700000000E+01 0. -1.
<mgrwt>
<rscale>  1 0.13561902E+03</rscale>
<asrwt>0</asrwt>
<pdfrwt beam="1">  1       21 0.73056049E-02 0.13561902E+03</pdfrwt>
<pdfrwt beam="2">  1        4 0.34723911E-01 0.13561902E+03</pdfrwt>
<totfact> 0.45623609E+04</totfact>
</mgrwt>
</event>
