<event>
 8    3  0.7944584E-004  0.1313953E+03  0.7818608E-02  0.1239751E+00
         -2   -1    0    0    0  501 -0.00000000000E+00  0.00000000000E+00  0.66516310818E+03  0.66516310818E+03  0.25500000000E-02 0.  1.
          2   -1    0    0  501    0  0.00000000000E+00 -0.00000000000E+00 -0.20544947845E+02  0.20544948004E+02  0.25500000000E-02 0. -1.
         25    2    1    2    0    0 -0.40367621705E+02  0.32386412411E+01  0.30081825903E+03  0.32826262448E+03  0.12499876794E+03 0.  0.
         23    2    1    2    0    0  0.40367621705E+02 -0.32386412411E+01  0.34379990131E+03  0.35744543171E+03  0.89043982566E+02 0.  0.
        -13    1    4    4    0    0  0.30696614826E+02 -0.61694308815E+01  0.34574010829E+03  0.34715497646E+03  0.10566000000E+00 0.  1.
         13    1    4    4    0    0  0.96710068795E+01  0.29307896404E+01 -0.19402069825E+01  0.10290455245E+02  0.10566000000E+00 0. -1.
    9000005    1    3    3    0    0 -0.48740783637E+02 -0.95268239972E+01  0.32173154198E+02  0.59182228888E+02  0.10000000000E+01 0.  0.
    9000005    1    3    3    0    0  0.83731619318E+01  0.12765465238E+02  0.26864510483E+03  0.26908039559E+03  0.10000000000E+01 0.  0.
<mgrwt>
<rscale>  0 0.12205131E+03</rscale>
<asrwt>0</asrwt>
<pdfrwt beam="2">  1        2 0.31607614E-02 0.13139530E+03</pdfrwt>
<pdfrwt beam="1">  1       -2 0.10233278E+00 0.13139530E+03</pdfrwt>
<totfact> 0.22635088E+03</totfact>
</mgrwt>
</event>
<event>
 8    3  0.7944584E-004  0.1334567E+03  0.7818608E-02  0.1241520E+00
         -2   -1    0    0    0  501 -0.00000000000E+00  0.00000000000E+00  0.53256979126E+01  0.53256985231E+01  0.25500000000E-02 0.  1.
          2   -1    0    0  501    0  0.00000000000E+00 -0.00000000000E+00 -0.23473268349E+04  0.23473268349E+04  0.25500000000E-02 0. -1.
         25    2    1    2    0    0 -0.30547299784E+01 -0.46662865602E+02 -0.13645983515E+04  0.13711088054E+04  0.12499576310E+03 0.  0.
         23    2    1    2    0    0  0.30547299784E+01  0.46662865602E+02 -0.97740278548E+03  0.98154372807E+03  0.76974870189E+02 0.  0.
        -13    1    4    4    0    0  0.40811441233E+01  0.58433952770E+01 -0.77653551273E+03  0.77656822927E+03  0.10566000000E+00 0. -1.
         13    1    4    4    0    0 -0.10264141449E+01  0.40819470325E+02 -0.20086727275E+03  0.20497549880E+03  0.10566000000E+00 0.  1.
    9000005    1    3    3    0    0  0.48362325669E+02 -0.20751942549E+02 -0.10476641783E+04  0.10489855996E+04  0.10000000000E+01 0.  0.
    9000005    1    3    3    0    0 -0.51417055648E+02 -0.25910923053E+02 -0.31693417322E+03  0.32212320577E+03  0.10000000000E+01 0.  0.
<mgrwt>
<rscale>  0 0.12096105E+03</rscale>
<asrwt>0</asrwt>
<pdfrwt beam="2">  1        2 0.36112638E+00 0.13345672E+03</pdfrwt>
<pdfrwt beam="1">  1       -2 0.81934006E-03 0.13345672E+03</pdfrwt>
<totfact> 0.13576817E+04</totfact>
</mgrwt>
</event>
<event>
 8    3  0.7944584E-004  0.1344918E+03  0.7818608E-02  0.1233170E+00
         -2   -1    0    0    0  501 -0.00000000000E+00  0.00000000000E+00  0.62327103736E+01  0.62327108952E+01  0.25500000000E-02 0. -1.
          2   -1    0    0  501    0  0.00000000000E+00 -0.00000000000E+00 -0.24007579712E+04  0.24007579712E+04  0.25500000000E-02 0.  1.
         25    2    1    2    0    0  0.27743699634E+02  0.41147399465E+02 -0.16000669343E+04  0.16057092609E+04  0.12500085988E+03 0.  0.
         23    2    1    2    0    0 -0.27743699634E+02 -0.41147399465E+02 -0.79445832659E+03  0.80128142125E+03  0.91788136512E+02 0.  0.
        -13    1    4    4    0    0  0.18430880907E+02  0.59722163017E+01 -0.45836905733E+03  0.45877834367E+03  0.10566000000E+00 0.  1.
         13    1    4    4    0    0 -0.46174580541E+02 -0.47119615767E+02 -0.33608926926E+03  0.34250307759E+03  0.10566000000E+00 0. -1.
    9000005    1    3    3    0    0 -0.11901631679E+02  0.73727926587E+02 -0.12065286111E+04  0.12088381800E+04  0.10000000000E+01 0.  0.
    9000005    1    3    3    0    0  0.39645331313E+02 -0.32580527123E+02 -0.39353832319E+03  0.39687108091E+03  0.10000000000E+01 0.  0.
<mgrwt>
<rscale>  0 0.12622335E+03</rscale>
<asrwt>0</asrwt>
<pdfrwt beam="2">  1        2 0.36934664E+00 0.13449177E+03</pdfrwt>
<pdfrwt beam="1">  1       -2 0.95888047E-03 0.13449177E+03</pdfrwt>
<totfact> 0.10169997E+04</totfact>
</mgrwt>
</event>
<event>
 8    3  0.7944584E-004  0.1251680E+03  0.7818608E-02  0.1248484E+00
         -2   -1    0    0    0  501 -0.00000000000E+00  0.00000000000E+00  0.45306039366E+03  0.45306039367E+03  0.25500000000E-02 0.  1.
          2   -1    0    0  501    0  0.00000000000E+00 -0.00000000000E+00 -0.31606703160E+02  0.31606703263E+02  0.25500000000E-02 0. -1.
         25    2    1    2    0    0  0.49690153929E+01  0.40367265070E+01  0.14071927213E+03  0.18833198579E+03  0.12500414813E+03 0.  0.
         23    2    1    2    0    0 -0.49690153929E+01 -0.40367265070E+01  0.28073441837E+03  0.29633511114E+03  0.94666246148E+02 0.  0.
        -13    1    4    4    0    0  0.37194235835E+01 -0.10021204356E+02  0.28482044407E+03  0.28502097321E+03  0.10566000000E+00 0.  1.
         13    1    4    4    0    0 -0.86884389764E+01  0.59844778493E+01 -0.40860256953E+01  0.11314137925E+02  0.10566000000E+00 0. -1.
    9000005    1    3    3    0    0  0.85704744976E+01 -0.50977033338E+02  0.19673680449E+02  0.55318755078E+02  0.10000000000E+01 0.  0.
    9000005    1    3    3    0    0 -0.36014591047E+01  0.55013759845E+02  0.12104559168E+03  0.13301323071E+03  0.10000000000E+01 0.  0.
<mgrwt>
<rscale>  0 0.11679290E+03</rscale>
<asrwt>0</asrwt>
<pdfrwt beam="2">  1        2 0.48625702E-02 0.12516798E+03</pdfrwt>
<pdfrwt beam="1">  1       -2 0.69701592E-01 0.12516798E+03</pdfrwt>
<totfact> 0.29838679E+03</totfact>
</mgrwt>
</event>
<event>
 8    3  0.7944584E-004  0.2530308E+03  0.7818608E-02  0.1113720E+00
         -2   -1    0    0    0  501 -0.00000000000E+00  0.00000000000E+00  0.18861072701E+02  0.18861072873E+02  0.25500000000E-02 0.  1.
          2   -1    0    0  501    0  0.00000000000E+00 -0.00000000000E+00 -0.32037498487E+04  0.32037498487E+04  0.25500000000E-02 0. -1.
         25    2    1    2    0    0  0.21291285939E+03  0.55386070165E+02 -0.16433879568E+04  0.16627533019E+04  0.12500025496E+03 0.  0.
         23    2    1    2    0    0 -0.21291285939E+03 -0.55386070165E+02 -0.15415008191E+04  0.15598576197E+04  0.92366204924E+02 0.  0.
        -13    1    4    4    0    0 -0.53993613794E+02 -0.44407410058E+02 -0.29245331738E+03  0.30069300359E+03  0.10566000000E+00 0.  1.
         13    1    4    4    0    0 -0.15891924559E+03 -0.10978660107E+02 -0.12490475018E+04  0.12591646161E+04  0.10566000000E+00 0. -1.
    9000005    1    3    3    0    0  0.20567081378E+03  0.72625713952E+02 -0.12476631280E+04  0.12665856698E+04  0.10000000000E+01 0.  0.
    9000005    1    3    3    0    0  0.72420456094E+01 -0.17239643787E+02 -0.39572482886E+03  0.39616763209E+03  0.10000000000E+01 0.  0.
<mgrwt>
<rscale>  0 0.24934382E+03</rscale>
<asrwt>0</asrwt>
<pdfrwt beam="2">  1        2 0.49288416E+00 0.25303076E+03</pdfrwt>
<pdfrwt beam="1">  1       -2 0.29017061E-02 0.25303076E+03</pdfrwt>
<totfact> 0.70104582E+02</totfact>
</mgrwt>
</event>
<event>
 8    3  0.7944584E-004  0.2156682E+03  0.7818608E-02  0.1140933E+00
         -2   -1    0    0    0  501 -0.00000000000E+00  0.00000000000E+00  0.19357206865E+02  0.19357207033E+02  0.25500000000E-02 0. -1.
          2   -1    0    0  501    0  0.00000000000E+00 -0.00000000000E+00 -0.21978635367E+04  0.21978635367E+04  0.25500000000E-02 0.  1.
         25    2    1    2    0    0 -0.14784349863E+03  0.95023434289E+02 -0.11310828834E+04  0.11514604917E+04  0.12500248618E+03 0.  0.
         23    2    1    2    0    0  0.14784349863E+03 -0.95023434289E+02 -0.10474234464E+04  0.10657602521E+04  0.88667274889E+02 0.  0.
        -13    1    4    4    0    0  0.15810184446E+02  0.11139061563E+02 -0.43009075334E+02  0.47157526970E+02  0.10566000000E+00 0. -1.
         13    1    4    4    0    0  0.13203331419E+03 -0.10616249585E+03 -0.10044143711E+04  0.10186027251E+04  0.10566000000E+00 0.  1.
    9000005    1    3    3    0    0 -0.44927827326E+02  0.25130782425E+02 -0.96073148299E+02  0.10900053081E+03  0.10000000000E+01 0.  0.
    9000005    1    3    3    0    0 -0.10291567131E+03  0.69892651864E+02 -0.10350097351E+04  0.10424599609E+04  0.10000000000E+01 0.  0.
<mgrwt>
<rscale>  0 0.21080078E+03</rscale>
<asrwt>0</asrwt>
<pdfrwt beam="2">  1        2 0.33813265E+00 0.21566821E+03</pdfrwt>
<pdfrwt beam="1">  1       -2 0.29780336E-02 0.21566821E+03</pdfrwt>
<totfact> 0.25066316E+03</totfact>
</mgrwt>
</event>
<event>
 8    3  0.7944584E-004  0.1392917E+03  0.7818608E-02  0.1225403E+00
          2   -1    0    0  501    0  0.00000000000E+00  0.00000000000E+00  0.29345434275E+03  0.29345434277E+03  0.25500000000E-02 0. -1.
         -2   -1    0    0    0  501 -0.00000000000E+00 -0.00000000000E+00 -0.54814453690E+02  0.54814453749E+02  0.25500000000E-02 0.  1.
         25    2    1    2    0    0  0.15308589375E+02  0.59520724099E+02  0.10183518376E+03  0.17254736041E+03  0.12500046971E+03 0.  0.
         23    2    1    2    0    0 -0.15308589375E+02 -0.59520724099E+02  0.13680470530E+03  0.17572143610E+03  0.91571972828E+02 0.  0.
        -13    1    4    4    0    0 -0.17397328593E+02 -0.37777304688E+02  0.14615725970E+03  0.15195969044E+03  0.10566000000E+00 0. -1.
         13    1    4    4    0    0  0.20887392184E+01 -0.21743419410E+02 -0.93525543979E+01  0.23761745664E+02  0.10566000000E+00 0.  1.
    9000005    1    3    3    0    0 -0.22616922526E+02 -0.29101389253E+02  0.52779223527E+02  0.64382159618E+02  0.10000000000E+01 0.  0.
    9000005    1    3    3    0    0  0.37925511901E+02  0.88622113352E+02  0.49055960238E+02  0.10816520079E+03  0.10000000000E+01 0.  0.
<mgrwt>
<rscale>  0 0.13139288E+03</rscale>
<asrwt>0</asrwt>
<pdfrwt beam="1">  1        2 0.45146821E-01 0.13929173E+03</pdfrwt>
<pdfrwt beam="2">  1       -2 0.84329930E-02 0.13929173E+03</pdfrwt>
<totfact> 0.92498795E+03</totfact>
</mgrwt>
</event>
<event>
 8    3  0.7944584E-004  0.1441723E+03  0.7818608E-02  0.1218256E+00
         -2   -1    0    0    0  501 -0.00000000000E+00  0.00000000000E+00  0.92016254444E+01  0.92016257977E+01  0.25500000000E-02 0.  1.
          2   -1    0    0  501    0  0.00000000000E+00 -0.00000000000E+00 -0.18349696839E+04  0.18349696839E+04  0.25500000000E-02 0. -1.
         25    2    1    2    0    0 -0.54717709382E+02  0.46547814126E+02 -0.10495279945E+04  0.10593840941E+04  0.12499968346E+03 0.  0.
         23    2    1    2    0    0  0.54717709382E+02 -0.46547814126E+02 -0.77624006400E+03  0.78478721565E+03  0.90452253509E+02 0.  0.
        -13    1    4    4    0    0  0.53963495497E+02  0.12611533788E+02 -0.32604300567E+03  0.33071915932E+03  0.10566000000E+00 0. -1.
         13    1    4    4    0    0  0.75421388464E+00 -0.59159347914E+02 -0.45019705833E+03  0.45406805633E+03  0.10566000000E+00 0.  1.
    9000005    1    3    3    0    0 -0.58140848897E+02 -0.29491392680E+02 -0.59027578283E+03  0.59386581005E+03  0.10000000000E+01 0.  0.
    9000005    1    3    3    0    0  0.34231395152E+01  0.76039206807E+02 -0.45925221163E+03  0.46551828401E+03  0.10000000000E+01 0.  0.
<mgrwt>
<rscale>  0 0.13640030E+03</rscale>
<asrwt>0</asrwt>
<pdfrwt beam="2">  1        2 0.28230274E+00 0.14417228E+03</pdfrwt>
<pdfrwt beam="1">  1       -2 0.14156362E-02 0.14417228E+03</pdfrwt>
<totfact> 0.11423215E+04</totfact>
</mgrwt>
</event>
<event>
 8    3  0.7944584E-004  0.1443815E+03  0.7818608E-02  0.1218430E+00
          2   -1    0    0  501    0  0.00000000000E+00  0.00000000000E+00  0.22996194663E+03  0.22996194664E+03  0.25500000000E-02 0. -1.
         -2   -1    0    0    0  501 -0.00000000000E+00 -0.00000000000E+00 -0.73200041312E+02  0.73200041357E+02  0.25500000000E-02 0.  1.
         25    2    1    2    0    0 -0.55154245773E+02 -0.46678845644E+02  0.77867003302E+02  0.16404048329E+03  0.12500041798E+03 0.  0.
         23    2    1    2    0    0  0.55154245773E+02  0.46678845644E+02  0.78894902017E+02  0.13912150472E+03  0.88935268891E+02 0.  0.
        -13    1    4    4    0    0  0.58971805591E+01  0.55443839427E+02  0.67967274627E+02  0.87911078103E+02  0.10566000000E+00 0. -1.
         13    1    4    4    0    0  0.49257065214E+02 -0.87649937834E+01  0.10927627390E+02  0.51210426613E+02  0.10566000000E+00 0.  1.
    9000005    1    3    3    0    0 -0.84884071937E+02  0.21017891614E+01  0.31901041298E+02  0.90710526524E+02  0.10000000000E+01 0.  0.
    9000005    1    3    3    0    0  0.29729826165E+02 -0.48780634805E+02  0.45965962004E+02  0.73329956762E+02  0.10000000000E+01 0.  0.
<mgrwt>
<rscale>  0 0.13627566E+03</rscale>
<asrwt>0</asrwt>
<pdfrwt beam="1">  1        2 0.35378760E-01 0.14438147E+03</pdfrwt>
<pdfrwt beam="2">  1       -2 0.11261545E-01 0.14438147E+03</pdfrwt>
<totfact> 0.76350342E+03</totfact>
</mgrwt>
</event>
<event>
 8    3  0.7944584E-004  0.1453570E+03  0.7818608E-02  0.1214088E+00
         -2   -1    0    0    0  501 -0.00000000000E+00  0.00000000000E+00  0.24154627078E+02  0.24154627213E+02  0.25500000000E-02 0.  1.
          2   -1    0    0  501    0  0.00000000000E+00 -0.00000000000E+00 -0.80339076269E+03  0.80339076269E+03  0.25500000000E-02 0. -1.
         25    2    1    2    0    0  0.71160476916E+02  0.20991258066E+02 -0.53002474605E+03  0.54959520405E+03  0.12499684195E+03 0.  0.
         23    2    1    2    0    0 -0.71160476916E+02 -0.20991258066E+02 -0.24921138956E+03  0.27795018585E+03  0.98211724050E+02 0.  0.
        -13    1    4    4    0    0 -0.59457388261E+02  0.18979984831E+02 -0.69221554403E+02  0.93204375439E+02  0.10566000000E+00 0.  1.
         13    1    4    4    0    0 -0.11703088655E+02 -0.39971242897E+02 -0.17998983515E+03  0.18474581041E+03  0.10566000000E+00 0. -1.
    9000005    1    3    3    0    0 -0.27427604158E+02  0.36122346385E+02 -0.18076883017E+03  0.18637453511E+03  0.10000000000E+01 0.  0.
    9000005    1    3    3    0    0  0.98588081074E+02 -0.15131088319E+02 -0.34925591588E+03  0.36322066894E+03  0.10000000000E+01 0.  0.
<mgrwt>
<rscale>  0 0.13943715E+03</rscale>
<asrwt>0</asrwt>
<pdfrwt beam="2">  1        2 0.12359856E+00 0.14535700E+03</pdfrwt>
<pdfrwt beam="1">  1       -2 0.37160971E-02 0.14535700E+03</pdfrwt>
<totfact> 0.10440581E+04</totfact>
</mgrwt>
</event>
<event>
 8    3  0.7944584E-004  0.1680716E+03  0.7818608E-02  0.1186998E+00
         -2   -1    0    0    0  501 -0.00000000000E+00  0.00000000000E+00  0.52173604177E+02  0.52173604239E+02  0.25500000000E-02 0.  1.
          2   -1    0    0  501    0  0.00000000000E+00 -0.00000000000E+00 -0.50531245572E+03  0.50531245572E+03  0.25500000000E-02 0. -1.
         25    2    1    2    0    0 -0.98486815059E+02 -0.54074493534E+02 -0.32193277203E+03  0.36316494569E+03  0.12499745792E+03 0.  0.
         23    2    1    2    0    0  0.98486815059E+02  0.54074493534E+02 -0.13120607952E+03  0.19432111427E+03  0.89005373755E+02 0.  0.
        -13    1    4    4    0    0  0.53129580378E+02 -0.73411272116E+01 -0.15741122448E+02  0.55896677538E+02  0.10566000000E+00 0.  1.
         13    1    4    4    0    0  0.45357234681E+02  0.61415620745E+02 -0.11546495707E+03  0.13842443673E+03  0.10566000000E+00 0. -1.
    9000005    1    3    3    0    0 -0.30873314406E+02 -0.87390127434E+02 -0.17795451157E+03  0.20064646546E+03  0.10000000000E+01 0.  0.
    9000005    1    3    3    0    0 -0.67613500653E+02  0.33315633900E+02 -0.14397826046E+03  0.16251848023E+03  0.10000000000E+01 0.  0.
<mgrwt>
<rscale>  0 0.16151423E+03</rscale>
<asrwt>0</asrwt>
<pdfrwt beam="2">  1        2 0.77740374E-01 0.16807162E+03</pdfrwt>
<pdfrwt beam="1">  1       -2 0.80267087E-02 0.16807162E+03</pdfrwt>
<totfact> 0.56303702E+03</totfact>
</mgrwt>
</event>
<event>
 8    3  0.7944584E-004  0.2351250E+03  0.7818608E-02  0.1125910E+00
          2   -1    0    0  501    0  0.00000000000E+00  0.00000000000E+00  0.52260641412E+03  0.52260641412E+03  0.25500000000E-02 0. -1.
         -2   -1    0    0    0  501 -0.00000000000E+00 -0.00000000000E+00 -0.10143145302E+03  0.10143145305E+03  0.25500000000E-02 0.  1.
         25    2    1    2    0    0  0.18882365262E+03 -0.63274702877E+02  0.16701192607E+03  0.28840379361E+03  0.12500281959E+03 0.  0.
         23    2    1    2    0    0 -0.18882365262E+03  0.63274702877E+02  0.25416303503E+03  0.33563407356E+03  0.91615081439E+02 0.  0.
        -13    1    4    4    0    0 -0.14970834000E+03  0.86846649626E+02  0.19192277911E+03  0.25843624344E+03  0.10566000000E+00 0.  1.
         13    1    4    4    0    0 -0.39115312622E+02 -0.23571946749E+02  0.62240255917E+02  0.77197830123E+02  0.10566000000E+00 0. -1.
    9000005    1    3    3    0    0  0.34593227698E+02 -0.49656304553E+02 -0.18410680564E+00  0.60526637770E+02  0.10000000000E+01 0.  0.
    9000005    1    3    3    0    0  0.15423042492E+03 -0.13618398324E+02  0.16719603287E+03  0.22787715584E+03  0.10000000000E+01 0.  0.
<mgrwt>
<rscale>  0 0.23104009E+03</rscale>
<asrwt>0</asrwt>
<pdfrwt beam="1">  1        2 0.80400988E-01 0.23512500E+03</pdfrwt>
<pdfrwt beam="2">  1       -2 0.15604839E-01 0.23512500E+03</pdfrwt>
<totfact> 0.18895539E+03</totfact>
</mgrwt>
</event>
<event>
 8    3  0.7944584E-004  0.1277048E+03  0.7818608E-02  0.1243064E+00
         -2   -1    0    0    0  501 -0.00000000000E+00  0.00000000000E+00  0.11330797175E+02  0.11330797462E+02  0.25500000000E-02 0.  1.
          2   -1    0    0  501    0  0.00000000000E+00 -0.00000000000E+00 -0.20342480288E+04  0.20342480288E+04  0.25500000000E-02 0. -1.
         25    2    1    2    0    0  0.17910957169E+02 -0.19027312361E+02 -0.40635682556E+03  0.42595115083E+03  0.12500268882E+03 0.  0.
         23    2    1    2    0    0 -0.17910957169E+02  0.19027312361E+02 -0.16165604061E+04  0.16196276755E+04  0.96142704223E+02 0.  0.
        -13    1    4    4    0    0 -0.39040906212E+02  0.10221572158E+02 -0.15142452518E+04  0.15147829438E+04  0.10566000000E+00 0. -1.
         13    1    4    4    0    0  0.21129949043E+02  0.88057402029E+01 -0.10231515428E+03  0.10484473171E+03  0.10566000000E+00 0.  1.
    9000005    1    3    3    0    0  0.28882844586E+01 -0.29897902389E+02 -0.13999094461E+02  0.33154206371E+02  0.10000000000E+01 0.  0.
    9000005    1    3    3    0    0  0.15022672710E+02  0.10870590028E+02 -0.39235773109E+03  0.39279694445E+03  0.10000000000E+01 0.  0.
<mgrwt>
<rscale>  0 0.12001999E+03</rscale>
<asrwt>0</asrwt>
<pdfrwt beam="2">  1        2 0.31296095E+00 0.12770479E+03</pdfrwt>
<pdfrwt beam="1">  1       -2 0.17432012E-02 0.12770479E+03</pdfrwt>
<totfact> 0.66666811E+03</totfact>
</mgrwt>
</event>
<event>
 8    3  0.7944584E-004  0.2218139E+03  0.7818608E-02  0.1135940E+00
          2   -1    0    0  501    0  0.00000000000E+00  0.00000000000E+00  0.11103977262E+04  0.11103977262E+04  0.25500000000E-02 0.  1.
         -2   -1    0    0    0  501 -0.00000000000E+00 -0.00000000000E+00 -0.49665266447E+02  0.49665266512E+02  0.25500000000E-02 0. -1.
         25    2    1    2    0    0  0.86194529803E+02  0.16170278172E+03  0.79258370485E+03  0.82303725902E+03  0.12499645578E+03 0.  0.
         23    2    1    2    0    0 -0.86194529803E+02 -0.16170278172E+03  0.26814875488E+03  0.33702573367E+03  0.90029460894E+02 0.  0.
        -13    1    4    4    0    0 -0.12618192595E+02 -0.75785765305E+02  0.17270562105E+03  0.18902365914E+03  0.10566000000E+00 0.  1.
         13    1    4    4    0    0 -0.73576337208E+02 -0.85917016417E+02  0.95443133824E+02  0.14800207453E+03  0.10566000000E+00 0. -1.
    9000005    1    3    3    0    0  0.36991200486E+01  0.90290941895E+01  0.31075380623E+03  0.31090856553E+03  0.10000000000E+01 0.  0.
    9000005    1    3    3    0    0  0.82495409754E+02  0.15267368753E+03  0.48182989862E+03  0.51212869349E+03  0.10000000000E+01 0.  0.
<mgrwt>
<rscale>  0 0.21726306E+03</rscale>
<asrwt>0</asrwt>
<pdfrwt beam="1">  1        2 0.17083041E+00 0.22181389E+03</pdfrwt>
<pdfrwt beam="2">  1       -2 0.76408106E-02 0.22181389E+03</pdfrwt>
<totfact> 0.22843064E+03</totfact>
</mgrwt>
</event>
<event>
 8    3  0.7944584E-004  0.1427578E+03  0.7818608E-02  0.1220270E+00
         -2   -1    0    0    0  501 -0.00000000000E+00  0.00000000000E+00  0.32920971148E+02  0.32920971247E+02  0.25500000000E-02 0.  1.
          2   -1    0    0  501    0  0.00000000000E+00 -0.00000000000E+00 -0.55587625395E+03  0.55587625395E+03  0.25500000000E-02 0. -1.
         25    2    1    2    0    0  0.21776967375E+02 -0.65428469168E+02 -0.37995710412E+03  0.40589062709E+03  0.12499871721E+03 0.  0.
         23    2    1    2    0    0 -0.21776967375E+02  0.65428469168E+02 -0.14299817868E+03  0.18290659811E+03  0.90836246295E+02 0.  0.
        -13    1    4    4    0    0  0.28437178049E+02  0.53342120077E+02 -0.60140856015E+02  0.85270092037E+02  0.10566000000E+00 0.  1.
         13    1    4    4    0    0 -0.50214145424E+02  0.12086349090E+02 -0.82857322665E+02  0.97636506074E+02  0.10566000000E+00 0. -1.
    9000005    1    3    3    0    0  0.39705424745E+02 -0.56676854254E+02 -0.82161344964E+02  0.10742566345E+03  0.10000000000E+01 0.  0.
    9000005    1    3    3    0    0 -0.17928457370E+02 -0.87516149135E+01 -0.29779575916E+03  0.29846496364E+03  0.10000000000E+01 0.  0.
<mgrwt>
<rscale>  0 0.13496445E+03</rscale>
<asrwt>0</asrwt>
<pdfrwt beam="2">  1        2 0.85519417E-01 0.14275784E+03</pdfrwt>
<pdfrwt beam="1">  1       -2 0.50647652E-02 0.14275784E+03</pdfrwt>
<totfact> 0.10131557E+04</totfact>
</mgrwt>
</event>
<event>
 8    3  0.7944584E-004  0.1277516E+03  0.7818608E-02  0.1244519E+00
         -2   -1    0    0    0  501 -0.00000000000E+00  0.00000000000E+00  0.12423343776E+02  0.12423344037E+02  0.25500000000E-02 0.  1.
          2   -1    0    0  501    0  0.00000000000E+00 -0.00000000000E+00 -0.10223507641E+04  0.10223507641E+04  0.25500000000E-02 0. -1.
         25    2    1    2    0    0  0.15873076255E+02  0.21028622218E+02 -0.52601451905E+03  0.54130558826E+03  0.12500523240E+03 0.  0.
         23    2    1    2    0    0 -0.15873076255E+02 -0.21028622218E+02 -0.48391290128E+03  0.49346851988E+03  0.92980248394E+02 0.  0.
        -13    1    4    4    0    0 -0.46177411639E+02  0.15406900056E+02 -0.27192075015E+03  0.27624378987E+03  0.10566000000E+00 0.  1.
         13    1    4    4    0    0  0.30304335384E+02 -0.36435522273E+02 -0.21199215112E+03  0.21722473001E+03  0.10566000000E+00 0. -1.
    9000005    1    3    3    0    0  0.49363946300E+02  0.55364556850E+02 -0.39212906908E+03  0.39908425197E+03  0.10000000000E+01 0.  0.
    9000005    1    3    3    0    0 -0.33490870045E+02 -0.34335934633E+02 -0.13388544996E+03  0.14222133629E+03  0.10000000000E+01 0.  0.
<mgrwt>
<rscale>  0 0.11914205E+03</rscale>
<asrwt>0</asrwt>
<pdfrwt beam="2">  1        2 0.15728467E+00 0.12775158E+03</pdfrwt>
<pdfrwt beam="1">  1       -2 0.19112845E-02 0.12775158E+03</pdfrwt>
<totfact> 0.19972786E+04</totfact>
</mgrwt>
</event>
<event>
 8    3  0.7944584E-004  0.1445776E+03  0.7818608E-02  0.1217664E+00
         -2   -1    0    0    0  501 -0.00000000000E+00  0.00000000000E+00  0.14382747136E+02  0.14382747362E+02  0.25500000000E-02 0.  1.
          2   -1    0    0  501    0  0.00000000000E+00 -0.00000000000E+00 -0.14963061100E+04  0.14963061100E+04  0.25500000000E-02 0. -1.
         25    2    1    2    0    0 -0.20755782150E+02  0.69617132657E+02 -0.45949362179E+03  0.48170225283E+03  0.12500129706E+03 0.  0.
         23    2    1    2    0    0  0.20755782150E+02 -0.69617132657E+02 -0.10224297411E+04  0.10289866045E+04  0.90407462194E+02 0.  0.
        -13    1    4    4    0    0 -0.15314132295E+02 -0.75681718886E+02 -0.78008500211E+03  0.78389722981E+03  0.10566000000E+00 0. -1.
         13    1    4    4    0    0  0.36069914444E+02  0.60645862295E+01 -0.24234473898E+03  0.24508937474E+03  0.10566000000E+00 0.  1.
    9000005    1    3    3    0    0 -0.73178068186E+01 -0.35445676139E+02 -0.82179143220E+02  0.89801769659E+02  0.10000000000E+01 0.  0.
    9000005    1    3    3    0    0 -0.13437975331E+02  0.10506280880E+03 -0.37731447857E+03  0.39190048317E+03  0.10000000000E+01 0.  0.
<mgrwt>
<rscale>  0 0.13682625E+03</rscale>
<asrwt>0</asrwt>
<pdfrwt beam="2">  1        2 0.23020082E+00 0.14457756E+03</pdfrwt>
<pdfrwt beam="1">  1       -2 0.22127315E-02 0.14457756E+03</pdfrwt>
<totfact> 0.89365396E+03</totfact>
</mgrwt>
</event>
<event>
 8    3  0.7944584E-004  0.1555210E+03  0.7818608E-02  0.1201892E+00
         -2   -1    0    0    0  501 -0.00000000000E+00  0.00000000000E+00  0.23410751490E+02  0.23410751629E+02  0.25500000000E-02 0.  1.
          2   -1    0    0  501    0  0.00000000000E+00 -0.00000000000E+00 -0.87562549617E+03  0.87562549617E+03  0.25500000000E-02 0. -1.
         25    2    1    2    0    0 -0.47139640034E+02 -0.79619891001E+02 -0.48447865612E+03  0.50882841174E+03  0.12500124663E+03 0.  0.
         23    2    1    2    0    0  0.47139640034E+02  0.79619891001E+02 -0.36773608856E+03  0.39020783606E+03  0.92037230425E+02 0.  0.
        -13    1    4    4    0    0 -0.21827440309E+02 -0.42609419579E-01 -0.10270790414E+03  0.10500173190E+03  0.10566000000E+00 0. -1.
         13    1    4    4    0    0  0.68967080343E+02  0.79662500421E+02 -0.26502818442E+03  0.28520610415E+03  0.10566000000E+00 0.  1.
    9000005    1    3    3    0    0 -0.33550578116E+01 -0.39831023875E+02 -0.28684346967E+02  0.49209334854E+02  0.10000000000E+01 0.  0.
    9000005    1    3    3    0    0 -0.43784582222E+02 -0.39788867127E+02 -0.45579430915E+03  0.45961907689E+03  0.10000000000E+01 0.  0.
<mgrwt>
<rscale>  0 0.14885075E+03</rscale>
<asrwt>0</asrwt>
<pdfrwt beam="2">  1        2 0.13471159E+00 0.15552101E+03</pdfrwt>
<pdfrwt beam="1">  1       -2 0.36016548E-02 0.15552101E+03</pdfrwt>
<totfact> 0.98395538E+03</totfact>
</mgrwt>
</event>
<event>
 8    3  0.7944584E-004  0.1352485E+03  0.7818608E-02  0.1229419E+00
         -2   -1    0    0    0  501 -0.00000000000E+00  0.00000000000E+00  0.33730430246E+02  0.33730430342E+02  0.25500000000E-02 0. -1.
          2   -1    0    0  501    0  0.00000000000E+00 -0.00000000000E+00 -0.45401273337E+03  0.45401273337E+03  0.25500000000E-02 0.  1.
         25    2    1    2    0    0  0.49013778505E+02  0.16331536208E+02 -0.25655859180E+03  0.29002493615E+03  0.12499233180E+03 0.  0.
         23    2    1    2    0    0 -0.49013778505E+02 -0.16331536208E+02 -0.16372371133E+03  0.19771822756E+03  0.98071271544E+02 0.  0.
        -13    1    4    4    0    0 -0.22301881289E+02 -0.33789427253E+02 -0.16063457573E+03  0.16565801335E+03  0.10566000000E+00 0.  1.
         13    1    4    4    0    0 -0.26711897217E+02  0.17457891045E+02 -0.30891355960E+01  0.32060214214E+02  0.10566000000E+00 0. -1.
    9000005    1    3    3    0    0  0.52389953676E+02  0.39684840271E+02 -0.51216139494E+02  0.83328786971E+02  0.10000000000E+01 0.  0.
    9000005    1    3    3    0    0 -0.33761751703E+01 -0.23353304063E+02 -0.20534245230E+03  0.20669614918E+03  0.10000000000E+01 0.  0.
<mgrwt>
<rscale>  0 0.12868568E+03</rscale>
<asrwt>0</asrwt>
<pdfrwt beam="2">  1        2 0.69848108E-01 0.13524848E+03</pdfrwt>
<pdfrwt beam="1">  1       -2 0.51892973E-02 0.13524848E+03</pdfrwt>
<totfact> 0.12159432E+04</totfact>
</mgrwt>
</event>
<event>
 8    3  0.7944584E-004  0.1586019E+03  0.7818608E-02  0.1197446E+00
          2   -1    0    0  501    0  0.00000000000E+00  0.00000000000E+00  0.10120688468E+04  0.10120688468E+04  0.25500000000E-02 0. -1.
         -2   -1    0    0    0  501 -0.00000000000E+00 -0.00000000000E+00 -0.31771998221E+02  0.31771998323E+02  0.25500000000E-02 0.  1.
         25    2    1    2    0    0 -0.97045668320E+02 -0.10571730207E+02  0.21800138947E+03  0.26959073328E+03  0.12499973776E+03 0.  0.
         23    2    1    2    0    0  0.97045668320E+02  0.10571730207E+02  0.76229545912E+03  0.77425011186E+03  0.94017261715E+02 0.  0.
        -13    1    4    4    0    0  0.10847716305E+03  0.69840901278E+01  0.74676427205E+03  0.75463432309E+03  0.10566000000E+00 0. -1.
         13    1    4    4    0    0 -0.11431494729E+02  0.35876400794E+01  0.15531187074E+02  0.19615788769E+02  0.10566000000E+00 0.  1.
    9000005    1    3    3    0    0 -0.55272240320E+02  0.31732748281E+02  0.19614038356E+03  0.20623781885E+03  0.10000000000E+01 0.  0.
    9000005    1    3    3    0    0 -0.41773428000E+02 -0.42304478489E+02  0.21861005919E+02  0.63352914431E+02  0.10000000000E+01 0.  0.
<mgrwt>
<rscale>  0 0.15249007E+03</rscale>
<asrwt>0</asrwt>
<pdfrwt beam="1">  1        2 0.15570288E+00 0.15860188E+03</pdfrwt>
<pdfrwt beam="2">  1       -2 0.48880002E-02 0.15860188E+03</pdfrwt>
<totfact> 0.51355625E+03</totfact>
</mgrwt>
</event>
<event>
 8    3  0.7944584E-004  0.1707219E+03  0.7818608E-02  0.1183130E+00
         -2   -1    0    0    0  501 -0.00000000000E+00  0.00000000000E+00  0.28503777999E+02  0.28503778113E+02  0.25500000000E-02 0.  1.
          2   -1    0    0  501    0  0.00000000000E+00 -0.00000000000E+00 -0.20849287897E+04  0.20849287897E+04  0.25500000000E-02 0. -1.
         25    2    1    2    0    0  0.10866782794E+03 -0.41383528006E+02 -0.26129666977E+03  0.31212482441E+03  0.12499865264E+03 0.  0.
         23    2    1    2    0    0 -0.10866782794E+03  0.41383528006E+02 -0.17951283419E+04  0.18013077434E+04  0.93287347538E+02 0.  0.
        -13    1    4    4    0    0 -0.15892233090E+02  0.30435829804E+02 -0.16655926454E+03  0.17006146706E+03  0.10566000000E+00 0.  1.
         13    1    4    4    0    0 -0.92775594852E+02  0.10947698202E+02 -0.16285690774E+04  0.16312462763E+04  0.10566000000E+00 0. -1.
    9000005    1    3    3    0    0 -0.18421733384E+01 -0.49483022396E+02 -0.36578126658E+02  0.61570467417E+02  0.10000000000E+01 0.  0.
    9000005    1    3    3    0    0  0.11051000128E+03  0.80994943903E+01 -0.22471854311E+03  0.25055435700E+03  0.10000000000E+01 0.  0.
<mgrwt>
<rscale>  0 0.16503240E+03</rscale>
<asrwt>0</asrwt>
<pdfrwt beam="2">  1        2 0.32075816E+00 0.17072187E+03</pdfrwt>
<pdfrwt beam="1">  1       -2 0.43851983E-02 0.17072187E+03</pdfrwt>
<totfact> 0.16178771E+03</totfact>
</mgrwt>
</event>
<event>
 8    3  0.7944584E-004  0.1490510E+03  0.7818608E-02  0.1210809E+00
          2   -1    0    0  501    0  0.00000000000E+00  0.00000000000E+00  0.41768884247E+03  0.41768884248E+03  0.25500000000E-02 0.  1.
         -2   -1    0    0    0  501 -0.00000000000E+00 -0.00000000000E+00 -0.72618872943E+02  0.72618872988E+02  0.25500000000E-02 0. -1.
         25    2    1    2    0    0  0.80703513805E+02 -0.88379412037E+01  0.29652073931E+02  0.15197190580E+03  0.12500019327E+03 0.  0.
         23    2    1    2    0    0 -0.80703513805E+02  0.88379412037E+01  0.31541789560E+03  0.33833580967E+03  0.91605157597E+02 0.  0.
        -13    1    4    4    0    0 -0.85896419539E+02  0.37109318821E+02  0.24665393143E+03  0.26380574195E+03  0.10566000000E+00 0. -1.
         13    1    4    4    0    0  0.51929057341E+01 -0.28271377617E+02  0.68763964171E+02  0.74530067724E+02  0.10566000000E+00 0.  1.
    9000005    1    3    3    0    0  0.95015715503E+02  0.22902623097E+02 -0.11090301965E+02  0.98369259095E+02  0.10000000000E+01 0.  0.
    9000005    1    3    3    0    0 -0.14312201698E+02 -0.31740564301E+02  0.40742375897E+02  0.53602646701E+02  0.10000000000E+01 0.  0.
<mgrwt>
<rscale>  0 0.14188939E+03</rscale>
<asrwt>0</asrwt>
<pdfrwt beam="1">  1        2 0.64259822E-01 0.14905105E+03</pdfrwt>
<pdfrwt beam="2">  1       -2 0.11172134E-01 0.14905105E+03</pdfrwt>
<totfact> 0.40996920E+03</totfact>
</mgrwt>
</event>
<event>
 8    3  0.7944584E-004  0.1358411E+03  0.7818608E-02  0.1230499E+00
         -2   -1    0    0    0  501 -0.00000000000E+00  0.00000000000E+00  0.52821037580E+02  0.52821037642E+02  0.25500000000E-02 0.  1.
          2   -1    0    0  501    0  0.00000000000E+00 -0.00000000000E+00 -0.36157682239E+03  0.36157682240E+03  0.25500000000E-02 0. -1.
         25    2    1    2    0    0  0.48544840153E+01 -0.52946978694E+02 -0.70109927281E+02  0.15286661861E+03  0.12500341041E+03 0.  0.
         23    2    1    2    0    0 -0.48544840153E+01  0.52946978694E+02 -0.23864585753E+03  0.26153124142E+03  0.92842858414E+02 0.  0.
        -13    1    4    4    0    0  0.43231427078E+02  0.29452831977E+02 -0.13719237347E+03  0.14682705507E+03  0.10566000000E+00 0. -1.
         13    1    4    4    0    0 -0.48085911093E+02  0.23494146718E+02 -0.10145348405E+03  0.11470418635E+03  0.10566000000E+00 0.  1.
    9000005    1    3    3    0    0 -0.38350827595E+02 -0.10086994282E+02  0.19766335124E+02  0.44319763482E+02  0.10000000000E+01 0.  0.
    9000005    1    3    3    0    0  0.43205311610E+02 -0.42859984413E+02 -0.89876262405E+02  0.10854685513E+03  0.10000000000E+01 0.  0.
<mgrwt>
<rscale>  0 0.12797013E+03</rscale>
<asrwt>0</asrwt>
<pdfrwt beam="2">  1        2 0.55627202E-01 0.13584109E+03</pdfrwt>
<pdfrwt beam="1">  1       -2 0.81263137E-02 0.13584109E+03</pdfrwt>
<totfact> 0.78360848E+03</totfact>
</mgrwt>
</event>
<event>
 8    3  0.7944584E-004  0.1609248E+03  0.7818608E-02  0.1194991E+00
          2   -1    0    0  501    0  0.00000000000E+00  0.00000000000E+00  0.16749786575E+03  0.16749786577E+03  0.25500000000E-02 0. -1.
         -2   -1    0    0    0  501 -0.00000000000E+00 -0.00000000000E+00 -0.14445323563E+03  0.14445323566E+03  0.25500000000E-02 0.  1.
         25    2    1    2    0    0 -0.86305249005E+02 -0.53129090827E+02  0.57312826784E+02  0.17082605602E+03  0.12500194000E+03 0.  0.
         23    2    1    2    0    0  0.86305249005E+02  0.53129090827E+02 -0.34268196670E+02  0.14112504540E+03  0.92036258279E+02 0.  0.
        -13    1    4    4    0    0  0.20888584888E+01  0.22800451477E+02 -0.45476340443E+02  0.50914954792E+02  0.10566000000E+00 0.  1.
         13    1    4    4    0    0  0.84216390516E+02  0.30328639350E+02  0.11208143774E+02  0.90210090607E+02  0.10566000000E+00 0. -1.
    9000005    1    3    3    0    0 -0.10924120077E+03 -0.82674365316E+01  0.47844884346E+02  0.11954966922E+03  0.10000000000E+01 0.  0.
    9000005    1    3    3    0    0  0.22935951765E+02 -0.44861654296E+02  0.94679424384E+01  0.51276386803E+02  0.10000000000E+01 0.  0.
<mgrwt>
<rscale>  0 0.15455002E+03</rscale>
<asrwt>0</asrwt>
<pdfrwt beam="1">  1        2 0.25768902E-01 0.16092477E+03</pdfrwt>
<pdfrwt beam="2">  1       -2 0.22223575E-01 0.16092477E+03</pdfrwt>
<totfact> 0.35312578E+03</totfact>
</mgrwt>
</event>
<event>
 8    3  0.7944584E-004  0.1285854E+03  0.7818608E-02  0.1243861E+00
          2   -1    0    0  501    0  0.00000000000E+00  0.00000000000E+00  0.10424070267E+03  0.10424070270E+03  0.25500000000E-02 0.  1.
         -2   -1    0    0    0  501 -0.00000000000E+00 -0.00000000000E+00 -0.12371895361E+03  0.12371895364E+03  0.25500000000E-02 0. -1.
         25    2    1    2    0    0 -0.16143942830E+02 -0.25485184442E+02 -0.27812818502E+02  0.13155890603E+03  0.12499628541E+03 0.  0.
         23    2    1    2    0    0  0.16143942830E+02  0.25485184442E+02  0.83345675637E+01  0.96400750312E+02  0.91178495974E+02 0.  0.
        -13    1    4    4    0    0  0.18395139406E+02 -0.16569135997E+02 -0.30383507123E+02  0.39192934192E+02  0.10566000000E+00 0. -1.
         13    1    4    4    0    0 -0.22511965761E+01  0.42054320439E+02  0.38718074687E+02  0.57207816119E+02  0.10566000000E+00 0.  1.
    9000005    1    3    3    0    0 -0.44006194384E+02  0.38564779212E+02 -0.16415263999E+02  0.60780327672E+02  0.10000000000E+01 0.  0.
    9000005    1    3    3    0    0  0.27862251554E+02 -0.64049963654E+02 -0.11397554503E+02  0.70778578358E+02  0.10000000000E+01 0.  0.
<mgrwt>
<rscale>  0 0.11953812E+03</rscale>
<asrwt>0</asrwt>
<pdfrwt beam="1">  1        2 0.16037031E-01 0.12858535E+03</pdfrwt>
<pdfrwt beam="2">  1       -2 0.19033685E-01 0.12858535E+03</pdfrwt>
<totfact> 0.77470487E+03</totfact>
</mgrwt>
</event>
<event>
 8    3  0.7944584E-004  0.1445786E+03  0.7818608E-02  0.1217735E+00
         -2   -1    0    0    0  501 -0.00000000000E+00  0.00000000000E+00  0.17400644771E+02  0.17400644957E+02  0.25500000000E-02 0.  1.
          2   -1    0    0  501    0  0.00000000000E+00 -0.00000000000E+00 -0.10136402398E+04  0.10136402398E+04  0.25500000000E-02 0. -1.
         25    2    1    2    0    0  0.25011274278E+02  0.68211003479E+02 -0.65225267957E+03  0.66808423143E+03  0.12499870980E+03 0.  0.
         23    2    1    2    0    0 -0.25011274278E+02 -0.68211003479E+02 -0.34398691546E+03  0.36295665332E+03  0.90178874180E+02 0.  0.
        -13    1    4    4    0    0  0.93577417576E+01 -0.21497951897E+02 -0.12765575894E+02  0.26696448425E+02  0.10566000000E+00 0.  1.
         13    1    4    4    0    0 -0.34369016035E+02 -0.46713051582E+02 -0.33122133956E+03  0.33626020490E+03  0.10566000000E+00 0. -1.
    9000005    1    3    3    0    0  0.26976159220E+02  0.10448334591E+03 -0.50666810388E+03  0.51803286597E+03  0.10000000000E+01 0.  0.
    9000005    1    3    3    0    0 -0.19648849429E+01 -0.36272342433E+02 -0.14558457569E+03  0.15005136546E+03  0.10000000000E+01 0.  0.
<mgrwt>
<rscale>  0 0.13677567E+03</rscale>
<asrwt>0</asrwt>
<pdfrwt beam="2">  1        2 0.15594461E+00 0.14457864E+03</pdfrwt>
<pdfrwt beam="1">  1       -2 0.26770231E-02 0.14457864E+03</pdfrwt>
<totfact> 0.12473070E+04</totfact>
</mgrwt>
</event>
<event>
 8    3  0.7944584E-004  0.2080225E+03  0.7818608E-02  0.1147810E+00
         -2   -1    0    0    0  501 -0.00000000000E+00  0.00000000000E+00  0.23399849194E+03  0.23399849196E+03  0.25500000000E-02 0.  1.
          2   -1    0    0  501    0  0.00000000000E+00 -0.00000000000E+00 -0.22576232370E+03  0.22576232371E+03  0.25500000000E-02 0. -1.
         25    2    1    2    0    0  0.15786032424E+03 -0.52254191346E+02 -0.11391955917E+03  0.23717298779E+03  0.12499191052E+03 0.  0.
         23    2    1    2    0    0 -0.15786032424E+03  0.52254191346E+02  0.12215572742E+03  0.22258782787E+03  0.83504113038E+02 0.  0.
        -13    1    4    4    0    0  0.90765946429E+00 -0.80073205766E+01  0.26462172769E+02  0.27662226595E+02  0.10566000000E+00 0.  1.
         13    1    4    4    0    0 -0.15876798370E+03  0.60261511922E+02  0.95693554652E+02  0.19492560128E+03  0.10566000000E+00 0. -1.
    9000005    1    3    3    0    0  0.62162793906E+02  0.40938552693E+02 -0.41304080667E+02  0.85130518163E+02  0.10000000000E+01 0.  0.
    9000005    1    3    3    0    0  0.95697530332E+02 -0.93192744039E+02 -0.72615478504E+02  0.15204246963E+03  0.10000000000E+01 0.  0.
<mgrwt>
<rscale>  0 0.20230370E+03</rscale>
<asrwt>0</asrwt>
<pdfrwt beam="2">  1        2 0.34732665E-01 0.20802250E+03</pdfrwt>
<pdfrwt beam="1">  1       -2 0.35999768E-01 0.20802250E+03</pdfrwt>
<totfact> 0.10820225E+03</totfact>
</mgrwt>
</event>
<event>
 8    3  0.7944584E-004  0.1340606E+03  0.7818608E-02  0.1234320E+00
          2   -1    0    0  501    0  0.00000000000E+00  0.00000000000E+00  0.75174114062E+03  0.75174114062E+03  0.25500000000E-02 0. -1.
         -2   -1    0    0    0  501 -0.00000000000E+00 -0.00000000000E+00 -0.19569988384E+02  0.19569988550E+02  0.25500000000E-02 0.  1.
         25    2    1    2    0    0  0.33744469096E+02 -0.34763233652E+02  0.33014396199E+03  0.35632469674E+03  0.12500032905E+03 0.  0.
         23    2    1    2    0    0 -0.33744469096E+02  0.34763233652E+02  0.40202719025E+03  0.41498643243E+03  0.90778333288E+02 0.  0.
        -13    1    4    4    0    0  0.24912705887E+02  0.31094324264E+01  0.42735639199E+02  0.49564680029E+02  0.10566000000E+00 0.  1.
         13    1    4    4    0    0 -0.58657174983E+02  0.31653801226E+02  0.35929155105E+03  0.36542175240E+03  0.10566000000E+00 0. -1.
    9000005    1    3    3    0    0  0.30689180443E+02  0.10633205900E+02  0.11533931419E+02  0.34480754603E+02  0.10000000000E+01 0.  0.
    9000005    1    3    3    0    0  0.30552886526E+01 -0.45396439552E+02  0.31861003057E+03  0.32184394214E+03  0.10000000000E+01 0.  0.
<mgrwt>
<rscale>  0 0.12548074E+03</rscale>
<asrwt>0</asrwt>
<pdfrwt beam="1">  1        2 0.11565246E+00 0.13406064E+03</pdfrwt>
<pdfrwt beam="2">  1       -2 0.30107682E-02 0.13406064E+03</pdfrwt>
<totfact> 0.15379225E+04</totfact>
</mgrwt>
</event>
<event>
 8    3  0.7944584E-004  0.1914541E+03  0.7818608E-02  0.1161826E+00
         -2   -1    0    0    0  501 -0.00000000000E+00  0.00000000000E+00  0.21874333959E+02  0.21874334108E+02  0.25500000000E-02 0.  1.
          2   -1    0    0  501    0  0.00000000000E+00 -0.00000000000E+00 -0.18696093328E+04  0.18696093328E+04  0.25500000000E-02 0. -1.
         25    2    1    2    0    0 -0.11438032390E+03  0.89140607805E+02 -0.13801400571E+04  0.13933561135E+04  0.12500310188E+03 0.  0.
         23    2    1    2    0    0  0.11438032390E+03 -0.89140607805E+02 -0.46759494175E+03  0.49812755337E+03  0.91962619718E+02 0.  0.
        -13    1    4    4    0    0  0.68272076956E+02  0.39295454117E+00 -0.23380074881E+03  0.24356525248E+03  0.10566000000E+00 0. -1.
         13    1    4    4    0    0  0.46108246947E+02 -0.89533562346E+02 -0.23379419293E+03  0.25456230089E+03  0.10566000000E+00 0.  1.
    9000005    1    3    3    0    0 -0.12328908016E+03  0.68587439232E+02 -0.77094019974E+03  0.78374372449E+03  0.10000000000E+01 0.  0.
    9000005    1    3    3    0    0  0.89087562569E+01  0.20553168573E+02 -0.60919985733E+03  0.60961238902E+03  0.10000000000E+01 0.  0.
<mgrwt>
<rscale>  0 0.18631619E+03</rscale>
<asrwt>0</asrwt>
<pdfrwt beam="2">  1        2 0.28763208E+00 0.19145412E+03</pdfrwt>
<pdfrwt beam="1">  1       -2 0.33652836E-02 0.19145412E+03</pdfrwt>
<totfact> 0.31028842E+03</totfact>
</mgrwt>
</event>
<event>
 8    3  0.7944584E-004  0.1643106E+03  0.7818608E-02  0.1190852E+00
          2   -1    0    0  501    0  0.00000000000E+00  0.00000000000E+00  0.70854010933E+03  0.70854010934E+03  0.25500000000E-02 0. -1.
         -2   -1    0    0    0  501 -0.00000000000E+00 -0.00000000000E+00 -0.41595415517E+02  0.41595415595E+02  0.25500000000E-02 0.  1.
         25    2    1    2    0    0 -0.44447836382E+02 -0.96930443279E+02  0.18223544280E+03  0.24537262177E+03  0.12500738342E+03 0.  0.
         23    2    1    2    0    0  0.44447836382E+02  0.96930443279E+02  0.48470925102E+03  0.50476290316E+03  0.92040259628E+02 0.  0.
        -13    1    4    4    0    0  0.64077273842E+02  0.49629157399E+02  0.20568127444E+03  0.22107407832E+03  0.10566000000E+00 0.  1.
         13    1    4    4    0    0 -0.19629437460E+02  0.47301285880E+02  0.27902797658E+03  0.28368882484E+03  0.10566000000E+00 0. -1.
    9000005    1    3    3    0    0 -0.87372299249E+02 -0.73289148538E+02  0.11302713605E+03  0.16056572316E+03  0.10000000000E+01 0.  0.
    9000005    1    3    3    0    0  0.42924462867E+02 -0.23641294741E+02  0.69208306752E+02  0.84806898616E+02  0.10000000000E+01 0.  0.
<mgrwt>
<rscale>  0 0.15810616E+03</rscale>
<asrwt>0</asrwt>
<pdfrwt beam="1">  1        2 0.10900616E+00 0.16431058E+03</pdfrwt>
<pdfrwt beam="2">  1       -2 0.63992951E-02 0.16431058E+03</pdfrwt>
<totfact> 0.54074524E+03</totfact>
</mgrwt>
</event>
<event>
 8    3  0.7944584E-004  0.1845369E+03  0.7818608E-02  0.1168708E+00
          2   -1    0    0  501    0  0.00000000000E+00  0.00000000000E+00  0.28550766654E+03  0.28550766655E+03  0.25500000000E-02 0. -1.
         -2   -1    0    0    0  501 -0.00000000000E+00 -0.00000000000E+00 -0.12110372415E+03  0.12110372418E+03  0.25500000000E-02 0.  1.
         25    2    1    2    0    0  0.59050613428E+02  0.12223517974E+03  0.15789421455E+03  0.24286715915E+03  0.12500183955E+03 0.  0.
         23    2    1    2    0    0 -0.59050613428E+02 -0.12223517974E+03  0.65097278440E+01  0.16374423158E+03  0.91331170515E+02 0.  0.
        -13    1    4    4    0    0 -0.40422172744E+02 -0.27854424925E+02 -0.33629625116E+02  0.59504486275E+02  0.10566000000E+00 0.  1.
         13    1    4    4    0    0 -0.18628440684E+02 -0.94380754815E+02  0.40139352960E+02  0.10423974531E+03  0.10566000000E+00 0. -1.
    9000005    1    3    3    0    0  0.78187544059E+02  0.34017058608E+02  0.39487554556E+02  0.93971906903E+02  0.10000000000E+01 0.  0.
    9000005    1    3    3    0    0 -0.19136930631E+02  0.88218121132E+02  0.11840665999E+03  0.14889525224E+03  0.10000000000E+01 0.  0.
<mgrwt>
<rscale>  0 0.17906804E+03</rscale>
<asrwt>0</asrwt>
<pdfrwt beam="1">  1        2 0.43924256E-01 0.18453692E+03</pdfrwt>
<pdfrwt beam="2">  1       -2 0.18631342E-01 0.18453692E+03</pdfrwt>
<totfact> 0.26926501E+03</totfact>
</mgrwt>
</event>
<event>
 8    3  0.7944584E-004  0.1322501E+03  0.7818608E-02  0.1237383E+00
         -2   -1    0    0    0  501 -0.00000000000E+00  0.00000000000E+00  0.13830879265E+02  0.13830879500E+02  0.25500000000E-02 0.  1.
          2   -1    0    0  501    0  0.00000000000E+00 -0.00000000000E+00 -0.10841115597E+04  0.10841115598E+04  0.25500000000E-02 0. -1.
         25    2    1    2    0    0  0.40924233501E+02 -0.13801993218E+02 -0.76893652290E+03  0.78022655264E+03  0.12499923716E+03 0.  0.
         23    2    1    2    0    0 -0.40924233501E+02  0.13801993218E+02 -0.30134415758E+03  0.31771588661E+03  0.90938415373E+02 0.  0.
        -13    1    4    4    0    0 -0.65272465206E+02 -0.10682838244E+02 -0.19710801787E+03  0.20790911384E+03  0.10566000000E+00 0.  1.
         13    1    4    4    0    0  0.24348231705E+02  0.24484831462E+02 -0.10423613972E+03  0.10980677277E+03  0.10566000000E+00 0. -1.
    9000005    1    3    3    0    0 -0.33796012513E+02 -0.24731666538E+02 -0.12403285955E+03  0.13091591210E+03  0.10000000000E+01 0.  0.
    9000005    1    3    3    0    0  0.74720246014E+02  0.10929673321E+02 -0.64490366335E+03  0.64931064054E+03  0.10000000000E+01 0.  0.
<mgrwt>
<rscale>  0 0.12353087E+03</rscale>
<asrwt>0</asrwt>
<pdfrwt beam="2">  1        2 0.16678633E+00 0.13225013E+03</pdfrwt>
<pdfrwt beam="1">  1       -2 0.21278285E-02 0.13225013E+03</pdfrwt>
<totfact> 0.15773500E+04</totfact>
</mgrwt>
</event>
<event>
 8    3  0.7944584E-004  0.1278373E+03  0.7818608E-02  0.1245185E+00
          2   -1    0    0  501    0  0.00000000000E+00  0.00000000000E+00  0.92940600974E+03  0.92940600975E+03  0.25500000000E-02 0. -1.
         -2   -1    0    0    0  501 -0.00000000000E+00 -0.00000000000E+00 -0.19068542963E+02  0.19068543134E+02  0.25500000000E-02 0.  1.
         25    2    1    2    0    0  0.25669796874E+02  0.77665937623E+01  0.24480840724E+03  0.27617664686E+03  0.12499250203E+03 0.  0.
         23    2    1    2    0    0 -0.25669796874E+02 -0.77665937623E+01  0.66552905954E+03  0.67229790602E+03  0.91303268832E+02 0.  0.
        -13    1    4    4    0    0 -0.46172280586E+00  0.19500498835E+02  0.56151844348E+03  0.56185714926E+03  0.10566000000E+00 0. -1.
         13    1    4    4    0    0 -0.25208074068E+02 -0.27267092597E+02  0.10401061606E+03  0.11044075676E+03  0.10566000000E+00 0.  1.
    9000005    1    3    3    0    0  0.57175461000E+01  0.65552353093E+02  0.14306981683E+03  0.15747943935E+03  0.10000000000E+01 0.  0.
    9000005    1    3    3    0    0  0.19952250774E+02 -0.57785759331E+02  0.10173859041E+03  0.11869720751E+03  0.10000000000E+01 0.  0.
<mgrwt>
<rscale>  0 0.11874289E+03</rscale>
<asrwt>0</asrwt>
<pdfrwt beam="1">  1        2 0.14298554E+00 0.12783733E+03</pdfrwt>
<pdfrwt beam="2">  1       -2 0.29336219E-02 0.12783733E+03</pdfrwt>
<totfact> 0.12175237E+04</totfact>
</mgrwt>
</event>
<event>
 8    3  0.7944584E-004  0.1751973E+03  0.7818608E-02  0.1179951E+00
         -2   -1    0    0    0  501 -0.00000000000E+00  0.00000000000E+00  0.81552856418E+02  0.81552856458E+02  0.25500000000E-02 0.  1.
          2   -1    0    0  501    0  0.00000000000E+00 -0.00000000000E+00 -0.32104593859E+03  0.32104593860E+03  0.25500000000E-02 0. -1.
         25    2    1    2    0    0 -0.11635590221E+03  0.39129134736E+02 -0.13825430242E+03  0.22317782550E+03  0.12499721794E+03 0.  0.
         23    2    1    2    0    0  0.11635590221E+03 -0.39129134736E+02 -0.10123877975E+03  0.17942096956E+03  0.82902404219E+02 0.  0.
        -13    1    4    4    0    0  0.26771780608E+02 -0.65176801565E+01  0.13134862981E+02  0.30524484944E+02  0.10566000000E+00 0.  1.
         13    1    4    4    0    0  0.89584121606E+02 -0.32611454579E+02 -0.11437364273E+03  0.14889648461E+03  0.10566000000E+00 0. -1.
    9000005    1    3    3    0    0 -0.22653459173E+01  0.21901465742E+02 -0.98803167593E+02  0.10123177327E+03  0.10000000000E+01 0.  0.
    9000005    1    3    3    0    0 -0.11409055630E+03  0.17227668994E+02 -0.39451134826E+02  0.12194605223E+03  0.10000000000E+01 0.  0.
<mgrwt>
<rscale>  0 0.16799894E+03</rscale>
<asrwt>0</asrwt>
<pdfrwt beam="2">  1        2 0.49391682E-01 0.17519729E+03</pdfrwt>
<pdfrwt beam="1">  1       -2 0.12546594E-01 0.17519729E+03</pdfrwt>
<totfact> 0.45482567E+03</totfact>
</mgrwt>
</event>
<event>
 8    3  0.7944584E-004  0.1322401E+03  0.7818608E-02  0.1236787E+00
         -2   -1    0    0    0  501 -0.00000000000E+00  0.00000000000E+00  0.14380020168E+02  0.14380020394E+02  0.25500000000E-02 0.  1.
          2   -1    0    0  501    0  0.00000000000E+00 -0.00000000000E+00 -0.11623982965E+04  0.11623982965E+04  0.25500000000E-02 0. -1.
         25    2    1    2    0    0  0.14013700084E+01  0.43134026585E+02 -0.88276352816E+03  0.89261351031E+03  0.12499969620E+03 0.  0.
         23    2    1    2    0    0 -0.14013700084E+01 -0.43134026585E+02 -0.26525474820E+03  0.28416480661E+03  0.92342015292E+02 0.  0.
        -13    1    4    4    0    0 -0.44738142492E+02 -0.11602446695E+02 -0.15195966288E+03  0.15883283184E+03  0.10566000000E+00 0. -1.
         13    1    4    4    0    0  0.43336772484E+02 -0.31531579889E+02 -0.11329508532E+03  0.12533197477E+03  0.10566000000E+00 0.  1.
    9000005    1    3    3    0    0 -0.60601866300E+02  0.97145743989E+01 -0.44640163265E+03  0.45060223788E+03  0.10000000000E+01 0.  0.
    9000005    1    3    3    0    0  0.62003236308E+02  0.33419452186E+02 -0.43636189551E+03  0.44201127242E+03  0.10000000000E+01 0.  0.
<mgrwt>
<rscale>  0 0.12390730E+03</rscale>
<asrwt>0</asrwt>
<pdfrwt beam="2">  1        2 0.17883043E+00 0.13224005E+03</pdfrwt>
<pdfrwt beam="1">  1       -2 0.22123117E-02 0.13224005E+03</pdfrwt>
<totfact> 0.13457138E+04</totfact>
</mgrwt>
</event>
<event>
 8    3  0.7944584E-004  0.1457897E+03  0.7818608E-02  0.1216094E+00
          2   -1    0    0  501    0  0.00000000000E+00  0.00000000000E+00  0.34007504823E+03  0.34007504824E+03  0.25500000000E-02 0. -1.
         -2   -1    0    0    0  501 -0.00000000000E+00 -0.00000000000E+00 -0.70529670024E+02  0.70529670070E+02  0.25500000000E-02 0.  1.
         25    2    1    2    0    0  0.58409531387E+02 -0.47095146784E+02  0.25371129534E+03  0.29261587275E+03  0.12500000557E+03 0.  0.
         23    2    1    2    0    0 -0.58409531387E+02  0.47095146784E+02  0.15834082869E+02  0.11798884557E+03  0.89671753022E+02 0.  0.
        -13    1    4    4    0    0 -0.22406978127E+02  0.23404258033E+02 -0.37408001064E+02  0.49489409680E+02  0.10566000000E+00 0.  1.
         13    1    4    4    0    0 -0.36002553260E+02  0.23690888751E+02  0.53242083933E+02  0.68499435885E+02  0.10566000000E+00 0. -1.
    9000005    1    3    3    0    0 -0.32484679333E+02 -0.31782167056E+02  0.42779755043E+02  0.62421694751E+02  0.10000000000E+01 0.  0.
    9000005    1    3    3    0    0  0.90894210720E+02 -0.15312979728E+02  0.21093154030E+03  0.23019417800E+03  0.10000000000E+01 0.  0.
<mgrwt>
<rscale>  0 0.13796493E+03</rscale>
<asrwt>0</asrwt>
<pdfrwt beam="1">  1        2 0.52319239E-01 0.14578967E+03</pdfrwt>
<pdfrwt beam="2">  1       -2 0.10850718E-01 0.14578967E+03</pdfrwt>
<totfact> 0.53432152E+03</totfact>
</mgrwt>
</event>
<event>
 8    3  0.7944584E-004  0.1797262E+03  0.7818608E-02  0.1173857E+00
         -2   -1    0    0    0  501 -0.00000000000E+00  0.00000000000E+00  0.20777295714E+02  0.20777295870E+02  0.25500000000E-02 0.  1.
          2   -1    0    0  501    0  0.00000000000E+00 -0.00000000000E+00 -0.14334718327E+04  0.14334718327E+04  0.25500000000E-02 0. -1.
         25    2    1    2    0    0 -0.58015002196E+02 -0.11538056268E+03 -0.90578024531E+03  0.92343886969E+03  0.12499231392E+03 0.  0.
         23    2    1    2    0    0  0.58015002196E+02  0.11538056268E+03 -0.50691429165E+03  0.53081025886E+03  0.90105588629E+02 0.  0.
        -13    1    4    4    0    0  0.50857736941E+02  0.12121109139E+03 -0.50439327855E+03  0.52124008738E+03  0.10566000000E+00 0. -1.
         13    1    4    4    0    0  0.71572652552E+01 -0.58305287090E+01 -0.25210131008E+01  0.95701714745E+01  0.10566000000E+00 0.  1.
    9000005    1    3    3    0    0 -0.69404614256E+02 -0.11630793764E+03 -0.51571308817E+03  0.53320308152E+03  0.10000000000E+01 0.  0.
    9000005    1    3    3    0    0  0.11389612060E+02  0.92737495623E+00 -0.39006715714E+03  0.39023578817E+03  0.10000000000E+01 0.  0.
<mgrwt>
<rscale>  0 0.17388388E+03</rscale>
<asrwt>0</asrwt>
<pdfrwt beam="2">  1        2 0.22053405E+00 0.17972616E+03</pdfrwt>
<pdfrwt beam="1">  1       -2 0.31965082E-02 0.17972616E+03</pdfrwt>
<totfact> 0.56543398E+03</totfact>
</mgrwt>
</event>
<event>
 8    3  0.7944584E-004  0.2483378E+03  0.7818608E-02  0.1116898E+00
         -2   -1    0    0    0  501 -0.00000000000E+00  0.00000000000E+00  0.20023102863E+02  0.20023103025E+02  0.25500000000E-02 0.  1.
          2   -1    0    0  501    0  0.00000000000E+00 -0.00000000000E+00 -0.40323492038E+04  0.40323492038E+04  0.25500000000E-02 0. -1.
         25    2    1    2    0    0 -0.17735035457E+03  0.12080308323E+03 -0.97510717614E+03  0.10062334130E+04  0.12500057291E+03 0.  0.
         23    2    1    2    0    0  0.17735035457E+03 -0.12080308323E+03 -0.30372189248E+04  0.30461388938E+04  0.90646733750E+02 0.  0.
        -13    1    4    4    0    0  0.79236257324E+02 -0.10531395622E+03 -0.15402934410E+04  0.15459215081E+04  0.10566000000E+00 0.  1.
         13    1    4    4    0    0  0.98114097248E+02 -0.15489127015E+02 -0.14969254838E+04  0.15002173857E+04  0.10566000000E+00 0. -1.
    9000005    1    3    3    0    0 -0.50701671244E+02  0.10913148787E+03 -0.51473661214E+03  0.52861623224E+03  0.10000000000E+01 0.  0.
    9000005    1    3    3    0    0 -0.12664868333E+03  0.11671595360E+02 -0.46037056400E+03  0.47761718072E+03  0.10000000000E+01 0.  0.
<mgrwt>
<rscale>  0 0.24439679E+03</rscale>
<asrwt>0</asrwt>
<pdfrwt beam="2">  1        2 0.62036077E+00 0.24833783E+03</pdfrwt>
<pdfrwt beam="1">  1       -2 0.30804806E-02 0.24833783E+03</pdfrwt>
<totfact> 0.17353250E+02</totfact>
</mgrwt>
</event>
<event>
 8    3  0.7944584E-004  0.1344949E+03  0.7818608E-02  0.1247590E+00
         -2   -1    0    0    0  501 -0.00000000000E+00  0.00000000000E+00  0.61254701510E+01  0.61254706818E+01  0.25500000000E-02 0. -1.
          2   -1    0    0  501    0  0.00000000000E+00 -0.00000000000E+00 -0.20323547021E+04  0.20323547021E+04  0.25500000000E-02 0.  1.
         25    2    1    2    0    0 -0.49271808294E+02  0.59359483244E+01 -0.95488141098E+03  0.96430669164E+03  0.12500375970E+03 0.  0.
         23    2    1    2    0    0  0.49271808294E+02 -0.59359483244E+01 -0.10713478210E+04  0.10741734812E+04  0.59996395830E+02 0.  0.
        -13    1    4    4    0    0  0.39650496703E+02  0.24239613665E+01 -0.28851939355E+03  0.29124129016E+03  0.10566000000E+00 0. -1.
         13    1    4    4    0    0  0.96213115908E+01 -0.83599096908E+01 -0.78282842745E+03  0.78293219101E+03  0.10566000000E+00 0.  1.
    9000005    1    3    3    0    0 -0.25173433634E+02 -0.25519062992E+02 -0.71047187456E+02  0.79584088751E+02  0.10000000000E+01 0.  0.
    9000005    1    3    3    0    0 -0.24098374660E+02  0.31455011316E+02 -0.88383422352E+03  0.88472260289E+03  0.10000000000E+01 0.  0.
<mgrwt>
<rscale>  0 0.11731702E+03</rscale>
<asrwt>0</asrwt>
<pdfrwt beam="2">  1        2 0.31266942E+00 0.13449493E+03</pdfrwt>
<pdfrwt beam="1">  1       -2 0.94238169E-03 0.13449493E+03</pdfrwt>
<totfact> 0.16189146E+04</totfact>
</mgrwt>
</event>
<event>
 8    3  0.7944584E-004  0.2040994E+03  0.7818608E-02  0.1150172E+00
          2   -1    0    0  501    0  0.00000000000E+00  0.00000000000E+00  0.12679296213E+03  0.12679296216E+03  0.25500000000E-02 0. -1.
         -2   -1    0    0    0  501 -0.00000000000E+00 -0.00000000000E+00 -0.30413638726E+03  0.30413638727E+03  0.25500000000E-02 0.  1.
         25    2    1    2    0    0  0.22165490636E+02  0.15980574043E+03 -0.69028854052E+02  0.21545657208E+03  0.12500947208E+03 0.  0.
         23    2    1    2    0    0 -0.22165490636E+02 -0.15980574043E+03 -0.10831457108E+03  0.21547277735E+03  0.93098269710E+02 0.  0.
        -13    1    4    4    0    0  0.31511664026E+02 -0.80979129361E+02 -0.29539392258E+02  0.91777945177E+02  0.10566000000E+00 0. -1.
         13    1    4    4    0    0 -0.53677154662E+02 -0.78826611068E+02 -0.78775178818E+02  0.12369483218E+03  0.10566000000E+00 0.  1.
    9000005    1    3    3    0    0  0.69201460269E+02  0.12606192444E+03 -0.33955179295E+02  0.14776469503E+03  0.10000000000E+01 0.  0.
    9000005    1    3    3    0    0 -0.47035969633E+02  0.33743815986E+02 -0.35073674757E+02  0.67691877043E+02  0.10000000000E+01 0.  0.
<mgrwt>
<rscale>  0 0.19948806E+03</rscale>
<asrwt>0</asrwt>
<pdfrwt beam="1">  1        2 0.19506610E-01 0.20409937E+03</pdfrwt>
<pdfrwt beam="2">  1       -2 0.46790213E-01 0.20409937E+03</pdfrwt>
<totfact> 0.12432731E+03</totfact>
</mgrwt>
</event>
<event>
 8    3  0.7944584E-004  0.1345293E+03  0.7818608E-02  0.1233948E+00
          2   -1    0    0  501    0  0.00000000000E+00  0.00000000000E+00  0.11017306313E+03  0.11017306316E+03  0.25500000000E-02 0. -1.
         -2   -1    0    0    0  501 -0.00000000000E+00 -0.00000000000E+00 -0.20248391594E+03  0.20248391596E+03  0.25500000000E-02 0.  1.
         25    2    1    2    0    0  0.47335191281E+02 -0.14981819799E+02 -0.14459383439E+03  0.19749810882E+03  0.12503219899E+03 0.  0.
         23    2    1    2    0    0 -0.47335191281E+02  0.14981819799E+02  0.52282981574E+02  0.11515887030E+03  0.89794097735E+02 0.  0.
        -13    1    4    4    0    0 -0.47821447979E+02 -0.72046981735E+01  0.71150549604E+02  0.86030287897E+02  0.10566000000E+00 0. -1.
         13    1    4    4    0    0  0.48625669820E+00  0.22186517973E+02 -0.18867568030E+02  0.29128582402E+02  0.10566000000E+00 0.  1.
    9000005    1    3    3    0    0 -0.34436466726E+02 -0.30102700438E+02 -0.80148609283E+02  0.92286740024E+02  0.10000000000E+01 0.  0.
    9000005    1    3    3    0    0  0.81771658007E+02  0.15120880639E+02 -0.64445225103E+02  0.10521136879E+03  0.10000000000E+01 0.  0.
<mgrwt>
<rscale>  0 0.12572051E+03</rscale>
<asrwt>0</asrwt>
<pdfrwt beam="1">  1        2 0.16949702E-01 0.13452928E+03</pdfrwt>
<pdfrwt beam="2">  1       -2 0.31151372E-01 0.13452928E+03</pdfrwt>
<totfact> 0.30924651E+03</totfact>
</mgrwt>
</event>
<event>
 8    3  0.7944584E-004  0.1356800E+03  0.7818608E-02  0.1233451E+00
          2   -1    0    0  501    0  0.00000000000E+00  0.00000000000E+00  0.84890931472E+02  0.84890931510E+02  0.25500000000E-02 0.  1.
         -2   -1    0    0    0  501 -0.00000000000E+00 -0.00000000000E+00 -0.16593185400E+03  0.16593185402E+03  0.25500000000E-02 0. -1.
         25    2    1    2    0    0 -0.52696026288E+02  0.27286853808E+01 -0.37261630286E+02  0.14070359212E+03  0.12499901933E+03 0.  0.
         23    2    1    2    0    0  0.52696026288E+02 -0.27286853808E+01 -0.43779292238E+02  0.11011919341E+03  0.86170142262E+02 0.  0.
        -13    1    4    4    0    0  0.56874356509E+02 -0.19539133063E+02 -0.61024282926E+02  0.85676393597E+02  0.10566000000E+00 0. -1.
         13    1    4    4    0    0 -0.41783302213E+01  0.16810447682E+02  0.17244990688E+02  0.24442799810E+02  0.10566000000E+00 0.  1.
    9000005    1    3    3    0    0  0.28851444555E+01  0.53902255818E+02  0.48442654122E+01  0.54205573036E+02  0.10000000000E+01 0.  0.
    9000005    1    3    3    0    0 -0.55581170744E+02 -0.51173570437E+02 -0.42105895698E+02  0.86498019082E+02  0.10000000000E+01 0.  0.
<mgrwt>
<rscale>  0 0.12604137E+03</rscale>
<asrwt>0</asrwt>
<pdfrwt beam="1">  1        2 0.13060143E-01 0.13568003E+03</pdfrwt>
<pdfrwt beam="2">  1       -2 0.25527977E-01 0.13568003E+03</pdfrwt>
<totfact> 0.59851490E+03</totfact>
</mgrwt>
</event>
<event>
 8    3  0.7944584E-004  0.1310212E+03  0.7818608E-02  0.1240329E+00
         -2   -1    0    0    0  501 -0.00000000000E+00  0.00000000000E+00  0.34729644683E+02  0.34729644776E+02  0.25500000000E-02 0.  1.
          2   -1    0    0  501    0  0.00000000000E+00 -0.00000000000E+00 -0.49598445460E+03  0.49598445460E+03  0.25500000000E-02 0. -1.
         25    2    1    2    0    0 -0.63834853165E+01  0.38753744076E+02 -0.38573734729E+03  0.40738172327E+03  0.12499586311E+03 0.  0.
         23    2    1    2    0    0  0.63834853165E+01 -0.38753744076E+02 -0.75517462619E+02  0.12333237611E+03  0.89249012715E+02 0.  0.
        -13    1    4    4    0    0 -0.16099531296E+02 -0.31933022618E+02 -0.89229141745E+02  0.96128891297E+02  0.10566000000E+00 0. -1.
         13    1    4    4    0    0  0.22483016613E+02 -0.68207214583E+01  0.13711679126E+02  0.27203484808E+02  0.10566000000E+00 0.  1.
    9000005    1    3    3    0    0 -0.55848478573E+02  0.33384898405E+02 -0.31000760638E+03  0.31676382371E+03  0.10000000000E+01 0.  0.
    9000005    1    3    3    0    0  0.49464993257E+02  0.53688456714E+01 -0.75729740916E+02  0.90617899561E+02  0.10000000000E+01 0.  0.
<mgrwt>
<rscale>  0 0.12169350E+03</rscale>
<asrwt>0</asrwt>
<pdfrwt beam="2">  1        2 0.76305295E-01 0.13102125E+03</pdfrwt>
<pdfrwt beam="1">  1       -2 0.53430226E-02 0.13102125E+03</pdfrwt>
<totfact> 0.10544451E+04</totfact>
</mgrwt>
</event>
<event>
 8    3  0.7944584E-004  0.1367347E+03  0.7818608E-02  0.1229125E+00
          2   -1    0    0  501    0  0.00000000000E+00  0.00000000000E+00  0.75658223054E+02  0.75658223097E+02  0.25500000000E-02 0. -1.
         -2   -1    0    0    0  501 -0.00000000000E+00 -0.00000000000E+00 -0.19991258671E+03  0.19991258673E+03  0.25500000000E-02 0.  1.
         25    2    1    2    0    0 -0.44431142108E+02 -0.33175909840E+02 -0.55277398512E+02  0.14748544358E+03  0.12498639086E+03 0.  0.
         23    2    1    2    0    0  0.44431142108E+02  0.33175909840E+02 -0.68976965149E+02  0.12808536624E+03  0.92591964780E+02 0.  0.
        -13    1    4    4    0    0  0.45997639134E+02  0.29011940547E+02 -0.90785372458E+02  0.10582755084E+03  0.10566000000E+00 0.  1.
         13    1    4    4    0    0 -0.15664970257E+01  0.41639692927E+01  0.21808407309E+02  0.22257815405E+02  0.10566000000E+00 0. -1.
    9000005    1    3    3    0    0 -0.50397360725E+00  0.16707512919E+02  0.32983947017E+02  0.36991022399E+02  0.10000000000E+01 0.  0.
    9000005    1    3    3    0    0 -0.43927168501E+02 -0.49883422758E+02 -0.88261345528E+02  0.11049442119E+03  0.10000000000E+01 0.  0.
<mgrwt>
<rscale>  0 0.12888149E+03</rscale>
<asrwt>0</asrwt>
<pdfrwt beam="1">  1        2 0.11639727E-01 0.13673465E+03</pdfrwt>
<pdfrwt beam="2">  1       -2 0.30755782E-01 0.13673465E+03</pdfrwt>
<totfact> 0.49356646E+03</totfact>
</mgrwt>
</event>
<event>
 8    3  0.7944584E-004  0.1450607E+03  0.7818608E-02  0.1217434E+00
          2   -1    0    0  501    0  0.00000000000E+00  0.00000000000E+00  0.69900649773E+03  0.69900649773E+03  0.25500000000E-02 0.  1.
         -2   -1    0    0    0  501 -0.00000000000E+00 -0.00000000000E+00 -0.25193227319E+02  0.25193227448E+02  0.25500000000E-02 0. -1.
         25    2    1    2    0    0 -0.14395106777E+02  0.72184948788E+02  0.44315626882E+03  0.46629400359E+03  0.12499893303E+03 0.  0.
         23    2    1    2    0    0  0.14395106777E+02 -0.72184948788E+02  0.23065700159E+03  0.25790572159E+03  0.88852816027E+02 0.  0.
        -13    1    4    4    0    0 -0.22712940084E+02 -0.48144830142E+02  0.19177589087E+03  0.19902714840E+03  0.10566000000E+00 0.  1.
         13    1    4    4    0    0  0.37108046861E+02 -0.24040118646E+02  0.38881110724E+02  0.58878573195E+02  0.10566000000E+00 0. -1.
    9000005    1    3    3    0    0 -0.36527495348E+02  0.80985550253E+02  0.42996500798E+03  0.43904877332E+03  0.10000000000E+01 0.  0.
    9000005    1    3    3    0    0  0.22132388571E+02 -0.88006014648E+01  0.13191260840E+02  0.27245230271E+02  0.10000000000E+01 0.  0.
<mgrwt>
<rscale>  0 0.13699216E+03</rscale>
<asrwt>0</asrwt>
<pdfrwt beam="1">  1        2 0.10753946E+00 0.14506074E+03</pdfrwt>
<pdfrwt beam="2">  1       -2 0.38758812E-02 0.14506074E+03</pdfrwt>
<totfact> 0.11618567E+04</totfact>
</mgrwt>
</event>
<event>
 8    3  0.7944584E-004  0.1572012E+03  0.7818608E-02  0.1199994E+00
          2   -1    0    0  501    0  0.00000000000E+00  0.00000000000E+00  0.41413470274E+02  0.41413470352E+02  0.25500000000E-02 0. -1.
         -2   -1    0    0    0  501 -0.00000000000E+00 -0.00000000000E+00 -0.51048864491E+03  0.51048864492E+03  0.25500000000E-02 0.  1.
         25    2    1    2    0    0  0.77149578649E+02 -0.56013123727E+02 -0.28653514243E+03  0.32682501612E+03  0.12499070286E+03 0.  0.
         23    2    1    2    0    0 -0.77149578649E+02  0.56013123727E+02 -0.18254003221E+03  0.22507709915E+03  0.90825710493E+02 0.  0.
        -13    1    4    4    0    0 -0.81779971916E+02  0.55464939948E+02 -0.19120912513E+03  0.21523304595E+03  0.10566000000E+00 0.  1.
         13    1    4    4    0    0  0.46303932670E+01  0.54818377994E+00  0.86690929231E+01  0.98440532002E+01  0.10566000000E+00 0. -1.
    9000005    1    3    3    0    0 -0.36532770882E+01 -0.33486130555E+02 -0.62751861482E+01  0.34278934263E+02  0.10000000000E+01 0.  0.
    9000005    1    3    3    0    0  0.80802855738E+02 -0.22526993172E+02 -0.28025995628E+03  0.29254608186E+03  0.10000000000E+01 0.  0.
<mgrwt>
<rscale>  0 0.15039012E+03</rscale>
<asrwt>0</asrwt>
<pdfrwt beam="1">  1        2 0.63713035E-02 0.15720116E+03</pdfrwt>
<pdfrwt beam="2">  1       -2 0.78536710E-01 0.15720116E+03</pdfrwt>
<totfact> 0.16489408E+03</totfact>
</mgrwt>
</event>
<event>
 8    3  0.7944584E-004  0.2141934E+03  0.7818608E-02  0.1141732E+00
         -2   -1    0    0    0  501 -0.00000000000E+00  0.00000000000E+00  0.13116396937E+03  0.13116396939E+03  0.25500000000E-02 0.  1.
          2   -1    0    0  501    0  0.00000000000E+00 -0.00000000000E+00 -0.33208223803E+03  0.33208223804E+03  0.25500000000E-02 0. -1.
         25    2    1    2    0    0 -0.11933525185E+03 -0.12654019164E+03 -0.65095557603E+02  0.22386652936E+03  0.12500187565E+03 0.  0.
         23    2    1    2    0    0  0.11933525185E+03  0.12654019164E+03 -0.13582271106E+03  0.23937967807E+03  0.92744266661E+02 0.  0.
        -13    1    4    4    0    0  0.13067412724E+03  0.89526032042E+02 -0.10974034069E+03  0.19270078226E+03  0.10566000000E+00 0. -1.
         13    1    4    4    0    0 -0.11338875395E+02  0.37014159598E+02 -0.26082370363E+02  0.46678895807E+02  0.10566000000E+00 0.  1.
    9000005    1    3    3    0    0 -0.81101389683E+02 -0.65848606899E+01  0.15936167826E+01  0.81390020354E+02  0.10000000000E+01 0.  0.
    9000005    1    3    3    0    0 -0.38233862163E+02 -0.11995533095E+03 -0.66689174386E+02  0.14247650901E+03  0.10000000000E+01 0.  0.
<mgrwt>
<rscale>  0 0.20979015E+03</rscale>
<asrwt>0</asrwt>
<pdfrwt beam="2">  1        2 0.51089575E-01 0.21419335E+03</pdfrwt>
<pdfrwt beam="1">  1       -2 0.20179072E-01 0.21419335E+03</pdfrwt>
<totfact> 0.20089133E+03</totfact>
</mgrwt>
</event>
<event>
 8    3  0.7944584E-004  0.1855563E+03  0.7818608E-02  0.1167836E+00
          2   -1    0    0  501    0  0.00000000000E+00  0.00000000000E+00  0.49212060908E+03  0.49212060908E+03  0.25500000000E-02 0.  1.
         -2   -1    0    0    0  501 -0.00000000000E+00 -0.00000000000E+00 -0.62139266883E+02  0.62139266935E+02  0.25500000000E-02 0. -1.
         25    2    1    2    0    0  0.36996666426E+02 -0.13205217670E+03  0.22714510156E+03  0.29330194859E+03  0.12499842073E+03 0.  0.
         23    2    1    2    0    0 -0.36996666426E+02  0.13205217670E+03  0.20283624063E+03  0.26095792743E+03  0.90277176947E+02 0.  0.
        -13    1    4    4    0    0 -0.86308347629E+01  0.10768635971E+03  0.85394112759E+02  0.13770624182E+03  0.10566000000E+00 0. -1.
         13    1    4    4    0    0 -0.28365831663E+02  0.24365816982E+02  0.11744212787E+03  0.12325168561E+03  0.10566000000E+00 0.  1.
    9000005    1    3    3    0    0 -0.33029776188E+02 -0.10567298575E+03  0.13535344020E+03  0.17486937927E+03  0.10000000000E+01 0.  0.
    9000005    1    3    3    0    0  0.70026442614E+02 -0.26379190950E+02  0.91791661366E+02  0.11843256932E+03  0.10000000000E+01 0.  0.
<mgrwt>
<rscale>  0 0.17996568E+03</rscale>
<asrwt>0</asrwt>
<pdfrwt beam="1">  1        2 0.75710862E-01 0.18555629E+03</pdfrwt>
<pdfrwt beam="2">  1       -2 0.95598874E-02 0.18555629E+03</pdfrwt>
<totfact> 0.44307029E+03</totfact>
</mgrwt>
</event>
<event>
 8    3  0.7944584E-004  0.1494121E+03  0.7818608E-02  0.1211169E+00
         -2   -1    0    0    0  501 -0.00000000000E+00  0.00000000000E+00  0.12664732783E+03  0.12664732786E+03  0.25500000000E-02 0.  1.
          2   -1    0    0  501    0  0.00000000000E+00 -0.00000000000E+00 -0.16842129685E+03  0.16842129687E+03  0.25500000000E-02 0. -1.
         25    2    1    2    0    0 -0.51882683125E+02  0.63301600571E+02 -0.78806975847E+02  0.16892158644E+03  0.12500022992E+03 0.  0.
         23    2    1    2    0    0  0.51882683125E+02 -0.63301600571E+02  0.37033006835E+02  0.12614703829E+03  0.88559167960E+02 0.  0.
        -13    1    4    4    0    0  0.34527151170E+02  0.10726471066E+01  0.47421942651E+02  0.58669639070E+02  0.10566000000E+00 0.  1.
         13    1    4    4    0    0  0.17355531955E+02 -0.64374247677E+02 -0.10388935816E+02  0.67477399215E+02  0.10566000000E+00 0. -1.
    9000005    1    3    3    0    0  0.19705097068E+02  0.72369131127E+02 -0.54693184953E+02  0.92832787693E+02  0.10000000000E+01 0.  0.
    9000005    1    3    3    0    0 -0.71587780194E+02 -0.90675305565E+01 -0.24113790894E+02  0.76088798747E+02  0.10000000000E+01 0.  0.
<mgrwt>
<rscale>  0 0.14161716E+03</rscale>
<asrwt>0</asrwt>
<pdfrwt beam="2">  1        2 0.25910969E-01 0.14941206E+03</pdfrwt>
<pdfrwt beam="1">  1       -2 0.19484204E-01 0.14941206E+03</pdfrwt>
<totfact> 0.43754210E+03</totfact>
</mgrwt>
</event>
<event>
 8    3  0.7944584E-004  0.1279064E+03  0.7818608E-02  0.1245465E+00
         -2   -1    0    0    0  501 -0.00000000000E+00  0.00000000000E+00  0.61958619347E+01  0.61958624595E+01  0.25500000000E-02 0. -1.
          2   -1    0    0  501    0  0.00000000000E+00 -0.00000000000E+00 -0.22390545486E+04  0.22390545486E+04  0.25500000000E-02 0.  1.
         25    2    1    2    0    0  0.12452867723E+01  0.27102337272E+02 -0.89942210117E+03  0.90847133514E+03  0.12499585305E+03 0.  0.
         23    2    1    2    0    0 -0.12452867723E+01 -0.27102337272E+02 -0.13334365855E+04  0.13367790759E+04  0.90493551413E+02 0.  0.
        -13    1    4    4    0    0 -0.56787724555E+01 -0.47427211929E+02 -0.36416672725E+03  0.36728599931E+03  0.10566000000E+00 0. -1.
         13    1    4    4    0    0  0.44334856832E+01  0.20324874656E+02 -0.96926985828E+03  0.96949307664E+03  0.10566000000E+00 0.  1.
    9000005    1    3    3    0    0  0.88336895219E+01 -0.26877357456E+02 -0.51251822070E+02  0.58550624932E+02  0.10000000000E+01 0.  0.
    9000005    1    3    3    0    0 -0.75884027496E+01  0.53979694729E+02 -0.84817027910E+03  0.84992071021E+03  0.10000000000E+01 0.  0.
<mgrwt>
<rscale>  0 0.11857587E+03</rscale>
<asrwt>0</asrwt>
<pdfrwt beam="2">  1        2 0.34446929E+00 0.12790641E+03</pdfrwt>
<pdfrwt beam="1">  1       -2 0.95321135E-03 0.12790641E+03</pdfrwt>
<totfact> 0.12442143E+04</totfact>
</mgrwt>
</event>
<event>
 8    3  0.7944584E-004  0.1332393E+03  0.7818608E-02  0.1235342E+00
         -2   -1    0    0    0  501 -0.00000000000E+00  0.00000000000E+00  0.46210413605E+03  0.46210413606E+03  0.25500000000E-02 0.  1.
          2   -1    0    0  501    0  0.00000000000E+00 -0.00000000000E+00 -0.31965893717E+02  0.31965893819E+02  0.25500000000E-02 0. -1.
         25    2    1    2    0    0 -0.17513641377E+00 -0.46087258504E+02  0.18214863088E+03  0.22567860461E+03  0.12501457026E+03 0.  0.
         23    2    1    2    0    0  0.17513641377E+00  0.46087258504E+02  0.24798961145E+03  0.26839142527E+03  0.91711742433E+02 0.  0.
        -13    1    4    4    0    0 -0.41896385628E+02  0.94252538782E+01  0.72729256508E+02  0.84461224569E+02  0.10566000000E+00 0. -1.
         13    1    4    4    0    0  0.42071522042E+02  0.36662004626E+02  0.17526035494E+03  0.18393020070E+03  0.10566000000E+00 0.  1.
    9000005    1    3    3    0    0  0.61469835463E+02 -0.16572444793E+02  0.10308640076E+03  0.12116514606E+03  0.10000000000E+01 0.  0.
    9000005    1    3    3    0    0 -0.61644971877E+02 -0.29514813711E+02  0.79062230127E+02  0.10451345855E+03  0.10000000000E+01 0.  0.
<mgrwt>
<rscale>  0 0.12482573E+03</rscale>
<asrwt>0</asrwt>
<pdfrwt beam="2">  1        2 0.49178301E-02 0.13323929E+03</pdfrwt>
<pdfrwt beam="1">  1       -2 0.71092940E-01 0.13323929E+03</pdfrwt>
<totfact> 0.28317962E+03</totfact>
</mgrwt>
</event>
<event>
 8    3  0.7944584E-004  0.1252435E+03  0.7818608E-02  0.1247435E+00
         -2   -1    0    0    0  501 -0.00000000000E+00  0.00000000000E+00  0.12339950320E+03  0.12339950322E+03  0.25500000000E-02 0.  1.
          2   -1    0    0  501    0  0.00000000000E+00 -0.00000000000E+00 -0.10022625247E+03  0.10022625250E+03  0.25500000000E-02 0. -1.
         25    2    1    2    0    0  0.75997048582E+01  0.16992252776E+01  0.20157222459E+02  0.12685525705E+03  0.12500119896E+03 0.  0.
         23    2    1    2    0    0 -0.75997048582E+01 -0.16992252776E+01  0.30160282698E+01  0.96770498680E+02  0.96409491793E+02 0.  0.
        -13    1    4    4    0    0 -0.22590985020E+02 -0.39410876160E+02 -0.20531894945E+02  0.49851174890E+02  0.10566000000E+00 0. -1.
         13    1    4    4    0    0  0.14991280162E+02  0.37711650882E+02  0.23547923215E+02  0.46919323790E+02  0.10566000000E+00 0.  1.
    9000005    1    3    3    0    0  0.43398202570E+02  0.44868051441E+00  0.59490670685E+02  0.73646080676E+02  0.10000000000E+01 0.  0.
    9000005    1    3    3    0    0 -0.35798497712E+02  0.12505447632E+01 -0.39333448226E+02  0.53209176370E+02  0.10000000000E+01 0.  0.
<mgrwt>
<rscale>  0 0.11740848E+03</rscale>
<asrwt>0</asrwt>
<pdfrwt beam="2">  1        2 0.15419424E-01 0.12524353E+03</pdfrwt>
<pdfrwt beam="1">  1       -2 0.18984539E-01 0.12524353E+03</pdfrwt>
<totfact> 0.81269021E+03</totfact>
</mgrwt>
</event>
<event>
 8    3  0.7944584E-004  0.1301592E+03  0.7818608E-02  0.1241712E+00
          2   -1    0    0  501    0  0.00000000000E+00  0.00000000000E+00  0.57712311213E+03  0.57712311214E+03  0.25500000000E-02 0. -1.
         -2   -1    0    0    0  501 -0.00000000000E+00 -0.00000000000E+00 -0.22690413856E+02  0.22690413999E+02  0.25500000000E-02 0.  1.
         25    2    1    2    0    0  0.27333318475E+02 -0.23833092838E+02  0.27824079423E+03  0.30717968853E+03  0.12500517933E+03 0.  0.
         23    2    1    2    0    0 -0.27333318475E+02  0.23833092838E+02  0.27619190405E+03  0.29263383761E+03  0.89651929364E+02 0.  0.
        -13    1    4    4    0    0 -0.22484504043E+02  0.57812918929E+02  0.18948592611E+03  0.19938107703E+03  0.10566000000E+00 0.  1.
         13    1    4    4    0    0 -0.48488144318E+01 -0.33979826091E+02  0.86705977937E+02  0.93252760584E+02  0.10566000000E+00 0. -1.
    9000005    1    3    3    0    0 -0.46364649139E+02  0.91370024983E+01  0.13079215096E+03  0.13907103314E+03  0.10000000000E+01 0.  0.
    9000005    1    3    3    0    0  0.73697967613E+02 -0.32970095336E+02  0.14744864326E+03  0.16810865539E+03  0.10000000000E+01 0.  0.
<mgrwt>
<rscale>  0 0.12084334E+03</rscale>
<asrwt>0</asrwt>
<pdfrwt beam="1">  1        2 0.88788158E-01 0.13015922E+03</pdfrwt>
<pdfrwt beam="2">  1       -2 0.34908334E-02 0.13015922E+03</pdfrwt>
<totfact> 0.16796743E+04</totfact>
</mgrwt>
</event>
<event>
 8    3  0.7944584E-004  0.2033097E+03  0.7818608E-02  0.1150844E+00
          2   -1    0    0  501    0  0.00000000000E+00  0.00000000000E+00  0.18069663985E+03  0.18069663987E+03  0.25500000000E-02 0.  1.
         -2   -1    0    0    0  501 -0.00000000000E+00 -0.00000000000E+00 -0.29509445740E+03  0.29509445741E+03  0.25500000000E-02 0. -1.
         25    2    1    2    0    0 -0.65698435385E+02 -0.14626792455E+03 -0.18736688628E+03  0.27648000739E+03  0.12499701696E+03 0.  0.
         23    2    1    2    0    0  0.65698435385E+02  0.14626792455E+03  0.72969068729E+02  0.19931108989E+03  0.93219286623E+02 0.  0.
        -13    1    4    4    0    0  0.25132556724E+02  0.97255198918E+02  0.88439080341E+02  0.13383460397E+03  0.10566000000E+00 0.  1.
         13    1    4    4    0    0  0.40565878660E+02  0.49012725633E+02 -0.15470011613E+02  0.65476485922E+02  0.10566000000E+00 0. -1.
    9000005    1    3    3    0    0 -0.14227089624E+01 -0.12613028597E+03 -0.16006039374E+03  0.20379205770E+03  0.10000000000E+01 0.  0.
    9000005    1    3    3    0    0 -0.64275726422E+02 -0.20137638584E+02 -0.27306492540E+02  0.72687949687E+02  0.10000000000E+01 0.  0.
<mgrwt>
<rscale>  0 0.19869599E+03</rscale>
<asrwt>0</asrwt>
<pdfrwt beam="1">  1        2 0.27799483E-01 0.20330973E+03</pdfrwt>
<pdfrwt beam="2">  1       -2 0.45399147E-01 0.20330973E+03</pdfrwt>
<totfact> 0.88548068E+02</totfact>
</mgrwt>
</event>
<event>
 8    3  0.7944584E-004  0.1269889E+03  0.7818608E-02  0.1246291E+00
         -2   -1    0    0    0  501 -0.00000000000E+00  0.00000000000E+00  0.95632938493E+01  0.95632941893E+01  0.25500000000E-02 0. -1.
          2   -1    0    0  501    0  0.00000000000E+00 -0.00000000000E+00 -0.12923589935E+04  0.12923589935E+04  0.25500000000E-02 0.  1.
         25    2    1    2    0    0  0.16289331338E+02 -0.15427434207E+02 -0.77279886516E+03  0.78316298508E+03  0.12499130833E+03 0.  0.
         23    2    1    2    0    0 -0.16289331338E+02  0.15427434207E+02 -0.50999683445E+03  0.51875930257E+03  0.92255595050E+02 0.  0.
        -13    1    4    4    0    0  0.29068152961E+02 -0.10298824029E+02 -0.82171703454E+02  0.87768008440E+02  0.10566000000E+00 0. -1.
         13    1    4    4    0    0 -0.45357484300E+02  0.25726258236E+02 -0.42782513099E+03  0.43099129413E+03  0.10566000000E+00 0.  1.
    9000005    1    3    3    0    0  0.39112615494E+02  0.22483168738E+02 -0.11011411458E+03  0.11900171342E+03  0.10000000000E+01 0.  0.
    9000005    1    3    3    0    0 -0.22823284156E+02 -0.37910602945E+02 -0.66268475058E+03  0.66416127165E+03  0.10000000000E+01 0.  0.
<mgrwt>
<rscale>  0 0.11808416E+03</rscale>
<asrwt>0</asrwt>
<pdfrwt beam="2">  1        2 0.19882432E+00 0.12698888E+03</pdfrwt>
<pdfrwt beam="1">  1       -2 0.14712770E-02 0.12698888E+03</pdfrwt>
<totfact> 0.20550760E+04</totfact>
</mgrwt>
</event>
<event>
 8    3  0.7944584E-004  0.1444509E+03  0.7818608E-02  0.1215957E+00
         -2   -1    0    0    0  501 -0.00000000000E+00  0.00000000000E+00  0.13782214518E+03  0.13782214520E+03  0.25500000000E-02 0.  1.
          2   -1    0    0  501    0  0.00000000000E+00 -0.00000000000E+00 -0.13654637689E+03  0.13654637692E+03  0.25500000000E-02 0. -1.
         25    2    1    2    0    0  0.69678018539E+02  0.19672685043E+02  0.36089586787E+02  0.14889096854E+03  0.12499608568E+03 0.  0.
         23    2    1    2    0    0 -0.69678018539E+02 -0.19672685043E+02 -0.34813818503E+02  0.12547755357E+03  0.96387622067E+02 0.  0.
        -13    1    4    4    0    0 -0.60145748034E+02  0.31524030104E+02 -0.13650485721E+02  0.69264871363E+02  0.10566000000E+00 0.  1.
         13    1    4    4    0    0 -0.95322705050E+01 -0.51196715147E+02 -0.21163332782E+02  0.56212682210E+02  0.10566000000E+00 0. -1.
    9000005    1    3    3    0    0 -0.25922654507E+02 -0.23695064342E+02  0.25424030304E+02  0.43368437922E+02  0.10000000000E+01 0.  0.
    9000005    1    3    3    0    0  0.95600673046E+02  0.43367749385E+02  0.10665556484E+02  0.10552253062E+03  0.10000000000E+01 0.  0.
<mgrwt>
<rscale>  0 0.13806486E+03</rscale>
<asrwt>0</asrwt>
<pdfrwt beam="2">  1        2 0.21007135E-01 0.14445090E+03</pdfrwt>
<pdfrwt beam="1">  1       -2 0.21203407E-01 0.14445090E+03</pdfrwt>
<totfact> 0.47780923E+03</totfact>
</mgrwt>
</event>
<event>
 8    3  0.7944584E-004  0.2169792E+03  0.7818608E-02  0.1139561E+00
         -2   -1    0    0    0  501 -0.00000000000E+00  0.00000000000E+00  0.14775670953E+03  0.14775670955E+03  0.25500000000E-02 0.  1.
          2   -1    0    0  501    0  0.00000000000E+00 -0.00000000000E+00 -0.30210987373E+03  0.30210987374E+03  0.25500000000E-02 0. -1.
         25    2    1    2    0    0 -0.22756718165E+01 -0.17734124736E+03 -0.43242823029E+02  0.22124627679E+03  0.12499950622E+03 0.  0.
         23    2    1    2    0    0  0.22756718165E+01  0.17734124736E+03 -0.11111034117E+03  0.22862030650E+03  0.92014346344E+02 0.  0.
        -13    1    4    4    0    0  0.42147181651E+02  0.13364477411E+03 -0.70496271086E+02  0.15686633153E+03  0.10566000000E+00 0. -1.
         13    1    4    4    0    0 -0.39871509835E+02  0.43696473251E+02 -0.40614070081E+02  0.71753974967E+02  0.10566000000E+00 0.  1.
    9000005    1    3    3    0    0 -0.34482248019E+02 -0.17050954606E+03 -0.60344272405E+02  0.18413300068E+03  0.10000000000E+01 0.  0.
    9000005    1    3    3    0    0  0.32206576203E+02 -0.68317012972E+01  0.17101449377E+02  0.37113276116E+02  0.10000000000E+01 0.  0.
<mgrwt>
<rscale>  0 0.21255178E+03</rscale>
<asrwt>0</asrwt>
<pdfrwt beam="2">  1        2 0.46478442E-01 0.21697920E+03</pdfrwt>
<pdfrwt beam="1">  1       -2 0.22731801E-01 0.21697920E+03</pdfrwt>
<totfact> 0.18115411E+03</totfact>
</mgrwt>
</event>
<event>
 8    3  0.7944584E-004  0.1582573E+03  0.7818608E-02  0.1198412E+00
         -2   -1    0    0    0  501 -0.00000000000E+00  0.00000000000E+00  0.12957928192E+03  0.12957928195E+03  0.25500000000E-02 0.  1.
          2   -1    0    0  501    0  0.00000000000E+00 -0.00000000000E+00 -0.16648132908E+03  0.16648132910E+03  0.25500000000E-02 0. -1.
         25    2    1    2    0    0 -0.92610271784E+02 -0.29091399973E+02 -0.31680687414E+01  0.15828896782E+03  0.12498955429E+03 0.  0.
         23    2    1    2    0    0  0.92610271784E+02  0.29091399973E+02 -0.33733978411E+02  0.13777164323E+03  0.91760952400E+02 0.  0.
        -13    1    4    4    0    0  0.62542275382E+02  0.53689424975E+02 -0.49160137393E+02  0.95973021400E+02  0.10566000000E+00 0. -1.
         13    1    4    4    0    0  0.30067996402E+02 -0.24598025001E+02  0.15426158982E+02  0.41798621826E+02  0.10566000000E+00 0.  1.
    9000005    1    3    3    0    0 -0.78983105160E+02 -0.36832724940E+02 -0.55717668472E+02  0.10344292681E+03  0.10000000000E+01 0.  0.
    9000005    1    3    3    0    0 -0.13627166624E+02  0.77413249669E+01  0.52549599731E+02  0.54846041009E+02  0.10000000000E+01 0.  0.
<mgrwt>
<rscale>  0 0.15168979E+03</rscale>
<asrwt>0</asrwt>
<pdfrwt beam="2">  1        2 0.25612512E-01 0.15825726E+03</pdfrwt>
<pdfrwt beam="1">  1       -2 0.19935274E-01 0.15825726E+03</pdfrwt>
<totfact> 0.42772873E+03</totfact>
</mgrwt>
</event>
<event>
 8    3  0.7944584E-004  0.1598834E+03  0.7818608E-02  0.1194516E+00
         -2   -1    0    0    0  501 -0.00000000000E+00  0.00000000000E+00  0.14642209738E+02  0.14642209960E+02  0.25500000000E-02 0.  1.
          2   -1    0    0  501    0  0.00000000000E+00 -0.00000000000E+00 -0.18044203077E+04  0.18044203077E+04  0.25500000000E-02 0. -1.
         25    2    1    2    0    0 -0.49906277550E+02  0.86294074941E+02 -0.59943324303E+03  0.62038931210E+03  0.12500152723E+03 0.  0.
         23    2    1    2    0    0  0.49906277550E+02 -0.86294074941E+02 -0.11903448549E+04  0.11986732055E+04  0.99796173069E+02 0.  0.
        -13    1    4    4    0    0  0.65264010295E+02 -0.85080982126E+02 -0.11568069332E+04  0.11617660937E+04  0.10566000000E+00 0. -1.
         13    1    4    4    0    0 -0.15357732745E+02 -0.12130928158E+01 -0.33537921715E+02  0.36907111866E+02  0.10566000000E+00 0.  1.
    9000005    1    3    3    0    0 -0.32721872093E+02  0.21950313814E+02 -0.49471841739E+03  0.49628605632E+03  0.10000000000E+01 0.  0.
    9000005    1    3    3    0    0 -0.17184405457E+02  0.64343761128E+02 -0.10471482564E+03  0.12410325578E+03  0.10000000000E+01 0.  0.
<mgrwt>
<rscale>  0 0.15495291E+03</rscale>
<asrwt>0</asrwt>
<pdfrwt beam="2">  1        2 0.27760295E+00 0.15988335E+03</pdfrwt>
<pdfrwt beam="1">  1       -2 0.22526491E-02 0.15988335E+03</pdfrwt>
<totfact> 0.60506028E+03</totfact>
</mgrwt>
</event>
<event>
 8    3  0.7944584E-004  0.1798393E+03  0.7818608E-02  0.1173555E+00
         -2   -1    0    0    0  501 -0.00000000000E+00  0.00000000000E+00  0.28552882988E+02  0.28552883102E+02  0.25500000000E-02 0.  1.
          2   -1    0    0  501    0  0.00000000000E+00 -0.00000000000E+00 -0.11764174486E+04  0.11764174486E+04  0.25500000000E-02 0. -1.
         25    2    1    2    0    0 -0.50792890183E+02  0.11889983006E+03 -0.37275913836E+03  0.41387384942E+03  0.12500040286E+03 0.  0.
         23    2    1    2    0    0  0.50792890183E+02 -0.11889983006E+03 -0.77510542726E+03  0.79109648230E+03  0.91258608656E+02 0.  0.
        -13    1    4    4    0    0 -0.15671795483E+02 -0.79078698429E+02 -0.37749001699E+03  0.38600229250E+03  0.10566000000E+00 0.  1.
         13    1    4    4    0    0  0.66464685666E+02 -0.39821131635E+02 -0.39761541026E+03  0.40509418980E+03  0.10566000000E+00 0. -1.
    9000005    1    3    3    0    0  0.16832691154E+02  0.17505808785E+01  0.39543893121E+00  0.16957605870E+02  0.10000000000E+01 0.  0.
    9000005    1    3    3    0    0 -0.67625581337E+02  0.11714924919E+03 -0.37315457730E+03  0.39691624355E+03  0.10000000000E+01 0.  0.
<mgrwt>
<rscale>  0 0.17418234E+03</rscale>
<asrwt>0</asrwt>
<pdfrwt beam="2">  1        2 0.18098726E+00 0.17983934E+03</pdfrwt>
<pdfrwt beam="1">  1       -2 0.43927522E-02 0.17983934E+03</pdfrwt>
<totfact> 0.48612649E+03</totfact>
</mgrwt>
</event>
<event>
 8    3  0.7944584E-004  0.1343551E+03  0.7818608E-02  0.1233443E+00
         -2   -1    0    0    0  501 -0.00000000000E+00  0.00000000000E+00  0.31250410705E+03  0.31250410706E+03  0.25500000000E-02 0.  1.
          2   -1    0    0  501    0  0.00000000000E+00 -0.00000000000E+00 -0.51434703703E+02  0.51434703766E+02  0.25500000000E-02 0. -1.
         25    2    1    2    0    0  0.41126337218E+02  0.26828747418E+02  0.20666500150E+03  0.24649892127E+03  0.12506053751E+03 0.  0.
         23    2    1    2    0    0 -0.41126337218E+02 -0.26828747418E+02  0.54404401850E+02  0.11743988955E+03  0.91766722819E+02 0.  0.
        -13    1    4    4    0    0  0.22640727771E+02  0.12664072633E+02  0.27368797719E+02  0.37709992605E+02  0.10566000000E+00 0.  1.
         13    1    4    4    0    0 -0.63767064989E+02 -0.39492820051E+02  0.27035604131E+02  0.79729896950E+02  0.10566000000E+00 0. -1.
    9000005    1    3    3    0    0 -0.27660317806E+02  0.53658888942E+02  0.98533263362E+02  0.11556025931E+03  0.10000000000E+01 0.  0.
    9000005    1    3    3    0    0  0.68786655024E+02 -0.26830141524E+02  0.10813173813E+03  0.13093866196E+03  0.10000000000E+01 0.  0.
<mgrwt>
<rscale>  0 0.12604646E+03</rscale>
<asrwt>0</asrwt>
<pdfrwt beam="2">  1        2 0.79130314E-02 0.13435511E+03</pdfrwt>
<pdfrwt beam="1">  1       -2 0.48077555E-01 0.13435511E+03</pdfrwt>
<totfact> 0.34240696E+03</totfact>
</mgrwt>
</event>
<event>
 8    3  0.7944584E-004  0.1283515E+03  0.7818608E-02  0.1244987E+00
          2   -1    0    0  501    0  0.00000000000E+00  0.00000000000E+00  0.18185773555E+04  0.18185773555E+04  0.25500000000E-02 0. -1.
         -2   -1    0    0    0  501 -0.00000000000E+00 -0.00000000000E+00 -0.68245497067E+01  0.68245501831E+01  0.25500000000E-02 0.  1.
         25    2    1    2    0    0 -0.29111098323E+02  0.96359595243E+00  0.10229571485E+04  0.10309779044E+04  0.12500290814E+03 0.  0.
         23    2    1    2    0    0  0.29111098323E+02 -0.96359595243E+00  0.78879565732E+03  0.79442400135E+03  0.89791538344E+02 0.  0.
        -13    1    4    4    0    0  0.11390800767E+02 -0.47699450304E+01  0.76184802740E+03  0.76194811551E+03  0.10566000000E+00 0. -1.
         13    1    4    4    0    0  0.17720297556E+02  0.38063490780E+01  0.26947629919E+02  0.32475885839E+02  0.10566000000E+00 0.  1.
    9000005    1    3    3    0    0  0.48258385225E+02 -0.10121212653E+02  0.33900941738E+03  0.34257801413E+03  0.10000000000E+01 0.  0.
    9000005    1    3    3    0    0 -0.77369483548E+02  0.11084808606E+02  0.68394773112E+03  0.68839989024E+03  0.10000000000E+01 0.  0.
<mgrwt>
<rscale>  0 0.11886144E+03</rscale>
<asrwt>0</asrwt>
<pdfrwt beam="1">  1        2 0.27978143E+00 0.12835152E+03</pdfrwt>
<pdfrwt beam="2">  1       -2 0.10499296E-02 0.12835152E+03</pdfrwt>
<totfact> 0.17794827E+04</totfact>
</mgrwt>
</event>
<event>
 8    3  0.7944584E-004  0.1655325E+03  0.7818608E-02  0.1189696E+00
          2   -1    0    0  501    0  0.00000000000E+00  0.00000000000E+00  0.14188245365E+04  0.14188245365E+04  0.25500000000E-02 0. -1.
         -2   -1    0    0    0  501 -0.00000000000E+00 -0.00000000000E+00 -0.16752162073E+02  0.16752162267E+02  0.25500000000E-02 0.  1.
         25    2    1    2    0    0  0.68768981557E+01  0.10830009312E+03  0.68581245918E+03  0.70550671299E+03  0.12499916403E+03 0.  0.
         23    2    1    2    0    0 -0.68768981557E+01 -0.10830009312E+03  0.71625991523E+03  0.73006998576E+03  0.90541239510E+02 0.  0.
        -13    1    4    4    0    0 -0.73014717849E+01 -0.62790224893E+02  0.16126063181E+03  0.17320775493E+03  0.10566000000E+00 0.  1.
         13    1    4    4    0    0  0.42457362915E+00 -0.45509868225E+02  0.55499928342E+03  0.55686223084E+03  0.10566000000E+00 0. -1.
    9000005    1    3    3    0    0  0.37382287613E+02  0.11690870811E+03  0.41290343619E+03  0.43076133656E+03  0.10000000000E+01 0.  0.
    9000005    1    3    3    0    0 -0.30505389457E+02 -0.86086149932E+01  0.27290902299E+03  0.27474537643E+03  0.10000000000E+01 0.  0.
<mgrwt>
<rscale>  0 0.15911835E+03</rscale>
<asrwt>0</asrwt>
<pdfrwt beam="1">  1        2 0.21828076E+00 0.16553245E+03</pdfrwt>
<pdfrwt beam="2">  1       -2 0.25772550E-02 0.16553245E+03</pdfrwt>
<totfact> 0.78919627E+03</totfact>
</mgrwt>
</event>
<event>
 8    3  0.7944584E-004  0.1338956E+03  0.7818608E-02  0.1233852E+00
          2   -1    0    0  501    0  0.00000000000E+00  0.00000000000E+00  0.16431614328E+03  0.16431614330E+03  0.25500000000E-02 0. -1.
         -2   -1    0    0    0  501 -0.00000000000E+00 -0.00000000000E+00 -0.86522572361E+02  0.86522572398E+02  0.25500000000E-02 0.  1.
         25    2    1    2    0    0  0.47424934183E+02  0.74241952374E+01  0.49977822394E+02  0.14291894645E+03  0.12499519777E+03 0.  0.
         23    2    1    2    0    0 -0.47424934183E+02 -0.74241952374E+01  0.27815748529E+02  0.10791976925E+03  0.92567368290E+02 0.  0.
        -13    1    4    4    0    0  0.11724593019E+01 -0.98098298945E+01 -0.30448303676E+02  0.32011213413E+02  0.10566000000E+00 0.  1.
         13    1    4    4    0    0 -0.48597393485E+02  0.23856346571E+01  0.58264052205E+02  0.75908555840E+02  0.10566000000E+00 0. -1.
    9000005    1    3    3    0    0  0.25167151581E+02 -0.58307853696E+02  0.15298226165E+02  0.65331669542E+02  0.10000000000E+01 0.  0.
    9000005    1    3    3    0    0  0.22257782602E+02  0.65732048933E+02  0.34679596229E+02  0.77587276907E+02  0.10000000000E+01 0.  0.
<mgrwt>
<rscale>  0 0.12578194E+03</rscale>
<asrwt>0</asrwt>
<pdfrwt beam="1">  1        2 0.25279406E-01 0.13389564E+03</pdfrwt>
<pdfrwt beam="2">  1       -2 0.13311165E-01 0.13389564E+03</pdfrwt>
<totfact> 0.83684652E+03</totfact>
</mgrwt>
</event>
<event>
 8    3  0.7944584E-004  0.1609938E+03  0.7818608E-02  0.1194801E+00
         -2   -1    0    0    0  501 -0.00000000000E+00  0.00000000000E+00  0.44327243032E+02  0.44327243105E+02  0.25500000000E-02 0.  1.
          2   -1    0    0  501    0  0.00000000000E+00 -0.00000000000E+00 -0.51689255250E+03  0.51689255251E+03  0.25500000000E-02 0. -1.
         25    2    1    2    0    0 -0.83280290754E+02 -0.57956031673E+02 -0.20673374057E+03  0.26202641037E+03  0.12499796719E+03 0.  0.
         23    2    1    2    0    0  0.83280290754E+02  0.57956031673E+02 -0.26583156890E+03  0.29919338525E+03  0.92497298977E+02 0.  0.
        -13    1    4    4    0    0 -0.14055452145E+02 -0.57978135607E+01 -0.68012458446E+02  0.69691291027E+02  0.10566000000E+00 0.  1.
         13    1    4    4    0    0  0.97335742899E+02  0.63753845234E+02 -0.19781911045E+03  0.22950209422E+03  0.10566000000E+00 0. -1.
    9000005    1    3    3    0    0 -0.86932183299E+02  0.13974219836E+02 -0.12743874763E+03  0.15490034768E+03  0.10000000000E+01 0.  0.
    9000005    1    3    3    0    0  0.36518925457E+01 -0.71930251509E+02 -0.79294992945E+02  0.10712606269E+03  0.10000000000E+01 0.  0.
<mgrwt>
<rscale>  0 0.15471111E+03</rscale>
<asrwt>0</asrwt>
<pdfrwt beam="2">  1        2 0.79521927E-01 0.16099379E+03</pdfrwt>
<pdfrwt beam="1">  1       -2 0.68195762E-02 0.16099379E+03</pdfrwt>
<totfact> 0.70451388E+03</totfact>
</mgrwt>
</event>
<event>
 8    3  0.7944584E-004  0.1578351E+03  0.7818608E-02  0.1199160E+00
         -2   -1    0    0    0  501 -0.00000000000E+00  0.00000000000E+00  0.50923277776E+02  0.50923277840E+02  0.25500000000E-02 0.  1.
          2   -1    0    0  501    0  0.00000000000E+00 -0.00000000000E+00 -0.48477072580E+03  0.48477072581E+03  0.25500000000E-02 0. -1.
         25    2    1    2    0    0  0.44032123581E+02 -0.85719070789E+02 -0.13092117086E+03  0.20506648848E+03  0.12500129886E+03 0.  0.
         23    2    1    2    0    0 -0.44032123581E+02  0.85719070789E+02 -0.30292627717E+03  0.33062751517E+03  0.90904550933E+02 0.  0.
        -13    1    4    4    0    0 -0.44131893790E+02  0.19385288074E+02 -0.51249630278E+02  0.70355875454E+02  0.10566000000E+00 0.  1.
         13    1    4    4    0    0  0.99770208279E-01  0.66333782714E+02 -0.25167664689E+03  0.26027163971E+03  0.10566000000E+00 0. -1.
    9000005    1    3    3    0    0  0.78699979559E+02 -0.64871231135E+02 -0.12914139056E+03  0.16456142369E+03  0.10000000000E+01 0.  0.
    9000005    1    3    3    0    0 -0.34667855977E+02 -0.20847839654E+02 -0.17797803014E+01  0.40505064797E+02  0.10000000000E+01 0.  0.
<mgrwt>
<rscale>  0 0.15107339E+03</rscale>
<asrwt>0</asrwt>
<pdfrwt beam="2">  1        2 0.74580108E-01 0.15783508E+03</pdfrwt>
<pdfrwt beam="1">  1       -2 0.78343508E-02 0.15783508E+03</pdfrwt>
<totfact> 0.61005405E+03</totfact>
</mgrwt>
</event>
<event>
 8    3  0.7944584E-004  0.1268352E+03  0.7818608E-02  0.1249619E+00
          2   -1    0    0  501    0  0.00000000000E+00  0.00000000000E+00  0.17095107379E+04  0.17095107379E+04  0.25500000000E-02 0.  1.
         -2   -1    0    0    0  501 -0.00000000000E+00 -0.00000000000E+00 -0.78017891593E+01  0.78017895760E+01  0.25500000000E-02 0. -1.
         25    2    1    2    0    0 -0.27757962415E+01  0.21321515296E+02  0.68040799518E+03  0.69212875612E+03  0.12499945236E+03 0.  0.
         23    2    1    2    0    0  0.27757962415E+01 -0.21321515296E+02  0.10213009535E+04  0.10251837713E+04  0.86509047175E+02 0.  0.
        -13    1    4    4    0    0  0.32683023276E+01 -0.51730644851E+02  0.43200295779E+03  0.43510149175E+03  0.10566000000E+00 0. -1.
         13    1    4    4    0    0 -0.49250608613E+00  0.30409129555E+02  0.58929799574E+03  0.59008227958E+03  0.10566000000E+00 0.  1.
    9000005    1    3    3    0    0  0.15800942778E+02 -0.49766155932E+02  0.32912575549E+03  0.33324330901E+03  0.10000000000E+01 0.  0.
    9000005    1    3    3    0    0 -0.18576739019E+02  0.71087671228E+02  0.35128223968E+03  0.35888544711E+03  0.10000000000E+01 0.  0.
<mgrwt>
<rscale>  0 0.11613132E+03</rscale>
<asrwt>0</asrwt>
<pdfrwt beam="1">  1        2 0.26300209E+00 0.12683523E+03</pdfrwt>
<pdfrwt beam="2">  1       -2 0.12002733E-02 0.12683523E+03</pdfrwt>
<totfact> 0.16689350E+04</totfact>
</mgrwt>
</event>
<event>
 8    3  0.7944584E-004  0.1257811E+03  0.7818608E-02  0.1250372E+00
         -2   -1    0    0    0  501 -0.00000000000E+00  0.00000000000E+00  0.31844599959E+03  0.31844599960E+03  0.25500000000E-02 0.  1.
          2   -1    0    0  501    0  0.00000000000E+00 -0.00000000000E+00 -0.39519212709E+02  0.39519212791E+02  0.25500000000E-02 0. -1.
         25    2    1    2    0    0 -0.58599150406E+01  0.12743711939E+02  0.20913948697E+03  0.24404959815E+03  0.12499656215E+03 0.  0.
         23    2    1    2    0    0  0.58599150406E+01 -0.12743711939E+02  0.69787299908E+02  0.11391561424E+03  0.88936826680E+02 0.  0.
        -13    1    4    4    0    0 -0.15597242317E+01 -0.65566581706E+01 -0.21287830239E+02  0.22329473490E+02  0.10566000000E+00 0. -1.
         13    1    4    4    0    0  0.74196392724E+01 -0.61870537688E+01  0.91075130147E+02  0.91586140745E+02  0.10566000000E+00 0.  1.
    9000005    1    3    3    0    0 -0.54750417080E+02  0.21319627597E+02  0.17281596282E+03  0.18253353582E+03  0.10000000000E+01 0.  0.
    9000005    1    3    3    0    0  0.48890502039E+02 -0.85759156575E+01  0.36323524149E+02  0.61516062338E+02  0.10000000000E+01 0.  0.
<mgrwt>
<rscale>  0 0.11569529E+03</rscale>
<asrwt>0</asrwt>
<pdfrwt beam="2">  1        2 0.60798789E-02 0.12578109E+03</pdfrwt>
<pdfrwt beam="1">  1       -2 0.48991692E-01 0.12578109E+03</pdfrwt>
<totfact> 0.45897821E+03</totfact>
</mgrwt>
</event>
<event>
 8    3  0.7944584E-004  0.1316228E+03  0.7818608E-02  0.1238216E+00
         -2   -1    0    0    0  501 -0.00000000000E+00  0.00000000000E+00  0.16491909042E+03  0.16491909044E+03  0.25500000000E-02 0.  1.
          2   -1    0    0  501    0  0.00000000000E+00 -0.00000000000E+00 -0.90706543145E+02  0.90706543181E+02  0.25500000000E-02 0. -1.
         25    2    1    2    0    0 -0.68086258231E+01 -0.40699077244E+02  0.14492453839E+01  0.13163076912E+03  0.12498714651E+03 0.  0.
         23    2    1    2    0    0  0.68086258231E+01  0.40699077244E+02  0.72763301887E+02  0.12399486449E+03  0.91528443912E+02 0.  0.
        -13    1    4    4    0    0  0.21976893903E+02  0.55201916309E+02  0.81836826352E+02  0.10113116602E+03  0.10566000000E+00 0.  1.
         13    1    4    4    0    0 -0.15168268080E+02 -0.14502839065E+02 -0.90735244649E+01  0.22863698470E+02  0.10566000000E+00 0. -1.
    9000005    1    3    3    0    0  0.36141821302E+02 -0.75382193262E+00 -0.44336736108E+02  0.57214907701E+02  0.10000000000E+01 0.  0.
    9000005    1    3    3    0    0 -0.42950447125E+02 -0.39945255312E+02  0.45785981492E+02  0.74415861423E+02  0.10000000000E+01 0.  0.
<mgrwt>
<rscale>  0 0.12300765E+03</rscale>
<asrwt>0</asrwt>
<pdfrwt beam="2">  1        2 0.13954853E-01 0.13162279E+03</pdfrwt>
<pdfrwt beam="1">  1       -2 0.25372168E-01 0.13162279E+03</pdfrwt>
<totfact> 0.55809449E+03</totfact>
</mgrwt>
</event>
<event>
 8    3  0.7944584E-004  0.3472217E+03  0.7818608E-02  0.1064876E+00
         -2   -1    0    0    0  501 -0.00000000000E+00  0.00000000000E+00  0.14836362289E+03  0.14836362291E+03  0.25500000000E-02 0.  1.
          2   -1    0    0  501    0  0.00000000000E+00 -0.00000000000E+00 -0.82478728253E+03  0.82478728253E+03  0.25500000000E-02 0. -1.
         25    2    1    2    0    0  0.44103605883E+01  0.32391261448E+03 -0.44588233271E+03  0.56513182587E+03  0.12499637151E+03 0.  0.
         23    2    1    2    0    0 -0.44103605883E+01 -0.32391261448E+03 -0.23054132693E+03  0.40801907957E+03  0.91604763909E+02 0.  0.
        -13    1    4    4    0    0  0.32544212865E+02 -0.26552027993E+03 -0.18556338440E+03  0.32556708316E+03  0.10566000000E+00 0.  1.
         13    1    4    4    0    0 -0.36954573454E+02 -0.58392334551E+02 -0.44977942530E+02  0.82451996408E+02  0.10566000000E+00 0. -1.
    9000005    1    3    3    0    0 -0.22307326188E+02  0.96667947789E+02 -0.23028564077E+03  0.25074845019E+03  0.10000000000E+01 0.  0.
    9000005    1    3    3    0    0  0.26717686777E+02  0.22724466669E+03 -0.21559669194E+03  0.31438337568E+03  0.10000000000E+01 0.  0.
<mgrwt>
<rscale>  0 0.34454695E+03</rscale>
<asrwt>0</asrwt>
<pdfrwt beam="2">  1        2 0.12689035E+00 0.34722172E+03</pdfrwt>
<pdfrwt beam="1">  1       -2 0.22825173E-01 0.34722172E+03</pdfrwt>
<totfact> 0.56975576E+02</totfact>
</mgrwt>
</event>
<event>
 8    3  0.7944584E-004  0.1317910E+03  0.7818608E-02  0.1238957E+00
          2   -1    0    0  501    0  0.00000000000E+00  0.00000000000E+00  0.13873932341E+04  0.13873932341E+04  0.25500000000E-02 0.  1.
         -2   -1    0    0    0  501 -0.00000000000E+00 -0.00000000000E+00 -0.10103544611E+02  0.10103544933E+02  0.25500000000E-02 0. -1.
         25    2    1    2    0    0 -0.12997446232E+02  0.39779716278E+02  0.62201128434E+03  0.63581986568E+03  0.12497001364E+03 0.  0.
         23    2    1    2    0    0  0.12997446232E+02 -0.39779716278E+02  0.75527840511E+03  0.76167691332E+03  0.89190199118E+02 0.  0.
        -13    1    4    4    0    0  0.49748071508E+02 -0.12773544260E+02  0.46656771769E+03  0.46938628059E+03  0.10566000000E+00 0. -1.
         13    1    4    4    0    0 -0.36750625276E+02 -0.27006172019E+02  0.28871068742E+03  0.29229063273E+03  0.10566000000E+00 0.  1.
    9000005    1    3    3    0    0 -0.62099305610E+02  0.10474524475E+02  0.19309803029E+03  0.20311053327E+03  0.10000000000E+01 0.  0.
    9000005    1    3    3    0    0  0.49101859378E+02  0.29305191804E+02  0.42891325404E+03  0.43270933241E+03  0.10000000000E+01 0.  0.
<mgrwt>
<rscale>  0 0.12254503E+03</rscale>
<asrwt>0</asrwt>
<pdfrwt beam="1">  1        2 0.21344493E+00 0.13179099E+03</pdfrwt>
<pdfrwt beam="2">  1       -2 0.15543928E-02 0.13179099E+03</pdfrwt>
<totfact> 0.16934951E+04</totfact>
</mgrwt>
</event>
<event>
 8    3  0.7944584E-004  0.1269868E+03  0.7818608E-02  0.1247399E+00
          2   -1    0    0  501    0  0.00000000000E+00  0.00000000000E+00  0.20809256296E+04  0.20809256296E+04  0.25500000000E-02 0. -1.
         -2   -1    0    0    0  501 -0.00000000000E+00 -0.00000000000E+00 -0.61951469068E+01  0.61951474316E+01  0.25500000000E-02 0.  1.
         25    2    1    2    0    0  0.22339349985E+02  0.12438517159E+01  0.14466426896E+04  0.14522054653E+04  0.12500019402E+03 0.  0.
         23    2    1    2    0    0 -0.22339349985E+02 -0.12438517159E+01  0.62808779308E+03  0.63491531167E+03  0.90125376265E+02 0.  0.
        -13    1    4    4    0    0 -0.14653023963E+02  0.31725796531E+02  0.10358466630E+03  0.10932077356E+03  0.10566000000E+00 0.  1.
         13    1    4    4    0    0 -0.76863260224E+01 -0.32969648247E+02  0.52450312678E+03  0.52559453810E+03  0.10566000000E+00 0. -1.
    9000005    1    3    3    0    0 -0.44036086199E+02 -0.47386440202E+01  0.26442999933E+03  0.26811537848E+03  0.10000000000E+01 0.  0.
    9000005    1    3    3    0    0  0.66375436184E+02  0.59824957361E+01  0.11822126902E+04  0.11840900868E+04  0.10000000000E+01 0.  0.
<mgrwt>
<rscale>  0 0.11742952E+03</rscale>
<asrwt>0</asrwt>
<pdfrwt beam="1">  1        2 0.32014268E+00 0.12698678E+03</pdfrwt>
<pdfrwt beam="2">  1       -2 0.95309874E-03 0.12698678E+03</pdfrwt>
<totfact> 0.15006613E+04</totfact>
</mgrwt>
</event>
<event>
 8    3  0.7944584E-004  0.4711054E+03  0.7818608E-02  0.1022157E+00
          2   -1    0    0  501    0  0.00000000000E+00  0.00000000000E+00  0.11028101376E+04  0.11028101376E+04  0.25500000000E-02 0. -1.
         -2   -1    0    0    0  501 -0.00000000000E+00 -0.00000000000E+00 -0.20016951684E+03  0.20016951685E+03  0.25500000000E-02 0.  1.
         25    2    1    2    0    0  0.22396887991E+03  0.39516174299E+03  0.52342265614E+03  0.70420990889E+03  0.12500182610E+03 0.  0.
         23    2    1    2    0    0 -0.22396887991E+03 -0.39516174299E+03  0.37921796465E+03  0.59876974559E+03  0.91673776120E+02 0.  0.
        -13    1    4    4    0    0 -0.46554005676E+01 -0.75800516488E+02  0.60113533783E+02  0.96855764734E+02  0.10566000000E+00 0. -1.
         13    1    4    4    0    0 -0.21931347935E+03 -0.31936122650E+03  0.31910443087E+03  0.50191398086E+03  0.10566000000E+00 0.  1.
    9000005    1    3    3    0    0  0.21625896090E+03  0.39765685340E+03  0.52749091145E+03  0.69508745701E+03  0.10000000000E+01 0.  0.
    9000005    1    3    3    0    0  0.77099190162E+01 -0.24951104115E+01 -0.40682553061E+01  0.91224518874E+01  0.10000000000E+01 0.  0.
<mgrwt>
<rscale>  0 0.46916151E+03</rscale>
<asrwt>0</asrwt>
<pdfrwt beam="1">  1        2 0.16966310E+00 0.47110542E+03</pdfrwt>
<pdfrwt beam="2">  1       -2 0.30795311E-01 0.47110542E+03</pdfrwt>
<totfact> 0.21856173E+02</totfact>
</mgrwt>
</event>
<event>
 8    3  0.7944584E-004  0.2435794E+03  0.7818608E-02  0.1120303E+00
         -2   -1    0    0    0  501 -0.00000000000E+00  0.00000000000E+00  0.30102867359E+03  0.30102867360E+03  0.25500000000E-02 0.  1.
          2   -1    0    0  501    0  0.00000000000E+00 -0.00000000000E+00 -0.18393342971E+03  0.18393342972E+03  0.25500000000E-02 0. -1.
         25    2    1    2    0    0 -0.16400650262E+02  0.20841477798E+03  0.51032544178E+02  0.24886796904E+03  0.12500097775E+03 0.  0.
         23    2    1    2    0    0  0.16400650262E+02 -0.20841477798E+03  0.66062699705E+02  0.23609413429E+03  0.87581156321E+02 0.  0.
        -13    1    4    4    0    0 -0.67421573801E+01 -0.87887200290E+02 -0.14436806414E+02  0.89319926134E+02  0.10566000000E+00 0. -1.
         13    1    4    4    0    0  0.23142807642E+02 -0.12052757769E+03  0.80499506119E+02  0.14677420815E+03  0.10566000000E+00 0.  1.
    9000005    1    3    3    0    0  0.44328018967E+02  0.28768496522E+02  0.20977325538E+02  0.56865172508E+02  0.10000000000E+01 0.  0.
    9000005    1    3    3    0    0 -0.60728669228E+02  0.17964628146E+03  0.30055218639E+02  0.19200279653E+03  0.10000000000E+01 0.  0.
<mgrwt>
<rscale>  0 0.23923553E+03</rscale>
<asrwt>0</asrwt>
<pdfrwt beam="2">  1        2 0.28297451E-01 0.24357944E+03</pdfrwt>
<pdfrwt beam="1">  1       -2 0.46312103E-01 0.24357944E+03</pdfrwt>
<totfact> 0.83749783E+02</totfact>
</mgrwt>
</event>
<event>
 8    3  0.7944584E-004  0.1644102E+03  0.7818608E-02  0.1191008E+00
          2   -1    0    0  501    0  0.00000000000E+00  0.00000000000E+00  0.13871302927E+03  0.13871302929E+03  0.25500000000E-02 0.  1.
         -2   -1    0    0    0  501 -0.00000000000E+00 -0.00000000000E+00 -0.17037763404E+03  0.17037763406E+03  0.25500000000E-02 0. -1.
         25    2    1    2    0    0  0.56958612536E+02  0.90343873855E+02 -0.38293000793E+02  0.16881078759E+03  0.12499771602E+03 0.  0.
         23    2    1    2    0    0 -0.56958612536E+02 -0.90343873855E+02  0.66283960246E+01  0.14027987576E+03  0.90709474836E+02 0.  0.
        -13    1    4    4    0    0 -0.36998655098E+02 -0.58261911735E+02 -0.40385194329E+02  0.79964529156E+02  0.10566000000E+00 0. -1.
         13    1    4    4    0    0 -0.19959957438E+02 -0.32081962120E+02  0.47013590354E+02  0.60315346607E+02  0.10566000000E+00 0.  1.
    9000005    1    3    3    0    0  0.57665467047E+02 -0.14479599348E+02 -0.10824753188E+02  0.60441212501E+02  0.10000000000E+01 0.  0.
    9000005    1    3    3    0    0 -0.70685451082E+00  0.10482347320E+03 -0.27468247604E+02  0.10836957508E+03  0.10000000000E+01 0.  0.
<mgrwt>
<rscale>  0 0.15796983E+03</rscale>
<asrwt>0</asrwt>
<pdfrwt beam="1">  1        2 0.21340466E-01 0.16441024E+03</pdfrwt>
<pdfrwt beam="2">  1       -2 0.26211944E-01 0.16441024E+03</pdfrwt>
<totfact> 0.32718318E+03</totfact>
</mgrwt>
</event>
<event>
 8    3  0.7944584E-004  0.1784125E+03  0.7818608E-02  0.1174685E+00
         -2   -1    0    0    0  501 -0.00000000000E+00  0.00000000000E+00  0.24727073747E+03  0.24727073748E+03  0.25500000000E-02 0.  1.
          2   -1    0    0  501    0  0.00000000000E+00 -0.00000000000E+00 -0.11442968119E+03  0.11442968122E+03  0.25500000000E-02 0. -1.
         25    2    1    2    0    0 -0.12689979527E+03  0.10171677402E+02  0.68021680567E+02  0.19093968450E+03  0.12499597206E+03 0.  0.
         23    2    1    2    0    0  0.12689979527E+03 -0.10171677402E+02  0.64819375716E+02  0.17076073420E+03  0.93544940081E+02 0.  0.
        -13    1    4    4    0    0  0.11548405519E+03  0.26874611058E+02  0.55364783873E+02  0.13085901642E+03  0.10566000000E+00 0.  1.
         13    1    4    4    0    0  0.11415740080E+02 -0.37046288460E+02  0.94545918424E+01  0.39901717772E+02  0.10566000000E+00 0. -1.
    9000005    1    3    3    0    0 -0.67070356582E+02 -0.47518639916E+02 -0.20443297794E+01  0.82229150280E+02  0.10000000000E+01 0.  0.
    9000005    1    3    3    0    0 -0.59829438685E+02  0.57690317318E+02  0.70066010346E+02  0.10871053423E+03  0.10000000000E+01 0.  0.
<mgrwt>
<rscale>  0 0.17306907E+03</rscale>
<asrwt>0</asrwt>
<pdfrwt beam="2">  1        2 0.17604567E-01 0.17841248E+03</pdfrwt>
<pdfrwt beam="1">  1       -2 0.38041651E-01 0.17841248E+03</pdfrwt>
<totfact> 0.20745266E+03</totfact>
</mgrwt>
</event>
<event>
 8    3  0.7944584E-004  0.1715174E+03  0.7818608E-02  0.1182571E+00
          2   -1    0    0  501    0  0.00000000000E+00  0.00000000000E+00  0.12997015433E+04  0.12997015433E+04  0.25500000000E-02 0. -1.
         -2   -1    0    0    0  501 -0.00000000000E+00 -0.00000000000E+00 -0.19743275545E+02  0.19743275710E+02  0.25500000000E-02 0.  1.
         25    2    1    2    0    0 -0.75939766653E+02  0.89590090040E+02  0.68351145702E+03  0.70470286291E+03  0.12499992292E+03 0.  0.
         23    2    1    2    0    0  0.75939766653E+02 -0.89590090040E+02  0.59644681073E+03  0.61474195610E+03  0.91463884446E+02 0.  0.
        -13    1    4    4    0    0  0.33135048756E+02 -0.97129798846E+02  0.46868962493E+03  0.47979381505E+03  0.10566000000E+00 0.  1.
         13    1    4    4    0    0  0.42804717897E+02  0.75397088064E+01  0.12775718581E+03  0.13494814105E+03  0.10566000000E+00 0. -1.
    9000005    1    3    3    0    0 -0.53530883569E+02 -0.17571806651E+02  0.32491540584E+03  0.32976559074E+03  0.10000000000E+01 0.  0.
    9000005    1    3    3    0    0 -0.22408883084E+02  0.10716189669E+03  0.35859605118E+03  0.37493727218E+03  0.10000000000E+01 0.  0.
<mgrwt>
<rscale>  0 0.16554824E+03</rscale>
<asrwt>0</asrwt>
<pdfrwt beam="1">  1        2 0.19995410E+00 0.17151738E+03</pdfrwt>
<pdfrwt beam="2">  1       -2 0.30374268E-02 0.17151738E+03</pdfrwt>
<totfact> 0.71877958E+03</totfact>
</mgrwt>
</event>
<event>
 8    3  0.7944584E-004  0.1302499E+03  0.7818608E-02  0.1240110E+00
         -2   -1    0    0    0  501 -0.00000000000E+00  0.00000000000E+00  0.37352223300E+02  0.37352223387E+02  0.25500000000E-02 0.  1.
          2   -1    0    0  501    0  0.00000000000E+00 -0.00000000000E+00 -0.38552712507E+03  0.38552712508E+03  0.25500000000E-02 0. -1.
         25    2    1    2    0    0  0.26595787160E+02  0.25142400861E+02 -0.13524425149E+03  0.18776594568E+03  0.12500226631E+03 0.  0.
         23    2    1    2    0    0 -0.26595787160E+02 -0.25142400861E+02 -0.21293065028E+03  0.23511340278E+03  0.92732810391E+02 0.  0.
        -13    1    4    4    0    0 -0.20840676626E+02  0.26276354823E+02 -0.14970530087E+03  0.15341599949E+03  0.10566000000E+00 0. -1.
         13    1    4    4    0    0 -0.57551105345E+01 -0.51418755684E+02 -0.63225349406E+02  0.81697403293E+02  0.10566000000E+00 0.  1.
    9000005    1    3    3    0    0  0.68436629306E+02  0.29724291331E+02 -0.42407902584E+02  0.85828526303E+02  0.10000000000E+01 0.  0.
    9000005    1    3    3    0    0 -0.41840842146E+02 -0.45818904696E+01 -0.92836348907E+02  0.10193741938E+03  0.10000000000E+01 0.  0.
<mgrwt>
<rscale>  0 0.12182885E+03</rscale>
<asrwt>0</asrwt>
<pdfrwt beam="2">  1        2 0.59311863E-01 0.13024992E+03</pdfrwt>
<pdfrwt beam="1">  1       -2 0.57464962E-02 0.13024992E+03</pdfrwt>
<totfact> 0.12389592E+04</totfact>
</mgrwt>
</event>
<event>
 8    3  0.7944584E-004  0.1595603E+03  0.7818608E-02  0.1197323E+00
          2   -1    0    0  501    0  0.00000000000E+00  0.00000000000E+00  0.53448067722E+03  0.53448067723E+03  0.25500000000E-02 0. -1.
         -2   -1    0    0    0  501 -0.00000000000E+00 -0.00000000000E+00 -0.45503595243E+02  0.45503595315E+02  0.25500000000E-02 0.  1.
         25    2    1    2    0    0  0.47462041316E+02  0.87072053630E+02  0.36271615833E+03  0.39626063963E+03  0.12500118044E+03 0.  0.
         23    2    1    2    0    0 -0.47462041316E+02 -0.87072053630E+02  0.12626092365E+03  0.18372363292E+03  0.89321691450E+02 0.  0.
        -13    1    4    4    0    0 -0.30045659786E+02 -0.22213687669E+02 -0.35867904424E+01  0.37537525512E+02  0.10566000000E+00 0.  1.
         13    1    4    4    0    0 -0.17416381530E+02 -0.64858365961E+02  0.12984771409E+03  0.14618610741E+03  0.10566000000E+00 0. -1.
    9000005    1    3    3    0    0  0.20326398627E+02  0.11650924541E+03  0.24810587305E+03  0.27485467249E+03  0.10000000000E+01 0.  0.
    9000005    1    3    3    0    0  0.27135642689E+02 -0.29437191776E+02  0.11461028529E+03  0.12140596714E+03  0.10000000000E+01 0.  0.
<mgrwt>
<rscale>  0 0.15259291E+03</rscale>
<asrwt>0</asrwt>
<pdfrwt beam="1">  1        2 0.82227797E-01 0.15956028E+03</pdfrwt>
<pdfrwt beam="2">  1       -2 0.70005531E-02 0.15956028E+03</pdfrwt>
<totfact> 0.65165294E+03</totfact>
</mgrwt>
</event>
<event>
 8    3  0.7944584E-004  0.1264454E+03  0.7818608E-02  0.1248076E+00
         -2   -1    0    0    0  501 -0.00000000000E+00  0.00000000000E+00  0.14240572276E+02  0.14240572504E+02  0.25500000000E-02 0.  1.
          2   -1    0    0  501    0  0.00000000000E+00 -0.00000000000E+00 -0.10650904907E+04  0.10650904907E+04  0.25500000000E-02 0. -1.
         25    2    1    2    0    0  0.14034506613E+02  0.12871573906E+02 -0.34563778996E+03  0.36804065012E+03  0.12500317396E+03 0.  0.
         23    2    1    2    0    0 -0.14034506613E+02 -0.12871573906E+02 -0.70521212851E+03  0.71129041313E+03  0.90814430735E+02 0.  0.
        -13    1    4    4    0    0  0.27217597580E+02  0.13468782303E+02 -0.11141417787E+03  0.11547872493E+03  0.10566000000E+00 0.  1.
         13    1    4    4    0    0 -0.41252104192E+02 -0.26340356209E+02 -0.59379795063E+03  0.59581168821E+03  0.10566000000E+00 0. -1.
    9000005    1    3    3    0    0  0.37727168003E+02  0.48831232082E+02 -0.29579147937E+03  0.30216126109E+03  0.10000000000E+01 0.  0.
    9000005    1    3    3    0    0 -0.23692661390E+02 -0.35959658176E+02 -0.49846310587E+02  0.65879389031E+02  0.10000000000E+01 0.  0.
<mgrwt>
<rscale>  0 0.11703131E+03</rscale>
<asrwt>0</asrwt>
<pdfrwt beam="2">  1        2 0.16386001E+00 0.12644540E+03</pdfrwt>
<pdfrwt beam="1">  1       -2 0.21908581E-02 0.12644540E+03</pdfrwt>
<totfact> 0.15459115E+04</totfact>
</mgrwt>
</event>
<event>
 8    3  0.7944584E-004  0.1700368E+03  0.7818608E-02  0.1184180E+00
         -2   -1    0    0    0  501 -0.00000000000E+00  0.00000000000E+00  0.12875659908E+02  0.12875660161E+02  0.25500000000E-02 0.  1.
          2   -1    0    0  501    0  0.00000000000E+00 -0.00000000000E+00 -0.20058192879E+04  0.20058192879E+04  0.25500000000E-02 0. -1.
         25    2    1    2    0    0  0.18646536751E+02  0.11375606724E+03 -0.90773604594E+03  0.92352435890E+03  0.12499750483E+03 0.  0.
         23    2    1    2    0    0 -0.18646536751E+02 -0.11375606724E+03 -0.10852075820E+04  0.10951705891E+04  0.91842185611E+02 0.  0.
        -13    1    4    4    0    0 -0.40460905984E+02 -0.50851562216E+02 -0.29054075586E+03  0.29771951275E+03  0.10566000000E+00 0.  1.
         13    1    4    4    0    0  0.21814369233E+02 -0.62904505025E+02 -0.79466682617E+03  0.79745107639E+03  0.10566000000E+00 0. -1.
    9000005    1    3    3    0    0  0.65240690389E+02  0.49508830530E+02 -0.60657529351E+03  0.61208010805E+03  0.10000000000E+01 0.  0.
    9000005    1    3    3    0    0 -0.46594153638E+02  0.64247236710E+02 -0.30116075243E+03  0.31144425085E+03  0.10000000000E+01 0.  0.
<mgrwt>
<rscale>  0 0.16406747E+03</rscale>
<asrwt>0</asrwt>
<pdfrwt beam="2">  1        2 0.30858733E+00 0.17003680E+03</pdfrwt>
<pdfrwt beam="1">  1       -2 0.19808724E-02 0.17003680E+03</pdfrwt>
<totfact> 0.57553312E+03</totfact>
</mgrwt>
</event>
<event>
 8    3  0.7944584E-004  0.1359030E+03  0.7818608E-02  0.1230486E+00
         -2   -1    0    0    0  501 -0.00000000000E+00  0.00000000000E+00  0.25013072635E+02  0.25013072765E+02  0.25500000000E-02 0.  1.
          2   -1    0    0  501    0  0.00000000000E+00 -0.00000000000E+00 -0.60122603797E+03  0.60122603798E+03  0.25500000000E-02 0. -1.
         25    2    1    2    0    0  0.90312820243E+01  0.52574379811E+02 -0.27769352454E+03  0.30916552697E+03  0.12499600005E+03 0.  0.
         23    2    1    2    0    0 -0.90312820243E+01 -0.52574379811E+02 -0.29851944080E+03  0.31707358377E+03  0.92607621304E+02 0.  0.
        -13    1    4    4    0    0  0.11500686050E+02 -0.65564322614E+01  0.10643436781E+01  0.13281437239E+02  0.10566000000E+00 0.  1.
         13    1    4    4    0    0 -0.20531968075E+02 -0.46017947550E+02 -0.29958378447E+03  0.30379214653E+03  0.10566000000E+00 0. -1.
    9000005    1    3    3    0    0  0.54056136342E+02  0.39001454325E+02 -0.71837705067E+02  0.98004261055E+02  0.10000000000E+01 0.  0.
    9000005    1    3    3    0    0 -0.45024854318E+02  0.13572925486E+02 -0.20585581947E+03  0.21116126592E+03  0.10000000000E+01 0.  0.
<mgrwt>
<rscale>  0 0.12797898E+03</rscale>
<asrwt>0</asrwt>
<pdfrwt beam="2">  1        2 0.92496303E-01 0.13590302E+03</pdfrwt>
<pdfrwt beam="1">  1       -2 0.38481655E-02 0.13590302E+03</pdfrwt>
<totfact> 0.13929212E+04</totfact>
</mgrwt>
</event>
<event>
 8    3  0.7944584E-004  0.1393965E+03  0.7818608E-02  0.1218080E+00
         -2   -1    0    0    0  501 -0.00000000000E+00  0.00000000000E+00  0.36108767941E+02  0.36108768031E+02  0.25500000000E-02 0.  1.
          2   -1    0    0  501    0  0.00000000000E+00 -0.00000000000E+00 -0.55587254062E+03  0.55587254063E+03  0.25500000000E-02 0. -1.
         25    2    1    2    0    0  0.54439987745E+02 -0.29032422427E+02 -0.36656652560E+03  0.39217650172E+03  0.12499918796E+03 0.  0.
         23    2    1    2    0    0 -0.54439987745E+02  0.29032422427E+02 -0.15319724708E+03  0.19980480694E+03  0.11245430426E+03 0.  0.
        -13    1    4    4    0    0 -0.85053471644E+02  0.27198445828E+02 -0.14079256771E+03  0.16672254431E+03  0.10566000000E+00 0. -1.
         13    1    4    4    0    0  0.30613483899E+02  0.18339765988E+01 -0.12404679372E+02  0.33082262633E+02  0.10566000000E+00 0.  1.
    9000005    1    3    3    0    0  0.52088349840E+02 -0.71918459636E+02 -0.30068184557E+03  0.31352198214E+03  0.10000000000E+01 0.  0.
    9000005    1    3    3    0    0  0.23516379052E+01  0.42886037209E+02 -0.65884680024E+02  0.78654519579E+02  0.10000000000E+01 0.  0.
<mgrwt>
<rscale>  0 0.13652688E+03</rscale>
<asrwt>0</asrwt>
<pdfrwt beam="2">  1        2 0.85518846E-01 0.13939652E+03</pdfrwt>
<pdfrwt beam="1">  1       -2 0.55551955E-02 0.13939652E+03</pdfrwt>
<totfact> 0.88004358E+03</totfact>
</mgrwt>
</event>
<event>
 8    3  0.7944584E-004  0.1372933E+03  0.7818608E-02  0.1228790E+00
         -2   -1    0    0    0  501 -0.00000000000E+00  0.00000000000E+00  0.67691324165E+01  0.67691328968E+01  0.25500000000E-02 0. -1.
          2   -1    0    0  501    0  0.00000000000E+00 -0.00000000000E+00 -0.22832439122E+04  0.22832439122E+04  0.25500000000E-02 0.  1.
         25    2    1    2    0    0  0.28925251532E+02 -0.48855283692E+02 -0.14759764628E+04  0.14823481310E+04  0.12500381415E+03 0.  0.
         23    2    1    2    0    0 -0.28925251532E+02  0.48855283692E+02 -0.80049831695E+03  0.80766491416E+03  0.91112837712E+02 0.  0.
        -13    1    4    4    0    0 -0.41998702814E+02 -0.11626741870E+02 -0.25874292520E+03  0.26238708937E+03  0.10566000000E+00 0.  1.
         13    1    4    4    0    0  0.13073451282E+02  0.60482025562E+02 -0.54175539175E+03  0.54527782478E+03  0.10566000000E+00 0. -1.
    9000005    1    3    3    0    0  0.34564361559E+02 -0.73379948821E+02 -0.13991405114E+04  0.14014900936E+04  0.10000000000E+01 0.  0.
    9000005    1    3    3    0    0 -0.56391100270E+01  0.24524665128E+02 -0.76835951495E+02  0.80858037347E+02  0.10000000000E+01 0.  0.
<mgrwt>
<rscale>  0 0.12910483E+03</rscale>
<asrwt>0</asrwt>
<pdfrwt beam="2">  1        2 0.35126768E+00 0.13729334E+03</pdfrwt>
<pdfrwt beam="1">  1       -2 0.10414068E-02 0.13729334E+03</pdfrwt>
<totfact> 0.10420542E+04</totfact>
</mgrwt>
</event>
<event>
 8    3  0.7944584E-004  0.1389252E+03  0.7818608E-02  0.1221966E+00
         -2   -1    0    0    0  501 -0.00000000000E+00  0.00000000000E+00  0.61290587388E+03  0.61290587388E+03  0.25500000000E-02 0.  1.
          2   -1    0    0  501    0  0.00000000000E+00 -0.00000000000E+00 -0.30693093243E+02  0.30693093348E+02  0.25500000000E-02 0. -1.
         25    2    1    2    0    0  0.60282802411E+02  0.64378028873E+01  0.41849251027E+03  0.44094919567E+03  0.12499900173E+03 0.  0.
         23    2    1    2    0    0 -0.60282802411E+02 -0.64378028873E+01  0.16372027037E+03  0.20264977157E+03  0.10289383565E+03 0.  0.
        -13    1    4    4    0    0 -0.32814528638E+02  0.47787981672E+02  0.90657279867E+02  0.10760686799E+03  0.10566000000E+00 0. -1.
         13    1    4    4    0    0 -0.27468273773E+02 -0.54225784560E+02  0.73062990500E+02  0.95042903575E+02  0.10566000000E+00 0.  1.
    9000005    1    3    3    0    0  0.11410059903E+02  0.32760861319E+02  0.23128572505E+02  0.41706047134E+02  0.10000000000E+01 0.  0.
    9000005    1    3    3    0    0  0.48872742507E+02 -0.26323058432E+02  0.39536393776E+03  0.39924314853E+03  0.10000000000E+01 0.  0.
<mgrwt>
<rscale>  0 0.13377059E+03</rscale>
<asrwt>0</asrwt>
<pdfrwt beam="2">  1        2 0.47220145E-02 0.13892520E+03</pdfrwt>
<pdfrwt beam="1">  1       -2 0.94293209E-01 0.13892520E+03</pdfrwt>
<totfact> 0.16090620E+03</totfact>
</mgrwt>
</event>
<event>
 8    3  0.7944584E-004  0.1904044E+03  0.7818608E-02  0.1163685E+00
          2   -1    0    0  501    0  0.00000000000E+00  0.00000000000E+00  0.17706265271E+03  0.17706265273E+03  0.25500000000E-02 0. -1.
         -2   -1    0    0    0  501 -0.00000000000E+00 -0.00000000000E+00 -0.18058788929E+03  0.18058788931E+03  0.25500000000E-02 0.  1.
         25    2    1    2    0    0 -0.11963877269E+03  0.79476780158E+02 -0.37903060505E+00  0.19040475207E+03  0.12499532565E+03 0.  0.
         23    2    1    2    0    0  0.11963877269E+03 -0.79476780158E+02 -0.31462059703E+01  0.16724578996E+03  0.85622783966E+02 0.  0.
        -13    1    4    4    0    0  0.41657880444E+02 -0.50512684998E+02 -0.39495658148E+02  0.76464557315E+02  0.10566000000E+00 0.  1.
         13    1    4    4    0    0  0.77980892242E+02 -0.28964095159E+02  0.36349452178E+02  0.90781232647E+02  0.10566000000E+00 0. -1.
    9000005    1    3    3    0    0 -0.52445258055E+02  0.10559805119E+03 -0.61957176084E+01  0.11807133617E+03  0.10000000000E+01 0.  0.
    9000005    1    3    3    0    0 -0.67193514631E+02 -0.26121271034E+02  0.58166870033E+01  0.72333415906E+02  0.10000000000E+01 0.  0.
<mgrwt>
<rscale>  0 0.18432204E+03</rscale>
<asrwt>0</asrwt>
<pdfrwt beam="1">  1        2 0.27240408E-01 0.19040437E+03</pdfrwt>
<pdfrwt beam="2">  1       -2 0.27782752E-01 0.19040437E+03</pdfrwt>
<totfact> 0.22613222E+03</totfact>
</mgrwt>
</event>
<event>
 8    3  0.7944584E-004  0.1459188E+03  0.7818608E-02  0.1215535E+00
          2   -1    0    0  501    0  0.00000000000E+00  0.00000000000E+00  0.32151067877E+03  0.32151067878E+03  0.25500000000E-02 0. -1.
         -2   -1    0    0    0  501 -0.00000000000E+00 -0.00000000000E+00 -0.55831264601E+02  0.55831264659E+02  0.25500000000E-02 0.  1.
         25    2    1    2    0    0  0.22778493032E+02 -0.71757830292E+02  0.11400185782E+03  0.18517210895E+03  0.12499696153E+03 0.  0.
         23    2    1    2    0    0 -0.22778493032E+02  0.71757830292E+02  0.15167755634E+03  0.19216983449E+03  0.90857681218E+02 0.  0.
        -13    1    4    4    0    0  0.24771555057E+02 -0.21930300688E+01  0.60968455039E+02  0.65845295919E+02  0.10566000000E+00 0. -1.
         13    1    4    4    0    0 -0.47550048090E+02  0.73950860360E+02  0.90709101306E+02  0.12632453857E+03  0.10566000000E+00 0.  1.
    9000005    1    3    3    0    0  0.71431261245E+02 -0.19199605414E+02  0.64026061588E+02  0.97833463056E+02  0.10000000000E+01 0.  0.
    9000005    1    3    3    0    0 -0.48652768213E+02 -0.52558224877E+02  0.49975796236E+02  0.87338645893E+02  0.10000000000E+01 0.  0.
<mgrwt>
<rscale>  0 0.13837276E+03</rscale>
<asrwt>0</asrwt>
<pdfrwt beam="1">  1        2 0.49463182E-01 0.14591877E+03</pdfrwt>
<pdfrwt beam="2">  1       -2 0.85894253E-02 0.14591877E+03</pdfrwt>
<totfact> 0.81856814E+03</totfact>
</mgrwt>
</event>
<event>
 8    3  0.7944584E-004  0.1291025E+03  0.7818608E-02  0.1241498E+00
         -2   -1    0    0    0  501 -0.00000000000E+00  0.00000000000E+00  0.65896313610E+01  0.65896318544E+01  0.25500000000E-02 0. -1.
          2   -1    0    0  501    0  0.00000000000E+00 -0.00000000000E+00 -0.24623751080E+04  0.24623751080E+04  0.25500000000E-02 0.  1.
         25    2    1    2    0    0  0.32002615688E+02 -0.43179841675E+01 -0.18966780438E+04  0.19010668186E+04  0.12499853819E+03 0.  0.
         23    2    1    2    0    0 -0.32002615688E+02  0.43179841675E+01 -0.55910743292E+03  0.56789792134E+03  0.94149429709E+02 0.  0.
        -13    1    4    4    0    0 -0.31819748634E+02 -0.32740726999E+02 -0.45696933161E+03  0.45924441510E+03  0.10566000000E+00 0.  1.
         13    1    4    4    0    0 -0.18286705400E+00  0.37058711167E+02 -0.10213810132E+03  0.10865350624E+03  0.10566000000E+00 0. -1.
    9000005    1    3    3    0    0  0.74286913198E+02 -0.28144677002E+02 -0.12941788580E+04  0.12966150488E+04  0.10000000000E+01 0.  0.
    9000005    1    3    3    0    0 -0.42284297509E+02  0.23826692835E+02 -0.60249918572E+03  0.60445176971E+03  0.10000000000E+01 0.  0.
<mgrwt>
<rscale>  0 0.12097434E+03</rscale>
<asrwt>0</asrwt>
<pdfrwt beam="2">  1        2 0.37882621E+00 0.12910247E+03</pdfrwt>
<pdfrwt beam="1">  1       -2 0.10137914E-02 0.12910247E+03</pdfrwt>
<totfact> 0.87054500E+03</totfact>
</mgrwt>
</event>
<event>
 8    3  0.7944584E-004  0.1544572E+03  0.7818608E-02  0.1203637E+00
         -2   -1    0    0    0  501 -0.00000000000E+00  0.00000000000E+00  0.10898411908E+03  0.10898411911E+03  0.25500000000E-02 0. -1.
          2   -1    0    0  501    0  0.00000000000E+00 -0.00000000000E+00 -0.18590502244E+03  0.18590502246E+03  0.25500000000E-02 0.  1.
         25    2    1    2    0    0  0.52119778786E+02 -0.74259976716E+02 -0.24895737751E+02  0.15645075246E+03  0.12500409875E+03 0.  0.
         23    2    1    2    0    0 -0.52119778786E+02  0.74259976716E+02 -0.52025165610E+02  0.13843838911E+03  0.90705866620E+02 0.  0.
        -13    1    4    4    0    0  0.12441924675E+02  0.52306963651E+01 -0.41140239158E+02  0.43297714906E+02  0.10566000000E+00 0.  1.
         13    1    4    4    0    0 -0.64561703461E+02  0.69029280351E+02 -0.10884926452E+02  0.95140674201E+02  0.10566000000E+00 0. -1.
    9000005    1    3    3    0    0 -0.21770679708E+02 -0.11849890409E+02 -0.50612488432E+02  0.56364939306E+02  0.10000000000E+01 0.  0.
    9000005    1    3    3    0    0  0.73890458494E+02 -0.62410086307E+02  0.25716750682E+02  0.10008581316E+03  0.10000000000E+01 0.  0.
<mgrwt>
<rscale>  0 0.14745355E+03</rscale>
<asrwt>0</asrwt>
<pdfrwt beam="2">  1        2 0.28600773E-01 0.15445724E+03</pdfrwt>
<pdfrwt beam="1">  1       -2 0.16766788E-01 0.15445724E+03</pdfrwt>
<totfact> 0.50587025E+03</totfact>
</mgrwt>
</event>
<event>
 8    3  0.7944584E-004  0.1366404E+03  0.7818608E-02  0.1229535E+00
          2   -1    0    0  501    0  0.00000000000E+00  0.00000000000E+00  0.32458479071E+03  0.32458479072E+03  0.25500000000E-02 0. -1.
         -2   -1    0    0    0  501 -0.00000000000E+00 -0.00000000000E+00 -0.48197418524E+02  0.48197418591E+02  0.25500000000E-02 0.  1.
         25    2    1    2    0    0  0.38415910283E+02 -0.39516737791E+02  0.11282785097E+03  0.17720251281E+03  0.12503300309E+03 0.  0.
         23    2    1    2    0    0 -0.38415910283E+02  0.39516737791E+02  0.16355952122E+03  0.19557969651E+03  0.91991010307E+02 0.  0.
        -13    1    4    4    0    0 -0.10376166009E+02 -0.53962499317E+01  0.13483738226E+03  0.13534369269E+03  0.10566000000E+00 0. -1.
         13    1    4    4    0    0 -0.28039744274E+02  0.44912987723E+02  0.28722138962E+02  0.60236003816E+02  0.10566000000E+00 0.  1.
    9000005    1    3    3    0    0 -0.21503205192E+02 -0.57114229942E+02  0.17965983462E+02  0.63625463905E+02  0.10000000000E+01 0.  0.
    9000005    1    3    3    0    0  0.59919115475E+02  0.17597492151E+02  0.94861867511E+02  0.11357704890E+03  0.10000000000E+01 0.  0.
<mgrwt>
<rscale>  0 0.12860866E+03</rscale>
<asrwt>0</asrwt>
<pdfrwt beam="1">  1        2 0.49936123E-01 0.13664043E+03</pdfrwt>
<pdfrwt beam="2">  1       -2 0.74149873E-02 0.13664043E+03</pdfrwt>
<totfact> 0.10124259E+04</totfact>
</mgrwt>
</event>
<event>
 8    3  0.7944584E-004  0.1739623E+03  0.7818608E-02  0.1180253E+00
         -2   -1    0    0    0  501 -0.00000000000E+00  0.00000000000E+00  0.18500235448E+02  0.18500235624E+02  0.25500000000E-02 0.  1.
          2   -1    0    0  501    0  0.00000000000E+00 -0.00000000000E+00 -0.14930951952E+04  0.14930951952E+04  0.25500000000E-02 0. -1.
         25    2    1    2    0    0 -0.36877397455E+02 -0.11523010899E+03 -0.62255765515E+03  0.64640614148E+03  0.12499978120E+03 0.  0.
         23    2    1    2    0    0  0.36877397455E+02  0.11523010899E+03 -0.85203730461E+03  0.86518928936E+03  0.89146045897E+02 0.  0.
        -13    1    4    4    0    0  0.25340811482E+02  0.11711563057E+03 -0.83964922833E+03  0.84815627420E+03  0.10566000000E+00 0. -1.
         13    1    4    4    0    0  0.11536585973E+02 -0.18855215722E+01 -0.12388076280E+02  0.17033015161E+02  0.10566000000E+00 0.  1.
    9000005    1    3    3    0    0 -0.63083876792E+02 -0.55108833388E+02 -0.50399131868E+03  0.51090587033E+03  0.10000000000E+01 0.  0.
    9000005    1    3    3    0    0  0.26206479337E+02 -0.60121275605E+02 -0.11856633647E+03  0.13550027116E+03  0.10000000000E+01 0.  0.
<mgrwt>
<rscale>  0 0.16771374E+03</rscale>
<asrwt>0</asrwt>
<pdfrwt beam="2">  1        2 0.22970686E+00 0.17396225E+03</pdfrwt>
<pdfrwt beam="1">  1       -2 0.28461912E-02 0.17396225E+03</pdfrwt>
<totfact> 0.62380332E+03</totfact>
</mgrwt>
</event>
<event>
 8    3  0.7944584E-004  0.1443455E+03  0.7818608E-02  0.1218205E+00
         -2   -1    0    0    0  501 -0.00000000000E+00  0.00000000000E+00  0.25741936617E+02  0.25741936743E+02  0.25500000000E-02 0.  1.
          2   -1    0    0  501    0  0.00000000000E+00 -0.00000000000E+00 -0.66408463387E+03  0.66408463387E+03  0.25500000000E-02 0. -1.
         25    2    1    2    0    0 -0.12308080218E+02 -0.71137231207E+02 -0.39602346678E+03  0.42150942575E+03  0.12499446090E+03 0.  0.
         23    2    1    2    0    0  0.12308080218E+02  0.71137231207E+02 -0.24231923048E+03  0.26831714487E+03  0.89796916812E+02 0.  0.
        -13    1    4    4    0    0 -0.11997451230E+01  0.62059348151E+02 -0.63639356714E+02  0.88897586965E+02  0.10566000000E+00 0.  1.
         13    1    4    4    0    0  0.13507825341E+02  0.90778830563E+01 -0.17867987376E+03  0.17941955790E+03  0.10566000000E+00 0. -1.
    9000005    1    3    3    0    0 -0.38637929701E+02 -0.45545951527E+01 -0.29571266461E+03  0.29826265935E+03  0.10000000000E+01 0.  0.
    9000005    1    3    3    0    0  0.26329849483E+02 -0.66582636054E+02 -0.10031080216E+03  0.12324676640E+03  0.10000000000E+01 0.  0.
<mgrwt>
<rscale>  0 0.13643746E+03</rscale>
<asrwt>0</asrwt>
<pdfrwt beam="2">  1        2 0.10216685E+00 0.14434545E+03</pdfrwt>
<pdfrwt beam="1">  1       -2 0.39602985E-02 0.14434545E+03</pdfrwt>
<totfact> 0.11950133E+04</totfact>
</mgrwt>
</event>
<event>
 8    3  0.7944584E-004  0.4309623E+03  0.7818608E-02  0.1034236E+00
         -2   -1    0    0    0  501 -0.00000000000E+00  0.00000000000E+00  0.99875000176E+02  0.99875000208E+02  0.25500000000E-02 0.  1.
          2   -1    0    0  501    0  0.00000000000E+00 -0.00000000000E+00 -0.18603493025E+04  0.18603493025E+04  0.25500000000E-02 0. -1.
         25    2    1    2    0    0  0.41224528504E+03 -0.12478887540E+02 -0.74992659865E+03  0.86493836177E+03  0.12500627438E+03 0.  0.
         23    2    1    2    0    0 -0.41224528504E+03  0.12478887540E+02 -0.10105477037E+04  0.10952859410E+04  0.91338564404E+02 0.  0.
        -13    1    4    4    0    0 -0.35494105502E+03 -0.17015654308E+02 -0.80682462307E+03  0.88161140453E+03  0.10566000000E+00 0.  1.
         13    1    4    4    0    0 -0.57304230013E+02  0.29494541848E+02 -0.20372308063E+03  0.21367453644E+03  0.10566000000E+00 0. -1.
    9000005    1    3    3    0    0  0.26808223102E+03  0.33673330004E+02 -0.56242804941E+03  0.62396176686E+03  0.10000000000E+01 0.  0.
    9000005    1    3    3    0    0  0.14416305402E+03 -0.46152217544E+02 -0.18749854924E+03  0.24097659491E+03  0.10000000000E+01 0.  0.
<mgrwt>
<rscale>  0 0.42881243E+03</rscale>
<asrwt>0</asrwt>
<pdfrwt beam="2">  1        2 0.28620756E+00 0.43096226E+03</pdfrwt>
<pdfrwt beam="1">  1       -2 0.15365386E-01 0.43096226E+03</pdfrwt>
<totfact> 0.28311076E+02</totfact>
</mgrwt>
</event>
<event>
 8    3  0.7944584E-004  0.1250001E+03  0.7818608E-02  0.1253464E+00
         -2   -1    0    0    0  501 -0.00000000000E+00  0.00000000000E+00  0.68613972267E+02  0.68613972315E+02  0.25500000000E-02 0. -1.
          2   -1    0    0  501    0  0.00000000000E+00 -0.00000000000E+00 -0.17387284815E+03  0.17387284817E+03  0.25500000000E-02 0.  1.
         25    2    1    2    0    0 -0.42772508334E+00  0.84098475367E+00 -0.92026685913E+02  0.15522221926E+03  0.12499654487E+03 0.  0.
         23    2    1    2    0    0  0.42772508334E+00 -0.84098475367E+00 -0.13232189969E+02  0.87264601218E+02  0.86250388812E+02 0.  0.
        -13    1    4    4    0    0  0.35616926031E+02 -0.69360941246E+01  0.17373700059E+02  0.40230976118E+02  0.10566000000E+00 0. -1.
         13    1    4    4    0    0 -0.35189200948E+02  0.60951093710E+01 -0.30605890028E+02  0.47033625100E+02  0.10566000000E+00 0.  1.
    9000005    1    3    3    0    0 -0.47092610410E+02 -0.29249069150E+02 -0.10271023663E+02  0.56388969918E+02  0.10000000000E+01 0.  0.
    9000005    1    3    3    0    0  0.46664885327E+02  0.30090053903E+02 -0.81755662250E+02  0.98833249346E+02  0.10000000000E+01 0.  0.
<mgrwt>
<rscale>  0 0.11392776E+03</rscale>
<asrwt>0</asrwt>
<pdfrwt beam="2">  1        2 0.26749669E-01 0.12500011E+03</pdfrwt>
<pdfrwt beam="1">  1       -2 0.10555996E-01 0.12500011E+03</pdfrwt>
<totfact> 0.11318246E+04</totfact>
</mgrwt>
</event>
<event>
 8    3  0.7944584E-004  0.1445852E+03  0.7818608E-02  0.1211418E+00
          2   -1    0    0  501    0  0.00000000000E+00  0.00000000000E+00  0.43857074082E+02  0.43857074156E+02  0.25500000000E-02 0. -1.
         -2   -1    0    0    0  501 -0.00000000000E+00 -0.00000000000E+00 -0.53386668970E+03  0.53386668971E+03  0.25500000000E-02 0.  1.
         25    2    1    2    0    0  0.66975445044E+02 -0.28180023161E+02 -0.13106147029E+03  0.19514605447E+03  0.12500019854E+03 0.  0.
         23    2    1    2    0    0 -0.66975445044E+02  0.28180023161E+02 -0.35894814533E+03  0.38257770940E+03  0.11064406334E+03 0.  0.
        -13    1    4    4    0    0 -0.38675867016E+02  0.53726533615E+02 -0.94411202476E+02  0.11530762950E+03  0.10566000000E+00 0. -1.
         13    1    4    4    0    0 -0.28299578028E+02 -0.25546510454E+02 -0.26453694285E+03  0.26727007990E+03  0.10566000000E+00 0.  1.
    9000005    1    3    3    0    0 -0.11984416609E+02  0.64931571605E+01 -0.10380125832E+03  0.10469712776E+03  0.10000000000E+01 0.  0.
    9000005    1    3    3    0    0  0.78959861653E+02 -0.34673180321E+02 -0.27260211970E+02  0.90448926707E+02  0.10000000000E+01 0.  0.
<mgrwt>
<rscale>  0 0.14142969E+03</rscale>
<asrwt>0</asrwt>
<pdfrwt beam="1">  1        2 0.67472426E-02 0.14458518E+03</pdfrwt>
<pdfrwt beam="2">  1       -2 0.82133332E-01 0.14458518E+03</pdfrwt>
<totfact> 0.13828361E+03</totfact>
</mgrwt>
</event>
<event>
 8    3  0.7944584E-004  0.1344726E+03  0.7818608E-02  0.1232986E+00
          2   -1    0    0  501    0  0.00000000000E+00  0.00000000000E+00  0.11754202811E+03  0.11754202814E+03  0.25500000000E-02 0. -1.
         -2   -1    0    0    0  501 -0.00000000000E+00 -0.00000000000E+00 -0.12766226513E+03  0.12766226515E+03  0.25500000000E-02 0.  1.
         25    2    1    2    0    0  0.79937271754E+01 -0.48939830480E+02 -0.31845705032E+02  0.13819202555E+03  0.12499552118E+03 0.  0.
         23    2    1    2    0    0 -0.79937271754E+01  0.48939830480E+02  0.21725468016E+02  0.10701226775E+03  0.92307219685E+02 0.  0.
        -13    1    4    4    0    0 -0.23113754168E+01  0.11106504141E+02 -0.36008165374E+02  0.37753092962E+02  0.10566000000E+00 0.  1.
         13    1    4    4    0    0 -0.56823517587E+01  0.37833326338E+02  0.57733633389E+02  0.69259174784E+02  0.10566000000E+00 0. -1.
    9000005    1    3    3    0    0 -0.54617456536E+02 -0.44869034014E+02 -0.83362656069E+01  0.71181388692E+02  0.10000000000E+01 0.  0.
    9000005    1    3    3    0    0  0.62611183712E+02 -0.40707964659E+01 -0.23509439425E+02  0.67010636855E+02  0.10000000000E+01 0.  0.
<mgrwt>
<rscale>  0 0.12634233E+03</rscale>
<asrwt>0</asrwt>
<pdfrwt beam="1">  1        2 0.18083389E-01 0.13447263E+03</pdfrwt>
<pdfrwt beam="2">  1       -2 0.19640349E-01 0.13447263E+03</pdfrwt>
<totfact> 0.64204759E+03</totfact>
</mgrwt>
</event>
<event>
 8    3  0.7944584E-004  0.1416141E+03  0.7818608E-02  0.1220530E+00
          2   -1    0    0  501    0  0.00000000000E+00  0.00000000000E+00  0.50548383772E+02  0.50548383837E+02  0.25500000000E-02 0. -1.
         -2   -1    0    0    0  501 -0.00000000000E+00 -0.00000000000E+00 -0.32978235510E+03  0.32978235511E+03  0.25500000000E-02 0.  1.
         25    2    1    2    0    0 -0.55146015537E+02 -0.37270296621E+02 -0.16406773171E+03  0.21673205057E+03  0.12499761243E+03 0.  0.
         23    2    1    2    0    0  0.55146015537E+02  0.37270296621E+02 -0.11516623962E+03  0.16359868838E+03  0.95242375301E+02 0.  0.
        -13    1    4    4    0    0  0.19194486611E+02 -0.21007153538E+02  0.13096778459E+01  0.28486053362E+02  0.10566000000E+00 0. -1.
         13    1    4    4    0    0  0.35951528926E+02  0.58277450160E+02 -0.11647591746E+03  0.13511263502E+03  0.10566000000E+00 0.  1.
    9000005    1    3    3    0    0  0.67597518607E+01 -0.15236539740E+02 -0.14818426903E+03  0.14912217802E+03  0.10000000000E+01 0.  0.
    9000005    1    3    3    0    0 -0.61905767398E+02 -0.22033756881E+02 -0.15883462683E+02  0.67609872550E+02  0.10000000000E+01 0.  0.
<mgrwt>
<rscale>  0 0.13478040E+03</rscale>
<asrwt>0</asrwt>
<pdfrwt beam="1">  1        2 0.77766746E-02 0.14161413E+03</pdfrwt>
<pdfrwt beam="2">  1       -2 0.50735746E-01 0.14161413E+03</pdfrwt>
<totfact> 0.31576563E+03</totfact>
</mgrwt>
</event>
<event>
 8    3  0.7944584E-004  0.2299770E+03  0.7818608E-02  0.1128908E+00
          2   -1    0    0  501    0  0.00000000000E+00  0.00000000000E+00  0.18320038384E+03  0.18320038386E+03  0.25500000000E-02 0. -1.
         -2   -1    0    0    0  501 -0.00000000000E+00 -0.00000000000E+00 -0.46705849061E+03  0.46705849062E+03  0.25500000000E-02 0.  1.
         25    2    1    2    0    0  0.17479099587E+03  0.81927588942E+02 -0.35359384060E+03  0.42180330087E+03  0.12500159380E+03 0.  0.
         23    2    1    2    0    0 -0.17479099587E+03 -0.81927588942E+02  0.69735733825E+02  0.22845557361E+03  0.10032374831E+03 0.  0.
        -13    1    4    4    0    0 -0.79695372491E+02  0.92001682093E+01  0.51886932789E+02  0.95541930323E+02  0.10566000000E+00 0.  1.
         13    1    4    4    0    0 -0.95095623378E+02 -0.91127757151E+02  0.17848801037E+02  0.13291364329E+03  0.10566000000E+00 0. -1.
    9000005    1    3    3    0    0  0.51940421503E+02  0.25006334890E+02 -0.23448683449E+03  0.24147090864E+03  0.10000000000E+01 0.  0.
    9000005    1    3    3    0    0  0.12285057437E+03  0.56921254052E+02 -0.11910700611E+03  0.18033239223E+03  0.10000000000E+01 0.  0.
<mgrwt>
<rscale>  0 0.22680576E+03</rscale>
<asrwt>0</asrwt>
<pdfrwt beam="1">  1        2 0.28184675E-01 0.22997700E+03</pdfrwt>
<pdfrwt beam="2">  1       -2 0.71855152E-01 0.22997700E+03</pdfrwt>
<totfact> 0.34038464E+02</totfact>
</mgrwt>
</event>
<event>
 8    3  0.7944584E-004  0.1623999E+03  0.7818608E-02  0.1194168E+00
          2   -1    0    0  501    0  0.00000000000E+00  0.00000000000E+00  0.22022221756E+04  0.22022221756E+04  0.25500000000E-02 0. -1.
         -2   -1    0    0    0  501 -0.00000000000E+00 -0.00000000000E+00 -0.12752406506E+02  0.12752406761E+02  0.25500000000E-02 0.  1.
         25    2    1    2    0    0 -0.43420602285E+02 -0.94143473628E+02  0.16775615175E+04  0.16854039220E+04  0.12500157063E+03 0.  0.
         23    2    1    2    0    0  0.43420602285E+02  0.94143473628E+02  0.51190825158E+03  0.52957066044E+03  0.87445320255E+02 0.  0.
        -13    1    4    4    0    0  0.38731601798E+02  0.27554889048E+02  0.84251121622E+02  0.96735058521E+02  0.10566000000E+00 0.  1.
         13    1    4    4    0    0  0.46890004868E+01  0.66588584579E+02  0.42765712996E+03  0.43283560192E+03  0.10566000000E+00 0. -1.
    9000005    1    3    3    0    0 -0.50789810279E+02 -0.11728527719E+03  0.15668946643E+04  0.15720990204E+04  0.10000000000E+01 0.  0.
    9000005    1    3    3    0    0  0.73692079941E+01  0.23141803564E+02  0.11066685326E+03  0.11330490152E+03  0.10000000000E+01 0.  0.
<mgrwt>
<rscale>  0 0.15524832E+03</rscale>
<asrwt>0</asrwt>
<pdfrwt beam="1">  1        2 0.33880343E+00 0.16239992E+03</pdfrwt>
<pdfrwt beam="2">  1       -2 0.19619086E-02 0.16239992E+03</pdfrwt>
<totfact> 0.46136088E+03</totfact>
</mgrwt>
</event>
<event>
 8    3  0.7944584E-004  0.1343794E+03  0.7818608E-02  0.1234155E+00
         -2   -1    0    0    0  501 -0.00000000000E+00  0.00000000000E+00  0.28186324437E+02  0.28186324552E+02  0.25500000000E-02 0.  1.
          2   -1    0    0  501    0  0.00000000000E+00 -0.00000000000E+00 -0.54884272188E+03  0.54884272188E+03  0.25500000000E-02 0. -1.
         25    2    1    2    0    0  0.11875717967E+02  0.47859641661E+02 -0.37939349335E+03  0.40248880325E+03  0.12500494380E+03 0.  0.
         23    2    1    2    0    0 -0.11875717967E+02 -0.47859641661E+02 -0.14126290410E+03  0.17454024318E+03  0.89874971148E+02 0.  0.
        -13    1    4    4    0    0  0.27361246571E+02 -0.37243483953E+02 -0.12016041556E+03  0.12874102510E+03  0.10566000000E+00 0. -1.
         13    1    4    4    0    0 -0.39236964538E+02 -0.10616157707E+02 -0.21102488531E+02  0.45799218081E+02  0.10566000000E+00 0.  1.
    9000005    1    3    3    0    0 -0.42147694875E+02  0.61919793485E+02 -0.16986372805E+03  0.18564798710E+03  0.10000000000E+01 0.  0.
    9000005    1    3    3    0    0  0.54023412842E+02 -0.14060151824E+02 -0.20952976529E+03  0.21684081615E+03  0.10000000000E+01 0.  0.
<mgrwt>
<rscale>  0 0.12558711E+03</rscale>
<asrwt>0</asrwt>
<pdfrwt beam="2">  1        2 0.84437334E-01 0.13437937E+03</pdfrwt>
<pdfrwt beam="1">  1       -2 0.43363580E-02 0.13437937E+03</pdfrwt>
<totfact> 0.12912908E+04</totfact>
</mgrwt>
</event>
<event>
 8    3  0.7944584E-004  0.1388286E+03  0.7818608E-02  0.1227625E+00
          2   -1    0    0  501    0  0.00000000000E+00  0.00000000000E+00  0.70398402057E+03  0.70398402058E+03  0.25500000000E-02 0. -1.
         -2   -1    0    0    0  501 -0.00000000000E+00 -0.00000000000E+00 -0.21593845234E+02  0.21593845384E+02  0.25500000000E-02 0.  1.
         25    2    1    2    0    0  0.58279988054E+02  0.15882495786E+02  0.42402935841E+03  0.44617741839E+03  0.12499832484E+03 0.  0.
         23    2    1    2    0    0 -0.58279988054E+02 -0.15882495786E+02  0.25836081693E+03  0.27940044757E+03  0.87552770918E+02 0.  0.
        -13    1    4    4    0    0 -0.10841475574E+02  0.99063995183E+01 -0.76755291402E+00  0.14706279120E+02  0.10566000000E+00 0.  1.
         13    1    4    4    0    0 -0.47438512480E+02 -0.25788895304E+02  0.25912836985E+03  0.26469416845E+03  0.10566000000E+00 0. -1.
    9000005    1    3    3    0    0  0.11837051989E+02  0.67280335984E+02  0.18095885214E+03  0.19342664133E+03  0.10000000000E+01 0.  0.
    9000005    1    3    3    0    0  0.46442936065E+02 -0.51397840198E+02  0.24307050627E+03  0.25275077706E+03  0.10000000000E+01 0.  0.
<mgrwt>
<rscale>  0 0.12988613E+03</rscale>
<asrwt>0</asrwt>
<pdfrwt beam="1">  1        2 0.10830524E+00 0.13882864E+03</pdfrwt>
<pdfrwt beam="2">  1       -2 0.33221299E-02 0.13882864E+03</pdfrwt>
<totfact> 0.14432844E+04</totfact>
</mgrwt>
</event>
<event>
 8    3  0.7944584E-004  0.1304658E+03  0.7818608E-02  0.1240510E+00
         -2   -1    0    0    0  501 -0.00000000000E+00  0.00000000000E+00  0.36259196895E+02  0.36259196985E+02  0.25500000000E-02 0. -1.
          2   -1    0    0  501    0  0.00000000000E+00 -0.00000000000E+00 -0.42354305605E+03  0.42354305606E+03  0.25500000000E-02 0.  1.
         25    2    1    2    0    0  0.32689389985E+02  0.18137273815E+02 -0.30428397568E+03  0.33107412196E+03  0.12499511774E+03 0.  0.
         23    2    1    2    0    0 -0.32689389985E+02 -0.18137273815E+02 -0.82999883471E+02  0.12872813108E+03  0.91018647294E+02 0.  0.
        -13    1    4    4    0    0 -0.59586082921E+02 -0.29295133981E+02 -0.71066837631E+02  0.97258484091E+02  0.10566000000E+00 0. -1.
         13    1    4    4    0    0  0.26896692935E+02  0.11157860166E+02 -0.11933045840E+02  0.31469646985E+02  0.10566000000E+00 0.  1.
    9000005    1    3    3    0    0 -0.38887152018E+02 -0.22880529892E+02 -0.14237982177E+03  0.14936111572E+03  0.10000000000E+01 0.  0.
    9000005    1    3    3    0    0  0.71576542003E+02  0.41017803707E+02 -0.16190415391E+03  0.18171300625E+03  0.10000000000E+01 0.  0.
<mgrwt>
<rscale>  0 0.12158164E+03</rscale>
<asrwt>0</asrwt>
<pdfrwt beam="2">  1        2 0.65160467E-01 0.13046584E+03</pdfrwt>
<pdfrwt beam="1">  1       -2 0.55783383E-02 0.13046584E+03</pdfrwt>
<totfact> 0.11720737E+04</totfact>
</mgrwt>
</event>
<event>
 8    3  0.7944584E-004  0.1634226E+03  0.7818608E-02  0.1190699E+00
         -2   -1    0    0    0  501 -0.00000000000E+00  0.00000000000E+00  0.36400802605E+02  0.36400802695E+02  0.25500000000E-02 0. -1.
          2   -1    0    0  501    0  0.00000000000E+00 -0.00000000000E+00 -0.67923325765E+03  0.67923325766E+03  0.25500000000E-02 0.  1.
         25    2    1    2    0    0 -0.70420599359E+02 -0.78246990987E+02 -0.26410585967E+03  0.31057824752E+03  0.12500116124E+03 0.  0.
         23    2    1    2    0    0  0.70420599359E+02  0.78246990987E+02 -0.37872659538E+03  0.40505581283E+03  0.97748273877E+02 0.  0.
        -13    1    4    4    0    0  0.86506995436E+02  0.88645940251E+02 -0.33982081909E+03  0.36169014810E+03  0.10566000000E+00 0.  1.
         13    1    4    4    0    0 -0.16086396077E+02 -0.10398949265E+02 -0.38905776294E+02  0.43365664731E+02  0.10566000000E+00 0. -1.
    9000005    1    3    3    0    0 -0.73695737867E+01 -0.42269606550E+02 -0.22311454192E+03  0.22720503751E+03  0.10000000000E+01 0.  0.
    9000005    1    3    3    0    0 -0.63051025573E+02 -0.35977384436E+02 -0.40991317750E+02  0.83373210011E+02  0.10000000000E+01 0.  0.
<mgrwt>
<rscale>  0 0.15823890E+03</rscale>
<asrwt>0</asrwt>
<pdfrwt beam="2">  1        2 0.10449741E+00 0.16342259E+03</pdfrwt>
<pdfrwt beam="1">  1       -2 0.56001240E-02 0.16342259E+03</pdfrwt>
<totfact> 0.69664567E+03</totfact>
</mgrwt>
</event>
<event>
 8    3  0.7944584E-004  0.1255361E+03  0.7818608E-02  0.1252641E+00
         -2   -1    0    0    0  501 -0.00000000000E+00  0.00000000000E+00  0.98896454399E+01  0.98896457686E+01  0.25500000000E-02 0.  1.
          2   -1    0    0  501    0  0.00000000000E+00 -0.00000000000E+00 -0.11931784935E+04  0.11931784935E+04  0.25500000000E-02 0. -1.
         25    2    1    2    0    0  0.57425560927E+01  0.10040362607E+02 -0.56705828183E+03  0.58078774703E+03  0.12500210509E+03 0.  0.
         23    2    1    2    0    0 -0.57425560927E+01 -0.10040362607E+02 -0.61623056628E+03  0.62228039229E+03  0.85784555609E+02 0.  0.
        -13    1    4    4    0    0 -0.35464864110E+02 -0.85961219487E+01 -0.12681504893E+03  0.13196104614E+03  0.10566000000E+00 0.  1.
         13    1    4    4    0    0  0.29722308017E+02 -0.14442406586E+01 -0.48941551735E+03  0.49031934615E+03  0.10566000000E+00 0. -1.
    9000005    1    3    3    0    0  0.33737475599E+02  0.48570389324E+02 -0.45768177164E+03  0.46148770739E+03  0.10000000000E+01 0.  0.
    9000005    1    3    3    0    0 -0.27994919506E+02 -0.38530026717E+02 -0.10937651019E+03  0.11930003964E+03  0.10000000000E+01 0.  0.
<mgrwt>
<rscale>  0 0.11439494E+03</rscale>
<asrwt>0</asrwt>
<pdfrwt beam="2">  1        2 0.18356581E+00 0.12553610E+03</pdfrwt>
<pdfrwt beam="1">  1       -2 0.15214849E-02 0.12553610E+03</pdfrwt>
<totfact> 0.22160055E+04</totfact>
</mgrwt>
</event>
<event>
 8    3  0.7944584E-004  0.2388055E+03  0.7818608E-02  0.1123266E+00
         -2   -1    0    0    0  501 -0.00000000000E+00  0.00000000000E+00  0.76319043987E+02  0.76319044030E+02  0.25500000000E-02 0.  1.
          2   -1    0    0  501    0  0.00000000000E+00 -0.00000000000E+00 -0.10000061996E+04  0.10000061996E+04  0.25500000000E-02 0. -1.
         25    2    1    2    0    0  0.20241566195E+03 -0.20775067048E+02 -0.76734827770E+03  0.80364882473E+03  0.12499740234E+03 0.  0.
         23    2    1    2    0    0 -0.20241566195E+03  0.20775067048E+02 -0.15633887795E+03  0.27267641894E+03  0.92232754881E+02 0.  0.
        -13    1    4    4    0    0 -0.22707187969E+01  0.64157366923E+01 -0.40320628081E+02  0.40891099937E+02  0.10566000000E+00 0. -1.
         13    1    4    4    0    0 -0.20014494315E+03  0.14359330355E+02 -0.11601824987E+03  0.23178531900E+03  0.10566000000E+00 0.  1.
    9000005    1    3    3    0    0  0.15008094016E+03  0.40038192551E+02 -0.56525485847E+03  0.58620934868E+03  0.10000000000E+01 0.  0.
    9000005    1    3    3    0    0  0.52334721789E+02 -0.60813259599E+02 -0.20209341923E+03  0.21743947605E+03  0.10000000000E+01 0.  0.
<mgrwt>
<rscale>  0 0.23485904E+03</rscale>
<asrwt>0</asrwt>
<pdfrwt beam="2">  1        2 0.15384710E+00 0.23880547E+03</pdfrwt>
<pdfrwt beam="1">  1       -2 0.11741392E-01 0.23880547E+03</pdfrwt>
<totfact> 0.13460967E+03</totfact>
</mgrwt>
</event>
<event>
 8    3  0.7944584E-004  0.2637062E+03  0.7818608E-02  0.1107249E+00
          2   -1    0    0  501    0  0.00000000000E+00  0.00000000000E+00  0.88485140128E+03  0.88485140129E+03  0.25500000000E-02 0.  1.
         -2   -1    0    0    0  501 -0.00000000000E+00 -0.00000000000E+00 -0.16186526803E+03  0.16186526805E+03  0.25500000000E-02 0. -1.
         25    2    1    2    0    0 -0.52234506378E+02  0.22624690611E+03 -0.18831393073E+02  0.26437774375E+03  0.12499945538E+03 0.  0.
         23    2    1    2    0    0  0.52234506378E+02 -0.22624690611E+03  0.74181752632E+03  0.78233892559E+03  0.88571135026E+02 0.  0.
        -13    1    4    4    0    0  0.75132313581E+02 -0.16686108080E+03  0.58974971045E+03  0.61748863712E+03  0.10566000000E+00 0. -1.
         13    1    4    4    0    0 -0.22897807202E+02 -0.59385825312E+02  0.15206781587E+03  0.16485028848E+03  0.10566000000E+00 0.  1.
    9000005    1    3    3    0    0 -0.16176359834E+02  0.33151305913E+00  0.26583745764E+02  0.31136474708E+02  0.10000000000E+01 0.  0.
    9000005    1    3    3    0    0 -0.36058146544E+02  0.22591539305E+03 -0.45415138837E+02  0.23324126904E+03  0.10000000000E+01 0.  0.
<mgrwt>
<rscale>  0 0.25982416E+03</rscale>
<asrwt>0</asrwt>
<pdfrwt beam="1">  1        2 0.13613099E+00 0.26370622E+03</pdfrwt>
<pdfrwt beam="2">  1       -2 0.24902349E-01 0.26370622E+03</pdfrwt>
<totfact> 0.44785988E+02</totfact>
</mgrwt>
</event>
<event>
 8    3  0.7944584E-004  0.1252850E+03  0.7818608E-02  0.1253060E+00
          2   -1    0    0  501    0  0.00000000000E+00  0.00000000000E+00  0.45097813439E+02  0.45097813511E+02  0.25500000000E-02 0. -1.
         -2   -1    0    0    0  501 -0.00000000000E+00 -0.00000000000E+00 -0.24969767513E+03  0.24969767515E+03  0.25500000000E-02 0.  1.
         25    2    1    2    0    0 -0.83632372608E+01 -0.54804404565E+00 -0.11021653423E+03  0.16686526231E+03  0.12500434896E+03 0.  0.
         23    2    1    2    0    0  0.83632372608E+01  0.54804404565E+00 -0.94383327469E+02  0.12793022635E+03  0.85951650482E+02 0.  0.
        -13    1    4    4    0    0  0.37159081395E+02 -0.16905174274E+01 -0.91658705785E+02  0.98919081524E+02  0.10566000000E+00 0.  1.
         13    1    4    4    0    0 -0.28795844134E+02  0.22385614730E+01 -0.27246216833E+01  0.29011144828E+02  0.10566000000E+00 0. -1.
    9000005    1    3    3    0    0 -0.45089572925E+02 -0.46776452923E+02 -0.45911997217E+02  0.79561407875E+02  0.10000000000E+01 0.  0.
    9000005    1    3    3    0    0  0.36726335664E+02  0.46228408877E+02 -0.64304537008E+02  0.87303854431E+02  0.10000000000E+01 0.  0.
<mgrwt>
<rscale>  0 0.11415675E+03</rscale>
<asrwt>0</asrwt>
<pdfrwt beam="1">  1        2 0.69381253E-02 0.12528500E+03</pdfrwt>
<pdfrwt beam="2">  1       -2 0.38415026E-01 0.12528500E+03</pdfrwt>
<totfact> 0.61833623E+03</totfact>
</mgrwt>
</event>
<event>
 8    3  0.7944584E-004  0.2461009E+03  0.7818608E-02  0.1118279E+00
          2   -1    0    0  501    0  0.00000000000E+00  0.00000000000E+00  0.17059490194E+03  0.17059490195E+03  0.25500000000E-02 0. -1.
         -2   -1    0    0    0  501 -0.00000000000E+00 -0.00000000000E+00 -0.33698169011E+03  0.33698169012E+03  0.25500000000E-02 0.  1.
         25    2    1    2    0    0 -0.19907843606E+03  0.72857295884E+02 -0.11022968779E+03  0.26965949358E+03  0.12500099655E+03 0.  0.
         23    2    1    2    0    0  0.19907843606E+03 -0.72857295884E+02 -0.56157100384E+02  0.23791709850E+03  0.92252461033E+02 0.  0.
        -13    1    4    4    0    0  0.50354492905E+02 -0.38648884644E+02  0.21069141388E+02  0.66882218286E+02  0.10566000000E+00 0. -1.
         13    1    4    4    0    0  0.14872394316E+03 -0.34208411240E+02 -0.77226241772E+02  0.17103488021E+03  0.10566000000E+00 0.  1.
    9000005    1    3    3    0    0 -0.45234698250E+02 -0.30128537860E+02 -0.32572249708E+00  0.54360029566E+02  0.10000000000E+01 0.  0.
    9000005    1    3    3    0    0 -0.15384373781E+03  0.10298583374E+03 -0.10990396530E+03  0.21529946401E+03  0.10000000000E+01 0.  0.
<mgrwt>
<rscale>  0 0.24228656E+03</rscale>
<asrwt>0</asrwt>
<pdfrwt beam="1">  1        2 0.26245370E-01 0.24610091E+03</pdfrwt>
<pdfrwt beam="2">  1       -2 0.51843337E-01 0.24610091E+03</pdfrwt>
<totfact> 0.72749010E+02</totfact>
</mgrwt>
</event>
<event>
 8    3  0.7944584E-004  0.1802420E+03  0.7818608E-02  0.1173486E+00
         -2   -1    0    0    0  501 -0.00000000000E+00  0.00000000000E+00  0.13066413658E+02  0.13066413907E+02  0.25500000000E-02 0. -1.
          2   -1    0    0  501    0  0.00000000000E+00 -0.00000000000E+00 -0.22066804633E+04  0.22066804633E+04  0.25500000000E-02 0.  1.
         25    2    1    2    0    0  0.12940853864E+03  0.10757914712E+02 -0.12876240794E+04  0.13001780440E+04  0.12499949452E+03 0.  0.
         23    2    1    2    0    0 -0.12940853864E+03 -0.10757914712E+02 -0.90598997021E+03  0.91956883319E+03  0.89032074223E+02 0.  0.
        -13    1    4    4    0    0 -0.54105926124E+02  0.30658268618E+02 -0.23466979702E+03  0.24277006708E+03  0.10566000000E+00 0. -1.
         13    1    4    4    0    0 -0.75302612513E+02 -0.41416183329E+02 -0.67132017320E+03  0.67679876610E+03  0.10566000000E+00 0.  1.
    9000005    1    3    3    0    0  0.11189177135E+03  0.44807996829E+02 -0.11760737933E+04  0.11822343644E+04  0.10000000000E+01 0.  0.
    9000005    1    3    3    0    0  0.17516767289E+02 -0.34050082118E+02 -0.11155028618E+03  0.11794367967E+03  0.10000000000E+01 0.  0.
<mgrwt>
<rscale>  0 0.17425064E+03</rscale>
<asrwt>0</asrwt>
<pdfrwt beam="2">  1        2 0.33948901E+00 0.18024199E+03</pdfrwt>
<pdfrwt beam="1">  1       -2 0.20102193E-02 0.18024199E+03</pdfrwt>
<totfact> 0.44305182E+03</totfact>
</mgrwt>
</event>
<event>
 8    3  0.7944584E-004  0.1324022E+03  0.7818608E-02  0.1234193E+00
          2   -1    0    0  501    0  0.00000000000E+00  0.00000000000E+00  0.20316383127E+04  0.20316383127E+04  0.25500000000E-02 0. -1.
         -2   -1    0    0    0  501 -0.00000000000E+00 -0.00000000000E+00 -0.92136404739E+01  0.92136408268E+01  0.25500000000E-02 0.  1.
         25    2    1    2    0    0  0.20045659547E+02  0.38762567754E+02  0.15845483511E+04  0.15900703817E+04  0.12500390640E+03 0.  0.
         23    2    1    2    0    0 -0.20045659547E+02 -0.38762567754E+02  0.43787632110E+03  0.45078157181E+03  0.97795642970E+02 0.  0.
        -13    1    4    4    0    0 -0.24502359136E+02  0.27755943882E+02  0.10612524720E+03  0.11239811956E+03  0.10566000000E+00 0.  1.
         13    1    4    4    0    0  0.44566995887E+01 -0.66518511635E+02  0.33175107390E+03  0.33838345225E+03  0.10566000000E+00 0. -1.
    9000005    1    3    3    0    0  0.71003141240E+02  0.10956043365E+02  0.10259521254E+04  0.10284649943E+04  0.10000000000E+01 0.  0.
    9000005    1    3    3    0    0 -0.50957481693E+02  0.27806524389E+02  0.55859622573E+03  0.56160538738E+03  0.10000000000E+01 0.  0.
<mgrwt>
<rscale>  0 0.12556223E+03</rscale>
<asrwt>0</asrwt>
<pdfrwt beam="1">  1        2 0.31255961E+00 0.13240220E+03</pdfrwt>
<pdfrwt beam="2">  1       -2 0.14174838E-02 0.13240220E+03</pdfrwt>
<totfact> 0.90186836E+03</totfact>
</mgrwt>
</event>
<event>
 8    3  0.7944584E-004  0.1495444E+03  0.7818608E-02  0.1210490E+00
          2   -1    0    0  501    0  0.00000000000E+00  0.00000000000E+00  0.10822630364E+04  0.10822630364E+04  0.25500000000E-02 0.  1.
         -2   -1    0    0    0  501 -0.00000000000E+00 -0.00000000000E+00 -0.18276311099E+02  0.18276311277E+02  0.25500000000E-02 0. -1.
         25    2    1    2    0    0 -0.53901241090E+02  0.61908195592E+02  0.43957624816E+03  0.46431756677E+03  0.12500222556E+03 0.  0.
         23    2    1    2    0    0  0.53901241090E+02 -0.61908195592E+02  0.62441047717E+03  0.63622178094E+03  0.90286998331E+02 0.  0.
        -13    1    4    4    0    0 -0.31090849017E+01 -0.16364590240E+02  0.39789404763E+03  0.39824257749E+03  0.10566000000E+00 0.  1.
         13    1    4    4    0    0  0.57010325992E+02 -0.45543605352E+02  0.22651642955E+03  0.23797920346E+03  0.10566000000E+00 0. -1.
    9000005    1    3    3    0    0 -0.19742248881E+02 -0.29331088637E+02  0.41673352091E+02  0.54660199652E+02  0.10000000000E+01 0.  0.
    9000005    1    3    3    0    0 -0.34158992209E+02  0.91239284229E+02  0.39790289607E+03  0.40965736712E+03  0.10000000000E+01 0.  0.
<mgrwt>
<rscale>  0 0.14213086E+03</rscale>
<asrwt>0</asrwt>
<pdfrwt beam="1">  1        2 0.16650199E+00 0.14954439E+03</pdfrwt>
<pdfrwt beam="2">  1       -2 0.28117404E-02 0.14954439E+03</pdfrwt>
<totfact> 0.10597947E+04</totfact>
</mgrwt>
</event>
<event>
 8    3  0.7944584E-004  0.1289556E+03  0.7818608E-02  0.1242428E+00
          2   -1    0    0  501    0  0.00000000000E+00  0.00000000000E+00  0.87236258974E+03  0.87236258975E+03  0.25500000000E-02 0. -1.
         -2   -1    0    0    0  501 -0.00000000000E+00 -0.00000000000E+00 -0.16277056283E+02  0.16277056483E+02  0.25500000000E-02 0.  1.
         25    2    1    2    0    0 -0.25341564151E+02 -0.18946828033E+02  0.34660246837E+03  0.36981458197E+03  0.12501350645E+03 0.  0.
         23    2    1    2    0    0  0.25341564151E+02  0.18946828033E+02  0.50948306509E+03  0.51882506426E+03  0.92764629680E+02 0.  0.
        -13    1    4    4    0    0 -0.22859318019E+02  0.24431663752E+02  0.81489161609E+02  0.88090574057E+02  0.10566000000E+00 0.  1.
         13    1    4    4    0    0  0.48200882171E+02 -0.54848357187E+01  0.42799390349E+03  0.43073449020E+03  0.10566000000E+00 0. -1.
    9000005    1    3    3    0    0  0.63875172856E+01  0.37199797143E+02  0.34593990207E+02  0.51209075787E+02  0.10000000000E+01 0.  0.
    9000005    1    3    3    0    0 -0.31729081437E+02 -0.56146625176E+02  0.31200847816E+03  0.31860550619E+03  0.10000000000E+01 0.  0.
<mgrwt>
<rscale>  0 0.12040669E+03</rscale>
<asrwt>0</asrwt>
<pdfrwt beam="1">  1        2 0.13420965E+00 0.12895563E+03</pdfrwt>
<pdfrwt beam="2">  1       -2 0.25041622E-02 0.12895563E+03</pdfrwt>
<totfact> 0.16678110E+04</totfact>
</mgrwt>
</event>
<event>
 8    3  0.7944584E-004  0.1301851E+03  0.7818608E-02  0.1241037E+00
         -2   -1    0    0    0  501 -0.00000000000E+00  0.00000000000E+00  0.49690531403E+02  0.49690531468E+02  0.25500000000E-02 0.  1.
          2   -1    0    0  501    0  0.00000000000E+00 -0.00000000000E+00 -0.27577325455E+03  0.27577325456E+03  0.25500000000E-02 0. -1.
         25    2    1    2    0    0  0.18916862249E+02 -0.31071981962E+02 -0.92074358938E+02  0.15945482194E+03  0.12499934770E+03 0.  0.
         23    2    1    2    0    0 -0.18916862249E+02  0.31071981962E+02 -0.13400836421E+03  0.16600896409E+03  0.90980320625E+02 0.  0.
        -13    1    4    4    0    0  0.16060345529E+01  0.33157543413E+02 -0.29393071499E+01  0.33326456799E+02  0.10566000000E+00 0.  1.
         13    1    4    4    0    0 -0.20522896802E+02 -0.20855614513E+01 -0.13106905706E+03  0.13268250730E+03  0.10566000000E+00 0. -1.
    9000005    1    3    3    0    0  0.31657592431E+01  0.11345573887E+02  0.28398768411E+02  0.30760918804E+02  0.10000000000E+01 0.  0.
    9000005    1    3    3    0    0  0.15751103006E+02 -0.42417555849E+02 -0.12047312735E+03  0.12869390313E+03  0.10000000000E+01 0.  0.
<mgrwt>
<rscale>  0 0.12125759E+03</rscale>
<asrwt>0</asrwt>
<pdfrwt beam="2">  1        2 0.42426654E-01 0.13018507E+03</pdfrwt>
<pdfrwt beam="1">  1       -2 0.76446973E-02 0.13018507E+03</pdfrwt>
<totfact> 0.11437756E+04</totfact>
</mgrwt>
</event>
<event>
 8    3  0.7944584E-004  0.1577643E+03  0.7818608E-02  0.1194244E+00
         -2   -1    0    0    0  501 -0.00000000000E+00  0.00000000000E+00  0.58971594621E+02  0.58971594677E+02  0.25500000000E-02 0.  1.
          2   -1    0    0  501    0  0.00000000000E+00 -0.00000000000E+00 -0.40787785448E+03  0.40787785449E+03  0.25500000000E-02 0. -1.
         25    2    1    2    0    0  0.44418166526E+02  0.85423322496E+02 -0.13947000295E+03  0.21057411705E+03  0.12497783605E+03 0.  0.
         23    2    1    2    0    0 -0.44418166526E+02 -0.85423322496E+02 -0.20943625691E+03  0.25627533212E+03  0.11199724371E+03 0.  0.
        -13    1    4    4    0    0 -0.26039196702E+02 -0.46525362016E+02 -0.20636850512E+03  0.21314459915E+03  0.10566000000E+00 0. -1.
         13    1    4    4    0    0 -0.18378969824E+02 -0.38897960481E+02 -0.30677517875E+01  0.43130732969E+02  0.10566000000E+00 0.  1.
    9000005    1    3    3    0    0 -0.33710793332E+02  0.66313232901E+02 -0.46933953058E+02  0.87963960771E+02  0.10000000000E+01 0.  0.
    9000005    1    3    3    0    0  0.78128959858E+02  0.19110089595E+02 -0.92536049888E+02  0.12261015627E+03  0.10000000000E+01 0.  0.
<mgrwt>
<rscale>  0 0.15518411E+03</rscale>
<asrwt>0</asrwt>
<pdfrwt beam="2">  1        2 0.62750437E-01 0.15776431E+03</pdfrwt>
<pdfrwt beam="1">  1       -2 0.90725533E-02 0.15776431E+03</pdfrwt>
<totfact> 0.58574306E+03</totfact>
</mgrwt>
</event>
<event>
 8    3  0.7944584E-004  0.1262807E+03  0.7818608E-02  0.1248679E+00
          2   -1    0    0  501    0  0.00000000000E+00  0.00000000000E+00  0.33700864586E+04  0.33700864586E+04  0.25500000000E-02 0. -1.
         -2   -1    0    0    0  501 -0.00000000000E+00 -0.00000000000E+00 -0.35549539210E+01  0.35549548355E+01  0.25500000000E-02 0.  1.
         25    2    1    2    0    0  0.17911319042E+02 -0.11171722721E+01  0.20685291862E+04  0.20723802264E+04  0.12499898179E+03 0.  0.
         23    2    1    2    0    0 -0.17911319042E+02  0.11171722721E+01  0.12980023185E+04  0.13012611870E+04  0.90269565876E+02 0.  0.
        -13    1    4    4    0    0 -0.23780249930E+02 -0.29340541706E+02  0.11156869752E+04  0.11163260301E+04  0.10566000000E+00 0. -1.
         13    1    4    4    0    0  0.58689308882E+01  0.30457713978E+02  0.18231534329E+03  0.18493515689E+03  0.10566000000E+00 0.  1.
    9000005    1    3    3    0    0 -0.57036190836E+01 -0.61303715403E+02  0.98205056346E+03  0.98397915933E+03  0.10000000000E+01 0.  0.
    9000005    1    3    3    0    0  0.23614938125E+02  0.60186543131E+02  0.10864786227E+04  0.10884010671E+04  0.10000000000E+01 0.  0.
<mgrwt>
<rscale>  0 0.11667890E+03</rscale>
<asrwt>0</asrwt>
<pdfrwt beam="1">  1        2 0.51847642E+00 0.12628067E+03</pdfrwt>
<pdfrwt beam="2">  1       -2 0.54691439E-03 0.12628067E+03</pdfrwt>
<totfact> 0.63427371E+03</totfact>
</mgrwt>
</event>
<event>
 8    3  0.7944584E-004  0.1355783E+03  0.7818608E-02  0.1231169E+00
          2   -1    0    0  501    0  0.00000000000E+00  0.00000000000E+00  0.17360231738E+03  0.17360231740E+03  0.25500000000E-02 0. -1.
         -2   -1    0    0    0  501 -0.00000000000E+00 -0.00000000000E+00 -0.10739191393E+03  0.10739191396E+03  0.25500000000E-02 0.  1.
         25    2    1    2    0    0  0.43558420183E+01 -0.52313481131E+02 -0.28731593204E+02  0.13858922546E+03  0.12500318115E+03 0.  0.
         23    2    1    2    0    0 -0.43558420183E+01  0.52313481131E+02  0.94941996658E+02  0.14240500591E+03  0.92247110038E+02 0.  0.
        -13    1    4    4    0    0  0.14804553752E+02  0.36082352980E+02  0.10747999719E+03  0.11433753526E+03  0.10566000000E+00 0. -1.
         13    1    4    4    0    0 -0.19160395770E+02  0.16231128151E+02 -0.12538000535E+02  0.28067470648E+02  0.10566000000E+00 0.  1.
    9000005    1    3    3    0    0 -0.42734821845E+02 -0.53850271634E+02 -0.51834883242E+02  0.86104424241E+02  0.10000000000E+01 0.  0.
    9000005    1    3    3    0    0  0.47090663863E+02  0.15367905023E+01  0.23103290037E+02  0.52484801216E+02  0.10000000000E+01 0.  0.
<mgrwt>
<rscale>  0 0.12752929E+03</rscale>
<asrwt>0</asrwt>
<pdfrwt beam="1">  1        2 0.26708048E-01 0.13557828E+03</pdfrwt>
<pdfrwt beam="2">  1       -2 0.16521833E-01 0.13557828E+03</pdfrwt>
<totfact> 0.55417966E+03</totfact>
</mgrwt>
</event>
<event>
 8    3  0.7944584E-004  0.1403688E+03  0.7818608E-02  0.1223626E+00
         -2   -1    0    0    0  501 -0.00000000000E+00  0.00000000000E+00  0.55402434625E+02  0.55402434684E+02  0.25500000000E-02 0.  1.
          2   -1    0    0  501    0  0.00000000000E+00 -0.00000000000E+00 -0.28707132669E+03  0.28707132670E+03  0.25500000000E-02 0. -1.
         25    2    1    2    0    0  0.59043826793E+02  0.24269693609E+02 -0.13134338754E+03  0.19223550036E+03  0.12501284190E+03 0.  0.
         23    2    1    2    0    0 -0.59043826793E+02 -0.24269693609E+02 -0.10032550452E+03  0.15023826102E+03  0.91821221432E+02 0.  0.
        -13    1    4    4    0    0 -0.59377979249E+02 -0.53355165142E+02 -0.87516319562E+02  0.11845520428E+03  0.10566000000E+00 0.  1.
         13    1    4    4    0    0  0.33415245673E+00  0.29085471533E+02 -0.12809184963E+02  0.31783056738E+02  0.10566000000E+00 0. -1.
    9000005    1    3    3    0    0  0.60622053828E+02  0.63680351590E+02 -0.12414562679E+03  0.15212940952E+03  0.10000000000E+01 0.  0.
    9000005    1    3    3    0    0 -0.15782270356E+01 -0.39410657981E+02 -0.71977607427E+01  0.40106090844E+02  0.10000000000E+01 0.  0.
<mgrwt>
<rscale>  0 0.13261547E+03</rscale>
<asrwt>0</asrwt>
<pdfrwt beam="2">  1        2 0.44164819E-01 0.14036881E+03</pdfrwt>
<pdfrwt beam="1">  1       -2 0.85234516E-02 0.14036881E+03</pdfrwt>
<totfact> 0.93177988E+03</totfact>
</mgrwt>
</event>
<event>
 8    3  0.7944584E-004  0.1544378E+03  0.7818608E-02  0.1208338E+00
         -2   -1    0    0    0  501 -0.00000000000E+00  0.00000000000E+00  0.16040691580E+03  0.16040691582E+03  0.25500000000E-02 0.  1.
          2   -1    0    0  501    0  0.00000000000E+00 -0.00000000000E+00 -0.11568920850E+03  0.11568920852E+03  0.25500000000E-02 0. -1.
         25    2    1    2    0    0  0.75523777524E+02 -0.50222019296E+02  0.89188633751E+01  0.15469513632E+03  0.12499978753E+03 0.  0.
         23    2    1    2    0    0 -0.75523777524E+02  0.50222019296E+02  0.35798843930E+02  0.12140098802E+03  0.72322544708E+02 0.  0.
        -13    1    4    4    0    0 -0.37547552849E+02  0.28792975600E+02  0.56025584857E+02  0.73333017744E+02  0.10566000000E+00 0.  1.
         13    1    4    4    0    0 -0.37976224675E+02  0.21429043697E+02 -0.20226740927E+02  0.48067970280E+02  0.10566000000E+00 0. -1.
    9000005    1    3    3    0    0  0.54764838240E+02  0.21589864988E+02  0.42628518607E+02  0.72687690679E+02  0.10000000000E+01 0.  0.
    9000005    1    3    3    0    0  0.20758939284E+02 -0.71811884285E+02 -0.33709655232E+02  0.82007445641E+02  0.10000000000E+01 0.  0.
<mgrwt>
<rscale>  0 0.14377465E+03</rscale>
<asrwt>0</asrwt>
<pdfrwt beam="2">  1        2 0.17798340E-01 0.15443782E+03</pdfrwt>
<pdfrwt beam="1">  1       -2 0.24677987E-01 0.15443782E+03</pdfrwt>
<totfact> 0.44578650E+03</totfact>
</mgrwt>
</event>
<event>
 8    3  0.7944584E-004  0.1360532E+03  0.7818608E-02  0.1231513E+00
         -2   -1    0    0    0  501 -0.00000000000E+00  0.00000000000E+00  0.54784862301E+02  0.54784862360E+02  0.25500000000E-02 0.  1.
          2   -1    0    0  501    0  0.00000000000E+00 -0.00000000000E+00 -0.26438366821E+03  0.26438366823E+03  0.25500000000E-02 0. -1.
         25    2    1    2    0    0 -0.24911772697E+02 -0.47575956323E+02 -0.12724779866E+03  0.18628597726E+03  0.12500557996E+03 0.  0.
         23    2    1    2    0    0  0.24911772697E+02  0.47575956323E+02 -0.82351007249E+02  0.13288255332E+03  0.89398079084E+02 0.  0.
        -13    1    4    4    0    0  0.33016945414E+02 -0.18338721990E+02 -0.32798935103E+02  0.50022082290E+02  0.10566000000E+00 0.  1.
         13    1    4    4    0    0 -0.81051727167E+01  0.65914678313E+02 -0.49552072146E+02  0.82860471033E+02  0.10566000000E+00 0. -1.
    9000005    1    3    3    0    0 -0.24446194933E+02 -0.71243851735E+02 -0.14029412195E+03  0.15923800900E+03  0.10000000000E+01 0.  0.
    9000005    1    3    3    0    0 -0.46557776484E+00  0.23667895412E+02  0.13046323286E+02  0.27047968263E+02  0.10000000000E+01 0.  0.
<mgrwt>
<rscale>  0 0.12730356E+03</rscale>
<asrwt>0</asrwt>
<pdfrwt beam="2">  1        2 0.40674410E-01 0.13605316E+03</pdfrwt>
<pdfrwt beam="1">  1       -2 0.84284405E-02 0.13605316E+03</pdfrwt>
<totfact> 0.10323134E+04</totfact>
</mgrwt>
</event>
<event>
 8    3  0.7944584E-004  0.1356374E+03  0.7818608E-02  0.1233295E+00
         -2   -1    0    0    0  501 -0.00000000000E+00  0.00000000000E+00  0.11593663951E+02  0.11593664232E+02  0.25500000000E-02 0.  1.
          2   -1    0    0  501    0  0.00000000000E+00 -0.00000000000E+00 -0.16442030730E+04  0.16442030730E+04  0.25500000000E-02 0. -1.
         25    2    1    2    0    0  0.51125159178E+02  0.12721877193E+02 -0.48195718702E+03  0.50067977960E+03  0.12498753344E+03 0.  0.
         23    2    1    2    0    0 -0.51125159178E+02 -0.12721877193E+02 -0.11506522221E+04  0.11551169577E+04  0.86712292680E+02 0.  0.
        -13    1    4    4    0    0 -0.48083426705E+02 -0.42020693567E+02 -0.54137830869E+03  0.54513139599E+03  0.10566000000E+00 0.  1.
         13    1    4    4    0    0 -0.30417324735E+01  0.29298816374E+02 -0.60927391338E+03  0.60998556169E+03  0.10566000000E+00 0. -1.
    9000005    1    3    3    0    0  0.31856029391E+02 -0.45236205064E+02 -0.36054424157E+03  0.36476604966E+03  0.10000000000E+01 0.  0.
    9000005    1    3    3    0    0  0.19269129788E+02  0.57958082257E+02 -0.12141294545E+03  0.13591372994E+03  0.10000000000E+01 0.  0.
<mgrwt>
<rscale>  0 0.12614240E+03</rscale>
<asrwt>0</asrwt>
<pdfrwt beam="2">  1        2 0.25295413E+00 0.13563743E+03</pdfrwt>
<pdfrwt beam="1">  1       -2 0.17836419E-02 0.13563743E+03</pdfrwt>
<totfact> 0.10221486E+04</totfact>
</mgrwt>
</event>
<event>
 8    3  0.7944584E-004  0.3444465E+03  0.7818608E-02  0.1066124E+00
          2   -1    0    0  501    0  0.00000000000E+00  0.00000000000E+00  0.15795779045E+04  0.15795779045E+04  0.25500000000E-02 0. -1.
         -2   -1    0    0    0  501 -0.00000000000E+00 -0.00000000000E+00 -0.10868549041E+03  0.10868549044E+03  0.25500000000E-02 0.  1.
         25    2    1    2    0    0  0.23315535335E+03 -0.22058184513E+03  0.12295757115E+04  0.12769102673E+04  0.12500252466E+03 0.  0.
         23    2    1    2    0    0 -0.23315535335E+03  0.22058184513E+03  0.24131670263E+03  0.41135312771E+03  0.89218134394E+02 0.  0.
        -13    1    4    4    0    0 -0.21021695435E+03  0.16226880900E+03  0.22096767992E+03  0.34546933439E+03  0.10566000000E+00 0.  1.
         13    1    4    4    0    0 -0.22938399000E+02  0.58313036138E+02  0.20349022709E+02  0.65883793314E+02  0.10566000000E+00 0. -1.
    9000005    1    3    3    0    0  0.10650266085E+03 -0.24107593827E+02  0.44862570707E+03  0.46172504577E+03  0.10000000000E+01 0.  0.
    9000005    1    3    3    0    0  0.12665269250E+03 -0.19647425131E+03  0.78095000443E+03  0.81518522151E+03  0.10000000000E+01 0.  0.
<mgrwt>
<rscale>  0 0.34158263E+03</rscale>
<asrwt>0</asrwt>
<pdfrwt beam="1">  1        2 0.24301199E+00 0.34444651E+03</pdfrwt>
<pdfrwt beam="2">  1       -2 0.16720844E-01 0.34444651E+03</pdfrwt>
<totfact> 0.35103199E+02</totfact>
</mgrwt>
</event>
<event>
 8    3  0.7944584E-004  0.1443387E+03  0.7818608E-02  0.1217324E+00
         -2   -1    0    0    0  501 -0.00000000000E+00  0.00000000000E+00  0.33735526814E+02  0.33735526910E+02  0.25500000000E-02 0. -1.
          2   -1    0    0  501    0  0.00000000000E+00 -0.00000000000E+00 -0.62289115547E+03  0.62289115548E+03  0.25500000000E-02 0.  1.
         25    2    1    2    0    0 -0.36256115175E+02 -0.62405489483E+02 -0.17869269289E+03  0.22970574066E+03  0.12499879116E+03 0.  0.
         23    2    1    2    0    0  0.36256115175E+02  0.62405489483E+02 -0.41046293577E+03  0.42692094173E+03  0.92588972590E+02 0.  0.
        -13    1    4    4    0    0  0.14490608150E+02  0.38145962366E+02 -0.38039488236E+03  0.38257727305E+03  0.10566000000E+00 0.  1.
         13    1    4    4    0    0  0.21765507024E+02  0.24259527117E+02 -0.30068053412E+02  0.44343668680E+02  0.10566000000E+00 0. -1.
    9000005    1    3    3    0    0  0.26772160261E+02 -0.23582905584E+02  0.63514665927E+00  0.35697414642E+02  0.10000000000E+01 0.  0.
    9000005    1    3    3    0    0 -0.63028275435E+02 -0.38822583899E+02 -0.17932783955E+03  0.19400832601E+03  0.10000000000E+01 0.  0.
<mgrwt>
<rscale>  0 0.13707231E+03</rscale>
<asrwt>0</asrwt>
<pdfrwt beam="2">  1        2 0.95829400E-01 0.14433866E+03</pdfrwt>
<pdfrwt beam="1">  1       -2 0.51900815E-02 0.14433866E+03</pdfrwt>
<totfact> 0.85874758E+03</totfact>
</mgrwt>
</event>
<event>
 8    3  0.7944584E-004  0.2332700E+03  0.7818608E-02  0.1127273E+00
          2   -1    0    0  501    0  0.00000000000E+00  0.00000000000E+00  0.19547659764E+04  0.19547659764E+04  0.25500000000E-02 0. -1.
         -2   -1    0    0    0  501 -0.00000000000E+00 -0.00000000000E+00 -0.29897046019E+02  0.29897046128E+02  0.25500000000E-02 0.  1.
         25    2    1    2    0    0 -0.19568653134E+03 -0.22267030281E+02  0.13535852437E+04  0.13735384647E+04  0.12500345163E+03 0.  0.
         23    2    1    2    0    0  0.19568653134E+03  0.22267030281E+02  0.57128368677E+03  0.61112455789E+03  0.91209293985E+02 0.  0.
        -13    1    4    4    0    0  0.14144457190E+03 -0.26561142220E+02  0.38949296848E+03  0.41523107405E+03  0.10566000000E+00 0.  1.
         13    1    4    4    0    0  0.54241959442E+02  0.48828172501E+02  0.18179071829E+03  0.19589348384E+03  0.10566000000E+00 0. -1.
    9000005    1    3    3    0    0 -0.11313522045E+03  0.18833590868E+02  0.10502377762E+04  0.10564822142E+04  0.10000000000E+01 0.  0.
    9000005    1    3    3    0    0 -0.82551310888E+02 -0.41100621149E+02  0.30334746744E+03  0.31705625052E+03  0.10000000000E+01 0.  0.
<mgrwt>
<rscale>  0 0.22910324E+03</rscale>
<asrwt>0</asrwt>
<pdfrwt beam="1">  1        2 0.30073321E+00 0.23327002E+03</pdfrwt>
<pdfrwt beam="2">  1       -2 0.45995458E-02 0.23327002E+03</pdfrwt>
<totfact> 0.17495862E+03</totfact>
</mgrwt>
</event>
<event>
 8    3  0.7944584E-004  0.2110857E+03  0.7818608E-02  0.1144597E+00
          2   -1    0    0  501    0  0.00000000000E+00  0.00000000000E+00  0.22651260724E+03  0.22651260725E+03  0.25500000000E-02 0. -1.
         -2   -1    0    0    0  501 -0.00000000000E+00 -0.00000000000E+00 -0.21630238768E+03  0.21630238770E+03  0.25500000000E-02 0.  1.
         25    2    1    2    0    0  0.14899139685E+03 -0.82066345254E+02  0.96458373855E+02  0.23208059098E+03  0.12499544578E+03 0.  0.
         23    2    1    2    0    0 -0.14899139685E+03  0.82066345254E+02 -0.86248154298E+02  0.21073440397E+03  0.89648890344E+02 0.  0.
        -13    1    4    4    0    0 -0.58535949989E+02  0.13623098299E+02 -0.75926558753E+02  0.96834393355E+02  0.10566000000E+00 0.  1.
         13    1    4    4    0    0 -0.90455446856E+02  0.68443246955E+02 -0.10321595546E+02  0.11390001062E+03  0.10566000000E+00 0. -1.
    9000005    1    3    3    0    0  0.63500191544E+02 -0.59367567108E+02  0.11250292499E+03  0.14217837558E+03  0.10000000000E+01 0.  0.
    9000005    1    3    3    0    0  0.85491205301E+02 -0.22698778146E+02 -0.16044551138E+02  0.89902215403E+02  0.10000000000E+01 0.  0.
<mgrwt>
<rscale>  0 0.20621758E+03</rscale>
<asrwt>0</asrwt>
<pdfrwt beam="1">  1        2 0.34848093E-01 0.21108572E+03</pdfrwt>
<pdfrwt beam="2">  1       -2 0.33277291E-01 0.21108572E+03</pdfrwt>
<totfact> 0.12482070E+03</totfact>
</mgrwt>
</event>
<event>
 8    3  0.7944584E-004  0.1716293E+03  0.7818608E-02  0.1182524E+00
         -2   -1    0    0    0  501 -0.00000000000E+00  0.00000000000E+00  0.65639946266E+02  0.65639946316E+02  0.25500000000E-02 0.  1.
          2   -1    0    0  501    0  0.00000000000E+00 -0.00000000000E+00 -0.39539513952E+03  0.39539513953E+03  0.25500000000E-02 0. -1.
         25    2    1    2    0    0 -0.91242068579E+02 -0.74202857663E+02 -0.20112710690E+03  0.26440262152E+03  0.12500181588E+03 0.  0.
         23    2    1    2    0    0  0.91242068579E+02  0.74202857663E+02 -0.12862808636E+03  0.19663246433E+03  0.91038246157E+02 0.  0.
        -13    1    4    4    0    0  0.15020227878E+02  0.67920385479E+02 -0.42804970892E+02  0.81676573791E+02  0.10566000000E+00 0.  1.
         13    1    4    4    0    0  0.76221840701E+02  0.62824721837E+01 -0.85823115465E+02  0.11495589054E+03  0.10566000000E+00 0. -1.
    9000005    1    3    3    0    0 -0.10161715967E+02 -0.81786702729E+02 -0.14043246222E+03  0.16283304843E+03  0.10000000000E+01 0.  0.
    9000005    1    3    3    0    0 -0.81080352612E+02  0.75838450660E+01 -0.60694644678E+02  0.10156957309E+03  0.10000000000E+01 0.  0.
<mgrwt>
<rscale>  0 0.16559213E+03</rscale>
<asrwt>0</asrwt>
<pdfrwt beam="2">  1        2 0.60830020E-01 0.17162935E+03</pdfrwt>
<pdfrwt beam="1">  1       -2 0.10098454E-01 0.17162935E+03</pdfrwt>
<totfact> 0.51398739E+03</totfact>
</mgrwt>
</event>
<event>
 8    3  0.7944584E-004  0.1588940E+03  0.7818608E-02  0.1197811E+00
         -2   -1    0    0    0  501 -0.00000000000E+00  0.00000000000E+00  0.59020309562E+02  0.59020309617E+02  0.25500000000E-02 0.  1.
          2   -1    0    0  501    0  0.00000000000E+00 -0.00000000000E+00 -0.36308857667E+03  0.36308857668E+03  0.25500000000E-02 0. -1.
         25    2    1    2    0    0 -0.28586996703E+01  0.98053384447E+02 -0.17218727783E+03  0.23429844091E+03  0.12499864960E+03 0.  0.
         23    2    1    2    0    0  0.28586996703E+01 -0.98053384447E+02 -0.13188098928E+03  0.18781044539E+03  0.90870950794E+02 0.  0.
        -13    1    4    4    0    0 -0.51960873660E+01 -0.65200440041E+02 -0.13865935298E+03  0.15331185225E+03  0.10566000000E+00 0. -1.
         13    1    4    4    0    0  0.80547870363E+01 -0.32852944406E+02  0.67783637017E+01  0.34498593143E+02  0.10566000000E+00 0.  1.
    9000005    1    3    3    0    0  0.42316775176E+02  0.21566252163E+02 -0.87897098049E+01  0.48312231289E+02  0.10000000000E+01 0.  0.
    9000005    1    3    3    0    0 -0.45175474846E+02  0.76487132284E+02 -0.16339756803E+03  0.18598620962E+03  0.10000000000E+01 0.  0.
<mgrwt>
<rscale>  0 0.15218683E+03</rscale>
<asrwt>0</asrwt>
<pdfrwt beam="2">  1        2 0.55859780E-01 0.15889399E+03</pdfrwt>
<pdfrwt beam="1">  1       -2 0.90800479E-02 0.15889399E+03</pdfrwt>
<totfact> 0.66295847E+03</totfact>
</mgrwt>
</event>
<event>
 8    3  0.7944584E-004  0.1955678E+03  0.7818608E-02  0.1157968E+00
         -2   -1    0    0    0  501 -0.00000000000E+00  0.00000000000E+00  0.32676585655E+02  0.32676585754E+02  0.25500000000E-02 0.  1.
          2   -1    0    0  501    0  0.00000000000E+00 -0.00000000000E+00 -0.10580383459E+04  0.10580383459E+04  0.25500000000E-02 0. -1.
         25    2    1    2    0    0 -0.48791416243E+02 -0.14227012970E+03 -0.54902646331E+03  0.58281798689E+03  0.12500142530E+03 0.  0.
         23    2    1    2    0    0  0.48791416243E+02  0.14227012970E+03 -0.47633529692E+03  0.50789694475E+03  0.91883618181E+02 0.  0.
        -13    1    4    4    0    0  0.64972950584E+02  0.12448325314E+03 -0.45347641322E+03  0.47471932037E+03  0.10566000000E+00 0. -1.
         13    1    4    4    0    0 -0.16181534342E+02  0.17786876562E+02 -0.22858883695E+02  0.33177624377E+02  0.10566000000E+00 0.  1.
    9000005    1    3    3    0    0  0.43294459467E+01  0.21630198798E+02 -0.44396151123E+02  0.49584552400E+02  0.10000000000E+01 0.  0.
    9000005    1    3    3    0    0 -0.53120862189E+02 -0.16390032850E+03 -0.50463031219E+03  0.53323343449E+03  0.10000000000E+01 0.  0.
<mgrwt>
<rscale>  0 0.19054831E+03</rscale>
<asrwt>0</asrwt>
<pdfrwt beam="2">  1        2 0.16277510E+00 0.19556776E+03</pdfrwt>
<pdfrwt beam="1">  1       -2 0.50271678E-02 0.19556776E+03</pdfrwt>
<totfact> 0.46523315E+03</totfact>
</mgrwt>
</event>
<event>
 8    3  0.7944584E-004  0.1608077E+03  0.7818608E-02  0.1195376E+00
         -2   -1    0    0    0  501 -0.00000000000E+00  0.00000000000E+00  0.12959478947E+03  0.12959478950E+03  0.25500000000E-02 0. -1.
          2   -1    0    0  501    0  0.00000000000E+00 -0.00000000000E+00 -0.31025677322E+03  0.31025677323E+03  0.25500000000E-02 0.  1.
         25    2    1    2    0    0 -0.94042539017E+02  0.37284106498E+02  0.53128519798E+02  0.16935684718E+03  0.12499999331E+03 0.  0.
         23    2    1    2    0    0  0.94042539017E+02 -0.37284106498E+02 -0.23379050354E+03  0.27049471555E+03  0.90968609140E+02 0.  0.
        -13    1    4    4    0    0  0.21981694360E+01 -0.40725113229E+02 -0.10171794427E+03  0.10958977209E+03  0.10566000000E+00 0.  1.
         13    1    4    4    0    0  0.91844369581E+02  0.34410067310E+01 -0.13207255927E+03  0.16090494345E+03  0.10566000000E+00 0. -1.
    9000005    1    3    3    0    0  0.22988504022E+00  0.43706251344E+02 -0.21712791953E+02  0.48813262420E+02  0.10000000000E+01 0.  0.
    9000005    1    3    3    0    0 -0.94272424057E+02 -0.64221448457E+01  0.74841311751E+02  0.12054358476E+03  0.10000000000E+01 0.  0.
<mgrwt>
<rscale>  0 0.15422474E+03</rscale>
<asrwt>0</asrwt>
<pdfrwt beam="2">  1        2 0.47731811E-01 0.16080766E+03</pdfrwt>
<pdfrwt beam="1">  1       -2 0.19937660E-01 0.16080766E+03</pdfrwt>
<totfact> 0.21860665E+03</totfact>
</mgrwt>
</event>
<event>
 8    3  0.7944584E-004  0.1291490E+03  0.7818608E-02  0.1242336E+00
          2   -1    0    0  501    0  0.00000000000E+00  0.00000000000E+00  0.37350939658E+04  0.37350939658E+04  0.25500000000E-02 0. -1.
         -2   -1    0    0    0  501 -0.00000000000E+00 -0.00000000000E+00 -0.40241576055E+01  0.40241584135E+01  0.25500000000E-02 0.  1.
         25    2    1    2    0    0  0.22725722265E+02  0.23194119104E+02  0.13837728229E+04  0.13897865662E+04  0.12500019466E+03 0.  0.
         23    2    1    2    0    0 -0.22725722265E+02 -0.23194119104E+02  0.23472969853E+04  0.23493315580E+04  0.92201987791E+02 0.  0.
        -13    1    4    4    0    0 -0.12298948045E+02 -0.21413271008E+02  0.23188488895E+04  0.23189803741E+04  0.10566000000E+00 0. -1.
         13    1    4    4    0    0 -0.10426774220E+02 -0.17808480953E+01  0.28448095847E+02  0.30351183864E+02  0.10566000000E+00 0.  1.
    9000005    1    3    3    0    0 -0.24948367099E+02  0.62324806338E+02  0.67189503587E+03  0.67524124706E+03  0.10000000000E+01 0.  0.
    9000005    1    3    3    0    0  0.47674089364E+02 -0.39130687234E+02  0.71187778700E+03  0.71454531914E+03  0.10000000000E+01 0.  0.
<mgrwt>
<rscale>  0 0.12046221E+03</rscale>
<asrwt>0</asrwt>
<pdfrwt beam="1">  1        2 0.57462903E+00 0.12914904E+03</pdfrwt>
<pdfrwt beam="2">  1       -2 0.61910210E-03 0.12914904E+03</pdfrwt>
<totfact> 0.30658138E+03</totfact>
</mgrwt>
</event>
<event>
 8    3  0.7944584E-004  0.1429211E+03  0.7818608E-02  0.1219777E+00
         -2   -1    0    0    0  501 -0.00000000000E+00  0.00000000000E+00  0.91710357262E+02  0.91710357297E+02  0.25500000000E-02 0.  1.
          2   -1    0    0  501    0  0.00000000000E+00 -0.00000000000E+00 -0.18941485019E+03  0.18941485021E+03  0.25500000000E-02 0. -1.
         25    2    1    2    0    0 -0.54462992898E+02  0.42839320562E+02 -0.24681583750E+02  0.14503661122E+03  0.12500005215E+03 0.  0.
         23    2    1    2    0    0  0.54462992898E+02 -0.42839320562E+02 -0.73022909179E+02  0.13608859628E+03  0.91576939190E+02 0.  0.
        -13    1    4    4    0    0  0.19123546615E+02 -0.46053349113E+01  0.20899663659E+02  0.28700631524E+02  0.10566000000E+00 0.  1.
         13    1    4    4    0    0  0.35339446283E+02 -0.38233985651E+02 -0.93922572838E+02  0.10738796476E+03  0.10566000000E+00 0. -1.
    9000005    1    3    3    0    0 -0.65770922764E+02  0.74437548355E+02  0.60492931394E+01  0.99520635216E+02  0.10000000000E+01 0.  0.
    9000005    1    3    3    0    0  0.11307929866E+02 -0.31598227792E+02 -0.30730876889E+02  0.45515976007E+02  0.10000000000E+01 0.  0.
<mgrwt>
<rscale>  0 0.13531428E+03</rscale>
<asrwt>0</asrwt>
<pdfrwt beam="2">  1        2 0.29140746E-01 0.14292109E+03</pdfrwt>
<pdfrwt beam="1">  1       -2 0.14109286E-01 0.14292109E+03</pdfrwt>
<totfact> 0.65482405E+03</totfact>
</mgrwt>
</event>
<event>
 8    3  0.7944584E-004  0.1693858E+03  0.7818608E-02  0.1183758E+00
         -2   -1    0    0    0  501 -0.00000000000E+00  0.00000000000E+00  0.32138970746E+03  0.32138970747E+03  0.25500000000E-02 0.  1.
          2   -1    0    0  501    0  0.00000000000E+00 -0.00000000000E+00 -0.10929121220E+03  0.10929121223E+03  0.25500000000E-02 0. -1.
         25    2    1    2    0    0 -0.28951525489E+02  0.11059079205E+03  0.22270560663E+03  0.27980232837E+03  0.12499216625E+03 0.  0.
         23    2    1    2    0    0  0.28951525489E+02 -0.11059079205E+03 -0.10607111367E+02  0.15087859133E+03  0.97894455395E+02 0.  0.
        -13    1    4    4    0    0  0.37691034744E+02 -0.96087905557E+01  0.21642373644E+02  0.44512318037E+02  0.10566000000E+00 0.  1.
         13    1    4    4    0    0 -0.87395092548E+01 -0.10098200149E+03 -0.32249485011E+02  0.10636627330E+03  0.10566000000E+00 0. -1.
    9000005    1    3    3    0    0  0.45911071802E+02  0.71215223751E+02  0.11505027910E+03  0.14288807273E+03  0.10000000000E+01 0.  0.
    9000005    1    3    3    0    0 -0.74862597291E+02  0.39375568297E+02  0.10765532753E+03  0.13691425564E+03  0.10000000000E+01 0.  0.
<mgrwt>
<rscale>  0 0.16445448E+03</rscale>
<asrwt>0</asrwt>
<pdfrwt beam="2">  1        2 0.16814033E-01 0.16938582E+03</pdfrwt>
<pdfrwt beam="1">  1       -2 0.49444570E-01 0.16938582E+03</pdfrwt>
<totfact> 0.13160052E+03</totfact>
</mgrwt>
</event>
<event>
 8    3  0.7944584E-004  0.1285177E+03  0.7818608E-02  0.1243355E+00
          2   -1    0    0  501    0  0.00000000000E+00  0.00000000000E+00  0.23232370424E+04  0.23232370424E+04  0.25500000000E-02 0. -1.
         -2   -1    0    0    0  501 -0.00000000000E+00 -0.00000000000E+00 -0.78169501534E+01  0.78169505693E+01  0.25500000000E-02 0.  1.
         25    2    1    2    0    0  0.17765004910E+00  0.29867585392E+02  0.63767569716E+03  0.65049758193E+03  0.12499882055E+03 0.  0.
         23    2    1    2    0    0 -0.17765004910E+00 -0.29867585392E+02  0.16777443951E+04  0.16805564110E+04  0.92474273232E+02 0.  0.
        -13    1    4    4    0    0  0.43893614867E+02 -0.26314834527E+02  0.73791348904E+03  0.73968604720E+03  0.10566000000E+00 0.  1.
         13    1    4    4    0    0 -0.44071264916E+02 -0.35527508650E+01  0.93983090602E+03  0.94087036381E+03  0.10566000000E+00 0. -1.
    9000005    1    3    3    0    0  0.27064360110E+02  0.23817916920E+02  0.61121764349E+03  0.61228080197E+03  0.10000000000E+01 0.  0.
    9000005    1    3    3    0    0 -0.26886710061E+02  0.60496684719E+01  0.26458053670E+02  0.38216779960E+02  0.10000000000E+01 0.  0.
<mgrwt>
<rscale>  0 0.11984350E+03</rscale>
<asrwt>0</asrwt>
<pdfrwt beam="1">  1        2 0.35742112E+00 0.12851774E+03</pdfrwt>
<pdfrwt beam="2">  1       -2 0.12026076E-02 0.12851774E+03</pdfrwt>
<totfact> 0.80685753E+03</totfact>
</mgrwt>
</event>
<event>
 8    3  0.7944584E-004  0.1281843E+03  0.7818608E-02  0.1244239E+00
         -2   -1    0    0    0  501 -0.00000000000E+00  0.00000000000E+00  0.53662041074E+01  0.53662047133E+01  0.25500000000E-02 0.  1.
          2   -1    0    0  501    0  0.00000000000E+00 -0.00000000000E+00 -0.35753429112E+04  0.35753429112E+04  0.25500000000E-02 0. -1.
         25    2    1    2    0    0  0.25278424348E+02  0.13011712990E+02 -0.29947810710E+04  0.29975231244E+04  0.12499165786E+03 0.  0.
         23    2    1    2    0    0 -0.25278424348E+02 -0.13011712990E+02 -0.57519563609E+03  0.58318599154E+03  0.91910704135E+02 0.  0.
        -13    1    4    4    0    0 -0.36659052583E+02  0.32389262074E+02 -0.26468003198E+03  0.26916255484E+03  0.10566000000E+00 0.  1.
         13    1    4    4    0    0  0.11380628236E+02 -0.45400975064E+02 -0.31051560411E+03  0.31402343670E+03  0.10566000000E+00 0. -1.
    9000005    1    3    3    0    0  0.20554584575E+02 -0.16243476280E+02 -0.13147237985E+03  0.13406091202E+03  0.10000000000E+01 0.  0.
    9000005    1    3    3    0    0  0.47238397722E+01  0.29255189270E+02 -0.28633086912E+04  0.28634622124E+04  0.10000000000E+01 0.  0.
<mgrwt>
<rscale>  0 0.11931042E+03</rscale>
<asrwt>0</asrwt>
<pdfrwt beam="2">  1        2 0.55005085E+00 0.12818431E+03</pdfrwt>
<pdfrwt beam="1">  1       -2 0.82557277E-03 0.12818431E+03</pdfrwt>
<totfact> 0.26100928E+03</totfact>
</mgrwt>
</event>
<event>
 8    3  0.7944584E-004  0.1428317E+03  0.7818608E-02  0.1220174E+00
          2   -1    0    0  501    0  0.00000000000E+00  0.00000000000E+00  0.14151845358E+04  0.14151845358E+04  0.25500000000E-02 0. -1.
         -2   -1    0    0    0  501 -0.00000000000E+00 -0.00000000000E+00 -0.13440158982E+02  0.13440159224E+02  0.25500000000E-02 0.  1.
         25    2    1    2    0    0  0.69074761876E+02  0.18523046797E+01  0.51044414820E+03  0.53005106216E+03  0.12500458513E+03 0.  0.
         23    2    1    2    0    0 -0.69074761876E+02 -0.18523046797E+01  0.89130022866E+03  0.89857363291E+03  0.90794946935E+02 0.  0.
        -13    1    4    4    0    0  0.25368191262E+01 -0.34358834279E+02  0.32933166814E+03  0.33112886275E+03  0.10566000000E+00 0.  1.
         13    1    4    4    0    0 -0.71611581002E+02  0.32506529599E+02  0.56196856052E+03  0.56744477016E+03  0.10566000000E+00 0. -1.
    9000005    1    3    3    0    0  0.24708000411E+02 -0.16247086123E+02  0.45819727142E+03  0.45915160092E+03  0.10000000000E+01 0.  0.
    9000005    1    3    3    0    0  0.44366761465E+02  0.18099390803E+02  0.52246876774E+02  0.70899461232E+02  0.10000000000E+01 0.  0.
<mgrwt>
<rscale>  0 0.13503256E+03</rscale>
<asrwt>0</asrwt>
<pdfrwt beam="1">  1        2 0.21772075E+00 0.14283172E+03</pdfrwt>
<pdfrwt beam="2">  1       -2 0.20677163E-02 0.14283172E+03</pdfrwt>
<totfact> 0.10875277E+04</totfact>
</mgrwt>
</event>
<event>
 8    3  0.7944584E-004  0.1359131E+03  0.7818608E-02  0.1231673E+00
         -2   -1    0    0    0  501 -0.00000000000E+00  0.00000000000E+00  0.94393671316E+03  0.94393671316E+03  0.25500000000E-02 0.  1.
          2   -1    0    0  501    0  0.00000000000E+00 -0.00000000000E+00 -0.18289328313E+02  0.18289328491E+02  0.25500000000E-02 0. -1.
         25    2    1    2    0    0 -0.43859361577E+02 -0.30392625490E+02  0.31996979708E+03  0.34763925722E+03  0.12500010736E+03 0.  0.
         23    2    1    2    0    0  0.43859361577E+02  0.30392625490E+02  0.60567758777E+03  0.61458678443E+03  0.89578010622E+02 0.  0.
        -13    1    4    4    0    0  0.34933539357E+01 -0.11565349162E+02  0.89756708578E+01  0.15051068212E+02  0.10566000000E+00 0. -1.
         13    1    4    4    0    0  0.40366007641E+02  0.41957974651E+02  0.59670191691E+03  0.59953571622E+03  0.10566000000E+00 0.  1.
    9000005    1    3    3    0    0 -0.35698456508E+02 -0.12319295116E+02  0.32497426428E+03  0.32716267708E+03  0.10000000000E+01 0.  0.
    9000005    1    3    3    0    0 -0.81609050685E+01 -0.18073330373E+02 -0.50044672055E+01  0.20476580143E+02  0.10000000000E+01 0.  0.
<mgrwt>
<rscale>  0 0.12719869E+03</rscale>
<asrwt>0</asrwt>
<pdfrwt beam="2">  1        2 0.28137425E-02 0.13591314E+03</pdfrwt>
<pdfrwt beam="1">  1       -2 0.14522105E+00 0.13591314E+03</pdfrwt>
<totfact> 0.11389453E+03</totfact>
</mgrwt>
</event>
<event>
 8    3  0.7944584E-004  0.1480214E+03  0.7818608E-02  0.1211512E+00
          2   -1    0    0  501    0  0.00000000000E+00  0.00000000000E+00  0.16090839226E+04  0.16090839226E+04  0.25500000000E-02 0.  1.
         -2   -1    0    0    0  501 -0.00000000000E+00 -0.00000000000E+00 -0.12670707735E+02  0.12670707992E+02  0.25500000000E-02 0. -1.
         25    2    1    2    0    0  0.77002775108E+02  0.18866238627E+02  0.61071593136E+03  0.62839818218E+03  0.12499985684E+03 0.  0.
         23    2    1    2    0    0 -0.77002775108E+02 -0.18866238627E+02  0.98569728345E+03  0.99335644837E+03  0.94194142976E+02 0.  0.
        -13    1    4    4    0    0 -0.84837409078E+01 -0.28746853987E+02  0.87419627201E+02  0.92415138684E+02  0.10566000000E+00 0. -1.
         13    1    4    4    0    0 -0.68519034200E+02  0.98806153606E+01  0.89827765625E+03  0.90094130968E+03  0.10566000000E+00 0.  1.
    9000005    1    3    3    0    0  0.52988623929E+02 -0.45030502523E+02  0.42246911767E+03  0.42815499040E+03  0.10000000000E+01 0.  0.
    9000005    1    3    3    0    0  0.24014151178E+02  0.63896741150E+02  0.18824681369E+03  0.20024319177E+03  0.10000000000E+01 0.  0.
<mgrwt>
<rscale>  0 0.14135891E+03</rscale>
<asrwt>0</asrwt>
<pdfrwt beam="1">  1        2 0.24755146E+00 0.14802137E+03</pdfrwt>
<pdfrwt beam="2">  1       -2 0.19493390E-02 0.14802137E+03</pdfrwt>
<totfact> 0.93993280E+03</totfact>
</mgrwt>
</event>
<event>
 8    3  0.7944584E-004  0.2236900E+03  0.7818608E-02  0.1133931E+00
         -2   -1    0    0    0  501 -0.00000000000E+00  0.00000000000E+00  0.20604432411E+03  0.20604432412E+03  0.25500000000E-02 0. -1.
          2   -1    0    0  501    0  0.00000000000E+00 -0.00000000000E+00 -0.22778690200E+03  0.22778690201E+03  0.25500000000E-02 0.  1.
         25    2    1    2    0    0  0.39660535211E+02  0.18121638087E+03 -0.22134014652E+02  0.22478239931E+03  0.12499951074E+03 0.  0.
         23    2    1    2    0    0 -0.39660535211E+02 -0.18121638087E+03  0.39143676021E+00  0.20904882682E+03  0.96379064241E+02 0.  0.
        -13    1    4    4    0    0 -0.59442627338E+02 -0.63028538115E+02 -0.15995427754E+02  0.88101574531E+02  0.10566000000E+00 0.  1.
         13    1    4    4    0    0  0.19782092127E+02 -0.11818784276E+03  0.16386864514E+02  0.12094725229E+03  0.10566000000E+00 0. -1.
    9000005    1    3    3    0    0  0.12615291140E+02 -0.17542118763E+02 -0.99807548370E+01  0.23821984979E+02  0.10000000000E+01 0.  0.
    9000005    1    3    3    0    0  0.27045244071E+02  0.19875849963E+03 -0.12153259815E+02  0.20096041433E+03  0.10000000000E+01 0.  0.
<mgrwt>
<rscale>  0 0.21993617E+03</rscale>
<asrwt>0</asrwt>
<pdfrwt beam="2">  1        2 0.35044139E-01 0.22368999E+03</pdfrwt>
<pdfrwt beam="1">  1       -2 0.31699127E-01 0.22368999E+03</pdfrwt>
<totfact> 0.13584089E+03</totfact>
</mgrwt>
</event>
<event>
 8    3  0.7944584E-004  0.1397823E+03  0.7818608E-02  0.1219451E+00
         -2   -1    0    0    0  501 -0.00000000000E+00  0.00000000000E+00  0.48572162520E+02  0.48572162587E+02  0.25500000000E-02 0.  1.
          2   -1    0    0  501    0  0.00000000000E+00 -0.00000000000E+00 -0.35729359191E+03  0.35729359192E+03  0.25500000000E-02 0. -1.
         25    2    1    2    0    0 -0.51879132711E+02  0.34951801478E+02 -0.15827557429E+03  0.21116405518E+03  0.12500411172E+03 0.  0.
         23    2    1    2    0    0  0.51879132711E+02 -0.34951801478E+02 -0.15044585510E+03  0.19470169933E+03  0.10659138598E+03 0.  0.
        -13    1    4    4    0    0  0.76577563972E+02 -0.12235036229E+02 -0.13913967857E+03  0.15929118222E+03  0.10566000000E+00 0. -1.
         13    1    4    4    0    0 -0.24698431261E+02 -0.22716765249E+02 -0.11306176535E+02  0.35410517110E+02  0.10566000000E+00 0.  1.
    9000005    1    3    3    0    0 -0.27579409505E+02 -0.45816476251E+02 -0.44785420225E+02  0.69760355428E+02  0.10000000000E+01 0.  0.
    9000005    1    3    3    0    0 -0.24299723206E+02  0.80768277729E+02 -0.11349015407E+03  0.14140369976E+03  0.10000000000E+01 0.  0.
<mgrwt>
<rscale>  0 0.13554582E+03</rscale>
<asrwt>0</asrwt>
<pdfrwt beam="2">  1        2 0.54968243E-01 0.13978233E+03</pdfrwt>
<pdfrwt beam="1">  1       -2 0.74726406E-02 0.13978233E+03</pdfrwt>
<totfact> 0.90490134E+03</totfact>
</mgrwt>
</event>
<event>
 8    3  0.7944584E-004  0.1352656E+03  0.7818608E-02  0.1231405E+00
         -2   -1    0    0    0  501 -0.00000000000E+00  0.00000000000E+00  0.10343455250E+02  0.10343455564E+02  0.25500000000E-02 0.  1.
          2   -1    0    0  501    0  0.00000000000E+00 -0.00000000000E+00 -0.14895954964E+04  0.14895954964E+04  0.25500000000E-02 0. -1.
         25    2    1    2    0    0  0.28890615819E+02  0.42860738657E+02 -0.65242988834E+03  0.66630440118E+03  0.12500034092E+03 0.  0.
         23    2    1    2    0    0 -0.28890615819E+02 -0.42860738657E+02 -0.82682215277E+03  0.83363455075E+03  0.92951499665E+02 0.  0.
        -13    1    4    4    0    0 -0.22037307079E+02 -0.45928546339E+02 -0.82406035708E+03  0.82563342807E+03  0.10566000000E+00 0. -1.
         13    1    4    4    0    0 -0.68533087405E+01  0.30678076819E+01 -0.27617956918E+01  0.80011226803E+01  0.10566000000E+00 0.  1.
    9000005    1    3    3    0    0 -0.27402421472E+01 -0.36867511339E+02 -0.88936253412E+02  0.96319154327E+02  0.10000000000E+01 0.  0.
    9000005    1    3    3    0    0  0.31630857966E+02  0.79728249997E+02 -0.56349363493E+03  0.56998524685E+03  0.10000000000E+01 0.  0.
<mgrwt>
<rscale>  0 0.12737423E+03</rscale>
<asrwt>0</asrwt>
<pdfrwt beam="2">  1        2 0.22916837E+00 0.13526565E+03</pdfrwt>
<pdfrwt beam="1">  1       -2 0.15913020E-02 0.13526565E+03</pdfrwt>
<totfact> 0.14489701E+04</totfact>
</mgrwt>
</event>
<event>
 8    3  0.7944584E-004  0.1268865E+03  0.7818608E-02  0.1245657E+00
         -2   -1    0    0    0  501 -0.00000000000E+00  0.00000000000E+00  0.16267461064E+03  0.16267461066E+03  0.25500000000E-02 0.  1.
          2   -1    0    0  501    0  0.00000000000E+00 -0.00000000000E+00 -0.80595821582E+02  0.80595821623E+02  0.25500000000E-02 0. -1.
         25    2    1    2    0    0  0.14407993427E+02  0.16344604555E+02  0.19584793477E+02  0.12838900355E+03  0.12500174289E+03 0.  0.
         23    2    1    2    0    0 -0.14407993427E+02 -0.16344604555E+02  0.62493995578E+02  0.11488142873E+03  0.93901580448E+02 0.  0.
        -13    1    4    4    0    0 -0.24535772322E+01  0.33134032782E+02  0.53813937483E+02  0.63244250340E+02  0.10566000000E+00 0.  1.
         13    1    4    4    0    0 -0.11954416195E+02 -0.49478637337E+02  0.86800580950E+01  0.51637178388E+02  0.10566000000E+00 0. -1.
    9000005    1    3    3    0    0  0.15300357502E+02 -0.18276945399E+02  0.66165745958E+02  0.70335294205E+02  0.10000000000E+01 0.  0.
    9000005    1    3    3    0    0 -0.89236407535E+00  0.34621549954E+02 -0.46580952481E+02  0.58053709347E+02  0.10000000000E+01 0.  0.
<mgrwt>
<rscale>  0 0.11846131E+03</rscale>
<asrwt>0</asrwt>
<pdfrwt beam="2">  1        2 0.12399357E-01 0.12688645E+03</pdfrwt>
<pdfrwt beam="1">  1       -2 0.25026863E-01 0.12688645E+03</pdfrwt>
<totfact> 0.65592891E+03</totfact>
</mgrwt>
</event>
<event>
 8    3  0.7944584E-004  0.1356063E+03  0.7818608E-02  0.1232694E+00
          2   -1    0    0  501    0  0.00000000000E+00  0.00000000000E+00  0.40962446233E+03  0.40962446233E+03  0.25500000000E-02 0.  1.
         -2   -1    0    0    0  501 -0.00000000000E+00 -0.00000000000E+00 -0.37126594285E+02  0.37126594373E+02  0.25500000000E-02 0. -1.
         25    2    1    2    0    0  0.50243101421E+02 -0.15507703140E+02  0.15344649545E+03  0.20478013355E+03  0.12499687211E+03 0.  0.
         23    2    1    2    0    0 -0.50243101421E+02  0.15507703140E+02  0.21905137259E+03  0.24197092315E+03  0.88326472358E+02 0.  0.
        -13    1    4    4    0    0  0.32469793027E+01 -0.87447504027E+01  0.15418316402E+03  0.15446511828E+03  0.10566000000E+00 0.  1.
         13    1    4    4    0    0 -0.53490080724E+02  0.24252453543E+02  0.64868208573E+02  0.87505804872E+02  0.10566000000E+00 0. -1.
    9000005    1    3    3    0    0  0.65317317768E+02  0.27854569288E+02  0.13992065665E+03  0.15691086383E+03  0.10000000000E+01 0.  0.
    9000005    1    3    3    0    0 -0.15074216347E+02 -0.43362272428E+02  0.13525838796E+02  0.47869269722E+02  0.10000000000E+01 0.  0.
<mgrwt>
<rscale>  0 0.12653217E+03</rscale>
<asrwt>0</asrwt>
<pdfrwt beam="1">  1        2 0.63019146E-01 0.13560633E+03</pdfrwt>
<pdfrwt beam="2">  1       -2 0.57117840E-02 0.13560633E+03</pdfrwt>
<totfact> 0.11756344E+04</totfact>
</mgrwt>
</event>
<event>
 8    3  0.7944584E-004  0.1338485E+03  0.7818608E-02  0.1235467E+00
         -2   -1    0    0    0  501 -0.00000000000E+00  0.00000000000E+00  0.82023237882E+01  0.82023241846E+01  0.25500000000E-02 0.  1.
          2   -1    0    0  501    0  0.00000000000E+00 -0.00000000000E+00 -0.16946637895E+04  0.16946637895E+04  0.25500000000E-02 0. -1.
         25    2    1    2    0    0 -0.33890859020E+02  0.33787020588E+02 -0.10363955089E+04  0.10450029073E+04  0.12500108938E+03 0.  0.
         23    2    1    2    0    0  0.33890859020E+02 -0.33787020588E+02 -0.65006595685E+03  0.65786320641E+03  0.88927481720E+02 0.  0.
        -13    1    4    4    0    0 -0.19366746127E+02 -0.14486940368E+02 -0.54699332318E+02  0.59807778899E+02  0.10566000000E+00 0.  1.
         13    1    4    4    0    0  0.53257605147E+02 -0.19300080220E+02 -0.59536662454E+03  0.59805542751E+03  0.10566000000E+00 0. -1.
    9000005    1    3    3    0    0  0.16706465990E+01  0.25898588918E+02 -0.96010825629E+03  0.96045946909E+03  0.10000000000E+01 0.  0.
    9000005    1    3    3    0    0 -0.35561505619E+02  0.78884316703E+01 -0.76287252593E+02  0.84543438210E+02  0.10000000000E+01 0.  0.
<mgrwt>
<rscale>  0 0.12474578E+03</rscale>
<asrwt>0</asrwt>
<pdfrwt beam="2">  1        2 0.26071723E+00 0.13384852E+03</pdfrwt>
<pdfrwt beam="1">  1       -2 0.12618973E-02 0.13384852E+03</pdfrwt>
<totfact> 0.15850191E+04</totfact>
</mgrwt>
</event>
<event>
 8    3  0.7944584E-004  0.2311996E+03  0.7818608E-02  0.1128783E+00
         -2   -1    0    0    0  501 -0.00000000000E+00  0.00000000000E+00  0.61152232851E+02  0.61152232904E+02  0.25500000000E-02 0.  1.
          2   -1    0    0  501    0  0.00000000000E+00 -0.00000000000E+00 -0.90504332721E+03  0.90504332721E+03  0.25500000000E-02 0. -1.
         25    2    1    2    0    0 -0.16011385099E+03 -0.11040188540E+03 -0.28203988408E+03  0.36469129295E+03  0.12501288477E+03 0.  0.
         23    2    1    2    0    0  0.16011385099E+03  0.11040188540E+03 -0.56185121028E+03  0.60150426717E+03  0.91134951341E+02 0.  0.
        -13    1    4    4    0    0  0.71512417424E+02  0.98348364039E+02 -0.26686106497E+03  0.29325972399E+03  0.10566000000E+00 0.  1.
         13    1    4    4    0    0  0.88601433565E+02  0.12053521363E+02 -0.29499014531E+03  0.30824454318E+03  0.10566000000E+00 0. -1.
    9000005    1    3    3    0    0 -0.10456537980E+03 -0.12373567867E+03 -0.25344865720E+03  0.30080169325E+03  0.10000000000E+01 0.  0.
    9000005    1    3    3    0    0 -0.55548471189E+02  0.13333793269E+02 -0.28591226887E+02  0.63889599696E+02  0.10000000000E+01 0.  0.
<mgrwt>
<rscale>  0 0.22698069E+03</rscale>
<asrwt>0</asrwt>
<pdfrwt beam="2">  1        2 0.13923743E+00 0.23119957E+03</pdfrwt>
<pdfrwt beam="1">  1       -2 0.94080365E-02 0.23119957E+03</pdfrwt>
<totfact> 0.21993705E+03</totfact>
</mgrwt>
</event>
<event>
 8    3  0.7944584E-004  0.1803425E+03  0.7818608E-02  0.1172434E+00
         -2   -1    0    0    0  501 -0.00000000000E+00  0.00000000000E+00  0.31283049904E+03  0.31283049905E+03  0.25500000000E-02 0.  1.
          2   -1    0    0  501    0  0.00000000000E+00 -0.00000000000E+00 -0.12066462773E+03  0.12066462776E+03  0.25500000000E-02 0. -1.
         25    2    1    2    0    0 -0.16877372763E+00 -0.12999909024E+03 -0.31645078073E+01  0.18037029824E+03  0.12499455360E+03 0.  0.
         23    2    1    2    0    0  0.16877372763E+00  0.12999909024E+03  0.19533037911E+03  0.25312482857E+03  0.94965414151E+02 0.  0.
        -13    1    4    4    0    0  0.41867588411E+02  0.93396519268E+02  0.14939395657E+03  0.18109215940E+03  0.10566000000E+00 0.  1.
         13    1    4    4    0    0 -0.41698814684E+02  0.36602570976E+02  0.45936422536E+02  0.72032669168E+02  0.10566000000E+00 0. -1.
    9000005    1    3    3    0    0  0.11936610998E+02 -0.15345803949E+03 -0.25338952608E+01  0.15394568260E+03  0.10000000000E+01 0.  0.
    9000005    1    3    3    0    0 -0.12105384725E+02  0.23458949250E+02 -0.63061254649E+00  0.26424615635E+02  0.10000000000E+01 0.  0.
<mgrwt>
<rscale>  0 0.17529692E+03</rscale>
<asrwt>0</asrwt>
<pdfrwt beam="2">  1        2 0.18563789E-01 0.18034254E+03</pdfrwt>
<pdfrwt beam="1">  1       -2 0.48127769E-01 0.18034254E+03</pdfrwt>
<totfact> 0.12404892E+03</totfact>
</mgrwt>
</event>
<event>
 8    3  0.7944584E-004  0.1425106E+03  0.7818608E-02  0.1220621E+00
          2   -1    0    0  501    0  0.00000000000E+00  0.00000000000E+00  0.27826345915E+04  0.27826345915E+04  0.25500000000E-02 0. -1.
         -2   -1    0    0    0  501 -0.00000000000E+00 -0.00000000000E+00 -0.67888875377E+01  0.67888880166E+01  0.25500000000E-02 0.  1.
         25    2    1    2    0    0 -0.58535430568E+02 -0.35465185176E+02  0.10217985400E+04  0.10316886736E+04  0.12500034738E+03 0.  0.
         23    2    1    2    0    0  0.58535430568E+02  0.35465185176E+02  0.17540471639E+04  0.17577348059E+04  0.90917647508E+02 0.  0.
        -13    1    4    4    0    0 -0.21830279083E+01  0.44009636857E+02  0.42599105327E+03  0.42826394009E+03  0.10566000000E+00 0.  1.
         13    1    4    4    0    0  0.60718458477E+02 -0.85444516812E+01  0.13280561106E+04  0.13294708658E+04  0.10566000000E+00 0. -1.
    9000005    1    3    3    0    0  0.32100457247E+02  0.37773063080E+01  0.47065036659E+03  0.47175997601E+03  0.10000000000E+01 0.  0.
    9000005    1    3    3    0    0 -0.90635887815E+02 -0.39242491484E+02  0.55114817343E+03  0.55992869758E+03  0.10000000000E+01 0.  0.
<mgrwt>
<rscale>  0 0.13471621E+03</rscale>
<asrwt>0</asrwt>
<pdfrwt beam="1">  1        2 0.42809746E+00 0.14251057E+03</pdfrwt>
<pdfrwt beam="2">  1       -2 0.10444447E-02 0.14251057E+03</pdfrwt>
<totfact> 0.55946835E+03</totfact>
</mgrwt>
</event>
<event>
 8    3  0.7944584E-004  0.1494474E+03  0.7818608E-02  0.1210258E+00
          2   -1    0    0  501    0  0.00000000000E+00  0.00000000000E+00  0.19775271795E+03  0.19775271797E+03  0.25500000000E-02 0. -1.
         -2   -1    0    0    0  501 -0.00000000000E+00 -0.00000000000E+00 -0.99391636656E+02  0.99391636689E+02  0.25500000000E-02 0.  1.
         25    2    1    2    0    0 -0.67434192202E+02 -0.46450703232E+02  0.18466794676E+02  0.15058403566E+03  0.12501796344E+03 0.  0.
         23    2    1    2    0    0  0.67434192202E+02  0.46450703232E+02  0.79894286621E+02  0.14656031900E+03  0.91606724429E+02 0.  0.
        -13    1    4    4    0    0  0.40720618510E+02  0.45096778402E+02  0.97252725354E+02  0.11467341430E+03  0.10566000000E+00 0. -1.
         13    1    4    4    0    0  0.26713573692E+02  0.13539248301E+01 -0.17358438733E+02  0.31886904697E+02  0.10566000000E+00 0.  1.
    9000005    1    3    3    0    0 -0.41135742509E+02 -0.87449550890E+02 -0.44404248273E+01  0.96748595005E+02  0.10000000000E+01 0.  0.
    9000005    1    3    3    0    0 -0.26298449693E+02  0.40998847658E+02  0.22907219503E+02  0.53835440659E+02  0.10000000000E+01 0.  0.
<mgrwt>
<rscale>  0 0.14230725E+03</rscale>
<asrwt>0</asrwt>
<pdfrwt beam="1">  1        2 0.30423495E-01 0.14944741E+03</pdfrwt>
<pdfrwt beam="2">  1       -2 0.15291021E-01 0.14944741E+03</pdfrwt>
<totfact> 0.54953842E+03</totfact>
</mgrwt>
</event>
<event>
 8    3  0.7944584E-004  0.1437672E+03  0.7818608E-02  0.1220528E+00
          2   -1    0    0  501    0  0.00000000000E+00  0.00000000000E+00  0.11094406357E+03  0.11094406360E+03  0.25500000000E-02 0. -1.
         -2   -1    0    0    0  501 -0.00000000000E+00 -0.00000000000E+00 -0.15259356481E+03  0.15259356484E+03  0.25500000000E-02 0.  1.
         25    2    1    2    0    0  0.27940598582E+02 -0.65294103630E+02  0.31070118595E+01  0.14380075783E+03  0.12500002964E+03 0.  0.
         23    2    1    2    0    0 -0.27940598582E+02  0.65294103630E+02 -0.44756513106E+02  0.11973687061E+03  0.85380183295E+02 0.  0.
        -13    1    4    4    0    0 -0.54314351343E+01  0.72613153055E+02 -0.57566941465E+02  0.92823135036E+02  0.10566000000E+00 0.  1.
         13    1    4    4    0    0 -0.22509163447E+02 -0.73190494254E+01  0.12810428360E+02  0.26913735571E+02  0.10566000000E+00 0. -1.
    9000005    1    3    3    0    0  0.16166110828E+02 -0.10082612707E+03  0.17645247169E+02  0.10363206930E+03  0.10000000000E+01 0.  0.
    9000005    1    3    3    0    0  0.11774487753E+02  0.35532023444E+02 -0.14538235309E+02  0.40168688525E+02  0.10000000000E+01 0.  0.
<mgrwt>
<rscale>  0 0.13478198E+03</rscale>
<asrwt>0</asrwt>
<pdfrwt beam="1">  1        2 0.17068318E-01 0.14376719E+03</pdfrwt>
<pdfrwt beam="2">  1       -2 0.23475933E-01 0.14376719E+03</pdfrwt>
<totfact> 0.50803104E+03</totfact>
</mgrwt>
</event>
<event>
 8    3  0.7944584E-004  0.1528438E+03  0.7818608E-02  0.1206661E+00
         -2   -1    0    0    0  501 -0.00000000000E+00  0.00000000000E+00  0.11132771198E+03  0.11132771201E+03  0.25500000000E-02 0.  1.
          2   -1    0    0  501    0  0.00000000000E+00 -0.00000000000E+00 -0.18545394871E+03  0.18545394873E+03  0.25500000000E-02 0. -1.
         25    2    1    2    0    0 -0.35771935440E+02 -0.80349372339E+02 -0.11344097724E+01  0.15284804791E+03  0.12500234343E+03 0.  0.
         23    2    1    2    0    0  0.35771935440E+02  0.80349372339E+02 -0.72991826954E+02  0.14393361283E+03  0.87483856227E+02 0.  0.
        -13    1    4    4    0    0  0.24257308593E+02  0.96062498082E+02 -0.75121301764E+02  0.12433680751E+03  0.10566000000E+00 0. -1.
         13    1    4    4    0    0  0.11514626846E+02 -0.15713125742E+02  0.21294748102E+01  0.19596805327E+02  0.10566000000E+00 0.  1.
    9000005    1    3    3    0    0  0.22562636740E+02  0.23906355708E+02  0.47711509524E+01  0.33231766449E+02  0.10000000000E+01 0.  0.
    9000005    1    3    3    0    0 -0.58334572180E+02 -0.10425572805E+03 -0.59055607248E+01  0.11961628146E+03  0.10000000000E+01 0.  0.
<mgrwt>
<rscale>  0 0.14507331E+03</rscale>
<asrwt>0</asrwt>
<pdfrwt beam="2">  1        2 0.28531377E-01 0.15284384E+03</pdfrwt>
<pdfrwt beam="1">  1       -2 0.17127340E-01 0.15284384E+03</pdfrwt>
<totfact> 0.48929090E+03</totfact>
</mgrwt>
</event>
<event>
 8    3  0.7944584E-004  0.2303054E+03  0.7818608E-02  0.1129326E+00
         -2   -1    0    0    0  501 -0.00000000000E+00  0.00000000000E+00  0.20494931989E+02  0.20494932147E+02  0.25500000000E-02 0.  1.
          2   -1    0    0  501    0  0.00000000000E+00 -0.00000000000E+00 -0.24191216496E+04  0.24191216496E+04  0.25500000000E-02 0. -1.
         25    2    1    2    0    0 -0.27936541836E+02  0.19140367366E+03 -0.11779211364E+04  0.12002244679E+04  0.12499901205E+03 0.  0.
         23    2    1    2    0    0  0.27936541836E+02 -0.19140367366E+03 -0.12207055812E+04  0.12393921139E+04  0.92492590576E+02 0.  0.
        -13    1    4    4    0    0 -0.18728813697E+02 -0.14978458299E+03 -0.80849855087E+03  0.82246951779E+03  0.10566000000E+00 0.  1.
         13    1    4    4    0    0  0.46665355532E+02 -0.41619090668E+02 -0.41220703035E+03  0.41692259611E+03  0.10566000000E+00 0. -1.
    9000005    1    3    3    0    0 -0.53948465149E+02  0.18864254378E+03 -0.90358532788E+03  0.92464257472E+03  0.10000000000E+01 0.  0.
    9000005    1    3    3    0    0  0.26011923313E+02  0.27611298730E+01 -0.27433580855E+03  0.27558189317E+03  0.10000000000E+01 0.  0.
<mgrwt>
<rscale>  0 0.22622375E+03</rscale>
<asrwt>0</asrwt>
<pdfrwt beam="2">  1        2 0.37217234E+00 0.23030538E+03</pdfrwt>
<pdfrwt beam="1">  1       -2 0.31530684E-02 0.23030538E+03</pdfrwt>
<totfact> 0.17522075E+03</totfact>
</mgrwt>
</event>
<event>
 8    3  0.7944584E-004  0.1376426E+03  0.7818608E-02  0.1229589E+00
         -2   -1    0    0    0  501 -0.00000000000E+00  0.00000000000E+00  0.12545967874E+02  0.12545968133E+02  0.25500000000E-02 0.  1.
          2   -1    0    0  501    0  0.00000000000E+00 -0.00000000000E+00 -0.12344920805E+04  0.12344920805E+04  0.25500000000E-02 0. -1.
         25    2    1    2    0    0 -0.46275121239E+02  0.34351547624E+02 -0.54956711530E+03  0.56654171348E+03  0.12499633283E+03 0.  0.
         23    2    1    2    0    0  0.46275121239E+02 -0.34351547624E+02 -0.67237899729E+03  0.68049633512E+03  0.87523313736E+02 0.  0.
        -13    1    4    4    0    0  0.59917426378E+02 -0.51626539026E+02 -0.43779878168E+03  0.44488558295E+03  0.10566000000E+00 0.  1.
         13    1    4    4    0    0 -0.13642305139E+02  0.17274991402E+02 -0.23458021561E+03  0.23561075217E+03  0.10566000000E+00 0. -1.
    9000005    1    3    3    0    0 -0.82565424346E+01 -0.19897820846E+02 -0.11556690749E+02  0.24467342897E+02  0.10000000000E+01 0.  0.
    9000005    1    3    3    0    0 -0.38018578805E+02  0.54249368470E+02 -0.53801042455E+03  0.54207437058E+03  0.10000000000E+01 0.  0.
<mgrwt>
<rscale>  0 0.12857268E+03</rscale>
<asrwt>0</asrwt>
<pdfrwt beam="2">  1        2 0.18992176E+00 0.13764265E+03</pdfrwt>
<pdfrwt beam="1">  1       -2 0.19301499E-02 0.13764265E+03</pdfrwt>
<totfact> 0.15002150E+04</totfact>
</mgrwt>
</event>
<event>
 8    3  0.7944584E-004  0.2092872E+03  0.7818608E-02  0.1145815E+00
         -2   -1    0    0    0  501 -0.00000000000E+00  0.00000000000E+00  0.18238490785E+03  0.18238490787E+03  0.25500000000E-02 0.  1.
          2   -1    0    0  501    0  0.00000000000E+00 -0.00000000000E+00 -0.22184860516E+03  0.22184860517E+03  0.25500000000E-02 0. -1.
         25    2    1    2    0    0 -0.11266851599E+03 -0.12441372107E+03 -0.37422585590E+02  0.21260662969E+03  0.12501264172E+03 0.  0.
         23    2    1    2    0    0  0.11266851599E+03  0.12441372107E+03 -0.20411117140E+01  0.19162688335E+03  0.92432287639E+02 0.  0.
        -13    1    4    4    0    0  0.20601712548E+02 -0.12797246684E+02 -0.99178591058E+01  0.26202579565E+02  0.10566000000E+00 0. -1.
         13    1    4    4    0    0  0.92066803445E+02  0.13721096775E+03  0.78767473918E+01  0.16542430378E+03  0.10566000000E+00 0.  1.
    9000005    1    3    3    0    0 -0.58653108516E+02 -0.59824063774E+01  0.29837394160E+02  0.66085145191E+02  0.10000000000E+01 0.  0.
    9000005    1    3    3    0    0 -0.54015407476E+02 -0.11843131469E+03 -0.67259979750E+02  0.14652148450E+03  0.10000000000E+01 0.  0.
<mgrwt>
<rscale>  0 0.20472220E+03</rscale>
<asrwt>0</asrwt>
<pdfrwt beam="2">  1        2 0.34130555E-01 0.20928719E+03</pdfrwt>
<pdfrwt beam="1">  1       -2 0.28059217E-01 0.20928719E+03</pdfrwt>
<totfact> 0.17411338E+03</totfact>
</mgrwt>
</event>
<event>
 8    3  0.7944584E-004  0.1376112E+03  0.7818608E-02  0.1229006E+00
         -2   -1    0    0    0  501 -0.00000000000E+00  0.00000000000E+00  0.22333054204E+02  0.22333054350E+02  0.25500000000E-02 0.  1.
          2   -1    0    0  501    0  0.00000000000E+00 -0.00000000000E+00 -0.67363856027E+03  0.67363856028E+03  0.25500000000E-02 0. -1.
         25    2    1    2    0    0  0.42798922664E+02  0.38505125725E+02 -0.40606991458E+03  0.42875357623E+03  0.12498984402E+03 0.  0.
         23    2    1    2    0    0 -0.42798922664E+02 -0.38505125725E+02 -0.24523559149E+03  0.26721803840E+03  0.89166093491E+02 0.  0.
        -13    1    4    4    0    0 -0.43279966032E+02  0.17974935530E+02 -0.81490022534E+02  0.94004727028E+02  0.10566000000E+00 0.  1.
         13    1    4    4    0    0  0.48104336841E+00 -0.56480061255E+02 -0.16374556895E+03  0.17321331137E+03  0.10566000000E+00 0. -1.
    9000005    1    3    3    0    0  0.23101180702E+02  0.53861342614E+02 -0.39828216424E+03  0.40257221853E+03  0.10000000000E+01 0.  0.
    9000005    1    3    3    0    0  0.19697741961E+02 -0.15356216890E+02 -0.77877503450E+01  0.26181357699E+02  0.10000000000E+01 0.  0.
<mgrwt>
<rscale>  0 0.12896052E+03</rscale>
<asrwt>0</asrwt>
<pdfrwt beam="2">  1        2 0.10363669E+00 0.13761124E+03</pdfrwt>
<pdfrwt beam="1">  1       -2 0.34358550E-02 0.13761124E+03</pdfrwt>
<totfact> 0.14458125E+04</totfact>
</mgrwt>
</event>
<event>
 8    3  0.7944584E-004  0.1416736E+03  0.7818608E-02  0.1229352E+00
         -2   -1    0    0    0  501 -0.00000000000E+00  0.00000000000E+00  0.26095155288E+02  0.26095155412E+02  0.25500000000E-02 0.  1.
          2   -1    0    0  501    0  0.00000000000E+00 -0.00000000000E+00 -0.59171372568E+03  0.59171372569E+03  0.25500000000E-02 0. -1.
         25    2    1    2    0    0  0.63415210325E+02 -0.20603680581E+02 -0.41846060761E+03  0.44179260152E+03  0.12500168832E+03 0.  0.
         23    2    1    2    0    0 -0.63415210325E+02  0.20603680581E+02 -0.14715796279E+03  0.17601627958E+03  0.69858887138E+02 0.  0.
        -13    1    4    4    0    0  0.15412994336E+02  0.20086115615E+01 -0.21939507386E+02  0.26887693527E+02  0.10566000000E+00 0.  1.
         13    1    4    4    0    0 -0.78828204661E+02  0.18595069019E+02 -0.12521845540E+03  0.14912858606E+03  0.10566000000E+00 0. -1.
    9000005    1    3    3    0    0  0.64827077506E+01 -0.38137021826E+02 -0.34520622422E+03  0.34736838540E+03  0.10000000000E+01 0.  0.
    9000005    1    3    3    0    0  0.56932502574E+02  0.17533341245E+02 -0.73254383389E+02  0.94424216122E+02  0.10000000000E+01 0.  0.
<mgrwt>
<rscale>  0 0.12873015E+03</rscale>
<asrwt>0</asrwt>
<pdfrwt beam="2">  1        2 0.91032870E-01 0.14167365E+03</pdfrwt>
<pdfrwt beam="1">  1       -2 0.40146397E-02 0.14167365E+03</pdfrwt>
<totfact> 0.13359499E+04</totfact>
</mgrwt>
</event>
<event>
 8    3  0.7944584E-004  0.1451762E+03  0.7818608E-02  0.1216482E+00
         -2   -1    0    0    0  501 -0.00000000000E+00  0.00000000000E+00  0.29025940250E+02  0.29025940362E+02  0.25500000000E-02 0.  1.
          2   -1    0    0  501    0  0.00000000000E+00 -0.00000000000E+00 -0.62313190045E+03  0.62313190046E+03  0.25500000000E-02 0. -1.
         25    2    1    2    0    0  0.49374837475E+02  0.54887158769E+02 -0.39705194461E+03  0.42276043203E+03  0.12500264558E+03 0.  0.
         23    2    1    2    0    0 -0.49374837475E+02 -0.54887158769E+02 -0.19705401559E+03  0.22939740879E+03  0.91336801581E+02 0.  0.
        -13    1    4    4    0    0 -0.22032805109E+02  0.18076612913E+02 -0.10497385376E+03  0.10877375406E+03  0.10566000000E+00 0. -1.
         13    1    4    4    0    0 -0.27342032366E+02 -0.72963771682E+02 -0.92080161834E+02  0.12062365473E+03  0.10566000000E+00 0.  1.
    9000005    1    3    3    0    0  0.31816042680E+02  0.81936890667E+02 -0.37105701319E+03  0.38132692229E+03  0.10000000000E+01 0.  0.
    9000005    1    3    3    0    0  0.17558794795E+02 -0.27049731898E+02 -0.25994931424E+02  0.41433509749E+02  0.10000000000E+01 0.  0.
<mgrwt>
<rscale>  0 0.13768243E+03</rscale>
<asrwt>0</asrwt>
<pdfrwt beam="2">  1        2 0.95866437E-01 0.14517622E+03</pdfrwt>
<pdfrwt beam="1">  1       -2 0.44655297E-02 0.14517622E+03</pdfrwt>
<totfact> 0.10761164E+04</totfact>
</mgrwt>
</event>
<event>
 8    3  0.7944584E-004  0.1612489E+03  0.7818608E-02  0.1192935E+00
          2   -1    0    0  501    0  0.00000000000E+00  0.00000000000E+00  0.14140310140E+04  0.14140310140E+04  0.25500000000E-02 0. -1.
         -2   -1    0    0    0  501 -0.00000000000E+00 -0.00000000000E+00 -0.23066638833E+02  0.23066638974E+02  0.25500000000E-02 0.  1.
         25    2    1    2    0    0  0.35662715406E+02 -0.95408522630E+02  0.33731688673E+03  0.37387683337E+03  0.12500635582E+03 0.  0.
         23    2    1    2    0    0 -0.35662715406E+02  0.95408522630E+02  0.10536474885E+04  0.10632208196E+04  0.99452832553E+02 0.  0.
        -13    1    4    4    0    0 -0.58623602009E+02  0.23386793871E+02  0.36272951803E+03  0.36817982462E+03  0.10566000000E+00 0.  1.
         13    1    4    4    0    0  0.22960886604E+02  0.72021728759E+02  0.69091797043E+03  0.69504099502E+03  0.10566000000E+00 0. -1.
    9000005    1    3    3    0    0  0.59048814514E+02 -0.86401609728E+02  0.13907221973E+03  0.17405195477E+03  0.10000000000E+01 0.  0.
    9000005    1    3    3    0    0 -0.23386099108E+02 -0.90069129018E+01  0.19824466700E+03  0.19982487860E+03  0.10000000000E+01 0.  0.
<mgrwt>
<rscale>  0 0.15630295E+03</rscale>
<asrwt>0</asrwt>
<pdfrwt beam="1">  1        2 0.21754325E+00 0.16124889E+03</pdfrwt>
<pdfrwt beam="2">  1       -2 0.35487134E-02 0.16124889E+03</pdfrwt>
<totfact> 0.49455202E+03</totfact>
</mgrwt>
</event>
<event>
 8    3  0.7944584E-004  0.1543641E+03  0.7818608E-02  0.1203759E+00
          2   -1    0    0  501    0  0.00000000000E+00  0.00000000000E+00  0.25993997649E+03  0.25993997650E+03  0.25500000000E-02 0. -1.
         -2   -1    0    0    0  501 -0.00000000000E+00 -0.00000000000E+00 -0.77973374756E+02  0.77973374798E+02  0.25500000000E-02 0.  1.
         25    2    1    2    0    0  0.99667293626E+01  0.90024705848E+02  0.12007656153E+03  0.19556755336E+03  0.12499801575E+03 0.  0.
         23    2    1    2    0    0 -0.99667293626E+01 -0.90024705848E+02  0.61890040199E+02  0.14234579794E+03  0.90709237442E+02 0.  0.
        -13    1    4    4    0    0  0.18478349761E+02 -0.55268798221E+02 -0.84548093041E+01  0.58886198986E+02  0.10566000000E+00 0.  1.
         13    1    4    4    0    0 -0.28445079124E+02 -0.34755907627E+02  0.70344849503E+02  0.83459598950E+02  0.10566000000E+00 0. -1.
    9000005    1    3    3    0    0 -0.40245579715E+02  0.53590334424E+02  0.80532877789E+01  0.67509155485E+02  0.10000000000E+01 0.  0.
    9000005    1    3    3    0    0  0.50212309078E+02  0.36434371423E+02  0.11202327375E+03  0.12805839788E+03  0.10000000000E+01 0.  0.
<mgrwt>
<rscale>  0 0.14735706E+03</rscale>
<asrwt>0</asrwt>
<pdfrwt beam="1">  1        2 0.39990766E-01 0.15436414E+03</pdfrwt>
<pdfrwt beam="2">  1       -2 0.11995904E-01 0.15436414E+03</pdfrwt>
<totfact> 0.60810558E+03</totfact>
</mgrwt>
</event>
<event>
 8    3  0.7944584E-004  0.1461930E+03  0.7818608E-02  0.1214872E+00
          2   -1    0    0  501    0  0.00000000000E+00  0.00000000000E+00  0.43361438293E+03  0.43361438294E+03  0.25500000000E-02 0. -1.
         -2   -1    0    0    0  501 -0.00000000000E+00 -0.00000000000E+00 -0.25660861647E+03  0.25660861648E+03  0.25500000000E-02 0.  1.
         25    2    1    2    0    0 -0.69502896379E+02 -0.30276904193E+02  0.40634938191E+03  0.43184743602E+03  0.12500017714E+03 0.  0.
         23    2    1    2    0    0  0.69502896379E+02  0.30276904193E+02 -0.22934361545E+03  0.25837556340E+03  0.91717469887E+02 0.  0.
        -13    1    4    4    0    0  0.56774343638E+02 -0.24989261028E+02 -0.11142917216E+03  0.12753141117E+03  0.10566000000E+00 0. -1.
         13    1    4    4    0    0  0.12728552741E+02  0.55266165221E+02 -0.11791444329E+03  0.13084415223E+03  0.10566000000E+00 0.  1.
    9000005    1    3    3    0    0 -0.36163836763E+02 -0.15798261711E+02  0.20864118213E+02  0.44651087236E+02  0.10000000000E+01 0.  0.
    9000005    1    3    3    0    0 -0.33339059616E+02 -0.14478642483E+02  0.38548526370E+03  0.38719634878E+03  0.10000000000E+01 0.  0.
<mgrwt>
<rscale>  0 0.13885951E+03</rscale>
<asrwt>0</asrwt>
<pdfrwt beam="1">  1        2 0.66709905E-01 0.14619298E+03</pdfrwt>
<pdfrwt beam="2">  1       -2 0.39478249E-01 0.14619298E+03</pdfrwt>
<totfact> 0.45015477E+02</totfact>
</mgrwt>
</event>
<event>
 8    3  0.7944584E-004  0.1727838E+03  0.7818608E-02  0.1181308E+00
         -2   -1    0    0    0  501 -0.00000000000E+00  0.00000000000E+00  0.10320369993E+02  0.10320370308E+02  0.25500000000E-02 0.  1.
          2   -1    0    0  501    0  0.00000000000E+00 -0.00000000000E+00 -0.25458186692E+04  0.25458186692E+04  0.25500000000E-02 0. -1.
         25    2    1    2    0    0  0.56068963368E+01  0.11915619228E+03 -0.14840725254E+04  0.14940968889E+04  0.12499846924E+03 0.  0.
         23    2    1    2    0    0 -0.56068963368E+01 -0.11915619228E+03 -0.10514257738E+04  0.10620421506E+04  0.90596558482E+02 0.  0.
        -13    1    4    4    0    0 -0.15475461496E+02 -0.11306000624E+03 -0.61715115401E+03  0.62761262971E+03  0.10566000000E+00 0.  1.
         13    1    4    4    0    0  0.98685651595E+01 -0.60961860391E+01 -0.43427461983E+03  0.43442952093E+03  0.10566000000E+00 0. -1.
    9000005    1    3    3    0    0  0.31069191753E+02  0.39327961430E+01 -0.95279809050E+02  0.10029956916E+03  0.10000000000E+01 0.  0.
    9000005    1    3    3    0    0 -0.25462295417E+02  0.11522339614E+03 -0.13887927163E+04  0.13937973197E+04  0.10000000000E+01 0.  0.
<mgrwt>
<rscale>  0 0.16672427E+03</rscale>
<asrwt>0</asrwt>
<pdfrwt beam="2">  1        2 0.39166391E+00 0.17278383E+03</pdfrwt>
<pdfrwt beam="1">  1       -2 0.15877513E-02 0.17278383E+03</pdfrwt>
<totfact> 0.41235533E+03</totfact>
</mgrwt>
</event>
<event>
 8    3  0.7944584E-004  0.1325024E+03  0.7818608E-02  0.1235920E+00
          2   -1    0    0  501    0  0.00000000000E+00  0.00000000000E+00  0.83614764335E+03  0.83614764335E+03  0.25500000000E-02 0. -1.
         -2   -1    0    0    0  501 -0.00000000000E+00 -0.00000000000E+00 -0.18445025354E+02  0.18445025530E+02  0.25500000000E-02 0.  1.
         25    2    1    2    0    0 -0.43764232290E+02 -0.41897118946E+01  0.58885634739E+03  0.60357989603E+03  0.12499612520E+03 0.  0.
         23    2    1    2    0    0  0.43764232290E+02  0.41897118946E+01  0.22884627060E+03  0.25101277285E+03  0.93294881168E+02 0.  0.
        -13    1    4    4    0    0 -0.28159904853E+02 -0.89973624832E+01  0.76911111900E+02  0.82396984597E+02  0.10566000000E+00 0.  1.
         13    1    4    4    0    0  0.71924137144E+02  0.13187074378E+02  0.15193515870E+03  0.16861578825E+03  0.10566000000E+00 0. -1.
    9000005    1    3    3    0    0  0.31656228269E+02  0.32838622531E+02  0.15131584308E+03  0.15804422256E+03  0.10000000000E+01 0.  0.
    9000005    1    3    3    0    0 -0.75420460559E+02 -0.37028334425E+02  0.43754050432E+03  0.44553567348E+03  0.10000000000E+01 0.  0.
<mgrwt>
<rscale>  0 0.12445697E+03</rscale>
<asrwt>0</asrwt>
<pdfrwt beam="1">  1        2 0.12863811E+00 0.13250243E+03</pdfrwt>
<pdfrwt beam="2">  1       -2 0.28376960E-02 0.13250243E+03</pdfrwt>
<totfact> 0.14691258E+04</totfact>
</mgrwt>
</event>
<event>
 8    3  0.7944584E-004  0.1739514E+03  0.7818608E-02  0.1179441E+00
          2   -1    0    0  501    0  0.00000000000E+00  0.00000000000E+00  0.10414063948E+04  0.10414063948E+04  0.25500000000E-02 0.  1.
         -2   -1    0    0    0  501 -0.00000000000E+00 -0.00000000000E+00 -0.25845912098E+02  0.25845912224E+02  0.25500000000E-02 0. -1.
         25    2    1    2    0    0 -0.11342775576E+03  0.41971905973E+02  0.49662185697E+03  0.52620562877E+03  0.12502639028E+03 0.  0.
         23    2    1    2    0    0  0.11342775576E+03 -0.41971905973E+02  0.51893862569E+03  0.54104667821E+03  0.93844094647E+02 0.  0.
        -13    1    4    4    0    0 -0.83382129251E+01  0.13458136892E+02  0.10051729511E+03  0.10175649868E+03  0.10566000000E+00 0.  1.
         13    1    4    4    0    0  0.12176596869E+03 -0.55430042865E+02  0.41842133058E+03  0.43929017953E+03  0.10566000000E+00 0. -1.
    9000005    1    3    3    0    0 -0.58758567898E+02  0.41477227245E+02  0.44576271411E+03  0.45152887723E+03  0.10000000000E+01 0.  0.
    9000005    1    3    3    0    0 -0.54669187865E+02  0.49467872837E+00  0.50859142855E+02  0.74676751542E+02  0.10000000000E+01 0.  0.
<mgrwt>
<rscale>  0 0.16848152E+03</rscale>
<asrwt>0</asrwt>
<pdfrwt beam="1">  1        2 0.16021641E+00 0.17395142E+03</pdfrwt>
<pdfrwt beam="2">  1       -2 0.39762933E-02 0.17395142E+03</pdfrwt>
<totfact> 0.67465102E+03</totfact>
</mgrwt>
</event>
<event>
 8    3  0.7944584E-004  0.1410834E+03  0.7818608E-02  0.1222744E+00
          2   -1    0    0  501    0  0.00000000000E+00  0.00000000000E+00  0.11561401797E+03  0.11561401800E+03  0.25500000000E-02 0. -1.
         -2   -1    0    0    0  501 -0.00000000000E+00 -0.00000000000E+00 -0.15180306450E+03  0.15180306452E+03  0.25500000000E-02 0.  1.
         25    2    1    2    0    0  0.58035817206E+02 -0.30178854815E+02 -0.59018622779E+02  0.15293041040E+03  0.12500237291E+03 0.  0.
         23    2    1    2    0    0 -0.58035817206E+02  0.30178854815E+02  0.22829576246E+02  0.11448667212E+03  0.91143234441E+02 0.  0.
        -13    1    4    4    0    0 -0.41986954747E+02 -0.18729722245E+02 -0.17398671300E+02  0.49157215049E+02  0.10566000000E+00 0.  1.
         13    1    4    4    0    0 -0.16048862459E+02  0.48908577060E+02  0.40228247546E+02  0.65329457069E+02  0.10566000000E+00 0. -1.
    9000005    1    3    3    0    0 -0.25282638570E+02  0.20011133427E+01 -0.58321517337E+02  0.63605154289E+02  0.10000000000E+01 0.  0.
    9000005    1    3    3    0    0  0.83318455776E+02 -0.32179968158E+02 -0.69710544115E+00  0.89325256112E+02  0.10000000000E+01 0.  0.
<mgrwt>
<rscale>  0 0.13322718E+03</rscale>
<asrwt>0</asrwt>
<pdfrwt beam="1">  1        2 0.17786772E-01 0.14108335E+03</pdfrwt>
<pdfrwt beam="2">  1       -2 0.23354318E-01 0.14108335E+03</pdfrwt>
<totfact> 0.48826522E+03</totfact>
</mgrwt>
</event>
<event>
 8    3  0.7944584E-004  0.1414339E+03  0.7818608E-02  0.1221622E+00
         -2   -1    0    0    0  501 -0.00000000000E+00  0.00000000000E+00  0.74134870469E+01  0.74134874854E+01  0.25500000000E-02 0.  1.
          2   -1    0    0  501    0  0.00000000000E+00 -0.00000000000E+00 -0.24048572996E+04  0.24048572996E+04  0.25500000000E-02 0. -1.
         25    2    1    2    0    0 -0.43780375526E+02  0.49616783188E+02 -0.16664649639E+04  0.16724559854E+04  0.12500000362E+03 0.  0.
         23    2    1    2    0    0  0.43780375526E+02 -0.49616783188E+02 -0.73097884863E+03  0.73981480162E+03  0.92829505479E+02 0.  0.
        -13    1    4    4    0    0 -0.27199698885E+02 -0.53627244873E+01 -0.12149373514E+03  0.12461669742E+03  0.10566000000E+00 0.  1.
         13    1    4    4    0    0  0.70980074411E+02 -0.44254058701E+02 -0.60948511350E+03  0.61519810420E+03  0.10566000000E+00 0. -1.
    9000005    1    3    3    0    0 -0.22812508365E+02 -0.26094728230E+02 -0.11024359568E+04  0.11029811350E+04  0.10000000000E+01 0.  0.
    9000005    1    3    3    0    0 -0.20967867161E+02  0.75711511418E+02 -0.56402900712E+03  0.56947485044E+03  0.10000000000E+01 0.  0.
<mgrwt>
<rscale>  0 0.13401110E+03</rscale>
<asrwt>0</asrwt>
<pdfrwt beam="2">  1        2 0.36997743E+00 0.14143390E+03</pdfrwt>
<pdfrwt beam="1">  1       -2 0.11405384E-02 0.14143390E+03</pdfrwt>
<totfact> 0.79012420E+03</totfact>
</mgrwt>
</event>
<event>
 8    3  0.7944584E-004  0.1399377E+03  0.7818608E-02  0.1224776E+00
         -2   -1    0    0    0  501 -0.00000000000E+00  0.00000000000E+00  0.27759034505E+02  0.27759034622E+02  0.25500000000E-02 0.  1.
          2   -1    0    0  501    0  0.00000000000E+00 -0.00000000000E+00 -0.60489538623E+03  0.60489538624E+03  0.25500000000E-02 0. -1.
         25    2    1    2    0    0 -0.58003233772E+02 -0.24356199922E+02 -0.23829657881E+03  0.27634729018E+03  0.12499986286E+03 0.  0.
         23    2    1    2    0    0  0.58003233772E+02  0.24356199922E+02 -0.33883977292E+03  0.35630713068E+03  0.90469774285E+02 0.  0.
        -13    1    4    4    0    0  0.68138455682E+02 -0.10550687125E+02 -0.26746847861E+03  0.27621289679E+03  0.10566000000E+00 0. -1.
         13    1    4    4    0    0 -0.10135221910E+02  0.34906887046E+02 -0.71371294309E+02  0.80094233887E+02  0.10566000000E+00 0.  1.
    9000005    1    3    3    0    0 -0.70477805876E+02  0.35131655687E+02 -0.12414251564E+03  0.14701604858E+03  0.10000000000E+01 0.  0.
    9000005    1    3    3    0    0  0.12474572104E+02 -0.59487855609E+02 -0.11415406317E+03  0.12933124160E+03  0.10000000000E+01 0.  0.
<mgrwt>
<rscale>  0 0.13182236E+03</rscale>
<asrwt>0</asrwt>
<pdfrwt beam="2">  1        2 0.93060819E-01 0.13993772E+03</pdfrwt>
<pdfrwt beam="1">  1       -2 0.42706211E-02 0.13993772E+03</pdfrwt>
<totfact> 0.11872161E+04</totfact>
</mgrwt>
</event>
<event>
 8    3  0.7944584E-004  0.1561409E+03  0.7818608E-02  0.1200925E+00
          2   -1    0    0  501    0  0.00000000000E+00  0.00000000000E+00  0.49510704173E+02  0.49510704239E+02  0.25500000000E-02 0.  1.
         -2   -1    0    0    0  501 -0.00000000000E+00 -0.00000000000E+00 -0.42473617928E+03  0.42473617929E+03  0.25500000000E-02 0. -1.
         25    2    1    2    0    0 -0.83729146912E+02 -0.41764435342E+02 -0.17428842016E+03  0.23400093695E+03  0.12500058796E+03 0.  0.
         23    2    1    2    0    0  0.83729146912E+02  0.41764435342E+02 -0.20093705495E+03  0.24024594658E+03  0.92669178771E+02 0.  0.
        -13    1    4    4    0    0  0.26616125560E+02  0.33237617193E+02 -0.14360884426E+02  0.44937773666E+02  0.10566000000E+00 0.  1.
         13    1    4    4    0    0  0.57113021352E+02  0.85268181490E+01 -0.18657617052E+03  0.19530817291E+03  0.10566000000E+00 0. -1.
    9000005    1    3    3    0    0 -0.56313913271E+02 -0.68515006262E+02 -0.45600082591E+02  0.99729285786E+02  0.10000000000E+01 0.  0.
    9000005    1    3    3    0    0 -0.27415233641E+02  0.26750570920E+02 -0.12868833757E+03  0.13427165116E+03  0.10000000000E+01 0.  0.
<mgrwt>
<rscale>  0 0.14963260E+03</rscale>
<asrwt>0</asrwt>
<pdfrwt beam="1">  1        2 0.76170317E-02 0.15614091E+03</pdfrwt>
<pdfrwt beam="2">  1       -2 0.65344025E-01 0.15614091E+03</pdfrwt>
<totfact> 0.19453642E+03</totfact>
</mgrwt>
</event>
<event>
 8    3  0.7944584E-004  0.1448115E+03  0.7818608E-02  0.1215052E+00
         -2   -1    0    0    0  501 -0.00000000000E+00  0.00000000000E+00  0.35049900023E+02  0.35049900116E+02  0.25500000000E-02 0.  1.
          2   -1    0    0  501    0  0.00000000000E+00 -0.00000000000E+00 -0.65785917413E+03  0.65785917414E+03  0.25500000000E-02 0. -1.
         25    2    1    2    0    0  0.29087715341E+02  0.67069736750E+02 -0.49707198510E+03  0.51773635965E+03  0.12500373979E+03 0.  0.
         23    2    1    2    0    0 -0.29087715341E+02 -0.67069736750E+02 -0.12573728901E+03  0.17517271460E+03  0.97627707757E+02 0.  0.
        -13    1    4    4    0    0 -0.12583857896E+02  0.35220300971E+01  0.13127750773E+02  0.18523152537E+02  0.10566000000E+00 0.  1.
         13    1    4    4    0    0 -0.16503857445E+02 -0.70591766847E+02 -0.13886503978E+03  0.15664956206E+03  0.10566000000E+00 0. -1.
    9000005    1    3    3    0    0  0.32600234332E+02 -0.17698800381E+02 -0.47751569183E+02  0.60475078941E+02  0.10000000000E+01 0.  0.
    9000005    1    3    3    0    0 -0.35125189911E+01  0.84768537131E+02 -0.44932041592E+03  0.45726128071E+03  0.10000000000E+01 0.  0.
<mgrwt>
<rscale>  0 0.13872723E+03</rscale>
<asrwt>0</asrwt>
<pdfrwt beam="2">  1        2 0.10120909E+00 0.14481153E+03</pdfrwt>
<pdfrwt beam="1">  1       -2 0.53922928E-02 0.14481153E+03</pdfrwt>
<totfact> 0.76102849E+03</totfact>
</mgrwt>
</event>
<event>
 8    3  0.7944584E-004  0.2640928E+03  0.7818608E-02  0.1107092E+00
         -2   -1    0    0    0  501 -0.00000000000E+00  0.00000000000E+00  0.10393723775E+03  0.10393723778E+03  0.25500000000E-02 0.  1.
          2   -1    0    0  501    0  0.00000000000E+00 -0.00000000000E+00 -0.67854838023E+03  0.67854838023E+03  0.25500000000E-02 0. -1.
         25    2    1    2    0    0 -0.23227199330E+03 -0.12892564046E+02 -0.39811404331E+03  0.47774450470E+03  0.12501409205E+03 0.  0.
         23    2    1    2    0    0  0.23227199330E+03  0.12892564046E+02 -0.17649709916E+03  0.30474111331E+03  0.87174669763E+02 0.  0.
        -13    1    4    4    0    0  0.15447881399E+03 -0.14456450804E+02 -0.70430317091E+02  0.17039111970E+03  0.10566000000E+00 0.  1.
         13    1    4    4    0    0  0.77793179308E+02  0.27349014850E+02 -0.10606678207E+03  0.13434999361E+03  0.10566000000E+00 0. -1.
    9000005    1    3    3    0    0 -0.84618558164E+02  0.44779497868E+02 -0.21621765245E+03  0.23646686247E+03  0.10000000000E+01 0.  0.
    9000005    1    3    3    0    0 -0.14765343514E+03 -0.57672061914E+02 -0.18189639087E+03  0.24127764224E+03  0.10000000000E+01 0.  0.
<mgrwt>
<rscale>  0 0.26008608E+03</rscale>
<asrwt>0</asrwt>
<pdfrwt beam="2">  1        2 0.10439206E+00 0.26409283E+03</pdfrwt>
<pdfrwt beam="1">  1       -2 0.15990345E-01 0.26409283E+03</pdfrwt>
<totfact> 0.13405659E+03</totfact>
</mgrwt>
</event>
<event>
 8    3  0.7944584E-004  0.1285866E+03  0.7818608E-02  0.1251518E+00
         -2   -1    0    0    0  501 -0.00000000000E+00  0.00000000000E+00  0.91398261956E+01  0.91398265513E+01  0.25500000000E-02 0.  1.
          2   -1    0    0  501    0  0.00000000000E+00 -0.00000000000E+00 -0.12359668275E+04  0.12359668275E+04  0.25500000000E-02 0. -1.
         25    2    1    2    0    0 -0.20216265504E+02 -0.22381901720E+02 -0.67097004037E+03  0.68318029595E+03  0.12499949916E+03 0.  0.
         23    2    1    2    0    0  0.20216265504E+02  0.22381901720E+02 -0.55585696098E+03  0.56192635814E+03  0.76646095744E+02 0.  0.
        -13    1    4    4    0    0 -0.76047346694E+01  0.36773344805E+02 -0.14185475157E+03  0.14674090290E+03  0.10566000000E+00 0.  1.
         13    1    4    4    0    0  0.27821000173E+02 -0.14391443086E+02 -0.41400220941E+03  0.41518545524E+03  0.10566000000E+00 0. -1.
    9000005    1    3    3    0    0  0.43314162988E+02 -0.30069820110E+02 -0.16614321187E+03  0.17431258603E+03  0.10000000000E+01 0.  0.
    9000005    1    3    3    0    0 -0.63530428492E+02  0.76879183900E+01 -0.50482682850E+03  0.50886770992E+03  0.10000000000E+01 0.  0.
<mgrwt>
<rscale>  0 0.11503626E+03</rscale>
<asrwt>0</asrwt>
<pdfrwt beam="2">  1        2 0.19014861E+00 0.12858663E+03</pdfrwt>
<pdfrwt beam="1">  1       -2 0.14061281E-02 0.12858663E+03</pdfrwt>
<totfact> 0.23555106E+04</totfact>
</mgrwt>
</event>
<event>
 8    3  0.7944584E-004  0.1647513E+03  0.7818608E-02  0.1189629E+00
          2   -1    0    0  501    0  0.00000000000E+00  0.00000000000E+00  0.49713792290E+02  0.49713792355E+02  0.25500000000E-02 0. -1.
         -2   -1    0    0    0  501 -0.00000000000E+00 -0.00000000000E+00 -0.47869424561E+03  0.47869424561E+03  0.25500000000E-02 0.  1.
         25    2    1    2    0    0 -0.10075810704E+03 -0.36952833981E+02 -0.21932725968E+03  0.27431267167E+03  0.12500114770E+03 0.  0.
         23    2    1    2    0    0  0.10075810704E+03  0.36952833981E+02 -0.20965319364E+03  0.25409536630E+03  0.95353476604E+02 0.  0.
        -13    1    4    4    0    0  0.16759594229E+02 -0.56971457388E+01  0.60585511503E+01  0.18709855006E+02  0.10566000000E+00 0. -1.
         13    1    4    4    0    0  0.83998512808E+02  0.42649979720E+02 -0.21571174479E+03  0.23538551130E+03  0.10566000000E+00 0.  1.
    9000005    1    3    3    0    0 -0.12316212919E+03 -0.35715883655E+02 -0.13157728080E+03  0.18373381625E+03  0.10000000000E+01 0.  0.
    9000005    1    3    3    0    0  0.22404022154E+02 -0.12369503258E+01 -0.87749978882E+02  0.90578855416E+02  0.10000000000E+01 0.  0.
<mgrwt>
<rscale>  0 0.15917740E+03</rscale>
<asrwt>0</asrwt>
<pdfrwt beam="1">  1        2 0.76482761E-02 0.16475131E+03</pdfrwt>
<pdfrwt beam="2">  1       -2 0.73645266E-01 0.16475131E+03</pdfrwt>
<totfact> 0.15047362E+03</totfact>
</mgrwt>
</event>
<event>
 8    3  0.7944584E-004  0.1391767E+03  0.7818608E-02  0.1225762E+00
          2   -1    0    0  501    0  0.00000000000E+00  0.00000000000E+00  0.16207509774E+04  0.16207509774E+04  0.25500000000E-02 0. -1.
         -2   -1    0    0    0  501 -0.00000000000E+00 -0.00000000000E+00 -0.99136804166E+01  0.99136807445E+01  0.25500000000E-02 0.  1.
         25    2    1    2    0    0  0.52851788613E+02  0.30840365716E+02  0.10508690214E+04  0.10600452155E+04  0.12500287672E+03 0.  0.
         23    2    1    2    0    0 -0.52851788613E+02 -0.30840365716E+02  0.55996827564E+03  0.57061944264E+03  0.91091376516E+02 0.  0.
        -13    1    4    4    0    0 -0.23502413107E+02  0.82034207576E+01  0.32716981808E+02  0.41110480375E+02  0.10566000000E+00 0.  1.
         13    1    4    4    0    0 -0.29349375506E+02 -0.39043786474E+02  0.52725129383E+03  0.52950896226E+03  0.10566000000E+00 0. -1.
    9000005    1    3    3    0    0  0.45274873306E+02  0.19341987746E+02  0.10429836248E+04  0.10441454728E+04  0.10000000000E+01 0.  0.
    9000005    1    3    3    0    0  0.75769153076E+01  0.11498377970E+02  0.78853965468E+01  0.15899742772E+02  0.10000000000E+01 0.  0.
<mgrwt>
<rscale>  0 0.13114829E+03</rscale>
<asrwt>0</asrwt>
<pdfrwt beam="1">  1        2 0.24934632E+00 0.13917672E+03</pdfrwt>
<pdfrwt beam="2">  1       -2 0.15251816E-02 0.13917672E+03</pdfrwt>
<totfact> 0.13192632E+04</totfact>
</mgrwt>
</event>
<event>
 8    3  0.7944584E-004  0.2081627E+03  0.7818608E-02  0.1146872E+00
          2   -1    0    0  501    0  0.00000000000E+00  0.00000000000E+00  0.15458662656E+04  0.15458662656E+04  0.25500000000E-02 0. -1.
         -2   -1    0    0    0  501 -0.00000000000E+00 -0.00000000000E+00 -0.26067555817E+02  0.26067555942E+02  0.25500000000E-02 0.  1.
         25    2    1    2    0    0  0.75423849865E+02 -0.14838186181E+03  0.89661190661E+03  0.92045892648E+03  0.12500316078E+03 0.  0.
         23    2    1    2    0    0 -0.75423849865E+02  0.14838186181E+03  0.62318680314E+03  0.65147489504E+03  0.91388255339E+02 0.  0.
        -13    1    4    4    0    0  0.47596018691E+01  0.81752555788E+02  0.33953735397E+03  0.34927318834E+03  0.10566000000E+00 0.  1.
         13    1    4    4    0    0 -0.80183451734E+02  0.66629306024E+02  0.28364944917E+03  0.30220170670E+03  0.10566000000E+00 0. -1.
    9000005    1    3    3    0    0  0.10507170558E+03 -0.13280012652E+03  0.65509702326E+03  0.67663065760E+03  0.10000000000E+01 0.  0.
    9000005    1    3    3    0    0 -0.29647855714E+02 -0.15581735290E+02  0.24151488335E+03  0.24382826888E+03  0.10000000000E+01 0.  0.
<mgrwt>
<rscale>  0 0.20343565E+03</rscale>
<asrwt>0</asrwt>
<pdfrwt beam="1">  1        2 0.23782555E+00 0.20816274E+03</pdfrwt>
<pdfrwt beam="2">  1       -2 0.40103938E-02 0.20816274E+03</pdfrwt>
<totfact> 0.35226307E+03</totfact>
</mgrwt>
</event>
<event>
 8    3  0.7944584E-004  0.1330552E+03  0.7818608E-02  0.1235380E+00
         -2   -1    0    0    0  501 -0.00000000000E+00  0.00000000000E+00  0.12445091588E+02  0.12445091849E+02  0.25500000000E-02 0.  1.
          2   -1    0    0  501    0  0.00000000000E+00 -0.00000000000E+00 -0.13331019021E+04  0.13331019021E+04  0.25500000000E-02 0. -1.
         25    2    1    2    0    0 -0.23980072646E+02 -0.38788581278E+02 -0.46331864551E+03  0.48204548292E+03  0.12499632956E+03 0.  0.
         23    2    1    2    0    0  0.23980072646E+02  0.38788581278E+02 -0.85733816501E+03  0.86350151104E+03  0.92339224961E+02 0.  0.
        -13    1    4    4    0    0 -0.10426397094E+02  0.32899175380E+02 -0.74648161076E+03  0.74727897861E+03  0.10566000000E+00 0. -1.
         13    1    4    4    0    0  0.34406469740E+02  0.58894058982E+01 -0.11085655424E+03  0.11622253243E+03  0.10566000000E+00 0.  1.
    9000005    1    3    3    0    0  0.24452458723E+02  0.35954639697E+02 -0.17208023446E+03  0.17749159401E+03  0.10000000000E+01 0.  0.
    9000005    1    3    3    0    0 -0.48432531369E+02 -0.74743220975E+02 -0.29123841105E+03  0.30455388891E+03  0.10000000000E+01 0.  0.
<mgrwt>
<rscale>  0 0.12480111E+03</rscale>
<asrwt>0</asrwt>
<pdfrwt beam="2">  1        2 0.20509249E+00 0.13305518E+03</pdfrwt>
<pdfrwt beam="1">  1       -2 0.19146306E-02 0.13305518E+03</pdfrwt>
<totfact> 0.13397775E+04</totfact>
</mgrwt>
</event>
<event>
 8    3  0.7944584E-004  0.1734078E+03  0.7818608E-02  0.1179975E+00
         -2   -1    0    0    0  501 -0.00000000000E+00  0.00000000000E+00  0.15668951433E+03  0.15668951435E+03  0.25500000000E-02 0.  1.
          2   -1    0    0  501    0  0.00000000000E+00 -0.00000000000E+00 -0.22354910870E+03  0.22354910872E+03  0.25500000000E-02 0. -1.
         25    2    1    2    0    0  0.11960085677E+03  0.11869808375E+02 -0.12824785360E+03  0.21567977885E+03  0.12499999104E+03 0.  0.
         23    2    1    2    0    0 -0.11960085677E+03 -0.11869808375E+02  0.61388259228E+02  0.16455884422E+03  0.94158576613E+02 0.  0.
        -13    1    4    4    0    0 -0.99160870952E+02 -0.36588008901E+02  0.75117090473E+02  0.12966938408E+03  0.10566000000E+00 0.  1.
         13    1    4    4    0    0 -0.20439985815E+02  0.24718200525E+02 -0.13728831244E+02  0.34889460138E+02  0.10566000000E+00 0. -1.
    9000005    1    3    3    0    0  0.79536162210E+02 -0.47662904865E+02 -0.37600138650E+02  0.10006260054E+03  0.10000000000E+01 0.  0.
    9000005    1    3    3    0    0  0.40064694556E+02  0.59532713241E+02 -0.90647714950E+02  0.11561717831E+03  0.10000000000E+01 0.  0.
<mgrwt>
<rscale>  0 0.16797581E+03</rscale>
<asrwt>0</asrwt>
<pdfrwt beam="2">  1        2 0.34392170E-01 0.17340777E+03</pdfrwt>
<pdfrwt beam="1">  1       -2 0.24106079E-01 0.17340777E+03</pdfrwt>
<totfact> 0.22452589E+03</totfact>
</mgrwt>
</event>
<event>
 8    3  0.7944584E-004  0.1390264E+03  0.7818608E-02  0.1226342E+00
         -2   -1    0    0    0  501 -0.00000000000E+00  0.00000000000E+00  0.11630507615E+03  0.11630507617E+03  0.25500000000E-02 0.  1.
          2   -1    0    0  501    0  0.00000000000E+00 -0.00000000000E+00 -0.13248006920E+03  0.13248006922E+03  0.25500000000E-02 0. -1.
         25    2    1    2    0    0 -0.57013041270E+02 -0.21274766819E+02 -0.15580624838E+01  0.13903515973E+03  0.12500098201E+03 0.  0.
         23    2    1    2    0    0  0.57013041270E+02  0.21274766819E+02 -0.14616930568E+02  0.10974998567E+03  0.90157096877E+02 0.  0.
        -13    1    4    4    0    0  0.24277853052E+02 -0.18837540165E+02  0.28848986124E+02  0.42149047827E+02  0.10566000000E+00 0.  1.
         13    1    4    4    0    0  0.32735188218E+02  0.40112306985E+02 -0.43465916692E+02  0.67600937843E+02  0.10566000000E+00 0. -1.
    9000005    1    3    3    0    0 -0.10456670792E+02 -0.11601648255E+02  0.59565589819E+02  0.61587333899E+02  0.10000000000E+01 0.  0.
    9000005    1    3    3    0    0 -0.46556370478E+02 -0.96731185648E+01 -0.61123652303E+02  0.77447825829E+02  0.10000000000E+01 0.  0.
<mgrwt>
<rscale>  0 0.13075327E+03</rscale>
<asrwt>0</asrwt>
<pdfrwt beam="2">  1        2 0.20381549E-01 0.13902643E+03</pdfrwt>
<pdfrwt beam="1">  1       -2 0.17893089E-01 0.13902643E+03</pdfrwt>
<totfact> 0.65678103E+03</totfact>
</mgrwt>
</event>
<event>
 8    3  0.7944584E-004  0.1372650E+03  0.7818608E-02  0.1219658E+00
         -2   -1    0    0    0  501 -0.00000000000E+00  0.00000000000E+00  0.13185800538E+02  0.13185800785E+02  0.25500000000E-02 0. -1.
          2   -1    0    0  501    0  0.00000000000E+00 -0.00000000000E+00 -0.14745719585E+04  0.14745719585E+04  0.25500000000E-02 0.  1.
         25    2    1    2    0    0 -0.51859769255E+02  0.22967832484E+02 -0.96185451090E+03  0.97159959898E+03  0.12499889438E+03 0.  0.
         23    2    1    2    0    0  0.51859769255E+02 -0.22967832484E+02 -0.49953164704E+03  0.51615816029E+03  0.11692058434E+03 0.  0.
        -13    1    4    4    0    0 -0.26225801638E+02 -0.36520562897E+02 -0.11362183234E+03  0.12219441941E+03  0.10566000000E+00 0.  1.
         13    1    4    4    0    0  0.78085570893E+02  0.13552730414E+02 -0.38590981470E+03  0.39396374088E+03  0.10566000000E+00 0. -1.
    9000005    1    3    3    0    0 -0.48429177480E+02  0.14180708160E+02 -0.12658656553E+03  0.13627779088E+03  0.10000000000E+01 0.  0.
    9000005    1    3    3    0    0 -0.34305917747E+01  0.87871243237E+01 -0.83526794537E+03  0.83532180809E+03  0.10000000000E+01 0.  0.
<mgrwt>
<rscale>  0 0.13539890E+03</rscale>
<asrwt>0</asrwt>
<pdfrwt beam="2">  1        2 0.22685709E+00 0.13726500E+03</pdfrwt>
<pdfrwt beam="1">  1       -2 0.20285859E-02 0.13726500E+03</pdfrwt>
<totfact> 0.10387859E+04</totfact>
</mgrwt>
</event>
<event>
 8    3  0.7944584E-004  0.2036066E+03  0.7818608E-02  0.1150799E+00
         -2   -1    0    0    0  501 -0.00000000000E+00  0.00000000000E+00  0.20309921608E+02  0.20309921768E+02  0.25500000000E-02 0.  1.
          2   -1    0    0  501    0  0.00000000000E+00 -0.00000000000E+00 -0.19658036630E+04  0.19658036630E+04  0.25500000000E-02 0. -1.
         25    2    1    2    0    0  0.80518543254E+02 -0.13909459061E+03 -0.12499242789E+04  0.12663989761E+04  0.12500049100E+03 0.  0.
         23    2    1    2    0    0 -0.80518543254E+02  0.13909459061E+03 -0.69556946252E+03  0.71971460870E+03  0.91332906609E+02 0.  0.
        -13    1    4    4    0    0  0.22227128840E+01  0.72214443019E+02 -0.19475829213E+03  0.20772739288E+03  0.10566000000E+00 0.  1.
         13    1    4    4    0    0 -0.82741256138E+02  0.66880147592E+02 -0.50081117039E+03  0.51198721582E+03  0.10566000000E+00 0. -1.
    9000005    1    3    3    0    0  0.52743252094E+02 -0.62493461854E+02 -0.10040086608E+04  0.10073339438E+04  0.10000000000E+01 0.  0.
    9000005    1    3    3    0    0  0.27775291160E+02 -0.76601128757E+02 -0.24591561810E+03  0.25906503228E+03  0.10000000000E+01 0.  0.
<mgrwt>
<rscale>  0 0.19874817E+03</rscale>
<asrwt>0</asrwt>
<pdfrwt beam="2">  1        2 0.30243118E+00 0.20360664E+03</pdfrwt>
<pdfrwt beam="1">  1       -2 0.31246049E-02 0.20360664E+03</pdfrwt>
<totfact> 0.30883575E+03</totfact>
</mgrwt>
</event>
<event>
 8    3  0.7944584E-004  0.1824960E+03  0.7818608E-02  0.1170591E+00
          2   -1    0    0  501    0  0.00000000000E+00  0.00000000000E+00  0.15243554385E+04  0.15243554385E+04  0.25500000000E-02 0. -1.
         -2   -1    0    0    0  501 -0.00000000000E+00 -0.00000000000E+00 -0.19632247041E+02  0.19632247206E+02  0.25500000000E-02 0.  1.
         25    2    1    2    0    0  0.57404321226E+02 -0.11992879833E+03  0.72594567659E+03  0.74853317331E+03  0.12500645356E+03 0.  0.
         23    2    1    2    0    0 -0.57404321226E+02  0.11992879833E+03  0.77877751489E+03  0.79545451241E+03  0.92602866324E+02 0.  0.
        -13    1    4    4    0    0 -0.46551538081E+02  0.11671442874E+03  0.77221261827E+03  0.78236924949E+03  0.10566000000E+00 0. -1.
         13    1    4    4    0    0 -0.10852783145E+02  0.32143695998E+01  0.65648966156E+01  0.13085262914E+02  0.10566000000E+00 0.  1.
    9000005    1    3    3    0    0 -0.19452624649E+02 -0.15832030440E+02  0.23891342952E+02  0.34653341277E+02  0.10000000000E+01 0.  0.
    9000005    1    3    3    0    0  0.76856945875E+02 -0.10409676790E+03  0.70205433363E+03  0.71387983204E+03  0.10000000000E+01 0.  0.
<mgrwt>
<rscale>  0 0.17714884E+03</rscale>
<asrwt>0</asrwt>
<pdfrwt beam="1">  1        2 0.23451621E+00 0.18249599E+03</pdfrwt>
<pdfrwt beam="2">  1       -2 0.30203458E-02 0.18249599E+03</pdfrwt>
<totfact> 0.55074077E+03</totfact>
</mgrwt>
</event>
<event>
 8    3  0.7944584E-004  0.1441054E+03  0.7818608E-02  0.1218162E+00
          2   -1    0    0  501    0  0.00000000000E+00  0.00000000000E+00  0.17839282437E+03  0.17839282439E+03  0.25500000000E-02 0. -1.
         -2   -1    0    0    0  501 -0.00000000000E+00 -0.00000000000E+00 -0.94738346852E+02  0.94738346887E+02  0.25500000000E-02 0.  1.
         25    2    1    2    0    0  0.58891559161E+02 -0.40907259022E+02  0.46480661895E+02  0.15141607523E+03  0.12499902531E+03 0.  0.
         23    2    1    2    0    0 -0.58891559161E+02  0.40907259022E+02  0.37173815627E+02  0.12171509605E+03  0.91055216523E+02 0.  0.
        -13    1    4    4    0    0 -0.32104352193E+02  0.25818953512E+02 -0.27891400927E+02  0.49751876346E+02  0.10566000000E+00 0.  1.
         13    1    4    4    0    0 -0.26787206968E+02  0.15088305510E+02  0.65065216554E+02  0.71963219700E+02  0.10566000000E+00 0. -1.
    9000005    1    3    3    0    0 -0.27446676018E+02  0.17174716179E+02  0.33412910518E+02  0.46537226922E+02  0.10000000000E+01 0.  0.
    9000005    1    3    3    0    0  0.86338235179E+02 -0.58081975202E+02  0.13067751377E+02  0.10487884831E+03  0.10000000000E+01 0.  0.
<mgrwt>
<rscale>  0 0.13646792E+03</rscale>
<asrwt>0</asrwt>
<pdfrwt beam="1">  1        2 0.27445050E-01 0.14410543E+03</pdfrwt>
<pdfrwt beam="2">  1       -2 0.14575130E-01 0.14410543E+03</pdfrwt>
<totfact> 0.66341667E+03</totfact>
</mgrwt>
</event>
<event>
 8    3  0.7944584E-004  0.1252731E+03  0.7818608E-02  0.1249206E+00
         -2   -1    0    0    0  501 -0.00000000000E+00  0.00000000000E+00  0.37573072505E+03  0.37573072506E+03  0.25500000000E-02 0.  1.
          2   -1    0    0  501    0  0.00000000000E+00 -0.00000000000E+00 -0.32985086033E+02  0.32985086132E+02  0.25500000000E-02 0. -1.
         25    2    1    2    0    0 -0.79937625467E+01 -0.19810792175E+01  0.23414337578E+03  0.26554938362E+03  0.12500211921E+03 0.  0.
         23    2    1    2    0    0  0.79937625467E+01  0.19810792175E+01  0.10860226325E+03  0.14316642757E+03  0.92921200419E+02 0.  0.
        -13    1    4    4    0    0  0.76438039215E+01 -0.40181516744E+02  0.21074436078E+02  0.46012227139E+02  0.10566000000E+00 0. -1.
         13    1    4    4    0    0  0.34995862526E+00  0.42162595961E+02  0.87527827167E+02  0.97154200434E+02  0.10566000000E+00 0.  1.
    9000005    1    3    3    0    0 -0.19177038253E+02 -0.61154730803E+02  0.13692917712E+03  0.15118948192E+03  0.10000000000E+01 0.  0.
    9000005    1    3    3    0    0  0.11183275706E+02  0.59173651586E+02  0.97214198653E+02  0.11435990170E+03  0.10000000000E+01 0.  0.
<mgrwt>
<rscale>  0 0.11637157E+03</rscale>
<asrwt>0</asrwt>
<pdfrwt beam="2">  1        2 0.50746289E-02 0.12527312E+03</pdfrwt>
<pdfrwt beam="1">  1       -2 0.57804724E-01 0.12527312E+03</pdfrwt>
<totfact> 0.41627865E+03</totfact>
</mgrwt>
</event>
<event>
 8    3  0.7944584E-004  0.1274457E+03  0.7818608E-02  0.1245677E+00
          2   -1    0    0  501    0  0.00000000000E+00  0.00000000000E+00  0.49663415869E+03  0.49663415870E+03  0.25500000000E-02 0. -1.
         -2   -1    0    0    0  501 -0.00000000000E+00 -0.00000000000E+00 -0.44824515725E+02  0.44824515798E+02  0.25500000000E-02 0.  1.
         25    2    1    2    0    0 -0.79144584116E+01 -0.23531984508E+02  0.64870587285E+02  0.14300562889E+03  0.12500409535E+03 0.  0.
         23    2    1    2    0    0  0.79144584116E+01  0.23531984508E+02  0.38693905568E+03  0.39845304560E+03  0.91796534742E+02 0.  0.
        -13    1    4    4    0    0 -0.28275191399E+02  0.11640943467E+02  0.31981237530E+03  0.32127085858E+03  0.10566000000E+00 0. -1.
         13    1    4    4    0    0  0.36189649810E+02  0.11891041040E+02  0.67126680383E+02  0.77182187023E+02  0.10566000000E+00 0.  1.
    9000005    1    3    3    0    0  0.27307103000E+02  0.13111083562E+02  0.83526127337E+02  0.88854894824E+02  0.10000000000E+01 0.  0.
    9000005    1    3    3    0    0 -0.35221561411E+02 -0.36643068069E+02 -0.18655540051E+02  0.54150734071E+02  0.10000000000E+01 0.  0.
<mgrwt>
<rscale>  0 0.11844945E+03</rscale>
<asrwt>0</asrwt>
<pdfrwt beam="1">  1        2 0.76405262E-01 0.12744574E+03</pdfrwt>
<pdfrwt beam="2">  1       -2 0.68960787E-02 0.12744574E+03</pdfrwt>
<totfact> 0.71390880E+03</totfact>
</mgrwt>
</event>
<event>
 8    3  0.7944584E-004  0.1262382E+03  0.7818608E-02  0.1247834E+00
         -2   -1    0    0    0  501 -0.00000000000E+00  0.00000000000E+00  0.16650943492E+02  0.16650943687E+02  0.25500000000E-02 0.  1.
          2   -1    0    0  501    0  0.00000000000E+00 -0.00000000000E+00 -0.11215576357E+04  0.11215576357E+04  0.25500000000E-02 0. -1.
         25    2    1    2    0    0  0.17059106326E+02 -0.45767156367E+01 -0.26992711846E+03  0.29798782016E+03  0.12499652896E+03 0.  0.
         23    2    1    2    0    0 -0.17059106326E+02  0.45767156367E+01 -0.83497957377E+03  0.84022075925E+03  0.92022150708E+02 0.  0.
        -13    1    4    4    0    0 -0.33256243652E+02  0.26709473731E+01 -0.80804356279E+03  0.80873204600E+03  0.10566000000E+00 0. -1.
         13    1    4    4    0    0  0.16197137326E+02  0.19057682636E+01 -0.26936010987E+02  0.31488713250E+02  0.10566000000E+00 0.  1.
    9000005    1    3    3    0    0  0.10628876674E+02 -0.42570706956E+02 -0.25954895519E+02  0.50989162687E+02  0.10000000000E+01 0.  0.
    9000005    1    3    3    0    0  0.64302296522E+01  0.37993991319E+02 -0.24397222294E+03  0.24699865748E+03  0.10000000000E+01 0.  0.
<mgrwt>
<rscale>  0 0.11717372E+03</rscale>
<asrwt>0</asrwt>
<pdfrwt beam="2">  1        2 0.17254727E+00 0.12623823E+03</pdfrwt>
<pdfrwt beam="1">  1       -2 0.25616845E-02 0.12623823E+03</pdfrwt>
<totfact> 0.11427731E+04</totfact>
</mgrwt>
</event>
<event>
 8    3  0.7944584E-004  0.2207117E+03  0.7818608E-02  0.1137947E+00
          2   -1    0    0  501    0  0.00000000000E+00  0.00000000000E+00  0.14927082702E+04  0.14927082702E+04  0.25500000000E-02 0. -1.
         -2   -1    0    0    0  501 -0.00000000000E+00 -0.00000000000E+00 -0.32533917028E+02  0.32533917128E+02  0.25500000000E-02 0.  1.
         25    2    1    2    0    0  0.17922405549E+03 -0.31137421279E+02  0.52579327567E+03  0.57023872723E+03  0.12499134458E+03 0.  0.
         23    2    1    2    0    0 -0.17922405549E+03  0.31137421279E+02  0.93438107753E+03  0.95500346013E+03  0.76634259609E+02 0.  0.
        -13    1    4    4    0    0 -0.35204986569E+01  0.39527005275E+01  0.17525072370E+03  0.17533067351E+03  0.10566000000E+00 0. -1.
         13    1    4    4    0    0 -0.17570355683E+03  0.27184720751E+02  0.75913035383E+03  0.77967278662E+03  0.10566000000E+00 0.  1.
    9000005    1    3    3    0    0  0.19266550699E+03 -0.67867467637E+01  0.45383172757E+03  0.49308244185E+03  0.10000000000E+01 0.  0.
    9000005    1    3    3    0    0 -0.13441451498E+02 -0.24350674515E+02  0.71961548105E+02  0.77156285379E+02  0.10000000000E+01 0.  0.
<mgrwt>
<rscale>  0 0.21463540E+03</rscale>
<asrwt>0</asrwt>
<pdfrwt beam="1">  1        2 0.22964741E+00 0.22071166E+03</pdfrwt>
<pdfrwt beam="2">  1       -2 0.50052183E-02 0.22071166E+03</pdfrwt>
<totfact> 0.26905004E+03</totfact>
</mgrwt>
</event>
<event>
 8    3  0.7944584E-004  0.1547789E+03  0.7818608E-02  0.1203775E+00
          2   -1    0    0  501    0  0.00000000000E+00  0.00000000000E+00  0.12086977520E+03  0.12086977522E+03  0.25500000000E-02 0. -1.
         -2   -1    0    0    0  501 -0.00000000000E+00 -0.00000000000E+00 -0.17493915529E+03  0.17493915531E+03  0.25500000000E-02 0.  1.
         25    2    1    2    0    0 -0.87728702952E+02  0.25220037554E+02  0.66810056230E+01  0.15492298982E+03  0.12499648524E+03 0.  0.
         23    2    1    2    0    0  0.87728702952E+02 -0.25220037554E+02 -0.60750385715E+02  0.14088594071E+03  0.88463909648E+02 0.  0.
        -13    1    4    4    0    0  0.71400963246E+02 -0.19693562120E+02  0.37104307951E+01  0.74160045861E+02  0.10566000000E+00 0. -1.
         13    1    4    4    0    0  0.16327739706E+02 -0.55264754346E+01 -0.64460816510E+02  0.66725894853E+02  0.10566000000E+00 0.  1.
    9000005    1    3    3    0    0  0.57040205053E+01  0.20072627239E+02  0.48210230189E+02  0.52542102252E+02  0.10000000000E+01 0.  0.
    9000005    1    3    3    0    0 -0.93432723457E+02  0.51474103155E+01 -0.41529224566E+02  0.10238088757E+03  0.10000000000E+01 0.  0.
<mgrwt>
<rscale>  0 0.14734418E+03</rscale>
<asrwt>0</asrwt>
<pdfrwt beam="1">  1        2 0.18595350E-01 0.15477886E+03</pdfrwt>
<pdfrwt beam="2">  1       -2 0.26913716E-01 0.15477886E+03</pdfrwt>
<totfact> 0.36397834E+03</totfact>
</mgrwt>
</event>
<event>
 8    3  0.7944584E-004  0.1548488E+03  0.7818608E-02  0.1204826E+00
          2   -1    0    0  501    0  0.00000000000E+00  0.00000000000E+00  0.37194169043E+04  0.37194169043E+04  0.25500000000E-02 0. -1.
         -2   -1    0    0    0  501 -0.00000000000E+00 -0.00000000000E+00 -0.62595992866E+01  0.62595998060E+01  0.25500000000E-02 0.  1.
         25    2    1    2    0    0 -0.91350731415E+02 -0.28312671060E+01  0.12759572376E+04  0.12853190316E+04  0.12500067392E+03 0.  0.
         23    2    1    2    0    0  0.91350731415E+02  0.28312671060E+01  0.24372000674E+04  0.24403574726E+04  0.83949109911E+02 0.  0.
        -13    1    4    4    0    0  0.13792940931E+02 -0.16480044253E+02  0.12929565099E+03  0.13106949915E+03  0.10566000000E+00 0.  1.
         13    1    4    4    0    0  0.77557790484E+02  0.19311311359E+02  0.23079044164E+04  0.23092879734E+04  0.10566000000E+00 0. -1.
    9000005    1    3    3    0    0 -0.74040586259E+02  0.22167435595E+02  0.33228275425E+03  0.34115426479E+03  0.10000000000E+01 0.  0.
    9000005    1    3    3    0    0 -0.17310145156E+02 -0.24998702701E+02  0.94367448337E+03  0.94416476678E+03  0.10000000000E+01 0.  0.
<mgrwt>
<rscale>  0 0.14651173E+03</rscale>
<asrwt>0</asrwt>
<pdfrwt beam="1">  1        2 0.57221996E+00 0.15484877E+03</pdfrwt>
<pdfrwt beam="2">  1       -2 0.96301199E-03 0.15484877E+03</pdfrwt>
<totfact> 0.16627580E+03</totfact>
</mgrwt>
</event>
<event>
 8    3  0.7944584E-004  0.1258085E+03  0.7818608E-02  0.1248104E+00
          2   -1    0    0  501    0  0.00000000000E+00  0.00000000000E+00  0.57534034572E+03  0.57534034572E+03  0.25500000000E-02 0. -1.
         -2   -1    0    0    0  501 -0.00000000000E+00 -0.00000000000E+00 -0.22426303237E+02  0.22426303382E+02  0.25500000000E-02 0.  1.
         25    2    1    2    0    0 -0.13540256956E+02  0.44621495552E+01  0.38776535175E+03  0.40766377900E+03  0.12499815739E+03 0.  0.
         23    2    1    2    0    0  0.13540256956E+02 -0.44621495552E+01  0.16514869073E+03  0.19010287011E+03  0.93068586733E+02 0.  0.
        -13    1    4    4    0    0  0.51730180621E+02  0.10724682936E+02  0.86322835713E+02  0.10120609439E+03  0.10566000000E+00 0.  1.
         13    1    4    4    0    0 -0.38189923666E+02 -0.15186832491E+02  0.78825855016E+02  0.88896775722E+02  0.10566000000E+00 0. -1.
    9000005    1    3    3    0    0  0.48381403799E+02  0.14187746714E+01  0.27262071072E+03  0.27688594234E+03  0.10000000000E+01 0.  0.
    9000005    1    3    3    0    0 -0.61921660755E+02  0.30433748838E+01  0.11514464103E+03  0.13077783665E+03  0.10000000000E+01 0.  0.
<mgrwt>
<rscale>  0 0.11701526E+03</rscale>
<asrwt>0</asrwt>
<pdfrwt beam="1">  1        2 0.88513884E-01 0.12580854E+03</pdfrwt>
<pdfrwt beam="2">  1       -2 0.34502011E-02 0.12580854E+03</pdfrwt>
<totfact> 0.17100807E+04</totfact>
</mgrwt>
</event>
<event>
 8    3  0.7944584E-004  0.1302555E+03  0.7818608E-02  0.1242131E+00
         -2   -1    0    0    0  501 -0.00000000000E+00  0.00000000000E+00  0.40993475449E+02  0.40993475528E+02  0.25500000000E-02 0. -1.
          2   -1    0    0  501    0  0.00000000000E+00 -0.00000000000E+00 -0.33402824305E+03  0.33402824306E+03  0.25500000000E-02 0.  1.
         25    2    1    2    0    0  0.31559089093E+01  0.36484936729E+02 -0.21577740032E+03  0.25204438983E+03  0.12500151033E+03 0.  0.
         23    2    1    2    0    0 -0.31559089093E+01 -0.36484936729E+02 -0.77257367279E+02  0.12297732876E+03  0.88394639095E+02 0.  0.
        -13    1    4    4    0    0 -0.11294096281E+02  0.18865426355E+02 -0.60811548453E+02  0.64664646536E+02  0.10566000000E+00 0.  1.
         13    1    4    4    0    0  0.81381873713E+01 -0.55350363084E+02 -0.16445818826E+02  0.58312682223E+02  0.10566000000E+00 0. -1.
    9000005    1    3    3    0    0  0.13392652795E+02 -0.38440967279E+02 -0.13664820828E+03  0.14258612815E+03  0.10000000000E+01 0.  0.
    9000005    1    3    3    0    0 -0.10236743886E+02  0.74925904008E+02 -0.79129192040E+02  0.10945826168E+03  0.10000000000E+01 0.  0.
<mgrwt>
<rscale>  0 0.12058759E+03</rscale>
<asrwt>0</asrwt>
<pdfrwt beam="2">  1        2 0.51388959E-01 0.13025547E+03</pdfrwt>
<pdfrwt beam="1">  1       -2 0.63066888E-02 0.13025547E+03</pdfrwt>
<totfact> 0.12530829E+04</totfact>
</mgrwt>
</event>
<event>
 8    3  0.7944584E-004  0.1346697E+03  0.7818608E-02  0.1239932E+00
          2   -1    0    0  501    0  0.00000000000E+00  0.00000000000E+00  0.24003183656E+03  0.24003183657E+03  0.25500000000E-02 0.  1.
         -2   -1    0    0    0  501 -0.00000000000E+00 -0.00000000000E+00 -0.53540691732E+02  0.53540691792E+02  0.25500000000E-02 0. -1.
         25    2    1    2    0    0 -0.28168823331E+00  0.50101053057E+02  0.12800465838E+03  0.18579860157E+03  0.12500293161E+03 0.  0.
         23    2    1    2    0    0  0.28168823331E+00 -0.50101053057E+02  0.58486486446E+02  0.10777392680E+03  0.75394663833E+02 0.  0.
        -13    1    4    4    0    0  0.27382038779E+02 -0.10557162156E+01  0.40545637784E+02  0.48937209685E+02  0.10566000000E+00 0.  1.
         13    1    4    4    0    0 -0.27100350546E+02 -0.49045336841E+02  0.17940848662E+02  0.58836717110E+02  0.10566000000E+00 0. -1.
    9000005    1    3    3    0    0 -0.45929502500E+02  0.22919085391E+01  0.10694275309E+03  0.11641531034E+03  0.10000000000E+01 0.  0.
    9000005    1    3    3    0    0  0.45647814266E+02  0.47809144518E+02  0.21061905296E+02  0.69383291227E+02  0.10000000000E+01 0.  0.
<mgrwt>
<rscale>  0 0.12193912E+03</rscale>
<asrwt>0</asrwt>
<pdfrwt beam="1">  1        2 0.36927975E-01 0.13466970E+03</pdfrwt>
<pdfrwt beam="2">  1       -2 0.82370294E-02 0.13466970E+03</pdfrwt>
<totfact> 0.11846987E+04</totfact>
</mgrwt>
</event>
<event>
 8    3  0.7944584E-004  0.2056048E+03  0.7818608E-02  0.1149687E+00
         -2   -1    0    0    0  501 -0.00000000000E+00  0.00000000000E+00  0.10755390311E+03  0.10755390314E+03  0.25500000000E-02 0.  1.
          2   -1    0    0  501    0  0.00000000000E+00 -0.00000000000E+00 -0.41231852023E+03  0.41231852024E+03  0.25500000000E-02 0. -1.
         25    2    1    2    0    0  0.14380432716E+03 -0.77260349175E+02 -0.25765120031E+03  0.32963233061E+03  0.12499794517E+03 0.  0.
         23    2    1    2    0    0 -0.14380432716E+03  0.77260349175E+02 -0.47113416817E+02  0.19024009277E+03  0.85573201332E+02 0.  0.
        -13    1    4    4    0    0 -0.13281228288E+03  0.40322873696E+02 -0.57638047506E+02  0.15029036001E+03  0.10566000000E+00 0.  1.
         13    1    4    4    0    0 -0.10992044282E+02  0.36937475479E+02  0.10524630689E+02  0.39949732758E+02  0.10566000000E+00 0. -1.
    9000005    1    3    3    0    0  0.14461552806E+03 -0.96912723386E+02 -0.18362616633E+03  0.25303220322E+03  0.10000000000E+01 0.  0.
    9000005    1    3    3    0    0 -0.81120089306E+00  0.19652374212E+02 -0.74025033982E+02  0.76600127383E+02  0.10000000000E+01 0.  0.
<mgrwt>
<rscale>  0 0.20006193E+03</rscale>
<asrwt>0</asrwt>
<pdfrwt beam="2">  1        2 0.63433618E-01 0.20560480E+03</pdfrwt>
<pdfrwt beam="1">  1       -2 0.16546755E-01 0.20560480E+03</pdfrwt>
<totfact> 0.22205906E+03</totfact>
</mgrwt>
</event>
<event>
 8    3  0.7944584E-004  0.2723370E+03  0.7818608E-02  0.1101996E+00
         -2   -1    0    0    0  501 -0.00000000000E+00  0.00000000000E+00  0.51821402277E+03  0.51821402277E+03  0.25500000000E-02 0.  1.
          2   -1    0    0  501    0  0.00000000000E+00 -0.00000000000E+00 -0.18318574290E+03  0.18318574292E+03  0.25500000000E-02 0. -1.
         25    2    1    2    0    0 -0.15555126525E+03  0.18532779158E+03 -0.74602945498E+01  0.27243912674E+03  0.12499934134E+03 0.  0.
         23    2    1    2    0    0  0.15555126525E+03 -0.18532779158E+03  0.34248857441E+03  0.42896063895E+03  0.90367138459E+02 0.  0.
        -13    1    4    4    0    0  0.68994762601E+02 -0.75203929940E+02  0.22146561446E+03  0.24385023662E+03  0.10566000000E+00 0.  1.
         13    1    4    4    0    0  0.86556502651E+02 -0.11012386164E+03  0.12102295995E+03  0.18511040233E+03  0.10566000000E+00 0. -1.
    9000005    1    3    3    0    0 -0.69758185583E+02  0.86283494272E+02  0.58825715990E+02  0.12558865674E+03  0.10000000000E+01 0.  0.
    9000005    1    3    3    0    0 -0.85793079670E+02  0.99044297303E+02 -0.66286010540E+02  0.14685047001E+03  0.10000000000E+01 0.  0.
<mgrwt>
<rscale>  0 0.26875270E+03</rscale>
<asrwt>0</asrwt>
<pdfrwt beam="2">  1        2 0.28182422E-01 0.27233696E+03</pdfrwt>
<pdfrwt beam="1">  1       -2 0.79725234E-01 0.27233696E+03</pdfrwt>
<totfact> 0.27114432E+02</totfact>
</mgrwt>
</event>
<event>
 8    3  0.7944584E-004  0.1866963E+03  0.7818608E-02  0.1166063E+00
          2   -1    0    0  501    0  0.00000000000E+00  0.00000000000E+00  0.32154285962E+03  0.32154285963E+03  0.25500000000E-02 0.  1.
         -2   -1    0    0    0  501 -0.00000000000E+00 -0.00000000000E+00 -0.11338235457E+03  0.11338235460E+03  0.25500000000E-02 0. -1.
         25    2    1    2    0    0 -0.80791808706E+02  0.11270597608E+03  0.18945135601E+03  0.26598368131E+03  0.12500219610E+03 0.  0.
         23    2    1    2    0    0  0.80791808706E+02 -0.11270597608E+03  0.18709149046E+02  0.16894153292E+03  0.94663910182E+02 0.  0.
        -13    1    4    4    0    0  0.54532962689E+02 -0.21998678056E+02  0.41284873176E+02  0.71848714484E+02  0.10566000000E+00 0.  1.
         13    1    4    4    0    0  0.26258846017E+02 -0.90707298022E+02 -0.22575724129E+02  0.97092818440E+02  0.10566000000E+00 0. -1.
    9000005    1    3    3    0    0 -0.54231626212E+02  0.13247520830E+03  0.18282947044E+03  0.23220328455E+03  0.10000000000E+01 0.  0.
    9000005    1    3    3    0    0 -0.26560182495E+02 -0.19769232218E+02  0.66218855726E+01  0.33780396758E+02  0.10000000000E+01 0.  0.
<mgrwt>
<rscale>  0 0.18180925E+03</rscale>
<asrwt>0</asrwt>
<pdfrwt beam="1">  1        2 0.49468132E-01 0.18669628E+03</pdfrwt>
<pdfrwt beam="2">  1       -2 0.17443439E-01 0.18669628E+03</pdfrwt>
<totfact> 0.26498200E+03</totfact>
</mgrwt>
</event>
<event>
 8    3  0.7944584E-004  0.1320993E+03  0.7818608E-02  0.1236772E+00
         -2   -1    0    0    0  501 -0.00000000000E+00  0.00000000000E+00  0.40504237281E+03  0.40504237282E+03  0.25500000000E-02 0.  1.
          2   -1    0    0  501    0  0.00000000000E+00 -0.00000000000E+00 -0.36254171451E+02  0.36254171540E+02  0.25500000000E-02 0. -1.
         25    2    1    2    0    0 -0.41535683133E+02 -0.99941160672E+01  0.15062421722E+03  0.20034441975E+03  0.12500054552E+03 0.  0.
         23    2    1    2    0    0  0.41535683133E+02  0.99941160672E+01  0.21816398414E+03  0.24095212461E+03  0.92937113417E+02 0.  0.
        -13    1    4    4    0    0  0.58588781515E+02 -0.12367826315E+02  0.19659095112E+03  0.20550820343E+03  0.10566000000E+00 0.  1.
         13    1    4    4    0    0 -0.17053098382E+02  0.22361942382E+02  0.21573033012E+02  0.35443921184E+02  0.10566000000E+00 0. -1.
    9000005    1    3    3    0    0 -0.81994832103E+02 -0.25010369256E+02  0.11974122792E+03  0.14726721538E+03  0.10000000000E+01 0.  0.
    9000005    1    3    3    0    0  0.40459148970E+02  0.15016253189E+02  0.30882989300E+02  0.53077204366E+02  0.10000000000E+01 0.  0.
<mgrwt>
<rscale>  0 0.12391657E+03</rscale>
<asrwt>0</asrwt>
<pdfrwt beam="2">  1        2 0.55775649E-02 0.13209933E+03</pdfrwt>
<pdfrwt beam="1">  1       -2 0.62314211E-01 0.13209933E+03</pdfrwt>
<totfact> 0.31689059E+03</totfact>
</mgrwt>
</event>
<event>
 8    3  0.7944584E-004  0.1917553E+03  0.7818608E-02  0.1162323E+00
          2   -1    0    0  501    0  0.00000000000E+00  0.00000000000E+00  0.63035558676E+03  0.63035558676E+03  0.25500000000E-02 0. -1.
         -2   -1    0    0    0  501 -0.00000000000E+00 -0.00000000000E+00 -0.51649986424E+02  0.51649986487E+02  0.25500000000E-02 0.  1.
         25    2    1    2    0    0  0.79297580311E+02  0.12189497904E+03  0.31806987552E+03  0.37140077507E+03  0.12499439126E+03 0.  0.
         23    2    1    2    0    0 -0.79297580311E+02 -0.12189497904E+03  0.26063572481E+03  0.31060479819E+03  0.86010856573E+02 0.  0.
        -13    1    4    4    0    0 -0.49535637248E+02 -0.69970926805E+02  0.69638187432E+02  0.11044998084E+03  0.10566000000E+00 0.  1.
         13    1    4    4    0    0 -0.29761943063E+02 -0.51924052236E+02  0.19099753738E+03  0.20015481734E+03  0.10566000000E+00 0. -1.
    9000005    1    3    3    0    0  0.11139174377E+03  0.91621940168E+02  0.27024090302E+03  0.30632310746E+03  0.10000000000E+01 0.  0.
    9000005    1    3    3    0    0 -0.32094163455E+02  0.30273038872E+02  0.47828972505E+02  0.65077667608E+02  0.10000000000E+01 0.  0.
<mgrwt>
<rscale>  0 0.18578068E+03</rscale>
<asrwt>0</asrwt>
<pdfrwt beam="1">  1        2 0.96977782E-01 0.19175529E+03</pdfrwt>
<pdfrwt beam="2">  1       -2 0.79461518E-02 0.19175529E+03</pdfrwt>
<totfact> 0.44752554E+03</totfact>
</mgrwt>
</event>
<event>
 8    3  0.7944584E-004  0.2380684E+03  0.7818608E-02  0.1123508E+00
          2   -1    0    0  501    0  0.00000000000E+00  0.00000000000E+00  0.24411258425E+04  0.24411258425E+04  0.25500000000E-02 0. -1.
         -2   -1    0    0    0  501 -0.00000000000E+00 -0.00000000000E+00 -0.21885148553E+02  0.21885148702E+02  0.25500000000E-02 0.  1.
         25    2    1    2    0    0 -0.20218068813E+03 -0.13188262936E+02  0.12680266715E+04  0.12901814703E+04  0.12500250230E+03 0.  0.
         23    2    1    2    0    0  0.20218068813E+03  0.13188262936E+02  0.11512140224E+04  0.11728295209E+04  0.95835269276E+02 0.  0.
        -13    1    4    4    0    0  0.99918646152E+02  0.23711427042E+02  0.80946771790E+03  0.81595585978E+03  0.10566000000E+00 0. -1.
         13    1    4    4    0    0  0.10226204197E+03 -0.10523164106E+02  0.34174630449E+03  0.35687366113E+03  0.10566000000E+00 0.  1.
    9000005    1    3    3    0    0 -0.57604750854E+01 -0.22714816274E+02  0.37619760376E+03  0.37692808734E+03  0.10000000000E+01 0.  0.
    9000005    1    3    3    0    0 -0.19642021304E+03  0.95265533377E+01  0.89182906779E+03  0.91325338295E+03  0.10000000000E+01 0.  0.
<mgrwt>
<rscale>  0 0.23450525E+03</rscale>
<asrwt>0</asrwt>
<pdfrwt beam="1">  1        2 0.37555757E+00 0.23806845E+03</pdfrwt>
<pdfrwt beam="2">  1       -2 0.33669482E-02 0.23806845E+03</pdfrwt>
<totfact> 0.15442114E+03</totfact>
</mgrwt>
</event>
<event>
 8    3  0.7944584E-004  0.1264841E+03  0.7818608E-02  0.1247963E+00
          2   -1    0    0  501    0  0.00000000000E+00  0.00000000000E+00  0.21407988862E+03  0.21407988864E+03  0.25500000000E-02 0. -1.
         -2   -1    0    0    0  501 -0.00000000000E+00 -0.00000000000E+00 -0.56279867358E+02  0.56279867416E+02  0.25500000000E-02 0.  1.
         25    2    1    2    0    0 -0.11598052005E+02  0.15432928709E+02  0.86349659281E+02  0.15314858778E+03  0.12500214471E+03 0.  0.
         23    2    1    2    0    0  0.11598052005E+02 -0.15432928709E+02  0.71450361984E+02  0.11721116828E+03  0.90887918024E+02 0.  0.
        -13    1    4    4    0    0 -0.17891805728E+02 -0.33275599301E+02  0.73543082808E+02  0.82679975895E+02  0.10566000000E+00 0. -1.
         13    1    4    4    0    0  0.29489857733E+02  0.17842670592E+02 -0.20927208239E+01  0.34531192384E+02  0.10566000000E+00 0.  1.
    9000005    1    3    3    0    0 -0.45728436175E+02 -0.19982491150E+02 -0.42083259437E+01  0.50090915692E+02  0.10000000000E+01 0.  0.
    9000005    1    3    3    0    0  0.34130384170E+02  0.35415419859E+02  0.90557985225E+02  0.10305767208E+03  0.10000000000E+01 0.  0.
<mgrwt>
<rscale>  0 0.11709789E+03</rscale>
<asrwt>0</asrwt>
<pdfrwt beam="1">  1        2 0.32935368E-01 0.12648409E+03</pdfrwt>
<pdfrwt beam="2">  1       -2 0.86584411E-02 0.12648409E+03</pdfrwt>
<totfact> 0.12329871E+04</totfact>
</mgrwt>
</event>
<event>
 8    3  0.7944584E-004  0.1461627E+03  0.7818608E-02  0.1213057E+00
          2   -1    0    0  501    0  0.00000000000E+00  0.00000000000E+00  0.12042136386E+03  0.12042136389E+03  0.25500000000E-02 0. -1.
         -2   -1    0    0    0  501 -0.00000000000E+00 -0.00000000000E+00 -0.15661064819E+03  0.15661064821E+03  0.25500000000E-02 0.  1.
         25    2    1    2    0    0 -0.88274072131E+01 -0.75232365906E+02  0.60284796194E+01  0.14628699915E+03  0.12500284619E+03 0.  0.
         23    2    1    2    0    0  0.88274072131E+01  0.75232365906E+02 -0.42217763949E+02  0.13074501295E+03  0.97847262716E+02 0.  0.
        -13    1    4    4    0    0  0.36123826974E+02 -0.72211087834E+01 -0.10909299814E+02  0.38420037400E+02  0.10566000000E+00 0.  1.
         13    1    4    4    0    0 -0.27296419761E+02  0.82453474689E+02 -0.31308464134E+02  0.92324975551E+02  0.10566000000E+00 0. -1.
    9000005    1    3    3    0    0 -0.41938397496E+02  0.17112705791E+02  0.15112618539E+02  0.47760497518E+02  0.10000000000E+01 0.  0.
    9000005    1    3    3    0    0  0.33110990283E+02 -0.92345071697E+02 -0.90841389193E+01  0.98526501633E+02  0.10000000000E+01 0.  0.
<mgrwt>
<rscale>  0 0.14020264E+03</rscale>
<asrwt>0</asrwt>
<pdfrwt beam="1">  1        2 0.18526364E-01 0.14616273E+03</pdfrwt>
<pdfrwt beam="2">  1       -2 0.24093946E-01 0.14616273E+03</pdfrwt>
<totfact> 0.44241892E+03</totfact>
</mgrwt>
</event>
<event>
 8    3  0.7944584E-004  0.1253867E+03  0.7818608E-02  0.1249309E+00
         -2   -1    0    0    0  501 -0.00000000000E+00  0.00000000000E+00  0.14574313372E+02  0.14574313595E+02  0.25500000000E-02 0.  1.
          2   -1    0    0  501    0  0.00000000000E+00 -0.00000000000E+00 -0.15930275833E+04  0.15930275833E+04  0.25500000000E-02 0. -1.
         25    2    1    2    0    0 -0.46322973296E+01 -0.86889710237E+01 -0.14074305128E+04  0.14130047676E+04  0.12499947480E+03 0.  0.
         23    2    1    2    0    0  0.46322973296E+01  0.86889710237E+01 -0.17102275717E+03  0.19459712927E+03  0.92316319542E+02 0.  0.
        -13    1    4    4    0    0  0.82103030602E+01 -0.15924622764E+02 -0.16866405149E+03  0.16961301871E+03  0.10566000000E+00 0. -1.
         13    1    4    4    0    0 -0.35780057306E+01  0.24613593788E+02 -0.23587056840E+01  0.24984110564E+02  0.10566000000E+00 0.  1.
    9000005    1    3    3    0    0 -0.53714090356E+02  0.94040311968E+01 -0.10838785502E+04  0.10852499025E+04  0.10000000000E+01 0.  0.
    9000005    1    3    3    0    0  0.49081793026E+02 -0.18093002220E+02 -0.32355196255E+03  0.32775486511E+03  0.10000000000E+01 0.  0.
<mgrwt>
<rscale>  0 0.11631142E+03</rscale>
<asrwt>0</asrwt>
<pdfrwt beam="2">  1        2 0.24508103E+00 0.12538670E+03</pdfrwt>
<pdfrwt beam="1">  1       -2 0.22422033E-02 0.12538670E+03</pdfrwt>
<totfact> 0.77697663E+03</totfact>
</mgrwt>
</event>
<event>
 8    3  0.7944584E-004  0.1330206E+03  0.7818608E-02  0.1234664E+00
         -2   -1    0    0    0  501 -0.00000000000E+00  0.00000000000E+00  0.27313944324E+02  0.27313944443E+02  0.25500000000E-02 0.  1.
          2   -1    0    0  501    0  0.00000000000E+00 -0.00000000000E+00 -0.52988246163E+03  0.52988246164E+03  0.25500000000E-02 0. -1.
         25    2    1    2    0    0 -0.43581755510E+02 -0.13034579444E+02 -0.32414953620E+03  0.35038181197E+03  0.12500089065E+03 0.  0.
         23    2    1    2    0    0  0.43581755510E+02  0.13034579444E+02 -0.17841898110E+03  0.20681459411E+03  0.94178945867E+02 0.  0.
        -13    1    4    4    0    0  0.20843432268E+02  0.69802992163E+01 -0.18172774826E+03  0.18305233923E+03  0.10566000000E+00 0. -1.
         13    1    4    4    0    0  0.22738323243E+02  0.60542802276E+01  0.33087671552E+01  0.23762254882E+02  0.10566000000E+00 0.  1.
    9000005    1    3    3    0    0  0.20578598680E+02 -0.47253879080E+02 -0.76286991608E+02  0.92071238182E+02  0.10000000000E+01 0.  0.
    9000005    1    3    3    0    0 -0.64160354191E+02  0.34219299636E+02 -0.24786254459E+03  0.25831057379E+03  0.10000000000E+01 0.  0.
<mgrwt>
<rscale>  0 0.12525966E+03</rscale>
<asrwt>0</asrwt>
<pdfrwt beam="2">  1        2 0.81520371E-01 0.13302065E+03</pdfrwt>
<pdfrwt beam="1">  1       -2 0.42021457E-02 0.13302065E+03</pdfrwt>
<totfact> 0.14060847E+04</totfact>
</mgrwt>
</event>
<event>
 8    3  0.7944584E-004  0.1660926E+03  0.7818608E-02  0.1190150E+00
          2   -1    0    0  501    0  0.00000000000E+00  0.00000000000E+00  0.22340354612E+03  0.22340354614E+03  0.25500000000E-02 0. -1.
         -2   -1    0    0    0  501 -0.00000000000E+00 -0.00000000000E+00 -0.10619299532E+03  0.10619299535E+03  0.25500000000E-02 0.  1.
         25    2    1    2    0    0 -0.10586345334E+03 -0.27452431324E+02  0.88298072908E+02  0.18810448836E+03  0.12500416842E+03 0.  0.
         23    2    1    2    0    0  0.10586345334E+03  0.27452431324E+02  0.28912477893E+02  0.14149205313E+03  0.84990369937E+02 0.  0.
        -13    1    4    4    0    0  0.25840754441E+02 -0.15485171067E+02 -0.22070729547E+02  0.37345192191E+02  0.10566000000E+00 0. -1.
         13    1    4    4    0    0  0.80022698904E+02  0.42937602391E+02  0.50983207439E+02  0.10414686094E+03  0.10566000000E+00 0.  1.
    9000005    1    3    3    0    0 -0.67707443151E+02 -0.15926607802E+01 -0.19814071909E+02  0.70572174914E+02  0.10000000000E+01 0.  0.
    9000005    1    3    3    0    0 -0.38156010193E+02 -0.25859770544E+02  0.10811214482E+03  0.11753231344E+03  0.10000000000E+01 0.  0.
<mgrwt>
<rscale>  0 0.15871950E+03</rscale>
<asrwt>0</asrwt>
<pdfrwt beam="1">  1        2 0.34369776E-01 0.16609259E+03</pdfrwt>
<pdfrwt beam="2">  1       -2 0.16337384E-01 0.16609259E+03</pdfrwt>
<totfact> 0.43441805E+03</totfact>
</mgrwt>
</event>
<event>
 8    3  0.7944584E-004  0.1440338E+03  0.7818608E-02  0.1218324E+00
          2   -1    0    0  501    0  0.00000000000E+00  0.00000000000E+00  0.93618613864E+03  0.93618613864E+03  0.25500000000E-02 0. -1.
         -2   -1    0    0    0  501 -0.00000000000E+00 -0.00000000000E+00 -0.21810038390E+02  0.21810038539E+02  0.25500000000E-02 0.  1.
         25    2    1    2    0    0 -0.96532016030E+01 -0.70858528476E+02  0.69730985575E+03  0.71203003246E+03  0.12502646454E+03 0.  0.
         23    2    1    2    0    0  0.96532016030E+01  0.70858528476E+02  0.21706624449E+03  0.24596614472E+03  0.90925653644E+02 0.  0.
        -13    1    4    4    0    0 -0.38659712140E+02  0.14480773366E+02  0.71663063055E+02  0.82703518126E+02  0.10566000000E+00 0.  1.
         13    1    4    4    0    0  0.48312913743E+02  0.56377755110E+02  0.14540318144E+03  0.16326262659E+03  0.10566000000E+00 0. -1.
    9000005    1    3    3    0    0  0.44697925654E+01 -0.86103894649E+02  0.67857782841E+03  0.68403415772E+03  0.10000000000E+01 0.  0.
    9000005    1    3    3    0    0 -0.14122994168E+02  0.15245366173E+02  0.18732027342E+02  0.27995874738E+02  0.10000000000E+01 0.  0.
<mgrwt>
<rscale>  0 0.13635208E+03</rscale>
<asrwt>0</asrwt>
<pdfrwt beam="1">  1        2 0.14402866E+00 0.14403379E+03</pdfrwt>
<pdfrwt beam="2">  1       -2 0.33553900E-02 0.14403379E+03</pdfrwt>
<totfact> 0.99649060E+03</totfact>
</mgrwt>
</event>
<event>
 8    3  0.7944584E-004  0.1348485E+03  0.7818608E-02  0.1231243E+00
          2   -1    0    0  501    0  0.00000000000E+00  0.00000000000E+00  0.32937316712E+04  0.32937316712E+04  0.25500000000E-02 0. -1.
         -2   -1    0    0    0  501 -0.00000000000E+00 -0.00000000000E+00 -0.48509240212E+01  0.48509246914E+01  0.25500000000E-02 0.  1.
         25    2    1    2    0    0 -0.43531012300E+02  0.25759702654E+02  0.13516141298E+04  0.13583242921E+04  0.12500246103E+03 0.  0.
         23    2    1    2    0    0  0.43531012300E+02 -0.25759702654E+02  0.19372666174E+04  0.19402583038E+04  0.95088523991E+02 0.  0.
        -13    1    4    4    0    0 -0.12599909150E+01  0.70344840073E+01  0.10555375153E+02  0.12747495872E+02  0.10566000000E+00 0.  1.
         13    1    4    4    0    0  0.44791003215E+02 -0.32794186661E+02  0.19267112423E+04  0.19275108080E+04  0.10566000000E+00 0. -1.
    9000005    1    3    3    0    0 -0.53951467396E+02 -0.32656956878E+02  0.40807984474E+03  0.41292541379E+03  0.10000000000E+01 0.  0.
    9000005    1    3    3    0    0  0.10420455096E+02  0.58416659532E+02  0.94353428507E+03  0.94539887830E+03  0.10000000000E+01 0.  0.
<mgrwt>
<rscale>  0 0.12748042E+03</rscale>
<asrwt>0</asrwt>
<pdfrwt beam="1">  1        2 0.50672802E+00 0.13484853E+03</pdfrwt>
<pdfrwt beam="2">  1       -2 0.74629595E-03 0.13484853E+03</pdfrwt>
<totfact> 0.45475044E+03</totfact>
</mgrwt>
</event>
<event>
 8    3  0.7944584E-004  0.1467414E+03  0.7818608E-02  0.1214079E+00
         -2   -1    0    0    0  501 -0.00000000000E+00  0.00000000000E+00  0.12004129570E+02  0.12004129841E+02  0.25500000000E-02 0.  1.
          2   -1    0    0  501    0  0.00000000000E+00 -0.00000000000E+00 -0.17542263454E+04  0.17542263454E+04  0.25500000000E-02 0. -1.
         25    2    1    2    0    0  0.43465084424E+02 -0.63393202068E+02 -0.12946348979E+04  0.13029246170E+04  0.12500050850E+03 0.  0.
         23    2    1    2    0    0 -0.43465084424E+02  0.63393202068E+02 -0.44758731793E+03  0.46330585823E+03  0.91706049233E+02 0.  0.
        -13    1    4    4    0    0 -0.42163368697E+02 -0.55341105866E+01 -0.25993762941E+03  0.26339316314E+03  0.10566000000E+00 0.  1.
         13    1    4    4    0    0 -0.13017157274E+01  0.68927312655E+02 -0.18764968852E+03  0.19991269509E+03  0.10566000000E+00 0. -1.
    9000005    1    3    3    0    0 -0.39417294552E+02 -0.30855730150E+02 -0.68416646687E+03  0.68599603029E+03  0.10000000000E+01 0.  0.
    9000005    1    3    3    0    0  0.82882378976E+02 -0.32537471918E+02 -0.61046843106E+03  0.61692858675E+03  0.10000000000E+01 0.  0.
<mgrwt>
<rscale>  0 0.13944388E+03</rscale>
<asrwt>0</asrwt>
<pdfrwt beam="2">  1        2 0.26988077E+00 0.14674140E+03</pdfrwt>
<pdfrwt beam="1">  1       -2 0.18467906E-02 0.14674140E+03</pdfrwt>
<totfact> 0.85576073E+03</totfact>
</mgrwt>
</event>
<event>
 8    3  0.7944584E-004  0.2084867E+03  0.7818608E-02  0.1148748E+00
         -2   -1    0    0    0  501 -0.00000000000E+00  0.00000000000E+00  0.59972747746E+02  0.59972747800E+02  0.25500000000E-02 0. -1.
          2   -1    0    0  501    0  0.00000000000E+00 -0.00000000000E+00 -0.66230446179E+03  0.66230446179E+03  0.25500000000E-02 0.  1.
         25    2    1    2    0    0  0.62919808729E+02 -0.15454150184E+03 -0.39921945948E+03  0.45038083569E+03  0.12499896883E+03 0.  0.
         23    2    1    2    0    0 -0.62919808729E+02  0.15454150184E+03 -0.20311225456E+03  0.27189637390E+03  0.69505913915E+02 0.  0.
        -13    1    4    4    0    0 -0.74727509307E+01  0.75143100154E+02 -0.49453382741E+02  0.90266138368E+02  0.10566000000E+00 0.  1.
         13    1    4    4    0    0 -0.55447057798E+02  0.79398401682E+02 -0.15365887182E+03  0.18163023554E+03  0.10566000000E+00 0. -1.
    9000005    1    3    3    0    0  0.20706352462E+02 -0.93451627699E+02 -0.34605331600E+03  0.35904854444E+03  0.10000000000E+01 0.  0.
    9000005    1    3    3    0    0  0.42213456266E+02 -0.61089874137E+02 -0.53166143485E+02  0.91332291250E+02  0.10000000000E+01 0.  0.
<mgrwt>
<rscale>  0 0.20117895E+03</rscale>
<asrwt>0</asrwt>
<pdfrwt beam="2">  1        2 0.10189299E+00 0.20848674E+03</pdfrwt>
<pdfrwt beam="1">  1       -2 0.92265771E-02 0.20848674E+03</pdfrwt>
<totfact> 0.33504341E+03</totfact>
</mgrwt>
</event>
<event>
 8    3  0.7944584E-004  0.1274818E+03  0.7818608E-02  0.1245798E+00
          2   -1    0    0  501    0  0.00000000000E+00  0.00000000000E+00  0.10815042499E+04  0.10815042499E+04  0.25500000000E-02 0.  1.
         -2   -1    0    0    0  501 -0.00000000000E+00 -0.00000000000E+00 -0.11491201026E+02  0.11491201309E+02  0.25500000000E-02 0. -1.
         25    2    1    2    0    0  0.14305440851E+02  0.20570434319E+02  0.57059737501E+03  0.58466484540E+03  0.12499531463E+03 0.  0.
         23    2    1    2    0    0 -0.14305440851E+02 -0.20570434319E+02  0.49941567385E+03  0.50833060579E+03  0.91412258973E+02 0.  0.
        -13    1    4    4    0    0 -0.41543562349E+02  0.66395363246E+01  0.39147477886E+03  0.39372892281E+03  0.10566000000E+00 0.  1.
         13    1    4    4    0    0  0.27238121498E+02 -0.27209970643E+02  0.10794089499E+03  0.11460168298E+03  0.10566000000E+00 0. -1.
    9000005    1    3    3    0    0 -0.54694289581E+02  0.20613522131E+02  0.25701344261E+03  0.26357786760E+03  0.10000000000E+01 0.  0.
    9000005    1    3    3    0    0  0.68999730432E+02 -0.43087812659E-01  0.31358393239E+03  0.32108697780E+03  0.10000000000E+01 0.  0.
<mgrwt>
<rscale>  0 0.11837769E+03</rscale>
<asrwt>0</asrwt>
<pdfrwt beam="1">  1        2 0.16638529E+00 0.12748183E+03</pdfrwt>
<pdfrwt beam="2">  1       -2 0.17678769E-02 0.12748183E+03</pdfrwt>
<totfact> 0.20650863E+04</totfact>
</mgrwt>
</event>
<event>
 8    3  0.7944584E-004  0.1252452E+03  0.7818608E-02  0.1247124E+00
          2   -1    0    0  501    0  0.00000000000E+00  0.00000000000E+00  0.25347860055E+04  0.25347860055E+04  0.25500000000E-02 0.  1.
         -2   -1    0    0    0  501 -0.00000000000E+00 -0.00000000000E+00 -0.52666669998E+01  0.52666676171E+01  0.25500000000E-02 0. -1.
         25    2    1    2    0    0 -0.56176185707E+01  0.54346298286E+01  0.17509913347E+04  0.17554648964E+04  0.12500102247E+03 0.  0.
         23    2    1    2    0    0  0.56176185707E+01 -0.54346298286E+01  0.77852800385E+03  0.78458777672E+03  0.97010482753E+02 0.  0.
        -13    1    4    4    0    0 -0.33409354609E+02 -0.70938518230E+01  0.11637020047E+03  0.12127877981E+03  0.10566000000E+00 0. -1.
         13    1    4    4    0    0  0.39026973180E+02  0.16592219944E+01  0.66215780338E+03  0.66330899692E+03  0.10566000000E+00 0.  1.
    9000005    1    3    3    0    0 -0.33938305647E+02  0.18300052299E+02  0.17646908092E+03  0.18063509356E+03  0.10000000000E+01 0.  0.
    9000005    1    3    3    0    0  0.28320687076E+02 -0.12865422470E+02  0.15745222538E+04  0.15748298029E+04  0.10000000000E+01 0.  0.
<mgrwt>
<rscale>  0 0.11759169E+03</rscale>
<asrwt>0</asrwt>
<pdfrwt beam="1">  1        2 0.38996757E+00 0.12524515E+03</pdfrwt>
<pdfrwt beam="2">  1       -2 0.81025548E-03 0.12524515E+03</pdfrwt>
<totfact> 0.10958058E+04</totfact>
</mgrwt>
</event>
<event>
 8    3  0.7944584E-004  0.1510557E+03  0.7818608E-02  0.1211288E+00
          2   -1    0    0  501    0  0.00000000000E+00  0.00000000000E+00  0.67619874483E+03  0.67619874483E+03  0.25500000000E-02 0. -1.
         -2   -1    0    0    0  501 -0.00000000000E+00 -0.00000000000E+00 -0.31582400381E+02  0.31582400484E+02  0.25500000000E-02 0.  1.
         25    2    1    2    0    0 -0.37613658346E+02 -0.76010356784E+02  0.49898054151E+03  0.52134384888E+03  0.12500186531E+03 0.  0.
         23    2    1    2    0    0  0.37613658346E+02  0.76010356784E+02  0.14563580294E+03  0.18643729643E+03  0.79729020888E+02 0.  0.
        -13    1    4    4    0    0  0.58755152328E+02  0.72881091433E+02  0.12881774213E+03  0.15924146214E+03  0.10566000000E+00 0.  1.
         13    1    4    4    0    0 -0.21141493982E+02  0.31292653511E+01  0.16818060804E+02  0.27195834289E+02  0.10566000000E+00 0. -1.
    9000005    1    3    3    0    0 -0.71600623331E+02 -0.52427038746E+01  0.21263981531E+03  0.22443445871E+03  0.10000000000E+01 0.  0.
    9000005    1    3    3    0    0  0.33986964985E+02 -0.70767652910E+02  0.28634072620E+03  0.29690939017E+03  0.10000000000E+01 0.  0.
<mgrwt>
<rscale>  0 0.14152774E+03</rscale>
<asrwt>0</asrwt>
<pdfrwt beam="1">  1        2 0.10403058E+00 0.15105571E+03</pdfrwt>
<pdfrwt beam="2">  1       -2 0.48588308E-02 0.15105571E+03</pdfrwt>
<totfact> 0.86413388E+03</totfact>
</mgrwt>
</event>
<event>
 8    3  0.7944584E-004  0.1431296E+03  0.7818608E-02  0.1218748E+00
         -2   -1    0    0    0  501 -0.00000000000E+00  0.00000000000E+00  0.23097016020E+02  0.23097016161E+02  0.25500000000E-02 0.  1.
          2   -1    0    0  501    0  0.00000000000E+00 -0.00000000000E+00 -0.76385571743E+03  0.76385571743E+03  0.25500000000E-02 0. -1.
         25    2    1    2    0    0 -0.61198897630E+02  0.33259722569E+02 -0.32568134132E+03  0.35574487599E+03  0.12503826013E+03 0.  0.
         23    2    1    2    0    0  0.61198897630E+02 -0.33259722569E+02 -0.41507736009E+03  0.43120785760E+03  0.93805582883E+02 0.  0.
        -13    1    4    4    0    0  0.66341333750E+02 -0.14508747133E+02 -0.40218571608E+03  0.40787870463E+03  0.10566000000E+00 0. -1.
         13    1    4    4    0    0 -0.51424361196E+01 -0.18750975437E+02 -0.12891644013E+02  0.23329152973E+02  0.10566000000E+00 0.  1.
    9000005    1    3    3    0    0  0.20611207354E+02  0.11105154479E+02 -0.48829340632E+01  0.23937196362E+02  0.10000000000E+01 0.  0.
    9000005    1    3    3    0    0 -0.81810104984E+02  0.22154568090E+02 -0.32079840725E+03  0.33180767963E+03  0.10000000000E+01 0.  0.
<mgrwt>
<rscale>  0 0.13604815E+03</rscale>
<asrwt>0</asrwt>
<pdfrwt beam="2">  1        2 0.11751624E+00 0.14312959E+03</pdfrwt>
<pdfrwt beam="1">  1       -2 0.35533877E-02 0.14312959E+03</pdfrwt>
<totfact> 0.11864401E+04</totfact>
</mgrwt>
</event>
<event>
 8    3  0.7944584E-004  0.2422573E+03  0.7818608E-02  0.1121095E+00
          2   -1    0    0  501    0  0.00000000000E+00  0.00000000000E+00  0.43880956095E+03  0.43880956096E+03  0.25500000000E-02 0.  1.
         -2   -1    0    0    0  501 -0.00000000000E+00 -0.00000000000E+00 -0.15680492853E+03  0.15680492855E+03  0.25500000000E-02 0. -1.
         25    2    1    2    0    0  0.18823823517E+03 -0.87352152940E+02  0.10570725122E+02  0.24248779418E+03  0.12499823316E+03 0.  0.
         23    2    1    2    0    0 -0.18823823517E+03  0.87352152940E+02  0.27143390730E+03  0.35312669534E+03  0.89207988018E+02 0.  0.
        -13    1    4    4    0    0 -0.20470737396E+02  0.44873609385E+02  0.88410616118E+02  0.10123803690E+03  0.10566000000E+00 0.  1.
         13    1    4    4    0    0 -0.16776749777E+03  0.42478543554E+02  0.18302329118E+03  0.25188865844E+03  0.10566000000E+00 0. -1.
    9000005    1    3    3    0    0  0.80554053285E+02 -0.30050766034E+02 -0.56882577132E+02  0.10309525509E+03  0.10000000000E+01 0.  0.
    9000005    1    3    3    0    0  0.10768418188E+03 -0.57301386906E+02  0.67453302254E+02  0.13939253909E+03  0.10000000000E+01 0.  0.
<mgrwt>
<rscale>  0 0.23805506E+03</rscale>
<asrwt>0</asrwt>
<pdfrwt beam="1">  1        2 0.67509163E-01 0.24225728E+03</pdfrwt>
<pdfrwt beam="2">  1       -2 0.24123835E-01 0.24225728E+03</pdfrwt>
<totfact> 0.10915319E+03</totfact>
</mgrwt>
</event>
<event>
 8    3  0.7944584E-004  0.1320709E+03  0.7818608E-02  0.1237226E+00
          2   -1    0    0  501    0  0.00000000000E+00  0.00000000000E+00  0.96984098083E+01  0.96984101436E+01  0.25500000000E-02 0. -1.
         -2   -1    0    0    0  501 -0.00000000000E+00 -0.00000000000E+00 -0.14052274140E+04  0.14052274140E+04  0.25500000000E-02 0.  1.
         25    2    1    2    0    0 -0.53988076933E+01  0.42266484052E+02 -0.78544647244E+03  0.79647278074E+03  0.12500850606E+03 0.  0.
         23    2    1    2    0    0  0.53988076933E+01 -0.42266484052E+02 -0.61008253172E+03  0.61845304338E+03  0.92021022355E+02 0.  0.
        -13    1    4    4    0    0 -0.22953176406E+02 -0.19950477232E+02 -0.52696625878E+03  0.52784308170E+03  0.10566000000E+00 0.  1.
         13    1    4    4    0    0  0.28351984099E+02 -0.22316006820E+02 -0.83116272946E+02  0.90609961677E+02  0.10566000000E+00 0. -1.
    9000005    1    3    3    0    0 -0.49406049854E+02  0.64546513427E+02 -0.42972037048E+03  0.43734175076E+03  0.10000000000E+01 0.  0.
    9000005    1    3    3    0    0  0.44007242161E+02 -0.22280029375E+02 -0.35572610196E+03  0.35913102997E+03  0.10000000000E+01 0.  0.
<mgrwt>
<rscale>  0 0.12362972E+03</rscale>
<asrwt>0</asrwt>
<pdfrwt beam="1">  1        2 0.14920642E-02 0.13207093E+03</pdfrwt>
<pdfrwt beam="2">  1       -2 0.21618867E+00 0.13207093E+03</pdfrwt>
<totfact> 0.91178996E+02</totfact>
</mgrwt>
</event>
<event>
 8    3  0.7944584E-004  0.1251001E+03  0.7818608E-02  0.1250030E+00
          2   -1    0    0  501    0  0.00000000000E+00  0.00000000000E+00  0.94892045790E+01  0.94892049216E+01  0.25500000000E-02 0.  1.
         -2   -1    0    0    0  501 -0.00000000000E+00 -0.00000000000E+00 -0.12514080814E+04  0.12514080814E+04  0.25500000000E-02 0. -1.
         25    2    1    2    0    0 -0.45826071441E+01  0.21439306293E+01 -0.66462025786E+03  0.67629145168E+03  0.12499777490E+03 0.  0.
         23    2    1    2    0    0  0.45826071441E+01 -0.21439306293E+01 -0.57729861901E+03  0.58460583469E+03  0.92003748402E+02 0.  0.
        -13    1    4    4    0    0  0.36137553061E+02  0.28564976702E+02 -0.35613625159E+03  0.35910293997E+03  0.10566000000E+00 0. -1.
         13    1    4    4    0    0 -0.31554945917E+02 -0.30708907331E+02 -0.22116236742E+03  0.22550289472E+03  0.10566000000E+00 0.  1.
    9000005    1    3    3    0    0  0.47332717800E+01  0.16431954065E+02 -0.70890252318E+01  0.18538264614E+02  0.10000000000E+01 0.  0.
    9000005    1    3    3    0    0 -0.93158789241E+01 -0.14288023436E+02 -0.65753123263E+03  0.65775318707E+03  0.10000000000E+01 0.  0.
<mgrwt>
<rscale>  0 0.11589337E+03</rscale>
<asrwt>0</asrwt>
<pdfrwt beam="1">  1        2 0.14598786E-02 0.12510012E+03</pdfrwt>
<pdfrwt beam="2">  1       -2 0.19252419E+00 0.12510012E+03</pdfrwt>
<totfact> 0.13097061E+03</totfact>
</mgrwt>
</event>
<event>
 8    3  0.7944584E-004  0.1767362E+03  0.7818608E-02  0.1176925E+00
          2   -1    0    0  501    0  0.00000000000E+00  0.00000000000E+00  0.74816061192E+03  0.74816061192E+03  0.25500000000E-02 0. -1.
         -2   -1    0    0    0  501 -0.00000000000E+00 -0.00000000000E+00 -0.43057793060E+02  0.43057793135E+02  0.25500000000E-02 0.  1.
         25    2    1    2    0    0  0.93339764946E+02  0.83051791077E+02  0.22048940681E+03  0.28257967640E+03  0.12500313308E+03 0.  0.
         23    2    1    2    0    0 -0.93339764946E+02 -0.83051791077E+02  0.48461341205E+03  0.50863872865E+03  0.90847594515E+02 0.  0.
        -13    1    4    4    0    0 -0.65184171780E+02 -0.95748076423E+02  0.43533505365E+03  0.45048117662E+03  0.10566000000E+00 0.  1.
         13    1    4    4    0    0 -0.28155593166E+02  0.12696285346E+02  0.49278358399E+02  0.58157552035E+02  0.10566000000E+00 0. -1.
    9000005    1    3    3    0    0  0.10121388801E+02 -0.24408924724E+02  0.36936783882E+01  0.26699838529E+02  0.10000000000E+01 0.  0.
    9000005    1    3    3    0    0  0.83218376145E+02  0.10746071580E+03  0.21679572842E+03  0.25587983787E+03  0.10000000000E+01 0.  0.
<mgrwt>
<rscale>  0 0.17088749E+03</rscale>
<asrwt>0</asrwt>
<pdfrwt beam="1">  1        2 0.11510163E+00 0.17673623E+03</pdfrwt>
<pdfrwt beam="2">  1       -2 0.66242762E-02 0.17673623E+03</pdfrwt>
<totfact> 0.48150659E+03</totfact>
</mgrwt>
</event>
<event>
 8    3  0.7944584E-004  0.1384531E+03  0.7818608E-02  0.1227003E+00
          2   -1    0    0  501    0  0.00000000000E+00  0.00000000000E+00  0.31555746821E+02  0.31555746924E+02  0.25500000000E-02 0.  1.
         -2   -1    0    0    0  501 -0.00000000000E+00 -0.00000000000E+00 -0.48813141631E+03  0.48813141632E+03  0.25500000000E-02 0. -1.
         25    2    1    2    0    0 -0.53893986538E+02  0.25268405087E+02 -0.28028612318E+03  0.31261729818E+03  0.12500484067E+03 0.  0.
         23    2    1    2    0    0  0.53893986538E+02 -0.25268405087E+02 -0.17628954631E+03  0.20706986507E+03  0.90867325264E+02 0.  0.
        -13    1    4    4    0    0  0.36869271018E+02 -0.15151349040E+02 -0.18211521372E+03  0.18642657739E+03  0.10566000000E+00 0. -1.
         13    1    4    4    0    0  0.17024715520E+02 -0.10117056047E+02  0.58256674096E+01  0.20643287684E+02  0.10566000000E+00 0.  1.
    9000005    1    3    3    0    0  0.58765969267E+01 -0.10233054569E+02 -0.22079627300E+03  0.22111364491E+03  0.10000000000E+01 0.  0.
    9000005    1    3    3    0    0 -0.59770583464E+02  0.35501459657E+02 -0.59489850184E+02  0.91503653262E+02  0.10000000000E+01 0.  0.
<mgrwt>
<rscale>  0 0.13030526E+03</rscale>
<asrwt>0</asrwt>
<pdfrwt beam="1">  1        2 0.48547307E-02 0.13845311E+03</pdfrwt>
<pdfrwt beam="2">  1       -2 0.75097135E-01 0.13845311E+03</pdfrwt>
<totfact> 0.25672424E+03</totfact>
</mgrwt>
</event>
<event>
 8    3  0.7944584E-004  0.1349039E+03  0.7818608E-02  0.1232088E+00
         -2   -1    0    0    0  501 -0.00000000000E+00  0.00000000000E+00  0.13791706817E+02  0.13791707053E+02  0.25500000000E-02 0.  1.
          2   -1    0    0  501    0  0.00000000000E+00 -0.00000000000E+00 -0.13035358661E+04  0.13035358661E+04  0.25500000000E-02 0. -1.
         25    2    1    2    0    0 -0.47427242908E+02  0.18019102578E+02 -0.99688437810E+03  0.10059709412E+04  0.12500015894E+03 0.  0.
         23    2    1    2    0    0  0.47427242908E+02 -0.18019102578E+02 -0.29285978116E+03  0.31135663197E+03  0.92747341863E+02 0.  0.
        -13    1    4    4    0    0 -0.32299534883E+01  0.14157607699E+02 -0.23471536004E+01  0.14710226013E+02  0.10566000000E+00 0.  1.
         13    1    4    4    0    0  0.50657196396E+02 -0.32176710278E+02 -0.29051262756E+03  0.29664640596E+03  0.10566000000E+00 0. -1.
    9000005    1    3    3    0    0 -0.53543405632E+02 -0.45955747184E+02 -0.50648843722E+03  0.51138084050E+03  0.10000000000E+01 0.  0.
    9000005    1    3    3    0    0  0.61161627239E+01  0.63974849763E+02 -0.49039594088E+03  0.49459010067E+03  0.10000000000E+01 0.  0.
<mgrwt>
<rscale>  0 0.12692721E+03</rscale>
<asrwt>0</asrwt>
<pdfrwt beam="2">  1        2 0.20054388E+00 0.13490393E+03</pdfrwt>
<pdfrwt beam="1">  1       -2 0.21218021E-02 0.13490393E+03</pdfrwt>
<totfact> 0.11979667E+04</totfact>
</mgrwt>
</event>
<event>
 8    3  0.7944584E-004  0.1427842E+03  0.7818608E-02  0.1220995E+00
          2   -1    0    0  501    0  0.00000000000E+00  0.00000000000E+00  0.42993798249E+04  0.42993798249E+04  0.25500000000E-02 0. -1.
         -2   -1    0    0    0  501 -0.00000000000E+00 -0.00000000000E+00 -0.41096008160E+01  0.41096016072E+01  0.25500000000E-02 0.  1.
         25    2    1    2    0    0  0.31679467057E+02  0.61307972389E+02  0.29872989204E+04  0.29907093099E+04  0.12500032024E+03 0.  0.
         23    2    1    2    0    0 -0.31679467057E+02 -0.61307972389E+02  0.13079713037E+04  0.13127801167E+04  0.88546300506E+02 0.  0.
        -13    1    4    4    0    0 -0.81844510830E+01 -0.33809165985E+02  0.14027605801E+03  0.14452483717E+03  0.10566000000E+00 0.  1.
         13    1    4    4    0    0 -0.23495015974E+02 -0.27498806404E+02  0.11676952457E+04  0.11682552795E+04  0.10566000000E+00 0. -1.
    9000005    1    3    3    0    0  0.36057849609E+02  0.89433420185E+02  0.27525710055E+04  0.27542597273E+04  0.10000000000E+01 0.  0.
    9000005    1    3    3    0    0 -0.43783825513E+01 -0.28125447796E+02  0.23472791488E+03  0.23644958252E+03  0.10000000000E+01 0.  0.
<mgrwt>
<rscale>  0 0.13445227E+03</rscale>
<asrwt>0</asrwt>
<pdfrwt beam="1">  1        2 0.66144349E+00 0.14278423E+03</pdfrwt>
<pdfrwt beam="2">  1       -2 0.63224592E-03 0.14278423E+03</pdfrwt>
<totfact> 0.11073924E+03</totfact>
</mgrwt>
</event>
<event>
 8    3  0.7944584E-004  0.1631603E+03  0.7818608E-02  0.1192446E+00
         -2   -1    0    0    0  501 -0.00000000000E+00  0.00000000000E+00  0.30147128120E+02  0.30147128227E+02  0.25500000000E-02 0. -1.
          2   -1    0    0  501    0  0.00000000000E+00 -0.00000000000E+00 -0.75733753739E+03  0.75733753740E+03  0.25500000000E-02 0.  1.
         25    2    1    2    0    0  0.71710059767E+02 -0.76514906941E+02 -0.40483941742E+03  0.43648164433E+03  0.12499763310E+03 0.  0.
         23    2    1    2    0    0 -0.71710059767E+02  0.76514906941E+02 -0.32235099185E+03  0.35100302130E+03  0.91082903752E+02 0.  0.
        -13    1    4    4    0    0  0.77281137722E+01  0.54206471239E+02 -0.15563878894E+03  0.16498942104E+03  0.10566000000E+00 0.  1.
         13    1    4    4    0    0 -0.79438173539E+02  0.22308435702E+02 -0.16671220291E+03  0.18601360026E+03  0.10566000000E+00 0. -1.
    9000005    1    3    3    0    0  0.22435830360E+02  0.30525471104E+01 -0.18205653783E+01  0.22737611706E+02  0.10000000000E+01 0.  0.
    9000005    1    3    3    0    0  0.49274229407E+02 -0.79567454051E+02 -0.40301885204E+03  0.41374403262E+03  0.10000000000E+01 0.  0.
<mgrwt>
<rscale>  0 0.15672405E+03</rscale>
<asrwt>0</asrwt>
<pdfrwt beam="2">  1        2 0.11651345E+00 0.16316026E+03</pdfrwt>
<pdfrwt beam="1">  1       -2 0.46380203E-02 0.16316026E+03</pdfrwt>
<totfact> 0.81204991E+03</totfact>
</mgrwt>
</event>
<event>
 8    3  0.7944584E-004  0.1543200E+03  0.7818608E-02  0.1203423E+00
         -2   -1    0    0    0  501 -0.00000000000E+00  0.00000000000E+00  0.18055685301E+02  0.18055685481E+02  0.25500000000E-02 0.  1.
          2   -1    0    0  501    0  0.00000000000E+00 -0.00000000000E+00 -0.12856459440E+04  0.12856459440E+04  0.25500000000E-02 0. -1.
         25    2    1    2    0    0 -0.11708385138E+02 -0.89735561062E+02 -0.92025971784E+03  0.93310910953E+03  0.12500041927E+03 0.  0.
         23    2    1    2    0    0  0.11708385138E+02  0.89735561062E+02 -0.34733054087E+03  0.37059251995E+03  0.92253748036E+02 0.  0.
        -13    1    4    4    0    0  0.35851203196E+02  0.73278843766E+02 -0.32118755951E+03  0.33138581330E+03  0.10566000000E+00 0. -1.
         13    1    4    4    0    0 -0.24142818057E+02  0.16456717296E+02 -0.26142981359E+02  0.39206706650E+02  0.10566000000E+00 0.  1.
    9000005    1    3    3    0    0 -0.30119826651E+02  0.24262132991E+02 -0.24932341204E+03  0.25230738960E+03  0.10000000000E+01 0.  0.
    9000005    1    3    3    0    0  0.18411441513E+02 -0.11399769405E+03 -0.67093630580E+03  0.68080171994E+03  0.10000000000E+01 0.  0.
<mgrwt>
<rscale>  0 0.14762409E+03</rscale>
<asrwt>0</asrwt>
<pdfrwt beam="2">  1        2 0.19779161E+00 0.15432000E+03</pdfrwt>
<pdfrwt beam="1">  1       -2 0.27777988E-02 0.15432000E+03</pdfrwt>
<totfact> 0.83131612E+03</totfact>
</mgrwt>
</event>
<event>
 8    3  0.7944584E-004  0.1529626E+03  0.7818608E-02  0.1205487E+00
         -2   -1    0    0    0  501 -0.00000000000E+00  0.00000000000E+00  0.10061497008E+02  0.10061497331E+02  0.25500000000E-02 0.  1.
          2   -1    0    0  501    0  0.00000000000E+00 -0.00000000000E+00 -0.19544425055E+04  0.19544425055E+04  0.25500000000E-02 0. -1.
         25    2    1    2    0    0 -0.63263730210E+02 -0.61407515885E+02 -0.11247142231E+04  0.11350681273E+04  0.12499754991E+03 0.  0.
         23    2    1    2    0    0  0.63263730210E+02  0.61407515885E+02 -0.81966678547E+03  0.82943587558E+03  0.91307447225E+02 0.  0.
        -13    1    4    4    0    0  0.19935003976E+02  0.23843041120E+02 -0.64182777609E+03  0.64257980074E+03  0.10566000000E+00 0. -1.
         13    1    4    4    0    0  0.43328726233E+02  0.37564474765E+02 -0.17783900939E+03  0.18685607484E+03  0.10566000000E+00 0.  1.
    9000005    1    3    3    0    0 -0.32082734319E+01 -0.54840101173E+02 -0.91959353403E+03  0.92123341100E+03  0.10000000000E+01 0.  0.
    9000005    1    3    3    0    0 -0.60055456778E+02 -0.65674147120E+01 -0.20512068903E+03  0.21383471629E+03  0.10000000000E+01 0.  0.
<mgrwt>
<rscale>  0 0.14599123E+03</rscale>
<asrwt>0</asrwt>
<pdfrwt beam="2">  1        2 0.30068316E+00 0.15296264E+03</pdfrwt>
<pdfrwt beam="1">  1       -2 0.15479242E-02 0.15296264E+03</pdfrwt>
<totfact> 0.87355345E+03</totfact>
</mgrwt>
</event>
<event>
 8    3  0.7944584E-004  0.1476997E+03  0.7818608E-02  0.1212513E+00
         -2   -1    0    0    0  501 -0.00000000000E+00  0.00000000000E+00  0.60776748805E+01  0.60776754154E+01  0.25500000000E-02 0.  1.
          2   -1    0    0  501    0  0.00000000000E+00 -0.00000000000E+00 -0.30776321305E+04  0.30776321305E+04  0.25500000000E-02 0. -1.
         25    2    1    2    0    0 -0.23850508994E+02 -0.74983592171E+02 -0.14036696092E+04  0.14114189927E+04  0.12499526053E+03 0.  0.
         23    2    1    2    0    0  0.23850508994E+02  0.74983592171E+02 -0.16678848464E+04  0.16722908132E+04  0.92332645013E+02 0.  0.
        -13    1    4    4    0    0 -0.71234744435E+01  0.60536967941E+02 -0.47224704951E+03  0.47616463047E+03  0.10566000000E+00 0.  1.
         13    1    4    4    0    0  0.30973983438E+02  0.14446624230E+02 -0.11956377969E+04  0.11961261827E+04  0.10566000000E+00 0. -1.
    9000005    1    3    3    0    0  0.19328268960E+01  0.11095562125E+02 -0.88155168334E+03  0.88162419302E+03  0.10000000000E+01 0.  0.
    9000005    1    3    3    0    0 -0.25783335890E+02 -0.86079154296E+02 -0.52211792587E+03  0.52979479964E+03  0.10000000000E+01 0.  0.
<mgrwt>
<rscale>  0 0.14060832E+03</rscale>
<asrwt>0</asrwt>
<pdfrwt beam="2">  1        2 0.47348062E+00 0.14769970E+03</pdfrwt>
<pdfrwt beam="1">  1       -2 0.93502940E-03 0.14769970E+03</pdfrwt>
<totfact> 0.44426574E+03</totfact>
</mgrwt>
</event>
<event>
 8    3  0.7944584E-004  0.1417216E+03  0.7818608E-02  0.1221671E+00
         -2   -1    0    0    0  501 -0.00000000000E+00  0.00000000000E+00  0.36270248911E+03  0.36270248912E+03  0.25500000000E-02 0.  1.
          2   -1    0    0  501    0  0.00000000000E+00 -0.00000000000E+00 -0.48914711268E+02  0.48914711334E+02  0.25500000000E-02 0. -1.
         25    2    1    2    0    0 -0.60986041808E+02  0.27211197541E+02  0.11354794356E+03  0.18159885061E+03  0.12500104195E+03 0.  0.
         23    2    1    2    0    0  0.60986041808E+02 -0.27211197541E+02  0.20023983428E+03  0.23001834984E+03  0.91393125927E+02 0.  0.
        -13    1    4    4    0    0  0.67646025821E+02  0.15954570905E+02  0.12467812151E+03  0.14274164875E+03  0.10566000000E+00 0.  1.
         13    1    4    4    0    0 -0.66599840131E+01 -0.43165768446E+02  0.75561712771E+02  0.87276701092E+02  0.10566000000E+00 0. -1.
    9000005    1    3    3    0    0 -0.79268664735E+02 -0.26733695136E+02  0.78437296076E+02  0.11468051744E+03  0.10000000000E+01 0.  0.
    9000005    1    3    3    0    0  0.18282622927E+02  0.53944892677E+02  0.35110647486E+02  0.66918333167E+02  0.10000000000E+01 0.  0.
<mgrwt>
<rscale>  0 0.13397724E+03</rscale>
<asrwt>0</asrwt>
<pdfrwt beam="2">  1        2 0.75253402E-02 0.14172158E+03</pdfrwt>
<pdfrwt beam="1">  1       -2 0.55800383E-01 0.14172158E+03</pdfrwt>
<totfact> 0.27198625E+03</totfact>
</mgrwt>
</event>
<event>
 8    3  0.7944584E-004  0.1308561E+03  0.7818608E-02  0.1240710E+00
          2   -1    0    0  501    0  0.00000000000E+00  0.00000000000E+00  0.36333459060E+03  0.36333459061E+03  0.25500000000E-02 0.  1.
         -2   -1    0    0    0  501 -0.00000000000E+00 -0.00000000000E+00 -0.51609482553E+02  0.51609482616E+02  0.25500000000E-02 0. -1.
         25    2    1    2    0    0  0.16419316129E+02 -0.35057095321E+02  0.57752946513E+02  0.14303397932E+03  0.12499889014E+03 0.  0.
         23    2    1    2    0    0 -0.16419316129E+02  0.35057095321E+02  0.25397216154E+03  0.27191009390E+03  0.89076632492E+02 0.  0.
        -13    1    4    4    0    0 -0.42841686603E+02 -0.74477196808E+01  0.15527199570E+03  0.16124603081E+03  0.10566000000E+00 0.  1.
         13    1    4    4    0    0  0.26422370474E+02  0.42504815002E+02  0.98700165839E+02  0.11066406309E+03  0.10566000000E+00 0. -1.
    9000005    1    3    3    0    0  0.20556018662E+02  0.19608031753E+02 -0.28870393006E+02  0.40515730338E+02  0.10000000000E+01 0.  0.
    9000005    1    3    3    0    0 -0.41367025330E+01 -0.54665127075E+02  0.86623339519E+02  0.10251824899E+03  0.10000000000E+01 0.  0.
<mgrwt>
<rscale>  0 0.12145854E+03</rscale>
<asrwt>0</asrwt>
<pdfrwt beam="1">  1        2 0.55897629E-01 0.13085609E+03</pdfrwt>
<pdfrwt beam="2">  1       -2 0.79399205E-02 0.13085609E+03</pdfrwt>
<totfact> 0.80599123E+03</totfact>
</mgrwt>
</event>
<event>
 8    3  0.7944584E-004  0.1252610E+03  0.7818608E-02  0.1248499E+00
          2   -1    0    0  501    0  0.00000000000E+00  0.00000000000E+00  0.37114908385E+03  0.37114908386E+03  0.25500000000E-02 0. -1.
         -2   -1    0    0    0  501 -0.00000000000E+00 -0.00000000000E+00 -0.33703922349E+02  0.33703922445E+02  0.25500000000E-02 0.  1.
         25    2    1    2    0    0 -0.17111794395E+01 -0.79303362185E+01  0.22816502316E+03  0.26028750331E+03  0.12499795285E+03 0.  0.
         23    2    1    2    0    0  0.17111794395E+01  0.79303362185E+01  0.10928013834E+03  0.14456550299E+03  0.94293253484E+02 0.  0.
        -13    1    4    4    0    0  0.45846191187E+02  0.10139715250E+02  0.75635820511E+02  0.89025140158E+02  0.10566000000E+00 0.  1.
         13    1    4    4    0    0 -0.44135011748E+02 -0.22093790311E+01  0.33644317825E+02  0.55540362833E+02  0.10566000000E+00 0. -1.
    9000005    1    3    3    0    0 -0.50267935053E+02  0.22634303996E+02  0.16941794005E+03  0.17816457398E+03  0.10000000000E+01 0.  0.
    9000005    1    3    3    0    0  0.48556755613E+02 -0.30564640215E+02  0.58747083113E+02  0.82122929328E+02  0.10000000000E+01 0.  0.
<mgrwt>
<rscale>  0 0.11678373E+03</rscale>
<asrwt>0</asrwt>
<pdfrwt beam="1">  1        2 0.57099856E-01 0.12526095E+03</pdfrwt>
<pdfrwt beam="2">  1       -2 0.51852191E-02 0.12526095E+03</pdfrwt>
<totfact> 0.15010859E+04</totfact>
</mgrwt>
</event>
<event>
 8    3  0.7944584E-004  0.1936993E+03  0.7818608E-02  0.1161288E+00
          2   -1    0    0  501    0  0.00000000000E+00  0.00000000000E+00  0.14913079905E+03  0.14913079907E+03  0.25500000000E-02 0. -1.
         -2   -1    0    0    0  501 -0.00000000000E+00 -0.00000000000E+00 -0.24419238662E+03  0.24419238663E+03  0.25500000000E-02 0.  1.
         25    2    1    2    0    0 -0.79320937624E+02  0.12490572639E+03  0.12204705435E+02  0.19408342233E+03  0.12500467334E+03 0.  0.
         23    2    1    2    0    0  0.79320937624E+02 -0.12490572639E+03 -0.10726629301E+03  0.19923976338E+03  0.79354735623E+02 0.  0.
        -13    1    4    4    0    0  0.53425543006E+02 -0.68403013410E+02 -0.10609508198E+03  0.13707457267E+03  0.10566000000E+00 0.  1.
         13    1    4    4    0    0  0.25895394618E+02 -0.56502712981E+02 -0.11712110286E+01  0.62165190709E+02  0.10566000000E+00 0. -1.
    9000005    1    3    3    0    0 -0.35004887824E+02  0.88529432147E+02 -0.51607690610E+02  0.10829199535E+03  0.10000000000E+01 0.  0.
    9000005    1    3    3    0    0 -0.44316049800E+02  0.36376294244E+02  0.63812396046E+02  0.85791426972E+02  0.10000000000E+01 0.  0.
<mgrwt>
<rscale>  0 0.18689976E+03</rscale>
<asrwt>0</asrwt>
<pdfrwt beam="1">  1        2 0.22943200E-01 0.19369930E+03</pdfrwt>
<pdfrwt beam="2">  1       -2 0.37568059E-01 0.19369930E+03</pdfrwt>
<totfact> 0.15751202E+03</totfact>
</mgrwt>
</event>
<event>
 8    3  0.7944584E-004  0.1290695E+03  0.7818608E-02  0.1242693E+00
         -2   -1    0    0    0  501 -0.00000000000E+00  0.00000000000E+00  0.57878160878E+01  0.57878166495E+01  0.25500000000E-02 0.  1.
          2   -1    0    0  501    0  0.00000000000E+00 -0.00000000000E+00 -0.22789005027E+04  0.22789005027E+04  0.25500000000E-02 0. -1.
         25    2    1    2    0    0 -0.30750643300E+02  0.94080019357E+01 -0.14855662416E+04  0.14911626323E+04  0.12499930085E+03 0.  0.
         23    2    1    2    0    0  0.30750643300E+02 -0.94080019357E+01 -0.78754644497E+03  0.79352568701E+03  0.91757835628E+02 0.  0.
        -13    1    4    4    0    0  0.75244846950E+01 -0.10759259133E-01 -0.22848307020E+01  0.78644517329E+01  0.10566000000E+00 0.  1.
         13    1    4    4    0    0  0.23226158605E+02 -0.93972426766E+01 -0.78526161427E+03  0.78566123528E+03  0.10566000000E+00 0. -1.
    9000005    1    3    3    0    0 -0.41689958201E+02  0.61884175952E+02 -0.77951425392E+03  0.78307801394E+03  0.10000000000E+01 0.  0.
    9000005    1    3    3    0    0  0.10939314901E+02 -0.52476174016E+02 -0.70605198770E+03  0.70808461838E+03  0.10000000000E+01 0.  0.
<mgrwt>
<rscale>  0 0.12024512E+03</rscale>
<asrwt>0</asrwt>
<pdfrwt beam="2">  1        2 0.35059936E+00 0.12906951E+03</pdfrwt>
<pdfrwt beam="1">  1       -2 0.89043510E-03 0.12906951E+03</pdfrwt>
<totfact> 0.13078138E+04</totfact>
</mgrwt>
</event>
<event>
 8    3  0.7944584E-004  0.1400465E+03  0.7818608E-02  0.1224433E+00
         -2   -1    0    0    0  501 -0.00000000000E+00  0.00000000000E+00  0.11359600686E+03  0.11359600689E+03  0.25500000000E-02 0.  1.
          2   -1    0    0  501    0  0.00000000000E+00 -0.00000000000E+00 -0.13940416237E+03  0.13940416240E+03  0.25500000000E-02 0. -1.
         25    2    1    2    0    0  0.20449598980E+02 -0.59742448023E+02 -0.25071408799E+02  0.14227300970E+03  0.12500275019E+03 0.  0.
         23    2    1    2    0    0 -0.20449598980E+02  0.59742448023E+02 -0.73674671086E+00  0.11072715960E+03  0.90953916255E+02 0.  0.
        -13    1    4    4    0    0 -0.32175350560E+02  0.64985482969E+02  0.29183022024E+02  0.78166656056E+02  0.10566000000E+00 0.  1.
         13    1    4    4    0    0  0.11725751580E+02 -0.52430349465E+01 -0.29919768735E+02  0.32560503540E+02  0.10566000000E+00 0. -1.
    9000005    1    3    3    0    0  0.24011729585E+02 -0.34551698790E+02 -0.75127613784E+02  0.86113537843E+02  0.10000000000E+01 0.  0.
    9000005    1    3    3    0    0 -0.35621306058E+01 -0.25190749233E+02  0.50056204985E+02  0.56159471853E+02  0.10000000000E+01 0.  0.
<mgrwt>
<rscale>  0 0.13205822E+03</rscale>
<asrwt>0</asrwt>
<pdfrwt beam="2">  1        2 0.21446794E-01 0.14004654E+03</pdfrwt>
<pdfrwt beam="1">  1       -2 0.17476309E-01 0.14004654E+03</pdfrwt>
<totfact> 0.64533765E+03</totfact>
</mgrwt>
</event>
<event>
 8    3  0.7944584E-004  0.1362660E+03  0.7818608E-02  0.1243135E+00
         -2   -1    0    0    0  501 -0.00000000000E+00  0.00000000000E+00  0.22812742530E+02  0.22812742673E+02  0.25500000000E-02 0.  1.
          2   -1    0    0  501    0  0.00000000000E+00 -0.00000000000E+00 -0.67243797151E+03  0.67243797151E+03  0.25500000000E-02 0. -1.
         25    2    1    2    0    0 -0.46609347199E+02  0.27772062925E+02 -0.22695421105E+03  0.26471993853E+03  0.12499885285E+03 0.  0.
         23    2    1    2    0    0  0.46609347199E+02 -0.27772062925E+02 -0.42267101793E+03  0.43053077566E+03  0.61337106808E+02 0.  0.
        -13    1    4    4    0    0  0.16362081969E+01 -0.73005195363E+01 -0.31643915833E+01  0.81239953774E+01  0.10566000000E+00 0.  1.
         13    1    4    4    0    0  0.44973139002E+02 -0.20471543389E+02 -0.41950662634E+03  0.42240678028E+03  0.10566000000E+00 0. -1.
    9000005    1    3    3    0    0 -0.31313025162E+02  0.59829810814E+02 -0.49476722295E+02  0.83720116196E+02  0.10000000000E+01 0.  0.
    9000005    1    3    3    0    0 -0.15296322038E+02 -0.32057747889E+02 -0.17747748876E+03  0.18099982233E+03  0.10000000000E+01 0.  0.
<mgrwt>
<rscale>  0 0.11997709E+03</rscale>
<asrwt>0</asrwt>
<pdfrwt beam="2">  1        2 0.10345198E+00 0.13626603E+03</pdfrwt>
<pdfrwt beam="1">  1       -2 0.35096532E-02 0.13626603E+03</pdfrwt>
<totfact> 0.14030536E+04</totfact>
</mgrwt>
</event>
<event>
 8    3  0.7944584E-004  0.1351762E+03  0.7818608E-02  0.1247644E+00
         -2   -1    0    0    0  501 -0.00000000000E+00  0.00000000000E+00  0.33413038497E+03  0.33413038498E+03  0.25500000000E-02 0.  1.
          2   -1    0    0  501    0  0.00000000000E+00 -0.00000000000E+00 -0.41494820257E+02  0.41494820336E+02  0.25500000000E-02 0. -1.
         25    2    1    2    0    0 -0.22150223362E+02  0.46451545054E+02  0.99489773553E+02  0.16784163843E+03  0.12499688843E+03 0.  0.
         23    2    1    2    0    0  0.22150223362E+02 -0.46451545054E+02  0.19314579116E+03  0.20778356689E+03  0.56748000777E+02 0.  0.
        -13    1    4    4    0    0 -0.26610941198E+01  0.87309719472E+01  0.69834689743E+02  0.70428732408E+02  0.10566000000E+00 0.  1.
         13    1    4    4    0    0  0.24811317482E+02 -0.55182517001E+02  0.12331110142E+03  0.13735483448E+03  0.10566000000E+00 0. -1.
    9000005    1    3    3    0    0  0.11540698220E+02  0.80520120506E+02  0.85274648078E+02  0.11785348161E+03  0.10000000000E+01 0.  0.
    9000005    1    3    3    0    0 -0.33690921582E+02 -0.34068575452E+02  0.14215125475E+02  0.49988156824E+02  0.10000000000E+01 0.  0.
<mgrwt>
<rscale>  0 0.11728514E+03</rscale>
<asrwt>0</asrwt>
<pdfrwt beam="2">  1        2 0.63838184E-02 0.13517618E+03</pdfrwt>
<pdfrwt beam="1">  1       -2 0.51404676E-01 0.13517618E+03</pdfrwt>
<totfact> 0.39414401E+03</totfact>
</mgrwt>
</event>
<event>
 8    3  0.7944584E-004  0.1257867E+03  0.7818608E-02  0.1249027E+00
          2   -1    0    0  501    0  0.00000000000E+00  0.00000000000E+00  0.33860920040E+03  0.33860920041E+03  0.25500000000E-02 0. -1.
         -2   -1    0    0    0  501 -0.00000000000E+00 -0.00000000000E+00 -0.35586655851E+02  0.35586655942E+02  0.25500000000E-02 0.  1.
         25    2    1    2    0    0  0.75765648072E+01  0.11816522104E+02  0.15441514427E+03  0.19916407514E+03  0.12500103006E+03 0.  0.
         23    2    1    2    0    0 -0.75765648072E+01 -0.11816522104E+02  0.14860740029E+03  0.17503178122E+03  0.91405308860E+02 0.  0.
        -13    1    4    4    0    0  0.12063322534E+02 -0.13699141977E+02  0.15359909277E+03  0.15467993634E+03  0.10566000000E+00 0. -1.
         13    1    4    4    0    0 -0.19639887341E+02  0.18826198723E+01 -0.49916924799E+01  0.20351844885E+02  0.10566000000E+00 0.  1.
    9000005    1    3    3    0    0  0.47598001273E+01 -0.78539806492E+01 -0.20833397926E+02  0.22789716506E+02  0.10000000000E+01 0.  0.
    9000005    1    3    3    0    0  0.28167646799E+01  0.19670502753E+02  0.17524854219E+03  0.17637435863E+03  0.10000000000E+01 0.  0.
<mgrwt>
<rscale>  0 0.11647541E+03</rscale>
<asrwt>0</asrwt>
<pdfrwt beam="1">  1        2 0.52093723E-01 0.12578669E+03</pdfrwt>
<pdfrwt beam="2">  1       -2 0.54748701E-02 0.12578669E+03</pdfrwt>
<totfact> 0.15251894E+04</totfact>
</mgrwt>
</event>
<event>
 8    3  0.7944584E-004  0.1553385E+03  0.7818608E-02  0.1202376E+00
          2   -1    0    0  501    0  0.00000000000E+00  0.00000000000E+00  0.11666839154E+03  0.11666839157E+03  0.25500000000E-02 0.  1.
         -2   -1    0    0    0  501 -0.00000000000E+00 -0.00000000000E+00 -0.18223101857E+03  0.18223101859E+03  0.25500000000E-02 0. -1.
         25    2    1    2    0    0 -0.77768327341E+02 -0.49582416953E+02 -0.67284207472E+02  0.16928439205E+03  0.12499484793E+03 0.  0.
         23    2    1    2    0    0  0.77768327341E+02  0.49582416953E+02  0.17215804388E+01  0.12961501811E+03  0.91053612074E+02 0.  0.
        -13    1    4    4    0    0  0.42649436662E+01  0.22798639884E+02 -0.35952393492E+02  0.42784968001E+02  0.10566000000E+00 0. -1.
         13    1    4    4    0    0  0.73503383675E+02  0.26783777069E+02  0.37673973931E+02  0.86830050107E+02  0.10566000000E+00 0.  1.
    9000005    1    3    3    0    0 -0.39689505127E+02 -0.13584394655E+02 -0.99346318774E+02  0.10784472008E+03  0.10000000000E+01 0.  0.
    9000005    1    3    3    0    0 -0.38078822214E+02 -0.35998022298E+02  0.32062111302E+02  0.61439671970E+02  0.10000000000E+01 0.  0.
<mgrwt>
<rscale>  0 0.14846139E+03</rscale>
<asrwt>0</asrwt>
<pdfrwt beam="1">  1        2 0.17948983E-01 0.15533847E+03</pdfrwt>
<pdfrwt beam="2">  1       -2 0.28035541E-01 0.15533847E+03</pdfrwt>
<totfact> 0.35259319E+03</totfact>
</mgrwt>
</event>
<event>
 8    3  0.7944584E-004  0.1406960E+03  0.7818608E-02  0.1222823E+00
          2   -1    0    0  501    0  0.00000000000E+00  0.00000000000E+00  0.54969249300E+03  0.54969249300E+03  0.25500000000E-02 0. -1.
         -2   -1    0    0    0  501 -0.00000000000E+00 -0.00000000000E+00 -0.38289142839E+02  0.38289142924E+02  0.25500000000E-02 0.  1.
         25    2    1    2    0    0  0.61820145436E+02 -0.18649646450E+02  0.41923508216E+03  0.44221423186E+03  0.12500333216E+03 0.  0.
         23    2    1    2    0    0 -0.61820145436E+02  0.18649646450E+02  0.92168267991E+02  0.14576740406E+03  0.92647756409E+02 0.  0.
        -13    1    4    4    0    0 -0.70135884129E+01 -0.11393539353E+02  0.81220229304E+02  0.82314883063E+02  0.10566000000E+00 0. -1.
         13    1    4    4    0    0 -0.54806557023E+02  0.30043185803E+02  0.10948038688E+02  0.63452520998E+02  0.10566000000E+00 0.  1.
    9000005    1    3    3    0    0 -0.21847154601E+01  0.12762744408E+02  0.31867421268E+03  0.31893873150E+03  0.10000000000E+01 0.  0.
    9000005    1    3    3    0    0  0.64004860896E+02 -0.31412390858E+02  0.10056086949E+03  0.12327550036E+03  0.10000000000E+01 0.  0.
<mgrwt>
<rscale>  0 0.13317219E+03</rscale>
<asrwt>0</asrwt>
<pdfrwt beam="1">  1        2 0.84568068E-01 0.14069603E+03</pdfrwt>
<pdfrwt beam="2">  1       -2 0.58906379E-02 0.14069603E+03</pdfrwt>
<totfact> 0.81593125E+03</totfact>
</mgrwt>
</event>
<event>
 8    3  0.7944584E-004  0.1577547E+03  0.7818608E-02  0.1199333E+00
         -2   -1    0    0    0  501 -0.00000000000E+00  0.00000000000E+00  0.22603225177E+03  0.22603225179E+03  0.25500000000E-02 0. -1.
          2   -1    0    0  501    0  0.00000000000E+00 -0.00000000000E+00 -0.95252165003E+02  0.95252165037E+02  0.25500000000E-02 0.  1.
         25    2    1    2    0    0  0.42723134334E+02  0.86236427347E+02  0.95753251890E+02  0.18454056280E+03  0.12499818583E+03 0.  0.
         23    2    1    2    0    0 -0.42723134334E+02 -0.86236427347E+02  0.35026834878E+02  0.13674385402E+03  0.90609132225E+02 0.  0.
        -13    1    4    4    0    0 -0.29218317217E+02 -0.79638296958E+02 -0.13541209255E+02  0.85903107718E+02  0.10566000000E+00 0.  1.
         13    1    4    4    0    0 -0.13504817117E+02 -0.65981303884E+01  0.48568044133E+02  0.50840746305E+02  0.10566000000E+00 0. -1.
    9000005    1    3    3    0    0  0.50850325354E+02  0.87332263150E+02  0.13600882210E+02  0.10197383867E+03  0.10000000000E+01 0.  0.
    9000005    1    3    3    0    0 -0.81271910197E+01 -0.10958358034E+01  0.82152369680E+02  0.82566724133E+02  0.10000000000E+01 0.  0.
<mgrwt>
<rscale>  0 0.15093136E+03</rscale>
<asrwt>0</asrwt>
<pdfrwt beam="2">  1        2 0.14654179E-01 0.15775466E+03</pdfrwt>
<pdfrwt beam="1">  1       -2 0.34774192E-01 0.15775466E+03</pdfrwt>
<totfact> 0.30222338E+03</totfact>
</mgrwt>
</event>
<event>
 8    3  0.7944584E-004  0.1331827E+03  0.7818608E-02  0.1235111E+00
          2   -1    0    0  501    0  0.00000000000E+00  0.00000000000E+00  0.33101690244E+03  0.33101690245E+03  0.25500000000E-02 0. -1.
         -2   -1    0    0    0  501 -0.00000000000E+00 -0.00000000000E+00 -0.42281035610E+02  0.42281035687E+02  0.25500000000E-02 0.  1.
         25    2    1    2    0    0 -0.44721418204E+02  0.10580894848E+02  0.15567590276E+03  0.20487222951E+03  0.12500273254E+03 0.  0.
         23    2    1    2    0    0  0.44721418204E+02 -0.10580894848E+02  0.13305996407E+03  0.16842570863E+03  0.92467857691E+02 0.  0.
        -13    1    4    4    0    0  0.26258415650E+02  0.21342324894E+02  0.38502965696E+01  0.34056352888E+02  0.10566000000E+00 0.  1.
         13    1    4    4    0    0  0.18463002555E+02 -0.31923219742E+02  0.12920966750E+03  0.13436935574E+03  0.10566000000E+00 0. -1.
    9000005    1    3    3    0    0 -0.65862592757E+02  0.48735200134E+02  0.66253955530E+02  0.10537356158E+03  0.10000000000E+01 0.  0.
    9000005    1    3    3    0    0  0.21141174553E+02 -0.38154305286E+02  0.89421947227E+02  0.99498667926E+02  0.10000000000E+01 0.  0.
<mgrwt>
<rscale>  0 0.12497328E+03</rscale>
<asrwt>0</asrwt>
<pdfrwt beam="1">  1        2 0.50925678E-01 0.13318275E+03</pdfrwt>
<pdfrwt beam="2">  1       -2 0.65047747E-02 0.13318275E+03</pdfrwt>
<totfact> 0.12091942E+04</totfact>
</mgrwt>
</event>
<event>
 8    3  0.7944584E-004  0.1308532E+03  0.7818608E-02  0.1237749E+00
         -2   -1    0    0    0  501 -0.00000000000E+00  0.00000000000E+00  0.19926533324E+02  0.19926533487E+02  0.25500000000E-02 0. -1.
          2   -1    0    0  501    0  0.00000000000E+00 -0.00000000000E+00 -0.68744052878E+03  0.68744052878E+03  0.25500000000E-02 0.  1.
         25    2    1    2    0    0  0.26018518280E+02  0.28648922221E+02 -0.38165153752E+03  0.40346058502E+03  0.12499929414E+03 0.  0.
         23    2    1    2    0    0 -0.26018518280E+02 -0.28648922221E+02 -0.28586245793E+03  0.30390647725E+03  0.95624672657E+02 0.  0.
        -13    1    4    4    0    0 -0.48307581936E+01  0.30864676311E+02 -0.44216184935E+02  0.54139141504E+02  0.10566000000E+00 0.  1.
         13    1    4    4    0    0 -0.21187760086E+02 -0.59513598532E+02 -0.24164627300E+03  0.24976733575E+03  0.10566000000E+00 0. -1.
    9000005    1    3    3    0    0 -0.29585923662E+02  0.37472380948E+02 -0.58866465462E+02  0.75800837521E+02  0.10000000000E+01 0.  0.
    9000005    1    3    3    0    0  0.55604441942E+02 -0.88234587270E+01 -0.32278507206E+03  0.32765974750E+03  0.10000000000E+01 0.  0.
<mgrwt>
<rscale>  0 0.12330056E+03</rscale>
<asrwt>0</asrwt>
<pdfrwt beam="2">  1        2 0.10576006E+00 0.13085315E+03</pdfrwt>
<pdfrwt beam="1">  1       -2 0.30656210E-02 0.13085315E+03</pdfrwt>
<totfact> 0.16636968E+04</totfact>
</mgrwt>
</event>
<event>
 8    3  0.7944584E-004  0.2168841E+03  0.7818608E-02  0.1139532E+00
         -2   -1    0    0    0  501 -0.00000000000E+00  0.00000000000E+00  0.12078336503E+02  0.12078336772E+02  0.25500000000E-02 0.  1.
          2   -1    0    0  501    0  0.00000000000E+00 -0.00000000000E+00 -0.36075451633E+04  0.36075451633E+04  0.25500000000E-02 0. -1.
         25    2    1    2    0    0 -0.55506665571E+02 -0.16832347381E+03 -0.17913058822E+04  0.18043878370E+04  0.12499968367E+03 0.  0.
         23    2    1    2    0    0  0.55506665571E+02  0.16832347381E+03 -0.18041609446E+04  0.18152356631E+04  0.93112924750E+02 0.  0.
        -13    1    4    4    0    0  0.32227047446E+01 -0.46569127247E+00 -0.39832334510E+03  0.39833666805E+03  0.10566000000E+00 0. -1.
         13    1    4    4    0    0  0.52283960826E+02  0.16878916509E+03 -0.14058375995E+04  0.14168989950E+04  0.10566000000E+00 0.  1.
    9000005    1    3    3    0    0 -0.61742793357E+02 -0.11944888837E+03 -0.75291640245E+03  0.76482960099E+03  0.10000000000E+01 0.  0.
    9000005    1    3    3    0    0  0.62361277856E+01 -0.48874585441E+02 -0.10383894797E+04  0.10395582360E+04  0.10000000000E+01 0.  0.
<mgrwt>
<rscale>  0 0.21258952E+03</rscale>
<asrwt>0</asrwt>
<pdfrwt beam="2">  1        2 0.55500609E+00 0.21688408E+03</pdfrwt>
<pdfrwt beam="1">  1       -2 0.18582085E-02 0.21688408E+03</pdfrwt>
<totfact> 0.75083554E+02</totfact>
</mgrwt>
</event>
<event>
 8    3  0.7944584E-004  0.1635546E+03  0.7818608E-02  0.1191095E+00
          2   -1    0    0  501    0  0.00000000000E+00  0.00000000000E+00  0.20423785008E+04  0.20423785008E+04  0.25500000000E-02 0. -1.
         -2   -1    0    0    0  501 -0.00000000000E+00 -0.00000000000E+00 -0.13926374588E+02  0.13926374821E+02  0.25500000000E-02 0.  1.
         25    2    1    2    0    0  0.55795339711E+02 -0.89512757610E+02  0.63861815963E+03  0.65922928211E+03  0.12499775548E+03 0.  0.
         23    2    1    2    0    0 -0.55795339711E+02  0.89512757610E+02  0.13898339666E+04  0.13970755935E+04  0.95163572934E+02 0.  0.
        -13    1    4    4    0    0 -0.54469610651E+02  0.20748831268E+01  0.50775283471E+03  0.51067033979E+03  0.10566000000E+00 0.  1.
         13    1    4    4    0    0 -0.13257290601E+01  0.87437874483E+02  0.88208113190E+03  0.88640525375E+03  0.10566000000E+00 0. -1.
    9000005    1    3    3    0    0  0.57113828415E+02 -0.71907468382E+02  0.63444972131E+03  0.64106171487E+03  0.10000000000E+01 0.  0.
    9000005    1    3    3    0    0 -0.13184887034E+01 -0.17605289227E+02  0.41684383169E+01  0.18167567235E+02  0.10000000000E+01 0.  0.
<mgrwt>
<rscale>  0 0.15789445E+03</rscale>
<asrwt>0</asrwt>
<pdfrwt beam="1">  1        2 0.31421217E+00 0.16355456E+03</pdfrwt>
<pdfrwt beam="2">  1       -2 0.21425186E-02 0.16355456E+03</pdfrwt>
<totfact> 0.49115376E+03</totfact>
</mgrwt>
</event>
<event>
 8    3  0.7944584E-004  0.1372859E+03  0.7818608E-02  0.1228004E+00
          2   -1    0    0  501    0  0.00000000000E+00  0.00000000000E+00  0.17968843849E+03  0.17968843851E+03  0.25500000000E-02 0.  1.
         -2   -1    0    0    0  501 -0.00000000000E+00 -0.00000000000E+00 -0.12704860581E+03  0.12704860584E+03  0.25500000000E-02 0. -1.
         25    2    1    2    0    0 -0.33289737661E+02 -0.45974137343E+02 -0.60067028340E+02  0.14985149825E+03  0.12500238276E+03 0.  0.
         23    2    1    2    0    0  0.33289737661E+02  0.45974137343E+02  0.11270686102E+03  0.15688554609E+03  0.93211641511E+02 0.  0.
        -13    1    4    4    0    0 -0.22420534267E+01  0.82585363174E+00 -0.15873695501E+02  0.16052856776E+02  0.10566000000E+00 0. -1.
         13    1    4    4    0    0  0.35531791088E+02  0.45148283712E+02  0.12858055652E+03  0.14083268932E+03  0.10566000000E+00 0.  1.
    9000005    1    3    3    0    0  0.39828844994E+02 -0.45312228700E+02 -0.98360684527E+01  0.61133323204E+02  0.10000000000E+01 0.  0.
    9000005    1    3    3    0    0 -0.73118582656E+02 -0.66190864315E+00 -0.50230959888E+02  0.88718175048E+02  0.10000000000E+01 0.  0.
<mgrwt>
<rscale>  0 0.12963120E+03</rscale>
<asrwt>0</asrwt>
<pdfrwt beam="1">  1        2 0.27644375E-01 0.13728592E+03</pdfrwt>
<pdfrwt beam="2">  1       -2 0.19545939E-01 0.13728592E+03</pdfrwt>
<totfact> 0.40343077E+03</totfact>
</mgrwt>
</event>
<event>
 8    3  0.7944584E-004  0.1434711E+03  0.7818608E-02  0.1218106E+00
         -2   -1    0    0    0  501 -0.00000000000E+00  0.00000000000E+00  0.10335375233E+02  0.10335375547E+02  0.25500000000E-02 0.  1.
          2   -1    0    0  501    0  0.00000000000E+00 -0.00000000000E+00 -0.17894391714E+04  0.17894391714E+04  0.25500000000E-02 0. -1.
         25    2    1    2    0    0  0.61249412340E+02  0.34744655409E+02 -0.12222777964E+04  0.12306693141E+04  0.12500106973E+03 0.  0.
         23    2    1    2    0    0 -0.61249412340E+02 -0.34744655409E+02 -0.55682599972E+03  0.56910523283E+03  0.94164167707E+02 0.  0.
        -13    1    4    4    0    0 -0.37383512291E+02  0.88935262404E+01 -0.44573055370E+03  0.44738390614E+03  0.10566000000E+00 0. -1.
         13    1    4    4    0    0 -0.23865900049E+02 -0.43638181650E+02 -0.11109544602E+03  0.12172132670E+03  0.10566000000E+00 0.  1.
    9000005    1    3    3    0    0 -0.11962390792E+02  0.63113547473E+02 -0.61118913145E+03  0.61455640349E+03  0.10000000000E+01 0.  0.
    9000005    1    3    3    0    0  0.73211803132E+02 -0.28368892064E+02 -0.61108866498E+03  0.61611291061E+03  0.10000000000E+01 0.  0.
<mgrwt>
<rscale>  0 0.13650817E+03</rscale>
<asrwt>0</asrwt>
<pdfrwt beam="2">  1        2 0.27529809E+00 0.14347107E+03</pdfrwt>
<pdfrwt beam="1">  1       -2 0.15900592E-02 0.14347107E+03</pdfrwt>
<totfact> 0.10189484E+04</totfact>
</mgrwt>
</event>
<event>
 8    3  0.7944584E-004  0.1660671E+03  0.7818608E-02  0.1188512E+00
         -2   -1    0    0    0  501 -0.00000000000E+00  0.00000000000E+00  0.99568070738E+01  0.99568074003E+01  0.25500000000E-02 0.  1.
          2   -1    0    0  501    0  0.00000000000E+00 -0.00000000000E+00 -0.25024744270E+04  0.25024744270E+04  0.25500000000E-02 0. -1.
         25    2    1    2    0    0 -0.10461927107E+03  0.31751137904E+02 -0.15750786871E+04  0.15838090648E+04  0.12499982622E+03 0.  0.
         23    2    1    2    0    0  0.10461927107E+03 -0.31751137904E+02 -0.91743893289E+03  0.92862216966E+03  0.93228814051E+02 0.  0.
        -13    1    4    4    0    0  0.48314771418E+02 -0.18089371123E+02 -0.14304555085E+03  0.15206440499E+03  0.10566000000E+00 0.  1.
         13    1    4    4    0    0  0.56304499653E+02 -0.13661766781E+02 -0.77439338204E+03  0.77655776467E+03  0.10566000000E+00 0. -1.
    9000005    1    3    3    0    0 -0.70995933091E+02  0.54454482361E+02 -0.49859319480E+03  0.50655886831E+03  0.10000000000E+01 0.  0.
    9000005    1    3    3    0    0 -0.33623337980E+02 -0.22703344458E+02 -0.10764854923E+04  0.10772501965E+04  0.10000000000E+01 0.  0.
<mgrwt>
<rscale>  0 0.16016382E+03</rscale>
<asrwt>0</asrwt>
<pdfrwt beam="2">  1        2 0.38499556E+00 0.16606710E+03</pdfrwt>
<pdfrwt beam="1">  1       -2 0.15318185E-02 0.16606710E+03</pdfrwt>
<totfact> 0.45849948E+03</totfact>
</mgrwt>
</event>
<event>
 8    3  0.7944584E-004  0.1293644E+03  0.7818608E-02  0.1242615E+00
         -2   -1    0    0    0  501 -0.00000000000E+00  0.00000000000E+00  0.26577456227E+02  0.26577456349E+02  0.25500000000E-02 0. -1.
          2   -1    0    0  501    0  0.00000000000E+00 -0.00000000000E+00 -0.49518871665E+03  0.49518871666E+03  0.25500000000E-02 0.  1.
         25    2    1    2    0    0  0.34143030442E+01  0.33142993901E+02 -0.31117761603E+03  0.33699652206E+03  0.12500012661E+03 0.  0.
         23    2    1    2    0    0 -0.34143030442E+01 -0.33142993901E+02 -0.15743364439E+03  0.18476965095E+03  0.90798436185E+02 0.  0.
        -13    1    4    4    0    0 -0.41028598378E+02 -0.26499247613E+02 -0.12655397672E+03  0.13565204089E+03  0.10566000000E+00 0.  1.
         13    1    4    4    0    0  0.37614295334E+02 -0.66437462880E+01 -0.30879667670E+02  0.49117610056E+02  0.10566000000E+00 0. -1.
    9000005    1    3    3    0    0 -0.90977636929E+01 -0.34049852317E+02 -0.22123530666E+03  0.22402728106E+03  0.10000000000E+01 0.  0.
    9000005    1    3    3    0    0  0.12512066737E+02  0.67192846218E+02 -0.89942309367E+02  0.11296924100E+03  0.10000000000E+01 0.  0.
<mgrwt>
<rscale>  0 0.12029248E+03</rscale>
<asrwt>0</asrwt>
<pdfrwt beam="2">  1        2 0.76182873E-01 0.12936440E+03</pdfrwt>
<pdfrwt beam="1">  1       -2 0.40888398E-02 0.12936440E+03</pdfrwt>
<totfact> 0.15742426E+04</totfact>
</mgrwt>
</event>
<event>
 8    3  0.7944584E-004  0.1558434E+03  0.7818608E-02  0.1202213E+00
          2   -1    0    0  501    0  0.00000000000E+00  0.00000000000E+00  0.73929499020E+01  0.73929503417E+01  0.25500000000E-02 0. -1.
         -2   -1    0    0    0  501 -0.00000000000E+00 -0.00000000000E+00 -0.27606284894E+04  0.27606284894E+04  0.25500000000E-02 0.  1.
         25    2    1    2    0    0 -0.39805809127E+02 -0.84128362323E+02 -0.13869348660E+04  0.13956630959E+04  0.12500028428E+03 0.  0.
         23    2    1    2    0    0  0.39805809127E+02  0.84128362323E+02 -0.13663006735E+04  0.13723583438E+04  0.89038247970E+02 0.  0.
        -13    1    4    4    0    0  0.16548655754E-01  0.67799815259E+02 -0.11395231763E+04  0.11415383900E+04  0.10566000000E+00 0.  1.
         13    1    4    4    0    0  0.39789260471E+02  0.16328547064E+02 -0.22677749717E+03  0.23081995383E+03  0.10566000000E+00 0. -1.
    9000005    1    3    3    0    0 -0.32595908937E+01  0.24376124078E+02 -0.59341322379E+03  0.59392345847E+03  0.10000000000E+01 0.  0.
    9000005    1    3    3    0    0 -0.36546218233E+02 -0.10850448640E+03 -0.79352164221E+03  0.80173963747E+03  0.10000000000E+01 0.  0.
<mgrwt>
<rscale>  0 0.14859243E+03</rscale>
<asrwt>0</asrwt>
<pdfrwt beam="1">  1        2 0.11373791E-02 0.15584337E+03</pdfrwt>
<pdfrwt beam="2">  1       -2 0.42471125E+00 0.15584337E+03</pdfrwt>
<totfact> 0.76373620E+01</totfact>
</mgrwt>
</event>
<event>
 8    3  0.7944584E-004  0.4515129E+03  0.7818608E-02  0.1027895E+00
         -2   -1    0    0    0  501 -0.00000000000E+00  0.00000000000E+00  0.16620835214E+03  0.16620835216E+03  0.25500000000E-02 0.  1.
          2   -1    0    0  501    0  0.00000000000E+00 -0.00000000000E+00 -0.12869599023E+04  0.12869599023E+04  0.25500000000E-02 0. -1.
         25    2    1    2    0    0 -0.40890724289E+03  0.14503025062E+03 -0.74963493833E+03  0.87510937763E+03  0.12499990066E+03 0.  0.
         23    2    1    2    0    0  0.40890724289E+03 -0.14503025062E+03 -0.37111661186E+03  0.57805887687E+03  0.90474408820E+02 0.  0.
        -13    1    4    4    0    0  0.38402576979E+02 -0.20318076359E+02 -0.78584011418E+02  0.89794432790E+02  0.10566000000E+00 0.  1.
         13    1    4    4    0    0  0.37050466591E+03 -0.12471217426E+03 -0.29253260044E+03  0.48826444408E+03  0.10566000000E+00 0. -1.
    9000005    1    3    3    0    0 -0.26726017442E+03  0.15496700777E+03 -0.49272436425E+03  0.58156777202E+03  0.10000000000E+01 0.  0.
    9000005    1    3    3    0    0 -0.14164706846E+03 -0.99367571495E+01 -0.25691057408E+03  0.29354160560E+03  0.10000000000E+01 0.  0.
<mgrwt>
<rscale>  0 0.44941967E+03</rscale>
<asrwt>0</asrwt>
<pdfrwt beam="2">  1        2 0.19799382E+00 0.45151288E+03</pdfrwt>
<pdfrwt beam="1">  1       -2 0.25570517E-01 0.45151288E+03</pdfrwt>
<totfact> 0.23993550E+02</totfact>
</mgrwt>
</event>
<event>
 8    3  0.7944584E-004  0.2775889E+03  0.7818608E-02  0.1099110E+00
         -2   -1    0    0    0  501 -0.00000000000E+00  0.00000000000E+00  0.28453594945E+02  0.28453595059E+02  0.25500000000E-02 0.  1.
          2   -1    0    0  501    0  0.00000000000E+00 -0.00000000000E+00 -0.26068559826E+04  0.26068559826E+04  0.25500000000E-02 0. -1.
         25    2    1    2    0    0  0.24775764985E+03  0.67366999602E+01 -0.11592175296E+04  0.11919903061E+04  0.12500549078E+03 0.  0.
         23    2    1    2    0    0 -0.24775764985E+03 -0.67366999602E+01 -0.14191848581E+04  0.14433192716E+04  0.87496412141E+02 0.  0.
        -13    1    4    4    0    0 -0.11776091315E+03 -0.24767540969E+02 -0.47262081101E+03  0.48770022136E+03  0.10566000000E+00 0. -1.
         13    1    4    4    0    0 -0.12999673670E+03  0.18030841009E+02 -0.94656404710E+03  0.95561905025E+03  0.10566000000E+00 0.  1.
    9000005    1    3    3    0    0  0.51675209126E+02 -0.51551008884E+02 -0.31199413167E+03  0.32042030515E+03  0.10000000000E+01 0.  0.
    9000005    1    3    3    0    0  0.19608244072E+03  0.58287708845E+02 -0.84722339790E+03  0.87157000092E+03  0.10000000000E+01 0.  0.
<mgrwt>
<rscale>  0 0.27382586E+03</rscale>
<asrwt>0</asrwt>
<pdfrwt beam="2">  1        2 0.40105458E+00 0.27758892E+03</pdfrwt>
<pdfrwt beam="1">  1       -2 0.43774782E-02 0.27758892E+03</pdfrwt>
<totfact> 0.83835662E+02</totfact>
</mgrwt>
</event>
<event>
 8    3  0.7944584E-004  0.1264096E+03  0.7818608E-02  0.1247348E+00
          2   -1    0    0  501    0  0.00000000000E+00  0.00000000000E+00  0.41092105723E+03  0.41092105724E+03  0.25500000000E-02 0. -1.
         -2   -1    0    0    0  501 -0.00000000000E+00 -0.00000000000E+00 -0.41090431819E+02  0.41090431898E+02  0.25500000000E-02 0.  1.
         25    2    1    2    0    0 -0.23026520020E+01 -0.18623621863E+02  0.85855631658E+02  0.15280891452E+03  0.12500893317E+03 0.  0.
         23    2    1    2    0    0  0.23026520020E+01  0.18623621863E+02  0.28397499375E+03  0.29920257462E+03  0.92348481762E+02 0.  0.
        -13    1    4    4    0    0  0.70716987672E+01  0.74554441906E+00 -0.55908178717E+01  0.90461687164E+01  0.10566000000E+00 0.  1.
         13    1    4    4    0    0 -0.47690467652E+01  0.17878077444E+02  0.28956581162E+03  0.29015640590E+03  0.10566000000E+00 0. -1.
    9000005    1    3    3    0    0  0.36938340223E+02 -0.34308660295E+02 -0.68826135207E+01  0.50891016089E+02  0.10000000000E+01 0.  0.
    9000005    1    3    3    0    0 -0.39240992225E+02  0.15685038433E+02  0.92738245179E+02  0.10191789843E+03  0.10000000000E+01 0.  0.
<mgrwt>
<rscale>  0 0.11745970E+03</rscale>
<asrwt>0</asrwt>
<pdfrwt beam="1">  1        2 0.63218621E-01 0.12640955E+03</pdfrwt>
<pdfrwt beam="2">  1       -2 0.63216052E-02 0.12640955E+03</pdfrwt>
<totfact> 0.99949997E+03</totfact>
</mgrwt>
</event>
<event>
 8    3  0.7944584E-004  0.1480037E+03  0.7818608E-02  0.1212026E+00
         -2   -1    0    0    0  501 -0.00000000000E+00  0.00000000000E+00  0.17029139893E+03  0.17029139894E+03  0.25500000000E-02 0.  1.
          2   -1    0    0  501    0  0.00000000000E+00 -0.00000000000E+00 -0.12866319598E+03  0.12866319600E+03  0.25500000000E-02 0. -1.
         25    2    1    2    0    0  0.56755819514E+02  0.55309252380E+02 -0.38766638766E+02  0.15299657386E+03  0.12499905153E+03 0.  0.
         23    2    1    2    0    0 -0.56755819514E+02 -0.55309252380E+02  0.80394841716E+02  0.14595802109E+03  0.92520683620E+02 0.  0.
        -13    1    4    4    0    0  0.53054672179E+01 -0.57807830434E+02  0.26880425391E+02  0.63972350865E+02  0.10566000000E+00 0. -1.
         13    1    4    4    0    0 -0.62061286732E+02  0.24985780542E+01  0.53514416325E+02  0.81985670222E+02  0.10566000000E+00 0.  1.
    9000005    1    3    3    0    0 -0.24958629366E+02  0.50109945899E+02 -0.43606206247E+02  0.70967887675E+02  0.10000000000E+01 0.  0.
    9000005    1    3    3    0    0  0.81714448879E+02  0.51993064810E+01  0.48395674815E+01  0.82028686183E+02  0.10000000000E+01 0.  0.
<mgrwt>
<rscale>  0 0.14097276E+03</rscale>
<asrwt>0</asrwt>
<pdfrwt beam="2">  1        2 0.19794338E-01 0.14800371E+03</pdfrwt>
<pdfrwt beam="1">  1       -2 0.26198677E-01 0.14800371E+03</pdfrwt>
<totfact> 0.35458948E+03</totfact>
</mgrwt>
</event>
<event>
 8    3  0.7944584E-004  0.1269660E+03  0.7818608E-02  0.1244877E+00
         -2   -1    0    0    0  501 -0.00000000000E+00  0.00000000000E+00  0.63149626588E+01  0.63149631737E+01  0.25500000000E-02 0.  1.
          2   -1    0    0  501    0  0.00000000000E+00 -0.00000000000E+00 -0.22440300704E+04  0.22440300704E+04  0.25500000000E-02 0. -1.
         25    2    1    2    0    0  0.79756118398E+01  0.20749181626E+02 -0.16175595045E+04  0.16225347795E+04  0.12500488548E+03 0.  0.
         23    2    1    2    0    0 -0.79756118398E+01 -0.20749181626E+02 -0.62015560324E+03  0.62781025401E+03  0.95176698199E+02 0.  0.
        -13    1    4    4    0    0 -0.13361801800E+02 -0.37547744226E+02 -0.10433151563E+03  0.11168458784E+03  0.10566000000E+00 0.  1.
         13    1    4    4    0    0  0.53861899599E+01  0.16798562600E+02 -0.51582408762E+03  0.51612566617E+03  0.10566000000E+00 0. -1.
    9000005    1    3    3    0    0 -0.19488013543E+02  0.31818523211E+02 -0.15226727321E+04  0.15231301488E+04  0.10000000000E+01 0.  0.
    9000005    1    3    3    0    0  0.27463625383E+02 -0.11069341585E+02 -0.94886772344E+02  0.99404630718E+02  0.10000000000E+01 0.  0.
<mgrwt>
<rscale>  0 0.11892729E+03</rscale>
<asrwt>0</asrwt>
<pdfrwt beam="2">  1        2 0.34523476E+00 0.12696598E+03</pdfrwt>
<pdfrwt beam="1">  1       -2 0.97153455E-03 0.12696598E+03</pdfrwt>
<totfact> 0.12034046E+04</totfact>
</mgrwt>
</event>
<event>
 8    3  0.7944584E-004  0.1294181E+03  0.7818608E-02  0.1242925E+00
         -2   -1    0    0    0  501 -0.00000000000E+00  0.00000000000E+00  0.26738725549E+01  0.26738737708E+01  0.25500000000E-02 0.  1.
          2   -1    0    0  501    0  0.00000000000E+00 -0.00000000000E+00 -0.48823020841E+04  0.48823020841E+04  0.25500000000E-02 0. -1.
         25    2    1    2    0    0 -0.15913772432E+02  0.29498576907E+02 -0.31884964109E+04  0.31911218109E+04  0.12500254099E+03 0.  0.
         23    2    1    2    0    0  0.15913772432E+02 -0.29498576907E+02 -0.16911318007E+04  0.16938541470E+04  0.89953821435E+02 0.  0.
        -13    1    4    4    0    0  0.40761361607E+02  0.42783952839E+01 -0.12651038756E+04  0.12657676013E+04  0.10566000000E+00 0. -1.
         13    1    4    4    0    0 -0.24847589175E+02 -0.33776972191E+02 -0.42602792507E+03  0.42808654574E+03  0.10566000000E+00 0.  1.
    9000005    1    3    3    0    0  0.46538033196E+02  0.70829552257E+01 -0.62678629234E+03  0.62855231529E+03  0.10000000000E+01 0.  0.
    9000005    1    3    3    0    0 -0.62451805628E+02  0.22415621682E+02 -0.25617101186E+04  0.25625694956E+04  0.10000000000E+01 0.  0.
<mgrwt>
<rscale>  0 0.12010438E+03</rscale>
<asrwt>0</asrwt>
<pdfrwt beam="2">  1        2 0.75111626E+00 0.12941812E+03</pdfrwt>
<pdfrwt beam="1">  1       -2 0.41136901E-03 0.12941812E+03</pdfrwt>
<totfact> 0.56991965E+02</totfact>
</mgrwt>
</event>
<event>
 8    3  0.7944584E-004  0.1501280E+03  0.7818608E-02  0.1209433E+00
         -2   -1    0    0    0  501 -0.00000000000E+00  0.00000000000E+00  0.19078978907E+03  0.19078978909E+03  0.25500000000E-02 0. -1.
          2   -1    0    0  501    0  0.00000000000E+00 -0.00000000000E+00 -0.12071657232E+03  0.12071657235E+03  0.25500000000E-02 0.  1.
         25    2    1    2    0    0 -0.50371652812E+02  0.66199019490E+02 -0.29469456816E+02  0.15299303160E+03  0.12497521852E+03 0.  0.
         23    2    1    2    0    0  0.50371652812E+02 -0.66199019490E+02  0.99542673564E+02  0.15851332984E+03  0.91094007975E+02 0.  0.
        -13    1    4    4    0    0  0.95627819534E+01 -0.97434678860E+01  0.86588791404E+02  0.87658496029E+02  0.10566000000E+00 0. -1.
         13    1    4    4    0    0  0.40808870858E+02 -0.56455551604E+02  0.12953882160E+02  0.70854833813E+02  0.10566000000E+00 0.  1.
    9000005    1    3    3    0    0  0.19232172689E+02  0.23962131974E+01  0.34048274903E+02  0.39190602545E+02  0.10000000000E+01 0.  0.
    9000005    1    3    3    0    0 -0.69603825500E+02  0.63802806293E+02 -0.63517731719E+02  0.11380242905E+03  0.10000000000E+01 0.  0.
<mgrwt>
<rscale>  0 0.14293548E+03</rscale>
<asrwt>0</asrwt>
<pdfrwt beam="2">  1        2 0.18571781E-01 0.15012801E+03</pdfrwt>
<pdfrwt beam="1">  1       -2 0.29352275E-01 0.15012801E+03</pdfrwt>
<totfact> 0.31174747E+03</totfact>
</mgrwt>
</event>
<event>
 8    3  0.7944584E-004  0.1590043E+03  0.7818608E-02  0.1197393E+00
         -2   -1    0    0    0  501 -0.00000000000E+00  0.00000000000E+00  0.90623483657E+02  0.90623483693E+02  0.25500000000E-02 0.  1.
          2   -1    0    0  501    0  0.00000000000E+00 -0.00000000000E+00 -0.28351790462E+03  0.28351790463E+03  0.25500000000E-02 0. -1.
         25    2    1    2    0    0 -0.82010107452E+02 -0.54100535724E+02 -0.17797207308E+03  0.23865547800E+03  0.12501940926E+03 0.  0.
         23    2    1    2    0    0  0.82010107452E+02  0.54100535724E+02 -0.14922347888E+02  0.13548591033E+03  0.92093592293E+02 0.  0.
        -13    1    4    4    0    0  0.84187039567E+02  0.36169176746E+02  0.22132256841E+02  0.94263009365E+02  0.10566000000E+00 0.  1.
         13    1    4    4    0    0 -0.21769321159E+01  0.17931358979E+02 -0.37054604729E+02  0.41222900964E+02  0.10566000000E+00 0. -1.
    9000005    1    3    3    0    0 -0.31090099602E+02 -0.53675712629E+02 -0.96340159955E+01  0.62781292466E+02  0.10000000000E+01 0.  0.
    9000005    1    3    3    0    0 -0.50920007849E+02 -0.42482309550E+00 -0.16833805708E+03  0.17587418553E+03  0.10000000000E+01 0.  0.
<mgrwt>
<rscale>  0 0.15253436E+03</rscale>
<asrwt>0</asrwt>
<pdfrwt beam="2">  1        2 0.43618139E-01 0.15900433E+03</pdfrwt>
<pdfrwt beam="1">  1       -2 0.13942075E-01 0.15900433E+03</pdfrwt>
<totfact> 0.43564689E+03</totfact>
</mgrwt>
</event>
<event>
 8    3  0.7944584E-004  0.1276425E+03  0.7818608E-02  0.1243579E+00
          2   -1    0    0  501    0  0.00000000000E+00  0.00000000000E+00  0.18583660781E+04  0.18583660781E+04  0.25500000000E-02 0. -1.
         -2   -1    0    0    0  501 -0.00000000000E+00 -0.00000000000E+00 -0.71377467805E+01  0.71377472360E+01  0.25500000000E-02 0.  1.
         25    2    1    2    0    0 -0.25491023959E+02 -0.41160934411E+01  0.86896127014E+03  0.87828600321E+03  0.12500351959E+03 0.  0.
         23    2    1    2    0    0  0.25491023959E+02  0.41160934411E+01  0.98226706117E+03  0.98721782211E+03  0.95308521723E+02 0.  0.
        -13    1    4    4    0    0 -0.17376735714E+02 -0.17696070835E+02  0.72913420763E+03  0.72955589625E+03  0.10566000000E+00 0. -1.
         13    1    4    4    0    0  0.42867759673E+02  0.21812164276E+02  0.25313285354E+03  0.25766192586E+03  0.10566000000E+00 0.  1.
    9000005    1    3    3    0    0 -0.47757752117E+02 -0.17866891088E+02  0.82862699136E+03  0.83019498884E+03  0.10000000000E+01 0.  0.
    9000005    1    3    3    0    0  0.22266728157E+02  0.13750797647E+02  0.40334278774E+02  0.48091014368E+02  0.10000000000E+01 0.  0.
<mgrwt>
<rscale>  0 0.11970840E+03</rscale>
<asrwt>0</asrwt>
<pdfrwt beam="1">  1        2 0.28590240E+00 0.12764253E+03</pdfrwt>
<pdfrwt beam="2">  1       -2 0.10981152E-02 0.12764253E+03</pdfrwt>
<totfact> 0.15923670E+04</totfact>
</mgrwt>
</event>
<event>
 8    3  0.7944584E-004  0.1535518E+03  0.7818608E-02  0.1204989E+00
          2   -1    0    0  501    0  0.00000000000E+00  0.00000000000E+00  0.88432376383E+02  0.88432376420E+02  0.25500000000E-02 0.  1.
         -2   -1    0    0    0  501 -0.00000000000E+00 -0.00000000000E+00 -0.22301955102E+03  0.22301955104E+03  0.25500000000E-02 0. -1.
         25    2    1    2    0    0 -0.15447467998E+02 -0.87857071088E+02 -0.82890608482E+02  0.17449646190E+03  0.12498269094E+03 0.  0.
         23    2    1    2    0    0  0.15447467998E+02  0.87857071088E+02 -0.51696566156E+02  0.13695546555E+03  0.90148629408E+02 0.  0.
        -13    1    4    4    0    0  0.45667939391E+02  0.58302573931E+02 -0.58195784370E+02  0.94188700478E+02  0.10566000000E+00 0. -1.
         13    1    4    4    0    0 -0.30220471393E+02  0.29554497157E+02  0.64992182143E+01  0.42766765073E+02  0.10566000000E+00 0.  1.
    9000005    1    3    3    0    0 -0.94387434227E+00 -0.55526398989E+02 -0.11433413778E+03  0.12711163182E+03  0.10000000000E+01 0.  0.
    9000005    1    3    3    0    0 -0.14503593656E+02 -0.32330672099E+02  0.31443529295E+02  0.47384830081E+02  0.10000000000E+01 0.  0.
<mgrwt>
<rscale>  0 0.14638325E+03</rscale>
<asrwt>0</asrwt>
<pdfrwt beam="1">  1        2 0.13604981E-01 0.15355182E+03</pdfrwt>
<pdfrwt beam="2">  1       -2 0.34310700E-01 0.15355182E+03</pdfrwt>
<totfact> 0.33777770E+03</totfact>
</mgrwt>
</event>
<event>
 8    3  0.7944584E-004  0.1996485E+03  0.7818608E-02  0.1154106E+00
          2   -1    0    0  501    0  0.00000000000E+00  0.00000000000E+00  0.10542221721E+04  0.10542221721E+04  0.25500000000E-02 0. -1.
         -2   -1    0    0    0  501 -0.00000000000E+00 -0.00000000000E+00 -0.35699448327E+02  0.35699448418E+02  0.25500000000E-02 0.  1.
         25    2    1    2    0    0 -0.50085350720E+02 -0.14739628074E+03  0.42997010823E+03  0.47406099936E+03  0.12500132484E+03 0.  0.
         23    2    1    2    0    0  0.50085350720E+02  0.14739628074E+03  0.58855261553E+03  0.61586062115E+03  0.93037183436E+02 0.  0.
        -13    1    4    4    0    0 -0.22342106514E+02  0.75189390451E+02  0.28147460110E+03  0.29219954891E+03  0.10566000000E+00 0. -1.
         13    1    4    4    0    0  0.72427457235E+02  0.72206890285E+02  0.30707801443E+03  0.32366107223E+03  0.10566000000E+00 0.  1.
    9000005    1    3    3    0    0 -0.90534595350E+02 -0.12181586006E+03  0.32632265990E+03  0.35989317177E+03  0.10000000000E+01 0.  0.
    9000005    1    3    3    0    0  0.40449244630E+02 -0.25580420673E+02  0.10364744833E+03  0.11416782760E+03  0.10000000000E+01 0.  0.
<mgrwt>
<rscale>  0 0.19490940E+03</rscale>
<asrwt>0</asrwt>
<pdfrwt beam="1">  1        2 0.16218801E+00 0.19964853E+03</pdfrwt>
<pdfrwt beam="2">  1       -2 0.54922234E-02 0.19964853E+03</pdfrwt>
<totfact> 0.40905931E+03</totfact>
</mgrwt>
</event>
<event>
 8    3  0.7944584E-004  0.1338097E+03  0.7818608E-02  0.1233379E+00
         -2   -1    0    0    0  501 -0.00000000000E+00  0.00000000000E+00  0.19605539045E+02  0.19605539211E+02  0.25500000000E-02 0. -1.
          2   -1    0    0  501    0  0.00000000000E+00 -0.00000000000E+00 -0.81486418084E+03  0.81486418084E+03  0.25500000000E-02 0.  1.
         25    2    1    2    0    0 -0.34413308511E+02 -0.33105627285E+02 -0.57340628696E+03  0.58881220814E+03  0.12499915270E+03 0.  0.
         23    2    1    2    0    0  0.34413308511E+02  0.33105627285E+02 -0.22185235484E+03  0.24565751191E+03  0.94068525298E+02 0.  0.
        -13    1    4    4    0    0 -0.19946822181E+01 -0.15262701574E+02 -0.15382349410E+03  0.15459174401E+03  0.10566000000E+00 0.  1.
         13    1    4    4    0    0  0.36407990729E+02  0.48368328859E+02 -0.68028860737E+02  0.91065767897E+02  0.10566000000E+00 0. -1.
    9000005    1    3    3    0    0 -0.77582613297E+02 -0.40173247114E+01 -0.26937985819E+03  0.28035996287E+03  0.10000000000E+01 0.  0.
    9000005    1    3    3    0    0  0.43169304787E+02 -0.29088302573E+02 -0.30402642877E+03  0.30845224527E+03  0.10000000000E+01 0.  0.
<mgrwt>
<rscale>  0 0.12608793E+03</rscale>
<asrwt>0</asrwt>
<pdfrwt beam="2">  1        2 0.12536369E+00 0.13380974E+03</pdfrwt>
<pdfrwt beam="1">  1       -2 0.30162374E-02 0.13380974E+03</pdfrwt>
<totfact> 0.13884980E+04</totfact>
</mgrwt>
</event>
<event>
 8    3  0.7944584E-004  0.1269498E+03  0.7818608E-02  0.1247149E+00
          2   -1    0    0  501    0  0.00000000000E+00  0.00000000000E+00  0.28632569847E+03  0.28632569848E+03  0.25500000000E-02 0. -1.
         -2   -1    0    0    0  501 -0.00000000000E+00 -0.00000000000E+00 -0.50201643904E+02  0.50201643969E+02  0.25500000000E-02 0.  1.
         25    2    1    2    0    0 -0.18833141923E+02  0.11692503422E+02  0.19892708574E+03  0.23598354108E+03  0.12499937740E+03 0.  0.
         23    2    1    2    0    0  0.18833141923E+02 -0.11692503422E+02  0.37196968829E+02  0.10054380137E+03  0.90741609161E+02 0.  0.
        -13    1    4    4    0    0  0.66390231254E+01  0.21059364338E+02  0.56469769320E+02  0.60633484688E+02  0.10566000000E+00 0. -1.
         13    1    4    4    0    0  0.12194118797E+02 -0.32751867760E+02 -0.19272800490E+02  0.39910316683E+02  0.10566000000E+00 0.  1.
    9000005    1    3    3    0    0  0.15041695192E+02  0.62279452068E+02  0.12268550283E+03  0.13841139891E+03  0.10000000000E+01 0.  0.
    9000005    1    3    3    0    0 -0.33874837115E+02 -0.50586948646E+02  0.76241582906E+02  0.97572142167E+02  0.10000000000E+01 0.  0.
<mgrwt>
<rscale>  0 0.11757700E+03</rscale>
<asrwt>0</asrwt>
<pdfrwt beam="1">  1        2 0.44050108E-01 0.12694978E+03</pdfrwt>
<pdfrwt beam="2">  1       -2 0.77233298E-02 0.12694978E+03</pdfrwt>
<totfact> 0.10798675E+04</totfact>
</mgrwt>
</event>
<event>
 8    3  0.7944584E-004  0.2576821E+03  0.7818608E-02  0.1111378E+00
         -2   -1    0    0    0  501 -0.00000000000E+00  0.00000000000E+00  0.49909512936E+02  0.49909513001E+02  0.25500000000E-02 0. -1.
          2   -1    0    0  501    0  0.00000000000E+00 -0.00000000000E+00 -0.16382397923E+04  0.16382397923E+04  0.25500000000E-02 0.  1.
         25    2    1    2    0    0  0.13509564179E+03  0.18034270098E+03 -0.39954805525E+03  0.47543529125E+03  0.12500298190E+03 0.  0.
         23    2    1    2    0    0 -0.13509564179E+03 -0.18034270098E+03 -0.11887822241E+04  0.12127140141E+04  0.81839973635E+02 0.  0.
        -13    1    4    4    0    0 -0.75586347901E+02 -0.43329472232E+02 -0.53791382499E+03  0.54492387857E+03  0.10566000000E+00 0.  1.
         13    1    4    4    0    0 -0.59509293894E+02 -0.13701322875E+03 -0.65086839914E+03  0.66779013550E+03  0.10566000000E+00 0. -1.
    9000005    1    3    3    0    0 -0.11620418527E+02  0.58773710644E+02 -0.14951876910E+03  0.16107838310E+03  0.10000000000E+01 0.  0.
    9000005    1    3    3    0    0  0.14671606032E+03  0.12156899033E+03 -0.25002928615E+03  0.31435690815E+03  0.10000000000E+01 0.  0.
<mgrwt>
<rscale>  0 0.25307272E+03</rscale>
<asrwt>0</asrwt>
<pdfrwt beam="2">  1        2 0.25203685E+00 0.25768211E+03</pdfrwt>
<pdfrwt beam="1">  1       -2 0.76783879E-02 0.25768211E+03</pdfrwt>
<totfact> 0.11636900E+03</totfact>
</mgrwt>
</event>
<event>
 8    3  0.7944584E-004  0.1385424E+03  0.7818608E-02  0.1226653E+00
          2   -1    0    0  501    0  0.00000000000E+00  0.00000000000E+00  0.14427119590E+04  0.14427119590E+04  0.25500000000E-02 0. -1.
         -2   -1    0    0    0  501 -0.00000000000E+00 -0.00000000000E+00 -0.11137063631E+02  0.11137063923E+02  0.25500000000E-02 0.  1.
         25    2    1    2    0    0 -0.59659855802E+02 -0.31921839315E+01  0.94983258671E+03  0.95988329648E+03  0.12499804653E+03 0.  0.
         23    2    1    2    0    0  0.59659855802E+02  0.31921839315E+01  0.48174230870E+03  0.49396572649E+03  0.91416620636E+02 0.  0.
        -13    1    4    4    0    0 -0.11967740817E+02 -0.41734093513E+01  0.84639398078E+01  0.15241181285E+02  0.10566000000E+00 0.  1.
         13    1    4    4    0    0  0.71627596619E+02  0.73655932828E+01  0.47327836889E+03  0.47872454521E+03  0.10566000000E+00 0. -1.
    9000005    1    3    3    0    0  0.36841593306E+01  0.52159692499E+02  0.28614326041E+03  0.29088343375E+03  0.10000000000E+01 0.  0.
    9000005    1    3    3    0    0 -0.63344015133E+02 -0.55351876430E+02  0.66368932630E+03  0.66899986273E+03  0.10000000000E+01 0.  0.
<mgrwt>
<rscale>  0 0.13054226E+03</rscale>
<asrwt>0</asrwt>
<pdfrwt beam="1">  1        2 0.22195557E+00 0.13854241E+03</pdfrwt>
<pdfrwt beam="2">  1       -2 0.17133953E-02 0.13854241E+03</pdfrwt>
<totfact> 0.13795413E+04</totfact>
</mgrwt>
</event>
<event>
 8    3  0.7944584E-004  0.4914668E+03  0.7818608E-02  0.1016568E+00
         -2   -1    0    0    0  501 -0.00000000000E+00  0.00000000000E+00  0.27961401858E+03  0.27961401859E+03  0.25500000000E-02 0.  1.
          2   -1    0    0  501    0  0.00000000000E+00 -0.00000000000E+00 -0.24170941255E+04  0.24170941255E+04  0.25500000000E-02 0. -1.
         25    2    1    2    0    0  0.15784787736E+03 -0.44833187169E+03  0.13908466796E+02  0.49166360591E+03  0.12498894495E+03 0.  0.
         23    2    1    2    0    0 -0.15784787736E+03  0.44833187169E+03 -0.21513885737E+04  0.22050445382E+04  0.88494071409E+02 0.  0.
        -13    1    4    4    0    0 -0.30168042419E+01  0.11510736991E+03 -0.45836223442E+03  0.47260422852E+03  0.10566000000E+00 0. -1.
         13    1    4    4    0    0 -0.15483107312E+03  0.33322450178E+03 -0.16930263393E+04  0.17324403097E+04  0.10566000000E+00 0.  1.
    9000005    1    3    3    0    0  0.94262146647E+02 -0.31805356043E+03 -0.45803762360E+02  0.33487670005E+03  0.10000000000E+01 0.  0.
    9000005    1    3    3    0    0  0.63585730717E+02 -0.13027831126E+03  0.59712229155E+02  0.15678690585E+03  0.10000000000E+01 0.  0.
<mgrwt>
<rscale>  0 0.48945672E+03</rscale>
<asrwt>0</asrwt>
<pdfrwt beam="2">  1        2 0.37186062E+00 0.49146684E+03</pdfrwt>
<pdfrwt beam="1">  1       -2 0.43017543E-01 0.49146684E+03</pdfrwt>
<totfact> 0.21798325E+01</totfact>
</mgrwt>
</event>
<event>
 8    3  0.7944584E-004  0.2028712E+03  0.7818608E-02  0.1151092E+00
          2   -1    0    0  501    0  0.00000000000E+00  0.00000000000E+00  0.11183707519E+04  0.11183707519E+04  0.25500000000E-02 0. -1.
         -2   -1    0    0    0  501 -0.00000000000E+00 -0.00000000000E+00 -0.49628554201E+02  0.49628554266E+02  0.25500000000E-02 0.  1.
         25    2    1    2    0    0  0.36324901166E+02  0.15560388858E+03  0.88082849960E+03  0.90388913864E+03  0.12499864265E+03 0.  0.
         23    2    1    2    0    0 -0.36324901166E+02 -0.15560388858E+03  0.18791369806E+03  0.26411016749E+03  0.94395731181E+02 0.  0.
        -13    1    4    4    0    0  0.66114795193E+01 -0.98980925756E+02  0.55089394972E+02  0.11347152915E+03  0.10566000000E+00 0.  1.
         13    1    4    4    0    0 -0.42936380685E+02 -0.56622962825E+02  0.13282430309E+03  0.15063863834E+03  0.10566000000E+00 0. -1.
    9000005    1    3    3    0    0 -0.25864748780E+02 -0.41512662741E+01  0.20439693173E+03  0.20607116233E+03  0.10000000000E+01 0.  0.
    9000005    1    3    3    0    0  0.62189649946E+02  0.15975515485E+03  0.67643156787E+03  0.69781797632E+03  0.10000000000E+01 0.  0.
<mgrwt>
<rscale>  0 0.19840488E+03</rscale>
<asrwt>0</asrwt>
<pdfrwt beam="1">  1        2 0.17205702E+00 0.20287121E+03</pdfrwt>
<pdfrwt beam="2">  1       -2 0.76351628E-02 0.20287121E+03</pdfrwt>
<totfact> 0.22610380E+03</totfact>
</mgrwt>
</event>
<event>
 8    3  0.7944584E-004  0.1531637E+03  0.7818608E-02  0.1205551E+00
         -2   -1    0    0    0  501 -0.00000000000E+00  0.00000000000E+00  0.82365532483E+01  0.82365536431E+01  0.25500000000E-02 0.  1.
          2   -1    0    0  501    0  0.00000000000E+00 -0.00000000000E+00 -0.26220479461E+04  0.26220479461E+04  0.25500000000E-02 0. -1.
         25    2    1    2    0    0 -0.19520649254E+02  0.86332682859E+02 -0.10144050956E+04  0.10259029237E+04  0.12499889233E+03 0.  0.
         23    2    1    2    0    0  0.19520649254E+02 -0.86332682859E+02 -0.15994062973E+04  0.16043815760E+04  0.90029716515E+02 0.  0.
        -13    1    4    4    0    0  0.35548480825E+02 -0.88216738670E+02 -0.94453869233E+03  0.94931514259E+03  0.10566000000E+00 0.  1.
         13    1    4    4    0    0 -0.16027831570E+02  0.18840558108E+01 -0.65486760492E+03  0.65506643342E+03  0.10566000000E+00 0. -1.
    9000005    1    3    3    0    0 -0.42341779910E+02  0.96955790744E+02 -0.96152453895E+03  0.96732811945E+03  0.10000000000E+01 0.  0.
    9000005    1    3    3    0    0  0.22821130656E+02 -0.10623107884E+02 -0.52880556654E+02  0.58574804290E+02  0.10000000000E+01 0.  0.
<mgrwt>
<rscale>  0 0.14594089E+03</rscale>
<asrwt>0</asrwt>
<pdfrwt beam="2">  1        2 0.40339132E+00 0.15316367E+03</pdfrwt>
<pdfrwt beam="1">  1       -2 0.12671642E-02 0.15316367E+03</pdfrwt>
<totfact> 0.51957345E+03</totfact>
</mgrwt>
</event>
<event>
 8    3  0.7944584E-004  0.1444843E+03  0.7818608E-02  0.1219968E+00
         -2   -1    0    0    0  501 -0.00000000000E+00  0.00000000000E+00  0.52354709560E+02  0.52354709622E+02  0.25500000000E-02 0.  1.
          2   -1    0    0  501    0  0.00000000000E+00 -0.00000000000E+00 -0.43129430763E+03  0.43129430764E+03  0.25500000000E-02 0. -1.
         25    2    1    2    0    0  0.90582151448E+01  0.71894842335E+02 -0.80628947096E+02  0.16545915878E+03  0.12499914600E+03 0.  0.
         23    2    1    2    0    0 -0.90582151448E+01 -0.71894842335E+02 -0.29831065097E+03  0.31818985848E+03  0.83693619445E+02 0.  0.
        -13    1    4    4    0    0  0.95401450908E+01 -0.80427743486E+02 -0.27719926209E+03  0.28878898587E+03  0.10566000000E+00 0. -1.
         13    1    4    4    0    0 -0.18598360236E+02  0.85329011514E+01 -0.21111388886E+02  0.29400872610E+02  0.10566000000E+00 0.  1.
    9000005    1    3    3    0    0  0.64153381739E+02  0.57983203023E+02 -0.38229160207E+02  0.94552508753E+02  0.10000000000E+01 0.  0.
    9000005    1    3    3    0    0 -0.55095166594E+02  0.13911639312E+02 -0.42399786889E+02  0.70906650031E+02  0.10000000000E+01 0.  0.
<mgrwt>
<rscale>  0 0.13517831E+03</rscale>
<asrwt>0</asrwt>
<pdfrwt beam="2">  1        2 0.66352968E-01 0.14448428E+03</pdfrwt>
<pdfrwt beam="1">  1       -2 0.80545710E-02 0.14448428E+03</pdfrwt>
<totfact> 0.66040096E+03</totfact>
</mgrwt>
</event>
<event>
 8    3  0.7944584E-004  0.1300279E+03  0.7818608E-02  0.1241374E+00
         -2   -1    0    0    0  501 -0.00000000000E+00  0.00000000000E+00  0.59541265200E+01  0.59541270660E+01  0.25500000000E-02 0.  1.
          2   -1    0    0  501    0  0.00000000000E+00 -0.00000000000E+00 -0.21814572869E+04  0.21814572869E+04  0.25500000000E-02 0. -1.
         25    2    1    2    0    0  0.81565163562E+01 -0.34848303102E+02 -0.12915979688E+04  0.12981265635E+04  0.12500531546E+03 0.  0.
         23    2    1    2    0    0 -0.81565163562E+01  0.34848303102E+02 -0.88390519156E+03  0.88928485043E+03  0.90874774075E+02 0.  0.
        -13    1    4    4    0    0  0.14459469943E+01  0.61981481536E+02 -0.42741450202E+03  0.43188767350E+03  0.10566000000E+00 0.  1.
         13    1    4    4    0    0 -0.96024633505E+01 -0.27133178434E+02 -0.45649068954E+03  0.45739717694E+03  0.10566000000E+00 0. -1.
    9000005    1    3    3    0    0 -0.27262941392E+02 -0.50185747388E+02 -0.11482457112E+04  0.11496656429E+04  0.10000000000E+01 0.  0.
    9000005    1    3    3    0    0  0.35419457748E+02  0.15337444286E+02 -0.14335225761E+03  0.14846092061E+03  0.10000000000E+01 0.  0.
<mgrwt>
<rscale>  0 0.12105040E+03</rscale>
<asrwt>0</asrwt>
<pdfrwt beam="2">  1        2 0.33560818E+00 0.13002793E+03</pdfrwt>
<pdfrwt beam="1">  1       -2 0.91602124E-03 0.13002793E+03</pdfrwt>
<totfact> 0.14111903E+04</totfact>
</mgrwt>
</event>
<event>
 8    3  0.7944584E-004  0.1276891E+03  0.7818608E-02  0.1245604E+00
         -2   -1    0    0    0  501 -0.00000000000E+00  0.00000000000E+00  0.11147983422E+02  0.11147983714E+02  0.25500000000E-02 0.  1.
          2   -1    0    0  501    0  0.00000000000E+00 -0.00000000000E+00 -0.12577670726E+04  0.12577670726E+04  0.25500000000E-02 0. -1.
         25    2    1    2    0    0 -0.22913171593E+02  0.12415220221E+02 -0.48879697328E+03  0.50519994836E+03  0.12500142244E+03 0.  0.
         23    2    1    2    0    0  0.22913171593E+02 -0.12415220221E+02 -0.75782211588E+03  0.76371510794E+03  0.91034365193E+02 0.  0.
        -13    1    4    4    0    0  0.57721452249E+02 -0.32688319306E+01 -0.41468182671E+03  0.41869258397E+03  0.10566000000E+00 0. -1.
         13    1    4    4    0    0 -0.34808280656E+02 -0.91463882908E+01 -0.34314028918E+03  0.34502252396E+03  0.10566000000E+00 0.  1.
    9000005    1    3    3    0    0 -0.50149941340E+01 -0.52807317266E+02 -0.13609767993E+03  0.14607306872E+03  0.10000000000E+01 0.  0.
    9000005    1    3    3    0    0 -0.17898177459E+02  0.65222537488E+02 -0.35269929334E+03  0.35912687964E+03  0.10000000000E+01 0.  0.
<mgrwt>
<rscale>  0 0.11849300E+03</rscale>
<asrwt>0</asrwt>
<pdfrwt beam="2">  1        2 0.19350251E+00 0.12768910E+03</pdfrwt>
<pdfrwt beam="1">  1       -2 0.17150754E-02 0.12768910E+03</pdfrwt>
<totfact> 0.17207200E+04</totfact>
</mgrwt>
</event>
<event>
 8    3  0.7944584E-004  0.1269435E+03  0.7818608E-02  0.1246946E+00
         -2   -1    0    0    0  501 -0.00000000000E+00  0.00000000000E+00  0.20968497851E+02  0.20968498006E+02  0.25500000000E-02 0.  1.
          2   -1    0    0  501    0  0.00000000000E+00 -0.00000000000E+00 -0.62258079609E+03  0.62258079610E+03  0.25500000000E-02 0. -1.
         25    2    1    2    0    0 -0.15548778673E+02  0.15891704041E+02 -0.42523618118E+03  0.44377974825E+03  0.12498137620E+03 0.  0.
         23    2    1    2    0    0  0.15548778673E+02 -0.15891704041E+02 -0.17637611706E+03  0.19976954585E+03  0.91131915405E+02 0.  0.
        -13    1    4    4    0    0  0.14885355983E+02 -0.27296228636E+02 -0.18362563583E+03  0.18623920967E+03  0.10566000000E+00 0. -1.
         13    1    4    4    0    0  0.66342269039E+00  0.11404524596E+02  0.72495187665E+01  0.13530336186E+02  0.10566000000E+00 0.  1.
    9000005    1    3    3    0    0  0.96218415984E+01  0.32399086465E+02 -0.24118290301E+02  0.41532789054E+02  0.10000000000E+01 0.  0.
    9000005    1    3    3    0    0 -0.25170620272E+02 -0.16507382425E+02 -0.40111789088E+03  0.40224695920E+03  0.10000000000E+01 0.  0.
<mgrwt>
<rscale>  0 0.11769666E+03</rscale>
<asrwt>0</asrwt>
<pdfrwt beam="2">  1        2 0.95781647E-01 0.12694351E+03</pdfrwt>
<pdfrwt beam="1">  1       -2 0.32259232E-02 0.12694351E+03</pdfrwt>
<totfact> 0.17276720E+04</totfact>
</mgrwt>
</event>
<event>
 8    3  0.7944584E-004  0.1385357E+03  0.7818608E-02  0.1226830E+00
         -2   -1    0    0    0  501 -0.00000000000E+00  0.00000000000E+00  0.22958882544E+02  0.22958882686E+02  0.25500000000E-02 0.  1.
          2   -1    0    0  501    0  0.00000000000E+00 -0.00000000000E+00 -0.80476003664E+03  0.80476003664E+03  0.25500000000E-02 0. -1.
         25    2    1    2    0    0  0.52675581830E+00  0.59728092005E+02 -0.60043373639E+03  0.61620841909E+03  0.12499768603E+03 0.  0.
         23    2    1    2    0    0 -0.52675581830E+00 -0.59728092005E+02 -0.18136741770E+03  0.21151050023E+03  0.90966087421E+02 0.  0.
        -13    1    4    4    0    0  0.35688440572E+02 -0.13281578721E+02 -0.12232387018E+03  0.12811403320E+03  0.10566000000E+00 0. -1.
         13    1    4    4    0    0 -0.36215196391E+02 -0.46446513283E+02 -0.59043547522E+02  0.83396467034E+02  0.10566000000E+00 0.  1.
    9000005    1    3    3    0    0 -0.10083306052E+02 -0.26210349106E+02 -0.35190103467E+03  0.35302123685E+03  0.10000000000E+01 0.  0.
    9000005    1    3    3    0    0  0.10610061870E+02  0.85938441111E+02 -0.24853270172E+03  0.26318718224E+03  0.10000000000E+01 0.  0.
<mgrwt>
<rscale>  0 0.13042233E+03</rscale>
<asrwt>0</asrwt>
<pdfrwt beam="2">  1        2 0.12380921E+00 0.13853571E+03</pdfrwt>
<pdfrwt beam="1">  1       -2 0.35321364E-02 0.13853571E+03</pdfrwt>
<totfact> 0.11199503E+04</totfact>
</mgrwt>
</event>
<event>
 8    3  0.7944584E-004  0.1870424E+03  0.7818608E-02  0.1166827E+00
         -2   -1    0    0    0  501 -0.00000000000E+00  0.00000000000E+00  0.70947846116E+03  0.70947846117E+03  0.25500000000E-02 0.  1.
          2   -1    0    0  501    0  0.00000000000E+00 -0.00000000000E+00 -0.78313019711E+02  0.78313019752E+02  0.25500000000E-02 0. -1.
         25    2    1    2    0    0  0.92821267361E+02 -0.10364016939E+03  0.58958336337E+03  0.61854136167E+03  0.12501120486E+03 0.  0.
         23    2    1    2    0    0 -0.92821267361E+02  0.10364016939E+03  0.41582078080E+02  0.16925011925E+03  0.86945162403E+02 0.  0.
        -13    1    4    4    0    0 -0.67979887179E+02  0.99185237544E+02  0.63358068565E+02  0.13591626990E+03  0.10566000000E+00 0. -1.
         13    1    4    4    0    0 -0.24841380182E+02  0.44549318429E+01 -0.21775990485E+02  0.33333849353E+02  0.10566000000E+00 0.  1.
    9000005    1    3    3    0    0  0.10908449848E+03 -0.88423724808E+02  0.33851980771E+03  0.36648989499E+03  0.10000000000E+01 0.  0.
    9000005    1    3    3    0    0 -0.16263231119E+02 -0.15216444579E+02  0.25106355566E+03  0.25205146668E+03  0.10000000000E+01 0.  0.
<mgrwt>
<rscale>  0 0.18101206E+03</rscale>
<asrwt>0</asrwt>
<pdfrwt beam="2">  1        2 0.12048157E-01 0.18704244E+03</pdfrwt>
<pdfrwt beam="1">  1       -2 0.10915053E+00 0.18704244E+03</pdfrwt>
<totfact> 0.35370783E+02</totfact>
</mgrwt>
</event>
<event>
 8    3  0.7944584E-004  0.1799489E+03  0.7818608E-02  0.1173261E+00
         -2   -1    0    0    0  501 -0.00000000000E+00  0.00000000000E+00  0.49754719065E+02  0.49754719130E+02  0.25500000000E-02 0.  1.
          2   -1    0    0  501    0  0.00000000000E+00 -0.00000000000E+00 -0.64263284642E+03  0.64263284643E+03  0.25500000000E-02 0. -1.
         25    2    1    2    0    0 -0.85867381980E+02  0.96875699406E+02 -0.42301733284E+03  0.45970128796E+03  0.12499400724E+03 0.  0.
         23    2    1    2    0    0  0.85867381980E+02 -0.96875699406E+02 -0.16986079452E+03  0.23268627760E+03  0.92369398852E+02 0.  0.
        -13    1    4    4    0    0  0.65467674030E+02 -0.52260236189E+02 -0.16284715471E+03  0.18312934115E+03  0.10566000000E+00 0. -1.
         13    1    4    4    0    0  0.20399707950E+02 -0.44615463217E+02 -0.70136398075E+01  0.49556936446E+02  0.10566000000E+00 0.  1.
    9000005    1    3    3    0    0  0.18580014231E+02 -0.11687687150E+02 -0.21046526983E+02  0.30426555142E+02  0.10000000000E+01 0.  0.
    9000005    1    3    3    0    0 -0.10444739621E+03  0.10856338656E+03 -0.40197080586E+03  0.42927473282E+03  0.10000000000E+01 0.  0.
<mgrwt>
<rscale>  0 0.17447410E+03</rscale>
<asrwt>0</asrwt>
<pdfrwt beam="2">  1        2 0.98866586E-01 0.17994891E+03</pdfrwt>
<pdfrwt beam="1">  1       -2 0.76545726E-02 0.17994891E+03</pdfrwt>
<totfact> 0.46253238E+03</totfact>
</mgrwt>
</event>
<event>
 8    3  0.7944584E-004  0.2478370E+03  0.7818608E-02  0.1117139E+00
          2   -1    0    0  501    0  0.00000000000E+00  0.00000000000E+00  0.41414611662E+04  0.41414611662E+04  0.25500000000E-02 0. -1.
         -2   -1    0    0    0  501 -0.00000000000E+00 -0.00000000000E+00 -0.14019884178E+02  0.14019884410E+02  0.25500000000E-02 0.  1.
         25    2    1    2    0    0 -0.65463772618E+02  0.20374595377E+03  0.22702187327E+04  0.22837066953E+04  0.12500102811E+03 0.  0.
         23    2    1    2    0    0  0.65463772618E+02 -0.20374595377E+03  0.18572225494E+04  0.18717743553E+04  0.92009347251E+02 0.  0.
        -13    1    4    4    0    0  0.25539357888E+02 -0.61229984532E+02  0.28587511459E+03  0.29347225101E+03  0.10566000000E+00 0.  1.
         13    1    4    4    0    0  0.39924414730E+02 -0.14251596924E+03  0.15713474348E+04  0.15783021043E+04  0.10566000000E+00 0. -1.
    9000005    1    3    3    0    0  0.61655717782E+01 -0.13140402280E+02  0.60974544997E+02  0.62686358843E+02  0.10000000000E+01 0.  0.
    9000005    1    3    3    0    0 -0.71629344396E+02  0.21688635605E+03  0.22092441877E+04  0.22210203365E+04  0.10000000000E+01 0.  0.
<mgrwt>
<rscale>  0 0.24402719E+03</rscale>
<asrwt>0</asrwt>
<pdfrwt beam="1">  1        2 0.63714842E+00 0.24783700E+03</pdfrwt>
<pdfrwt beam="2">  1       -2 0.21569034E-02 0.24783700E+03</pdfrwt>
<totfact> 0.24166266E+02</totfact>
</mgrwt>
</event>
<event>
 8    3  0.7944584E-004  0.1512435E+03  0.7818608E-02  0.1207848E+00
         -2   -1    0    0    0  501 -0.00000000000E+00  0.00000000000E+00  0.32346091123E+02  0.32346091224E+02  0.25500000000E-02 0. -1.
          2   -1    0    0  501    0  0.00000000000E+00 -0.00000000000E+00 -0.67543473132E+03  0.67543473132E+03  0.25500000000E-02 0.  1.
         25    2    1    2    0    0  0.82698410784E+02  0.20276425044E+02 -0.22230011065E+03  0.26887160912E+03  0.12499776973E+03 0.  0.
         23    2    1    2    0    0 -0.82698410784E+02 -0.20276425044E+02 -0.42078852954E+03  0.43890921342E+03  0.91258700813E+02 0.  0.
        -13    1    4    4    0    0 -0.24663044619E+02 -0.38478761102E+02 -0.75127071656E+02  0.87937300876E+02  0.10566000000E+00 0. -1.
         13    1    4    4    0    0 -0.58035366166E+02  0.18202336058E+02 -0.34566145789E+03  0.35097191255E+03  0.10566000000E+00 0.  1.
    9000005    1    3    3    0    0 -0.90509346643E+01 -0.25868795744E+02 -0.12297087950E+03  0.12599186965E+03  0.10000000000E+01 0.  0.
    9000005    1    3    3    0    0  0.91749345449E+02  0.46145220788E+02 -0.99329231147E+02  0.14287973947E+03  0.10000000000E+01 0.  0.
<mgrwt>
<rscale>  0 0.14415265E+03</rscale>
<asrwt>0</asrwt>
<pdfrwt beam="2">  1        2 0.10391302E+00 0.15124352E+03</pdfrwt>
<pdfrwt beam="1">  1       -2 0.49763222E-02 0.15124352E+03</pdfrwt>
<totfact> 0.83479873E+03</totfact>
</mgrwt>
</event>
<event>
 8    3  0.7944584E-004  0.2005195E+03  0.7818608E-02  0.1153690E+00
         -2   -1    0    0    0  501 -0.00000000000E+00  0.00000000000E+00  0.76166862368E+02  0.76166862411E+02  0.25500000000E-02 0.  1.
          2   -1    0    0  501    0  0.00000000000E+00 -0.00000000000E+00 -0.52479104158E+03  0.52479104159E+03  0.25500000000E-02 0. -1.
         25    2    1    2    0    0 -0.14601335614E+03  0.57131152478E+02 -0.14447284389E+03  0.24714463571E+03  0.12499679830E+03 0.  0.
         23    2    1    2    0    0  0.14601335614E+03 -0.57131152478E+02 -0.30415133533E+03  0.35381326829E+03  0.89955129253E+02 0.  0.
        -13    1    4    4    0    0  0.10730245758E+03 -0.54779798442E+02 -0.13797493448E+03  0.18317133354E+03  0.10566000000E+00 0.  1.
         13    1    4    4    0    0  0.38710898562E+02 -0.23513540358E+01 -0.16617640085E+03  0.17064193475E+03  0.10566000000E+00 0. -1.
    9000005    1    3    3    0    0 -0.36745857280E+02  0.17678349608E+02 -0.12223260168E+03  0.12885880251E+03  0.10000000000E+01 0.  0.
    9000005    1    3    3    0    0 -0.10926749886E+03  0.39452802871E+02 -0.22240242211E+02  0.11828583320E+03  0.10000000000E+01 0.  0.
<mgrwt>
<rscale>  0 0.19538703E+03</rscale>
<asrwt>0</asrwt>
<pdfrwt beam="2">  1        2 0.80737081E-01 0.20051950E+03</pdfrwt>
<pdfrwt beam="1">  1       -2 0.11717979E-01 0.20051950E+03</pdfrwt>
<totfact> 0.29911240E+03</totfact>
</mgrwt>
</event>
<event>
 8    3  0.7944584E-004  0.1970311E+03  0.7818608E-02  0.1156561E+00
         -2   -1    0    0    0  501 -0.00000000000E+00  0.00000000000E+00  0.88790072756E+03  0.88790072756E+03  0.25500000000E-02 0. -1.
          2   -1    0    0  501    0  0.00000000000E+00 -0.00000000000E+00 -0.60671911905E+02  0.60671911958E+02  0.25500000000E-02 0.  1.
         25    2    1    2    0    0  0.12271671758E+03 -0.90198399704E+02  0.70633971496E+03  0.73330557346E+03  0.12500450813E+03 0.  0.
         23    2    1    2    0    0 -0.12271671758E+03  0.90198399704E+02  0.12088910069E+03  0.21526706606E+03  0.92361198460E+02 0.  0.
        -13    1    4    4    0    0 -0.11295616562E+03  0.10101995312E+03  0.78958209046E+02  0.17087579179E+03  0.10566000000E+00 0.  1.
         13    1    4    4    0    0 -0.97605519629E+01 -0.10821553419E+02  0.41930891647E+02  0.44391274271E+02  0.10566000000E+00 0. -1.
    9000005    1    3    3    0    0  0.52342241891E+02  0.71112521514E+01  0.82183710210E+02  0.97700780023E+02  0.10000000000E+01 0.  0.
    9000005    1    3    3    0    0  0.70374475691E+02 -0.97309651856E+02  0.62415600475E+03  0.63560479344E+03  0.10000000000E+01 0.  0.
<mgrwt>
<rscale>  0 0.19212223E+03</rscale>
<asrwt>0</asrwt>
<pdfrwt beam="2">  1        2 0.93341408E-02 0.19703114E+03</pdfrwt>
<pdfrwt beam="1">  1       -2 0.13660010E+00 0.19703114E+03</pdfrwt>
<totfact> 0.28098004E+02</totfact>
</mgrwt>
</event>
<event>
 8    3  0.7944584E-004  0.1487552E+03  0.7818608E-02  0.1212037E+00
         -2   -1    0    0    0  501 -0.00000000000E+00  0.00000000000E+00  0.14826843577E+02  0.14826843796E+02  0.25500000000E-02 0.  1.
          2   -1    0    0  501    0  0.00000000000E+00 -0.00000000000E+00 -0.13223282370E+04  0.13223282370E+04  0.25500000000E-02 0. -1.
         25    2    1    2    0    0 -0.50544623829E+02  0.62827181722E+02 -0.90552412356E+03  0.91766119040E+03  0.12500443299E+03 0.  0.
         23    2    1    2    0    0  0.50544623829E+02 -0.62827181722E+02 -0.40197726990E+03  0.41949389043E+03  0.88810949947E+02 0.  0.
        -13    1    4    4    0    0  0.34291745918E+02 -0.84938870271E+02 -0.32949550003E+03  0.34199098120E+03  0.10566000000E+00 0. -1.
         13    1    4    4    0    0  0.16252877911E+02  0.22111688549E+02 -0.72481769871E+02  0.77502909226E+02  0.10566000000E+00 0.  1.
    9000005    1    3    3    0    0 -0.23722147507E+02 -0.26777741706E+02 -0.50888053905E+03  0.51013742341E+03  0.10000000000E+01 0.  0.
    9000005    1    3    3    0    0 -0.26822476322E+02  0.89604923428E+02 -0.39664358451E+03  0.40752376700E+03  0.10000000000E+01 0.  0.
<mgrwt>
<rscale>  0 0.14096443E+03</rscale>
<asrwt>0</asrwt>
<pdfrwt beam="2">  1        2 0.20343502E+00 0.14875524E+03</pdfrwt>
<pdfrwt beam="1">  1       -2 0.22810539E-02 0.14875524E+03</pdfrwt>
<totfact> 0.10582897E+04</totfact>
</mgrwt>
</event>
<event>
 8    3  0.7944584E-004  0.1403233E+03  0.7818608E-02  0.1227788E+00
          2   -1    0    0  501    0  0.00000000000E+00  0.00000000000E+00  0.77604494021E+03  0.77604494021E+03  0.25500000000E-02 0. -1.
         -2   -1    0    0    0  501 -0.00000000000E+00 -0.00000000000E+00 -0.19105370666E+02  0.19105370836E+02  0.25500000000E-02 0.  1.
         25    2    1    2    0    0 -0.12800072570E+01  0.63746888512E+02  0.46321410239E+03  0.48400198719E+03  0.12500125894E+03 0.  0.
         23    2    1    2    0    0  0.12800072570E+01 -0.63746888512E+02  0.29372546715E+03  0.31114832386E+03  0.80456977155E+02 0.  0.
        -13    1    4    4    0    0  0.33468745444E+02 -0.22918668682E+02  0.19900657169E+03  0.20309861899E+03  0.10566000000E+00 0. -1.
         13    1    4    4    0    0 -0.32188738187E+02 -0.40828219831E+02  0.94718895461E+02  0.10804970487E+03  0.10566000000E+00 0.  1.
    9000005    1    3    3    0    0 -0.48705371687E+02  0.43973106632E+02  0.11833266876E+03  0.13531248218E+03  0.10000000000E+01 0.  0.
    9000005    1    3    3    0    0  0.47425364430E+02  0.19773781881E+02  0.34488143362E+03  0.34868950500E+03  0.10000000000E+01 0.  0.
<mgrwt>
<rscale>  0 0.12977627E+03</rscale>
<asrwt>0</asrwt>
<pdfrwt beam="1">  1        2 0.11939149E+00 0.14032327E+03</pdfrwt>
<pdfrwt beam="2">  1       -2 0.29392887E-02 0.14032327E+03</pdfrwt>
<totfact> 0.15374066E+04</totfact>
</mgrwt>
</event>
<event>
 8    3  0.7944584E-004  0.1550332E+03  0.7818608E-02  0.1202962E+00
         -2   -1    0    0    0  501 -0.00000000000E+00  0.00000000000E+00  0.21187783842E+03  0.21187783843E+03  0.25500000000E-02 0.  1.
          2   -1    0    0  501    0  0.00000000000E+00 -0.00000000000E+00 -0.12996211298E+03  0.12996211301E+03  0.25500000000E-02 0. -1.
         25    2    1    2    0    0  0.24009758044E+02  0.88501792084E+02 -0.44626657549E+02  0.16132836619E+03  0.12500506986E+03 0.  0.
         23    2    1    2    0    0 -0.24009758044E+02 -0.88501792084E+02  0.12654238298E+03  0.18051158525E+03  0.90346123521E+02 0.  0.
        -13    1    4    4    0    0  0.23811807387E+02 -0.75505662414E+02  0.78381689213E+02  0.11140829231E+03  0.10566000000E+00 0. -1.
         13    1    4    4    0    0 -0.47821565431E+02 -0.12996129669E+02  0.48160693771E+02  0.69103292940E+02  0.10566000000E+00 0.  1.
    9000005    1    3    3    0    0  0.37616408330E+02  0.92207557898E+02 -0.77076460795E+02  0.12593255623E+03  0.10000000000E+01 0.  0.
    9000005    1    3    3    0    0 -0.13606650286E+02 -0.37057658142E+01  0.32449803246E+02  0.35395809963E+02  0.10000000000E+01 0.  0.
<mgrwt>
<rscale>  0 0.14799215E+03</rscale>
<asrwt>0</asrwt>
<pdfrwt beam="2">  1        2 0.19994171E-01 0.15503323E+03</pdfrwt>
<pdfrwt beam="1">  1       -2 0.32596590E-01 0.15503323E+03</pdfrwt>
<totfact> 0.23739981E+03</totfact>
</mgrwt>
</event>
<event>
 8    3  0.7944584E-004  0.2041641E+03  0.7818608E-02  0.1150401E+00
          2   -1    0    0  501    0  0.00000000000E+00  0.00000000000E+00  0.47990632986E+03  0.47990632987E+03  0.25500000000E-02 0. -1.
         -2   -1    0    0    0  501 -0.00000000000E+00 -0.00000000000E+00 -0.80126617434E+02  0.80126617475E+02  0.25500000000E-02 0.  1.
         25    2    1    2    0    0 -0.15878820316E+03 -0.29064172908E+02  0.24373990810E+03  0.31794987803E+03  0.12499825012E+03 0.  0.
         23    2    1    2    0    0  0.15878820316E+03  0.29064172908E+02  0.15603980433E+03  0.24208306931E+03  0.90539341191E+02 0.  0.
        -13    1    4    4    0    0  0.40597161725E+02  0.23143370597E+02  0.61527333475E+00  0.46734728715E+02  0.10566000000E+00 0. -1.
         13    1    4    4    0    0  0.11819104143E+03  0.59208023111E+01  0.15542453100E+03  0.19534834060E+03  0.10566000000E+00 0.  1.
    9000005    1    3    3    0    0 -0.38053483936E+02 -0.92010812838E+01 -0.62138555690E+01  0.39652736822E+02  0.10000000000E+01 0.  0.
    9000005    1    3    3    0    0 -0.12073471922E+03 -0.19863091624E+02  0.24995376367E+03  0.27829714121E+03  0.10000000000E+01 0.  0.
<mgrwt>
<rscale>  0 0.19921695E+03</rscale>
<asrwt>0</asrwt>
<pdfrwt beam="1">  1        2 0.73831742E-01 0.20416411E+03</pdfrwt>
<pdfrwt beam="2">  1       -2 0.12327172E-01 0.20416411E+03</pdfrwt>
<totfact> 0.30471996E+03</totfact>
</mgrwt>
</event>
<event>
 8    3  0.7944584E-004  0.1500866E+03  0.7818608E-02  0.1209631E+00
         -2   -1    0    0    0  501 -0.00000000000E+00  0.00000000000E+00  0.17839381718E+02  0.17839381900E+02  0.25500000000E-02 0.  1.
          2   -1    0    0  501    0  0.00000000000E+00 -0.00000000000E+00 -0.11313768659E+04  0.11313768659E+04  0.25500000000E-02 0. -1.
         25    2    1    2    0    0 -0.41618234460E+02  0.71904054208E+02 -0.76624458301E+03  0.78080518391E+03  0.12499481505E+03 0.  0.
         23    2    1    2    0    0  0.41618234460E+02 -0.71904054208E+02 -0.34729290117E+03  0.36841106389E+03  0.90620540376E+02 0.  0.
        -13    1    4    4    0    0  0.55906432788E+02 -0.34422997628E+02 -0.29653807019E+03  0.30371913050E+03  0.10566000000E+00 0. -1.
         13    1    4    4    0    0 -0.14288198328E+02 -0.37481056580E+02 -0.50754830981E+02  0.64691933390E+02  0.10566000000E+00 0.  1.
    9000005    1    3    3    0    0 -0.12289334260E+02  0.51134053932E+02 -0.94929024409E+02  0.10852759503E+03  0.10000000000E+01 0.  0.
    9000005    1    3    3    0    0 -0.29328900200E+02  0.20770000276E+02 -0.67131555860E+03  0.67227758888E+03  0.10000000000E+01 0.  0.
<mgrwt>
<rscale>  0 0.14278416E+03</rscale>
<asrwt>0</asrwt>
<pdfrwt beam="2">  1        2 0.17405792E+00 0.15008656E+03</pdfrwt>
<pdfrwt beam="1">  1       -2 0.27445212E-02 0.15008656E+03</pdfrwt>
<totfact> 0.10293882E+04</totfact>
</mgrwt>
</event>
<event>
 8    3  0.7944584E-004  0.1284301E+03  0.7818608E-02  0.1243772E+00
          2   -1    0    0  501    0  0.00000000000E+00  0.00000000000E+00  0.14337941034E+04  0.14337941034E+04  0.25500000000E-02 0. -1.
         -2   -1    0    0    0  501 -0.00000000000E+00 -0.00000000000E+00 -0.10735179807E+02  0.10735180110E+02  0.25500000000E-02 0.  1.
         25    2    1    2    0    0  0.29055957033E+02 -0.47535444647E+01  0.49236509509E+03  0.50883953958E+03  0.12500978105E+03 0.  0.
         23    2    1    2    0    0 -0.29055957033E+02  0.47535444647E+01  0.93069382848E+03  0.93568974390E+03  0.91964393390E+02 0.  0.
        -13    1    4    4    0    0 -0.56722167351E+02 -0.15317977425E+02  0.70217359929E+03  0.70462743305E+03  0.10566000000E+00 0. -1.
         13    1    4    4    0    0  0.27666210318E+02  0.20071521890E+02  0.22852022918E+03  0.23106231085E+03  0.10566000000E+00 0.  1.
    9000005    1    3    3    0    0  0.66107464360E+02 -0.35324160629E+02  0.22405793080E+03  0.23626457526E+03  0.10000000000E+01 0.  0.
    9000005    1    3    3    0    0 -0.37051507327E+02  0.30570616164E+02  0.26830716429E+03  0.27257496432E+03  0.10000000000E+01 0.  0.
<mgrwt>
<rscale>  0 0.11959199E+03</rscale>
<asrwt>0</asrwt>
<pdfrwt beam="1">  1        2 0.22058351E+00 0.12843010E+03</pdfrwt>
<pdfrwt beam="2">  1       -2 0.16515676E-02 0.12843010E+03</pdfrwt>
<totfact> 0.14646021E+04</totfact>
</mgrwt>
</event>
<event>
 8    3  0.7944584E-004  0.1711959E+03  0.7818608E-02  0.1181174E+00
         -2   -1    0    0    0  501 -0.00000000000E+00  0.00000000000E+00  0.10887058250E+02  0.10887058548E+02  0.25500000000E-02 0.  1.
          2   -1    0    0  501    0  0.00000000000E+00 -0.00000000000E+00 -0.24445374175E+04  0.24445374175E+04  0.25500000000E-02 0. -1.
         25    2    1    2    0    0  0.11558729837E+03  0.17946324737E+02 -0.13546017078E+04  0.13653768006E+04  0.12500210606E+03 0.  0.
         23    2    1    2    0    0 -0.11558729837E+03 -0.17946324737E+02 -0.10790486515E+04  0.10900476755E+04  0.10087342863E+03 0.  0.
        -13    1    4    4    0    0 -0.28976854225E+02 -0.34259892412E+02 -0.14337636492E+03  0.15023378944E+03  0.10566000000E+00 0.  1.
         13    1    4    4    0    0 -0.86610444149E+02  0.16313567675E+02 -0.93567228654E+03  0.93981388609E+03  0.10566000000E+00 0. -1.
    9000005    1    3    3    0    0  0.84297264653E+01 -0.13643191297E+02 -0.18058837662E+02  0.24172682407E+02  0.10000000000E+01 0.  0.
    9000005    1    3    3    0    0  0.10715757191E+03  0.31589516033E+02 -0.13365428702E+04  0.13412041181E+04  0.10000000000E+01 0.  0.
<mgrwt>
<rscale>  0 0.16684917E+03</rscale>
<asrwt>0</asrwt>
<pdfrwt beam="2">  1        2 0.37608224E+00 0.17119585E+03</pdfrwt>
<pdfrwt beam="1">  1       -2 0.16749340E-02 0.17119585E+03</pdfrwt>
<totfact> 0.43261904E+03</totfact>
</mgrwt>
</event>
<event>
 8    3  0.7944584E-004  0.1480573E+03  0.7818608E-02  0.1211718E+00
         -2   -1    0    0    0  501 -0.00000000000E+00  0.00000000000E+00  0.42463095320E+01  0.42463102977E+01  0.25500000000E-02 0.  1.
          2   -1    0    0  501    0  0.00000000000E+00 -0.00000000000E+00 -0.43103319931E+04  0.43103319931E+04  0.25500000000E-02 0. -1.
         25    2    1    2    0    0 -0.26442909604E+02 -0.74807322724E+02 -0.23238992138E+04  0.23286108541E+04  0.12500236326E+03 0.  0.
         23    2    1    2    0    0  0.26442909604E+02  0.74807322724E+02 -0.19821864698E+04  0.19859674493E+04  0.93317446571E+02 0.  0.
        -13    1    4    4    0    0 -0.30004542070E+02  0.43843324896E+01 -0.66615657593E+03  0.66684637641E+03  0.10566000000E+00 0. -1.
         13    1    4    4    0    0  0.56447451674E+02  0.70422990234E+02 -0.13160298939E+04  0.13191210729E+04  0.10566000000E+00 0.  1.
    9000005    1    3    3    0    0  0.29304231543E+02 -0.15258789275E+02 -0.15633100785E+04  0.15636594803E+04  0.10000000000E+01 0.  0.
    9000005    1    3    3    0    0 -0.55747141147E+02 -0.59548533448E+02 -0.76058913528E+03  0.76495137380E+03  0.10000000000E+01 0.  0.
<mgrwt>
<rscale>  0 0.14120380E+03</rscale>
<asrwt>0</asrwt>
<pdfrwt beam="2">  1        2 0.66312450E+00 0.14805727E+03</pdfrwt>
<pdfrwt beam="1">  1       -2 0.65328190E-03 0.14805727E+03</pdfrwt>
<totfact> 0.10325155E+03</totfact>
</mgrwt>
</event>
<event>
 8    3  0.7944584E-004  0.1259541E+03  0.7818608E-02  0.1248780E+00
         -2   -1    0    0    0  501 -0.00000000000E+00  0.00000000000E+00  0.39848366098E+01  0.39848374257E+01  0.25500000000E-02 0.  1.
          2   -1    0    0  501    0  0.00000000000E+00 -0.00000000000E+00 -0.30114368853E+04  0.30114368853E+04  0.25500000000E-02 0. -1.
         25    2    1    2    0    0 -0.15159011378E+02  0.33077410356E+01 -0.18397107794E+04  0.18440174029E+04  0.12499477468E+03 0.  0.
         23    2    1    2    0    0  0.15159011378E+02 -0.33077410356E+01 -0.11677412694E+04  0.11714043199E+04  0.91256077360E+02 0.  0.
        -13    1    4    4    0    0  0.21576408908E+02  0.32045511690E+02 -0.94451607492E+03  0.94530581464E+03  0.10566000000E+00 0. -1.
         13    1    4    4    0    0 -0.64173975302E+01 -0.35353252725E+02 -0.22322519443E+03  0.22609850522E+03  0.10566000000E+00 0.  1.
    9000005    1    3    3    0    0 -0.67681601329E+02  0.20136831066E+02 -0.10803161207E+04  0.10826219154E+04  0.10000000000E+01 0.  0.
    9000005    1    3    3    0    0  0.52522589950E+02 -0.16829090030E+02 -0.75939465869E+03  0.76139548749E+03  0.10000000000E+01 0.  0.
<mgrwt>
<rscale>  0 0.11661964E+03</rscale>
<asrwt>0</asrwt>
<pdfrwt beam="2">  1        2 0.46329616E+00 0.12595408E+03</pdfrwt>
<pdfrwt beam="1">  1       -2 0.61305426E-03 0.12595408E+03</pdfrwt>
<totfact> 0.88594294E+03</totfact>
</mgrwt>
</event>
<event>
 8    3  0.7944584E-004  0.1268716E+03  0.7818608E-02  0.1247258E+00
          2   -1    0    0  501    0  0.00000000000E+00  0.00000000000E+00  0.51698858956E+03  0.51698858956E+03  0.25500000000E-02 0. -1.
         -2   -1    0    0    0  501 -0.00000000000E+00 -0.00000000000E+00 -0.28620808693E+02  0.28620808807E+02  0.25500000000E-02 0.  1.
         25    2    1    2    0    0 -0.13240442779E+02  0.17245553654E+02  0.15985403194E+03  0.20408260735E+03  0.12499472249E+03 0.  0.
         23    2    1    2    0    0  0.13240442779E+02 -0.17245553654E+02  0.32851374893E+03  0.34152679102E+03  0.90810502172E+02 0.  0.
        -13    1    4    4    0    0 -0.35642384839E+02 -0.24635625600E+02  0.17303520785E+03  0.17837737515E+03  0.10566000000E+00 0.  1.
         13    1    4    4    0    0  0.48882827618E+02  0.73900719456E+01  0.15547854108E+03  0.16314941588E+03  0.10566000000E+00 0. -1.
    9000005    1    3    3    0    0  0.58658757618E+01  0.18379972018E+02 -0.17276995559E+02  0.25917685957E+02  0.10000000000E+01 0.  0.
    9000005    1    3    3    0    0 -0.19106318541E+02 -0.11344183639E+01  0.17713102749E+03  0.17816492139E+03  0.10000000000E+01 0.  0.
<mgrwt>
<rscale>  0 0.11751228E+03</rscale>
<asrwt>0</asrwt>
<pdfrwt beam="1">  1        2 0.79536705E-01 0.12687159E+03</pdfrwt>
<pdfrwt beam="2">  1       -2 0.44032014E-02 0.12687159E+03</pdfrwt>
<totfact> 0.13427404E+04</totfact>
</mgrwt>
</event>
<event>
 8    3  0.7944584E-004  0.1287048E+03  0.7818608E-02  0.1244236E+00
         -2   -1    0    0    0  501 -0.00000000000E+00  0.00000000000E+00  0.93438545096E+01  0.93438548575E+01  0.25500000000E-02 0.  1.
          2   -1    0    0  501    0  0.00000000000E+00 -0.00000000000E+00 -0.13418678871E+04  0.13418678871E+04  0.25500000000E-02 0. -1.
         25    2    1    2    0    0 -0.25241612253E+02 -0.17435293097E+02 -0.79398484369E+03  0.80434872143E+03  0.12499522081E+03 0.  0.
         23    2    1    2    0    0  0.25241612253E+02  0.17435293097E+02 -0.53853918888E+03  0.54686302051E+03  0.89964308500E+02 0.  0.
        -13    1    4    4    0    0  0.18654115325E+02  0.39885892414E+02 -0.49885768437E+03  0.50079722528E+03  0.10566000000E+00 0. -1.
         13    1    4    4    0    0  0.65874969279E+01 -0.22450599317E+02 -0.39681504517E+02  0.46065795231E+02  0.10566000000E+00 0.  1.
    9000005    1    3    3    0    0 -0.12594711786E+02 -0.13058747948E+02 -0.79019487244E+03  0.79040375385E+03  0.10000000000E+01 0.  0.
    9000005    1    3    3    0    0 -0.12646900467E+02 -0.43765451488E+01 -0.37899712463E+01  0.13944967583E+02  0.10000000000E+01 0.  0.
<mgrwt>
<rscale>  0 0.11931235E+03</rscale>
<asrwt>0</asrwt>
<pdfrwt beam="2">  1        2 0.20644106E+00 0.12870483E+03</pdfrwt>
<pdfrwt beam="1">  1       -2 0.14375172E-02 0.12870483E+03</pdfrwt>
<totfact> 0.20008008E+04</totfact>
</mgrwt>
</event>
<event>
 8    3  0.7944584E-004  0.1321623E+03  0.7818608E-02  0.1238595E+00
          2   -1    0    0  501    0  0.00000000000E+00  0.00000000000E+00  0.21389329576E+03  0.21389329578E+03  0.25500000000E-02 0. -1.
         -2   -1    0    0    0  501 -0.00000000000E+00 -0.00000000000E+00 -0.62184387294E+02  0.62184387346E+02  0.25500000000E-02 0.  1.
         25    2    1    2    0    0 -0.41867022956E+02 -0.97663043055E+01  0.83317150959E+02  0.15623260070E+03  0.12497459568E+03 0.  0.
         23    2    1    2    0    0  0.41867022956E+02  0.97663043055E+01  0.68391757507E+02  0.11984508242E+03  0.88527865529E+02 0.  0.
        -13    1    4    4    0    0  0.57671699049E+02  0.35710769088E+02  0.50732770032E+02  0.84706015248E+02  0.10566000000E+00 0. -1.
         13    1    4    4    0    0 -0.15804676093E+02 -0.25944464783E+02  0.17658987475E+02  0.35139067175E+02  0.10566000000E+00 0.  1.
    9000005    1    3    3    0    0  0.36415414174E+02 -0.32036348996E+02  0.17551735906E+02  0.51589470629E+02  0.10000000000E+01 0.  0.
    9000005    1    3    3    0    0 -0.78282437130E+02  0.22270044690E+02  0.65765415053E+02  0.10464313007E+03  0.10000000000E+01 0.  0.
<mgrwt>
<rscale>  0 0.12277091E+03</rscale>
<asrwt>0</asrwt>
<pdfrwt beam="1">  1        2 0.32906661E-01 0.13216232E+03</pdfrwt>
<pdfrwt beam="2">  1       -2 0.95668289E-02 0.13216232E+03</pdfrwt>
<totfact> 0.10604040E+04</totfact>
</mgrwt>
</event>
<event>
 8    3  0.7944584E-004  0.1280224E+03  0.7818608E-02  0.1245286E+00
         -2   -1    0    0    0  501 -0.00000000000E+00  0.00000000000E+00  0.60081650858E+01  0.60081656270E+01  0.25500000000E-02 0.  1.
          2   -1    0    0  501    0  0.00000000000E+00 -0.00000000000E+00 -0.23124087255E+04  0.23124087255E+04  0.25500000000E-02 0. -1.
         25    2    1    2    0    0 -0.25258554117E+01  0.27519137848E+02 -0.92974097472E+03  0.93851372178E+03  0.12500417197E+03 0.  0.
         23    2    1    2    0    0  0.25258554117E+01 -0.27519137848E+02 -0.13766595857E+04  0.13799031694E+04  0.90429303826E+02 0.  0.
        -13    1    4    4    0    0  0.55763164868E+01 -0.23440105571E+02 -0.13738960281E+04  0.13741072888E+04  0.10566000000E+00 0. -1.
         13    1    4    4    0    0 -0.30504610751E+01 -0.40790322779E+01 -0.27635576038E+01  0.57958805853E+01  0.10566000000E+00 0.  1.
    9000005    1    3    3    0    0 -0.97751158112E+00  0.25868114264E+02 -0.93358376906E+03  0.93394312928E+03  0.10000000000E+01 0.  0.
    9000005    1    3    3    0    0 -0.15483438306E+01  0.16510235846E+01  0.38427943438E+01  0.45705925068E+01  0.10000000000E+01 0.  0.
<mgrwt>
<rscale>  0 0.11868300E+03</rscale>
<asrwt>0</asrwt>
<pdfrwt beam="2">  1        2 0.35575448E+00 0.12802236E+03</pdfrwt>
<pdfrwt beam="1">  1       -2 0.92433497E-03 0.12802236E+03</pdfrwt>
<totfact> 0.11908039E+04</totfact>
</mgrwt>
</event>
<event>
 8    3  0.7944584E-004  0.1492343E+03  0.7818608E-02  0.1211388E+00
         -2   -1    0    0    0  501 -0.00000000000E+00  0.00000000000E+00  0.17492888831E+02  0.17492889017E+02  0.25500000000E-02 0.  1.
          2   -1    0    0  501    0  0.00000000000E+00 -0.00000000000E+00 -0.11987971388E+04  0.11987971388E+04  0.25500000000E-02 0. -1.
         25    2    1    2    0    0 -0.80797841522E+02 -0.10853928280E+02 -0.86589966601E+03  0.87866552911E+03  0.12499912604E+03 0.  0.
         23    2    1    2    0    0  0.80797841522E+02  0.10853928280E+02 -0.31540458394E+03  0.33762449869E+03  0.88680051798E+02 0.  0.
        -13    1    4    4    0    0  0.90182209113E+02  0.40358915873E+01 -0.17658828835E+03  0.19832436564E+03  0.10566000000E+00 0.  1.
         13    1    4    4    0    0 -0.93843675906E+01  0.68180366928E+01 -0.13881629559E+03  0.13930013304E+03  0.10566000000E+00 0. -1.
    9000005    1    3    3    0    0  0.46917310564E+01  0.44608355528E+02 -0.19678625886E+03  0.20183594675E+03  0.10000000000E+01 0.  0.
    9000005    1    3    3    0    0 -0.85489572579E+02 -0.55462283808E+02 -0.66911340714E+03  0.67682958236E+03  0.10000000000E+01 0.  0.
<mgrwt>
<rscale>  0 0.14145258E+03</rscale>
<asrwt>0</asrwt>
<pdfrwt beam="2">  1        2 0.18443026E+00 0.14923431E+03</pdfrwt>
<pdfrwt beam="1">  1       -2 0.26912146E-02 0.14923431E+03</pdfrwt>
<totfact> 0.97068495E+03</totfact>
</mgrwt>
</event>
<event>
 8    3  0.7944584E-004  0.1450053E+03  0.7818608E-02  0.1216623E+00
          2   -1    0    0  501    0  0.00000000000E+00  0.00000000000E+00  0.94285544209E+03  0.94285544210E+03  0.25500000000E-02 0. -1.
         -2   -1    0    0    0  501 -0.00000000000E+00 -0.00000000000E+00 -0.25004627953E+02  0.25004628083E+02  0.25500000000E-02 0.  1.
         25    2    1    2    0    0 -0.59797897813E+01 -0.73254976039E+02  0.74414732805E+03  0.75814363811E+03  0.12499792304E+03 0.  0.
         23    2    1    2    0    0  0.59797897813E+01  0.73254976039E+02  0.17370348609E+03  0.20971643207E+03  0.91684411975E+02 0.  0.
        -13    1    4    4    0    0  0.29017220753E+02  0.64798421442E+02  0.58696157223E+02  0.92119946583E+02  0.10566000000E+00 0.  1.
         13    1    4    4    0    0 -0.23037430972E+02  0.84565545972E+01  0.11500732887E+03  0.11759648548E+03  0.10566000000E+00 0. -1.
    9000005    1    3    3    0    0 -0.21569424943E+02 -0.99708478355E+02  0.40669161533E+03  0.41929236904E+03  0.10000000000E+01 0.  0.
    9000005    1    3    3    0    0  0.15589635162E+02  0.26453502316E+02  0.33745571272E+03  0.33885126908E+03  0.10000000000E+01 0.  0.
<mgrwt>
<rscale>  0 0.13757975E+03</rscale>
<asrwt>0</asrwt>
<pdfrwt beam="1">  1        2 0.14505466E+00 0.14500528E+03</pdfrwt>
<pdfrwt beam="2">  1       -2 0.38468665E-02 0.14500528E+03</pdfrwt>
<totfact> 0.80636890E+03</totfact>
</mgrwt>
</event>
<event>
 8    3  0.7944584E-004  0.1469321E+03  0.7818608E-02  0.1214019E+00
         -2   -1    0    0    0  501 -0.00000000000E+00  0.00000000000E+00  0.39359859718E+02  0.39359859801E+02  0.25500000000E-02 0.  1.
          2   -1    0    0  501    0  0.00000000000E+00 -0.00000000000E+00 -0.45052289227E+03  0.45052289227E+03  0.25500000000E-02 0. -1.
         25    2    1    2    0    0  0.48669710950E+02  0.59843316785E+02 -0.23165028410E+03  0.27431898552E+03  0.12505634077E+03 0.  0.
         23    2    1    2    0    0 -0.48669710950E+02 -0.59843316785E+02 -0.17951274845E+03  0.21556376655E+03  0.91065620667E+02 0.  0.
        -13    1    4    4    0    0 -0.68341379963E+02 -0.61701273490E+02 -0.11078422143E+03  0.14405119315E+03  0.10566000000E+00 0.  1.
         13    1    4    4    0    0  0.19671669014E+02  0.18579567056E+01 -0.68728527015E+02  0.71512573402E+02  0.10566000000E+00 0. -1.
    9000005    1    3    3    0    0 -0.37145542651E+02  0.67509940330E+00 -0.31785364029E+02  0.48903542453E+02  0.10000000000E+01 0.  0.
    9000005    1    3    3    0    0  0.85815253600E+02  0.59168217381E+02 -0.19986492007E+03  0.22541544307E+03  0.10000000000E+01 0.  0.
<mgrwt>
<rscale>  0 0.13948819E+03</rscale>
<asrwt>0</asrwt>
<pdfrwt beam="2">  1        2 0.69311211E-01 0.14693213E+03</pdfrwt>
<pdfrwt beam="1">  1       -2 0.60553634E-02 0.14693213E+03</pdfrwt>
<totfact> 0.97667598E+03</totfact>
</mgrwt>
</event>
<event>
 8    3  0.7944584E-004  0.1442720E+03  0.7818608E-02  0.1218911E+00
          2   -1    0    0  501    0  0.00000000000E+00  0.00000000000E+00  0.73423958932E+02  0.73423958977E+02  0.25500000000E-02 0.  1.
         -2   -1    0    0    0  501 -0.00000000000E+00 -0.00000000000E+00 -0.23824580504E+03  0.23824580505E+03  0.25500000000E-02 0. -1.
         25    2    1    2    0    0 -0.55400964153E+02  0.46013034611E+02 -0.57450106161E+02  0.15528983182E+03  0.12501180338E+03 0.  0.
         23    2    1    2    0    0  0.55400964153E+02 -0.46013034611E+02 -0.10737173995E+03  0.15637993221E+03  0.87974578584E+02 0.  0.
        -13    1    4    4    0    0  0.38473167626E+02 -0.27992625507E+02 -0.14398877012E+01  0.47601009974E+02  0.10566000000E+00 0.  1.
         13    1    4    4    0    0  0.16927796527E+02 -0.18020409104E+02 -0.10593185225E+03  0.10877892224E+03  0.10566000000E+00 0. -1.
    9000005    1    3    3    0    0 -0.89615104012E+01  0.62957700564E+02  0.17076643637E+02  0.65852809256E+02  0.10000000000E+01 0.  0.
    9000005    1    3    3    0    0 -0.46439453752E+02 -0.16944665953E+02 -0.74526749798E+02  0.89437022560E+02  0.10000000000E+01 0.  0.
<mgrwt>
<rscale>  0 0.13593134E+03</rscale>
<asrwt>0</asrwt>
<pdfrwt beam="1">  1        2 0.11295994E-01 0.14427202E+03</pdfrwt>
<pdfrwt beam="2">  1       -2 0.36653200E-01 0.14427202E+03</pdfrwt>
<totfact> 0.37224283E+03</totfact>
</mgrwt>
</event>
<event>
 8    3  0.7944584E-004  0.1318109E+03  0.7818608E-02  0.1237835E+00
          2   -1    0    0  501    0  0.00000000000E+00  0.00000000000E+00  0.29421643090E+03  0.29421643091E+03  0.25500000000E-02 0.  1.
         -2   -1    0    0    0  501 -0.00000000000E+00 -0.00000000000E+00 -0.54103049266E+02  0.54103049326E+02  0.25500000000E-02 0. -1.
         25    2    1    2    0    0  0.37832371840E+02 -0.17830626162E+02  0.20074246448E+03  0.24014920684E+03  0.12499953965E+03 0.  0.
         23    2    1    2    0    0 -0.37832371840E+02  0.17830626162E+02  0.39370917152E+02  0.10817027339E+03  0.91659802204E+02 0.  0.
        -13    1    4    4    0    0 -0.24462530901E+02 -0.25960036824E+02  0.49755992579E+02  0.61220984079E+02  0.10566000000E+00 0.  1.
         13    1    4    4    0    0 -0.13369840938E+02  0.43790662986E+02 -0.10385075427E+02  0.46949289314E+02  0.10566000000E+00 0. -1.
    9000005    1    3    3    0    0  0.72827038903E+02  0.21719435590E+02  0.92597455264E+02  0.11979482543E+03  0.10000000000E+01 0.  0.
    9000005    1    3    3    0    0 -0.34994667064E+02 -0.39550061751E+02  0.10814500922E+03  0.12035438142E+03  0.10000000000E+01 0.  0.
<mgrwt>
<rscale>  0 0.12324679E+03</rscale>
<asrwt>0</asrwt>
<pdfrwt beam="1">  1        2 0.45264065E-01 0.13181087E+03</pdfrwt>
<pdfrwt beam="2">  1       -2 0.83235463E-02 0.13181087E+03</pdfrwt>
<totfact> 0.93757625E+03</totfact>
</mgrwt>
</event>
<event>
 8    3  0.7944584E-004  0.1279154E+03  0.7818608E-02  0.1245540E+00
          2   -1    0    0  501    0  0.00000000000E+00  0.00000000000E+00  0.10408030227E+04  0.10408030227E+04  0.25500000000E-02 0. -1.
         -2   -1    0    0    0  501 -0.00000000000E+00 -0.00000000000E+00 -0.12199055293E+02  0.12199055560E+02  0.25500000000E-02 0.  1.
         25    2    1    2    0    0  0.25308911353E+02  0.98295233083E+01  0.67643321940E+03  0.68842155600E+03  0.12500071177E+03 0.  0.
         23    2    1    2    0    0 -0.25308911353E+02 -0.98295233083E+01  0.35217074805E+03  0.36458052230E+03  0.90319216873E+02 0.  0.
        -13    1    4    4    0    0 -0.58947521303E+02 -0.10053055892E+02  0.24825632412E+03  0.25535678536E+03  0.10566000000E+00 0.  1.
         13    1    4    4    0    0  0.33638609950E+02  0.22353258362E+00  0.10391442393E+03  0.10922373694E+03  0.10566000000E+00 0. -1.
    9000005    1    3    3    0    0  0.25297751314E+02  0.17261604238E+02  0.67959337445E+03  0.68028383326E+03  0.10000000000E+01 0.  0.
    9000005    1    3    3    0    0  0.11160038606E-01 -0.74320809300E+01 -0.31601550498E+01  0.81377227426E+01  0.10000000000E+01 0.  0.
<mgrwt>
<rscale>  0 0.11853144E+03</rscale>
<asrwt>0</asrwt>
<pdfrwt beam="1">  1        2 0.16012357E+00 0.12791536E+03</pdfrwt>
<pdfrwt beam="2">  1       -2 0.18767774E-02 0.12791536E+03</pdfrwt>
<totfact> 0.20003213E+04</totfact>
</mgrwt>
</event>
<event>
 8    3  0.7944584E-004  0.1273933E+03  0.7818608E-02  0.1246551E+00
          2   -1    0    0  501    0  0.00000000000E+00  0.00000000000E+00  0.20808218633E+03  0.20808218634E+03  0.25500000000E-02 0. -1.
         -2   -1    0    0    0  501 -0.00000000000E+00 -0.00000000000E+00 -0.59202516927E+02  0.59202516982E+02  0.25500000000E-02 0.  1.
         25    2    1    2    0    0 -0.12226490194E+02 -0.21308542212E+02  0.98476366169E+02  0.16101756040E+03  0.12500207610E+03 0.  0.
         23    2    1    2    0    0  0.12226490194E+02  0.21308542212E+02  0.50403303230E+02  0.10626714293E+03  0.90269993106E+02 0.  0.
        -13    1    4    4    0    0 -0.17257423742E+02  0.29171973800E+02  0.64338949047E+02  0.72720934112E+02  0.10566000000E+00 0. -1.
         13    1    4    4    0    0  0.29483913936E+02 -0.78634315880E+01 -0.13935645818E+02  0.33546208813E+02  0.10566000000E+00 0.  1.
    9000005    1    3    3    0    0 -0.12919846534E+02 -0.73082754878E+02  0.69457194047E+02  0.10165290601E+03  0.10000000000E+01 0.  0.
    9000005    1    3    3    0    0  0.69335633931E+00  0.51774212665E+02  0.29019172122E+02  0.59364654389E+02  0.10000000000E+01 0.  0.
<mgrwt>
<rscale>  0 0.11793012E+03</rscale>
<asrwt>0</asrwt>
<pdfrwt beam="1">  1        2 0.32012643E-01 0.12739333E+03</pdfrwt>
<pdfrwt beam="2">  1       -2 0.91080797E-02 0.12739333E+03</pdfrwt>
<totfact> 0.11757575E+04</totfact>
</mgrwt>
</event>
<event>
 8    3  0.7944584E-004  0.1315008E+03  0.7818608E-02  0.1237037E+00
         -2   -1    0    0    0  501 -0.00000000000E+00  0.00000000000E+00  0.26340398608E+03  0.26340398609E+03  0.25500000000E-02 0.  1.
          2   -1    0    0  501    0  0.00000000000E+00 -0.00000000000E+00 -0.52653221770E+02  0.52653221832E+02  0.25500000000E-02 0. -1.
         25    2    1    2    0    0  0.16479279967E+02 -0.37261388705E+02  0.13173790252E+03  0.18613794129E+03  0.12502991830E+03 0.  0.
         23    2    1    2    0    0 -0.16479279967E+02  0.37261388705E+02  0.79012861789E+02  0.12991926664E+03  0.94741784652E+02 0.  0.
        -13    1    4    4    0    0 -0.52638997876E+02  0.40527723314E+02  0.56405077103E+02  0.87148748364E+02  0.10566000000E+00 0.  1.
         13    1    4    4    0    0  0.36159717908E+02 -0.32663346090E+01  0.22607784686E+02  0.42770518274E+02  0.10566000000E+00 0. -1.
    9000005    1    3    3    0    0  0.16957843292E+02  0.43321977677E+02  0.72375261714E+02  0.86043830151E+02  0.10000000000E+01 0.  0.
    9000005    1    3    3    0    0 -0.47856332440E+00 -0.80583366383E+02  0.59362640807E+02  0.10009411114E+03  0.10000000000E+01 0.  0.
<mgrwt>
<rscale>  0 0.12374951E+03</rscale>
<asrwt>0</asrwt>
<pdfrwt beam="2">  1        2 0.81004957E-02 0.13150079E+03</pdfrwt>
<pdfrwt beam="1">  1       -2 0.40523690E-01 0.13150079E+03</pdfrwt>
<totfact> 0.46162034E+03</totfact>
</mgrwt>
</event>
<event>
 8    3  0.7944584E-004  0.1286925E+03  0.7818608E-02  0.1244286E+00
          2   -1    0    0  501    0  0.00000000000E+00  0.00000000000E+00  0.10370420505E+03  0.10370420508E+03  0.25500000000E-02 0. -1.
         -2   -1    0    0    0  501 -0.00000000000E+00 -0.00000000000E+00 -0.12471557471E+03  0.12471557474E+03  0.25500000000E-02 0.  1.
         25    2    1    2    0    0  0.39190281340E+01 -0.30418828837E+02  0.84585311848E+01  0.12897018236E+03  0.12498438806E+03 0.  0.
         23    2    1    2    0    0 -0.39190281340E+01  0.30418828837E+02 -0.29469900848E+02  0.99449597464E+02  0.89894846629E+02 0.  0.
        -13    1    4    4    0    0 -0.29418590793E+02  0.11275997623E+02  0.22334237764E+02  0.38619049020E+02  0.10566000000E+00 0. -1.
         13    1    4    4    0    0  0.25499562659E+02  0.19142831213E+02 -0.51804138612E+02  0.60830548445E+02  0.10566000000E+00 0.  1.
    9000005    1    3    3    0    0  0.36380824876E+02  0.38060836045E+02  0.73484234302E+01  0.53171336131E+02  0.10000000000E+01 0.  0.
    9000005    1    3    3    0    0 -0.32461796742E+02 -0.68479664882E+02  0.11101077546E+01  0.75798846226E+02  0.10000000000E+01 0.  0.
<mgrwt>
<rscale>  0 0.11928237E+03</rscale>
<asrwt>0</asrwt>
<pdfrwt beam="1">  1        2 0.15954493E-01 0.12869251E+03</pdfrwt>
<pdfrwt beam="2">  1       -2 0.19187011E-01 0.12869251E+03</pdfrwt>
<totfact> 0.76897006E+03</totfact>
</mgrwt>
</event>
<event>
 8    3  0.7944584E-004  0.1487846E+03  0.7818608E-02  0.1214868E+00
         -2   -1    0    0    0  501 -0.00000000000E+00  0.00000000000E+00  0.56656019886E+02  0.56656019943E+02  0.25500000000E-02 0. -1.
          2   -1    0    0  501    0  0.00000000000E+00 -0.00000000000E+00 -0.50203177023E+03  0.50203177024E+03  0.25500000000E-02 0.  1.
         25    2    1    2    0    0 -0.23818476029E+02  0.77105039244E+02 -0.65809508728E+02  0.16268915908E+03  0.12499745664E+03 0.  0.
         23    2    1    2    0    0  0.23818476029E+02 -0.77105039244E+02 -0.37956624162E+03  0.39599863111E+03  0.78942239531E+02 0.  0.
        -13    1    4    4    0    0  0.25353422320E+02  0.43410990270E+00 -0.18195993029E+03  0.18371829487E+03  0.10566000000E+00 0.  1.
         13    1    4    4    0    0 -0.15349462910E+01 -0.77539149146E+02 -0.19760631133E+03  0.21228033623E+03  0.10566000000E+00 0. -1.
    9000005    1    3    3    0    0 -0.41012158858E+02  0.14516378900E+02  0.25665172056E+02  0.50521515093E+02  0.10000000000E+01 0.  0.
    9000005    1    3    3    0    0  0.17193682829E+02  0.62588660344E+02 -0.91474680784E+02  0.11216764399E+03  0.10000000000E+01 0.  0.
<mgrwt>
<rscale>  0 0.13886201E+03</rscale>
<asrwt>0</asrwt>
<pdfrwt beam="2">  1        2 0.77235654E-01 0.14878465E+03</pdfrwt>
<pdfrwt beam="1">  1       -2 0.87163111E-02 0.14878465E+03</pdfrwt>
<totfact> 0.49588390E+03</totfact>
</mgrwt>
</event>
<event>
 8    3  0.7944584E-004  0.1275714E+03  0.7818608E-02  0.1245550E+00
          2   -1    0    0  501    0  0.00000000000E+00  0.00000000000E+00  0.46096422347E+03  0.46096422348E+03  0.25500000000E-02 0. -1.
         -2   -1    0    0    0  501 -0.00000000000E+00 -0.00000000000E+00 -0.29784969941E+02  0.29784970051E+02  0.25500000000E-02 0.  1.
         25    2    1    2    0    0  0.94131930441E+01 -0.23675684425E+02  0.16811954261E+03  0.21104179878E+03  0.12500125594E+03 0.  0.
         23    2    1    2    0    0 -0.94131930441E+01  0.23675684425E+02  0.26305971092E+03  0.27970739475E+03  0.91578758090E+02 0.  0.
        -13    1    4    4    0    0  0.29371828942E+01  0.38573445579E+02  0.39417193288E+02  0.55229195521E+02  0.10566000000E+00 0.  1.
         13    1    4    4    0    0 -0.12350375938E+02 -0.14897761154E+02  0.22364251763E+03  0.22447819923E+03  0.10566000000E+00 0. -1.
    9000005    1    3    3    0    0 -0.31841069649E+02 -0.55975276605E+02  0.49069903880E+02  0.80968764189E+02  0.10000000000E+01 0.  0.
    9000005    1    3    3    0    0  0.41254262693E+02  0.32299592181E+02  0.11904963873E+03  0.13007303459E+03  0.10000000000E+01 0.  0.
<mgrwt>
<rscale>  0 0.11852525E+03</rscale>
<asrwt>0</asrwt>
<pdfrwt beam="1">  1        2 0.70917563E-01 0.12757139E+03</pdfrwt>
<pdfrwt beam="2">  1       -2 0.45823037E-02 0.12757139E+03</pdfrwt>
<totfact> 0.14346046E+04</totfact>
</mgrwt>
</event>
<event>
 8    3  0.7944584E-004  0.1290132E+03  0.7818608E-02  0.1243093E+00
          2   -1    0    0  501    0  0.00000000000E+00  0.00000000000E+00  0.90793806750E+03  0.90793806750E+03  0.25500000000E-02 0. -1.
         -2   -1    0    0    0  501 -0.00000000000E+00 -0.00000000000E+00 -0.17039986368E+02  0.17039986559E+02  0.25500000000E-02 0.  1.
         25    2    1    2    0    0  0.17745344266E+02  0.26567100863E+02  0.30483926901E+03  0.33101568992E+03  0.12499479571E+03 0.  0.
         23    2    1    2    0    0 -0.17745344266E+02 -0.26567100863E+02  0.58605881212E+03  0.59396236414E+03  0.91135342515E+02 0.  0.
        -13    1    4    4    0    0  0.35344976019E+02  0.34231748435E+01  0.20366905468E+03  0.20674157892E+03  0.10566000000E+00 0. -1.
         13    1    4    4    0    0 -0.53090320285E+02 -0.29990275707E+02  0.38238975744E+03  0.38722078522E+03  0.10566000000E+00 0.  1.
    9000005    1    3    3    0    0 -0.34898464346E+02  0.42138842390E+02  0.23948431487E+03  0.24565691913E+03  0.10000000000E+01 0.  0.
    9000005    1    3    3    0    0  0.52643808613E+02 -0.15571741527E+02  0.65354954140E+02  0.85358770786E+02  0.10000000000E+01 0.  0.
<mgrwt>
<rscale>  0 0.12000232E+03</rscale>
<asrwt>0</asrwt>
<pdfrwt beam="1">  1        2 0.13968277E+00 0.12901320E+03</pdfrwt>
<pdfrwt beam="2">  1       -2 0.26215366E-02 0.12901320E+03</pdfrwt>
<totfact> 0.14811365E+04</totfact>
</mgrwt>
</event>
<event>
 8    3  0.7944584E-004  0.1303352E+03  0.7818608E-02  0.1241152E+00
          2   -1    0    0  501    0  0.00000000000E+00  0.00000000000E+00  0.29642079535E+02  0.29642079645E+02  0.25500000000E-02 0.  1.
         -2   -1    0    0    0  501 -0.00000000000E+00 -0.00000000000E+00 -0.44223294555E+03  0.44223294556E+03  0.25500000000E-02 0. -1.
         25    2    1    2    0    0  0.11215098962E+02 -0.35139691013E+02 -0.21157791460E+03  0.24850048105E+03  0.12500679503E+03 0.  0.
         23    2    1    2    0    0 -0.11215098962E+02  0.35139691013E+02 -0.20101295142E+03  0.22337454416E+03  0.90163207640E+02 0.  0.
        -13    1    4    4    0    0 -0.22878702618E+02  0.36758051811E+02 -0.31720421514E+02  0.53672951395E+02  0.10566000000E+00 0.  1.
         13    1    4    4    0    0  0.11663603656E+02 -0.16183607977E+01 -0.16929252990E+03  0.16970159276E+03  0.10566000000E+00 0. -1.
    9000005    1    3    3    0    0  0.19567159362E+02 -0.26075689540E+02 -0.22666135661E+03  0.22899603903E+03  0.10000000000E+01 0.  0.
    9000005    1    3    3    0    0 -0.83520604000E+01 -0.90640014732E+01  0.15083442008E+02  0.19504442018E+02  0.10000000000E+01 0.  0.
<mgrwt>
<rscale>  0 0.12118659E+03</rscale>
<asrwt>0</asrwt>
<pdfrwt beam="1">  1        2 0.45603202E-02 0.13033524E+03</pdfrwt>
<pdfrwt beam="2">  1       -2 0.68035833E-01 0.13033524E+03</pdfrwt>
<totfact> 0.34257036E+03</totfact>
</mgrwt>
</event>
<event>
 8    3  0.7944584E-004  0.1651923E+03  0.7818608E-02  0.1189792E+00
          2   -1    0    0  501    0  0.00000000000E+00  0.00000000000E+00  0.91559370050E+03  0.91559370051E+03  0.25500000000E-02 0.  1.
         -2   -1    0    0    0  501 -0.00000000000E+00 -0.00000000000E+00 -0.25828744737E+02  0.25828744863E+02  0.25500000000E-02 0. -1.
         25    2    1    2    0    0 -0.35139239929E+00  0.10799305061E+03  0.50440487920E+03  0.53076622067E+03  0.12500350549E+03 0.  0.
         23    2    1    2    0    0  0.35139239929E+00 -0.10799305061E+03  0.38536007656E+03  0.41065622470E+03  0.92051745344E+02 0.  0.
        -13    1    4    4    0    0 -0.31864052910E+02 -0.43177056183E+02  0.26360418452E+03  0.26901069367E+03  0.10566000000E+00 0.  1.
         13    1    4    4    0    0  0.32215445309E+02 -0.64815994423E+02  0.12175589204E+03  0.14164553103E+03  0.10566000000E+00 0. -1.
    9000005    1    3    3    0    0  0.17093350272E+01  0.80919797947E+02  0.49565675966E+03  0.50222261889E+03  0.10000000000E+01 0.  0.
    9000005    1    3    3    0    0 -0.20607274265E+01  0.27073252658E+02  0.87481195406E+01  0.28543601779E+02  0.10000000000E+01 0.  0.
<mgrwt>
<rscale>  0 0.15903379E+03</rscale>
<asrwt>0</asrwt>
<pdfrwt beam="1">  1        2 0.14086057E+00 0.16519231E+03</pdfrwt>
<pdfrwt beam="2">  1       -2 0.39736529E-02 0.16519231E+03</pdfrwt>
<totfact> 0.80410108E+03</totfact>
</mgrwt>
</event>
<event>
 8    3  0.7944584E-004  0.1395857E+03  0.7818608E-02  0.1225194E+00
          2   -1    0    0  501    0  0.00000000000E+00  0.00000000000E+00  0.16793554344E+03  0.16793554345E+03  0.25500000000E-02 0. -1.
         -2   -1    0    0    0  501 -0.00000000000E+00 -0.00000000000E+00 -0.10877174635E+03  0.10877174638E+03  0.25500000000E-02 0.  1.
         25    2    1    2    0    0  0.44599133103E+02  0.43292923779E+02  0.85291376298E+02  0.16358109172E+03  0.12498317797E+03 0.  0.
         23    2    1    2    0    0 -0.44599133103E+02 -0.43292923779E+02 -0.26127579213E+02  0.11312619811E+03  0.90837912684E+02 0.  0.
        -13    1    4    4    0    0 -0.42087348240E+02 -0.65886946160E+02 -0.38604652675E+02  0.87193835381E+02  0.10566000000E+00 0.  1.
         13    1    4    4    0    0 -0.25117848629E+01  0.22594022381E+02  0.12477073462E+02  0.25932362730E+02  0.10566000000E+00 0. -1.
    9000005    1    3    3    0    0 -0.30535822682E+02 -0.66471560227E+01 -0.95370990896E+01  0.32689102299E+02  0.10000000000E+01 0.  0.
    9000005    1    3    3    0    0  0.75134955784E+02  0.49940079802E+02  0.94828475388E+02  0.13089198943E+03  0.10000000000E+01 0.  0.
<mgrwt>
<rscale>  0 0.13153627E+03</rscale>
<asrwt>0</asrwt>
<pdfrwt beam="1">  1        2 0.25836237E-01 0.13958565E+03</pdfrwt>
<pdfrwt beam="2">  1       -2 0.16734115E-01 0.13958565E+03</pdfrwt>
<totfact> 0.56378142E+03</totfact>
</mgrwt>
</event>
<event>
 8    3  0.7944584E-004  0.1862759E+03  0.7818608E-02  0.1166331E+00
         -2   -1    0    0    0  501 -0.00000000000E+00  0.00000000000E+00  0.17803857112E+02  0.17803857294E+02  0.25500000000E-02 0.  1.
          2   -1    0    0  501    0  0.00000000000E+00 -0.00000000000E+00 -0.18372609877E+04  0.18372609877E+04  0.25500000000E-02 0. -1.
         25    2    1    2    0    0  0.13793968735E+03 -0.68640331963E+01 -0.76780137153E+03  0.79007445453E+03  0.12499690110E+03 0.  0.
         23    2    1    2    0    0 -0.13793968735E+03  0.68640331963E+01 -0.10516557590E+04  0.10649903904E+04  0.95656802772E+02 0.  0.
        -13    1    4    4    0    0 -0.14547280026E+03  0.10262386548E+02 -0.79902565474E+03  0.81222512907E+03  0.10566000000E+00 0.  1.
         13    1    4    4    0    0  0.75331129074E+01 -0.33983533514E+01 -0.25263010428E+03  0.25276526136E+03  0.10566000000E+00 0. -1.
    9000005    1    3    3    0    0 -0.20573322241E+02 -0.12171777705E+02 -0.16636980318E+03  0.16808130524E+03  0.10000000000E+01 0.  0.
    9000005    1    3    3    0    0  0.15851300959E+03  0.53077445087E+01 -0.60143156835E+03  0.62199314929E+03  0.10000000000E+01 0.  0.
<mgrwt>
<rscale>  0 0.18152904E+03</rscale>
<asrwt>0</asrwt>
<pdfrwt beam="2">  1        2 0.28265539E+00 0.18627586E+03</pdfrwt>
<pdfrwt beam="1">  1       -2 0.27390564E-02 0.18627586E+03</pdfrwt>
<totfact> 0.43755302E+03</totfact>
</mgrwt>
</event>
<event>
 8    3  0.7944584E-004  0.2609434E+03  0.7818608E-02  0.1108891E+00
         -2   -1    0    0    0  501 -0.00000000000E+00  0.00000000000E+00  0.23571178894E+02  0.23571179032E+02  0.25500000000E-02 0.  1.
          2   -1    0    0  501    0  0.00000000000E+00 -0.00000000000E+00 -0.28405736768E+04  0.28405736768E+04  0.25500000000E-02 0. -1.
         25    2    1    2    0    0  0.22905337568E+03 -0.42937811301E+00 -0.17370089230E+04  0.17564997809E+04  0.12500339358E+03 0.  0.
         23    2    1    2    0    0 -0.22905337568E+03  0.42937811301E+00 -0.10799935749E+04  0.11076450750E+04  0.89587147158E+02 0.  0.
        -13    1    4    4    0    0 -0.80451923350E+02 -0.57999032600E+01 -0.59256719317E+03  0.59803180553E+03  0.10566000000E+00 0. -1.
         13    1    4    4    0    0 -0.14860145233E+03  0.62292813730E+01 -0.48742638177E+03  0.50961326944E+03  0.10566000000E+00 0.  1.
    9000005    1    3    3    0    0  0.11764389199E+03 -0.52707988899E+02 -0.11153825174E+04  0.11228078097E+04  0.10000000000E+01 0.  0.
    9000005    1    3    3    0    0  0.11140948369E+03  0.52278610786E+02 -0.62162640558E+03  0.63369197116E+03  0.10000000000E+01 0.  0.
<mgrwt>
<rscale>  0 0.25711155E+03</rscale>
<asrwt>0</asrwt>
<pdfrwt beam="2">  1        2 0.43701106E+00 0.26094345E+03</pdfrwt>
<pdfrwt beam="1">  1       -2 0.36263375E-02 0.26094345E+03</pdfrwt>
<totfact> 0.82433728E+02</totfact>
</mgrwt>
</event>
<event>
 8    3  0.7944584E-004  0.1267381E+03  0.7818608E-02  0.1247097E+00
         -2   -1    0    0    0  501 -0.00000000000E+00  0.00000000000E+00  0.43236185922E+02  0.43236185997E+02  0.25500000000E-02 0.  1.
          2   -1    0    0  501    0  0.00000000000E+00 -0.00000000000E+00 -0.31186050912E+03  0.31186050913E+03  0.25500000000E-02 0. -1.
         25    2    1    2    0    0  0.20827239753E+02 -0.21568960198E+01 -0.20700114215E+03  0.24271799305E+03  0.12499650068E+03 0.  0.
         23    2    1    2    0    0 -0.20827239753E+02  0.21568960198E+01 -0.61623181044E+02  0.11237870208E+03  0.91614027977E+02 0.  0.
        -13    1    4    4    0    0 -0.11667653633E+02 -0.12420257507E+02 -0.83113521425E+02  0.84842592755E+02  0.10566000000E+00 0. -1.
         13    1    4    4    0    0 -0.91595861204E+01  0.14577153527E+02  0.21490340380E+02  0.27536109321E+02  0.10566000000E+00 0.  1.
    9000005    1    3    3    0    0  0.56324385164E+02 -0.12416377168E+02 -0.19576097063E+03  0.20408321932E+03  0.10000000000E+01 0.  0.
    9000005    1    3    3    0    0 -0.35497145410E+02  0.10259481148E+02 -0.11240171529E+02  0.38634773737E+02  0.10000000000E+01 0.  0.
<mgrwt>
<rscale>  0 0.11760752E+03</rscale>
<asrwt>0</asrwt>
<pdfrwt beam="2">  1        2 0.47978538E-01 0.12673812E+03</pdfrwt>
<pdfrwt beam="1">  1       -2 0.66517211E-02 0.12673812E+03</pdfrwt>
<totfact> 0.12398531E+04</totfact>
</mgrwt>
</event>
<event>
 8    3  0.7944584E-004  0.1573812E+03  0.7818608E-02  0.1199647E+00
         -2   -1    0    0    0  501 -0.00000000000E+00  0.00000000000E+00  0.33407421659E+02  0.33407421756E+02  0.25500000000E-02 0.  1.
          2   -1    0    0  501    0  0.00000000000E+00 -0.00000000000E+00 -0.63509483240E+03  0.63509483240E+03  0.25500000000E-02 0. -1.
         25    2    1    2    0    0 -0.80801408645E+02 -0.51136295181E+02 -0.29056376819E+03  0.33044839263E+03  0.12500019394E+03 0.  0.
         23    2    1    2    0    0  0.80801408645E+02  0.51136295181E+02 -0.31112364255E+03  0.33805386153E+03  0.91316504615E+02 0.  0.
        -13    1    4    4    0    0  0.43714947767E+02  0.16236379046E+02 -0.26586380263E+03  0.26992256182E+03  0.10566000000E+00 0. -1.
         13    1    4    4    0    0  0.37086460878E+02  0.34899916135E+02 -0.45259839915E+02  0.68131299708E+02  0.10566000000E+00 0.  1.
    9000005    1    3    3    0    0 -0.53434401383E+01 -0.56167415586E+00 -0.20682525572E+03  0.20689744859E+03  0.10000000000E+01 0.  0.
    9000005    1    3    3    0    0 -0.75457968507E+02 -0.50574621025E+02 -0.83738512473E+02  0.12355094404E+03  0.10000000000E+01 0.  0.
<mgrwt>
<rscale>  0 0.15067459E+03</rscale>
<asrwt>0</asrwt>
<pdfrwt beam="2">  1        2 0.97706889E-01 0.15738118E+03</pdfrwt>
<pdfrwt beam="1">  1       -2 0.51396038E-02 0.15738118E+03</pdfrwt>
<totfact> 0.85654527E+03</totfact>
</mgrwt>
</event>
<event>
 8    3  0.7944584E-004  0.1291830E+03  0.7818608E-02  0.1231349E+00
         -2   -1    0    0    0  501 -0.00000000000E+00  0.00000000000E+00  0.22858191412E+02  0.22858191554E+02  0.25500000000E-02 0.  1.
          2   -1    0    0  501    0  0.00000000000E+00 -0.00000000000E+00 -0.76088471240E+03  0.76088471241E+03  0.25500000000E-02 0. -1.
         25    2    1    2    0    0 -0.25707734379E+02 -0.20061605215E+02 -0.49668370127E+03  0.51320849215E+03  0.12499960680E+03 0.  0.
         23    2    1    2    0    0  0.25707734379E+02  0.20061605215E+02 -0.24134281972E+03  0.27053441181E+03  0.11780982867E+03 0.  0.
        -13    1    4    4    0    0 -0.10412919147E+02  0.60971999621E+02 -0.86382565459E+02  0.10624487000E+03  0.10566000000E+00 0. -1.
         13    1    4    4    0    0  0.36120653526E+02 -0.40910394406E+02 -0.15496025426E+03  0.16428954180E+03  0.10566000000E+00 0.  1.
    9000005    1    3    3    0    0 -0.34988314949E+02 -0.36727156161E+02 -0.71914455466E+02  0.88009971523E+02  0.10000000000E+01 0.  0.
    9000005    1    3    3    0    0  0.92805805698E+01  0.16665550946E+02 -0.42476924580E+03  0.42519852063E+03  0.10000000000E+01 0.  0.
<mgrwt>
<rscale>  0 0.12741104E+03</rscale>
<asrwt>0</asrwt>
<pdfrwt beam="2">  1        2 0.11705917E+00 0.12918304E+03</pdfrwt>
<pdfrwt beam="1">  1       -2 0.35166454E-02 0.12918304E+03</pdfrwt>
<totfact> 0.12024330E+04</totfact>
</mgrwt>
</event>
<event>
 8    3  0.7944584E-004  0.1290963E+03  0.7818608E-02  0.1242637E+00
          2   -1    0    0  501    0  0.00000000000E+00  0.00000000000E+00  0.23987516646E+04  0.23987516646E+04  0.25500000000E-02 0. -1.
         -2   -1    0    0    0  501 -0.00000000000E+00 -0.00000000000E+00 -0.53414350056E+01  0.53414356143E+01  0.25500000000E-02 0.  1.
         25    2    1    2    0    0  0.31620014565E+02  0.62976788627E+01  0.13533645634E+04  0.13595078134E+04  0.12500546874E+03 0.  0.
         23    2    1    2    0    0 -0.31620014565E+02 -0.62976788627E+01  0.10400456663E+04  0.10445852869E+04  0.91782065408E+02 0.  0.
        -13    1    4    4    0    0 -0.19173719218E+02  0.20151895220E+02  0.92573014368E+02  0.96661804984E+02  0.10566000000E+00 0.  1.
         13    1    4    4    0    0 -0.12446295348E+02 -0.26449574083E+02  0.94747265191E+03  0.94792348189E+03  0.10566000000E+00 0. -1.
    9000005    1    3    3    0    0  0.77568422697E+01 -0.36240750646E+02  0.11413855145E+04  0.11419875014E+04  0.10000000000E+01 0.  0.
    9000005    1    3    3    0    0  0.23863172296E+02  0.42538429509E+02  0.21197904888E+03  0.21752031202E+03  0.10000000000E+01 0.  0.
<mgrwt>
<rscale>  0 0.12027945E+03</rscale>
<asrwt>0</asrwt>
<pdfrwt beam="1">  1        2 0.36904008E+00 0.12909629E+03</pdfrwt>
<pdfrwt beam="2">  1       -2 0.82175625E-03 0.12909629E+03</pdfrwt>
<totfact> 0.12691499E+04</totfact>
</mgrwt>
</event>
<event>
 8    3  0.7944584E-004  0.1429842E+03  0.7818608E-02  0.1219113E+00
          2   -1    0    0  501    0  0.00000000000E+00  0.00000000000E+00  0.17943603229E+04  0.17943603229E+04  0.25500000000E-02 0. -1.
         -2   -1    0    0    0  501 -0.00000000000E+00 -0.00000000000E+00 -0.10410164776E+02  0.10410165089E+02  0.25500000000E-02 0.  1.
         25    2    1    2    0    0  0.48826063007E+02  0.49352449214E+02  0.12589592508E+04  0.12670528255E+04  0.12499927447E+03 0.  0.
         23    2    1    2    0    0 -0.48826063007E+02 -0.49352449214E+02  0.52499090730E+03  0.53771766253E+03  0.93301571104E+02 0.  0.
        -13    1    4    4    0    0 -0.61047016652E+02 -0.64885076168E+02  0.48494222748E+03  0.49305758945E+03  0.10566000000E+00 0. -1.
         13    1    4    4    0    0  0.12220953645E+02  0.15532626954E+02  0.40048679820E+02  0.44660073079E+02  0.10566000000E+00 0.  1.
    9000005    1    3    3    0    0 -0.13018603635E+02 -0.22482526872E+02  0.76446511200E+02  0.80746623025E+02  0.10000000000E+01 0.  0.
    9000005    1    3    3    0    0  0.61844666642E+02  0.71834976086E+02  0.11825127396E+04  0.11863062025E+04  0.10000000000E+01 0.  0.
<mgrwt>
<rscale>  0 0.13578675E+03</rscale>
<asrwt>0</asrwt>
<pdfrwt beam="1">  1        2 0.27605521E+00 0.14298415E+03</pdfrwt>
<pdfrwt beam="2">  1       -2 0.16015651E-02 0.14298415E+03</pdfrwt>
<totfact> 0.10024282E+04</totfact>
</mgrwt>
</event>
<event>
 8    3  0.7944584E-004  0.1580834E+03  0.7818608E-02  0.1199168E+00
         -2   -1    0    0    0  501 -0.00000000000E+00  0.00000000000E+00  0.15332252042E+02  0.15332252254E+02  0.25500000000E-02 0. -1.
          2   -1    0    0  501    0  0.00000000000E+00 -0.00000000000E+00 -0.13758774562E+04  0.13758774562E+04  0.25500000000E-02 0.  1.
         25    2    1    2    0    0 -0.96733765868E+02 -0.26446252853E+01 -0.78493936871E+03  0.80069979414E+03  0.12500372908E+03 0.  0.
         23    2    1    2    0    0  0.96733765868E+02  0.26446252853E+01 -0.57560583547E+03  0.59050991434E+03  0.89529132705E+02 0.  0.
        -13    1    4    4    0    0  0.29068072280E+02 -0.23830355531E+02 -0.37982809675E+03  0.38168341975E+03  0.10566000000E+00 0.  1.
         13    1    4    4    0    0  0.67665693588E+02  0.26474980816E+02 -0.19577773873E+03  0.20882649459E+03  0.10566000000E+00 0. -1.
    9000005    1    3    3    0    0 -0.31773645212E+02 -0.51978861881E+02 -0.17444706280E+03  0.18478134195E+03  0.10000000000E+01 0.  0.
    9000005    1    3    3    0    0 -0.64960120656E+02  0.49334236596E+02 -0.61049230590E+03  0.61591845219E+03  0.10000000000E+01 0.  0.
<mgrwt>
<rscale>  0 0.15106730E+03</rscale>
<asrwt>0</asrwt>
<pdfrwt beam="2">  1        2 0.21167336E+00 0.15808336E+03</pdfrwt>
<pdfrwt beam="1">  1       -2 0.23588091E-02 0.15808336E+03</pdfrwt>
<totfact> 0.94567788E+03</totfact>
</mgrwt>
</event>
<event>
 8    3  0.7944584E-004  0.1346442E+03  0.7818608E-02  0.1232970E+00
          2   -1    0    0  501    0  0.00000000000E+00  0.00000000000E+00  0.39695580794E+03  0.39695580795E+03  0.25500000000E-02 0. -1.
         -2   -1    0    0    0  501 -0.00000000000E+00 -0.00000000000E+00 -0.64352557892E+02  0.64352557942E+02  0.25500000000E-02 0.  1.
         25    2    1    2    0    0  0.20824714375E+02  0.45501208010E+02  0.33049430489E+03  0.35686910126E+03  0.12500016485E+03 0.  0.
         23    2    1    2    0    0 -0.20824714375E+02 -0.45501208010E+02  0.21089451565E+01  0.10443926463E+03  0.91646514865E+02 0.  0.
        -13    1    4    4    0    0 -0.30365609549E+02 -0.37202859617E+01  0.37826991686E+02  0.48649802003E+02  0.10566000000E+00 0. -1.
         13    1    4    4    0    0  0.95408951737E+01 -0.41780922048E+02 -0.35718046530E+02  0.55789462624E+02  0.10566000000E+00 0.  1.
    9000005    1    3    3    0    0 -0.23810365832E+02  0.76571562102E+02  0.19183416480E+03  0.20792182287E+03  0.10000000000E+01 0.  0.
    9000005    1    3    3    0    0  0.44635080207E+02 -0.31070354092E+02  0.13866014009E+03  0.14894727839E+03  0.10000000000E+01 0.  0.
<mgrwt>
<rscale>  0 0.12635273E+03</rscale>
<asrwt>0</asrwt>
<pdfrwt beam="1">  1        2 0.61070125E-01 0.13464423E+03</pdfrwt>
<pdfrwt beam="2">  1       -2 0.99003934E-02 0.13464423E+03</pdfrwt>
<totfact> 0.52132809E+03</totfact>
</mgrwt>
</event>
<event>
 8    3  0.7944584E-004  0.1364221E+03  0.7818608E-02  0.1230010E+00
         -2   -1    0    0    0  501 -0.00000000000E+00  0.00000000000E+00  0.14898055038E+02  0.14898055256E+02  0.25500000000E-02 0.  1.
          2   -1    0    0  501    0  0.00000000000E+00 -0.00000000000E+00 -0.12253348369E+04  0.12253348369E+04  0.25500000000E-02 0. -1.
         25    2    1    2    0    0 -0.50207043357E+02  0.21606369095E+02 -0.93414699913E+03  0.94405593649E+03  0.12499365125E+03 0.  0.
         23    2    1    2    0    0  0.50207043357E+02 -0.21606369095E+02 -0.27628978273E+03  0.29617695566E+03  0.91636033514E+02 0.  0.
        -13    1    4    4    0    0  0.13384493158E+02 -0.31106131304E+02 -0.25168063394E+02  0.42192163263E+02  0.10566000000E+00 0.  1.
         13    1    4    4    0    0  0.36822550199E+02  0.94997622091E+01 -0.25112171933E+03  0.25398479240E+03  0.10566000000E+00 0. -1.
    9000005    1    3    3    0    0  0.21014163846E+02 -0.34670197571E+02 -0.18276371838E+03  0.18720895929E+03  0.10000000000E+01 0.  0.
    9000005    1    3    3    0    0 -0.71221207203E+02  0.56276566666E+02 -0.75138328075E+03  0.75684697720E+03  0.10000000000E+01 0.  0.
<mgrwt>
<rscale>  0 0.12829331E+03</rscale>
<asrwt>0</asrwt>
<pdfrwt beam="2">  1        2 0.18851297E+00 0.13642212E+03</pdfrwt>
<pdfrwt beam="1">  1       -2 0.22920094E-02 0.13642212E+03</pdfrwt>
<totfact> 0.11815295E+04</totfact>
</mgrwt>
</event>
<event>
 8    3  0.7944584E-004  0.1724407E+03  0.7818608E-02  0.1180956E+00
         -2   -1    0    0    0  501 -0.00000000000E+00  0.00000000000E+00  0.77678413165E+02  0.77678413207E+02  0.25500000000E-02 0.  1.
          2   -1    0    0  501    0  0.00000000000E+00 -0.00000000000E+00 -0.49087435020E+03  0.49087435021E+03  0.25500000000E-02 0. -1.
         25    2    1    2    0    0  0.68329699143E+02  0.97171166190E+02 -0.57478388431E+02  0.18176787627E+03  0.12499844952E+03 0.  0.
         23    2    1    2    0    0 -0.68329699143E+02 -0.97171166190E+02 -0.35571754861E+03  0.38678488715E+03  0.94638212247E+02 0.  0.
        -13    1    4    4    0    0 -0.56950613202E+01 -0.87821524849E+02 -0.22281002309E+03  0.23956078874E+03  0.10566000000E+00 0. -1.
         13    1    4    4    0    0 -0.62634637823E+02 -0.93496413404E+01 -0.13290752552E+03  0.14722409841E+03  0.10566000000E+00 0.  1.
    9000005    1    3    3    0    0 -0.73836610045E+01 -0.23403606289E+01  0.28804316640E+02  0.29844336059E+02  0.10000000000E+01 0.  0.
    9000005    1    3    3    0    0  0.75713360148E+02  0.99511526819E+02 -0.86282705071E+02  0.15192354021E+03  0.10000000000E+01 0.  0.
<mgrwt>
<rscale>  0 0.16705331E+03</rscale>
<asrwt>0</asrwt>
<pdfrwt beam="2">  1        2 0.75519129E-01 0.17244070E+03</pdfrwt>
<pdfrwt beam="1">  1       -2 0.11950525E-01 0.17244070E+03</pdfrwt>
<totfact> 0.31063046E+03</totfact>
</mgrwt>
</event>
<event>
 8    3  0.7944584E-004  0.1442008E+03  0.7818608E-02  0.1218050E+00
          2   -1    0    0  501    0  0.00000000000E+00  0.00000000000E+00  0.12592575391E+04  0.12592575391E+04  0.25500000000E-02 0.  1.
         -2   -1    0    0    0  501 -0.00000000000E+00 -0.00000000000E+00 -0.13502314931E+02  0.13502315172E+02  0.25500000000E-02 0. -1.
         25    2    1    2    0    0 -0.17397580654E+02  0.69750831864E+02  0.73474722663E+03  0.74876388154E+03  0.12500403553E+03 0.  0.
         23    2    1    2    0    0  0.17397580654E+02 -0.69750831864E+02  0.51100799752E+03  0.52399597272E+03  0.90965661294E+02 0.  0.
        -13    1    4    4    0    0 -0.22314798622E+01 -0.23490032582E+02  0.21521470382E+02  0.31936593189E+02  0.10566000000E+00 0. -1.
         13    1    4    4    0    0  0.19629060516E+02 -0.46260799282E+02  0.48948652714E+03  0.49205937953E+03  0.10566000000E+00 0.  1.
    9000005    1    3    3    0    0  0.17569682256E+02  0.13539642020E+02  0.58029384086E+03  0.58071848376E+03  0.10000000000E+01 0.  0.
    9000005    1    3    3    0    0 -0.34967262910E+02  0.56211189844E+02  0.15445338577E+03  0.16804539778E+03  0.10000000000E+01 0.  0.
<mgrwt>
<rscale>  0 0.13654825E+03</rscale>
<asrwt>0</asrwt>
<pdfrwt beam="1">  1        2 0.19373199E+00 0.14420077E+03</pdfrwt>
<pdfrwt beam="2">  1       -2 0.20772786E-02 0.14420077E+03</pdfrwt>
<totfact> 0.13103232E+04</totfact>
</mgrwt>
</event>
<event>
 8    3  0.7944584E-004  0.1474754E+03  0.7818608E-02  0.1213145E+00
          2   -1    0    0  501    0  0.00000000000E+00  0.00000000000E+00  0.21774246110E+04  0.21774246110E+04  0.25500000000E-02 0.  1.
         -2   -1    0    0    0  501 -0.00000000000E+00 -0.00000000000E+00 -0.83858650098E+01  0.83858653975E+01  0.25500000000E-02 0. -1.
         25    2    1    2    0    0 -0.38060650224E+02 -0.68379829776E+02  0.13415563972E+04  0.13496379365E+04  0.12499831522E+03 0.  0.
         23    2    1    2    0    0  0.38060650224E+02  0.68379829776E+02  0.82748234885E+03  0.83617253986E+03  0.91285620725E+02 0.  0.
        -13    1    4    4    0    0  0.12774109302E+02  0.16477090553E+02  0.29608377115E+02  0.36212422468E+02  0.10566000000E+00 0. -1.
         13    1    4    4    0    0  0.25286540921E+02  0.51902739222E+02  0.79787397173E+03  0.79996011739E+03  0.10566000000E+00 0.  1.
    9000005    1    3    3    0    0 -0.13884586209E+02 -0.99969117129E+02  0.75248686007E+03  0.75922597472E+03  0.10000000000E+01 0.  0.
    9000005    1    3    3    0    0 -0.24176064015E+02  0.31589287353E+02  0.58906953709E+03  0.59041196183E+03  0.10000000000E+01 0.  0.
<mgrwt>
<rscale>  0 0.14013650E+03</rscale>
<asrwt>0</asrwt>
<pdfrwt beam="1">  1        2 0.33498821E+00 0.14747540E+03</pdfrwt>
<pdfrwt beam="2">  1       -2 0.12901338E-02 0.14747540E+03</pdfrwt>
<totfact> 0.87119107E+03</totfact>
</mgrwt>
</event>
<event>
 8    3  0.7944584E-004  0.1278376E+03  0.7818608E-02  0.1244744E+00
          2   -1    0    0  501    0  0.00000000000E+00  0.00000000000E+00  0.25990840321E+03  0.25990840322E+03  0.25500000000E-02 0. -1.
         -2   -1    0    0    0  501 -0.00000000000E+00 -0.00000000000E+00 -0.48627917907E+02  0.48627917974E+02  0.25500000000E-02 0.  1.
         25    2    1    2    0    0 -0.54004240519E+01 -0.26243001108E+02  0.13488875472E+03  0.18584245772E+03  0.12499833300E+03 0.  0.
         23    2    1    2    0    0  0.54004240519E+01  0.26243001108E+02  0.76391730579E+02  0.12269386348E+03  0.92196680785E+02 0.  0.
        -13    1    4    4    0    0  0.40172041457E+02  0.21519386591E+02  0.86268654609E+01  0.46382225969E+02  0.10566000000E+00 0.  1.
         13    1    4    4    0    0 -0.34771617405E+02  0.47236145163E+01  0.67764865118E+02  0.76311637511E+02  0.10566000000E+00 0. -1.
    9000005    1    3    3    0    0 -0.38051783472E+02 -0.57443821528E+02  0.37422215636E+02  0.78416535758E+02  0.10000000000E+01 0.  0.
    9000005    1    3    3    0    0  0.32651359421E+02  0.31200820421E+02  0.97466539088E+02  0.10742592196E+03  0.10000000000E+01 0.  0.
<mgrwt>
<rscale>  0 0.11900740E+03</rscale>
<asrwt>0</asrwt>
<pdfrwt beam="1">  1        2 0.39985908E-01 0.12783756E+03</pdfrwt>
<pdfrwt beam="2">  1       -2 0.74812183E-02 0.12783756E+03</pdfrwt>
<totfact> 0.12571054E+04</totfact>
</mgrwt>
</event>
<event>
 8    3  0.7944584E-004  0.1603253E+03  0.7818608E-02  0.1195768E+00
         -2   -1    0    0    0  501 -0.00000000000E+00  0.00000000000E+00  0.29110759997E+03  0.29110759999E+03  0.25500000000E-02 0. -1.
          2   -1    0    0  501    0  0.00000000000E+00 -0.00000000000E+00 -0.83181414453E+02  0.83181414492E+02  0.25500000000E-02 0.  1.
         25    2    1    2    0    0 -0.28547729744E+02  0.96247191231E+02  0.54837469264E+02  0.16944422341E+03  0.12500280844E+03 0.  0.
         23    2    1    2    0    0  0.28547729744E+02 -0.96247191231E+02  0.15308871626E+03  0.20484479107E+03  0.91906140652E+02 0.  0.
        -13    1    4    4    0    0 -0.73695514494E+01 -0.38675634218E+02  0.12560908082E+03  0.13163497757E+03  0.10566000000E+00 0. -1.
         13    1    4    4    0    0  0.35917281194E+02 -0.57571557013E+02  0.27479635439E+02  0.73209813503E+02  0.10566000000E+00 0.  1.
    9000005    1    3    3    0    0  0.13702711057E+02  0.22841820891E+02  0.77339505249E+02  0.81804108357E+02  0.10000000000E+01 0.  0.
    9000005    1    3    3    0    0 -0.42250440802E+02  0.73405370340E+02 -0.22502035985E+02  0.87640115051E+02  0.10000000000E+01 0.  0.
<mgrwt>
<rscale>  0 0.15389410E+03</rscale>
<asrwt>0</asrwt>
<pdfrwt beam="2">  1        2 0.12797141E-01 0.16032528E+03</pdfrwt>
<pdfrwt beam="1">  1       -2 0.44785785E-01 0.16032528E+03</pdfrwt>
<totfact> 0.22004833E+03</totfact>
</mgrwt>
</event>
<event>
 8    3  0.7944584E-004  0.1293933E+03  0.7818608E-02  0.1242691E+00
          2   -1    0    0  501    0  0.00000000000E+00  0.00000000000E+00  0.19413598586E+02  0.19413598753E+02  0.25500000000E-02 0. -1.
         -2   -1    0    0    0  501 -0.00000000000E+00 -0.00000000000E+00 -0.65994082103E+03  0.65994082104E+03  0.25500000000E-02 0.  1.
         25    2    1    2    0    0  0.20950175024E+02  0.26029701574E+02 -0.38854424811E+03  0.40952320848E+03  0.12500468129E+03 0.  0.
         23    2    1    2    0    0 -0.20950175024E+02 -0.26029701574E+02 -0.25198297433E+03  0.26983121131E+03  0.90537329570E+02 0.  0.
        -13    1    4    4    0    0  0.11255933935E+02 -0.53184340399E+02 -0.13941052650E+03  0.14963480937E+03  0.10566000000E+00 0.  1.
         13    1    4    4    0    0 -0.32206108958E+02  0.27154638825E+02 -0.11257244784E+03  0.12019640194E+03  0.10566000000E+00 0. -1.
    9000005    1    3    3    0    0  0.64579965262E+02  0.36597805627E+02 -0.31263279736E+03  0.32132574948E+03  0.10000000000E+01 0.  0.
    9000005    1    3    3    0    0 -0.43629790239E+02 -0.10568104053E+02 -0.75911450750E+02  0.88197459003E+02  0.10000000000E+01 0.  0.
<mgrwt>
<rscale>  0 0.12024658E+03</rscale>
<asrwt>0</asrwt>
<pdfrwt beam="1">  1        2 0.29867080E-02 0.12939330E+03</pdfrwt>
<pdfrwt beam="2">  1       -2 0.10152934E+00 0.12939330E+03</pdfrwt>
<totfact> 0.24843070E+03</totfact>
</mgrwt>
</event>
<event>
 8    3  0.7944584E-004  0.1619816E+03  0.7818608E-02  0.1193139E+00
          2   -1    0    0  501    0  0.00000000000E+00  0.00000000000E+00  0.29712700092E+04  0.29712700092E+04  0.25500000000E-02 0. -1.
         -2   -1    0    0    0  501 -0.00000000000E+00 -0.00000000000E+00 -0.80268841911E+01  0.80268845961E+01  0.25500000000E-02 0.  1.
         25    2    1    2    0    0  0.55519547364E+02 -0.86745101272E+02  0.12692389467E+04  0.12795333338E+04  0.12502366043E+03 0.  0.
         23    2    1    2    0    0 -0.55519547364E+02  0.86745101272E+02  0.16940041783E+04  0.16997635600E+04  0.94545603514E+02 0.  0.
        -13    1    4    4    0    0 -0.28694149367E+02  0.72411935502E+02  0.15753136290E+04  0.15772380554E+04  0.10566000000E+00 0. -1.
         13    1    4    4    0    0 -0.26825397996E+02  0.14333165770E+02  0.11869054928E+03  0.12252550457E+03  0.10566000000E+00 0.  1.
    9000005    1    3    3    0    0 -0.11837555607E+02  0.27125766883E+02  0.24632880937E+03  0.24810243303E+03  0.10000000000E+01 0.  0.
    9000005    1    3    3    0    0  0.67357102970E+02 -0.11387086815E+03  0.10229101374E+04  0.10314309008E+04  0.10000000000E+01 0.  0.
<mgrwt>
<rscale>  0 0.15612828E+03</rscale>
<asrwt>0</asrwt>
<pdfrwt beam="1">  1        2 0.45711946E+00 0.16198163E+03</pdfrwt>
<pdfrwt beam="2">  1       -2 0.12349026E-02 0.16198163E+03</pdfrwt>
<totfact> 0.34320755E+03</totfact>
</mgrwt>
</event>
<event>
 8    3  0.7944584E-004  0.1264985E+03  0.7818608E-02  0.1250299E+00
         -2   -1    0    0    0  501 -0.00000000000E+00  0.00000000000E+00  0.22833239364E+02  0.22833239507E+02  0.25500000000E-02 0. -1.
          2   -1    0    0  501    0  0.00000000000E+00 -0.00000000000E+00 -0.50686136689E+03  0.50686136690E+03  0.25500000000E-02 0.  1.
         25    2    1    2    0    0 -0.19331316055E+02 -0.16354979133E+01 -0.28798093185E+03  0.31453917868E+03  0.12500201271E+03 0.  0.
         23    2    1    2    0    0  0.19331316055E+02  0.16354979133E+01 -0.19604719567E+03  0.21515542772E+03  0.86492661611E+02 0.  0.
        -13    1    4    4    0    0  0.46568965490E+02 -0.10862984197E+02 -0.16587113768E+03  0.17262652882E+03  0.10566000000E+00 0.  1.
         13    1    4    4    0    0 -0.27237649435E+02  0.12498482110E+02 -0.30176057990E+02  0.42528898900E+02  0.10566000000E+00 0. -1.
    9000005    1    3    3    0    0 -0.27040924036E+01  0.57173924843E+02 -0.19530385626E+03  0.20352092293E+03  0.10000000000E+01 0.  0.
    9000005    1    3    3    0    0 -0.16627223652E+02 -0.58809422757E+02 -0.92677075593E+02  0.11101825576E+03  0.10000000000E+01 0.  0.
<mgrwt>
<rscale>  0 0.11573738E+03</rscale>
<asrwt>0</asrwt>
<pdfrwt beam="2">  1        2 0.77978663E-01 0.12649853E+03</pdfrwt>
<pdfrwt beam="1">  1       -2 0.35128064E-02 0.12649853E+03</pdfrwt>
<totfact> 0.19176912E+04</totfact>
</mgrwt>
</event>
<event>
 8    3  0.7944584E-004  0.1470438E+03  0.7818608E-02  0.1213434E+00
         -2   -1    0    0    0  501 -0.00000000000E+00  0.00000000000E+00  0.45190510293E+02  0.45190510364E+02  0.25500000000E-02 0.  1.
          2   -1    0    0  501    0  0.00000000000E+00 -0.00000000000E+00 -0.39751915560E+03  0.39751915560E+03  0.25500000000E-02 0. -1.
         25    2    1    2    0    0  0.74853078200E+02  0.19918871293E+02 -0.20640049540E+03  0.25342265581E+03  0.12498853238E+03 0.  0.
         23    2    1    2    0    0 -0.74853078200E+02 -0.19918871293E+02 -0.14592814990E+03  0.18928701016E+03  0.92383994995E+02 0.  0.
        -13    1    4    4    0    0 -0.46549706236E+02  0.21103711643E+02 -0.21871428012E+02  0.55593275880E+02  0.10566000000E+00 0.  1.
         13    1    4    4    0    0 -0.28303371964E+02 -0.41022582935E+02 -0.12405672189E+03  0.13369373428E+03  0.10566000000E+00 0. -1.
    9000005    1    3    3    0    0  0.61488107543E+02  0.51394473522E+02 -0.52601872528E+02  0.95865198436E+02  0.10000000000E+01 0.  0.
    9000005    1    3    3    0    0  0.13364970658E+02 -0.31475602229E+02 -0.15379862288E+03  0.15755745738E+03  0.10000000000E+01 0.  0.
<mgrwt>
<rscale>  0 0.13992175E+03</rscale>
<asrwt>0</asrwt>
<pdfrwt beam="2">  1        2 0.61156791E-01 0.14704380E+03</pdfrwt>
<pdfrwt beam="1">  1       -2 0.69523865E-02 0.14704380E+03</pdfrwt>
<totfact> 0.90526329E+03</totfact>
</mgrwt>
</event>
<event>
 8    3  0.7944584E-004  0.1337670E+03  0.7818608E-02  0.1236828E+00
         -2   -1    0    0    0  501 -0.00000000000E+00  0.00000000000E+00  0.75679603118E+02  0.75679603161E+02  0.25500000000E-02 0. -1.
          2   -1    0    0  501    0  0.00000000000E+00 -0.00000000000E+00 -0.18461704773E+03  0.18461704775E+03  0.25500000000E-02 0.  1.
         25    2    1    2    0    0  0.45792867764E+02 -0.13113056761E+02 -0.38205583873E+02  0.13911609409E+03  0.12499872800E+03 0.  0.
         23    2    1    2    0    0 -0.45792867764E+02  0.13113056761E+02 -0.70731860741E+02  0.12118055682E+03  0.86097573900E+02 0.  0.
        -13    1    4    4    0    0 -0.65508336003E+01  0.53796737046E+01 -0.79733753381E+02  0.80183145999E+02  0.10566000000E+00 0.  1.
         13    1    4    4    0    0 -0.39242034164E+02  0.77333830566E+01  0.90018926400E+01  0.40997410820E+02  0.10566000000E+00 0. -1.
    9000005    1    3    3    0    0  0.83487447320E+02  0.85612581498E+01 -0.44778263986E+02  0.95129080342E+02  0.10000000000E+01 0.  0.
    9000005    1    3    3    0    0 -0.37694579556E+02 -0.21674314911E+02  0.65726801131E+01  0.43987013750E+02  0.10000000000E+01 0.  0.
<mgrwt>
<rscale>  0 0.12388136E+03</rscale>
<asrwt>0</asrwt>
<pdfrwt beam="2">  1        2 0.28402622E-01 0.13376704E+03</pdfrwt>
<pdfrwt beam="1">  1       -2 0.11643016E-01 0.13376704E+03</pdfrwt>
<totfact> 0.91282721E+03</totfact>
</mgrwt>
</event>
<event>
 8    3  0.7944584E-004  0.1264793E+03  0.7818608E-02  0.1247443E+00
         -2   -1    0    0    0  501 -0.00000000000E+00  0.00000000000E+00  0.56717823948E+02  0.56717824006E+02  0.25500000000E-02 0.  1.
          2   -1    0    0  501    0  0.00000000000E+00 -0.00000000000E+00 -0.22654449404E+03  0.22654449406E+03  0.25500000000E-02 0. -1.
         25    2    1    2    0    0  0.60224393420E+01  0.18238934496E+02 -0.12965852143E+03  0.18113071030E+03  0.12501229349E+03 0.  0.
         23    2    1    2    0    0 -0.60224393420E+01 -0.18238934496E+02 -0.40168148659E+02  0.10213160777E+03  0.91915486350E+02 0.  0.
        -13    1    4    4    0    0 -0.43066446447E+02  0.45278604730E+01 -0.54885617387E+00  0.43307421272E+02  0.10566000000E+00 0.  1.
         13    1    4    4    0    0  0.37044007105E+02 -0.22766794969E+02 -0.39619292485E+02  0.58824186494E+02  0.10566000000E+00 0. -1.
    9000005    1    3    3    0    0 -0.41077823206E+02  0.24820920348E+02 -0.12431665538E+03  0.13326325995E+03  0.10000000000E+01 0.  0.
    9000005    1    3    3    0    0  0.47100262548E+02 -0.65819858526E+01 -0.53418660496E+01  0.47867450347E+02  0.10000000000E+01 0.  0.
<mgrwt>
<rscale>  0 0.11740375E+03</rscale>
<asrwt>0</asrwt>
<pdfrwt beam="2">  1        2 0.34852999E-01 0.12647926E+03</pdfrwt>
<pdfrwt beam="1">  1       -2 0.87258192E-02 0.12647926E+03</pdfrwt>
<totfact> 0.11466088E+04</totfact>
</mgrwt>
</event>
<event>
 8    3  0.7944584E-004  0.1347860E+03  0.7818608E-02  0.1233445E+00
         -2   -1    0    0    0  501 -0.00000000000E+00  0.00000000000E+00  0.97884816364E+02  0.97884816397E+02  0.25500000000E-02 0.  1.
          2   -1    0    0  501    0  0.00000000000E+00 -0.00000000000E+00 -0.95528644558E+03  0.95528644559E+03  0.25500000000E-02 0. -1.
         25    2    1    2    0    0  0.14534591716E+02 -0.48253440602E+02  0.47127667078E+02  0.14278755541E+03  0.12501047992E+03 0.  0.
         23    2    1    2    0    0 -0.14534591716E+02  0.48253440602E+02 -0.90452929630E+03  0.91038370657E+03  0.89919944671E+02 0.  0.
        -13    1    4    4    0    0  0.27583004924E+02  0.17827468694E+01 -0.11137482820E+03  0.11475349174E+03  0.10566000000E+00 0.  1.
         13    1    4    4    0    0 -0.42117596640E+02  0.46470693732E+02 -0.79315446810E+03  0.79563021483E+03  0.10566000000E+00 0. -1.
    9000005    1    3    3    0    0  0.17288221145E+02  0.13097507529E+02 -0.34420429376E+02  0.40696354287E+02  0.10000000000E+01 0.  0.
    9000005    1    3    3    0    0 -0.27536294288E+01 -0.61350948131E+02  0.81548096453E+02  0.10209120112E+03  0.10000000000E+01 0.  0.
<mgrwt>
<rscale>  0 0.12604511E+03</rscale>
<asrwt>0</asrwt>
<pdfrwt beam="2">  1        2 0.14696714E+00 0.13478601E+03</pdfrwt>
<pdfrwt beam="1">  1       -2 0.15059203E-01 0.13478601E+03</pdfrwt>
<totfact> 0.95804251E+02</totfact>
</mgrwt>
</event>
<event>
 8    3  0.7944584E-004  0.1924469E+03  0.7818608E-02  0.1161286E+00
         -2   -1    0    0    0  501 -0.00000000000E+00  0.00000000000E+00  0.41006032788E+02  0.41006032867E+02  0.25500000000E-02 0.  1.
          2   -1    0    0  501    0  0.00000000000E+00 -0.00000000000E+00 -0.10023519030E+04  0.10023519030E+04  0.25500000000E-02 0. -1.
         25    2    1    2    0    0  0.11445281615E+03  0.91164101509E+02 -0.73368228961E+03  0.75850215376E+03  0.12500189855E+03 0.  0.
         23    2    1    2    0    0 -0.11445281615E+03 -0.91164101509E+02 -0.22766358065E+03  0.28485578216E+03  0.88891901460E+02 0.  0.
        -13    1    4    4    0    0 -0.36827894022E+02 -0.83131436563E+02 -0.99364341794E+02  0.13468635086E+03  0.10566000000E+00 0.  1.
         13    1    4    4    0    0 -0.77624922132E+02 -0.80326649460E+01 -0.12829923886E+03  0.15016943130E+03  0.10566000000E+00 0. -1.
    9000005    1    3    3    0    0  0.40286072186E+02 -0.95073444343E+01 -0.57508619023E+02  0.70863237805E+02  0.10000000000E+01 0.  0.
    9000005    1    3    3    0    0  0.74166743968E+02  0.10067144594E+03 -0.67617367058E+03  0.68763891595E+03  0.10000000000E+01 0.  0.
<mgrwt>
<rscale>  0 0.18690207E+03</rscale>
<asrwt>0</asrwt>
<pdfrwt beam="2">  1        2 0.15420797E+00 0.19244692E+03</pdfrwt>
<pdfrwt beam="1">  1       -2 0.63086212E-02 0.19244692E+03</pdfrwt>
<totfact> 0.35524004E+03</totfact>
</mgrwt>
</event>
<event>
 8    3  0.7944584E-004  0.1302848E+03  0.7818608E-02  0.1240922E+00
          2   -1    0    0  501    0  0.00000000000E+00  0.00000000000E+00  0.28318549929E+03  0.28318549930E+03  0.25500000000E-02 0. -1.
         -2   -1    0    0    0  501 -0.00000000000E+00 -0.00000000000E+00 -0.46501347990E+02  0.46501348060E+02  0.25500000000E-02 0.  1.
         25    2    1    2    0    0 -0.65184705448E+01  0.36148927274E+02  0.15183375617E+03  0.20006900352E+03  0.12499952501E+03 0.  0.
         23    2    1    2    0    0  0.65184705448E+01 -0.36148927274E+02  0.84850395124E+02  0.12961784384E+03  0.90840302115E+02 0.  0.
        -13    1    4    4    0    0 -0.18529316082E+02 -0.52426451255E+02  0.82716992538E+02  0.99669355191E+02  0.10566000000E+00 0. -1.
         13    1    4    4    0    0  0.25047786627E+02  0.16277523981E+02  0.21334025860E+01  0.29948488651E+02  0.10566000000E+00 0.  1.
    9000005    1    3    3    0    0  0.76833874261E+01 -0.34984543836E+02  0.11139249140E+03  0.11701384487E+03  0.10000000000E+01 0.  0.
    9000005    1    3    3    0    0 -0.14201857971E+02  0.71133471110E+02  0.40441264770E+02  0.83055158649E+02  0.10000000000E+01 0.  0.
<mgrwt>
<rscale>  0 0.12132795E+03</rscale>
<asrwt>0</asrwt>
<pdfrwt beam="1">  1        2 0.43567001E-01 0.13028475E+03</pdfrwt>
<pdfrwt beam="2">  1       -2 0.71540534E-02 0.13028475E+03</pdfrwt>
<totfact> 0.12313398E+04</totfact>
</mgrwt>
</event>
<event>
 8    3  0.7944584E-004  0.1774875E+03  0.7818608E-02  0.1177334E+00
          2   -1    0    0  501    0  0.00000000000E+00  0.00000000000E+00  0.86410827961E+03  0.86410827961E+03  0.25500000000E-02 0. -1.
         -2   -1    0    0    0  501 -0.00000000000E+00 -0.00000000000E+00 -0.33506030078E+02  0.33506030175E+02  0.25500000000E-02 0.  1.
         25    2    1    2    0    0 -0.11658584850E+03 -0.47897338348E+02  0.56268304596E+03  0.59001187527E+03  0.12496154471E+03 0.  0.
         23    2    1    2    0    0  0.11658584850E+03  0.47897338348E+02  0.26791920357E+03  0.30760243452E+03  0.83379511794E+02 0.  0.
        -13    1    4    4    0    0  0.10222579708E+03  0.23220121761E+02  0.13121473666E+03  0.16794822394E+03  0.10566000000E+00 0.  1.
         13    1    4    4    0    0  0.14360051425E+02  0.24677216587E+02  0.13670446691E+03  0.13965421058E+03  0.10566000000E+00 0. -1.
    9000005    1    3    3    0    0 -0.48224982932E+02 -0.86183800333E+02  0.29483353568E+03  0.31093586184E+03  0.10000000000E+01 0.  0.
    9000005    1    3    3    0    0 -0.68360865570E+02  0.38286461986E+02  0.26784951028E+03  0.27907601343E+03  0.10000000000E+01 0.  0.
<mgrwt>
<rscale>  0 0.17049410E+03</rscale>
<asrwt>0</asrwt>
<pdfrwt beam="1">  1        2 0.13293973E+00 0.17748747E+03</pdfrwt>
<pdfrwt beam="2">  1       -2 0.51547740E-02 0.17748747E+03</pdfrwt>
<totfact> 0.58855586E+03</totfact>
</mgrwt>
</event>
<event>
 8    3  0.7944584E-004  0.1602150E+03  0.7818608E-02  0.1196068E+00
          2   -1    0    0  501    0  0.00000000000E+00  0.00000000000E+00  0.74230992903E+03  0.74230992904E+03  0.25500000000E-02 0. -1.
         -2   -1    0    0    0  501 -0.00000000000E+00 -0.00000000000E+00 -0.37227717454E+02  0.37227717541E+02  0.25500000000E-02 0.  1.
         25    2    1    2    0    0  0.70502256158E+02  0.71235812273E+02  0.19819423612E+03  0.25485252750E+03  0.12499498577E+03 0.  0.
         23    2    1    2    0    0 -0.70502256158E+02 -0.71235812273E+02  0.50688797546E+03  0.52468511908E+03  0.91180839232E+02 0.  0.
        -13    1    4    4    0    0 -0.55487058951E+02 -0.60097078632E+02  0.18525246815E+03  0.20250669296E+03  0.10566000000E+00 0.  1.
         13    1    4    4    0    0 -0.15015197207E+02 -0.11138733640E+02  0.32163550730E+03  0.32217842612E+03  0.10566000000E+00 0. -1.
    9000005    1    3    3    0    0  0.43759290016E+02  0.30549047577E+01  0.17129353894E+03  0.17682387958E+03  0.10000000000E+01 0.  0.
    9000005    1    3    3    0    0  0.26742966142E+02  0.68180907515E+02  0.26900697174E+02  0.78028647919E+02  0.10000000000E+01 0.  0.
<mgrwt>
<rscale>  0 0.15364157E+03</rscale>
<asrwt>0</asrwt>
<pdfrwt beam="1">  1        2 0.11420152E+00 0.16021503E+03</pdfrwt>
<pdfrwt beam="2">  1       -2 0.57273414E-02 0.16021503E+03</pdfrwt>
<totfact> 0.60459474E+03</totfact>
</mgrwt>
</event>
<event>
 8    3  0.7944584E-004  0.1791928E+03  0.7818608E-02  0.1172750E+00
         -2   -1    0    0    0  501 -0.00000000000E+00  0.00000000000E+00  0.15220728590E+03  0.15220728593E+03  0.25500000000E-02 0.  1.
          2   -1    0    0  501    0  0.00000000000E+00 -0.00000000000E+00 -0.20302400251E+03  0.20302400252E+03  0.25500000000E-02 0. -1.
         25    2    1    2    0    0 -0.11724633977E+03  0.52325576727E+02  0.14310388358E+02  0.17976334717E+03  0.12500161439E+03 0.  0.
         23    2    1    2    0    0  0.11724633977E+03 -0.52325576727E+02 -0.65127104960E+02  0.17546794128E+03  0.10031345099E+03 0.  0.
        -13    1    4    4    0    0  0.24321890237E+02  0.10160578893E+02  0.21400669266E+02  0.33952783645E+02  0.10566000000E+00 0.  1.
         13    1    4    4    0    0  0.92924449531E+02 -0.62486155620E+02 -0.86527774226E+02  0.14151515764E+03  0.10566000000E+00 0. -1.
    9000005    1    3    3    0    0 -0.96200957307E+01  0.55600522049E+02 -0.29298322510E+02  0.63587388654E+02  0.10000000000E+01 0.  0.
    9000005    1    3    3    0    0 -0.10762624404E+03 -0.32749453216E+01  0.43608710868E+02  0.11617595851E+03  0.10000000000E+01 0.  0.
<mgrwt>
<rscale>  0 0.17498199E+03</rscale>
<asrwt>0</asrwt>
<pdfrwt beam="2">  1        2 0.31234462E-01 0.17919284E+03</pdfrwt>
<pdfrwt beam="1">  1       -2 0.23416506E-01 0.17919284E+03</pdfrwt>
<totfact> 0.26250819E+03</totfact>
</mgrwt>
</event>
<event>
 8    3  0.7944584E-004  0.2972268E+03  0.7818608E-02  0.1088200E+00
          2   -1    0    0  501    0  0.00000000000E+00  0.00000000000E+00  0.85363938379E+03  0.85363938379E+03  0.25500000000E-02 0. -1.
         -2   -1    0    0    0  501 -0.00000000000E+00 -0.00000000000E+00 -0.14786428123E+03  0.14786428125E+03  0.25500000000E-02 0.  1.
         25    2    1    2    0    0 -0.24829095296E+03  0.10521860697E+03  0.64468723202E+03  0.70990521339E+03  0.12499772914E+03 0.  0.
         23    2    1    2    0    0  0.24829095296E+03 -0.10521860697E+03  0.61087870541E+02  0.29159845165E+03  0.92620605168E+02 0.  0.
        -13    1    4    4    0    0  0.15838727740E+03 -0.11096672503E+03  0.26950354994E+02  0.19526002280E+03  0.10566000000E+00 0.  1.
         13    1    4    4    0    0  0.89903675565E+02  0.57481180625E+01  0.34137515547E+02  0.96338428849E+02  0.10566000000E+00 0. -1.
    9000005    1    3    3    0    0 -0.13472524076E+03  0.33478215656E+02  0.18691296606E+03  0.23282855989E+03  0.10000000000E+01 0.  0.
    9000005    1    3    3    0    0 -0.11356571221E+03  0.71740391314E+02  0.45777426597E+03  0.47707665350E+03  0.10000000000E+01 0.  0.
<mgrwt>
<rscale>  0 0.29415480E+03</rscale>
<asrwt>0</asrwt>
<pdfrwt beam="1">  1        2 0.13132914E+00 0.29722682E+03</pdfrwt>
<pdfrwt beam="2">  1       -2 0.22748351E-01 0.29722682E+03</pdfrwt>
<totfact> 0.54941012E+02</totfact>
</mgrwt>
</event>
<event>
 8    3  0.7944584E-004  0.1342371E+03  0.7818608E-02  0.1234110E+00
         -2   -1    0    0    0  501 -0.00000000000E+00  0.00000000000E+00  0.32906599894E+02  0.32906599992E+02  0.25500000000E-02 0.  1.
          2   -1    0    0  501    0  0.00000000000E+00 -0.00000000000E+00 -0.47220527509E+03  0.47220527510E+03  0.25500000000E-02 0. -1.
         25    2    1    2    0    0 -0.19187482986E+02 -0.45014891438E+02 -0.32310711873E+03  0.34988255578E+03  0.12500037085E+03 0.  0.
         23    2    1    2    0    0  0.19187482986E+02  0.45014891438E+02 -0.11619155647E+03  0.15522931931E+03  0.90560277298E+02 0.  0.
        -13    1    4    4    0    0  0.18822727259E+02  0.72611799798E+02 -0.79310230839E+02  0.10916451993E+03  0.10566000000E+00 0.  1.
         13    1    4    4    0    0  0.36475572633E+00 -0.27596908361E+02 -0.36881325632E+02  0.46064799383E+02  0.10566000000E+00 0. -1.
    9000005    1    3    3    0    0 -0.43600725140E+02  0.31544191073E+02 -0.13426772392E+03  0.14465434978E+03  0.10000000000E+01 0.  0.
    9000005    1    3    3    0    0  0.24413242154E+02 -0.76559082511E+02 -0.18883939481E+03  0.20522820600E+03  0.10000000000E+01 0.  0.
<mgrwt>
<rscale>  0 0.12561612E+03</rscale>
<asrwt>0</asrwt>
<pdfrwt beam="2">  1        2 0.72646961E-01 0.13423708E+03</pdfrwt>
<pdfrwt beam="1">  1       -2 0.50625542E-02 0.13423708E+03</pdfrwt>
<totfact> 0.12086313E+04</totfact>
</mgrwt>
</event>
<event>
 8    3  0.7944584E-004  0.1359317E+03  0.7818608E-02  0.1230503E+00
         -2   -1    0    0    0  501 -0.00000000000E+00  0.00000000000E+00  0.54347467679E+01  0.54347473661E+01  0.25500000000E-02 0.  1.
          2   -1    0    0  501    0  0.00000000000E+00 -0.00000000000E+00 -0.29009476624E+04  0.29009476624E+04  0.25500000000E-02 0. -1.
         25    2    1    2    0    0  0.52439733957E+02 -0.10118889036E+02 -0.19809879716E+04  0.19856461847E+04  0.12500043738E+03 0.  0.
         23    2    1    2    0    0 -0.52439733957E+02  0.10118889036E+02 -0.91452494399E+03  0.92073622508E+03  0.92450015621E+02 0.  0.
        -13    1    4    4    0    0 -0.79055751680E+02  0.12074716745E+02 -0.70309544019E+03  0.70762901286E+03  0.10566000000E+00 0.  1.
         13    1    4    4    0    0  0.26616017723E+02 -0.19558277092E+01 -0.21142950379E+03  0.21310721222E+03  0.10566000000E+00 0. -1.
    9000005    1    3    3    0    0  0.23572115400E+02 -0.15293618315E+02 -0.18864291120E+04  0.18866386337E+04  0.10000000000E+01 0.  0.
    9000005    1    3    3    0    0  0.28867618556E+02  0.51747292786E+01 -0.94558859603E+02  0.99007550993E+02  0.10000000000E+01 0.  0.
<mgrwt>
<rscale>  0 0.12796772E+03</rscale>
<asrwt>0</asrwt>
<pdfrwt beam="2">  1        2 0.44629840E+00 0.13593170E+03</pdfrwt>
<pdfrwt beam="1">  1       -2 0.83611725E-03 0.13593170E+03</pdfrwt>
<totfact> 0.65963834E+03</totfact>
</mgrwt>
</event>
<event>
 8    3  0.7944584E-004  0.1355647E+03  0.7818608E-02  0.1229131E+00
         -2   -1    0    0    0  501 -0.00000000000E+00  0.00000000000E+00  0.11982918277E+02  0.11982918549E+02  0.25500000000E-02 0.  1.
          2   -1    0    0  501    0  0.00000000000E+00 -0.00000000000E+00 -0.12957835132E+04  0.12957835132E+04  0.25500000000E-02 0. -1.
         25    2    1    2    0    0 -0.23687194813E+02  0.46826576808E+02 -0.60576897222E+03  0.62075263324E+03  0.12499588985E+03 0.  0.
         23    2    1    2    0    0  0.23687194813E+02 -0.46826576808E+02 -0.67803162270E+03  0.68701379850E+03  0.97505212484E+02 0.  0.
        -13    1    4    4    0    0  0.17342723304E+02 -0.57517289087E+02 -0.66889044540E+03  0.67158279289E+03  0.10566000000E+00 0. -1.
         13    1    4    4    0    0  0.63444715097E+01  0.10690712279E+02 -0.91411772975E+01  0.15431005612E+02  0.10566000000E+00 0.  1.
    9000005    1    3    3    0    0  0.11478936047E+02 -0.75483961771E+01 -0.47129234716E+03  0.47149360627E+03  0.10000000000E+01 0.  0.
    9000005    1    3    3    0    0 -0.35166130860E+02  0.54374972985E+02 -0.13447662506E+03  0.14925902698E+03  0.10000000000E+01 0.  0.
<mgrwt>
<rscale>  0 0.12887718E+03</rscale>
<asrwt>0</asrwt>
<pdfrwt beam="2">  1        2 0.19935120E+00 0.13556469E+03</pdfrwt>
<pdfrwt beam="1">  1       -2 0.18435269E-02 0.13556469E+03</pdfrwt>
<totfact> 0.14837031E+04</totfact>
</mgrwt>
</event>
<event>
 8    3  0.7944584E-004  0.1438030E+03  0.7818608E-02  0.1218800E+00
          2   -1    0    0  501    0  0.00000000000E+00  0.00000000000E+00  0.16856202748E+03  0.16856202750E+03  0.25500000000E-02 0. -1.
         -2   -1    0    0    0  501 -0.00000000000E+00 -0.00000000000E+00 -0.10265307131E+03  0.10265307135E+03  0.25500000000E-02 0.  1.
         25    2    1    2    0    0  0.35471446616E+02 -0.61667557698E+02  0.12488328636E+02  0.14434425988E+03  0.12497278028E+03 0.  0.
         23    2    1    2    0    0 -0.35471446616E+02  0.61667557698E+02  0.53420627529E+02  0.12687083896E+03  0.90450733197E+02 0.  0.
        -13    1    4    4    0    0  0.17715838342E+02  0.31310833087E+00 -0.12991772763E+02  0.21971488083E+02  0.10566000000E+00 0.  1.
         13    1    4    4    0    0 -0.53187284958E+02  0.61354449368E+02  0.66412400292E+02  0.10489935088E+03  0.10566000000E+00 0. -1.
    9000005    1    3    3    0    0 -0.31689657441E+02 -0.37996619845E+02 -0.33326754943E+02  0.59662803348E+02  0.10000000000E+01 0.  0.
    9000005    1    3    3    0    0  0.67161104057E+02 -0.23670937854E+02  0.45815083579E+02  0.84681456532E+02  0.10000000000E+01 0.  0.
<mgrwt>
<rscale>  0 0.13601037E+03</rscale>
<asrwt>0</asrwt>
<pdfrwt beam="1">  1        2 0.25932619E-01 0.14380301E+03</pdfrwt>
<pdfrwt beam="2">  1       -2 0.15792780E-01 0.14380301E+03</pdfrwt>
<totfact> 0.61896044E+03</totfact>
</mgrwt>
</event>
<event>
 8    3  0.7944584E-004  0.1571373E+03  0.7818608E-02  0.1198588E+00
          2   -1    0    0  501    0  0.00000000000E+00  0.00000000000E+00  0.37095590842E+04  0.37095590842E+04  0.25500000000E-02 0. -1.
         -2   -1    0    0    0  501 -0.00000000000E+00 -0.00000000000E+00 -0.58054541516E+01  0.58054547116E+01  0.25500000000E-02 0.  1.
         25    2    1    2    0    0 -0.80449998661E+02  0.50942956231E+02  0.18850747298E+04  0.18916127728E+04  0.12499903365E+03 0.  0.
         23    2    1    2    0    0  0.80449998661E+02 -0.50942956231E+02  0.18186789002E+04  0.18237517661E+04  0.97006056127E+02 0.  0.
        -13    1    4    4    0    0  0.48212521243E+02 -0.58079175167E+02  0.16579046026E+04  0.16596220414E+04  0.10566000000E+00 0. -1.
         13    1    4    4    0    0  0.32237477419E+02  0.71362189359E+01  0.16077429767E+03  0.16412972469E+03  0.10566000000E+00 0.  1.
    9000005    1    3    3    0    0 -0.92504011546E+02 -0.11417322820E+02  0.11866812225E+04  0.11903363690E+04  0.10000000000E+01 0.  0.
    9000005    1    3    3    0    0  0.12054012885E+02  0.62360279051E+02  0.69839350725E+03  0.70127640385E+03  0.10000000000E+01 0.  0.
<mgrwt>
<rscale>  0 0.15154449E+03</rscale>
<asrwt>0</asrwt>
<pdfrwt beam="1">  1        2 0.57070018E+00 0.15713735E+03</pdfrwt>
<pdfrwt beam="2">  1       -2 0.89314875E-03 0.15713735E+03</pdfrwt>
<totfact> 0.18803295E+03</totfact>
</mgrwt>
</event>
<event>
 8    3  0.7944584E-004  0.1420872E+03  0.7818608E-02  0.1219870E+00
          2   -1    0    0  501    0  0.00000000000E+00  0.00000000000E+00  0.77310375498E+03  0.77310375499E+03  0.25500000000E-02 0. -1.
         -2   -1    0    0    0  501 -0.00000000000E+00 -0.00000000000E+00 -0.22871134746E+02  0.22871134889E+02  0.25500000000E-02 0.  1.
         25    2    1    2    0    0 -0.53707346727E+02  0.40987855339E+02  0.31837361807E+03  0.34864097508E+03  0.12499714174E+03 0.  0.
         23    2    1    2    0    0  0.53707346727E+02 -0.40987855339E+02  0.43185900216E+03  0.44733391479E+03  0.95083911349E+02 0.  0.
        -13    1    4    4    0    0  0.81835382322E+01 -0.44340044049E+02  0.74578040815E+02  0.87148752946E+02  0.10566000000E+00 0.  1.
         13    1    4    4    0    0  0.45523808494E+02  0.33521887097E+01  0.35728096135E+03  0.36018516185E+03  0.10566000000E+00 0. -1.
    9000005    1    3    3    0    0 -0.14182735484E+02  0.29678236560E+02  0.58508423051E+01  0.33424243698E+02  0.10000000000E+01 0.  0.
    9000005    1    3    3    0    0 -0.39524611243E+02  0.11309618780E+02  0.31252277577E+03  0.31521673139E+03  0.10000000000E+01 0.  0.
<mgrwt>
<rscale>  0 0.13524781E+03</rscale>
<asrwt>0</asrwt>
<pdfrwt beam="1">  1        2 0.11893904E+00 0.14208719E+03</pdfrwt>
<pdfrwt beam="2">  1       -2 0.35186360E-02 0.14208719E+03</pdfrwt>
<totfact> 0.11856180E+04</totfact>
</mgrwt>
</event>
<event>
 8    3  0.7944584E-004  0.2340947E+03  0.7818608E-02  0.1125440E+00
          2   -1    0    0  501    0  0.00000000000E+00  0.00000000000E+00  0.96360107030E+03  0.96360107030E+03  0.25500000000E-02 0. -1.
         -2   -1    0    0    0  501 -0.00000000000E+00 -0.00000000000E+00 -0.59742221646E+02  0.59742221700E+02  0.25500000000E-02 0.  1.
         25    2    1    2    0    0  0.19577491990E+03 -0.29082338380E+02  0.61025723807E+03  0.65361627710E+03  0.12500695744E+03 0.  0.
         23    2    1    2    0    0 -0.19577491990E+03  0.29082338380E+02  0.29360161059E+03  0.36972701491E+03  0.10640750979E+03 0.  0.
        -13    1    4    4    0    0 -0.91773145658E+02  0.25102947281E+01  0.52377954730E+02  0.10569802812E+03  0.10566000000E+00 0. -1.
         13    1    4    4    0    0 -0.10400177425E+03  0.26572043652E+02  0.24122365586E+03  0.26402898678E+03  0.10566000000E+00 0.  1.
    9000005    1    3    3    0    0  0.18900142879E+03 -0.46281415026E+02  0.42490885675E+03  0.46734574568E+03  0.10000000000E+01 0.  0.
    9000005    1    3    3    0    0  0.67734911174E+01  0.17199076645E+02  0.18534838132E+03  0.18627053142E+03  0.10000000000E+01 0.  0.
<mgrwt>
<rscale>  0 0.23171333E+03</rscale>
<asrwt>0</asrwt>
<pdfrwt beam="1">  1        2 0.14824631E+00 0.23409473E+03</pdfrwt>
<pdfrwt beam="2">  1       -2 0.91911114E-02 0.23409473E+03</pdfrwt>
<totfact> 0.20958071E+03</totfact>
</mgrwt>
</event>
<event>
 8    3  0.7944584E-004  0.1773187E+03  0.7818608E-02  0.1176178E+00
         -2   -1    0    0    0  501 -0.00000000000E+00  0.00000000000E+00  0.17129399121E+03  0.17129399123E+03  0.25500000000E-02 0.  1.
          2   -1    0    0  501    0  0.00000000000E+00 -0.00000000000E+00 -0.21904433765E+03  0.21904433767E+03  0.25500000000E-02 0. -1.
         25    2    1    2    0    0  0.10692109086E+03  0.66215977902E+02 -0.12470378687E+03  0.21677856079E+03  0.12500093823E+03 0.  0.
         23    2    1    2    0    0 -0.10692109086E+03 -0.66215977902E+02  0.76953440434E+02  0.17355976811E+03  0.91566837403E+02 0.  0.
        -13    1    4    4    0    0 -0.18365132392E+02 -0.57096999374E+02  0.56100833851E+02  0.82125879893E+02  0.10566000000E+00 0. -1.
         13    1    4    4    0    0 -0.88555958466E+02 -0.91189785279E+01  0.20852606583E+02  0.91433888217E+02  0.10566000000E+00 0.  1.
    9000005    1    3    3    0    0 -0.37462266631E+00  0.11167451827E+02  0.23301633416E+02  0.25861524361E+02  0.10000000000E+01 0.  0.
    9000005    1    3    3    0    0  0.10729571352E+03  0.55048526075E+02 -0.14800542029E+03  0.19091703643E+03  0.10000000000E+01 0.  0.
<mgrwt>
<rscale>  0 0.17161110E+03</rscale>
<asrwt>0</asrwt>
<pdfrwt beam="2">  1        2 0.33699129E-01 0.17731867E+03</pdfrwt>
<pdfrwt beam="1">  1       -2 0.26352922E-01 0.17731867E+03</pdfrwt>
<totfact> 0.19639458E+03</totfact>
</mgrwt>
</event>
<event>
 8    3  0.7944584E-004  0.1681436E+03  0.7818608E-02  0.1186847E+00
          2   -1    0    0  501    0  0.00000000000E+00  0.00000000000E+00  0.72710654963E+03  0.72710654963E+03  0.25500000000E-02 0. -1.
         -2   -1    0    0    0  501 -0.00000000000E+00 -0.00000000000E+00 -0.49893702419E+02  0.49893702484E+02  0.25500000000E-02 0.  1.
         25    2    1    2    0    0  0.27806842259E+02 -0.10896663338E+03  0.13367652426E+03  0.21480617407E+03  0.12500132644E+03 0.  0.
         23    2    1    2    0    0 -0.27806842259E+02  0.10896663338E+03  0.54353632295E+03  0.56219407805E+03  0.89350430138E+02 0.  0.
        -13    1    4    4    0    0 -0.46278033557E+02  0.10826784848E+03  0.51428756774E+03  0.52759387497E+03  0.10566000000E+00 0. -1.
         13    1    4    4    0    0  0.18471191297E+02  0.69878489244E+00  0.29248755205E+02  0.34600203082E+02  0.10566000000E+00 0.  1.
    9000005    1    3    3    0    0  0.18030294309E+02 -0.45613557288E+02  0.14192722337E+03  0.15016665693E+03  0.10000000000E+01 0.  0.
    9000005    1    3    3    0    0  0.97765479508E+01 -0.63353076089E+02 -0.82506991052E+01  0.64639517135E+02  0.10000000000E+01 0.  0.
<mgrwt>
<rscale>  0 0.16164932E+03</rscale>
<asrwt>0</asrwt>
<pdfrwt beam="1">  1        2 0.11186254E+00 0.16814363E+03</pdfrwt>
<pdfrwt beam="2">  1       -2 0.76759543E-02 0.16814363E+03</pdfrwt>
<totfact> 0.39654244E+03</totfact>
</mgrwt>
</event>
<event>
 8    3  0.7944584E-004  0.2283596E+03  0.7818608E-02  0.1131051E+00
          2   -1    0    0  501    0  0.00000000000E+00  0.00000000000E+00  0.62614626105E+03  0.62614626105E+03  0.25500000000E-02 0. -1.
         -2   -1    0    0    0  501 -0.00000000000E+00 -0.00000000000E+00 -0.81450786743E+02  0.81450786783E+02  0.25500000000E-02 0.  1.
         25    2    1    2    0    0 -0.19065479040E+03  0.13222520372E+02  0.20007471509E+03  0.30360826205E+03  0.12499600401E+03 0.  0.
         23    2    1    2    0    0  0.19065479040E+03 -0.13222520372E+02  0.34462075922E+03  0.40398878579E+03  0.88990938922E+02 0.  0.
        -13    1    4    4    0    0  0.26559254005E+02 -0.29497915320E+02  0.11218452935E+03  0.11899958307E+03  0.10566000000E+00 0. -1.
         13    1    4    4    0    0  0.16409553640E+03  0.16275394947E+02  0.23243622987E+03  0.28498920272E+03  0.10566000000E+00 0.  1.
    9000005    1    3    3    0    0 -0.37104589475E+02  0.50010088979E+02  0.96219272562E+02  0.11461635124E+03  0.10000000000E+01 0.  0.
    9000005    1    3    3    0    0 -0.15355020093E+03 -0.36787568607E+02  0.10385544253E+03  0.18899191081E+03  0.10000000000E+01 0.  0.
<mgrwt>
<rscale>  0 0.22384138E+03</rscale>
<asrwt>0</asrwt>
<pdfrwt beam="1">  1        2 0.96330191E-01 0.22835955E+03</pdfrwt>
<pdfrwt beam="2">  1       -2 0.12530891E-01 0.22835955E+03</pdfrwt>
<totfact> 0.21993638E+03</totfact>
</mgrwt>
</event>
<event>
 8    3  0.7944584E-004  0.1391847E+03  0.7818608E-02  0.1225476E+00
         -2   -1    0    0    0  501 -0.00000000000E+00  0.00000000000E+00  0.18058959150E+04  0.18058959150E+04  0.25500000000E-02 0.  1.
          2   -1    0    0  501    0  0.00000000000E+00 -0.00000000000E+00 -0.11146565354E+02  0.11146565646E+02  0.25500000000E-02 0. -1.
         25    2    1    2    0    0  0.59557464439E+02  0.14159220825E+02  0.54733879266E+03  0.56475848680E+03  0.12499927742E+03 0.  0.
         23    2    1    2    0    0 -0.59557464439E+02 -0.14159220825E+02  0.12474105570E+04  0.12522839939E+04  0.91839688967E+02 0.  0.
        -13    1    4    4    0    0 -0.64207093288E+02  0.27874593263E+00  0.43323292884E+03  0.43796507889E+03  0.10566000000E+00 0. -1.
         13    1    4    4    0    0  0.46496288490E+01 -0.14437966758E+02  0.81417762815E+03  0.81431891497E+03  0.10566000000E+00 0.  1.
    9000005    1    3    3    0    0  0.93458256670E+02  0.15823691039E+02  0.48080582340E+03  0.49006129693E+03  0.10000000000E+01 0.  0.
    9000005    1    3    3    0    0 -0.33900792230E+02 -0.16644702142E+01  0.66532969267E+02  0.74697189869E+02  0.10000000000E+01 0.  0.
<mgrwt>
<rscale>  0 0.13134363E+03</rscale>
<asrwt>0</asrwt>
<pdfrwt beam="2">  1        2 0.17148576E-02 0.13918475E+03</pdfrwt>
<pdfrwt beam="1">  1       -2 0.27782991E+00 0.13918475E+03</pdfrwt>
<totfact> 0.33110547E+02</totfact>
</mgrwt>
</event>
<event>
 8    3  0.7944584E-004  0.1361896E+03  0.7818608E-02  0.1230912E+00
         -2   -1    0    0    0  501 -0.00000000000E+00  0.00000000000E+00  0.21270127351E+02  0.21270127504E+02  0.25500000000E-02 0.  1.
          2   -1    0    0  501    0  0.00000000000E+00 -0.00000000000E+00 -0.73103755033E+03  0.73103755034E+03  0.25500000000E-02 0. -1.
         25    2    1    2    0    0  0.53707541861E+02  0.58259574637E+01 -0.30408358460E+03  0.33318827863E+03  0.12501664194E+03 0.  0.
         23    2    1    2    0    0 -0.53707541861E+02 -0.58259574637E+01 -0.40568383838E+03  0.41911939921E+03  0.90350717958E+02 0.  0.
        -13    1    4    4    0    0  0.48938345475E+01  0.19841845090E+02 -0.21569407881E+02  0.29713615625E+02  0.10566000000E+00 0.  1.
         13    1    4    4    0    0 -0.58601376408E+02 -0.25667802554E+02 -0.38411443050E+03  0.38940578358E+03  0.10566000000E+00 0. -1.
    9000005    1    3    3    0    0  0.43099044145E+02  0.63530941895E+02 -0.15503911661E+03  0.17300819594E+03  0.10000000000E+01 0.  0.
    9000005    1    3    3    0    0  0.10608497715E+02 -0.57704984431E+02 -0.14904446799E+03  0.16018008269E+03  0.10000000000E+01 0.  0.
<mgrwt>
<rscale>  0 0.12769788E+03</rscale>
<asrwt>0</asrwt>
<pdfrwt beam="2">  1        2 0.11246730E+00 0.13618958E+03</pdfrwt>
<pdfrwt beam="1">  1       -2 0.32723279E-02 0.13618958E+03</pdfrwt>
<totfact> 0.14087520E+04</totfact>
</mgrwt>
</event>
<event>
 8    3  0.7944584E-004  0.1509900E+03  0.7818608E-02  0.1208261E+00
          2   -1    0    0  501    0  0.00000000000E+00  0.00000000000E+00  0.16105165200E+04  0.16105165200E+04  0.25500000000E-02 0. -1.
         -2   -1    0    0    0  501 -0.00000000000E+00 -0.00000000000E+00 -0.15804245062E+02  0.15804245267E+02  0.25500000000E-02 0.  1.
         25    2    1    2    0    0  0.84182742207E+02  0.93048387625E+01  0.12643649259E+04  0.12733485933E+04  0.12499863973E+03 0.  0.
         23    2    1    2    0    0 -0.84182742207E+02 -0.93048387625E+01  0.33034734903E+03  0.35297217203E+03  0.91031143598E+02 0.  0.
        -13    1    4    4    0    0 -0.22503798089E+02 -0.18875496828E+02  0.24753595293E+03  0.24927247034E+03  0.10566000000E+00 0. -1.
         13    1    4    4    0    0 -0.61678944117E+02  0.95706580659E+01  0.82811396096E+02  0.10369970169E+03  0.10566000000E+00 0.  1.
    9000005    1    3    3    0    0  0.53837772107E+02 -0.54851702765E+02  0.52710410977E+03  0.53267903801E+03  0.10000000000E+01 0.  0.
    9000005    1    3    3    0    0  0.30344970100E+02  0.64156541528E+02  0.73726081615E+03  0.74066955524E+03  0.10000000000E+01 0.  0.
<mgrwt>
<rscale>  0 0.14383422E+03</rscale>
<asrwt>0</asrwt>
<pdfrwt beam="1">  1        2 0.24777182E+00 0.15098998E+03</pdfrwt>
<pdfrwt beam="2">  1       -2 0.24314219E-02 0.15098998E+03</pdfrwt>
<totfact> 0.68018759E+03</totfact>
</mgrwt>
</event>
<event>
 8    3  0.7944584E-004  0.1450235E+03  0.7818608E-02  0.1216403E+00
          2   -1    0    0  501    0  0.00000000000E+00  0.00000000000E+00  0.25796843972E+03  0.25796843973E+03  0.25500000000E-02 0.  1.
         -2   -1    0    0    0  501 -0.00000000000E+00 -0.00000000000E+00 -0.69417062466E+02  0.69417062513E+02  0.25500000000E-02 0. -1.
         25    2    1    2    0    0  0.72634832260E+02 -0.11521170196E+02  0.73553876969E+02  0.16260991275E+03  0.12499301856E+03 0.  0.
         23    2    1    2    0    0 -0.72634832260E+02  0.11521170196E+02  0.11499750028E+03  0.16477558949E+03  0.92293085331E+02 0.  0.
        -13    1    4    4    0    0 -0.77992963251E+02  0.26417137090E+02  0.12222253481E+03  0.14737410434E+03  0.10566000000E+00 0.  1.
         13    1    4    4    0    0  0.53581309910E+01 -0.14895966894E+02 -0.72250345330E+01  0.17401485151E+02  0.10566000000E+00 0. -1.
    9000005    1    3    3    0    0 -0.31681654552E+02 -0.24929183805E+01  0.43102215702E+02  0.53560646707E+02  0.10000000000E+01 0.  0.
    9000005    1    3    3    0    0  0.10431648681E+03 -0.90282518155E+01  0.30451661267E+02  0.10904926605E+03  0.10000000000E+01 0.  0.
<mgrwt>
<rscale>  0 0.13773974E+03</rscale>
<asrwt>0</asrwt>
<pdfrwt beam="1">  1        2 0.39687453E-01 0.14502348E+03</pdfrwt>
<pdfrwt beam="2">  1       -2 0.10679548E-01 0.14502348E+03</pdfrwt>
<totfact> 0.73472282E+03</totfact>
</mgrwt>
</event>
<event>
 8    3  0.7944584E-004  0.1517348E+03  0.7818608E-02  0.1208124E+00
          2   -1    0    0  501    0  0.00000000000E+00  0.00000000000E+00  0.37460855347E+02  0.37460855434E+02  0.25500000000E-02 0.  1.
         -2   -1    0    0    0  501 -0.00000000000E+00 -0.00000000000E+00 -0.61359185767E+03  0.61359185767E+03  0.25500000000E-02 0. -1.
         25    2    1    2    0    0 -0.19537869296E+02  0.83765590418E+02 -0.17548796615E+03  0.23199023409E+03  0.12500015990E+03 0.  0.
         23    2    1    2    0    0  0.19537869296E+02 -0.83765590418E+02 -0.40064303617E+03  0.41906247901E+03  0.87750307184E+02 0.  0.
        -13    1    4    4    0    0 -0.14078864386E+01 -0.41612178382E+02 -0.49076838367E+02  0.64359169992E+02  0.10566000000E+00 0.  1.
         13    1    4    4    0    0  0.20945755734E+02 -0.42153412036E+02 -0.35156619780E+03  0.35470330902E+03  0.10566000000E+00 0. -1.
    9000005    1    3    3    0    0 -0.53839636385E+01  0.11051803888E+03 -0.16736518202E+03  0.20063730494E+03  0.10000000000E+01 0.  0.
    9000005    1    3    3    0    0 -0.14153905657E+02 -0.26752448466E+02 -0.81227841361E+01  0.31352929152E+02  0.10000000000E+01 0.  0.
<mgrwt>
<rscale>  0 0.14393972E+03</rscale>
<asrwt>0</asrwt>
<pdfrwt beam="1">  1        2 0.57632090E-02 0.15173478E+03</pdfrwt>
<pdfrwt beam="2">  1       -2 0.94398740E-01 0.15173478E+03</pdfrwt>
<totfact> 0.12435666E+03</totfact>
</mgrwt>
</event>
<event>
 8    3  0.7944584E-004  0.1330289E+03  0.7818608E-02  0.1236337E+00
         -2   -1    0    0    0  501 -0.00000000000E+00  0.00000000000E+00  0.12546927584E+02  0.12546927843E+02  0.25500000000E-02 0.  1.
          2   -1    0    0  501    0  0.00000000000E+00 -0.00000000000E+00 -0.15174968688E+04  0.15174968688E+04  0.25500000000E-02 0. -1.
         25    2    1    2    0    0  0.37889224425E+02  0.25218412836E+02 -0.42395422693E+03  0.44433532457E+03  0.12500052981E+03 0.  0.
         23    2    1    2    0    0 -0.37889224425E+02 -0.25218412836E+02 -0.10809957142E+04  0.10857084720E+04  0.90219678342E+02 0.  0.
        -13    1    4    4    0    0  0.34397390425E+01  0.23366030676E+02 -0.60465735328E+03  0.60511844231E+03  0.10566000000E+00 0. -1.
         13    1    4    4    0    0 -0.41328963467E+02 -0.48584443512E+02 -0.47633836097E+03  0.48059002972E+03  0.10566000000E+00 0.  1.
    9000005    1    3    3    0    0  0.49620167084E+01 -0.50073609507E+02 -0.14241927780E+03  0.15105045074E+03  0.10000000000E+01 0.  0.
    9000005    1    3    3    0    0  0.32927207716E+02  0.75292022343E+02 -0.28153494913E+03  0.29328487383E+03  0.10000000000E+01 0.  0.
<mgrwt>
<rscale>  0 0.12419208E+03</rscale>
<asrwt>0</asrwt>
<pdfrwt beam="2">  1        2 0.23346091E+00 0.13302892E+03</pdfrwt>
<pdfrwt beam="1">  1       -2 0.19302978E-02 0.13302892E+03</pdfrwt>
<totfact> 0.10589268E+04</totfact>
</mgrwt>
</event>
<event>
 8    3  0.7944584E-004  0.1477342E+03  0.7818608E-02  0.1212864E+00
         -2   -1    0    0    0  501 -0.00000000000E+00  0.00000000000E+00  0.20485126376E+02  0.20485126535E+02  0.25500000000E-02 0.  1.
          2   -1    0    0  501    0  0.00000000000E+00 -0.00000000000E+00 -0.88651322227E+03  0.88651322227E+03  0.25500000000E-02 0. -1.
         25    2    1    2    0    0 -0.62339745948E+02  0.48100922787E+02 -0.52370743504E+03  0.54414599036E+03  0.12500175443E+03 0.  0.
         23    2    1    2    0    0  0.62339745948E+02 -0.48100922787E+02 -0.34232066085E+03  0.36285235845E+03  0.90986023576E+02 0.  0.
        -13    1    4    4    0    0  0.27719272650E+02 -0.56783041795E+02 -0.10265510535E+03  0.12054357606E+03  0.10566000000E+00 0.  1.
         13    1    4    4    0    0  0.34620473298E+02  0.86821190075E+01 -0.23966555550E+03  0.24230878238E+03  0.10566000000E+00 0. -1.
    9000005    1    3    3    0    0 -0.26088373089E+02 -0.35022690784E+02 -0.29326055235E+03  0.29649611068E+03  0.10000000000E+01 0.  0.
    9000005    1    3    3    0    0 -0.36251372858E+02  0.83123613571E+02 -0.23044688269E+03  0.24764987968E+03  0.10000000000E+01 0.  0.
<mgrwt>
<rscale>  0 0.14034623E+03</rscale>
<asrwt>0</asrwt>
<pdfrwt beam="2">  1        2 0.13638662E+00 0.14773416E+03</pdfrwt>
<pdfrwt beam="1">  1       -2 0.31515586E-02 0.14773416E+03</pdfrwt>
<totfact> 0.11762848E+04</totfact>
</mgrwt>
</event>
<event>
 8    3  0.7944584E-004  0.1341389E+03  0.7818608E-02  0.1232159E+00
         -2   -1    0    0    0  501 -0.00000000000E+00  0.00000000000E+00  0.21342010351E+03  0.21342010352E+03  0.25500000000E-02 0.  1.
          2   -1    0    0  501    0  0.00000000000E+00 -0.00000000000E+00 -0.79315602496E+02  0.79315602537E+02  0.25500000000E-02 0. -1.
         25    2    1    2    0    0  0.18204207459E+02  0.45217890175E+02  0.19263969335E+02  0.13551510939E+03  0.12496877049E+03 0.  0.
         23    2    1    2    0    0 -0.18204207459E+02 -0.45217890175E+02  0.11484053168E+03  0.15722059667E+03  0.95676107470E+02 0.  0.
        -13    1    4    4    0    0 -0.54113300673E+02 -0.25090060802E+02  0.93360547183E+02  0.11078792080E+03  0.10566000000E+00 0.  1.
         13    1    4    4    0    0  0.35909093213E+02 -0.20127829372E+02  0.21479984494E+02  0.46432675871E+02  0.10566000000E+00 0. -1.
    9000005    1    3    3    0    0  0.15216005337E+02 -0.25311652947E+02  0.50344875773E+02  0.58376477369E+02  0.10000000000E+01 0.  0.
    9000005    1    3    3    0    0  0.29882021226E+01  0.70529543122E+02 -0.31080906439E+02  0.77138632020E+02  0.10000000000E+01 0.  0.
<mgrwt>
<rscale>  0 0.12688041E+03</rscale>
<asrwt>0</asrwt>
<pdfrwt beam="2">  1        2 0.12202400E-01 0.13413890E+03</pdfrwt>
<pdfrwt beam="1">  1       -2 0.32833862E-01 0.13413890E+03</pdfrwt>
<totfact> 0.41360552E+03</totfact>
</mgrwt>
</event>
<event>
 8    3  0.7944584E-004  0.1386973E+03  0.7818608E-02  0.1227568E+00
          2   -1    0    0  501    0  0.00000000000E+00  0.00000000000E+00  0.54642092615E+03  0.54642092616E+03  0.25500000000E-02 0. -1.
         -2   -1    0    0    0  501 -0.00000000000E+00 -0.00000000000E+00 -0.28369393826E+02  0.28369393941E+02  0.25500000000E-02 0.  1.
         25    2    1    2    0    0 -0.55506720392E+02  0.23021693318E+02  0.24399933596E+03  0.28066461760E+03  0.12500382894E+03 0.  0.
         23    2    1    2    0    0  0.55506720392E+02 -0.23021693318E+02  0.27405219636E+03  0.29412570250E+03  0.88285492394E+02 0.  0.
        -13    1    4    4    0    0  0.12263366821E+02  0.24754672368E+02  0.26346127437E+02  0.38174776552E+02  0.10566000000E+00 0.  1.
         13    1    4    4    0    0  0.43243353571E+02 -0.47776365686E+02  0.24770606893E+03  0.25595092595E+03  0.10566000000E+00 0. -1.
    9000005    1    3    3    0    0 -0.49061963311E+01 -0.36942027049E+02  0.17935268291E+02  0.41369771254E+02  0.10000000000E+01 0.  0.
    9000005    1    3    3    0    0 -0.50600524061E+02  0.59963720367E+02  0.22606406767E+03  0.23929484635E+03  0.10000000000E+01 0.  0.
<mgrwt>
<rscale>  0 0.12992405E+03</rscale>
<asrwt>0</asrwt>
<pdfrwt beam="1">  1        2 0.84064764E-01 0.13869734E+03</pdfrwt>
<pdfrwt beam="2">  1       -2 0.43645218E-02 0.13869734E+03</pdfrwt>
<totfact> 0.12881649E+04</totfact>
</mgrwt>
</event>
<event>
 8    3  0.7944584E-004  0.1312717E+03  0.7818608E-02  0.1240208E+00
          2   -1    0    0  501    0  0.00000000000E+00  0.00000000000E+00  0.65813331255E+03  0.65813331256E+03  0.25500000000E-02 0. -1.
         -2   -1    0    0    0  501 -0.00000000000E+00 -0.00000000000E+00 -0.20271756145E+02  0.20271756305E+02  0.25500000000E-02 0.  1.
         25    2    1    2    0    0 -0.98250448277E+00  0.40021473581E+02  0.31576941648E+03  0.34196868987E+03  0.12501830589E+03 0.  0.
         23    2    1    2    0    0  0.98250448277E+00 -0.40021473581E+02  0.32209213993E+03  0.33643637899E+03  0.88563010565E+02 0.  0.
        -13    1    4    4    0    0  0.37849487373E+02 -0.38544874793E+02  0.12906528140E+03  0.13991479227E+03  0.10566000000E+00 0.  1.
         13    1    4    4    0    0 -0.36866982890E+02 -0.14765987882E+01  0.19302685853E+03  0.19652158672E+03  0.10566000000E+00 0. -1.
    9000005    1    3    3    0    0  0.48610162093E+02  0.60380594790E+02  0.19410703263E+03  0.20901508128E+03  0.10000000000E+01 0.  0.
    9000005    1    3    3    0    0 -0.49592666576E+02 -0.20359121208E+02  0.12166238385E+03  0.13295360860E+03  0.10000000000E+01 0.  0.
<mgrwt>
<rscale>  0 0.12176847E+03</rscale>
<asrwt>0</asrwt>
<pdfrwt beam="1">  1        2 0.10125127E+00 0.13127170E+03</pdfrwt>
<pdfrwt beam="2">  1       -2 0.31187321E-02 0.13127170E+03</pdfrwt>
<totfact> 0.17075833E+04</totfact>
</mgrwt>
</event>
<event>
 8    3  0.7944584E-004  0.1348123E+03  0.7818608E-02  0.1234117E+00
         -2   -1    0    0    0  501 -0.00000000000E+00  0.00000000000E+00  0.13757890036E+02  0.13757890273E+02  0.25500000000E-02 0.  1.
          2   -1    0    0  501    0  0.00000000000E+00 -0.00000000000E+00 -0.10653577059E+04  0.10653577059E+04  0.25500000000E-02 0. -1.
         25    2    1    2    0    0 -0.10165013556E+02 -0.49452168010E+02 -0.48079816926E+03  0.49934080046E+03  0.12500204407E+03 0.  0.
         23    2    1    2    0    0  0.10165013556E+02  0.49452168010E+02 -0.57080164663E+03  0.57977479574E+03  0.88178509617E+02 0.  0.
        -13    1    4    4    0    0 -0.17335399999E+02 -0.15100587373E+02 -0.61394106561E+02  0.65557542027E+02  0.10566000000E+00 0.  1.
         13    1    4    4    0    0  0.27500413555E+02  0.64552755382E+02 -0.50940754007E+03  0.51421725371E+03  0.10566000000E+00 0. -1.
    9000005    1    3    3    0    0 -0.91232747409E+01 -0.16280510025E+02 -0.13431602160E+01  0.18737481902E+02  0.10000000000E+01 0.  0.
    9000005    1    3    3    0    0 -0.10417388151E+01 -0.33171657984E+02 -0.47945500904E+03  0.48060331856E+03  0.10000000000E+01 0.  0.
<mgrwt>
<rscale>  0 0.12561158E+03</rscale>
<asrwt>0</asrwt>
<pdfrwt beam="2">  1        2 0.16390112E+00 0.13481230E+03</pdfrwt>
<pdfrwt beam="1">  1       -2 0.21165993E-02 0.13481230E+03</pdfrwt>
<totfact> 0.16317153E+04</totfact>
</mgrwt>
</event>
<event>
 8    3  0.7944584E-004  0.1718710E+03  0.7818608E-02  0.1182000E+00
         -2   -1    0    0    0  501 -0.00000000000E+00  0.00000000000E+00  0.67307148604E+02  0.67307148652E+02  0.25500000000E-02 0.  1.
          2   -1    0    0  501    0  0.00000000000E+00 -0.00000000000E+00 -0.38451617597E+03  0.38451617598E+03  0.25500000000E-02 0. -1.
         25    2    1    2    0    0 -0.14252071681E+02  0.11709404122E+03 -0.16630289200E+03  0.23915744291E+03  0.12500197828E+03 0.  0.
         23    2    1    2    0    0  0.14252071681E+02 -0.11709404122E+03 -0.15090613536E+03  0.21266588172E+03  0.92412009616E+02 0.  0.
        -13    1    4    4    0    0  0.14212498135E+02 -0.30995767546E+02  0.50999202693E+01  0.34478298388E+02  0.10566000000E+00 0.  1.
         13    1    4    4    0    0  0.39573546375E-01 -0.86098273677E+02 -0.15600605563E+03  0.17818758333E+03  0.10566000000E+00 0. -1.
    9000005    1    3    3    0    0  0.51638945774E+02  0.50072408128E+02 -0.10376415114E+03  0.12626094344E+03  0.10000000000E+01 0.  0.
    9000005    1    3    3    0    0 -0.65891017455E+02  0.67021633094E+02 -0.62538740866E+02  0.11289649947E+03  0.10000000000E+01 0.  0.
<mgrwt>
<rscale>  0 0.16607868E+03</rscale>
<asrwt>0</asrwt>
<pdfrwt beam="2">  1        2 0.59156333E-01 0.17187097E+03</pdfrwt>
<pdfrwt beam="1">  1       -2 0.10354946E-01 0.17187097E+03</pdfrwt>
<totfact> 0.50906095E+03</totfact>
</mgrwt>
</event>
<event>
 8    3  0.7944584E-004  0.1616060E+03  0.7818608E-02  0.1194203E+00
          2   -1    0    0  501    0  0.00000000000E+00  0.00000000000E+00  0.10684775497E+04  0.10684775497E+04  0.25500000000E-02 0.  1.
         -2   -1    0    0    0  501 -0.00000000000E+00 -0.00000000000E+00 -0.26126721800E+02  0.26126721925E+02  0.25500000000E-02 0. -1.
         25    2    1    2    0    0 -0.14797225147E+02 -0.10132356403E+03  0.31149867047E+03  0.35092439599E+03  0.12502434763E+03 0.  0.
         23    2    1    2    0    0  0.14797225147E+02  0.10132356403E+03  0.73085215745E+03  0.74367987565E+03  0.91812084717E+02 0.  0.
        -13    1    4    4    0    0 -0.35967209767E+01  0.67094608510E+02  0.65515552635E+03  0.65859198125E+03  0.10566000000E+00 0.  1.
         13    1    4    4    0    0  0.18393946123E+02  0.34228955522E+02  0.75696631096E+02  0.85087894400E+02  0.10566000000E+00 0. -1.
    9000005    1    3    3    0    0 -0.25443317659E+02  0.13019066111E+02  0.15032766235E+03  0.15302373857E+03  0.10000000000E+01 0.  0.
    9000005    1    3    3    0    0  0.10646092512E+02 -0.11434263014E+03  0.16117100811E+03  0.19790065743E+03  0.10000000000E+01 0.  0.
<mgrwt>
<rscale>  0 0.15521855E+03</rscale>
<asrwt>0</asrwt>
<pdfrwt beam="1">  1        2 0.16438114E+00 0.16160603E+03</pdfrwt>
<pdfrwt beam="2">  1       -2 0.40194961E-02 0.16160603E+03</pdfrwt>
<totfact> 0.63814758E+03</totfact>
</mgrwt>
</event>
<event>
 8    3  0.7944584E-004  0.1391852E+03  0.7818608E-02  0.1225506E+00
          2   -1    0    0  501    0  0.00000000000E+00  0.00000000000E+00  0.72199554712E+03  0.72199554713E+03  0.25500000000E-02 0. -1.
         -2   -1    0    0    0  501 -0.00000000000E+00 -0.00000000000E+00 -0.32027164474E+02  0.32027164575E+02  0.25500000000E-02 0.  1.
         25    2    1    2    0    0 -0.13536956212E+02  0.59706539841E+02  0.58649241221E+03  0.60278178693E+03  0.12499765195E+03 0.  0.
         23    2    1    2    0    0  0.13536956212E+02 -0.59706539841E+02  0.10347597043E+03  0.15124092477E+03  0.91751952479E+02 0.  0.
        -13    1    4    4    0    0  0.19004032730E+02  0.21272139495E+02  0.34187614526E+02  0.44524839469E+02  0.10566000000E+00 0.  1.
         13    1    4    4    0    0 -0.54670765179E+01 -0.80978679337E+02  0.69288355908E+02  0.10671608530E+03  0.10566000000E+00 0. -1.
    9000005    1    3    3    0    0  0.42923615521E+02  0.65948252764E+02  0.27014629941E+03  0.28137454025E+03  0.10000000000E+01 0.  0.
    9000005    1    3    3    0    0 -0.56460571732E+02 -0.62417129228E+01  0.31634611280E+03  0.32140724669E+03  0.10000000000E+01 0.  0.
<mgrwt>
<rscale>  0 0.13132300E+03</rscale>
<asrwt>0</asrwt>
<pdfrwt beam="1">  1        2 0.11107624E+00 0.13918525E+03</pdfrwt>
<pdfrwt beam="2">  1       -2 0.49272559E-02 0.13918525E+03</pdfrwt>
<totfact> 0.77907778E+03</totfact>
</mgrwt>
</event>
<event>
 8    3  0.7944584E-004  0.1253265E+03  0.7818608E-02  0.1252443E+00
          2   -1    0    0  501    0  0.00000000000E+00  0.00000000000E+00  0.16747896226E+04  0.16747896226E+04  0.25500000000E-02 0. -1.
         -2   -1    0    0    0  501 -0.00000000000E+00 -0.00000000000E+00 -0.67680581810E+01  0.67680586614E+01  0.25500000000E-02 0.  1.
         25    2    1    2    0    0 -0.62049061834E+01  0.66287728307E+01  0.94114636440E+03  0.94945416827E+03  0.12499718770E+03 0.  0.
         23    2    1    2    0    0  0.62049061834E+01 -0.66287728307E+01  0.72687520004E+03  0.73210351301E+03  0.86865158981E+02 0.  0.
        -13    1    4    4    0    0  0.29300606787E+02  0.28769314537E+02  0.46827558969E+03  0.47007258809E+03  0.10566000000E+00 0.  1.
         13    1    4    4    0    0 -0.23095700604E+02 -0.35398087367E+02  0.25859961035E+03  0.26203092492E+03  0.10566000000E+00 0. -1.
    9000005    1    3    3    0    0  0.12822943529E+02 -0.45043567822E+02  0.72112218811E+03  0.72264206982E+03  0.10000000000E+01 0.  0.
    9000005    1    3    3    0    0 -0.19027849713E+02  0.51672340652E+02  0.22002417629E+03  0.22681209845E+03  0.10000000000E+01 0.  0.
<mgrwt>
<rscale>  0 0.11450740E+03</rscale>
<asrwt>0</asrwt>
<pdfrwt beam="1">  1        2 0.25766013E+00 0.12532653E+03</pdfrwt>
<pdfrwt beam="2">  1       -2 0.10412390E-02 0.12532653E+03</pdfrwt>
<totfact> 0.21291413E+04</totfact>
</mgrwt>
</event>
<event>
 8    3  0.7944584E-004  0.1284276E+03  0.7818608E-02  0.1249090E+00
         -2   -1    0    0    0  501 -0.00000000000E+00  0.00000000000E+00  0.59351968882E+01  0.59351974360E+01  0.25500000000E-02 0.  1.
          2   -1    0    0  501    0  0.00000000000E+00 -0.00000000000E+00 -0.20636660759E+04  0.20636660759E+04  0.25500000000E-02 0. -1.
         25    2    1    2    0    0 -0.18158408624E+02 -0.23218983784E+02 -0.97943774553E+03  0.98782181571E+03  0.12499917288E+03 0.  0.
         23    2    1    2    0    0  0.18158408624E+02  0.23218983784E+02 -0.10782931335E+04  0.10817794576E+04  0.81620243865E+02 0.  0.
        -13    1    4    4    0    0  0.27833121896E+02 -0.10799943779E+02 -0.86946733380E+03  0.86997975675E+03  0.10566000000E+00 0. -1.
         13    1    4    4    0    0 -0.96747132720E+01  0.34018927563E+02 -0.20882579968E+03  0.21179970087E+03  0.10566000000E+00 0.  1.
    9000005    1    3    3    0    0 -0.48928787424E+02 -0.61933136853E+02 -0.59178851508E+03  0.59702963600E+03  0.10000000000E+01 0.  0.
    9000005    1    3    3    0    0  0.30770378801E+02  0.38714153070E+02 -0.38764923045E+03  0.39079217971E+03  0.10000000000E+01 0.  0.
<mgrwt>
<rscale>  0 0.11643894E+03</rscale>
<asrwt>0</asrwt>
<pdfrwt beam="2">  1        2 0.31748652E+00 0.12842758E+03</pdfrwt>
<pdfrwt beam="1">  1       -2 0.91310890E-03 0.12842758E+03</pdfrwt>
<totfact> 0.16288744E+04</totfact>
</mgrwt>
</event>
<event>
 8    3  0.7944584E-004  0.1481540E+03  0.7818608E-02  0.1211625E+00
         -2   -1    0    0    0  501 -0.00000000000E+00  0.00000000000E+00  0.22642139066E+03  0.22642139068E+03  0.25500000000E-02 0.  1.
          2   -1    0    0  501    0  0.00000000000E+00 -0.00000000000E+00 -0.81003918297E+02  0.81003918338E+02  0.25500000000E-02 0. -1.
         25    2    1    2    0    0 -0.36893034295E+02  0.70445683170E+02  0.85637419555E+02  0.17112384213E+03  0.12500364578E+03 0.  0.
         23    2    1    2    0    0  0.36893034295E+02 -0.70445683170E+02  0.59780052808E+02  0.13630146689E+03  0.93170515212E+02 0.  0.
        -13    1    4    4    0    0  0.80932421363E+01  0.31514777267E+01  0.56540294087E+02  0.57203569815E+02  0.10566000000E+00 0.  1.
         13    1    4    4    0    0  0.28799792159E+02 -0.73597160897E+02  0.32397587213E+01  0.79097897071E+02  0.10566000000E+00 0. -1.
    9000005    1    3    3    0    0 -0.80253817440E+02  0.67089491476E+02  0.58557728671E+02  0.11988195305E+03  0.10000000000E+01 0.  0.
    9000005    1    3    3    0    0  0.43360783145E+02  0.33561916944E+01  0.27079690885E+02  0.51241889076E+02  0.10000000000E+01 0.  0.
<mgrwt>
<rscale>  0 0.14127407E+03</rscale>
<asrwt>0</asrwt>
<pdfrwt beam="2">  1        2 0.12462141E-01 0.14815398E+03</pdfrwt>
<pdfrwt beam="1">  1       -2 0.34834060E-01 0.14815398E+03</pdfrwt>
<totfact> 0.36398870E+03</totfact>
</mgrwt>
</event>
<event>
 8    3  0.7944584E-004  0.1297416E+03  0.7818608E-02  0.1242027E+00
          2   -1    0    0  501    0  0.00000000000E+00  0.00000000000E+00  0.24166549598E+03  0.24166549599E+03  0.25500000000E-02 0. -1.
         -2   -1    0    0    0  501 -0.00000000000E+00 -0.00000000000E+00 -0.60911801395E+02  0.60911801448E+02  0.25500000000E-02 0.  1.
         25    2    1    2    0    0  0.34754444036E+02  0.42322899994E+00  0.15511473864E+03  0.20222134984E+03  0.12499936674E+03 0.  0.
         23    2    1    2    0    0 -0.34754444036E+02 -0.42322899994E+00  0.25638955940E+02  0.10035594760E+03  0.90586476107E+02 0.  0.
        -13    1    4    4    0    0 -0.58228994933E+02 -0.51277859763E+01 -0.80711304582E+01  0.59009019233E+02  0.10566000000E+00 0. -1.
         13    1    4    4    0    0  0.23474550897E+02  0.47045569763E+01  0.33710086399E+02  0.41346928365E+02  0.10566000000E+00 0.  1.
    9000005    1    3    3    0    0  0.62787839340E+01 -0.49051824781E+02  0.16225890771E+02  0.52055587340E+02  0.10000000000E+01 0.  0.
    9000005    1    3    3    0    0  0.28475660102E+02  0.49475053780E+02  0.13888884787E+03  0.15016576250E+03  0.10000000000E+01 0.  0.
<mgrwt>
<rscale>  0 0.12065104E+03</rscale>
<asrwt>0</asrwt>
<pdfrwt beam="1">  1        2 0.37179307E-01 0.12974164E+03</pdfrwt>
<pdfrwt beam="2">  1       -2 0.93710464E-02 0.12974164E+03</pdfrwt>
<totfact> 0.95969768E+03</totfact>
</mgrwt>
</event>
<event>
 8    3  0.7944584E-004  0.1472864E+03  0.7818608E-02  0.1215395E+00
          2   -1    0    0  501    0  0.00000000000E+00  0.00000000000E+00  0.53045230181E+03  0.53045230182E+03  0.25500000000E-02 0. -1.
         -2   -1    0    0    0  501 -0.00000000000E+00 -0.00000000000E+00 -0.49674834440E+02  0.49674834505E+02  0.25500000000E-02 0.  1.
         25    2    1    2    0    0 -0.62897719299E+02 -0.45958494901E+02  0.42966177076E+03  0.45420536428E+03  0.12499987738E+03 0.  0.
         23    2    1    2    0    0  0.62897719299E+02  0.45958494901E+02  0.51115696611E+02  0.12592177204E+03  0.84706386340E+02 0.  0.
        -13    1    4    4    0    0  0.79007753382E+02  0.35493433294E+02  0.19272627499E+02  0.88732486927E+02  0.10566000000E+00 0.  1.
         13    1    4    4    0    0 -0.16110034083E+02  0.10465061607E+02  0.31843069113E+02  0.37189285112E+02  0.10566000000E+00 0. -1.
    9000005    1    3    3    0    0 -0.87529678246E+02 -0.70563906555E+02  0.33123522028E+03  0.34979777106E+03  0.10000000000E+01 0.  0.
    9000005    1    3    3    0    0  0.24631958946E+02  0.24605411654E+02  0.98426550476E+02  0.10440759322E+03  0.10000000000E+01 0.  0.
<mgrwt>
<rscale>  0 0.13847526E+03</rscale>
<asrwt>0</asrwt>
<pdfrwt beam="1">  1        2 0.81608037E-01 0.14728637E+03</pdfrwt>
<pdfrwt beam="2">  1       -2 0.76422831E-02 0.14728637E+03</pdfrwt>
<totfact> 0.57171059E+03</totfact>
</mgrwt>
</event>
<event>
 8    3  0.7944584E-004  0.1391895E+03  0.7818608E-02  0.1225196E+00
         -2   -1    0    0    0  501 -0.00000000000E+00  0.00000000000E+00  0.20339491162E+02  0.20339491322E+02  0.25500000000E-02 0.  1.
          2   -1    0    0  501    0  0.00000000000E+00 -0.00000000000E+00 -0.78323307041E+03  0.78323307041E+03  0.25500000000E-02 0. -1.
         25    2    1    2    0    0  0.84174695594E+01 -0.60643455743E+02 -0.47670834822E+03  0.49661310378E+03  0.12500097226E+03 0.  0.
         23    2    1    2    0    0 -0.84174695594E+01  0.60643455743E+02 -0.28618523102E+03  0.30695945795E+03  0.92593951484E+02 0.  0.
        -13    1    4    4    0    0 -0.95712295707E+01  0.31958091970E+02 -0.19313567755E+02  0.38548062744E+02  0.10566000000E+00 0.  1.
         13    1    4    4    0    0  0.11537600113E+01  0.28685363773E+02 -0.26687166327E+03  0.26841139521E+03  0.10566000000E+00 0. -1.
    9000005    1    3    3    0    0  0.17873634582E+02  0.36004770636E+02 -0.17918487347E+03  0.18364103354E+03  0.10000000000E+01 0.  0.
    9000005    1    3    3    0    0 -0.94561650231E+01 -0.96648226379E+02 -0.29752347476E+03  0.31297207024E+03  0.10000000000E+01 0.  0.
<mgrwt>
<rscale>  0 0.13153478E+03</rscale>
<asrwt>0</asrwt>
<pdfrwt beam="2">  1        2 0.12049737E+00 0.13918953E+03</pdfrwt>
<pdfrwt beam="1">  1       -2 0.31291531E-02 0.13918953E+03</pdfrwt>
<totfact> 0.13854965E+04</totfact>
</mgrwt>
</event>
<event>
 8    3  0.7944584E-004  0.2399260E+03  0.7818608E-02  0.1122653E+00
         -2   -1    0    0    0  501 -0.00000000000E+00  0.00000000000E+00  0.51588341081E+03  0.51588341082E+03  0.25500000000E-02 0.  1.
          2   -1    0    0  501    0  0.00000000000E+00 -0.00000000000E+00 -0.11876968607E+03  0.11876968610E+03  0.25500000000E-02 0. -1.
         25    2    1    2    0    0 -0.20343972641E+03 -0.23479175523E+02  0.31591842726E+03  0.39669752854E+03  0.12500192998E+03 0.  0.
         23    2    1    2    0    0  0.20343972641E+03  0.23479175523E+02  0.81195297481E+02  0.23795556839E+03  0.89950999028E+02 0.  0.
        -13    1    4    4    0    0  0.74901473780E+02  0.79388840926E+01  0.78015704145E+02  0.10844223307E+03  0.10566000000E+00 0.  1.
         13    1    4    4    0    0  0.12853825263E+03  0.15540291431E+02  0.31795933363E+01  0.12951333532E+03  0.10566000000E+00 0. -1.
    9000005    1    3    3    0    0 -0.32563198363E+02 -0.30585346630E+02  0.93555835669E+01  0.45654706876E+02  0.10000000000E+01 0.  0.
    9000005    1    3    3    0    0 -0.17087652805E+03  0.71061711068E+01  0.30656284369E+03  0.35104282166E+03  0.10000000000E+01 0.  0.
<mgrwt>
<rscale>  0 0.23575557E+03</rscale>
<asrwt>0</asrwt>
<pdfrwt beam="2">  1        2 0.18272260E-01 0.23992598E+03</pdfrwt>
<pdfrwt beam="1">  1       -2 0.79366677E-01 0.23992598E+03</pdfrwt>
<totfact> 0.44773635E+02</totfact>
</mgrwt>
</event>
<event>
 8    3  0.7944584E-004  0.1360060E+03  0.7818608E-02  0.1231050E+00
          2   -1    0    0  501    0  0.00000000000E+00  0.00000000000E+00  0.72108542521E+03  0.72108542521E+03  0.25500000000E-02 0. -1.
         -2   -1    0    0    0  501 -0.00000000000E+00 -0.00000000000E+00 -0.20311154924E+02  0.20311155084E+02  0.25500000000E-02 0.  1.
         25    2    1    2    0    0 -0.21021560228E+01  0.53539264853E+02  0.42127358256E+03  0.44268394628E+03  0.12500709174E+03 0.  0.
         23    2    1    2    0    0  0.21021560228E+01 -0.53539264853E+02  0.27950068772E+03  0.29871263402E+03  0.90761948777E+02 0.  0.
        -13    1    4    4    0    0  0.43582871688E+02 -0.19117811052E+02  0.17188846517E+03  0.17835529997E+03  0.10566000000E+00 0.  1.
         13    1    4    4    0    0 -0.41480715665E+02 -0.34421453801E+02  0.10761222255E+03  0.12035733405E+03  0.10566000000E+00 0. -1.
    9000005    1    3    3    0    0  0.44900591163E+01 -0.39190241009E+02  0.83576977913E+02  0.92423735362E+02  0.10000000000E+01 0.  0.
    9000005    1    3    3    0    0 -0.65922151392E+01  0.92729505862E+02  0.33769660465E+03  0.35026021092E+03  0.10000000000E+01 0.  0.
<mgrwt>
<rscale>  0 0.12760747E+03</rscale>
<asrwt>0</asrwt>
<pdfrwt beam="1">  1        2 0.11093620E+00 0.13600605E+03</pdfrwt>
<pdfrwt beam="2">  1       -2 0.31247935E-02 0.13600605E+03</pdfrwt>
<totfact> 0.15327112E+04</totfact>
</mgrwt>
</event>
<event>
 8    3  0.7944584E-004  0.1590792E+03  0.7818608E-02  0.1197738E+00
          2   -1    0    0  501    0  0.00000000000E+00  0.00000000000E+00  0.16109287894E+04  0.16109287894E+04  0.25500000000E-02 0. -1.
         -2   -1    0    0    0  501 -0.00000000000E+00 -0.00000000000E+00 -0.13337956151E+02  0.13337956395E+02  0.25500000000E-02 0.  1.
         25    2    1    2    0    0 -0.64420284071E+02  0.74362715676E+02  0.92114564179E+03  0.93478097749E+03  0.12500558394E+03 0.  0.
         23    2    1    2    0    0  0.64420284071E+02 -0.74362715676E+02  0.67644519145E+03  0.68948576829E+03  0.90181711896E+02 0.  0.
        -13    1    4    4    0    0 -0.54154708805E+01  0.40940511548E+01  0.22427758651E+01  0.71505095855E+01  0.10566000000E+00 0.  1.
         13    1    4    4    0    0  0.69835754951E+02 -0.78456766831E+02  0.67420241558E+03  0.68233525871E+03  0.10566000000E+00 0. -1.
    9000005    1    3    3    0    0  0.29012816559E+02  0.54894632714E+02  0.42831440855E+03  0.43279255631E+03  0.10000000000E+01 0.  0.
    9000005    1    3    3    0    0 -0.93433100630E+02  0.19468082962E+02  0.49283123324E+03  0.50198842119E+03  0.10000000000E+01 0.  0.
<mgrwt>
<rscale>  0 0.15224768E+03</rscale>
<asrwt>0</asrwt>
<pdfrwt beam="1">  1        2 0.24783533E+00 0.15907917E+03</pdfrwt>
<pdfrwt beam="2">  1       -2 0.20519922E-02 0.15907917E+03</pdfrwt>
<totfact> 0.87251224E+03</totfact>
</mgrwt>
</event>
<event>
 8    3  0.7944584E-004  0.2483598E+03  0.7818608E-02  0.1116640E+00
         -2   -1    0    0    0  501 -0.00000000000E+00  0.00000000000E+00  0.18571635808E+02  0.18571635983E+02  0.25500000000E-02 0.  1.
          2   -1    0    0  501    0  0.00000000000E+00 -0.00000000000E+00 -0.31536504806E+04  0.31536504806E+04  0.25500000000E-02 0. -1.
         25    2    1    2    0    0  0.20832080512E+03 -0.51578988912E+02 -0.14984355502E+04  0.15188784387E+04  0.12499865290E+03 0.  0.
         23    2    1    2    0    0 -0.20832080512E+03  0.51578988912E+02 -0.16366432945E+04  0.16533436779E+04  0.94266079892E+02 0.  0.
        -13    1    4    4    0    0 -0.13645278551E+03  0.57606939727E+02 -0.79984747296E+03  0.81344570400E+03  0.10566000000E+00 0.  1.
         13    1    4    4    0    0 -0.71868019609E+02 -0.60279508150E+01 -0.83679582157E+03  0.83989797392E+03  0.10566000000E+00 0. -1.
    9000005    1    3    3    0    0  0.15860903969E+03 -0.21105386089E+02 -0.13491666891E+04  0.13586221033E+04  0.10000000000E+01 0.  0.
    9000005    1    3    3    0    0  0.49711765430E+02 -0.30473602823E+02 -0.14926886117E+03  0.16025633531E+03  0.10000000000E+01 0.  0.
<mgrwt>
<rscale>  0 0.24479419E+03</rscale>
<asrwt>0</asrwt>
<pdfrwt beam="2">  1        2 0.48517657E+00 0.24835985E+03</pdfrwt>
<pdfrwt beam="1">  1       -2 0.28571773E-02 0.24835985E+03</pdfrwt>
<totfact> 0.77077522E+02</totfact>
</mgrwt>
</event>
<event>
 8    3  0.7944584E-004  0.1314689E+03  0.7818608E-02  0.1237505E+00
          2   -1    0    0  501    0  0.00000000000E+00  0.00000000000E+00  0.13290508371E+04  0.13290508371E+04  0.25500000000E-02 0. -1.
         -2   -1    0    0    0  501 -0.00000000000E+00 -0.00000000000E+00 -0.10362202686E+02  0.10362203000E+02  0.25500000000E-02 0.  1.
         25    2    1    2    0    0 -0.39692773141E+02  0.91409018306E+01  0.67941345526E+03  0.69201640994E+03  0.12499998444E+03 0.  0.
         23    2    1    2    0    0  0.39692773141E+02 -0.91409018306E+01  0.63927517918E+03  0.64739663019E+03  0.93758038263E+02 0.  0.
        -13    1    4    4    0    0  0.52502498454E+02 -0.64841326625E+01  0.17230255163E+03  0.18024077447E+03  0.10566000000E+00 0.  1.
         13    1    4    4    0    0 -0.12809725313E+02 -0.26567691681E+01  0.46697262755E+03  0.46715585572E+03  0.10566000000E+00 0. -1.
    9000005    1    3    3    0    0 -0.67355209272E+02  0.30564200900E+02  0.23831652851E+03  0.24953288832E+03  0.10000000000E+01 0.  0.
    9000005    1    3    3    0    0  0.27662436130E+02 -0.21423299069E+02  0.44109692675E+03  0.44248352162E+03  0.10000000000E+01 0.  0.
<mgrwt>
<rscale>  0 0.12345393E+03</rscale>
<asrwt>0</asrwt>
<pdfrwt beam="1">  1        2 0.20446947E+00 0.13146889E+03</pdfrwt>
<pdfrwt beam="2">  1       -2 0.15941842E-02 0.13146889E+03</pdfrwt>
<totfact> 0.17535356E+04</totfact>
</mgrwt>
</event>
<event>
 8    3  0.7944584E-004  0.1781164E+03  0.7818608E-02  0.1175525E+00
         -2   -1    0    0    0  501 -0.00000000000E+00  0.00000000000E+00  0.76318810340E+02  0.76318810383E+02  0.25500000000E-02 0.  1.
          2   -1    0    0  501    0  0.00000000000E+00 -0.00000000000E+00 -0.40709172650E+03  0.40709172651E+03  0.25500000000E-02 0. -1.
         25    2    1    2    0    0  0.75586403745E+01 -0.12667195276E+03 -0.97923106537E+02  0.20325939357E+03  0.12499011809E+03 0.  0.
         23    2    1    2    0    0 -0.75586403745E+01  0.12667195276E+03 -0.23284980962E+03  0.28015114332E+03  0.90347731575E+02 0.  0.
        -13    1    4    4    0    0  0.28947875265E+02  0.70646403444E+02 -0.17793352793E+03  0.19362139688E+03  0.10566000000E+00 0.  1.
         13    1    4    4    0    0 -0.36506515640E+02  0.56025549320E+02 -0.54916281688E+02  0.86529746442E+02  0.10566000000E+00 0. -1.
    9000005    1    3    3    0    0 -0.15083049589E+02 -0.77215299263E+02 -0.12086403293E+03  0.14421794369E+03  0.10000000000E+01 0.  0.
    9000005    1    3    3    0    0  0.22641689964E+02 -0.49456653501E+02  0.22940926398E+02  0.59041449880E+02  0.10000000000E+01 0.  0.
<mgrwt>
<rscale>  0 0.17224707E+03</rscale>
<asrwt>0</asrwt>
<pdfrwt beam="2">  1        2 0.62629495E-01 0.17811638E+03</pdfrwt>
<pdfrwt beam="1">  1       -2 0.11741356E-01 0.17811638E+03</pdfrwt>
<totfact> 0.39247186E+03</totfact>
</mgrwt>
</event>
<event>
 8    3  0.7944584E-004  0.1889558E+03  0.7818608E-02  0.1164746E+00
         -2   -1    0    0    0  501 -0.00000000000E+00  0.00000000000E+00  0.36184042164E+02  0.36184042254E+02  0.25500000000E-02 0.  1.
          2   -1    0    0  501    0  0.00000000000E+00 -0.00000000000E+00 -0.13205876871E+04  0.13205876871E+04  0.25500000000E-02 0. -1.
         25    2    1    2    0    0  0.13751239753E+03  0.34196343739E+02 -0.10620069409E+04  0.10786857922E+04  0.12500098605E+03 0.  0.
         23    2    1    2    0    0 -0.13751239753E+03 -0.34196343739E+02 -0.22239670403E+03  0.27808593709E+03  0.88274826772E+02 0.  0.
        -13    1    4    4    0    0 -0.40990820163E+01 -0.30483997591E+02 -0.63626283116E+02  0.70671009967E+02  0.10566000000E+00 0. -1.
         13    1    4    4    0    0 -0.13341331552E+03 -0.37123461480E+01 -0.15877042092E+03  0.20741492712E+03  0.10566000000E+00 0.  1.
    9000005    1    3    3    0    0  0.67946193262E+02  0.56864094539E+02 -0.84587439962E+03  0.85050262219E+03  0.10000000000E+01 0.  0.
    9000005    1    3    3    0    0  0.69566204271E+02 -0.22667750799E+02 -0.21613254126E+03  0.22818317005E+03  0.10000000000E+01 0.  0.
<mgrwt>
<rscale>  0 0.18319567E+03</rscale>
<asrwt>0</asrwt>
<pdfrwt beam="2">  1        2 0.20316730E+00 0.18895580E+03</pdfrwt>
<pdfrwt beam="1">  1       -2 0.55667767E-02 0.18895580E+03</pdfrwt>
<totfact> 0.28298629E+03</totfact>
</mgrwt>
</event>
<event>
 8    3  0.7944584E-004  0.1306925E+03  0.7818608E-02  0.1242650E+00
          2   -1    0    0  501    0  0.00000000000E+00  0.00000000000E+00  0.66045418743E+03  0.66045418744E+03  0.25500000000E-02 0. -1.
         -2   -1    0    0    0  501 -0.00000000000E+00 -0.00000000000E+00 -0.27533379216E+02  0.27533379334E+02  0.25500000000E-02 0.  1.
         25    2    1    2    0    0 -0.23963950513E+02  0.29689331909E+02  0.16357570133E+03  0.20937417227E+03  0.12499922638E+03 0.  0.
         23    2    1    2    0    0  0.23963950513E+02 -0.29689331909E+02  0.46934510689E+03  0.47861339450E+03  0.85616731304E+02 0.  0.
        -13    1    4    4    0    0 -0.13392190321E+02  0.16429467328E+02  0.26438318344E+03  0.26523151586E+03  0.10566000000E+00 0. -1.
         13    1    4    4    0    0  0.37356140833E+02 -0.46118799237E+02  0.20496192345E+03  0.21338187863E+03  0.10566000000E+00 0.  1.
    9000005    1    3    3    0    0  0.16796447882E+02  0.13490487833E+02  0.16408729557E+03  0.16549850299E+03  0.10000000000E+01 0.  0.
    9000005    1    3    3    0    0 -0.40760398395E+02  0.16198844076E+02 -0.51159424107E+00  0.43875669287E+02  0.10000000000E+01 0.  0.
<mgrwt>
<rscale>  0 0.12027120E+03</rscale>
<asrwt>0</asrwt>
<pdfrwt beam="1">  1        2 0.10160835E+00 0.13069252E+03</pdfrwt>
<pdfrwt beam="2">  1       -2 0.42359041E-02 0.13069252E+03</pdfrwt>
<totfact> 0.10809324E+04</totfact>
</mgrwt>
</event>
<event>
 8    3  0.7944584E-004  0.2311997E+03  0.7818608E-02  0.1128797E+00
         -2   -1    0    0    0  501 -0.00000000000E+00  0.00000000000E+00  0.53941506883E+03  0.53941506884E+03  0.25500000000E-02 0.  1.
          2   -1    0    0  501    0  0.00000000000E+00 -0.00000000000E+00 -0.10946816436E+03  0.10946816439E+03  0.25500000000E-02 0. -1.
         25    2    1    2    0    0  0.19340320946E+03 -0.20567061098E+02  0.35063633870E+03  0.41999896890E+03  0.12500194572E+03 0.  0.
         23    2    1    2    0    0 -0.19340320946E+03  0.20567061098E+02  0.79310565775E+02  0.22888426432E+03  0.90939733759E+02 0.  0.
        -13    1    4    4    0    0 -0.10594095382E+02 -0.20681753293E+02 -0.43705818743E+01  0.23644934472E+02  0.10566000000E+00 0.  1.
         13    1    4    4    0    0 -0.18280911408E+03  0.41248814391E+02  0.83681147650E+02  0.20523932984E+03  0.10566000000E+00 0. -1.
    9000005    1    3    3    0    0  0.98488712018E+02  0.26061647718E+02  0.26502971635E+03  0.28393834969E+03  0.10000000000E+01 0.  0.
    9000005    1    3    3    0    0  0.94914497443E+02 -0.46628708816E+02  0.85606622346E+02  0.13606061921E+03  0.10000000000E+01 0.  0.
<mgrwt>
<rscale>  0 0.22696061E+03</rscale>
<asrwt>0</asrwt>
<pdfrwt beam="2">  1        2 0.16841256E-01 0.23119968E+03</pdfrwt>
<pdfrwt beam="1">  1       -2 0.82986934E-01 0.23119968E+03</pdfrwt>
<totfact> 0.44593302E+02</totfact>
</mgrwt>
</event>
<event>
 8    3  0.7944584E-004  0.1399428E+03  0.7818608E-02  0.1224913E+00
         -2   -1    0    0    0  501 -0.00000000000E+00  0.00000000000E+00  0.29242073881E+02  0.29242073992E+02  0.25500000000E-02 0.  1.
          2   -1    0    0  501    0  0.00000000000E+00 -0.00000000000E+00 -0.64769683286E+03  0.64769683287E+03  0.25500000000E-02 0. -1.
         25    2    1    2    0    0 -0.17464125702E+02  0.60444097142E+02 -0.48115154628E+03  0.50108961131E+03  0.12500201404E+03 0.  0.
         23    2    1    2    0    0  0.17464125702E+02 -0.60444097142E+02 -0.13730321271E+03  0.17584929555E+03  0.90068407115E+02 0.  0.
        -13    1    4    4    0    0 -0.18826117556E+02 -0.30103356556E+02 -0.56452348244E+01  0.35951559332E+02  0.10566000000E+00 0.  1.
         13    1    4    4    0    0  0.36290243257E+02 -0.30340740586E+02 -0.13165797788E+03  0.13989773622E+03  0.10566000000E+00 0. -1.
    9000005    1    3    3    0    0 -0.83321660753E+01  0.78290489172E+02 -0.15071172270E+03  0.17004072760E+03  0.10000000000E+01 0.  0.
    9000005    1    3    3    0    0 -0.91319596262E+01 -0.17846392030E+02 -0.33043982358E+03  0.33104888371E+03  0.10000000000E+01 0.  0.
<mgrwt>
<rscale>  0 0.13172856E+03</rscale>
<asrwt>0</asrwt>
<pdfrwt beam="2">  1        2 0.99645656E-01 0.13994280E+03</pdfrwt>
<pdfrwt beam="1">  1       -2 0.44987811E-02 0.13994280E+03</pdfrwt>
<totfact> 0.10152805E+04</totfact>
</mgrwt>
</event>
<event>
 8    3  0.7944584E-004  0.1365780E+03  0.7818608E-02  0.1230910E+00
         -2   -1    0    0    0  501 -0.00000000000E+00  0.00000000000E+00  0.11030587629E+03  0.11030587632E+03  0.25500000000E-02 0.  1.
          2   -1    0    0  501    0  0.00000000000E+00 -0.00000000000E+00 -0.13206531757E+03  0.13206531760E+03  0.25500000000E-02 0. -1.
         25    2    1    2    0    0 -0.42123022332E+02  0.35421943505E+02 -0.51072199866E+01  0.13667343784E+03  0.12499792727E+03 0.  0.
         23    2    1    2    0    0  0.42123022332E+02 -0.35421943505E+02 -0.16652221293E+02  0.10569775608E+03  0.88688534068E+02 0.  0.
        -13    1    4    4    0    0  0.59884321844E+02 -0.36435846872E+02  0.12831298454E+02  0.71262587127E+02  0.10566000000E+00 0.  1.
         13    1    4    4    0    0 -0.17761299512E+02  0.10139033668E+01 -0.29483519747E+02  0.34435168957E+02  0.10566000000E+00 0. -1.
    9000005    1    3    3    0    0 -0.86451115515E+02  0.30601304114E+02  0.55752976951E+00  0.91714481009E+02  0.10000000000E+01 0.  0.
    9000005    1    3    3    0    0  0.44328093182E+02  0.48206393909E+01 -0.56647497561E+01  0.44958956829E+02  0.10000000000E+01 0.  0.
<mgrwt>
<rscale>  0 0.12769901E+03</rscale>
<asrwt>0</asrwt>
<pdfrwt beam="2">  1        2 0.20317741E-01 0.13657798E+03</pdfrwt>
<pdfrwt beam="1">  1       -2 0.16970135E-01 0.13657798E+03</pdfrwt>
<totfact> 0.71889058E+03</totfact>
</mgrwt>
</event>
<event>
 8    3  0.7944584E-004  0.2686340E+03  0.7818608E-02  0.1102250E+00
          2   -1    0    0  501    0  0.00000000000E+00  0.00000000000E+00  0.17243754887E+04  0.17243754887E+04  0.25500000000E-02 0. -1.
         -2   -1    0    0    0  501 -0.00000000000E+00 -0.00000000000E+00 -0.41857342346E+02  0.41857342423E+02  0.25500000000E-02 0.  1.
         25    2    1    2    0    0  0.13397111626E+03  0.19644505551E+03  0.90552946562E+03  0.94453579278E+03  0.12500132359E+03 0.  0.
         23    2    1    2    0    0 -0.13397111626E+03 -0.19644505551E+03  0.77698868072E+03  0.82169703834E+03  0.12221167299E+03 0.  0.
        -13    1    4    4    0    0 -0.17241073755E+02 -0.13008191783E+03  0.43235687522E+03  0.45183076332E+03  0.10566000000E+00 0. -1.
         13    1    4    4    0    0 -0.11673004250E+03 -0.66363137686E+02  0.34463180551E+03  0.36986627502E+03  0.10566000000E+00 0.  1.
    9000005    1    3    3    0    0  0.65947433567E+02  0.82697385028E+02  0.62961280002E+03  0.63843652733E+03  0.10000000000E+01 0.  0.
    9000005    1    3    3    0    0  0.68023682692E+02  0.11374767049E+03  0.27591666560E+03  0.30609926544E+03  0.10000000000E+01 0.  0.
<mgrwt>
<rscale>  0 0.26831180E+03</rscale>
<asrwt>0</asrwt>
<pdfrwt beam="1">  1        2 0.26528857E+00 0.26863405E+03</pdfrwt>
<pdfrwt beam="2">  1       -2 0.64395902E-02 0.26863405E+03</pdfrwt>
<totfact> 0.13767761E+03</totfact>
</mgrwt>
</event>
<event>
 8    3  0.7944584E-004  0.1254916E+03  0.7818608E-02  0.1248955E+00
         -2   -1    0    0    0  501 -0.00000000000E+00  0.00000000000E+00  0.14704834447E+04  0.14704834447E+04  0.25500000000E-02 0.  1.
          2   -1    0    0  501    0  0.00000000000E+00 -0.00000000000E+00 -0.99376803792E+01  0.99376807064E+01  0.25500000000E-02 0. -1.
         25    2    1    2    0    0 -0.74510079626E+01  0.82608637030E+01  0.50597291271E+03  0.52130291299E+03  0.12499751723E+03 0.  0.
         23    2    1    2    0    0  0.74510079626E+01 -0.82608637030E+01  0.95457285161E+03  0.95911821242E+03  0.92599443620E+02 0.  0.
        -13    1    4    4    0    0 -0.56835625642E+00 -0.45083788800E+02  0.29062155067E+03  0.29409822836E+03  0.10566000000E+00 0. -1.
         13    1    4    4    0    0  0.80193642190E+01  0.36822925097E+02  0.66395130094E+03  0.66501998406E+03  0.10566000000E+00 0.  1.
    9000005    1    3    3    0    0 -0.42192848637E+02  0.47480763342E+02  0.17430615756E+03  0.18552168587E+03  0.10000000000E+01 0.  0.
    9000005    1    3    3    0    0  0.34741840674E+02 -0.39219899639E+02  0.33166675515E+03  0.33578122713E+03  0.10000000000E+01 0.  0.
<mgrwt>
<rscale>  0 0.11651745E+03</rscale>
<asrwt>0</asrwt>
<pdfrwt beam="2">  1        2 0.15288753E-02 0.12549159E+03</pdfrwt>
<pdfrwt beam="1">  1       -2 0.22622802E+00 0.12549159E+03</pdfrwt>
<totfact> 0.76637528E+02</totfact>
</mgrwt>
</event>
<event>
 8    3  0.7944584E-004  0.1500948E+03  0.7818608E-02  0.1209275E+00
         -2   -1    0    0    0  501 -0.00000000000E+00  0.00000000000E+00  0.15667651877E+03  0.15667651879E+03  0.25500000000E-02 0.  1.
          2   -1    0    0  501    0  0.00000000000E+00 -0.00000000000E+00 -0.12364756005E+03  0.12364756008E+03  0.25500000000E-02 0. -1.
         25    2    1    2    0    0 -0.51002485707E+02  0.65593689319E+02  0.42805018787E+02  0.15607923596E+03  0.12499869055E+03 0.  0.
         23    2    1    2    0    0  0.51002485707E+02 -0.65593689319E+02 -0.97760600720E+01  0.12424484290E+03  0.91855451717E+02 0.  0.
        -13    1    4    4    0    0 -0.88193412958E+01 -0.39423262296E+02  0.27677672403E+02  0.48969777461E+02  0.10566000000E+00 0.  1.
         13    1    4    4    0    0  0.59821827002E+02 -0.26170427024E+02 -0.37453732475E+02  0.75275065439E+02  0.10566000000E+00 0. -1.
    9000005    1    3    3    0    0 -0.13115945019E+02 -0.33165329947E+02  0.35048594602E+02  0.50013709198E+02  0.10000000000E+01 0.  0.
    9000005    1    3    3    0    0 -0.37886540687E+02  0.98759019266E+02  0.77564241850E+01  0.10606552676E+03  0.10000000000E+01 0.  0.
<mgrwt>
<rscale>  0 0.14305622E+03</rscale>
<asrwt>0</asrwt>
<pdfrwt beam="2">  1        2 0.19022702E-01 0.15009483E+03</pdfrwt>
<pdfrwt beam="1">  1       -2 0.24104080E-01 0.15009483E+03</pdfrwt>
<totfact> 0.42962848E+03</totfact>
</mgrwt>
</event>
<event>
 8    3  0.7944584E-004  0.1305837E+03  0.7818608E-02  0.1238160E+00
         -2   -1    0    0    0  501 -0.00000000000E+00  0.00000000000E+00  0.50972267083E+02  0.50972267146E+02  0.25500000000E-02 0. -1.
          2   -1    0    0  501    0  0.00000000000E+00 -0.00000000000E+00 -0.38800059134E+03  0.38800059135E+03  0.25500000000E-02 0.  1.
         25    2    1    2    0    0 -0.29574928322E+02 -0.23451296831E+02 -0.60518774586E+02  0.14392578096E+03  0.12500987416E+03 0.  0.
         23    2    1    2    0    0  0.29574928322E+02  0.23451296831E+02 -0.27650954967E+03  0.29504707754E+03  0.95763287312E+02 0.  0.
        -13    1    4    4    0    0  0.44327890453E+02 -0.15031410725E+02 -0.68313407782E+02  0.82810856941E+02  0.10566000000E+00 0. -1.
         13    1    4    4    0    0 -0.14752962131E+02  0.38482707556E+02 -0.20819614189E+03  0.21223622060E+03  0.10566000000E+00 0.  1.
    9000005    1    3    3    0    0  0.17669437759E+02  0.23714969808E+02  0.22656520816E+02  0.37268307705E+02  0.10000000000E+01 0.  0.
    9000005    1    3    3    0    0 -0.47244366081E+02 -0.47166266639E+02 -0.83175295402E+02  0.10665747325E+03  0.10000000000E+01 0.  0.
<mgrwt>
<rscale>  0 0.12304265E+03</rscale>
<asrwt>0</asrwt>
<pdfrwt beam="2">  1        2 0.59692397E-01 0.13058372E+03</pdfrwt>
<pdfrwt beam="1">  1       -2 0.78418875E-02 0.13058372E+03</pdfrwt>
<totfact> 0.76603614E+03</totfact>
</mgrwt>
</event>
<event>
 8    3  0.7944584E-004  0.1398752E+03  0.7818608E-02  0.1224056E+00
         -2   -1    0    0    0  501 -0.00000000000E+00  0.00000000000E+00  0.28352882473E+02  0.28352882587E+02  0.25500000000E-02 0.  1.
          2   -1    0    0  501    0  0.00000000000E+00 -0.00000000000E+00 -0.92939780114E+03  0.92939780115E+03  0.25500000000E-02 0. -1.
         25    2    1    2    0    0 -0.21329539987E+01 -0.62734884733E+02 -0.78154489577E+03  0.79396316142E+03  0.12499944933E+03 0.  0.
         23    2    1    2    0    0  0.21329539987E+01  0.62734884733E+02 -0.11950002290E+03  0.16378752231E+03  0.92767891737E+02 0.  0.
        -13    1    4    4    0    0  0.47297798211E+01  0.32332353751E+02  0.72037999227E+01  0.33461288284E+02  0.10566000000E+00 0.  1.
         13    1    4    4    0    0 -0.25968258224E+01  0.30402530982E+02 -0.12670382282E+03  0.13032623403E+03  0.10566000000E+00 0. -1.
    9000005    1    3    3    0    0  0.35265476103E+02  0.93885644197E+01 -0.48852954799E+03  0.48989174131E+03  0.10000000000E+01 0.  0.
    9000005    1    3    3    0    0 -0.37398430102E+02 -0.72123449152E+02 -0.29301534778E+03  0.30407142011E+03  0.10000000000E+01 0.  0.
<mgrwt>
<rscale>  0 0.13231807E+03</rscale>
<asrwt>0</asrwt>
<pdfrwt beam="2">  1        2 0.14298425E+00 0.13987522E+03</pdfrwt>
<pdfrwt beam="1">  1       -2 0.43619826E-02 0.13987522E+03</pdfrwt>
<totfact> 0.68049761E+03</totfact>
</mgrwt>
</event>
<event>
 8    3  0.7944584E-004  0.1370987E+03  0.7818608E-02  0.1227153E+00
          2   -1    0    0  501    0  0.00000000000E+00  0.00000000000E+00  0.45979873711E+03  0.45979873712E+03  0.25500000000E-02 0.  1.
         -2   -1    0    0    0  501 -0.00000000000E+00 -0.00000000000E+00 -0.47071322730E+02  0.47071322799E+02  0.25500000000E-02 0. -1.
         25    2    1    2    0    0 -0.47058363624E+02 -0.30945229218E+02  0.35652879192E+03  0.38198014401E+03  0.12499581652E+03 0.  0.
         23    2    1    2    0    0  0.47058363624E+02  0.30945229218E+02  0.56198622461E+02  0.12488991591E+03  0.96265825356E+02 0.  0.
        -13    1    4    4    0    0 -0.16593440513E+02  0.22271594793E+02 -0.12829972453E+02  0.30593881086E+02  0.10566000000E+00 0. -1.
         13    1    4    4    0    0  0.63651804137E+02  0.86736344247E+01  0.69028594914E+02  0.94296034826E+02  0.10566000000E+00 0.  1.
    9000005    1    3    3    0    0 -0.79747018924E+02  0.49511286959E+00  0.14349484441E+03  0.16416943241E+03  0.10000000000E+01 0.  0.
    9000005    1    3    3    0    0  0.32688655300E+02 -0.31440342088E+02  0.21303394751E+03  0.21781071160E+03  0.10000000000E+01 0.  0.
<mgrwt>
<rscale>  0 0.13020392E+03</rscale>
<asrwt>0</asrwt>
<pdfrwt beam="1">  1        2 0.70738268E-01 0.13709869E+03</pdfrwt>
<pdfrwt beam="2">  1       -2 0.72417418E-02 0.13709869E+03</pdfrwt>
<totfact> 0.72370297E+03</totfact>
</mgrwt>
</event>
<event>
 8    3  0.7944584E-004  0.1341186E+03  0.7818608E-02  0.1234766E+00
          2   -1    0    0  501    0  0.00000000000E+00  0.00000000000E+00  0.80590094208E+03  0.80590094208E+03  0.25500000000E-02 0. -1.
         -2   -1    0    0    0  501 -0.00000000000E+00 -0.00000000000E+00 -0.18348549463E+02  0.18348549640E+02  0.25500000000E-02 0.  1.
         25    2    1    2    0    0 -0.76690121117E+01  0.47994800332E+02  0.34545972366E+03  0.37058092967E+03  0.12500196060E+03 0.  0.
         23    2    1    2    0    0  0.76690121117E+01 -0.47994800332E+02  0.44209266895E+03  0.45366856206E+03  0.89481403941E+02 0.  0.
        -13    1    4    4    0    0 -0.21544774123E+02 -0.61773785503E+02  0.35034371398E+03  0.35639992559E+03  0.10566000000E+00 0.  1.
         13    1    4    4    0    0  0.29213786235E+02  0.13778985171E+02  0.91748954972E+02  0.97268636472E+02  0.10566000000E+00 0. -1.
    9000005    1    3    3    0    0 -0.39498561907E+02  0.25423519677E+02  0.32121087714E+03  0.32462889480E+03  0.10000000000E+01 0.  0.
    9000005    1    3    3    0    0  0.31829549796E+02  0.22571280655E+02  0.24248846519E+02  0.45952034864E+02  0.10000000000E+01 0.  0.
<mgrwt>
<rscale>  0 0.12519447E+03</rscale>
<asrwt>0</asrwt>
<pdfrwt beam="1">  1        2 0.12398479E+00 0.13411862E+03</pdfrwt>
<pdfrwt beam="2">  1       -2 0.28228530E-02 0.13411862E+03</pdfrwt>
<totfact> 0.15518690E+04</totfact>
</mgrwt>
</event>
<event>
 8    3  0.7944584E-004  0.4137173E+03  0.7818608E-02  0.1039886E+00
         -2   -1    0    0    0  501 -0.00000000000E+00  0.00000000000E+00  0.46130772951E+03  0.46130772952E+03  0.25500000000E-02 0.  1.
          2   -1    0    0  501    0  0.00000000000E+00 -0.00000000000E+00 -0.37479712081E+03  0.37479712082E+03  0.25500000000E-02 0. -1.
         25    2    1    2    0    0  0.12887932751E+03 -0.37272970752E+03  0.11785415024E+03  0.43017627056E+03  0.12499882838E+03 0.  0.
         23    2    1    2    0    0 -0.12887932751E+03  0.37272970752E+03 -0.31343541533E+02  0.40592857977E+03  0.90875070019E+02 0.  0.
        -13    1    4    4    0    0 -0.41840526335E+02  0.24822577767E+03 -0.33874412876E+02  0.25399636485E+03  0.10566000000E+00 0. -1.
         13    1    4    4    0    0 -0.87038801171E+02  0.12450392986E+03  0.25308713429E+01  0.15193221493E+03  0.10566000000E+00 0.  1.
    9000005    1    3    3    0    0  0.16172396897E+02  0.57347016831E+01  0.13144828369E+02  0.21638385745E+02  0.10000000000E+01 0.  0.
    9000005    1    3    3    0    0  0.11270693061E+03 -0.37846440921E+03  0.10470932187E+03  0.40853788482E+03  0.10000000000E+01 0.  0.
<mgrwt>
<rscale>  0 0.41144857E+03</rscale>
<asrwt>0</asrwt>
<pdfrwt beam="2">  1        2 0.57661096E-01 0.41371732E+03</pdfrwt>
<pdfrwt beam="1">  1       -2 0.70970420E-01 0.41371732E+03</pdfrwt>
<totfact> 0.15847326E+02</totfact>
</mgrwt>
</event>
<event>
 8    3  0.7944584E-004  0.1756985E+03  0.7818608E-02  0.1178172E+00
         -2   -1    0    0    0  501 -0.00000000000E+00  0.00000000000E+00  0.76673255235E+02  0.76673255278E+02  0.25500000000E-02 0.  1.
          2   -1    0    0  501    0  0.00000000000E+00 -0.00000000000E+00 -0.35203933513E+03  0.35203933514E+03  0.25500000000E-02 0. -1.
         25    2    1    2    0    0  0.65094993702E+02 -0.10491764940E+03 -0.14506321105E+03  0.22784486718E+03  0.12499950776E+03 0.  0.
         23    2    1    2    0    0 -0.65094993702E+02  0.10491764940E+03 -0.13030286885E+03  0.20086772324E+03  0.90132864414E+02 0.  0.
        -13    1    4    4    0    0 -0.42665526307E+02  0.36476036653E+01 -0.14047686177E+02  0.45066626216E+02  0.10566000000E+00 0. -1.
         13    1    4    4    0    0 -0.22429467395E+02  0.10127004574E+03 -0.11625518267E+03  0.15580109702E+03  0.10566000000E+00 0.  1.
    9000005    1    3    3    0    0 -0.20865937009E+02 -0.23886055231E+02 -0.93877672833E+02  0.99095652872E+02  0.10000000000E+01 0.  0.
    9000005    1    3    3    0    0  0.85960930711E+02 -0.81031594173E+02 -0.51185538220E+02  0.12874921431E+03  0.10000000000E+01 0.  0.
<mgrwt>
<rscale>  0 0.16968990E+03</rscale>
<asrwt>0</asrwt>
<pdfrwt beam="2">  1        2 0.54159897E-01 0.17569846E+03</pdfrwt>
<pdfrwt beam="1">  1       -2 0.11795886E-01 0.17569846E+03</pdfrwt>
<totfact> 0.45516563E+03</totfact>
</mgrwt>
</event>
<event>
 8    3  0.7944584E-004  0.1389264E+03  0.7818608E-02  0.1226362E+00
         -2   -1    0    0    0  501 -0.00000000000E+00  0.00000000000E+00  0.35891533198E+02  0.35891533288E+02  0.25500000000E-02 0.  1.
          2   -1    0    0  501    0  0.00000000000E+00 -0.00000000000E+00 -0.52401252013E+03  0.52401252013E+03  0.25500000000E-02 0. -1.
         25    2    1    2    0    0  0.60486569752E+02 -0.41298666060E+01 -0.14905443234E+03  0.20375907596E+03  0.12499942526E+03 0.  0.
         23    2    1    2    0    0 -0.60486569752E+02  0.41298666060E+01 -0.33906655459E+03  0.35614497747E+03  0.90539690825E+02 0.  0.
        -13    1    4    4    0    0 -0.39501618284E+02  0.36803283292E+02 -0.97259691263E+02  0.11123991288E+03  0.10566000000E+00 0.  1.
         13    1    4    4    0    0 -0.20984951468E+02 -0.32673416686E+02 -0.24180686333E+03  0.24490506459E+03  0.10566000000E+00 0. -1.
    9000005    1    3    3    0    0  0.38417724181E+02  0.49063618323E+02 -0.25309929418E+02  0.67266282054E+02  0.10000000000E+01 0.  0.
    9000005    1    3    3    0    0  0.22068845570E+02 -0.53193484928E+02 -0.12374450292E+03  0.13649279390E+03  0.10000000000E+01 0.  0.
<mgrwt>
<rscale>  0 0.13074019E+03</rscale>
<asrwt>0</asrwt>
<pdfrwt beam="2">  1        2 0.80617305E-01 0.13892637E+03</pdfrwt>
<pdfrwt beam="1">  1       -2 0.55217747E-02 0.13892637E+03</pdfrwt>
<totfact> 0.94823285E+03</totfact>
</mgrwt>
</event>
<event>
 8    3  0.7944584E-004  0.1559203E+03  0.7818608E-02  0.1202973E+00
          2   -1    0    0  501    0  0.00000000000E+00  0.00000000000E+00  0.38735010911E+02  0.38735010995E+02  0.25500000000E-02 0. -1.
         -2   -1    0    0    0  501 -0.00000000000E+00 -0.00000000000E+00 -0.56067219684E+03  0.56067219685E+03  0.25500000000E-02 0.  1.
         25    2    1    2    0    0 -0.10636774279E+02 -0.92595800182E+02 -0.20066009085E+03  0.25411733157E+03  0.12499609179E+03 0.  0.
         23    2    1    2    0    0  0.10636774279E+02  0.92595800182E+02 -0.32127709508E+03  0.34528987628E+03  0.85551175672E+02 0.  0.
        -13    1    4    4    0    0  0.44808750255E+01  0.75005245833E+02 -0.31750524730E+03  0.32627512680E+03  0.10566000000E+00 0.  1.
         13    1    4    4    0    0  0.61558992534E+01  0.17590554349E+02 -0.37718477816E+01  0.19014749477E+02  0.10566000000E+00 0. -1.
    9000005    1    3    3    0    0  0.35621610433E+02  0.72886529009E+01 -0.17362317395E+02  0.40304759722E+02  0.10000000000E+01 0.  0.
    9000005    1    3    3    0    0 -0.46258384712E+02 -0.99884453083E+02 -0.18329777346E+03  0.21381257184E+03  0.10000000000E+01 0.  0.
<mgrwt>
<rscale>  0 0.14798334E+03</rscale>
<asrwt>0</asrwt>
<pdfrwt beam="1">  1        2 0.59592329E-02 0.15592032E+03</pdfrwt>
<pdfrwt beam="2">  1       -2 0.86257255E-01 0.15592032E+03</pdfrwt>
<totfact> 0.14609170E+03</totfact>
</mgrwt>
</event>
<event>
 8    3  0.7944584E-004  0.1306294E+03  0.7818608E-02  0.1240181E+00
          2   -1    0    0  501    0  0.00000000000E+00  0.00000000000E+00  0.11029509090E+04  0.11029509090E+04  0.25500000000E-02 0. -1.
         -2   -1    0    0    0  501 -0.00000000000E+00 -0.00000000000E+00 -0.14970512730E+02  0.14970512947E+02  0.25500000000E-02 0.  1.
         25    2    1    2    0    0 -0.54858922583E+01  0.37523106573E+02  0.35393159925E+03  0.37726863547E+03  0.12500387125E+03 0.  0.
         23    2    1    2    0    0  0.54858922583E+01 -0.37523106573E+02  0.73404879701E+03  0.74065278646E+03  0.91108919210E+02 0.  0.
        -13    1    4    4    0    0  0.35489201709E+01 -0.45514201057E+02  0.73010835624E+03  0.73153425098E+03  0.10566000000E+00 0. -1.
         13    1    4    4    0    0  0.19369720874E+01  0.79910944840E+01  0.39404407689E+01  0.91185354859E+01  0.10566000000E+00 0.  1.
    9000005    1    3    3    0    0  0.32914493511E+02  0.65737391941E+02  0.14044309647E+03  0.15852454677E+03  0.10000000000E+01 0.  0.
    9000005    1    3    3    0    0 -0.38400385769E+02 -0.28214285368E+02  0.21348850277E+03  0.21874408870E+03  0.10000000000E+01 0.  0.
<mgrwt>
<rscale>  0 0.12178522E+03</rscale>
<asrwt>0</asrwt>
<pdfrwt beam="1">  1        2 0.16968476E+00 0.13062942E+03</pdfrwt>
<pdfrwt beam="2">  1       -2 0.23031558E-02 0.13062942E+03</pdfrwt>
<totfact> 0.13701541E+04</totfact>
</mgrwt>
</event>
<event>
 8    3  0.7944584E-004  0.1262194E+03  0.7818608E-02  0.1247740E+00
         -2   -1    0    0    0  501 -0.00000000000E+00  0.00000000000E+00  0.77850999384E+01  0.77851003560E+01  0.25500000000E-02 0.  1.
          2   -1    0    0  501    0  0.00000000000E+00 -0.00000000000E+00 -0.24598881651E+04  0.24598881651E+04  0.25500000000E-02 0. -1.
         25    2    1    2    0    0  0.17449911619E+02 -0.11409740932E+01 -0.20825758381E+04  0.20863972467E+04  0.12500219258E+03 0.  0.
         23    2    1    2    0    0 -0.17449911619E+02  0.11409740932E+01 -0.36952722704E+03  0.38127601878E+03  0.92278002473E+02 0.  0.
        -13    1    4    4    0    0 -0.34608830722E+02  0.23699317605E+02 -0.79680071987E+02  0.90046398344E+02  0.10566000000E+00 0.  1.
         13    1    4    4    0    0  0.17158919102E+02 -0.22558343511E+02 -0.28984715505E+03  0.29122962044E+03  0.10566000000E+00 0. -1.
    9000005    1    3    3    0    0  0.32225898494E+02  0.53816793601E+02 -0.14185040232E+04  0.14198906365E+04  0.10000000000E+01 0.  0.
    9000005    1    3    3    0    0 -0.14775986875E+02 -0.54957767694E+02 -0.66407181495E+03  0.66650661020E+03  0.10000000000E+01 0.  0.
<mgrwt>
<rscale>  0 0.11722888E+03</rscale>
<asrwt>0</asrwt>
<pdfrwt beam="2">  1        2 0.37844371E+00 0.12621945E+03</pdfrwt>
<pdfrwt beam="1">  1       -2 0.11977097E-02 0.12621945E+03</pdfrwt>
<totfact> 0.68763747E+03</totfact>
</mgrwt>
</event>
<event>
 8    3  0.7944584E-004  0.1530084E+03  0.7818608E-02  0.1205468E+00
          2   -1    0    0  501    0  0.00000000000E+00  0.00000000000E+00  0.71413559409E+03  0.71413559409E+03  0.25500000000E-02 0. -1.
         -2   -1    0    0    0  501 -0.00000000000E+00 -0.00000000000E+00 -0.53748617575E+02  0.53748617636E+02  0.25500000000E-02 0.  1.
         25    2    1    2    0    0 -0.89848579712E+01  0.87786060474E+02  0.61404496455E+03  0.63282130323E+03  0.12499785296E+03 0.  0.
         23    2    1    2    0    0  0.89848579712E+01 -0.87786060474E+02  0.46342011959E+02  0.13506290850E+03  0.91144320134E+02 0.  0.
        -13    1    4    4    0    0  0.27650452416E+02 -0.58334810889E+02 -0.13360277307E+02  0.65924243295E+02  0.10566000000E+00 0.  1.
         13    1    4    4    0    0 -0.18665594445E+02 -0.29451249585E+02  0.59702289266E+02  0.69138665201E+02  0.10566000000E+00 0. -1.
    9000005    1    3    3    0    0  0.45029016369E+02 -0.33193712446E+01  0.14069442084E+03  0.14776518736E+03  0.10000000000E+01 0.  0.
    9000005    1    3    3    0    0 -0.54013874341E+02  0.91105431719E+02  0.47335054371E+03  0.48505611587E+03  0.10000000000E+01 0.  0.
<mgrwt>
<rscale>  0 0.14600607E+03</rscale>
<asrwt>0</asrwt>
<pdfrwt beam="1">  1        2 0.10986701E+00 0.15300844E+03</pdfrwt>
<pdfrwt beam="2">  1       -2 0.82690182E-02 0.15300844E+03</pdfrwt>
<totfact> 0.35990376E+03</totfact>
</mgrwt>
</event>
<event>
 8    3  0.7944584E-004  0.1308939E+03  0.7818608E-02  0.1239234E+00
          2   -1    0    0  501    0  0.00000000000E+00  0.00000000000E+00  0.12865315014E+04  0.12865315014E+04  0.25500000000E-02 0. -1.
         -2   -1    0    0    0  501 -0.00000000000E+00 -0.00000000000E+00 -0.12056162277E+02  0.12056162546E+02  0.25500000000E-02 0.  1.
         25    2    1    2    0    0 -0.46914045929E+01 -0.38554323802E+02  0.95224198350E+03  0.96119614070E+03  0.12499912235E+03 0.  0.
         23    2    1    2    0    0  0.46914045929E+01  0.38554323802E+02  0.32223335565E+03  0.33739152328E+03  0.92142603210E+02 0.  0.
        -13    1    4    4    0    0  0.19930602576E+02 -0.52623382285E+01  0.12298274621E+02  0.24003746486E+02  0.10566000000E+00 0.  1.
         13    1    4    4    0    0 -0.15239197983E+02  0.43816662030E+02  0.30993508103E+03  0.31338777679E+03  0.10566000000E+00 0. -1.
    9000005    1    3    3    0    0 -0.33580243789E+02 -0.48383611456E+02  0.20405760482E+03  0.21238905979E+03  0.10000000000E+01 0.  0.
    9000005    1    3    3    0    0  0.28888839196E+02  0.98292876539E+01  0.74818437868E+03  0.74880708091E+03  0.10000000000E+01 0.  0.
<mgrwt>
<rscale>  0 0.12237216E+03</rscale>
<asrwt>0</asrwt>
<pdfrwt beam="1">  1        2 0.19792786E+00 0.13089395E+03</pdfrwt>
<pdfrwt beam="2">  1       -2 0.18547948E-02 0.13089395E+03</pdfrwt>
<totfact> 0.14846467E+04</totfact>
</mgrwt>
</event>
<event>
 8    3  0.7944584E-004  0.1437325E+03  0.7818608E-02  0.1219295E+00
          2   -1    0    0  501    0  0.00000000000E+00  0.00000000000E+00  0.39348958452E+04  0.39348958452E+04  0.25500000000E-02 0. -1.
         -2   -1    0    0    0  501 -0.00000000000E+00 -0.00000000000E+00 -0.42296937564E+01  0.42296945250E+01  0.25500000000E-02 0.  1.
         25    2    1    2    0    0  0.37774452799E+02  0.60052400316E+02  0.21081967513E+04  0.21130907604E+04  0.12500327743E+03 0.  0.
         23    2    1    2    0    0 -0.37774452799E+02 -0.60052400316E+02  0.18224694001E+04  0.18260347793E+04  0.89303420046E+02 0.  0.
        -13    1    4    4    0    0 -0.49801954016E+02 -0.65179018974E+02  0.96913752463E+03  0.97260274107E+03  0.10566000000E+00 0.  1.
         13    1    4    4    0    0  0.12027501217E+02  0.51266186581E+01  0.85333187547E+03  0.85343203822E+03  0.10566000000E+00 0. -1.
    9000005    1    3    3    0    0  0.43473650393E+02  0.29185003460E+02  0.29438230182E+03  0.29900445202E+03  0.10000000000E+01 0.  0.
    9000005    1    3    3    0    0 -0.56991975946E+01  0.30867396856E+02  0.18138144495E+04  0.18140863084E+04  0.10000000000E+01 0.  0.
<mgrwt>
<rscale>  0 0.13565747E+03</rscale>
<asrwt>0</asrwt>
<pdfrwt beam="1">  1        2 0.60536806E+00 0.14373246E+03</pdfrwt>
<pdfrwt beam="2">  1       -2 0.65072275E-03 0.14373246E+03</pdfrwt>
<totfact> 0.20512479E+03</totfact>
</mgrwt>
</event>
<event>
 8    3  0.7944584E-004  0.2004962E+03  0.7818608E-02  0.1153790E+00
         -2   -1    0    0    0  501 -0.00000000000E+00  0.00000000000E+00  0.35330206225E+02  0.35330206317E+02  0.25500000000E-02 0. -1.
          2   -1    0    0  501    0  0.00000000000E+00 -0.00000000000E+00 -0.10277327459E+04  0.10277327459E+04  0.25500000000E-02 0.  1.
         25    2    1    2    0    0 -0.16174487392E+02  0.15593243745E+03 -0.53978623837E+03  0.57581934579E+03  0.12498878656E+03 0.  0.
         23    2    1    2    0    0  0.16174487392E+02 -0.15593243745E+03 -0.45261630132E+03  0.48724360644E+03  0.89265204333E+02 0.  0.
        -13    1    4    4    0    0 -0.29643395940E+02 -0.89009130309E+02 -0.18231969301E+03  0.20504106375E+03  0.10566000000E+00 0.  1.
         13    1    4    4    0    0  0.45817883332E+02 -0.66923307140E+02 -0.27029660831E+03  0.28220254269E+03  0.10566000000E+00 0. -1.
    9000005    1    3    3    0    0  0.45197321128E+02  0.44679776480E+02 -0.10398330883E+03  0.12187127955E+03  0.10000000000E+01 0.  0.
    9000005    1    3    3    0    0 -0.61371808519E+02  0.11125266097E+03 -0.43580292954E+03  0.45394806625E+03  0.10000000000E+01 0.  0.
<mgrwt>
<rscale>  0 0.19527196E+03</rscale>
<asrwt>0</asrwt>
<pdfrwt beam="2">  1        2 0.15811271E+00 0.20049622E+03</pdfrwt>
<pdfrwt beam="1">  1       -2 0.54354171E-02 0.20049622E+03</pdfrwt>
<totfact> 0.43102202E+03</totfact>
</mgrwt>
</event>
<event>
 8    3  0.7944584E-004  0.1921718E+03  0.7818608E-02  0.1161482E+00
         -2   -1    0    0    0  501 -0.00000000000E+00  0.00000000000E+00  0.11318344250E+04  0.11318344250E+04  0.25500000000E-02 0.  1.
          2   -1    0    0  501    0  0.00000000000E+00 -0.00000000000E+00 -0.29229212534E+02  0.29229212646E+02  0.25500000000E-02 0. -1.
         25    2    1    2    0    0  0.89236358900E+02 -0.11550752283E+03  0.55456844636E+03  0.58692093226E+03  0.12499961379E+03 0.  0.
         23    2    1    2    0    0 -0.89236358900E+02  0.11550752283E+03  0.54803676609E+03  0.57414270537E+03  0.89389225100E+02 0.  0.
        -13    1    4    4    0    0 -0.96492668765E+02  0.60828019583E+02  0.40767450338E+03  0.42333130639E+03  0.10566000000E+00 0.  1.
         13    1    4    4    0    0  0.72563098644E+01  0.54679503249E+02  0.14036226271E+03  0.15081139899E+03  0.10566000000E+00 0. -1.
    9000005    1    3    3    0    0  0.66002246987E+02 -0.43893832337E+02  0.10756084108E+03  0.13361624025E+03  0.10000000000E+01 0.  0.
    9000005    1    3    3    0    0  0.23234111913E+02 -0.71613690495E+02  0.44700760527E+03  0.45330469201E+03  0.10000000000E+01 0.  0.
<mgrwt>
<rscale>  0 0.18668848E+03</rscale>
<asrwt>0</asrwt>
<pdfrwt beam="2">  1        2 0.44968018E-02 0.19217185E+03</pdfrwt>
<pdfrwt beam="1">  1       -2 0.17412838E+00 0.19217185E+03</pdfrwt>
<totfact> 0.38328882E+02</totfact>
</mgrwt>
</event>
<event>
 8    3  0.7944584E-004  0.1508418E+03  0.7818608E-02  0.1208752E+00
         -2   -1    0    0    0  501 -0.00000000000E+00  0.00000000000E+00  0.37117401234E+02  0.37117401322E+02  0.25500000000E-02 0.  1.
          2   -1    0    0  501    0  0.00000000000E+00 -0.00000000000E+00 -0.50705484376E+03  0.50705484377E+03  0.25500000000E-02 0. -1.
         25    2    1    2    0    0 -0.46936689551E+01 -0.84300558729E+02 -0.25000670489E+03  0.29198732349E+03  0.12499851942E+03 0.  0.
         23    2    1    2    0    0  0.46936689551E+01  0.84300558729E+02 -0.21993073764E+03  0.25218492160E+03  0.89994947616E+02 0.  0.
        -13    1    4    4    0    0 -0.10916195826E+02  0.84084245738E+02 -0.22082874584E+03  0.23654739454E+03  0.10566000000E+00 0.  1.
         13    1    4    4    0    0  0.15609864781E+02  0.21631299049E+00  0.89800820134E+00  0.15637527060E+02  0.10566000000E+00 0. -1.
    9000005    1    3    3    0    0 -0.21124423668E+02  0.29160477686E+02 -0.65849321961E+02  0.75058030462E+02  0.10000000000E+01 0.  0.
    9000005    1    3    3    0    0  0.16430754713E+02 -0.11346103641E+03 -0.18415738293E+03  0.21692929302E+03  0.10000000000E+01 0.  0.
<mgrwt>
<rscale>  0 0.14345661E+03</rscale>
<asrwt>0</asrwt>
<pdfrwt beam="2">  1        2 0.78008433E-01 0.15084179E+03</pdfrwt>
<pdfrwt beam="1">  1       -2 0.57103698E-02 0.15084179E+03</pdfrwt>
<totfact> 0.93969371E+03</totfact>
</mgrwt>
</event>
<event>
 8    3  0.7944584E-004  0.1807201E+03  0.7818608E-02  0.1172639E+00
          2   -1    0    0  501    0  0.00000000000E+00  0.00000000000E+00  0.57303598852E+03  0.57303598852E+03  0.25500000000E-02 0. -1.
         -2   -1    0    0    0  501 -0.00000000000E+00 -0.00000000000E+00 -0.52929973641E+02  0.52929973702E+02  0.25500000000E-02 0.  1.
         25    2    1    2    0    0 -0.42915799721E+02  0.12325692721E+03  0.20768967436E+03  0.27530849621E+03  0.12500292509E+03 0.  0.
         23    2    1    2    0    0  0.42915799721E+02 -0.12325692721E+03  0.31241634052E+03  0.35065746601E+03  0.91228573793E+02 0.  0.
        -13    1    4    4    0    0 -0.86884857132E+01 -0.15067175676E+01 -0.24481554744E+01  0.91523008626E+01  0.10566000000E+00 0. -1.
         13    1    4    4    0    0  0.51604285434E+02 -0.12175020964E+03  0.31486449599E+03  0.34150516515E+03  0.10566000000E+00 0.  1.
    9000005    1    3    3    0    0 -0.60661348441E+02  0.52437364967E+01  0.60859023139E+02  0.86093650547E+02  0.10000000000E+01 0.  0.
    9000005    1    3    3    0    0  0.17745548720E+02  0.11801319072E+03  0.14683065122E+03  0.18921484566E+03  0.10000000000E+01 0.  0.
<mgrwt>
<rscale>  0 0.17509207E+03</rscale>
<asrwt>0</asrwt>
<pdfrwt beam="1">  1        2 0.88159381E-01 0.18072014E+03</pdfrwt>
<pdfrwt beam="2">  1       -2 0.81430730E-02 0.18072014E+03</pdfrwt>
<totfact> 0.47966127E+03</totfact>
</mgrwt>
</event>
<event>
 8    3  0.7944584E-004  0.1507126E+03  0.7818608E-02  0.1209949E+00
          2   -1    0    0  501    0  0.00000000000E+00  0.00000000000E+00  0.20455120140E+02  0.20455120299E+02  0.25500000000E-02 0. -1.
         -2   -1    0    0    0  501 -0.00000000000E+00 -0.00000000000E+00 -0.12330830674E+04  0.12330830674E+04  0.25500000000E-02 0.  1.
         25    2    1    2    0    0 -0.77712033583E+02 -0.32410563282E+02 -0.33094890489E+03  0.36365019482E+03  0.12499872708E+03 0.  0.
         23    2    1    2    0    0  0.77712033583E+02  0.32410563282E+02 -0.88167904241E+03  0.88988799292E+03  0.86331346226E+02 0.  0.
        -13    1    4    4    0    0  0.56884920089E+02  0.62081227787E+02 -0.63560563189E+03  0.64115871937E+03  0.10566000000E+00 0.  1.
         13    1    4    4    0    0  0.20827113494E+02 -0.29670664505E+02 -0.24607341052E+03  0.24872927355E+03  0.10566000000E+00 0. -1.
    9000005    1    3    3    0    0 -0.43935303037E+01 -0.67887418719E+02 -0.12787183584E+03  0.14484547328E+03  0.10000000000E+01 0.  0.
    9000005    1    3    3    0    0 -0.73318503279E+02  0.35476855437E+02 -0.20307706905E+03  0.21880472154E+03  0.10000000000E+01 0.  0.
<mgrwt>
<rscale>  0 0.14254199E+03</rscale>
<asrwt>0</asrwt>
<pdfrwt beam="1">  1        2 0.31469425E-02 0.15071260E+03</pdfrwt>
<pdfrwt beam="2">  1       -2 0.18970503E+00 0.15071260E+03</pdfrwt>
<totfact> 0.48439478E+02</totfact>
</mgrwt>
</event>
<event>
 8    3  0.7944584E-004  0.1260267E+03  0.7818608E-02  0.1248750E+00
         -2   -1    0    0    0  501 -0.00000000000E+00  0.00000000000E+00  0.53375190712E+02  0.53375190773E+02  0.25500000000E-02 0.  1.
          2   -1    0    0  501    0  0.00000000000E+00 -0.00000000000E+00 -0.23240623572E+03  0.23240623573E+03  0.25500000000E-02 0. -1.
         25    2    1    2    0    0 -0.13128676837E+02 -0.92090186966E+01 -0.13025590398E+03  0.18124384459E+03  0.12500224998E+03 0.  0.
         23    2    1    2    0    0  0.13128676837E+02  0.92090186966E+01 -0.48775141029E+02  0.10453758191E+03  0.91059999281E+02 0.  0.
        -13    1    4    4    0    0  0.45452270622E+02 -0.16936666551E+02 -0.37922349299E+02  0.61570084610E+02  0.10566000000E+00 0. -1.
         13    1    4    4    0    0 -0.32323593784E+02  0.26145685247E+02 -0.10852791730E+02  0.42967497304E+02  0.10566000000E+00 0.  1.
    9000005    1    3    3    0    0  0.42015928287E+01 -0.52974524618E+02 -0.12249114603E+03  0.13352540768E+03  0.10000000000E+01 0.  0.
    9000005    1    3    3    0    0 -0.17330269666E+02  0.43765505921E+02 -0.77647579479E+01  0.47718436911E+02  0.10000000000E+01 0.  0.
<mgrwt>
<rscale>  0 0.11663716E+03</rscale>
<asrwt>0</asrwt>
<pdfrwt beam="2">  1        2 0.35754805E-01 0.12602671E+03</pdfrwt>
<pdfrwt beam="1">  1       -2 0.82115679E-02 0.12602671E+03</pdfrwt>
<totfact> 0.12253594E+04</totfact>
</mgrwt>
</event>
<event>
 8    3  0.7944584E-004  0.1565680E+03  0.7818608E-02  0.1202439E+00
         -2   -1    0    0    0  501 -0.00000000000E+00  0.00000000000E+00  0.14046517976E+02  0.14046518208E+02  0.25500000000E-02 0.  1.
          2   -1    0    0  501    0  0.00000000000E+00 -0.00000000000E+00 -0.14903699310E+04  0.14903699310E+04  0.25500000000E-02 0. -1.
         25    2    1    2    0    0  0.88779304182E+02  0.31716009825E+02 -0.65690161161E+03  0.67530233996E+03  0.12500341154E+03 0.  0.
         23    2    1    2    0    0 -0.88779304182E+02 -0.31716009825E+02 -0.81942180142E+03  0.82911410925E+03  0.84204794313E+02 0.  0.
        -13    1    4    4    0    0 -0.76924822990E+02 -0.42538222098E+02 -0.40719816545E+03  0.41657806692E+03  0.10566000000E+00 0.  1.
         13    1    4    4    0    0 -0.11854481192E+02  0.10822212273E+02 -0.41222363597E+03  0.41253604233E+03  0.10566000000E+00 0. -1.
    9000005    1    3    3    0    0  0.44625505078E+02 -0.34635832906E+02 -0.45077152154E+03  0.45429840552E+03  0.10000000000E+01 0.  0.
    9000005    1    3    3    0    0  0.44153799104E+02  0.66351842731E+02 -0.20613009007E+03  0.22100393444E+03  0.10000000000E+01 0.  0.
<mgrwt>
<rscale>  0 0.14841160E+03</rscale>
<asrwt>0</asrwt>
<pdfrwt beam="2">  1        2 0.22928756E+00 0.15656795E+03</pdfrwt>
<pdfrwt beam="1">  1       -2 0.21610040E-02 0.15656795E+03</pdfrwt>
<totfact> 0.93452613E+03</totfact>
</mgrwt>
</event>
<event>
 8    3  0.7944584E-004  0.2075264E+03  0.7818608E-02  0.1147336E+00
         -2   -1    0    0    0  501 -0.00000000000E+00  0.00000000000E+00  0.25523777760E+02  0.25523777887E+02  0.25500000000E-02 0.  1.
          2   -1    0    0  501    0  0.00000000000E+00 -0.00000000000E+00 -0.19385122642E+04  0.19385122642E+04  0.25500000000E-02 0. -1.
         25    2    1    2    0    0  0.12654645269E+03 -0.10690153685E+03 -0.14335451928E+04  0.14484885338E+04  0.12500107886E+03 0.  0.
         23    2    1    2    0    0 -0.12654645269E+03  0.10690153685E+03 -0.47944329367E+03  0.51554750824E+03  0.92094615134E+02 0.  0.
        -13    1    4    4    0    0 -0.30243993601E+02  0.82152232255E+02 -0.18274544323E+03  0.20263167719E+03  0.10566000000E+00 0.  1.
         13    1    4    4    0    0 -0.96302459087E+02  0.24749304595E+02 -0.29669785044E+03  0.31291583105E+03  0.10566000000E+00 0. -1.
    9000005    1    3    3    0    0  0.12267654625E+03 -0.99978058487E+02 -0.14315200793E+04  0.14402416064E+04  0.10000000000E+01 0.  0.
    9000005    1    3    3    0    0  0.38699064410E+01 -0.69234783623E+01 -0.20251134374E+01  0.82469274842E+01  0.10000000000E+01 0.  0.
<mgrwt>
<rscale>  0 0.20287436E+03</rscale>
<asrwt>0</asrwt>
<pdfrwt beam="2">  1        2 0.29823254E+00 0.20752642E+03</pdfrwt>
<pdfrwt beam="1">  1       -2 0.39267366E-02 0.20752642E+03</pdfrwt>
<totfact> 0.22682182E+03</totfact>
</mgrwt>
</event>
<event>
 8    3  0.7944584E-004  0.1330545E+03  0.7818608E-02  0.1239746E+00
          2   -1    0    0  501    0  0.00000000000E+00  0.00000000000E+00  0.63257601765E+03  0.63257601765E+03  0.25500000000E-02 0. -1.
         -2   -1    0    0    0  501 -0.00000000000E+00 -0.00000000000E+00 -0.21713306306E+02  0.21713306455E+02  0.25500000000E-02 0.  1.
         25    2    1    2    0    0  0.39906917702E+02  0.22051659151E+02  0.27555864404E+03  0.30600011620E+03  0.12499866824E+03 0.  0.
         23    2    1    2    0    0 -0.39906917702E+02 -0.22051659151E+02  0.33530406731E+03  0.34828920791E+03  0.82448268872E+02 0.  0.
        -13    1    4    4    0    0 -0.10553411121E+02 -0.47398654623E+02  0.24872152132E+03  0.25341746837E+03  0.10566000000E+00 0.  1.
         13    1    4    4    0    0 -0.29353506581E+02  0.25346995472E+02  0.86582545989E+02  0.94871739533E+02  0.10566000000E+00 0. -1.
    9000005    1    3    3    0    0  0.12817167509E+01  0.96834736897E+01 -0.12050159312E+02  0.15544092124E+02  0.10000000000E+01 0.  0.
    9000005    1    3    3    0    0  0.38625200951E+02  0.12368185461E+02  0.28760880335E+03  0.29045602408E+03  0.10000000000E+01 0.  0.
<mgrwt>
<rscale>  0 0.12205421E+03</rscale>
<asrwt>0</asrwt>
<pdfrwt beam="1">  1        2 0.97319397E-01 0.13305452E+03</pdfrwt>
<pdfrwt beam="2">  1       -2 0.33405083E-02 0.13305452E+03</pdfrwt>
<totfact> 0.16174523E+04</totfact>
</mgrwt>
</event>
<event>
 8    3  0.7944584E-004  0.3107007E+03  0.7818608E-02  0.1081461E+00
         -2   -1    0    0    0  501 -0.00000000000E+00  0.00000000000E+00  0.63891616402E+03  0.63891616402E+03  0.25500000000E-02 0.  1.
          2   -1    0    0  501    0  0.00000000000E+00 -0.00000000000E+00 -0.26134322287E+03  0.26134322289E+03  0.25500000000E-02 0. -1.
         25    2    1    2    0    0  0.27861627413E+03  0.57275943865E+02  0.49066657441E+03  0.58076555946E+03  0.12500954306E+03 0.  0.
         23    2    1    2    0    0 -0.27861627413E+03 -0.57275943865E+02 -0.11309363327E+03  0.31949382744E+03  0.91534550487E+02 0.  0.
        -13    1    4    4    0    0 -0.24048555667E+03 -0.65741292064E+02 -0.65203473438E+02  0.25769502238E+03  0.10566000000E+00 0.  1.
         13    1    4    4    0    0 -0.38130717462E+02  0.84653481994E+01 -0.47890159832E+02  0.61798805062E+02  0.10566000000E+00 0. -1.
    9000005    1    3    3    0    0  0.16676935369E+03  0.74650947801E+01  0.38268186577E+03  0.41750946739E+03  0.10000000000E+01 0.  0.
    9000005    1    3    3    0    0  0.11184692044E+03  0.49810849084E+02  0.10798470864E+03  0.16325609207E+03  0.10000000000E+01 0.  0.
<mgrwt>
<rscale>  0 0.30768386E+03</rscale>
<asrwt>0</asrwt>
<pdfrwt beam="2">  1        2 0.40206651E-01 0.31070074E+03</pdfrwt>
<pdfrwt beam="1">  1       -2 0.98294792E-01 0.31070074E+03</pdfrwt>
<totfact> 0.11394835E+02</totfact>
</mgrwt>
</event>
<event>
 8    3  0.7944584E-004  0.1329021E+03  0.7818608E-02  0.1236466E+00
         -2   -1    0    0    0  501 -0.00000000000E+00  0.00000000000E+00  0.34774850488E+02  0.34774850582E+02  0.25500000000E-02 0.  1.
          2   -1    0    0  501    0  0.00000000000E+00 -0.00000000000E+00 -0.39370617690E+03  0.39370617691E+03  0.25500000000E-02 0. -1.
         25    2    1    2    0    0 -0.36321908034E+02 -0.26849192099E+02 -0.20790006063E+03  0.24674968995E+03  0.12499125633E+03 0.  0.
         23    2    1    2    0    0  0.36321908034E+02  0.26849192099E+02 -0.15103126578E+03  0.18173133754E+03  0.90419443052E+02 0.  0.
        -13    1    4    4    0    0 -0.20455799968E+02  0.29271602496E+02 -0.96803798400E+02  0.10318068140E+03  0.10566000000E+00 0.  1.
         13    1    4    4    0    0  0.56777708003E+02 -0.24224103968E+01 -0.54227467384E+02  0.78550656147E+02  0.10566000000E+00 0. -1.
    9000005    1    3    3    0    0 -0.59535969580E+02 -0.31823624158E+02 -0.21212919435E+03  0.22261417256E+03  0.10000000000E+01 0.  0.
    9000005    1    3    3    0    0  0.23214061546E+02  0.49744320586E+01  0.42291337171E+01  0.24135517392E+02  0.10000000000E+01 0.  0.
<mgrwt>
<rscale>  0 0.12411040E+03</rscale>
<asrwt>0</asrwt>
<pdfrwt beam="2">  1        2 0.60570178E-01 0.13290212E+03</pdfrwt>
<pdfrwt beam="1">  1       -2 0.53499773E-02 0.13290212E+03</pdfrwt>
<totfact> 0.13517068E+04</totfact>
</mgrwt>
</event>
<event>
 8    3  0.7944584E-004  0.1260088E+03  0.7818608E-02  0.1247764E+00
          2   -1    0    0  501    0  0.00000000000E+00  0.00000000000E+00  0.18161063340E+03  0.18161063341E+03  0.25500000000E-02 0. -1.
         -2   -1    0    0    0  501 -0.00000000000E+00 -0.00000000000E+00 -0.68845633396E+02  0.68845633443E+02  0.25500000000E-02 0.  1.
         25    2    1    2    0    0  0.16355507145E+02  0.82233102954E+00  0.43098016064E+02  0.13317524219E+03  0.12494009485E+03 0.  0.
         23    2    1    2    0    0 -0.16355507145E+02 -0.82233102954E+00  0.69666983935E+02  0.11728102467E+03  0.92914860241E+02 0.  0.
        -13    1    4    4    0    0  0.19771127155E+02  0.28806025288E+02  0.19280543829E+01  0.34991614990E+02  0.10566000000E+00 0.  1.
         13    1    4    4    0    0 -0.36126634299E+02 -0.29628356317E+02  0.67738929552E+02  0.82289409676E+02  0.10566000000E+00 0. -1.
    9000005    1    3    3    0    0 -0.16974318165E+02 -0.54039381715E+02  0.14901623833E+01  0.56671005261E+02  0.10000000000E+01 0.  0.
    9000005    1    3    3    0    0  0.33329825310E+02  0.54861712745E+02  0.41607853681E+02  0.76504236931E+02  0.10000000000E+01 0.  0.
<mgrwt>
<rscale>  0 0.11721482E+03</rscale>
<asrwt>0</asrwt>
<pdfrwt beam="1">  1        2 0.27940097E-01 0.12600875E+03</pdfrwt>
<pdfrwt beam="2">  1       -2 0.10591636E-01 0.12600875E+03</pdfrwt>
<totfact> 0.10743729E+04</totfact>
</mgrwt>
</event>
<event>
 8    3  0.7944584E-004  0.1293746E+03  0.7818608E-02  0.1242111E+00
         -2   -1    0    0    0  501 -0.00000000000E+00  0.00000000000E+00  0.12577413986E+02  0.12577414245E+02  0.25500000000E-02 0.  1.
          2   -1    0    0  501    0  0.00000000000E+00 -0.00000000000E+00 -0.11423510414E+04  0.11423510414E+04  0.25500000000E-02 0. -1.
         25    2    1    2    0    0 -0.15101255204E+02 -0.29739188567E+02 -0.81922234300E+03  0.82937509175E+03  0.12500131323E+03 0.  0.
         23    2    1    2    0    0  0.15101255204E+02  0.29739188567E+02 -0.31055128438E+03  0.32555336385E+03  0.91817347181E+02 0.  0.
        -13    1    4    4    0    0  0.32599535894E+02 -0.26486163507E+01 -0.36376918120E+02  0.48918669698E+02  0.10566000000E+00 0.  1.
         13    1    4    4    0    0 -0.17498280691E+02  0.32387804917E+02 -0.27417436626E+03  0.27663469416E+03  0.10566000000E+00 0. -1.
    9000005    1    3    3    0    0 -0.22282150028E+01 -0.35110623794E+02 -0.81350656763E+03  0.81426755825E+03  0.10000000000E+01 0.  0.
    9000005    1    3    3    0    0 -0.12873040201E+02  0.53714352277E+01 -0.57157753660E+01  0.15107533500E+02  0.10000000000E+01 0.  0.
<mgrwt>
<rscale>  0 0.12059987E+03</rscale>
<asrwt>0</asrwt>
<pdfrwt beam="2">  1        2 0.17574623E+00 0.12937463E+03</pdfrwt>
<pdfrwt beam="1">  1       -2 0.19349877E-02 0.12937463E+03</pdfrwt>
<totfact> 0.16751146E+04</totfact>
</mgrwt>
</event>
<event>
 8    3  0.7944584E-004  0.1251349E+03  0.7818608E-02  0.1250972E+00
         -2   -1    0    0    0  501 -0.00000000000E+00  0.00000000000E+00  0.53448840320E+03  0.53448840321E+03  0.25500000000E-02 0.  1.
          2   -1    0    0  501    0  0.00000000000E+00 -0.00000000000E+00 -0.31795938234E+02  0.31795938336E+02  0.25500000000E-02 0. -1.
         25    2    1    2    0    0  0.59096361745E+01 -0.34476217622E+00  0.43703703905E+03  0.45459886435E+03  0.12499484510E+03 0.  0.
         23    2    1    2    0    0 -0.59096361745E+01  0.34476217622E+00  0.65655425912E+02  0.11168547719E+03  0.90155245014E+02 0.  0.
        -13    1    4    4    0    0  0.14784530843E+02  0.19721067160E+02  0.77227189325E+02  0.81065114428E+02  0.10566000000E+00 0.  1.
         13    1    4    4    0    0 -0.20694167017E+02 -0.19376304984E+02 -0.11571763413E+02  0.30620362766E+02  0.10566000000E+00 0. -1.
    9000005    1    3    3    0    0  0.22585859542E+02  0.59126431895E+02  0.22825276087E+03  0.23686785101E+03  0.10000000000E+01 0.  0.
    9000005    1    3    3    0    0 -0.16676223368E+02 -0.59471194071E+02  0.20878427819E+03  0.21773101334E+03  0.10000000000E+01 0.  0.
<mgrwt>
<rscale>  0 0.11534938E+03</rscale>
<asrwt>0</asrwt>
<pdfrwt beam="2">  1        2 0.48916829E-02 0.12513494E+03</pdfrwt>
<pdfrwt beam="1">  1       -2 0.82228984E-01 0.12513494E+03</pdfrwt>
<totfact> 0.20723371E+03</totfact>
</mgrwt>
</event>
<event>
 8    3  0.7944584E-004  0.2114619E+03  0.7818608E-02  0.1144137E+00
          2   -1    0    0  501    0  0.00000000000E+00  0.00000000000E+00  0.73936396064E+03  0.73936396064E+03  0.25500000000E-02 0. -1.
         -2   -1    0    0    0  501 -0.00000000000E+00 -0.00000000000E+00 -0.58408350919E+02  0.58408350975E+02  0.25500000000E-02 0.  1.
         25    2    1    2    0    0  0.14415381969E+03  0.91162394469E+02  0.26469727264E+03  0.33879311017E+03  0.12500087782E+03 0.  0.
         23    2    1    2    0    0 -0.14415381969E+03 -0.91162394469E+02  0.41625833708E+03  0.45897920145E+03  0.91104326355E+02 0.  0.
        -13    1    4    4    0    0 -0.22514334064E+02 -0.65208536559E+02  0.14713594608E+03  0.16250552689E+03  0.10566000000E+00 0.  1.
         13    1    4    4    0    0 -0.12163948563E+03 -0.25953857910E+02  0.26912239100E+03  0.29647367455E+03  0.10566000000E+00 0. -1.
    9000005    1    3    3    0    0  0.17954280744E+02 -0.30707573280E+02  0.36847214442E+02  0.51225271750E+02  0.10000000000E+01 0.  0.
    9000005    1    3    3    0    0  0.12619953895E+03  0.12186996775E+03  0.22785005820E+03  0.28756783842E+03  0.10000000000E+01 0.  0.
<mgrwt>
<rscale>  0 0.20678537E+03</rscale>
<asrwt>0</asrwt>
<pdfrwt beam="1">  1        2 0.11374830E+00 0.21146188E+03</pdfrwt>
<pdfrwt beam="2">  1       -2 0.89859002E-02 0.21146188E+03</pdfrwt>
<totfact> 0.30591173E+03</totfact>
</mgrwt>
</event>
<event>
 8    3  0.7944584E-004  0.1283608E+03  0.7818608E-02  0.1245901E+00
         -2   -1    0    0    0  501 -0.00000000000E+00  0.00000000000E+00  0.46054423942E+02  0.46054424012E+02  0.25500000000E-02 0.  1.
          2   -1    0    0  501    0  0.00000000000E+00 -0.00000000000E+00 -0.40804306746E+03  0.40804306747E+03  0.25500000000E-02 0. -1.
         25    2    1    2    0    0  0.28398181170E+02 -0.66876657590E+01 -0.33320098249E+03  0.35707055036E+03  0.12500120653E+03 0.  0.
         23    2    1    2    0    0 -0.28398181170E+02  0.66876657590E+01 -0.28787661033E+02  0.97026941128E+02  0.87944961821E+02 0.  0.
        -13    1    4    4    0    0  0.19621002046E+02  0.22972623344E+02  0.11436976962E+02  0.32303881356E+02  0.10566000000E+00 0.  1.
         13    1    4    4    0    0 -0.48019183216E+02 -0.16284957585E+02 -0.40224637995E+02  0.64723059772E+02  0.10566000000E+00 0. -1.
    9000005    1    3    3    0    0  0.31222934670E+02 -0.63087783694E+02 -0.15755934620E+03  0.17257139878E+03  0.10000000000E+01 0.  0.
    9000005    1    3    3    0    0 -0.28247535002E+01  0.56400117935E+02 -0.17564163629E+03  0.18449915158E+03  0.10000000000E+01 0.  0.
<mgrwt>
<rscale>  0 0.11831638E+03</rscale>
<asrwt>0</asrwt>
<pdfrwt beam="2">  1        2 0.62775854E-01 0.12836075E+03</pdfrwt>
<pdfrwt beam="1">  1       -2 0.70852963E-02 0.12836075E+03</pdfrwt>
<totfact> 0.84731520E+03</totfact>
</mgrwt>
</event>
<event>
 8    3  0.7944584E-004  0.1262938E+03  0.7818608E-02  0.1248159E+00
         -2   -1    0    0    0  501 -0.00000000000E+00  0.00000000000E+00  0.91664382127E+02  0.91664382163E+02  0.25500000000E-02 0. -1.
          2   -1    0    0  501    0  0.00000000000E+00 -0.00000000000E+00 -0.26117880731E+03  0.26117880732E+03  0.25500000000E-02 0.  1.
         25    2    1    2    0    0  0.17697804410E+02 -0.35054047557E+01  0.32546784996E+02  0.13042013723E+03  0.12499847534E+03 0.  0.
         23    2    1    2    0    0 -0.17697804410E+02  0.35054047557E+01 -0.20206121018E+03  0.22242305225E+03  0.91201871537E+02 0.  0.
        -13    1    4    4    0    0 -0.44585199343E+01 -0.22538888585E+02 -0.18904898166E+03  0.19044003920E+03  0.10566000000E+00 0.  1.
         13    1    4    4    0    0 -0.13239284476E+02  0.26044293341E+02 -0.13012228515E+02  0.31983013054E+02  0.10566000000E+00 0. -1.
    9000005    1    3    3    0    0 -0.31022301862E+01  0.55280173279E+02 -0.81189910452E+01  0.55968199948E+02  0.10000000000E+01 0.  0.
    9000005    1    3    3    0    0  0.20800034596E+02 -0.58785578034E+02  0.40665776042E+02  0.74451937282E+02  0.10000000000E+01 0.  0.
<mgrwt>
<rscale>  0 0.11698261E+03</rscale>
<asrwt>0</asrwt>
<pdfrwt beam="2">  1        2 0.40181355E-01 0.12629378E+03</pdfrwt>
<pdfrwt beam="1">  1       -2 0.14102213E-01 0.12629378E+03</pdfrwt>
<totfact> 0.46071273E+03</totfact>
</mgrwt>
</event>
<event>
 8    3  0.7944584E-004  0.1341945E+03  0.7818608E-02  0.1225000E+00
          2   -1    0    0  501    0  0.00000000000E+00  0.00000000000E+00  0.17268404892E+03  0.17268404894E+03  0.25500000000E-02 0. -1.
         -2   -1    0    0    0  501 -0.00000000000E+00 -0.00000000000E+00 -0.15216282090E+03  0.15216282092E+03  0.25500000000E-02 0.  1.
         25    2    1    2    0    0 -0.37383347070E+02  0.31394320128E+02 -0.87425490231E+02  0.16016047130E+03  0.12500016901E+03 0.  0.
         23    2    1    2    0    0  0.37383347070E+02 -0.31394320128E+02  0.10794671825E+03  0.16468639855E+03  0.11439404667E+03 0.  0.
        -13    1    4    4    0    0 -0.46207280297E+01 -0.22116623327E+02  0.11830250653E+03  0.12044081688E+03  0.10566000000E+00 0. -1.
         13    1    4    4    0    0  0.42004075099E+02 -0.92776968014E+01 -0.10355788282E+02  0.44245581676E+02  0.10566000000E+00 0.  1.
    9000005    1    3    3    0    0  0.24117753220E+02  0.58192664058E+02 -0.22784322778E+02  0.66993861920E+02  0.10000000000E+01 0.  0.
    9000005    1    3    3    0    0 -0.61501100290E+02 -0.26798343929E+02 -0.64641167453E+02  0.93166609383E+02  0.10000000000E+01 0.  0.
<mgrwt>
<rscale>  0 0.13166920E+03</rscale>
<asrwt>0</asrwt>
<pdfrwt beam="1">  1        2 0.26566777E-01 0.13419449E+03</pdfrwt>
<pdfrwt beam="2">  1       -2 0.23409665E-01 0.13419449E+03</pdfrwt>
<totfact> 0.30927404E+03</totfact>
</mgrwt>
</event>
<event>
 8    3  0.7944584E-004  0.1781364E+03  0.7818608E-02  0.1174975E+00
          2   -1    0    0  501    0  0.00000000000E+00  0.00000000000E+00  0.13463776943E+03  0.13463776946E+03  0.25500000000E-02 0. -1.
         -2   -1    0    0    0  501 -0.00000000000E+00 -0.00000000000E+00 -0.21120719548E+03  0.21120719550E+03  0.25500000000E-02 0.  1.
         25    2    1    2    0    0  0.11202805578E+02  0.12641940221E+03 -0.56602438297E+02  0.18691282728E+03  0.12500080349E+03 0.  0.
         23    2    1    2    0    0 -0.11202805578E+02 -0.12641940221E+03 -0.19966987750E+02  0.15893213767E+03  0.93559476694E+02 0.  0.
        -13    1    4    4    0    0  0.69259707194E+01 -0.14254474365E+02  0.30682286609E+02  0.34533650045E+02  0.10566000000E+00 0. -1.
         13    1    4    4    0    0 -0.18128776298E+02 -0.11216492784E+03 -0.50649274359E+02  0.12439848763E+03  0.10566000000E+00 0.  1.
    9000005    1    3    3    0    0  0.39343706080E+02  0.82953330276E+02  0.20456543790E+02  0.94067275903E+02  0.10000000000E+01 0.  0.
    9000005    1    3    3    0    0 -0.28140900502E+02  0.43466071929E+02 -0.77058982086E+02  0.92845551375E+02  0.10000000000E+01 0.  0.
<mgrwt>
<rscale>  0 0.17278408E+03</rscale>
<asrwt>0</asrwt>
<pdfrwt beam="1">  1        2 0.20713503E-01 0.17813638E+03</pdfrwt>
<pdfrwt beam="2">  1       -2 0.32493415E-01 0.17813638E+03</pdfrwt>
<totfact> 0.23077444E+03</totfact>
</mgrwt>
</event>
<event>
 8    3  0.7944584E-004  0.1368475E+03  0.7818608E-02  0.1229409E+00
         -2   -1    0    0    0  501 -0.00000000000E+00  0.00000000000E+00  0.25816747320E+02  0.25816747446E+02  0.25500000000E-02 0.  1.
          2   -1    0    0  501    0  0.00000000000E+00 -0.00000000000E+00 -0.61743182863E+03  0.61743182864E+03  0.25500000000E-02 0. -1.
         25    2    1    2    0    0 -0.47638713150E+02 -0.28856139313E+02 -0.41234082305E+03  0.43445618951E+03  0.12500040991E+03 0.  0.
         23    2    1    2    0    0  0.47638713150E+02  0.28856139313E+02 -0.17927425826E+03  0.20879238658E+03  0.91394076675E+02 0.  0.
        -13    1    4    4    0    0  0.69318237465E+02  0.50757032767E+01 -0.88803321835E+02  0.11276888730E+03  0.10566000000E+00 0.  1.
         13    1    4    4    0    0 -0.21679524315E+02  0.23780436037E+02 -0.90470936425E+02  0.96023499281E+02  0.10566000000E+00 0. -1.
    9000005    1    3    3    0    0 -0.47477105122E+02 -0.69282822812E+02 -0.35153760725E+03  0.36143308421E+03  0.10000000000E+01 0.  0.
    9000005    1    3    3    0    0 -0.16160802804E+00  0.40426683498E+02 -0.60803215800E+02  0.73023105299E+02  0.10000000000E+01 0.  0.
<mgrwt>
<rscale>  0 0.12869211E+03</rscale>
<asrwt>0</asrwt>
<pdfrwt beam="2">  1        2 0.94989501E-01 0.13684746E+03</pdfrwt>
<pdfrwt beam="1">  1       -2 0.39718078E-02 0.13684746E+03</pdfrwt>
<totfact> 0.12898992E+04</totfact>
</mgrwt>
</event>
<event>
 8    3  0.7944584E-004  0.1297947E+03  0.7818608E-02  0.1238760E+00
          2   -1    0    0  501    0  0.00000000000E+00  0.00000000000E+00  0.27286974495E+03  0.27286974496E+03  0.25500000000E-02 0.  1.
         -2   -1    0    0    0  501 -0.00000000000E+00 -0.00000000000E+00 -0.55209620027E+02  0.55209620086E+02  0.25500000000E-02 0. -1.
         25    2    1    2    0    0 -0.31045958589E+02  0.16036667470E+02  0.17053590001E+03  0.21431088200E+03  0.12500253879E+03 0.  0.
         23    2    1    2    0    0  0.31045958589E+02 -0.16036667470E+02  0.47124224905E+02  0.11376848304E+03  0.97475888876E+02 0.  0.
        -13    1    4    4    0    0 -0.97613789289E+01  0.34578152607E+02  0.29276210600E+02  0.46346961362E+02  0.10566000000E+00 0.  1.
         13    1    4    4    0    0  0.40807337518E+02 -0.50614820078E+02  0.17848014305E+02  0.67421521679E+02  0.10566000000E+00 0. -1.
    9000005    1    3    3    0    0 -0.19620605601E+02 -0.27133442000E+02 -0.43777108205E+01  0.33783963517E+02  0.10000000000E+01 0.  0.
    9000005    1    3    3    0    0 -0.11425352989E+02  0.43170109470E+02  0.17491361084E+03  0.18052691849E+03  0.10000000000E+01 0.  0.
<mgrwt>
<rscale>  0 0.12266766E+03</rscale>
<asrwt>0</asrwt>
<pdfrwt beam="1">  1        2 0.41979960E-01 0.12979469E+03</pdfrwt>
<pdfrwt beam="2">  1       -2 0.84937878E-02 0.12979469E+03</pdfrwt>
<totfact> 0.98289670E+03</totfact>
</mgrwt>
</event>
<event>
 8    3  0.7944584E-004  0.1430267E+03  0.7818608E-02  0.1219700E+00
         -2   -1    0    0    0  501 -0.00000000000E+00  0.00000000000E+00  0.35498151230E+03  0.35498151231E+03  0.25500000000E-02 0.  1.
          2   -1    0    0  501    0  0.00000000000E+00 -0.00000000000E+00 -0.47282544302E+02  0.47282544371E+02  0.25500000000E-02 0. -1.
         25    2    1    2    0    0  0.65649724573E+02  0.22740300671E+02  0.19066098394E+03  0.23834482626E+03  0.12501854980E+03 0.  0.
         23    2    1    2    0    0 -0.65649724573E+02 -0.22740300671E+02  0.11703798406E+03  0.16391923043E+03  0.91348873991E+02 0.  0.
        -13    1    4    4    0    0 -0.62259662596E+02 -0.40056190471E+02  0.38541274008E+02  0.83463794234E+02  0.10566000000E+00 0. -1.
         13    1    4    4    0    0 -0.33900619770E+01  0.17315889800E+02  0.78496710053E+02  0.80455436192E+02  0.10566000000E+00 0.  1.
    9000005    1    3    3    0    0  0.63165500899E+02  0.31260257389E+02  0.28645169094E+02  0.76083046129E+02  0.10000000000E+01 0.  0.
    9000005    1    3    3    0    0  0.24842236741E+01 -0.85199567181E+01  0.16201581485E+03  0.16226178013E+03  0.10000000000E+01 0.  0.
<mgrwt>
<rscale>  0 0.13536856E+03</rscale>
<asrwt>0</asrwt>
<pdfrwt beam="2">  1        2 0.72742378E-02 0.14302673E+03</pdfrwt>
<pdfrwt beam="1">  1       -2 0.54612538E-01 0.14302673E+03</pdfrwt>
<totfact> 0.29671092E+03</totfact>
</mgrwt>
</event>
<event>
 8    3  0.7944584E-004  0.1298382E+03  0.7818608E-02  0.1241906E+00
         -2   -1    0    0    0  501 -0.00000000000E+00  0.00000000000E+00  0.11524551475E+02  0.11524551757E+02  0.25500000000E-02 0.  1.
          2   -1    0    0  501    0  0.00000000000E+00 -0.00000000000E+00 -0.12949574185E+04  0.12949574185E+04  0.25500000000E-02 0. -1.
         25    2    1    2    0    0 -0.31370989507E+02  0.15787377906E+02 -0.96188535409E+03  0.97060877760E+03  0.12499833785E+03 0.  0.
         23    2    1    2    0    0  0.31370989507E+02 -0.15787377906E+02 -0.32154751296E+03  0.33587319268E+03  0.90468879659E+02 0.  0.
        -13    1    4    4    0    0 -0.97046933485E+01 -0.41978948371E+02 -0.97584103776E+02  0.10667277841E+03  0.10566000000E+00 0.  1.
         13    1    4    4    0    0  0.41075682856E+02  0.26191570465E+02 -0.22396340918E+03  0.22920041427E+03  0.10566000000E+00 0. -1.
    9000005    1    3    3    0    0  0.11054980529E+02  0.44105392941E+02 -0.79009043163E+03  0.79139837531E+03  0.10000000000E+01 0.  0.
    9000005    1    3    3    0    0 -0.42425970036E+02 -0.28318015035E+02 -0.17179492245E+03  0.17921040229E+03  0.10000000000E+01 0.  0.
<mgrwt>
<rscale>  0 0.12072487E+03</rscale>
<asrwt>0</asrwt>
<pdfrwt beam="2">  1        2 0.19922410E+00 0.12983823E+03</pdfrwt>
<pdfrwt beam="1">  1       -2 0.17730090E-02 0.12983823E+03</pdfrwt>
<totfact> 0.15674802E+04</totfact>
</mgrwt>
</event>
<event>
 8    3  0.7944584E-004  0.1271901E+03  0.7818608E-02  0.1245655E+00
         -2   -1    0    0    0  501 -0.00000000000E+00  0.00000000000E+00  0.45742628689E+02  0.45742628760E+02  0.25500000000E-02 0.  1.
          2   -1    0    0  501    0  0.00000000000E+00 -0.00000000000E+00 -0.34687303470E+03  0.34687303471E+03  0.25500000000E-02 0. -1.
         25    2    1    2    0    0  0.62905422549E+00  0.23494812446E+02 -0.76447814952E+02  0.14839672365E+03  0.12499966903E+03 0.  0.
         23    2    1    2    0    0 -0.62905422549E+00 -0.23494812446E+02 -0.22468259106E+03  0.24421893982E+03  0.92780503984E+02 0.  0.
        -13    1    4    4    0    0 -0.58489067793E+01 -0.14049917364E+02  0.36344001905E+01  0.15647041805E+02  0.10566000000E+00 0.  1.
         13    1    4    4    0    0  0.52198525538E+01 -0.94448950812E+01 -0.22831699125E+03  0.22857189802E+03  0.10566000000E+00 0. -1.
    9000005    1    3    3    0    0 -0.36752592097E+01 -0.51709973983E+02 -0.30486670096E+02  0.60148699015E+02  0.10000000000E+01 0.  0.
    9000005    1    3    3    0    0  0.43043134352E+01  0.75204786429E+02 -0.45961144856E+02  0.88248024637E+02  0.10000000000E+01 0.  0.
<mgrwt>
<rscale>  0 0.11846242E+03</rscale>
<asrwt>0</asrwt>
<pdfrwt beam="2">  1        2 0.53365080E-01 0.12719009E+03</pdfrwt>
<pdfrwt beam="1">  1       -2 0.70373277E-02 0.12719009E+03</pdfrwt>
<totfact> 0.10168470E+04</totfact>
</mgrwt>
</event>
<event>
 8    3  0.7944584E-004  0.1333231E+03  0.7818608E-02  0.1235097E+00
          2   -1    0    0  501    0  0.00000000000E+00  0.00000000000E+00  0.74471352579E+03  0.74471352580E+03  0.25500000000E-02 0. -1.
         -2   -1    0    0    0  501 -0.00000000000E+00 -0.00000000000E+00 -0.22423170578E+02  0.22423170723E+02  0.25500000000E-02 0.  1.
         25    2    1    2    0    0 -0.42261732456E+02  0.19082709672E+02  0.24560249802E+03  0.27945595072E+03  0.12499935008E+03 0.  0.
         23    2    1    2    0    0  0.42261732456E+02 -0.19082709672E+02  0.47668785720E+03  0.48768074580E+03  0.91929281459E+02 0.  0.
        -13    1    4    4    0    0  0.34319722379E+02 -0.52030899516E+02  0.38326192187E+03  0.38829726984E+03  0.10566000000E+00 0. -1.
         13    1    4    4    0    0  0.79420100771E+01  0.32948189844E+02  0.93425935328E+02  0.99383475960E+02  0.10566000000E+00 0.  1.
    9000005    1    3    3    0    0 -0.68851394646E+02  0.21118051566E+02  0.65394402053E+02  0.97282652444E+02  0.10000000000E+01 0.  0.
    9000005    1    3    3    0    0  0.26589662190E+02 -0.20353418934E+01  0.18020809597E+03  0.18217329827E+03  0.10000000000E+01 0.  0.
<mgrwt>
<rscale>  0 0.12498225E+03</rscale>
<asrwt>0</asrwt>
<pdfrwt beam="1">  1        2 0.11457130E+00 0.13332307E+03</pdfrwt>
<pdfrwt beam="2">  1       -2 0.34497188E-02 0.13332307E+03</pdfrwt>
<totfact> 0.12724838E+04</totfact>
</mgrwt>
</event>
<event>
 8    3  0.7944584E-004  0.1287236E+03  0.7818608E-02  0.1243409E+00
         -2   -1    0    0    0  501 -0.00000000000E+00  0.00000000000E+00  0.13955096851E+02  0.13955097084E+02  0.25500000000E-02 0.  1.
          2   -1    0    0  501    0  0.00000000000E+00 -0.00000000000E+00 -0.18805392002E+04  0.18805392002E+04  0.25500000000E-02 0. -1.
         25    2    1    2    0    0 -0.23021537825E+01  0.30640776947E+02 -0.16749184550E+04  0.16798576100E+04  0.12500240772E+03 0.  0.
         23    2    1    2    0    0  0.23021537825E+01 -0.30640776947E+02 -0.19166564835E+03  0.21463668726E+03  0.91591646112E+02 0.  0.
        -13    1    4    4    0    0  0.22681738849E+02 -0.52489132511E+02 -0.75610729517E+02  0.94797488843E+02  0.10566000000E+00 0.  1.
         13    1    4    4    0    0 -0.20379585066E+02  0.21848355563E+02 -0.11605491883E+03  0.11983919842E+03  0.10566000000E+00 0. -1.
    9000005    1    3    3    0    0 -0.35683914828E+02 -0.38120749208E+02 -0.65584791886E+03  0.65792402751E+03  0.10000000000E+01 0.  0.
    9000005    1    3    3    0    0  0.33381761046E+02  0.68761526155E+02 -0.10190705361E+04  0.10219335825E+04  0.10000000000E+01 0.  0.
<mgrwt>
<rscale>  0 0.11981117E+03</rscale>
<asrwt>0</asrwt>
<pdfrwt beam="2">  1        2 0.28931352E+00 0.12872358E+03</pdfrwt>
<pdfrwt beam="1">  1       -2 0.21469395E-02 0.12872358E+03</pdfrwt>
<totfact> 0.59065827E+03</totfact>
</mgrwt>
</event>
<event>
 8    3  0.7944584E-004  0.2214314E+03  0.7818608E-02  0.1136192E+00
         -2   -1    0    0    0  501 -0.00000000000E+00  0.00000000000E+00  0.23872835184E+03  0.23872835185E+03  0.25500000000E-02 0.  1.
          2   -1    0    0  501    0  0.00000000000E+00 -0.00000000000E+00 -0.23978274939E+03  0.23978274941E+03  0.25500000000E-02 0. -1.
         25    2    1    2    0    0 -0.12705514679E+03  0.13139370437E+03 -0.11002127205E+03  0.24725808081E+03  0.12499824938E+03 0.  0.
         23    2    1    2    0    0  0.12705514679E+03 -0.13139370437E+03  0.10896687449E+03  0.23125302045E+03  0.90536533280E+02 0.  0.
        -13    1    4    4    0    0  0.23692643036E+02 -0.65942939848E+02  0.78401444678E+02  0.10515041769E+03  0.10566000000E+00 0.  1.
         13    1    4    4    0    0  0.10336250375E+03 -0.65450764518E+02  0.30565429816E+02  0.12610260276E+03  0.10566000000E+00 0. -1.
    9000005    1    3    3    0    0 -0.21957503480E+01  0.36838640911E+02 -0.79545985568E+02  0.87695328290E+02  0.10000000000E+01 0.  0.
    9000005    1    3    3    0    0 -0.12485939644E+03  0.94555063454E+02 -0.30475286482E+02  0.15956275252E+03  0.10000000000E+01 0.  0.
<mgrwt>
<rscale>  0 0.21693098E+03</rscale>
<asrwt>0</asrwt>
<pdfrwt beam="2">  1        2 0.36889654E-01 0.22143143E+03</pdfrwt>
<pdfrwt beam="1">  1       -2 0.36727439E-01 0.22143143E+03</pdfrwt>
<totfact> 0.97731525E+02</totfact>
</mgrwt>
</event>
<event>
 8    3  0.7944584E-004  0.1267646E+03  0.7818608E-02  0.1247503E+00
         -2   -1    0    0    0  501 -0.00000000000E+00  0.00000000000E+00  0.28234051373E+02  0.28234051488E+02  0.25500000000E-02 0. -1.
          2   -1    0    0  501    0  0.00000000000E+00 -0.00000000000E+00 -0.63643120966E+03  0.63643120967E+03  0.25500000000E-02 0.  1.
         25    2    1    2    0    0  0.12942940889E+02  0.16656655346E+02 -0.14679749097E+03  0.19395558929E+03  0.12499721347E+03 0.  0.
         23    2    1    2    0    0 -0.12942940889E+02 -0.16656655346E+02 -0.46139966732E+03  0.47070967186E+03  0.90735760857E+02 0.  0.
        -13    1    4    4    0    0 -0.17540689683E+02  0.58014572413E+01 -0.43639895306E+03  0.43678986950E+03  0.10566000000E+00 0.  1.
         13    1    4    4    0    0  0.45977487941E+01 -0.22458112587E+02 -0.25000714254E+02  0.33919802361E+02  0.10566000000E+00 0. -1.
    9000005    1    3    3    0    0 -0.56039887757E+01  0.65689871178E+02 -0.11520704285E+03  0.13274120154E+03  0.10000000000E+01 0.  0.
    9000005    1    3    3    0    0  0.18546929664E+02 -0.49033215832E+02 -0.31590448123E+02  0.61214387749E+02  0.10000000000E+01 0.  0.
<mgrwt>
<rscale>  0 0.11736825E+03</rscale>
<asrwt>0</asrwt>
<pdfrwt beam="2">  1        2 0.97912483E-01 0.12676461E+03</pdfrwt>
<pdfrwt beam="1">  1       -2 0.43437007E-02 0.12676461E+03</pdfrwt>
<totfact> 0.10846168E+04</totfact>
</mgrwt>
</event>
<event>
 8    3  0.7944584E-004  0.1439836E+03  0.7818608E-02  0.1216716E+00
          2   -1    0    0  501    0  0.00000000000E+00  0.00000000000E+00  0.14847212202E+03  0.14847212205E+03  0.25500000000E-02 0. -1.
         -2   -1    0    0    0  501 -0.00000000000E+00 -0.00000000000E+00 -0.11747712884E+03  0.11747712887E+03  0.25500000000E-02 0.  1.
         25    2    1    2    0    0 -0.67999691155E+01  0.71134632031E+02  0.99900075408E+01  0.14432976063E+03  0.12499961640E+03 0.  0.
         23    2    1    2    0    0  0.67999691155E+01 -0.71134632031E+02  0.21004985641E+02  0.12161949028E+03  0.96144243410E+02 0.  0.
        -13    1    4    4    0    0 -0.26342757185E+02 -0.13754364746E+02  0.42585803817E+02  0.51929618297E+02  0.10566000000E+00 0. -1.
         13    1    4    4    0    0  0.33142726301E+02 -0.57380267285E+02 -0.21580818176E+02  0.69689871987E+02  0.10566000000E+00 0.  1.
    9000005    1    3    3    0    0  0.14904322314E+02  0.30196976848E+02  0.64507270914E+02  0.72774887394E+02  0.10000000000E+01 0.  0.
    9000005    1    3    3    0    0 -0.21704291430E+02  0.40937655183E+02 -0.54517263373E+02  0.71554873237E+02  0.10000000000E+01 0.  0.
<mgrwt>
<rscale>  0 0.13751232E+03</rscale>
<asrwt>0</asrwt>
<pdfrwt beam="1">  1        2 0.22841865E-01 0.14398361E+03</pdfrwt>
<pdfrwt beam="2">  1       -2 0.18073404E-01 0.14398361E+03</pdfrwt>
<totfact> 0.56966794E+03</totfact>
</mgrwt>
</event>
<event>
 8    3  0.7944584E-004  0.1487409E+03  0.7818608E-02  0.1211410E+00
         -2   -1    0    0    0  501 -0.00000000000E+00  0.00000000000E+00  0.28400911119E+02  0.28400911234E+02  0.25500000000E-02 0.  1.
          2   -1    0    0  501    0  0.00000000000E+00 -0.00000000000E+00 -0.71719690563E+03  0.71719690563E+03  0.25500000000E-02 0. -1.
         25    2    1    2    0    0 -0.64875252656E+02  0.47852144888E+02 -0.25631826468E+03  0.29634928351E+03  0.12500087539E+03 0.  0.
         23    2    1    2    0    0  0.64875252656E+02 -0.47852144888E+02 -0.43247772983E+03  0.44924853336E+03  0.91041923042E+02 0.  0.
        -13    1    4    4    0    0 -0.29151221001E+01  0.91711020656E+01 -0.20358026330E+03  0.20380760981E+03  0.10566000000E+00 0. -1.
         13    1    4    4    0    0  0.67790374756E+02 -0.57023246954E+02 -0.22889746653E+03  0.24544092355E+03  0.10566000000E+00 0.  1.
    9000005    1    3    3    0    0  0.16222587042E+02  0.46139155718E+02 -0.33677419240E+02  0.59389919914E+02  0.10000000000E+01 0.  0.
    9000005    1    3    3    0    0 -0.81097839698E+02  0.17129891696E+01 -0.22264084544E+03  0.23695936359E+03  0.10000000000E+01 0.  0.
<mgrwt>
<rscale>  0 0.14143558E+03</rscale>
<asrwt>0</asrwt>
<pdfrwt beam="2">  1        2 0.11033797E+00 0.14874087E+03</pdfrwt>
<pdfrwt beam="1">  1       -2 0.43693715E-02 0.14874087E+03</pdfrwt>
<totfact> 0.94384250E+03</totfact>
</mgrwt>
</event>
<event>
 8    3  0.7944584E-004  0.1476325E+03  0.7818608E-02  0.1213095E+00
         -2   -1    0    0    0  501 -0.00000000000E+00  0.00000000000E+00  0.50681963791E+02  0.50681963855E+02  0.25500000000E-02 0.  1.
          2   -1    0    0  501    0  0.00000000000E+00 -0.00000000000E+00 -0.49863561314E+03  0.49863561315E+03  0.25500000000E-02 0. -1.
         25    2    1    2    0    0 -0.42334571748E+02 -0.66188754941E+02 -0.38810425185E+03  0.41523520635E+03  0.12498879569E+03 0.  0.
         23    2    1    2    0    0  0.42334571748E+02  0.66188754941E+02 -0.59849397504E+02  0.13408237065E+03  0.90680562923E+02 0.  0.
        -13    1    4    4    0    0  0.15606155177E+02  0.49445148598E+02  0.14062096039E+02  0.53722700121E+02  0.10566000000E+00 0.  1.
         13    1    4    4    0    0  0.26728416570E+02  0.16743606343E+02 -0.73911493544E+02  0.80359670530E+02  0.10566000000E+00 0. -1.
    9000005    1    3    3    0    0  0.24617534893E+02  0.15109594702E+02 -0.17669071845E+03  0.17903891438E+03  0.10000000000E+01 0.  0.
    9000005    1    3    3    0    0 -0.66952106641E+02 -0.81298349643E+02 -0.21141353340E+03  0.23619629197E+03  0.10000000000E+01 0.  0.
<mgrwt>
<rscale>  0 0.14017394E+03</rscale>
<asrwt>0</asrwt>
<pdfrwt beam="2">  1        2 0.76713168E-01 0.14763254E+03</pdfrwt>
<pdfrwt beam="1">  1       -2 0.77972256E-02 0.14763254E+03</pdfrwt>
<totfact> 0.59361777E+03</totfact>
</mgrwt>
</event>
<event>
 8    3  0.7944584E-004  0.1331724E+03  0.7818608E-02  0.1241506E+00
          2   -1    0    0  501    0  0.00000000000E+00  0.00000000000E+00  0.42636505837E+03  0.42636505838E+03  0.25500000000E-02 0.  1.
         -2   -1    0    0    0  501 -0.00000000000E+00 -0.00000000000E+00 -0.33156075032E+02  0.33156075131E+02  0.25500000000E-02 0. -1.
         25    2    1    2    0    0  0.31854452950E+02  0.33067545330E+02  0.30597662814E+03  0.33370135703E+03  0.12500691978E+03 0.  0.
         23    2    1    2    0    0 -0.31854452950E+02 -0.33067545330E+02  0.87232355202E+02  0.12581977648E+03  0.78185443863E+02 0.  0.
        -13    1    4    4    0    0  0.19198904588E+02 -0.15907265079E+02  0.20225631760E+01  0.25014814520E+02  0.10566000000E+00 0. -1.
         13    1    4    4    0    0 -0.51053357538E+02 -0.17160280251E+02  0.85209792026E+02  0.10080496196E+03  0.10566000000E+00 0.  1.
    9000005    1    3    3    0    0 -0.30202424214E+02  0.41471498294E+02  0.22791427538E+03  0.23361932394E+03  0.10000000000E+01 0.  0.
    9000005    1    3    3    0    0  0.62056877164E+02 -0.84039529641E+01  0.78062352764E+02  0.10008203309E+03  0.10000000000E+01 0.  0.
<mgrwt>
<rscale>  0 0.12096987E+03</rscale>
<asrwt>0</asrwt>
<pdfrwt beam="1">  1        2 0.65594620E-01 0.13317244E+03</pdfrwt>
<pdfrwt beam="2">  1       -2 0.51009350E-02 0.13317244E+03</pdfrwt>
<totfact> 0.13336604E+04</totfact>
</mgrwt>
</event>
<event>
 8    3  0.7944584E-004  0.1507010E+03  0.7818608E-02  0.1208767E+00
          2   -1    0    0  501    0  0.00000000000E+00  0.00000000000E+00  0.17017132878E+04  0.17017132878E+04  0.25500000000E-02 0. -1.
         -2   -1    0    0    0  501 -0.00000000000E+00 -0.00000000000E+00 -0.11112104638E+02  0.11112104931E+02  0.25500000000E-02 0.  1.
         25    2    1    2    0    0 -0.82320789402E+02  0.17566162742E+02  0.87106895596E+03  0.88400900668E+03  0.12500206162E+03 0.  0.
         23    2    1    2    0    0  0.82320789402E+02 -0.17566162742E+02  0.81953222721E+03  0.82881638607E+03  0.90654552721E+02 0.  0.
        -13    1    4    4    0    0 -0.18597919817E+02 -0.10185487906E+02  0.19360859851E+03  0.19476634044E+03  0.10566000000E+00 0.  1.
         13    1    4    4    0    0  0.10091870922E+03 -0.73806748357E+01  0.62592362870E+03  0.63405004563E+03  0.10566000000E+00 0. -1.
    9000005    1    3    3    0    0  0.21276913590E+01  0.17332086775E+02  0.59623561774E+03  0.59649211240E+03  0.10000000000E+01 0.  0.
    9000005    1    3    3    0    0 -0.84448480761E+02  0.23407596743E+00  0.27483333823E+03  0.28751689428E+03  0.10000000000E+01 0.  0.
<mgrwt>
<rscale>  0 0.14344523E+03</rscale>
<asrwt>0</asrwt>
<pdfrwt beam="1">  1        2 0.26180216E+00 0.15070102E+03</pdfrwt>
<pdfrwt beam="2">  1       -2 0.17095538E-02 0.15070102E+03</pdfrwt>
<totfact> 0.10194629E+04</totfact>
</mgrwt>
</event>
<event>
 8    3  0.7944584E-004  0.1380868E+03  0.7818608E-02  0.1228756E+00
          2   -1    0    0  501    0  0.00000000000E+00  0.00000000000E+00  0.18926776039E+04  0.18926776039E+04  0.25500000000E-02 0. -1.
         -2   -1    0    0    0  501 -0.00000000000E+00 -0.00000000000E+00 -0.79161694206E+01  0.79161698313E+01  0.25500000000E-02 0.  1.
         25    2    1    2    0    0 -0.53957374037E+02 -0.23056848925E+02  0.11573401766E+04  0.11655489096E+04  0.12499983972E+03 0.  0.
         23    2    1    2    0    0  0.53957374037E+02  0.23056848925E+02  0.72742125788E+03  0.73504486408E+03  0.87785245330E+02 0.  0.
        -13    1    4    4    0    0  0.21631096835E+02 -0.23369792069E+02  0.97066171516E+02  0.10215627415E+03  0.10566000000E+00 0.  1.
         13    1    4    4    0    0  0.32326277202E+02  0.46426640994E+02  0.63035508636E+03  0.63288858993E+03  0.10566000000E+00 0. -1.
    9000005    1    3    3    0    0 -0.25528314114E+02 -0.51898240733E+02  0.10362306331E+04  0.10378439416E+04  0.10000000000E+01 0.  0.
    9000005    1    3    3    0    0 -0.28429059923E+02  0.28841391809E+02  0.12110954345E+03  0.12770496797E+03  0.10000000000E+01 0.  0.
<mgrwt>
<rscale>  0 0.12912788E+03</rscale>
<asrwt>0</asrwt>
<pdfrwt beam="1">  1        2 0.29118136E+00 0.13808684E+03</pdfrwt>
<pdfrwt beam="2">  1       -2 0.12178714E-02 0.13808684E+03</pdfrwt>
<totfact> 0.13231278E+04</totfact>
</mgrwt>
</event>
<event>
 8    3  0.7944584E-004  0.1370588E+03  0.7818608E-02  0.1229395E+00
         -2   -1    0    0    0  501 -0.00000000000E+00  0.00000000000E+00  0.27829996054E+02  0.27829996171E+02  0.25500000000E-02 0. -1.
          2   -1    0    0  501    0  0.00000000000E+00 -0.00000000000E+00 -0.54987848291E+03  0.54987848291E+03  0.25500000000E-02 0.  1.
         25    2    1    2    0    0  0.27330698696E+02 -0.49132028247E+02 -0.24274280553E+03  0.27876364942E+03  0.12499671719E+03 0.  0.
         23    2    1    2    0    0 -0.27330698696E+02  0.49132028247E+02 -0.27930568132E+03  0.29894482967E+03  0.90528582642E+02 0.  0.
        -13    1    4    4    0    0  0.87277750510E+01  0.13968385313E+02 -0.22216811993E+03  0.22277785914E+03  0.10566000000E+00 0.  1.
         13    1    4    4    0    0 -0.36058473747E+02  0.35163642934E+02 -0.57137561390E+02  0.76166970526E+02  0.10566000000E+00 0. -1.
    9000005    1    3    3    0    0 -0.13354704609E+02 -0.77946813867E+02 -0.99587806578E+02  0.12717226563E+03  0.10000000000E+01 0.  0.
    9000005    1    3    3    0    0  0.40685403305E+02  0.28814785620E+02 -0.14315499895E+03  0.15159138378E+03  0.10000000000E+01 0.  0.
<mgrwt>
<rscale>  0 0.12870189E+03</rscale>
<asrwt>0</asrwt>
<pdfrwt beam="2">  1        2 0.84596682E-01 0.13705876E+03</pdfrwt>
<pdfrwt beam="1">  1       -2 0.42815383E-02 0.13705876E+03</pdfrwt>
<totfact> 0.13151490E+04</totfact>
</mgrwt>
</event>
<event>
 8    3  0.7944584E-004  0.1811400E+03  0.7818608E-02  0.1172290E+00
          2   -1    0    0  501    0  0.00000000000E+00  0.00000000000E+00  0.86562984810E+03  0.86562984811E+03  0.25500000000E-02 0. -1.
         -2   -1    0    0    0  501 -0.00000000000E+00 -0.00000000000E+00 -0.33628537155E+02  0.33628537252E+02  0.25500000000E-02 0.  1.
         25    2    1    2    0    0  0.14310776804E+02  0.13031686368E+03  0.47112987158E+03  0.50475245193E+03  0.12499759415E+03 0.  0.
         23    2    1    2    0    0 -0.14310776804E+02 -0.13031686368E+03  0.36087143937E+03  0.39450593343E+03  0.90661196023E+02 0.  0.
        -13    1    4    4    0    0 -0.25396042002E+02 -0.13982852577E+03  0.34393774804E+03  0.37214266251E+03  0.10566000000E+00 0. -1.
         13    1    4    4    0    0  0.11085265198E+02  0.95116620858E+01  0.16933691328E+02  0.22363270919E+02  0.10566000000E+00 0.  1.
    9000005    1    3    3    0    0 -0.22135052331E+02 -0.17864311397E+02  0.79560180789E+02  0.84498026785E+02  0.10000000000E+01 0.  0.
    9000005    1    3    3    0    0  0.36445829135E+02  0.14818117508E+03  0.39156969079E+03  0.42025442515E+03  0.10000000000E+01 0.  0.
<mgrwt>
<rscale>  0 0.17544027E+03</rscale>
<asrwt>0</asrwt>
<pdfrwt beam="1">  1        2 0.13317384E+00 0.18113995E+03</pdfrwt>
<pdfrwt beam="2">  1       -2 0.51736204E-02 0.18113995E+03</pdfrwt>
<totfact> 0.58444935E+03</totfact>
</mgrwt>
</event>
<event>
 8    3  0.7944584E-004  0.2688502E+03  0.7818608E-02  0.1103920E+00
         -2   -1    0    0    0  501 -0.00000000000E+00  0.00000000000E+00  0.33973488930E+03  0.33973488931E+03  0.25500000000E-02 0.  1.
          2   -1    0    0  501    0  0.00000000000E+00 -0.00000000000E+00 -0.20614823549E+03  0.20614823550E+03  0.25500000000E-02 0. -1.
         25    2    1    2    0    0 -0.22084538800E+03 -0.88785687841E+02  0.10582217708E+03  0.28892694616E+03  0.12499945317E+03 0.  0.
         23    2    1    2    0    0  0.22084538800E+03  0.88785687841E+02  0.27764476736E+02  0.25695617865E+03  0.92736334907E+02 0.  0.
        -13    1    4    4    0    0  0.12801715171E+03  0.68667279511E+02  0.59251861933E+02  0.15688970876E+03  0.10566000000E+00 0.  1.
         13    1    4    4    0    0  0.92828236284E+02  0.20118408331E+02 -0.31487385197E+02  0.10006646989E+03  0.10566000000E+00 0. -1.
    9000005    1    3    3    0    0 -0.13585193860E+03  0.51881412187E+01  0.23901421094E+02  0.13803964633E+03  0.10000000000E+01 0.  0.
    9000005    1    3    3    0    0 -0.84993449401E+02 -0.93973829060E+02  0.81920755982E+02  0.15088729983E+03  0.10000000000E+01 0.  0.
<mgrwt>
<rscale>  0 0.26543613E+03</rscale>
<asrwt>0</asrwt>
<pdfrwt beam="2">  1        2 0.31715114E-01 0.26885023E+03</pdfrwt>
<pdfrwt beam="1">  1       -2 0.52266905E-01 0.26885023E+03</pdfrwt>
<totfact> 0.58080096E+02</totfact>
</mgrwt>
</event>
<event>
 8    3  0.7944584E-004  0.1486947E+03  0.7818608E-02  0.1221734E+00
          2   -1    0    0  501    0  0.00000000000E+00  0.00000000000E+00  0.87939832762E+03  0.87939832762E+03  0.25500000000E-02 0.  1.
         -2   -1    0    0    0  501 -0.00000000000E+00 -0.00000000000E+00 -0.24598948576E+02  0.24598948708E+02  0.25500000000E-02 0. -1.
         25    2    1    2    0    0  0.80397630048E+02 -0.45892609273E+01  0.24650807778E+03  0.28788252863E+03  0.12500111057E+03 0.  0.
         23    2    1    2    0    0 -0.80397630048E+02  0.45892609273E+01  0.60829130126E+03  0.61611474771E+03  0.55625847550E+02 0.  0.
        -13    1    4    4    0    0 -0.60363036763E+02 -0.21131134703E+02  0.44794459024E+03  0.45248711380E+03  0.10566000000E+00 0. -1.
         13    1    4    4    0    0 -0.20034593285E+02  0.25720395630E+02  0.16034671102E+03  0.16362763391E+03  0.10566000000E+00 0.  1.
    9000005    1    3    3    0    0  0.10423519606E+03  0.74362767307E+01  0.12246022119E+03  0.16098999995E+03  0.10000000000E+01 0.  0.
    9000005    1    3    3    0    0 -0.23837566014E+02 -0.12025537658E+02  0.12404785659E+03  0.12689252868E+03  0.10000000000E+01 0.  0.
<mgrwt>
<rscale>  0 0.13393285E+03</rscale>
<asrwt>0</asrwt>
<pdfrwt beam="1">  1        2 0.13529204E+00 0.14869471E+03</pdfrwt>
<pdfrwt beam="2">  1       -2 0.37844538E-02 0.14869471E+03</pdfrwt>
<totfact> 0.90687542E+03</totfact>
</mgrwt>
</event>
<event>
 8    3  0.7944584E-004  0.1600359E+03  0.7818608E-02  0.1196244E+00
         -2   -1    0    0    0  501 -0.00000000000E+00  0.00000000000E+00  0.26144357775E+02  0.26144357900E+02  0.25500000000E-02 0.  1.
          2   -1    0    0  501    0  0.00000000000E+00 -0.00000000000E+00 -0.88129565108E+03  0.88129565109E+03  0.25500000000E-02 0. -1.
         25    2    1    2    0    0 -0.28467317409E+02  0.95792801746E+02 -0.56518912968E+03  0.58740976912E+03  0.12499934209E+03 0.  0.
         23    2    1    2    0    0  0.28467317409E+02 -0.95792801746E+02 -0.28996216362E+03  0.32003023986E+03  0.91403769431E+02 0.  0.
        -13    1    4    4    0    0 -0.44054784018E+00 -0.19935000503E+02 -0.10918561128E+01  0.19970018560E+02  0.10566000000E+00 0.  1.
         13    1    4    4    0    0  0.28907865250E+02 -0.75857801243E+02 -0.28887030751E+03  0.30006022130E+03  0.10566000000E+00 0. -1.
    9000005    1    3    3    0    0 -0.29645727374E+01  0.94014551868E+02 -0.54929320634E+03  0.55728946804E+03  0.10000000000E+01 0.  0.
    9000005    1    3    3    0    0 -0.25502744672E+02  0.17782498779E+01 -0.15895923339E+02  0.30120301081E+02  0.10000000000E+01 0.  0.
<mgrwt>
<rscale>  0 0.15349414E+03</rscale>
<asrwt>0</asrwt>
<pdfrwt beam="2">  1        2 0.13558392E+00 0.16003589E+03</pdfrwt>
<pdfrwt beam="1">  1       -2 0.40222096E-02 0.16003589E+03</pdfrwt>
<totfact> 0.82907766E+03</totfact>
</mgrwt>
</event>
<event>
 8    3  0.7944584E-004  0.1338479E+03  0.7818608E-02  0.1236454E+00
          2   -1    0    0  501    0  0.00000000000E+00  0.00000000000E+00  0.38191219693E+03  0.38191219694E+03  0.25500000000E-02 0. -1.
         -2   -1    0    0    0  501 -0.00000000000E+00 -0.00000000000E+00 -0.42827696800E+02  0.42827696875E+02  0.25500000000E-02 0.  1.
         25    2    1    2    0    0 -0.22986757575E+02  0.41975605403E+02  0.10345434874E+03  0.16916877795E+03  0.12499972274E+03 0.  0.
         23    2    1    2    0    0  0.22986757575E+02 -0.41975605403E+02  0.23563015139E+03  0.25557111587E+03  0.86629582412E+02 0.  0.
        -13    1    4    4    0    0  0.18819262650E+02 -0.44542755221E+02  0.48879739547E+02  0.68756539991E+02  0.10566000000E+00 0.  1.
         13    1    4    4    0    0  0.41674949257E+01  0.25671498181E+01  0.18675041184E+03  0.18681457588E+03  0.10566000000E+00 0. -1.
    9000005    1    3    3    0    0 -0.15106011007E+02  0.45258214756E+02 -0.15290806386E+02  0.50112935769E+02  0.10000000000E+01 0.  0.
    9000005    1    3    3    0    0 -0.78807465683E+01 -0.32826093525E+01  0.11874515513E+03  0.11905584218E+03  0.10000000000E+01 0.  0.
<mgrwt>
<rscale>  0 0.12411792E+03</rscale>
<asrwt>0</asrwt>
<pdfrwt beam="1">  1        2 0.58755721E-01 0.13384795E+03</pdfrwt>
<pdfrwt beam="2">  1       -2 0.65888766E-02 0.13384795E+03</pdfrwt>
<totfact> 0.10189804E+04</totfact>
</mgrwt>
</event>
<event>
 8    3  0.7944584E-004  0.1709788E+03  0.7818608E-02  0.1188671E+00
          2   -1    0    0  501    0  0.00000000000E+00  0.00000000000E+00  0.39668178428E+03  0.39668178429E+03  0.25500000000E-02 0. -1.
         -2   -1    0    0    0  501 -0.00000000000E+00 -0.00000000000E+00 -0.83443129523E+02  0.83443129562E+02  0.25500000000E-02 0.  1.
         25    2    1    2    0    0 -0.11157656785E+03 -0.34030301021E+02  0.37898844797E+02  0.17512875679E+03  0.12500546843E+03 0.  0.
         23    2    1    2    0    0  0.11157656785E+03  0.34030301021E+02  0.27533980996E+03  0.30499615706E+03  0.60027102151E+02 0.  0.
        -13    1    4    4    0    0  0.82284877361E+02  0.45924836319E+02  0.16285795044E+03  0.18815582590E+03  0.10566000000E+00 0.  1.
         13    1    4    4    0    0  0.29291690490E+02 -0.11894535298E+02  0.11248185952E+03  0.11684033116E+03  0.10566000000E+00 0. -1.
    9000005    1    3    3    0    0  0.24710914093E+02 -0.12918156237E+02 -0.92192848321E+01  0.29385425787E+02  0.10000000000E+01 0.  0.
    9000005    1    3    3    0    0 -0.13628748194E+03 -0.21112144785E+02  0.47118129629E+02  0.14574333100E+03  0.10000000000E+01 0.  0.
<mgrwt>
<rscale>  0 0.16002263E+03</rscale>
<asrwt>0</asrwt>
<pdfrwt beam="1">  1        2 0.61027966E-01 0.17097883E+03</pdfrwt>
<pdfrwt beam="2">  1       -2 0.12837405E-01 0.17097883E+03</pdfrwt>
<totfact> 0.34898776E+03</totfact>
</mgrwt>
</event>
<event>
 8    3  0.7944584E-004  0.1338305E+03  0.7818608E-02  0.1235209E+00
         -2   -1    0    0    0  501 -0.00000000000E+00  0.00000000000E+00  0.19115889346E+02  0.19115889516E+02  0.25500000000E-02 0. -1.
          2   -1    0    0  501    0  0.00000000000E+00 -0.00000000000E+00 -0.12105620042E+04  0.12105620042E+04  0.25500000000E-02 0.  1.
         25    2    1    2    0    0 -0.30250218914E+02  0.37019903646E+02 -0.25727094469E+03  0.28999816375E+03  0.12500018794E+03 0.  0.
         23    2    1    2    0    0  0.30250218914E+02 -0.37019903646E+02 -0.93417517012E+03  0.93967972993E+03  0.89605788657E+02 0.  0.
        -13    1    4    4    0    0  0.39616443017E+02 -0.36559549610E+02 -0.92496736692E+03  0.92653694165E+03  0.10566000000E+00 0.  1.
         13    1    4    4    0    0 -0.93662241034E+01 -0.46035403630E+00 -0.92078032057E+01  0.13142788277E+02  0.10566000000E+00 0. -1.
    9000005    1    3    3    0    0 -0.68191679772E+02  0.58486705176E+02 -0.18323205859E+03  0.20407299470E+03  0.10000000000E+01 0.  0.
    9000005    1    3    3    0    0  0.37941460858E+02 -0.21466801530E+02 -0.74038886102E+02  0.85925169044E+02  0.10000000000E+01 0.  0.
<mgrwt>
<rscale>  0 0.12491040E+03</rscale>
<asrwt>0</asrwt>
<pdfrwt beam="2">  1        2 0.18624025E+00 0.13383047E+03</pdfrwt>
<pdfrwt beam="1">  1       -2 0.29409070E-02 0.13383047E+03</pdfrwt>
<totfact> 0.83525729E+03</totfact>
</mgrwt>
</event>
<event>
 8    3  0.7944584E-004  0.1369207E+03  0.7818608E-02  0.1230302E+00
         -2   -1    0    0    0  501 -0.00000000000E+00  0.00000000000E+00  0.33137138341E+02  0.33137138439E+02  0.25500000000E-02 0.  1.
          2   -1    0    0  501    0  0.00000000000E+00 -0.00000000000E+00 -0.52192101758E+03  0.52192101758E+03  0.25500000000E-02 0. -1.
         25    2    1    2    0    0 -0.55654215228E+02  0.48589731077E+01 -0.16340586916E+03  0.21318713977E+03  0.12500510867E+03 0.  0.
         23    2    1    2    0    0  0.55654215228E+02 -0.48589731077E+01 -0.32537801007E+03  0.34187101625E+03  0.88791559400E+02 0.  0.
        -13    1    4    4    0    0  0.26405725370E+02  0.23758863460E+02 -0.27349914110E+03  0.27579618792E+03  0.10566000000E+00 0. -1.
         13    1    4    4    0    0  0.29248489858E+02 -0.28617836568E+02 -0.51878868974E+02  0.66074828330E+02  0.10566000000E+00 0.  1.
    9000005    1    3    3    0    0  0.80773452848E+01 -0.18956612577E+02 -0.13957494142E+03  0.14109132128E+03  0.10000000000E+01 0.  0.
    9000005    1    3    3    0    0 -0.63731560513E+02  0.23815585685E+02 -0.23830927739E+02  0.72095818490E+02  0.10000000000E+01 0.  0.
<mgrwt>
<rscale>  0 0.12810035E+03</rscale>
<asrwt>0</asrwt>
<pdfrwt beam="2">  1        2 0.80295535E-01 0.13692070E+03</pdfrwt>
<pdfrwt beam="1">  1       -2 0.50980217E-02 0.13692070E+03</pdfrwt>
<totfact> 0.10731465E+04</totfact>
</mgrwt>
</event>
<event>
 8    3  0.7944584E-004  0.1638931E+03  0.7818608E-02  0.1190252E+00
          2   -1    0    0  501    0  0.00000000000E+00  0.00000000000E+00  0.83914669054E+02  0.83914669093E+02  0.25500000000E-02 0. -1.
         -2   -1    0    0    0  501 -0.00000000000E+00 -0.00000000000E+00 -0.29869845073E+03  0.29869845074E+03  0.25500000000E-02 0.  1.
         25    2    1    2    0    0  0.85573906935E+02 -0.62555223796E+02 -0.15898532758E+03  0.22833587283E+03  0.12499954744E+03 0.  0.
         23    2    1    2    0    0 -0.85573906935E+02  0.62555223796E+02 -0.55798454095E+02  0.15427724701E+03  0.97221149410E+02 0.  0.
        -13    1    4    4    0    0 -0.77235208854E+02  0.53222844597E+01 -0.54751464600E+01  0.77611807036E+02  0.10566000000E+00 0. -1.
         13    1    4    4    0    0 -0.83386980811E+01  0.57232939336E+02 -0.50323307635E+02  0.76665439972E+02  0.10566000000E+00 0.  1.
    9000005    1    3    3    0    0  0.94981164722E+02 -0.92403296045E+02 -0.12604124812E+03  0.18288572115E+03  0.10000000000E+01 0.  0.
    9000005    1    3    3    0    0 -0.94072577872E+01  0.29848072250E+02 -0.32944079462E+02  0.45450151679E+02  0.10000000000E+01 0.  0.
<mgrwt>
<rscale>  0 0.15862997E+03</rscale>
<asrwt>0</asrwt>
<pdfrwt beam="1">  1        2 0.12909949E-01 0.16389306E+03</pdfrwt>
<pdfrwt beam="2">  1       -2 0.45953607E-01 0.16389306E+03</pdfrwt>
<totfact> 0.20731366E+03</totfact>
</mgrwt>
</event>
<event>
 8    3  0.7944584E-004  0.1769701E+03  0.7818608E-02  0.1176381E+00
         -2   -1    0    0    0  501 -0.00000000000E+00  0.00000000000E+00  0.45437671223E+03  0.45437671223E+03  0.25500000000E-02 0. -1.
          2   -1    0    0  501    0  0.00000000000E+00 -0.00000000000E+00 -0.63514471238E+02  0.63514471289E+02  0.25500000000E-02 0.  1.
         25    2    1    2    0    0 -0.16394688098E+02 -0.12419804323E+03  0.25963671955E+03  0.31421271782E+03  0.12499786463E+03 0.  0.
         23    2    1    2    0    0  0.16394688098E+02  0.12419804323E+03  0.13122552144E+03  0.20367846570E+03  0.92578832213E+02 0.  0.
        -13    1    4    4    0    0 -0.15616945550E+02  0.81430190619E+02  0.28115797748E+02  0.87551551555E+02  0.10566000000E+00 0.  1.
         13    1    4    4    0    0  0.32011633648E+02  0.42767852608E+02  0.10310972369E+03  0.11612691415E+03  0.10566000000E+00 0. -1.
    9000005    1    3    3    0    0 -0.23096126090E+02  0.16682566313E+02  0.15990332008E+02  0.32686844095E+02  0.10000000000E+01 0.  0.
    9000005    1    3    3    0    0  0.67014379923E+01 -0.14088060954E+03  0.24364638754E+03  0.28152587373E+03  0.10000000000E+01 0.  0.
<mgrwt>
<rscale>  0 0.17141425E+03</rscale>
<asrwt>0</asrwt>
<pdfrwt beam="2">  1        2 0.97714568E-02 0.17697007E+03</pdfrwt>
<pdfrwt beam="1">  1       -2 0.69904112E-01 0.17697007E+03</pdfrwt>
<totfact> 0.12414484E+03</totfact>
</mgrwt>
</event>
<event>
 8    3  0.7944584E-004  0.1286981E+03  0.7818608E-02  0.1243295E+00
         -2   -1    0    0    0  501 -0.00000000000E+00  0.00000000000E+00  0.17349677666E+02  0.17349677853E+02  0.25500000000E-02 0.  1.
          2   -1    0    0  501    0  0.00000000000E+00 -0.00000000000E+00 -0.73876683262E+03  0.73876683263E+03  0.25500000000E-02 0. -1.
         25    2    1    2    0    0 -0.27473666064E+02 -0.13486308519E+02 -0.44343762173E+03  0.46173598882E+03  0.12500606448E+03 0.  0.
         23    2    1    2    0    0  0.27473666064E+02  0.13486308519E+02 -0.27797953323E+03  0.29438052167E+03  0.91927078700E+02 0.  0.
        -13    1    4    4    0    0 -0.56803932782E+01 -0.31817504080E+01  0.54748901743E+01  0.85074079431E+01  0.10566000000E+00 0.  1.
         13    1    4    4    0    0  0.33154059342E+02  0.16668058927E+02 -0.28345442340E+03  0.28587311372E+03  0.10566000000E+00 0. -1.
    9000005    1    3    3    0    0 -0.52822772467E+02 -0.11952526739E+02 -0.42919992174E+03  0.43260453188E+03  0.10000000000E+01 0.  0.
    9000005    1    3    3    0    0  0.25349106403E+02 -0.15337817799E+01 -0.14237699994E+02  0.29131456934E+02  0.10000000000E+01 0.  0.
<mgrwt>
<rscale>  0 0.11987994E+03</rscale>
<asrwt>0</asrwt>
<pdfrwt beam="2">  1        2 0.11365641E+00 0.12869809E+03</pdfrwt>
<pdfrwt beam="1">  1       -2 0.26691818E-02 0.12869809E+03</pdfrwt>
<totfact> 0.18679840E+04</totfact>
</mgrwt>
</event>
<event>
 8    3  0.7944584E-004  0.1476246E+03  0.7818608E-02  0.1212359E+00
         -2   -1    0    0    0  501 -0.00000000000E+00  0.00000000000E+00  0.57475308275E+02  0.57475308331E+02  0.25500000000E-02 0.  1.
          2   -1    0    0  501    0  0.00000000000E+00 -0.00000000000E+00 -0.31807571295E+03  0.31807571296E+03  0.25500000000E-02 0. -1.
         25    2    1    2    0    0 -0.60549520689E+02 -0.50015813178E+02 -0.12742553250E+03  0.19501353922E+03  0.12500075248E+03 0.  0.
         23    2    1    2    0    0  0.60549520689E+02  0.50015813178E+02 -0.13317487218E+03  0.18053748208E+03  0.93222367657E+02 0.  0.
        -13    1    4    4    0    0 -0.36493608883E+01  0.40330574156E+02 -0.99443064537E+02  0.10737228364E+03  0.10566000000E+00 0. -1.
         13    1    4    4    0    0  0.64198881578E+02  0.96852390219E+01 -0.33731807639E+02  0.73165198430E+02  0.10566000000E+00 0.  1.
    9000005    1    3    3    0    0 -0.74896764096E+02 -0.75642635555E+02 -0.61758380520E+02  0.12307083794E+03  0.10000000000E+01 0.  0.
    9000005    1    3    3    0    0  0.14347243407E+02  0.25626822376E+02 -0.65667151980E+02  0.71942701282E+02  0.10000000000E+01 0.  0.
<mgrwt>
<rscale>  0 0.14072294E+03</rscale>
<asrwt>0</asrwt>
<pdfrwt beam="2">  1        2 0.48934724E-01 0.14762457E+03</pdfrwt>
<pdfrwt beam="1">  1       -2 0.88423553E-02 0.14762457E+03</pdfrwt>
<totfact> 0.79200293E+03</totfact>
</mgrwt>
</event>
<event>
 8    3  0.7944584E-004  0.1404440E+03  0.7818608E-02  0.1223613E+00
         -2   -1    0    0    0  501 -0.00000000000E+00  0.00000000000E+00  0.16722995791E+02  0.16722995985E+02  0.25500000000E-02 0.  1.
          2   -1    0    0  501    0  0.00000000000E+00 -0.00000000000E+00 -0.95290814586E+03  0.95290814587E+03  0.25500000000E-02 0. -1.
         25    2    1    2    0    0  0.51388188784E+02  0.38203655683E+02 -0.49615806556E+03  0.51565234462E+03  0.12499699691E+03 0.  0.
         23    2    1    2    0    0 -0.51388188784E+02 -0.38203655683E+02 -0.44002708451E+03  0.45397879723E+03  0.91502174727E+02 0.  0.
        -13    1    4    4    0    0 -0.17747504729E+02  0.27654813654E+02 -0.20423330467E+03  0.20685989593E+03  0.10566000000E+00 0.  1.
         13    1    4    4    0    0 -0.33640684055E+02 -0.65858469337E+02 -0.23579377984E+03  0.24711890131E+03  0.10566000000E+00 0. -1.
    9000005    1    3    3    0    0 -0.14206215145E+02 -0.37300245596E+02 -0.12274943351E+03  0.12907961999E+03  0.10000000000E+01 0.  0.
    9000005    1    3    3    0    0  0.65594403929E+02  0.75503901279E+02 -0.37340863205E+03  0.38657272463E+03  0.10000000000E+01 0.  0.
<mgrwt>
<rscale>  0 0.13262438E+03</rscale>
<asrwt>0</asrwt>
<pdfrwt beam="2">  1        2 0.14660121E+00 0.14044399E+03</pdfrwt>
<pdfrwt beam="1">  1       -2 0.25727693E-02 0.14044399E+03</pdfrwt>
<totfact> 0.14359245E+04</totfact>
</mgrwt>
</event>
<event>
 8    3  0.7944584E-004  0.1543462E+03  0.7818608E-02  0.1203843E+00
          2   -1    0    0  501    0  0.00000000000E+00  0.00000000000E+00  0.21294551827E+04  0.21294551827E+04  0.25500000000E-02 0. -1.
         -2   -1    0    0    0  501 -0.00000000000E+00 -0.00000000000E+00 -0.10069946320E+02  0.10069946643E+02  0.25500000000E-02 0.  1.
         25    2    1    2    0    0 -0.88225562833E+02 -0.20349479231E+02  0.86852723143E+03  0.88213508340E+03  0.12499960956E+03 0.  0.
         23    2    1    2    0    0  0.88225562833E+02  0.20349479231E+02  0.12508580049E+04  0.12573900459E+04  0.90477222802E+02 0.  0.
        -13    1    4    4    0    0  0.47907023673E+02 -0.93891308191E+01  0.10195728944E+04  0.10207409744E+04  0.10566000000E+00 0. -1.
         13    1    4    4    0    0  0.40318539160E+02  0.29738610050E+02  0.23128511054E+03  0.23664907152E+03  0.10566000000E+00 0.  1.
    9000005    1    3    3    0    0 -0.36617291316E+02  0.47476325406E+02  0.51495068910E+03  0.51843036147E+03  0.10000000000E+01 0.  0.
    9000005    1    3    3    0    0 -0.51608271517E+02 -0.67825804637E+02  0.35357654234E+03  0.36370472193E+03  0.10000000000E+01 0.  0.
<mgrwt>
<rscale>  0 0.14729039E+03</rscale>
<asrwt>0</asrwt>
<pdfrwt beam="1">  1        2 0.32760886E+00 0.15434621E+03</pdfrwt>
<pdfrwt beam="2">  1       -2 0.15492208E-02 0.15434621E+03</pdfrwt>
<totfact> 0.70892950E+03</totfact>
</mgrwt>
</event>
<event>
 8    3  0.7944584E-004  0.1484312E+03  0.7818608E-02  0.1210145E+00
         -2   -1    0    0    0  501 -0.00000000000E+00  0.00000000000E+00  0.11700802891E+03  0.11700802894E+03  0.25500000000E-02 0.  1.
          2   -1    0    0  501    0  0.00000000000E+00 -0.00000000000E+00 -0.16243749112E+03  0.16243749114E+03  0.25500000000E-02 0. -1.
         25    2    1    2    0    0  0.50349062707E+02  0.62212234381E+02 -0.39489052421E+02  0.15359426991E+03  0.12500569693E+03 0.  0.
         23    2    1    2    0    0 -0.50349062707E+02 -0.62212234381E+02 -0.59404097862E+01  0.12585125018E+03  0.96942552477E+02 0.  0.
        -13    1    4    4    0    0 -0.45824869653E+02  0.14732923323E+02 -0.77328478865E+01  0.48752290293E+02  0.10566000000E+00 0. -1.
         13    1    4    4    0    0 -0.45241930540E+01 -0.76945157704E+02  0.17924381003E+01  0.77098959885E+02  0.10566000000E+00 0.  1.
    9000005    1    3    3    0    0 -0.39094408395E+02  0.34872454676E+02 -0.27850668588E+02  0.59339031031E+02  0.10000000000E+01 0.  0.
    9000005    1    3    3    0    0  0.89443471102E+02  0.27339779705E+02 -0.11638383833E+02  0.94255238875E+02  0.10000000000E+01 0.  0.
<mgrwt>
<rscale>  0 0.14239251E+03</rscale>
<asrwt>0</asrwt>
<pdfrwt beam="2">  1        2 0.24990383E-01 0.14843118E+03</pdfrwt>
<pdfrwt beam="1">  1       -2 0.18001235E-01 0.14843118E+03</pdfrwt>
<totfact> 0.51998868E+03</totfact>
</mgrwt>
</event>
<event>
 8    3  0.7944584E-004  0.1342144E+03  0.7818608E-02  0.1234041E+00
          2   -1    0    0  501    0  0.00000000000E+00  0.00000000000E+00  0.24029158239E+04  0.24029158239E+04  0.25500000000E-02 0. -1.
         -2   -1    0    0    0  501 -0.00000000000E+00 -0.00000000000E+00 -0.62063893087E+01  0.62063898326E+01  0.25500000000E-02 0.  1.
         25    2    1    2    0    0  0.18736465651E+02  0.45170803299E+02  0.16284289866E+04  0.16339505685E+04  0.12498815681E+03 0.  0.
         23    2    1    2    0    0 -0.18736465651E+02 -0.45170803299E+02  0.76828044804E+03  0.77517164526E+03  0.90800749819E+02 0.  0.
        -13    1    4    4    0    0 -0.50279380961E+02 -0.18760670209E+02  0.57847449438E+03  0.58095845867E+03  0.10566000000E+00 0. -1.
         13    1    4    4    0    0  0.31542915310E+02 -0.26410133089E+02  0.18980595366E+03  0.19421318659E+03  0.10566000000E+00 0.  1.
    9000005    1    3    3    0    0  0.53665120899E+02 -0.21649473649E+02  0.61327587691E+03  0.61600076795E+03  0.10000000000E+01 0.  0.
    9000005    1    3    3    0    0 -0.34928655248E+02  0.66820276948E+02  0.10151531097E+04  0.10179498006E+04  0.10000000000E+01 0.  0.
<mgrwt>
<rscale>  0 0.12566020E+03</rscale>
<asrwt>0</asrwt>
<pdfrwt beam="1">  1        2 0.36967943E+00 0.13421437E+03</pdfrwt>
<pdfrwt beam="2">  1       -2 0.95482897E-03 0.13421437E+03</pdfrwt>
<totfact> 0.10204345E+04</totfact>
</mgrwt>
</event>
<event>
 8    3  0.7944584E-004  0.1870970E+03  0.7818608E-02  0.1166049E+00
          2   -1    0    0  501    0  0.00000000000E+00  0.00000000000E+00  0.52319308762E+03  0.52319308763E+03  0.25500000000E-02 0. -1.
         -2   -1    0    0    0  501 -0.00000000000E+00 -0.00000000000E+00 -0.60369343775E+02  0.60369343828E+02  0.25500000000E-02 0.  1.
         25    2    1    2    0    0 -0.73994672979E+02  0.11791868456E+03  0.27094079580E+03  0.32926313552E+03  0.12500107913E+03 0.  0.
         23    2    1    2    0    0  0.73994672979E+02 -0.11791868456E+03  0.19188294805E+03  0.25429929594E+03  0.92027378357E+02 0.  0.
        -13    1    4    4    0    0  0.90953092314E+02 -0.93053029082E+02  0.17962019316E+03  0.22179890933E+03  0.10566000000E+00 0. -1.
         13    1    4    4    0    0 -0.16958419335E+02 -0.24865655477E+02  0.12262754884E+02  0.32500386614E+02  0.10566000000E+00 0.  1.
    9000005    1    3    3    0    0  0.34808453440E+02  0.35307649324E+02  0.58553430449E+02  0.76731758412E+02  0.10000000000E+01 0.  0.
    9000005    1    3    3    0    0 -0.10880312642E+03  0.82611035235E+02  0.21238736535E+03  0.25253137711E+03  0.10000000000E+01 0.  0.
<mgrwt>
<rscale>  0 0.18182412E+03</rscale>
<asrwt>0</asrwt>
<pdfrwt beam="1">  1        2 0.80491247E-01 0.18709703E+03</pdfrwt>
<pdfrwt beam="2">  1       -2 0.92875910E-02 0.18709703E+03</pdfrwt>
<totfact> 0.43329353E+03</totfact>
</mgrwt>
</event>
<event>
 8    3  0.7944584E-004  0.1524316E+03  0.7818608E-02  0.1199069E+00
          2   -1    0    0  501    0  0.00000000000E+00  0.00000000000E+00  0.15224000838E+04  0.15224000838E+04  0.25500000000E-02 0. -1.
         -2   -1    0    0    0  501 -0.00000000000E+00 -0.00000000000E+00 -0.33380784708E+02  0.33380784806E+02  0.25500000000E-02 0.  1.
         25    2    1    2    0    0  0.75315469124E+02  0.44001309569E+02  0.13310413543E+04  0.13397411950E+04  0.12500739014E+03 0.  0.
         23    2    1    2    0    0 -0.75315469124E+02 -0.44001309569E+02  0.15797794478E+03  0.21603967359E+03  0.11877531056E+03 0.  0.
        -13    1    4    4    0    0  0.13932296225E+02 -0.55098565084E+02  0.70774034930E+02  0.90768584526E+02  0.10566000000E+00 0.  1.
         13    1    4    4    0    0 -0.89247765349E+02  0.11097255516E+02  0.87203909848E+02  0.12527108907E+03  0.10566000000E+00 0. -1.
    9000005    1    3    3    0    0 -0.31580434679E+02  0.48723822679E+01  0.48839870778E+03  0.48944393114E+03  0.10000000000E+01 0.  0.
    9000005    1    3    3    0    0  0.10689590380E+03  0.39128927301E+02  0.84264264651E+03  0.85029726386E+03  0.10000000000E+01 0.  0.
<mgrwt>
<rscale>  0 0.15114853E+03</rscale>
<asrwt>0</asrwt>
<pdfrwt beam="1">  1        2 0.23421539E+00 0.15243157E+03</pdfrwt>
<pdfrwt beam="2">  1       -2 0.51355056E-02 0.15243157E+03</pdfrwt>
<totfact> 0.24928014E+03</totfact>
</mgrwt>
</event>
<event>
 8    3  0.7944584E-004  0.2060057E+03  0.7818608E-02  0.1148586E+00
          2   -1    0    0  501    0  0.00000000000E+00  0.00000000000E+00  0.16398134689E+04  0.16398134689E+04  0.25500000000E-02 0. -1.
         -2   -1    0    0    0  501 -0.00000000000E+00 -0.00000000000E+00 -0.24941741122E+02  0.24941741253E+02  0.25500000000E-02 0.  1.
         25    2    1    2    0    0  0.15589476425E+02 -0.16300501751E+03  0.65511198402E+03  0.68673871366E+03  0.12499872687E+03 0.  0.
         23    2    1    2    0    0 -0.15589476425E+02  0.16300501751E+03  0.95975974378E+03  0.97801649653E+03  0.92540986491E+02 0.  0.
        -13    1    4    4    0    0  0.24124383455E+02  0.20122823339E+02  0.81897088417E+02  0.87715780515E+02  0.10566000000E+00 0.  1.
         13    1    4    4    0    0 -0.39713859880E+02  0.14288219417E+03  0.87786265537E+03  0.89030071601E+03  0.10566000000E+00 0. -1.
    9000005    1    3    3    0    0  0.37149366197E+02 -0.26974776113E+01  0.20699157150E+03  0.21031847866E+03  0.10000000000E+01 0.  0.
    9000005    1    3    3    0    0 -0.21559889772E+02 -0.16030753990E+03  0.44812041252E+03  0.47642023500E+03  0.10000000000E+01 0.  0.
<mgrwt>
<rscale>  0 0.20137258E+03</rscale>
<asrwt>0</asrwt>
<pdfrwt beam="1">  1        2 0.25227894E+00 0.20600570E+03</pdfrwt>
<pdfrwt beam="2">  1       -2 0.38371918E-02 0.20600570E+03</pdfrwt>
<totfact> 0.33591738E+03</totfact>
</mgrwt>
</event>
<event>
 8    3  0.7944584E-004  0.1413525E+03  0.7818608E-02  0.1222581E+00
         -2   -1    0    0    0  501 -0.00000000000E+00  0.00000000000E+00  0.10119864204E+03  0.10119864207E+03  0.25500000000E-02 0.  1.
          2   -1    0    0  501    0  0.00000000000E+00 -0.00000000000E+00 -0.15848188455E+03  0.15848188457E+03  0.25500000000E-02 0. -1.
         25    2    1    2    0    0  0.48229138602E+02  0.45055546656E+02 -0.32377552450E+02  0.14501320210E+03  0.12499788313E+03 0.  0.
         23    2    1    2    0    0 -0.48229138602E+02 -0.45055546656E+02 -0.24905690062E+02  0.11466732454E+03  0.90400496823E+02 0.  0.
        -13    1    4    4    0    0  0.14819581934E+02 -0.37586793658E+01 -0.35409465769E+02  0.38569276754E+02  0.10566000000E+00 0. -1.
         13    1    4    4    0    0 -0.63048720537E+02 -0.41296867290E+02  0.10503775707E+02  0.76098047790E+02  0.10566000000E+00 0.  1.
    9000005    1    3    3    0    0 -0.31989919842E+02  0.14681580063E+02  0.23774187550E+02  0.42486653885E+02  0.10000000000E+01 0.  0.
    9000005    1    3    3    0    0  0.80219058445E+02  0.30373966593E+02 -0.56151740000E+02  0.10252654822E+03  0.10000000000E+01 0.  0.
<mgrwt>
<rscale>  0 0.13334112E+03</rscale>
<asrwt>0</asrwt>
<pdfrwt beam="2">  1        2 0.24381828E-01 0.14135248E+03</pdfrwt>
<pdfrwt beam="1">  1       -2 0.15569022E-01 0.14135248E+03</pdfrwt>
<totfact> 0.67751469E+03</totfact>
</mgrwt>
</event>
<event>
 8    3  0.7944584E-004  0.1285486E+03  0.7818608E-02  0.1243630E+00
          2   -1    0    0  501    0  0.00000000000E+00  0.00000000000E+00  0.13655766915E+04  0.13655766915E+04  0.25500000000E-02 0. -1.
         -2   -1    0    0    0  501 -0.00000000000E+00 -0.00000000000E+00 -0.97258713868E+01  0.97258717211E+01  0.25500000000E-02 0.  1.
         25    2    1    2    0    0 -0.90369678918E+01 -0.28597068830E+02  0.62364300513E+03  0.63675375204E+03  0.12500113502E+03 0.  0.
         23    2    1    2    0    0  0.90369678918E+01  0.28597068830E+02  0.73220781499E+03  0.73854881118E+03  0.91796530662E+02 0.  0.
        -13    1    4    4    0    0 -0.20724412417E+01  0.60231388352E+02  0.38009109875E+03  0.38483940764E+03  0.10566000000E+00 0.  1.
         13    1    4    4    0    0  0.11109409134E+02 -0.31634319523E+02  0.35211671623E+03  0.35370940355E+03  0.10566000000E+00 0. -1.
    9000005    1    3    3    0    0 -0.50937826416E+02 -0.55478454439E+02  0.30046183130E+03  0.30975931484E+03  0.10000000000E+01 0.  0.
    9000005    1    3    3    0    0  0.41900858524E+02  0.26881385609E+02  0.32318117383E+03  0.32699443720E+03  0.10000000000E+01 0.  0.
<mgrwt>
<rscale>  0 0.11967758E+03</rscale>
<asrwt>0</asrwt>
<pdfrwt beam="1">  1        2 0.21008863E+00 0.12854860E+03</pdfrwt>
<pdfrwt beam="2">  1       -2 0.14962886E-02 0.12854860E+03</pdfrwt>
<totfact> 0.18344972E+04</totfact>
</mgrwt>
</event>
<event>
 8    3  0.7944584E-004  0.3015338E+03  0.7818608E-02  0.1086131E+00
          2   -1    0    0  501    0  0.00000000000E+00  0.00000000000E+00  0.52211823291E+03  0.52211823291E+03  0.25500000000E-02 0. -1.
         -2   -1    0    0    0  501 -0.00000000000E+00 -0.00000000000E+00 -0.24773988591E+03  0.24773988593E+03  0.25500000000E-02 0.  1.
         25    2    1    2    0    0  0.26457791282E+03 -0.72764076409E+02  0.35933938964E+03  0.46909211215E+03  0.12500611973E+03 0.  0.
         23    2    1    2    0    0 -0.26457791282E+03  0.72764076409E+02 -0.84961042642E+02  0.30076600669E+03  0.89138820087E+02 0.  0.
        -13    1    4    4    0    0 -0.16925903833E+03  0.80699641286E+02 -0.83093750387E+02  0.20509908990E+03  0.10566000000E+00 0.  1.
         13    1    4    4    0    0 -0.95318874494E+02 -0.79355648772E+01 -0.18672922545E+01  0.95666916796E+02  0.10566000000E+00 0. -1.
    9000005    1    3    3    0    0  0.42663895150E+02 -0.19284905914E+02  0.15773911131E+03  0.16454404511E+03  0.10000000000E+01 0.  0.
    9000005    1    3    3    0    0  0.22191401767E+03 -0.53479170495E+02  0.20160027833E+03  0.30454806704E+03  0.10000000000E+01 0.  0.
<mgrwt>
<rscale>  0 0.29822542E+03</rscale>
<asrwt>0</asrwt>
<pdfrwt beam="1">  1        2 0.80325881E-01 0.30153377E+03</pdfrwt>
<pdfrwt beam="2">  1       -2 0.38113829E-01 0.30153377E+03</pdfrwt>
<totfact> 0.38928203E+02</totfact>
</mgrwt>
</event>
<event>
 8    3  0.7944584E-004  0.2033698E+03  0.7818608E-02  0.1151003E+00
          2   -1    0    0  501    0  0.00000000000E+00  0.00000000000E+00  0.76734855880E+03  0.76734855881E+03  0.25500000000E-02 0. -1.
         -2   -1    0    0    0  501 -0.00000000000E+00 -0.00000000000E+00 -0.49145537759E+02  0.49145537825E+02  0.25500000000E-02 0.  1.
         25    2    1    2    0    0 -0.14636235957E+03  0.65668960491E+02  0.39514193416E+03  0.44440569252E+03  0.12499967498E+03 0.  0.
         23    2    1    2    0    0  0.14636235957E+03 -0.65668960491E+02  0.32306108688E+03  0.37208840411E+03  0.91361709391E+02 0.  0.
        -13    1    4    4    0    0  0.65437487019E+02 -0.33343046852E+02  0.59579997486E+02  0.94570665352E+02  0.10566000000E+00 0.  1.
         13    1    4    4    0    0  0.80924872550E+02 -0.32325913639E+02  0.26348108940E+03  0.27751773876E+03  0.10566000000E+00 0. -1.
    9000005    1    3    3    0    0 -0.11701303977E+02 -0.26446591370E+02  0.12922648099E+03  0.13242668197E+03  0.10000000000E+01 0.  0.
    9000005    1    3    3    0    0 -0.13466105559E+03  0.92115551861E+02  0.26591545317E+03  0.31197901055E+03  0.10000000000E+01 0.  0.
<mgrwt>
<rscale>  0 0.19850862E+03</rscale>
<asrwt>0</asrwt>
<pdfrwt beam="1">  1        2 0.11805363E+00 0.20336979E+03</pdfrwt>
<pdfrwt beam="2">  1       -2 0.75608518E-02 0.20336979E+03</pdfrwt>
<totfact> 0.38230295E+03</totfact>
</mgrwt>
</event>
<event>
 8    3  0.7944584E-004  0.1321266E+03  0.7818608E-02  0.1239460E+00
         -2   -1    0    0    0  501 -0.00000000000E+00  0.00000000000E+00  0.18650214651E+02  0.18650214825E+02  0.25500000000E-02 0.  1.
          2   -1    0    0  501    0  0.00000000000E+00 -0.00000000000E+00 -0.73247662840E+03  0.73247662841E+03  0.25500000000E-02 0. -1.
         25    2    1    2    0    0 -0.79475351546E+01  0.42075945723E+02 -0.48505388226E+03  0.50272726773E+03  0.12499555391E+03 0.  0.
         23    2    1    2    0    0  0.79475351546E+01 -0.42075945723E+02 -0.22877253149E+03  0.24839957550E+03  0.86786689200E+02 0.  0.
        -13    1    4    4    0    0  0.21977476877E+02 -0.45491477225E+02 -0.57594069067E+02  0.76613131679E+02  0.10566000000E+00 0.  1.
         13    1    4    4    0    0 -0.14029941722E+02  0.34155315018E+01 -0.17117846242E+03  0.17178644382E+03  0.10566000000E+00 0. -1.
    9000005    1    3    3    0    0  0.46097091647E+02  0.56456286436E+02 -0.32824709661E+03  0.33624308256E+03  0.10000000000E+01 0.  0.
    9000005    1    3    3    0    0 -0.54044626802E+02 -0.14380340713E+02 -0.15680678565E+03  0.16648418517E+03  0.10000000000E+01 0.  0.
<mgrwt>
<rscale>  0 0.12223172E+03</rscale>
<asrwt>0</asrwt>
<pdfrwt beam="2">  1        2 0.11268869E+00 0.13212659E+03</pdfrwt>
<pdfrwt beam="1">  1       -2 0.28692644E-02 0.13212659E+03</pdfrwt>
<totfact> 0.17013245E+04</totfact>
</mgrwt>
</event>
<event>
 8    3  0.7944584E-004  0.1329950E+03  0.7818608E-02  0.1235955E+00
          2   -1    0    0  501    0  0.00000000000E+00  0.00000000000E+00  0.15256796962E+04  0.15256796962E+04  0.25500000000E-02 0. -1.
         -2   -1    0    0    0  501 -0.00000000000E+00 -0.00000000000E+00 -0.10462638410E+02  0.10462638721E+02  0.25500000000E-02 0.  1.
         25    2    1    2    0    0 -0.41567071530E+02 -0.18290430784E+02  0.56342795355E+03  0.57891168424E+03  0.12500127206E+03 0.  0.
         23    2    1    2    0    0  0.41567071530E+02  0.18290430784E+02  0.95178910421E+03  0.95723065065E+03  0.91245045678E+02 0.  0.
        -13    1    4    4    0    0 -0.14298781449E+02 -0.26505503769E+02  0.25535404891E+03  0.25712389687E+03  0.10566000000E+00 0.  1.
         13    1    4    4    0    0  0.55865852979E+02  0.44795934553E+02  0.69643505530E+03  0.70010675378E+03  0.10566000000E+00 0. -1.
    9000005    1    3    3    0    0 -0.46603493300E+02  0.39223062180E+02  0.15704914869E+03  0.16845108875E+03  0.10000000000E+01 0.  0.
    9000005    1    3    3    0    0  0.50364217708E+01 -0.57513492964E+02  0.40637880486E+03  0.41046059550E+03  0.10000000000E+01 0.  0.
<mgrwt>
<rscale>  0 0.12443518E+03</rscale>
<asrwt>0</asrwt>
<pdfrwt beam="1">  1        2 0.23472009E+00 0.13299503E+03</pdfrwt>
<pdfrwt beam="2">  1       -2 0.16096358E-02 0.13299503E+03</pdfrwt>
<totfact> 0.13637460E+04</totfact>
</mgrwt>
</event>
<event>
 8    3  0.7944584E-004  0.1665216E+03  0.7818608E-02  0.1184740E+00
          2   -1    0    0  501    0  0.00000000000E+00  0.00000000000E+00  0.14437298655E+04  0.14437298656E+04  0.25500000000E-02 0. -1.
         -2   -1    0    0    0  501 -0.00000000000E+00 -0.00000000000E+00 -0.19967901436E+02  0.19967901599E+02  0.25500000000E-02 0.  1.
         25    2    1    2    0    0  0.10189952593E+03 -0.41580587144E+02  0.49928700371E+03  0.52632399334E+03  0.12496789701E+03 0.  0.
         23    2    1    2    0    0 -0.10189952593E+03  0.41580587144E+02  0.92447496040E+03  0.93737377381E+03  0.10910169932E+03 0.  0.
        -13    1    4    4    0    0 -0.12807324353E+02  0.56709809104E+02  0.50113658394E+03  0.50449768773E+03  0.10566000000E+00 0.  1.
         13    1    4    4    0    0 -0.89092201579E+02 -0.15129221960E+02  0.42333837647E+03  0.43287608607E+03  0.10566000000E+00 0. -1.
    9000005    1    3    3    0    0  0.86047837900E+02 -0.19248802522E+02  0.48926023929E+03  0.49714316706E+03  0.10000000000E+01 0.  0.
    9000005    1    3    3    0    0  0.15851688031E+02 -0.22331784622E+02  0.10026764421E+02  0.29180826284E+02  0.10000000000E+01 0.  0.
<mgrwt>
<rscale>  0 0.16355531E+03</rscale>
<asrwt>0</asrwt>
<pdfrwt beam="1">  1        2 0.22211236E+00 0.16652157E+03</pdfrwt>
<pdfrwt beam="2">  1       -2 0.30719838E-02 0.16652157E+03</pdfrwt>
<totfact> 0.59107855E+03</totfact>
</mgrwt>
</event>
<event>
 8    3  0.7944584E-004  0.1403040E+03  0.7818608E-02  0.1223968E+00
          2   -1    0    0  501    0  0.00000000000E+00  0.00000000000E+00  0.62089708930E+03  0.62089708930E+03  0.25500000000E-02 0. -1.
         -2   -1    0    0    0  501 -0.00000000000E+00 -0.00000000000E+00 -0.27290533215E+02  0.27290533334E+02  0.25500000000E-02 0.  1.
         25    2    1    2    0    0  0.29257288871E+02 -0.56600575657E+02  0.24560856180E+03  0.28285821360E+03  0.12500235699E+03 0.  0.
         23    2    1    2    0    0 -0.29257288871E+02  0.56600575657E+02  0.34799799428E+03  0.36532940904E+03  0.91122768662E+02 0.  0.
        -13    1    4    4    0    0 -0.56912901658E+02  0.34899116800E+02  0.14931499655E+03  0.16356040501E+03  0.10566000000E+00 0.  1.
         13    1    4    4    0    0  0.27655612787E+02  0.21701458857E+02  0.19868299773E+03  0.20176900403E+03  0.10566000000E+00 0. -1.
    9000005    1    3    3    0    0  0.17610736453E+02 -0.56483531652E+02  0.28934544829E+02  0.65869076742E+02  0.10000000000E+01 0.  0.
    9000005    1    3    3    0    0  0.11646552418E+02 -0.11704400491E+00  0.21667401698E+03  0.21698913686E+03  0.10000000000E+01 0.  0.
<mgrwt>
<rscale>  0 0.13237861E+03</rscale>
<asrwt>0</asrwt>
<pdfrwt beam="1">  1        2 0.95522616E-01 0.14030397E+03</pdfrwt>
<pdfrwt beam="2">  1       -2 0.41985442E-02 0.14030397E+03</pdfrwt>
<totfact> 0.11820680E+04</totfact>
</mgrwt>
</event>
<event>
 8    3  0.7944584E-004  0.1710556E+03  0.7818608E-02  0.1183446E+00
         -2   -1    0    0    0  501 -0.00000000000E+00  0.00000000000E+00  0.19597589462E+02  0.19597589628E+02  0.25500000000E-02 0.  1.
          2   -1    0    0  501    0  0.00000000000E+00 -0.00000000000E+00 -0.22309674012E+04  0.22309674012E+04  0.25500000000E-02 0. -1.
         25    2    1    2    0    0  0.96552672244E+02 -0.65676914566E+02 -0.42482950823E+03  0.45797392121E+03  0.12499650325E+03 0.  0.
         23    2    1    2    0    0 -0.96552672244E+02  0.65676914566E+02 -0.17865403035E+04  0.17925910696E+04  0.89557864976E+02 0.  0.
        -13    1    4    4    0    0 -0.28194932702E+02  0.72772101581E+02 -0.88433892463E+03  0.88777591642E+03  0.10566000000E+00 0.  1.
         13    1    4    4    0    0 -0.68357739541E+02 -0.70951870147E+01 -0.90220137888E+03  0.90481515320E+03  0.10566000000E+00 0. -1.
    9000005    1    3    3    0    0  0.62441611302E+02 -0.10299551773E+03 -0.29482091831E+03  0.31847669517E+03  0.10000000000E+01 0.  0.
    9000005    1    3    3    0    0  0.34111060942E+02  0.37318603163E+02 -0.13000858991E+03  0.13949722604E+03  0.10000000000E+01 0.  0.
<mgrwt>
<rscale>  0 0.16474088E+03</rscale>
<asrwt>0</asrwt>
<pdfrwt beam="2">  1        2 0.34322555E+00 0.17105555E+03</pdfrwt>
<pdfrwt beam="1">  1       -2 0.30150155E-02 0.17105555E+03</pdfrwt>
<totfact> 0.23717619E+03</totfact>
</mgrwt>
</event>
<event>
 8    3  0.7944584E-004  0.2545948E+03  0.7818608E-02  0.1112899E+00
         -2   -1    0    0    0  501 -0.00000000000E+00  0.00000000000E+00  0.98552288563E+03  0.98552288563E+03  0.25500000000E-02 0.  1.
          2   -1    0    0  501    0  0.00000000000E+00 -0.00000000000E+00 -0.64099855872E+02  0.64099855923E+02  0.25500000000E-02 0. -1.
         25    2    1    2    0    0  0.10792952298E+03  0.19375618013E+03  0.57308307360E+03  0.62709069317E+03  0.12501315509E+03 0.  0.
         23    2    1    2    0    0 -0.10792952298E+03 -0.19375618013E+03  0.34833995616E+03  0.42253204839E+03  0.89455953337E+02 0.  0.
        -13    1    4    4    0    0 -0.26212126617E+02 -0.10318992745E+03  0.10102254657E+03  0.14676785339E+03  0.10566000000E+00 0. -1.
         13    1    4    4    0    0 -0.81717396363E+02 -0.90566252679E+02  0.24731740958E+03  0.27576419499E+03  0.10566000000E+00 0.  1.
    9000005    1    3    3    0    0  0.52785502554E+02  0.85085408402E+02  0.41815227742E+03  0.42997460752E+03  0.10000000000E+01 0.  0.
    9000005    1    3    3    0    0  0.55144020426E+02  0.10867077173E+03  0.15493079618E+03  0.19711608565E+03  0.10000000000E+01 0.  0.
<mgrwt>
<rscale>  0 0.25064248E+03</rscale>
<asrwt>0</asrwt>
<pdfrwt beam="2">  1        2 0.98615163E-02 0.25459483E+03</pdfrwt>
<pdfrwt beam="1">  1       -2 0.15161890E+00 0.25459483E+03</pdfrwt>
<totfact> 0.20124807E+02</totfact>
</mgrwt>
</event>
<event>
 8    3  0.7944584E-004  0.1282993E+03  0.7818608E-02  0.1244430E+00
          2   -1    0    0  501    0  0.00000000000E+00  0.00000000000E+00  0.75111186125E+03  0.75111186125E+03  0.25500000000E-02 0. -1.
         -2   -1    0    0    0  501 -0.00000000000E+00 -0.00000000000E+00 -0.17601190513E+02  0.17601190698E+02  0.25500000000E-02 0.  1.
         25    2    1    2    0    0  0.19663517052E+02  0.21046979526E+02  0.33064437330E+03  0.35466380975E+03  0.12502434604E+03 0.  0.
         23    2    1    2    0    0 -0.19663517052E+02 -0.21046979526E+02  0.40286629744E+03  0.41404924220E+03  0.91136667188E+02 0.  0.
        -13    1    4    4    0    0  0.56907636513E+01 -0.24470532092E+02  0.37640316479E+03  0.37724069950E+03  0.10566000000E+00 0. -1.
         13    1    4    4    0    0 -0.25354280703E+02  0.34235525658E+01  0.26463132647E+02  0.36808542699E+02  0.10566000000E+00 0.  1.
    9000005    1    3    3    0    0 -0.12069976800E+02  0.42173050403E+02  0.33818132888E+02  0.55397803497E+02  0.10000000000E+01 0.  0.
    9000005    1    3    3    0    0  0.31733493852E+02 -0.21126070876E+02  0.29682624041E+03  0.29926600625E+03  0.10000000000E+01 0.  0.
<mgrwt>
<rscale>  0 0.11919552E+03</rscale>
<asrwt>0</asrwt>
<pdfrwt beam="1">  1        2 0.11555566E+00 0.12829932E+03</pdfrwt>
<pdfrwt beam="2">  1       -2 0.27078757E-02 0.12829932E+03</pdfrwt>
<totfact> 0.17923631E+04</totfact>
</mgrwt>
</event>
<event>
 8    3  0.7944584E-004  0.1270681E+03  0.7818608E-02  0.1245774E+00
          2   -1    0    0  501    0  0.00000000000E+00  0.00000000000E+00  0.35154489610E+03  0.35154489611E+03  0.25500000000E-02 0. -1.
         -2   -1    0    0    0  501 -0.00000000000E+00 -0.00000000000E+00 -0.36607250108E+02  0.36607250197E+02  0.25500000000E-02 0.  1.
         25    2    1    2    0    0 -0.21084976456E+02 -0.87688849151E+01  0.14261992907E+03  0.19101507422E+03  0.12499937936E+03 0.  0.
         23    2    1    2    0    0  0.21084976456E+02  0.87688849151E+01  0.17231771692E+03  0.19713707208E+03  0.92995484019E+02 0.  0.
        -13    1    4    4    0    0  0.29923151184E+01 -0.76480795230E+01 -0.10141086479E+02  0.13049899201E+02  0.10566000000E+00 0.  1.
         13    1    4    4    0    0  0.18092661337E+02  0.16416964438E+02  0.18245880340E+03  0.18408717288E+03  0.10566000000E+00 0. -1.
    9000005    1    3    3    0    0  0.12091849539E+02  0.42093021396E+02  0.96868573762E+01  0.44865025146E+02  0.10000000000E+01 0.  0.
    9000005    1    3    3    0    0 -0.33176825995E+02 -0.50861906311E+02  0.13293307169E+03  0.14615004908E+03  0.10000000000E+01 0.  0.
<mgrwt>
<rscale>  0 0.11839177E+03</rscale>
<asrwt>0</asrwt>
<pdfrwt beam="1">  1        2 0.54083831E-01 0.12706815E+03</pdfrwt>
<pdfrwt beam="2">  1       -2 0.56318845E-02 0.12706815E+03</pdfrwt>
<totfact> 0.14058838E+04</totfact>
</mgrwt>
</event>
<event>
 8    3  0.7944584E-004  0.1258311E+03  0.7818608E-02  0.1250023E+00
         -2   -1    0    0    0  501 -0.00000000000E+00  0.00000000000E+00  0.76224524959E+02  0.76224525001E+02  0.25500000000E-02 0.  1.
          2   -1    0    0  501    0  0.00000000000E+00 -0.00000000000E+00 -0.27233794979E+03  0.27233794980E+03  0.25500000000E-02 0. -1.
         25    2    1    2    0    0  0.13878657176E+02 -0.37869940455E+01  0.71550652276E+01  0.12603437228E+03  0.12500603821E+03 0.  0.
         23    2    1    2    0    0 -0.13878657176E+02  0.37869940455E+01 -0.20326849006E+03  0.22252810253E+03  0.89407599868E+02 0.  0.
        -13    1    4    4    0    0 -0.49824411260E+01 -0.85138795410E+01 -0.20672355479E+03  0.20695881265E+03  0.10566000000E+00 0. -1.
         13    1    4    4    0    0 -0.88962160495E+01  0.12300873586E+02  0.34550647292E+01  0.15569289878E+02  0.10566000000E+00 0.  1.
    9000005    1    3    3    0    0 -0.25118207934E+02 -0.46870536267E+00  0.57207662396E+02  0.62488884542E+02  0.10000000000E+01 0.  0.
    9000005    1    3    3    0    0  0.38996865110E+02 -0.33182886828E+01 -0.50052597168E+02  0.63545487735E+02  0.10000000000E+01 0.  0.
<mgrwt>
<rscale>  0 0.11589701E+03</rscale>
<asrwt>0</asrwt>
<pdfrwt beam="2">  1        2 0.41898146E-01 0.12583111E+03</pdfrwt>
<pdfrwt beam="1">  1       -2 0.11726850E-01 0.12583111E+03</pdfrwt>
<totfact> 0.59245505E+03</totfact>
</mgrwt>
</event>
<event>
 8    3  0.7944584E-004  0.1479958E+03  0.7818608E-02  0.1212144E+00
         -2   -1    0    0    0  501 -0.00000000000E+00  0.00000000000E+00  0.36093227367E+02  0.36093227457E+02  0.25500000000E-02 0.  1.
          2   -1    0    0  501    0  0.00000000000E+00 -0.00000000000E+00 -0.54423954466E+03  0.54423954466E+03  0.25500000000E-02 0. -1.
         25    2    1    2    0    0 -0.74827687452E+02  0.26032076392E+02 -0.35647242228E+03  0.38597323046E+03  0.12500357984E+03 0.  0.
         23    2    1    2    0    0  0.74827687452E+02 -0.26032076392E+02 -0.15167389501E+03  0.19435954166E+03  0.92161864115E+02 0.  0.
        -13    1    4    4    0    0  0.64772615783E+01 -0.10731122209E+01  0.12867852581E+02  0.14446427983E+02  0.10566000000E+00 0.  1.
         13    1    4    4    0    0  0.68350425874E+02 -0.24958964171E+02 -0.16454174759E+03  0.17991311368E+03  0.10566000000E+00 0. -1.
    9000005    1    3    3    0    0 -0.44503285532E+02 -0.13983088519E+02 -0.29578294549E+02  0.55244408732E+02  0.10000000000E+01 0.  0.
    9000005    1    3    3    0    0 -0.30324401920E+02  0.40015164911E+02 -0.32689412773E+03  0.33072882172E+03  0.10000000000E+01 0.  0.
<mgrwt>
<rscale>  0 0.14088409E+03</rscale>
<asrwt>0</asrwt>
<pdfrwt beam="2">  1        2 0.83729155E-01 0.14799577E+03</pdfrwt>
<pdfrwt beam="1">  1       -2 0.55528046E-02 0.14799577E+03</pdfrwt>
<totfact> 0.90510388E+03</totfact>
</mgrwt>
</event>
<event>
 8    3  0.7944584E-004  0.1365120E+03  0.7818608E-02  0.1229606E+00
          2   -1    0    0  501    0  0.00000000000E+00  0.00000000000E+00  0.37847562036E+02  0.37847562122E+02  0.25500000000E-02 0. -1.
         -2   -1    0    0    0  501 -0.00000000000E+00 -0.00000000000E+00 -0.45223979052E+03  0.45223979053E+03  0.25500000000E-02 0.  1.
         25    2    1    2    0    0  0.16890786143E+02  0.52200950824E+02 -0.14050024762E+03  0.19589754511E+03  0.12500116270E+03 0.  0.
         23    2    1    2    0    0 -0.16890786143E+02 -0.52200950824E+02 -0.27389198086E+03  0.29418980754E+03  0.92307029815E+02 0.  0.
        -13    1    4    4    0    0  0.11135203287E+02 -0.60462609354E+02 -0.24680568462E+03  0.25434774818E+03  0.10566000000E+00 0.  1.
         13    1    4    4    0    0 -0.28025989430E+02  0.82616585297E+01 -0.27086296247E+02  0.39842059354E+02  0.10566000000E+00 0. -1.
    9000005    1    3    3    0    0  0.67816147830E+02  0.50280343791E+02 -0.99424726095E+02  0.13043549761E+03  0.10000000000E+01 0.  0.
    9000005    1    3    3    0    0 -0.50925361688E+02  0.19206070328E+01 -0.41075521527E+02  0.65462047501E+02  0.10000000000E+01 0.  0.
<mgrwt>
<rscale>  0 0.12856143E+03</rscale>
<asrwt>0</asrwt>
<pdfrwt beam="1">  1        2 0.58227022E-02 0.13651201E+03</pdfrwt>
<pdfrwt beam="2">  1       -2 0.69575349E-01 0.13651201E+03</pdfrwt>
<totfact> 0.23844976E+03</totfact>
</mgrwt>
</event>
<event>
 8    3  0.7944584E-004  0.1325917E+03  0.7818608E-02  0.1236041E+00
          2   -1    0    0  501    0  0.00000000000E+00  0.00000000000E+00  0.10210662630E+04  0.10210662630E+04  0.25500000000E-02 0. -1.
         -2   -1    0    0    0  501 -0.00000000000E+00 -0.00000000000E+00 -0.14509897664E+02  0.14509897888E+02  0.25500000000E-02 0.  1.
         25    2    1    2    0    0  0.87711360060E+01 -0.43338544963E+02  0.69508975158E+03  0.70762300847E+03  0.12500158825E+03 0.  0.
         23    2    1    2    0    0 -0.87711360060E+01  0.43338544963E+02  0.31146661377E+03  0.32795315243E+03  0.92664213100E+02 0.  0.
        -13    1    4    4    0    0 -0.22736691385E+01 -0.40820636684E+01 -0.56000392956E+01  0.72941359524E+01  0.10566000000E+00 0.  1.
         13    1    4    4    0    0 -0.64974668675E+01  0.47420608632E+02  0.31706665306E+03  0.32065901648E+03  0.10566000000E+00 0. -1.
    9000005    1    3    3    0    0 -0.58186710161E+02 -0.21037711487E+02  0.30916247886E+03  0.31529465089E+03  0.10000000000E+01 0.  0.
    9000005    1    3    3    0    0  0.66957846167E+02 -0.22300833476E+02  0.38592727272E+03  0.39232835758E+03  0.10000000000E+01 0.  0.
<mgrwt>
<rscale>  0 0.12438033E+03</rscale>
<asrwt>0</asrwt>
<pdfrwt beam="1">  1        2 0.15708710E+00 0.13259170E+03</pdfrwt>
<pdfrwt beam="2">  1       -2 0.22322922E-02 0.13259170E+03</pdfrwt>
<totfact> 0.16013079E+04</totfact>
</mgrwt>
</event>
<event>
 8    3  0.7944584E-004  0.1322562E+03  0.7818608E-02  0.1237983E+00
         -2   -1    0    0    0  501 -0.00000000000E+00  0.00000000000E+00  0.30179334478E+03  0.30179334479E+03  0.25500000000E-02 0.  1.
          2   -1    0    0  501    0  0.00000000000E+00 -0.00000000000E+00 -0.62057418329E+02  0.62057418381E+02  0.25500000000E-02 0. -1.
         25    2    1    2    0    0  0.53535524198E+00  0.43201302470E+02  0.22818943372E+03  0.26374631124E+03  0.12500023956E+03 0.  0.
         23    2    1    2    0    0 -0.53535524198E+00 -0.43201302470E+02  0.11546492730E+02  0.10010445193E+03  0.89559704454E+02 0.  0.
        -13    1    4    4    0    0 -0.32678255198E+02 -0.56001121323E+02  0.76094198677E+01  0.65283293322E+02  0.10566000000E+00 0.  1.
         13    1    4    4    0    0  0.32142899956E+02  0.12799818853E+02  0.39370728621E+01  0.34821158611E+02  0.10566000000E+00 0. -1.
    9000005    1    3    3    0    0 -0.86480023150E+01  0.81605862549E+02  0.98681262869E+02  0.12834834003E+03  0.10000000000E+01 0.  0.
    9000005    1    3    3    0    0  0.91833575570E+01 -0.38404560079E+02  0.12950817085E+03  0.13539797121E+03  0.10000000000E+01 0.  0.
<mgrwt>
<rscale>  0 0.12315392E+03</rscale>
<asrwt>0</asrwt>
<pdfrwt beam="2">  1        2 0.95472951E-02 0.13225619E+03</pdfrwt>
<pdfrwt beam="1">  1       -2 0.46429746E-01 0.13225619E+03</pdfrwt>
<totfact> 0.28991417E+03</totfact>
</mgrwt>
</event>
<event>
 8    3  0.7944584E-004  0.1342722E+03  0.7818608E-02  0.1232917E+00
         -2   -1    0    0    0  501 -0.00000000000E+00  0.00000000000E+00  0.53545351822E+01  0.53545357894E+01  0.25500000000E-02 0.  1.
          2   -1    0    0  501    0  0.00000000000E+00 -0.00000000000E+00 -0.26892467907E+04  0.26892467907E+04  0.25500000000E-02 0. -1.
         25    2    1    2    0    0 -0.48886013228E+02 -0.36861104799E+01 -0.15723315540E+04  0.15780543504E+04  0.12500235002E+03 0.  0.
         23    2    1    2    0    0  0.48886013228E+02  0.36861104799E+01 -0.11115607015E+04  0.11165469761E+04  0.93308771769E+02 0.  0.
        -13    1    4    4    0    0 -0.15031663053E+02 -0.62463291290E+01 -0.67726061301E+03  0.67745621012E+03  0.10566000000E+00 0. -1.
         13    1    4    4    0    0  0.63917676281E+02  0.99324396089E+01 -0.43430008851E+03  0.43909076595E+03  0.10566000000E+00 0.  1.
    9000005    1    3    3    0    0 -0.34073759221E+02  0.26009904216E+01 -0.15506937216E+04  0.15510705350E+04  0.10000000000E+01 0.  0.
    9000005    1    3    3    0    0 -0.14812254006E+02 -0.62871009015E+01 -0.21637832420E+02  0.26983815489E+02  0.10000000000E+01 0.  0.
<mgrwt>
<rscale>  0 0.12638734E+03</rscale>
<asrwt>0</asrwt>
<pdfrwt beam="2">  1        2 0.41372920E+00 0.13427218E+03</pdfrwt>
<pdfrwt beam="1">  1       -2 0.82377684E-03 0.13427218E+03</pdfrwt>
<totfact> 0.88408596E+03</totfact>
</mgrwt>
</event>
<event>
 8    3  0.7944584E-004  0.1319268E+03  0.7818608E-02  0.1237718E+00
         -2   -1    0    0    0  501 -0.00000000000E+00  0.00000000000E+00  0.23272040290E+02  0.23272040430E+02  0.25500000000E-02 0.  1.
          2   -1    0    0  501    0  0.00000000000E+00 -0.00000000000E+00 -0.69191988454E+03  0.69191988455E+03  0.25500000000E-02 0. -1.
         25    2    1    2    0    0 -0.30566171970E+02  0.29073280840E+02 -0.23020758449E+03  0.26533038980E+03  0.12500054907E+03 0.  0.
         23    2    1    2    0    0  0.30566171970E+02 -0.29073280840E+02 -0.43844025976E+03  0.44986153517E+03  0.91465801927E+02 0.  0.
        -13    1    4    4    0    0  0.31945166842E+02  0.28676919409E+02 -0.19233267422E+03  0.19706528900E+03  0.10566000000E+00 0.  1.
         13    1    4    4    0    0 -0.13789948715E+01 -0.57750200249E+02 -0.24610758553E+03  0.25279624617E+03  0.10566000000E+00 0. -1.
    9000005    1    3    3    0    0 -0.74094380583E+02  0.39695097861E+02 -0.17561818417E+03  0.19470085937E+03  0.10000000000E+01 0.  0.
    9000005    1    3    3    0    0  0.43528208613E+02 -0.10621817021E+02 -0.54589400323E+02  0.70629530435E+02  0.10000000000E+01 0.  0.
<mgrwt>
<rscale>  0 0.12332019E+03</rscale>
<asrwt>0</asrwt>
<pdfrwt beam="2">  1        2 0.10644920E+00 0.13192681E+03</pdfrwt>
<pdfrwt beam="1">  1       -2 0.35803144E-02 0.13192681E+03</pdfrwt>
<totfact> 0.13142423E+04</totfact>
</mgrwt>
</event>
<event>
 8    3  0.7944584E-004  0.2078146E+03  0.7818608E-02  0.1147551E+00
         -2   -1    0    0    0  501 -0.00000000000E+00  0.00000000000E+00  0.44766560028E+03  0.44766560029E+03  0.25500000000E-02 0.  1.
          2   -1    0    0  501    0  0.00000000000E+00 -0.00000000000E+00 -0.87881357392E+02  0.87881357429E+02  0.25500000000E-02 0. -1.
         25    2    1    2    0    0  0.63159987888E+02 -0.15353584672E+03  0.20881127598E+03  0.29459985991E+03  0.12499795272E+03 0.  0.
         23    2    1    2    0    0 -0.63159987888E+02  0.15353584672E+03  0.15097296691E+03  0.24094709781E+03  0.87750936797E+02 0.  0.
        -13    1    4    4    0    0 -0.11856518785E+02  0.12764885416E+03  0.12032336163E+03  0.17581959369E+03  0.10566000000E+00 0.  1.
         13    1    4    4    0    0 -0.51303469103E+02  0.25886992561E+02  0.30649605277E+02  0.65127504125E+02  0.10566000000E+00 0. -1.
    9000005    1    3    3    0    0  0.77766696819E+00 -0.62294186520E+01 -0.16837220987E+02  0.17997289608E+02  0.10000000000E+01 0.  0.
    9000005    1    3    3    0    0  0.62382320920E+02 -0.14730642807E+03  0.22564849697E+03  0.27660257030E+03  0.10000000000E+01 0.  0.
<mgrwt>
<rscale>  0 0.20261496E+03</rscale>
<asrwt>0</asrwt>
<pdfrwt beam="2">  1        2 0.13520208E-01 0.20781465E+03</pdfrwt>
<pdfrwt beam="1">  1       -2 0.68871633E-01 0.20781465E+03</pdfrwt>
<totfact> 0.86682348E+02</totfact>
</mgrwt>
</event>
<event>
 8    3  0.7944584E-004  0.1271026E+03  0.7818608E-02  0.1246515E+00
          2   -1    0    0  501    0  0.00000000000E+00  0.00000000000E+00  0.12333637258E+03  0.12333637260E+03  0.25500000000E-02 0.  1.
         -2   -1    0    0    0  501 -0.00000000000E+00 -0.00000000000E+00 -0.10161763170E+03  0.10161763173E+03  0.25500000000E-02 0. -1.
         25    2    1    2    0    0  0.15537710366E+02 -0.16995564587E+02  0.29131740452E+02  0.13039831406E+03  0.12499916939E+03 0.  0.
         23    2    1    2    0    0 -0.15537710366E+02  0.16995564587E+02 -0.74129995765E+01  0.94555690275E+02  0.91408732305E+02 0.  0.
        -13    1    4    4    0    0  0.32220843699E+02 -0.55083689211E+01  0.16477720005E+02  0.36606711372E+02  0.10566000000E+00 0.  1.
         13    1    4    4    0    0 -0.47758554065E+02  0.22503933508E+02 -0.23890719582E+02  0.57948978903E+02  0.10566000000E+00 0. -1.
    9000005    1    3    3    0    0 -0.32512356277E+02  0.39880332476E+02  0.20658842412E+02  0.55455225172E+02  0.10000000000E+01 0.  0.
    9000005    1    3    3    0    0  0.48050066643E+02 -0.56875897063E+02  0.84728980399E+01  0.74943088890E+02  0.10000000000E+01 0.  0.
<mgrwt>
<rscale>  0 0.11795136E+03</rscale>
<asrwt>0</asrwt>
<pdfrwt beam="1">  1        2 0.18974826E-01 0.12710256E+03</pdfrwt>
<pdfrwt beam="2">  1       -2 0.15633482E-01 0.12710256E+03</pdfrwt>
<totfact> 0.88432659E+03</totfact>
</mgrwt>
</event>
<event>
 8    3  0.7944584E-004  0.1418220E+03  0.7818608E-02  0.1221400E+00
         -2   -1    0    0    0  501 -0.00000000000E+00  0.00000000000E+00  0.72177004921E+02  0.72177004966E+02  0.25500000000E-02 0.  1.
          2   -1    0    0  501    0  0.00000000000E+00 -0.00000000000E+00 -0.25631871007E+03  0.25631871008E+03  0.25500000000E-02 0. -1.
         25    2    1    2    0    0  0.66970414722E+02 -0.18374597893E+01 -0.15726091971E+03  0.21176515176E+03  0.12500027969E+03 0.  0.
         23    2    1    2    0    0 -0.66970414722E+02  0.18374597893E+01 -0.26880785434E+02  0.11673056329E+03  0.91733500285E+02 0.  0.
        -13    1    4    4    0    0 -0.20072757917E+02  0.45119134704E+02 -0.16548459094E+02  0.52081806701E+02  0.10566000000E+00 0. -1.
         13    1    4    4    0    0 -0.46897656805E+02 -0.43281674914E+02 -0.10332326340E+02  0.64648756592E+02  0.10566000000E+00 0.  1.
    9000005    1    3    3    0    0 -0.15695619552E+02  0.10482769309E+01 -0.12001279052E+03  0.12104346842E+03  0.10000000000E+01 0.  0.
    9000005    1    3    3    0    0  0.82666034274E+02 -0.28857367202E+01 -0.37248129189E+02  0.90721683335E+02  0.10000000000E+01 0.  0.
<mgrwt>
<rscale>  0 0.13416707E+03</rscale>
<asrwt>0</asrwt>
<pdfrwt beam="2">  1        2 0.39433647E-01 0.14182201E+03</pdfrwt>
<pdfrwt beam="1">  1       -2 0.11104155E-01 0.14182201E+03</pdfrwt>
<totfact> 0.69441062E+03</totfact>
</mgrwt>
</event>
<event>
 8    3  0.7944584E-004  0.2226913E+03  0.7818608E-02  0.1135137E+00
         -2   -1    0    0    0  501 -0.00000000000E+00  0.00000000000E+00  0.25556943951E+03  0.25556943952E+03  0.25500000000E-02 0. -1.
          2   -1    0    0  501    0  0.00000000000E+00 -0.00000000000E+00 -0.19108545313E+03  0.19108545315E+03  0.25500000000E-02 0.  1.
         25    2    1    2    0    0 -0.16749162782E+03  0.76895628819E+02 -0.21381397456E+02  0.22371540085E+03  0.12500013321E+03 0.  0.
         23    2    1    2    0    0  0.16749162782E+03 -0.76895628819E+02  0.85865383831E+02  0.22293949182E+03  0.91448180681E+02 0.  0.
        -13    1    4    4    0    0  0.37851269307E+02 -0.26592938415E+02 -0.17724541941E+02  0.49538606286E+02  0.10566000000E+00 0.  1.
         13    1    4    4    0    0  0.12964035851E+03 -0.50302690404E+02  0.10358992577E+03  0.17340088553E+03  0.10566000000E+00 0. -1.
    9000005    1    3    3    0    0  0.71031828326E+01  0.35757808827E+02 -0.25143257071E+02  0.44297398057E+02  0.10000000000E+01 0.  0.
    9000005    1    3    3    0    0 -0.17459481065E+03  0.41137819992E+02  0.37618596144E+01  0.17941800280E+03  0.10000000000E+01 0.  0.
<mgrwt>
<rscale>  0 0.21832697E+03</rscale>
<asrwt>0</asrwt>
<pdfrwt beam="2">  1        2 0.29397762E-01 0.22269130E+03</pdfrwt>
<pdfrwt beam="1">  1       -2 0.39318375E-01 0.22269130E+03</pdfrwt>
<totfact> 0.11006966E+03</totfact>
</mgrwt>
</event>
<event>
 8    3  0.7944584E-004  0.1282757E+03  0.7818608E-02  0.1244516E+00
         -2   -1    0    0    0  501 -0.00000000000E+00  0.00000000000E+00  0.63907813251E+02  0.63907813301E+02  0.25500000000E-02 0. -1.
          2   -1    0    0  501    0  0.00000000000E+00 -0.00000000000E+00 -0.20082796882E+03  0.20082796884E+03  0.25500000000E-02 0.  1.
         25    2    1    2    0    0  0.19609655606E+02  0.21064638824E+02 -0.57592796047E+02  0.14061143249E+03  0.12500554863E+03 0.  0.
         23    2    1    2    0    0 -0.19609655606E+02 -0.21064638824E+02 -0.79327359523E+02  0.12412434965E+03  0.91026186365E+02 0.  0.
        -13    1    4    4    0    0 -0.42086686908E+02 -0.34964951970E+02 -0.80881293874E+02  0.97650560387E+02  0.10566000000E+00 0.  1.
         13    1    4    4    0    0  0.22477031301E+02  0.13900313146E+02  0.15539343509E+01  0.26473789258E+02  0.10566000000E+00 0. -1.
    9000005    1    3    3    0    0  0.67922263109E+02  0.25468104971E+02 -0.56707146561E+02  0.92080175216E+02  0.10000000000E+01 0.  0.
    9000005    1    3    3    0    0 -0.48312607503E+02 -0.44034661477E+01 -0.88564948613E+00  0.48531257277E+02  0.10000000000E+01 0.  0.
<mgrwt>
<rscale>  0 0.11914394E+03</rscale>
<asrwt>0</asrwt>
<pdfrwt beam="2">  1        2 0.30896610E-01 0.12827566E+03</pdfrwt>
<pdfrwt beam="1">  1       -2 0.98319714E-02 0.12827566E+03</pdfrwt>
<totfact> 0.10846422E+04</totfact>
</mgrwt>
</event>
<event>
 8    3  0.7944584E-004  0.1288040E+03  0.7818608E-02  0.1240657E+00
         -2   -1    0    0    0  501 -0.00000000000E+00  0.00000000000E+00  0.94073343439E+01  0.94073346895E+01  0.25500000000E-02 0.  1.
          2   -1    0    0  501    0  0.00000000000E+00 -0.00000000000E+00 -0.14608998022E+04  0.14608998022E+04  0.25500000000E-02 0. -1.
         25    2    1    2    0    0 -0.12670483755E+02  0.28344549112E+02 -0.67817917081E+03  0.69030244746E+03  0.12500610636E+03 0.  0.
         23    2    1    2    0    0  0.12670483755E+02 -0.28344549112E+02 -0.77331329706E+03  0.78000468944E+03  0.97107700641E+02 0.  0.
        -13    1    4    4    0    0 -0.36074405788E+02 -0.37788744151E+02 -0.38361735981E+03  0.38715841958E+03  0.10566000000E+00 0.  1.
         13    1    4    4    0    0  0.48744889542E+02  0.94441950392E+01 -0.38969593725E+03  0.39284626987E+03  0.10566000000E+00 0. -1.
    9000005    1    3    3    0    0 -0.10217109844E+02  0.63200482520E+02 -0.61305488878E+03  0.61638947670E+03  0.10000000000E+01 0.  0.
    9000005    1    3    3    0    0 -0.24533739104E+01 -0.34855933409E+02 -0.65124282031E+02  0.73912970765E+02  0.10000000000E+01 0.  0.
<mgrwt>
<rscale>  0 0.12149103E+03</rscale>
<asrwt>0</asrwt>
<pdfrwt beam="2">  1        2 0.22475364E+00 0.12880404E+03</pdfrwt>
<pdfrwt beam="1">  1       -2 0.14472834E-02 0.12880404E+03</pdfrwt>
<totfact> 0.17148782E+04</totfact>
</mgrwt>
</event>
<event>
 8    3  0.7944584E-004  0.1251797E+03  0.7818608E-02  0.1248586E+00
         -2   -1    0    0    0  501 -0.00000000000E+00  0.00000000000E+00  0.11566369431E+02  0.11566369712E+02  0.25500000000E-02 0.  1.
          2   -1    0    0  501    0  0.00000000000E+00 -0.00000000000E+00 -0.13666191067E+04  0.13666191067E+04  0.25500000000E-02 0. -1.
         25    2    1    2    0    0  0.64086065719E+01 -0.22479289393E+01 -0.10814271673E+04  0.10886480928E+04  0.12499531270E+03 0.  0.
         23    2    1    2    0    0 -0.64086065719E+01  0.22479289393E+01 -0.27362556996E+03  0.28953738368E+03  0.94418327617E+02 0.  0.
        -13    1    4    4    0    0 -0.45757978877E+02 -0.14354923145E+02 -0.18563445683E+03  0.19172902539E+03  0.10566000000E+00 0. -1.
         13    1    4    4    0    0  0.39349372305E+02  0.16602852084E+02 -0.87991113133E+02  0.97808358296E+02  0.10566000000E+00 0.  1.
    9000005    1    3    3    0    0  0.51198598321E+02  0.15651123571E+02 -0.24280382317E+03  0.24863819233E+03  0.10000000000E+01 0.  0.
    9000005    1    3    3    0    0 -0.44789991749E+02 -0.17899052510E+02 -0.83862334417E+03  0.84000990043E+03  0.10000000000E+01 0.  0.
<mgrwt>
<rscale>  0 0.11673325E+03</rscale>
<asrwt>0</asrwt>
<pdfrwt beam="2">  1        2 0.21024897E+00 0.12517968E+03</pdfrwt>
<pdfrwt beam="1">  1       -2 0.17794426E-02 0.12517968E+03</pdfrwt>
<totfact> 0.14247143E+04</totfact>
</mgrwt>
</event>
<event>
 8    3  0.7944584E-004  0.1332805E+03  0.7818608E-02  0.1235391E+00
         -2   -1    0    0    0  501 -0.00000000000E+00  0.00000000000E+00  0.69339191357E+02  0.69339191404E+02  0.25500000000E-02 0. -1.
          2   -1    0    0  501    0  0.00000000000E+00 -0.00000000000E+00 -0.21553620678E+03  0.21553620679E+03  0.25500000000E-02 0.  1.
         25    2    1    2    0    0 -0.13259538785E+02 -0.44304055299E+02 -0.11950903906E+03  0.17901421557E+03  0.12500005709E+03 0.  0.
         23    2    1    2    0    0  0.13259538785E+02  0.44304055299E+02 -0.26687976358E+02  0.10586118263E+03  0.91409393509E+02 0.  0.
        -13    1    4    4    0    0 -0.20417994253E+01  0.22566459451E+02 -0.59478752562E+02  0.63648622981E+02  0.10566000000E+00 0.  1.
         13    1    4    4    0    0  0.15301338211E+02  0.21737595848E+02  0.32790776204E+02  0.42212559652E+02  0.10566000000E+00 0. -1.
    9000005    1    3    3    0    0  0.52202770717E+01  0.21808423340E+02 -0.10687583946E+03  0.10920761732E+03  0.10000000000E+01 0.  0.
    9000005    1    3    3    0    0 -0.18479815857E+02 -0.66112478639E+02 -0.12633199606E+02  0.69806598243E+02  0.10000000000E+01 0.  0.
<mgrwt>
<rscale>  0 0.12479415E+03</rscale>
<asrwt>0</asrwt>
<pdfrwt beam="2">  1        2 0.33159416E-01 0.13328045E+03</pdfrwt>
<pdfrwt beam="1">  1       -2 0.10667568E-01 0.13328045E+03</pdfrwt>
<totfact> 0.88683166E+03</totfact>
</mgrwt>
</event>
<event>
 8    3  0.7944584E-004  0.1607672E+03  0.7818608E-02  0.1196584E+00
          2   -1    0    0  501    0  0.00000000000E+00  0.00000000000E+00  0.22321080330E+03  0.22321080332E+03  0.25500000000E-02 0. -1.
         -2   -1    0    0    0  501 -0.00000000000E+00 -0.00000000000E+00 -0.96397163466E+02  0.96397163499E+02  0.25500000000E-02 0.  1.
         25    2    1    2    0    0 -0.70063402405E+02 -0.72892059060E+02  0.68570730256E+02  0.17477997831E+03  0.12499585249E+03 0.  0.
         23    2    1    2    0    0  0.70063402405E+02  0.72892059060E+02  0.58242909582E+02  0.14482798851E+03  0.85794971345E+02 0.  0.
        -13    1    4    4    0    0  0.20807461918E+02  0.66545972170E+02  0.19379369804E+01  0.69750151593E+02  0.10566000000E+00 0.  1.
         13    1    4    4    0    0  0.49255940488E+02  0.63460868900E+01  0.56304972602E+02  0.75077836915E+02  0.10566000000E+00 0. -1.
    9000005    1    3    3    0    0 -0.70187835895E+02 -0.10568887549E+03  0.62408332081E+02  0.14139402613E+03  0.10000000000E+01 0.  0.
    9000005    1    3    3    0    0  0.12443348953E+00  0.32796816435E+02  0.61623981747E+01  0.33385952184E+02  0.10000000000E+01 0.  0.
<mgrwt>
<rscale>  0 0.15320906E+03</rscale>
<asrwt>0</asrwt>
<pdfrwt beam="1">  1        2 0.34340123E-01 0.16076721E+03</pdfrwt>
<pdfrwt beam="2">  1       -2 0.14830333E-01 0.16076721E+03</pdfrwt>
<totfact> 0.50911273E+03</totfact>
</mgrwt>
</event>
<event>
 8    3  0.7944584E-004  0.1287496E+03  0.7818608E-02  0.1243918E+00
         -2   -1    0    0    0  501 -0.00000000000E+00  0.00000000000E+00  0.68041485840E+01  0.68041490618E+01  0.25500000000E-02 0.  1.
          2   -1    0    0  501    0  0.00000000000E+00 -0.00000000000E+00 -0.22284397537E+04  0.22284397537E+04  0.25500000000E-02 0. -1.
         25    2    1    2    0    0 -0.39734057499E+01 -0.30661726211E+02 -0.17042913306E+04  0.17091475668E+04  0.12498214391E+03 0.  0.
         23    2    1    2    0    0  0.39734057499E+01  0.30661726211E+02 -0.51734427459E+03  0.52609633599E+03  0.90423043982E+02 0.  0.
        -13    1    4    4    0    0  0.10639481724E+02  0.55193841796E+02 -0.45933008169E+03  0.46275662486E+03  0.10566000000E+00 0. -1.
         13    1    4    4    0    0 -0.66660759739E+01 -0.24532115585E+02 -0.58014192903E+02  0.63339711132E+02  0.10566000000E+00 0.  1.
    9000005    1    3    3    0    0  0.43803834351E+01 -0.62327176277E+02 -0.43828049621E+03  0.44271283923E+03  0.10000000000E+01 0.  0.
    9000005    1    3    3    0    0 -0.83537891850E+01  0.31665450065E+02 -0.12660108343E+04  0.12664347276E+04  0.10000000000E+01 0.  0.
<mgrwt>
<rscale>  0 0.11950381E+03</rscale>
<asrwt>0</asrwt>
<pdfrwt beam="2">  1        2 0.34283630E+00 0.12874962E+03</pdfrwt>
<pdfrwt beam="1">  1       -2 0.10467939E-02 0.12874962E+03</pdfrwt>
<totfact> 0.11024969E+04</totfact>
</mgrwt>
</event>
<event>
 8    3  0.7944584E-004  0.3072792E+03  0.7818608E-02  0.1083157E+00
         -2   -1    0    0    0  501 -0.00000000000E+00  0.00000000000E+00  0.99339092626E+02  0.99339092659E+02  0.25500000000E-02 0.  1.
          2   -1    0    0  501    0  0.00000000000E+00 -0.00000000000E+00 -0.95077583621E+03  0.95077583621E+03  0.25500000000E-02 0. -1.
         25    2    1    2    0    0 -0.12640473066E+03  0.25063100493E+03 -0.53803310889E+03  0.61959674128E+03  0.12500575580E+03 0.  0.
         23    2    1    2    0    0  0.12640473066E+03 -0.25063100493E+03 -0.31340363470E+03  0.43051818759E+03  0.91268916066E+02 0.  0.
        -13    1    4    4    0    0  0.69536298966E+02 -0.75056503757E+02 -0.16293949777E+03  0.19240079711E+03  0.10566000000E+00 0.  1.
         13    1    4    4    0    0  0.56868431695E+02 -0.17557450117E+03 -0.15046413693E+03  0.23811739048E+03  0.10566000000E+00 0. -1.
    9000005    1    3    3    0    0 -0.12832226790E+03  0.22275094696E+03 -0.37795624972E+03  0.45709573999E+03  0.10000000000E+01 0.  0.
    9000005    1    3    3    0    0  0.19175372401E+01  0.27880057968E+02 -0.16007685917E+03  0.16250100129E+03  0.10000000000E+01 0.  0.
<mgrwt>
<rscale>  0 0.30420554E+03</rscale>
<asrwt>0</asrwt>
<pdfrwt beam="2">  1        2 0.14627320E+00 0.30727918E+03</pdfrwt>
<pdfrwt beam="1">  1       -2 0.15282938E-01 0.30727918E+03</pdfrwt>
<totfact> 0.93596203E+02</totfact>
</mgrwt>
</event>
<event>
 8    3  0.7944584E-004  0.2148812E+03  0.7818608E-02  0.1141606E+00
         -2   -1    0    0    0  501 -0.00000000000E+00  0.00000000000E+00  0.26499307583E+03  0.26499307584E+03  0.25500000000E-02 0.  1.
          2   -1    0    0  501    0  0.00000000000E+00 -0.00000000000E+00 -0.41213444260E+03  0.41213444260E+03  0.25500000000E-02 0. -1.
         25    2    1    2    0    0  0.14428571654E+03  0.98642109141E+02 -0.34004426888E+03  0.40224872528E+03  0.12500119400E+03 0.  0.
         23    2    1    2    0    0 -0.14428571654E+03 -0.98642109141E+02  0.19290290211E+03  0.27487879316E+03  0.88307347332E+02 0.  0.
        -13    1    4    4    0    0 -0.67319561361E+02 -0.66212628952E+02  0.44046459308E+02  0.10419278918E+03  0.10566000000E+00 0. -1.
         13    1    4    4    0    0 -0.76966155183E+02 -0.32429480189E+02  0.14885644280E+03  0.17068600399E+03  0.10566000000E+00 0.  1.
    9000005    1    3    3    0    0  0.53412934945E+02  0.29499629858E+02 -0.22913762318E+02  0.65185966931E+02  0.10000000000E+01 0.  0.
    9000005    1    3    3    0    0  0.90872781599E+02  0.69142479283E+02 -0.31713050656E+03  0.33706275835E+03  0.10000000000E+01 0.  0.
<mgrwt>
<rscale>  0 0.20994957E+03</rscale>
<asrwt>0</asrwt>
<pdfrwt beam="2">  1        2 0.63405299E-01 0.21488120E+03</pdfrwt>
<pdfrwt beam="1">  1       -2 0.40768166E-01 0.21488120E+03</pdfrwt>
<totfact> 0.44676122E+02</totfact>
</mgrwt>
</event>
<event>
 8    3  0.7944584E-004  0.3291662E+03  0.7818608E-02  0.1072679E+00
         -2   -1    0    0    0  501 -0.00000000000E+00  0.00000000000E+00  0.16331957057E+03  0.16331957059E+03  0.25500000000E-02 0.  1.
          2   -1    0    0  501    0  0.00000000000E+00 -0.00000000000E+00 -0.68787893309E+03  0.68787893310E+03  0.25500000000E-02 0. -1.
         25    2    1    2    0    0  0.29479936344E+03 -0.76280263962E+02 -0.37531720992E+03  0.49921275972E+03  0.12500011223E+03 0.  0.
         23    2    1    2    0    0 -0.29479936344E+03  0.76280263962E+02 -0.14924215261E+03  0.35198574396E+03  0.94315430792E+02 0.  0.
        -13    1    4    4    0    0 -0.20038551899E+03  0.50065295279E+02 -0.49977384735E+02  0.21250562383E+03  0.10566000000E+00 0.  1.
         13    1    4    4    0    0 -0.94413844448E+02  0.26214968683E+02 -0.99264767873E+02  0.13948012013E+03  0.10566000000E+00 0. -1.
    9000005    1    3    3    0    0  0.21812873738E+03 -0.32349633097E+02 -0.33735530730E+03  0.40303380528E+03  0.10000000000E+01 0.  0.
    9000005    1    3    3    0    0  0.76670626054E+02 -0.43930630866E+02 -0.37961902618E+02  0.96178954445E+02  0.10000000000E+01 0.  0.
<mgrwt>
<rscale>  0 0.32653835E+03</rscale>
<asrwt>0</asrwt>
<pdfrwt beam="2">  1        2 0.10582753E+00 0.32916618E+03</pdfrwt>
<pdfrwt beam="1">  1       -2 0.25126088E-01 0.32916618E+03</pdfrwt>
<totfact> 0.60500333E+02</totfact>
</mgrwt>
</event>
<event>
 8    3  0.7944584E-004  0.1327137E+03  0.7818608E-02  0.1236383E+00
         -2   -1    0    0    0  501 -0.00000000000E+00  0.00000000000E+00  0.10028741032E+03  0.10028741035E+03  0.25500000000E-02 0.  1.
          2   -1    0    0  501    0  0.00000000000E+00 -0.00000000000E+00 -0.13721639104E+03  0.13721639107E+03  0.25500000000E-02 0. -1.
         25    2    1    2    0    0  0.44109023008E+02  0.65303099087E+01 -0.15759754646E+02  0.13364612927E+03  0.12499866857E+03 0.  0.
         23    2    1    2    0    0 -0.44109023008E+02 -0.65303099087E+01 -0.21169226078E+02  0.10385767215E+03  0.91378493493E+02 0.  0.
        -13    1    4    4    0    0 -0.12583333299E+02 -0.25967192383E+02 -0.49453542801E+02  0.57256435593E+02  0.10566000000E+00 0. -1.
         13    1    4    4    0    0 -0.31525689709E+02  0.19436882474E+02  0.28284316723E+02  0.46601236555E+02  0.10566000000E+00 0.  1.
    9000005    1    3    3    0    0  0.82714892166E+02  0.24933696273E+02 -0.24873948123E+02  0.89906372917E+02  0.10000000000E+01 0.  0.
    9000005    1    3    3    0    0 -0.38605869157E+02 -0.18403386364E+02  0.91141934768E+01  0.43739756353E+02  0.10000000000E+01 0.  0.
<mgrwt>
<rscale>  0 0.12416317E+03</rscale>
<asrwt>0</asrwt>
<pdfrwt beam="2">  1        2 0.21110214E-01 0.13271367E+03</pdfrwt>
<pdfrwt beam="1">  1       -2 0.15428832E-01 0.13271367E+03</pdfrwt>
<totfact> 0.80386976E+03</totfact>
</mgrwt>
</event>
<event>
 8    3  0.7944584E-004  0.2252350E+03  0.7818608E-02  0.1133516E+00
          2   -1    0    0  501    0  0.00000000000E+00  0.00000000000E+00  0.38276059693E+03  0.38276059694E+03  0.25500000000E-02 0.  1.
         -2   -1    0    0    0  501 -0.00000000000E+00 -0.00000000000E+00 -0.14908876169E+03  0.14908876171E+03  0.25500000000E-02 0. -1.
         25    2    1    2    0    0 -0.16758100854E+03 -0.83803710701E+02  0.23428011756E+03  0.32498920718E+03  0.12499741977E+03 0.  0.
         23    2    1    2    0    0  0.16758100854E+03  0.83803710701E+02 -0.60828232397E+00  0.20686015146E+03  0.87660115810E+02 0.  0.
        -13    1    4    4    0    0  0.10233712846E+03  0.67808065796E+02  0.39082823086E+02  0.12883438932E+03  0.10566000000E+00 0.  1.
         13    1    4    4    0    0  0.65243880086E+02  0.15995644905E+02 -0.39691105410E+02  0.78025762139E+02  0.10566000000E+00 0. -1.
    9000005    1    3    3    0    0 -0.16335075208E+03 -0.87644663619E+02  0.14456117106E+03  0.23508293737E+03  0.10000000000E+01 0.  0.
    9000005    1    3    3    0    0 -0.42302564619E+01  0.38409529183E+01  0.89718946506E+02  0.89906269810E+02  0.10000000000E+01 0.  0.
<mgrwt>
<rscale>  0 0.22049344E+03</rscale>
<asrwt>0</asrwt>
<pdfrwt beam="1">  1        2 0.58886244E-01 0.22523501E+03</pdfrwt>
<pdfrwt beam="2">  1       -2 0.22936733E-01 0.22523501E+03</pdfrwt>
<totfact> 0.13827910E+03</totfact>
</mgrwt>
</event>
<event>
 8    3  0.7944584E-004  0.1690731E+03  0.7818608E-02  0.1182815E+00
         -2   -1    0    0    0  501 -0.00000000000E+00  0.00000000000E+00  0.69037213882E+02  0.69037213929E+02  0.25500000000E-02 0.  1.
          2   -1    0    0  501    0  0.00000000000E+00 -0.00000000000E+00 -0.40046958953E+03  0.40046958954E+03  0.25500000000E-02 0. -1.
         25    2    1    2    0    0  0.76249684717E+02  0.84503609854E+02 -0.11882061568E+03  0.20664955564E+03  0.12502330038E+03 0.  0.
         23    2    1    2    0    0 -0.76249684717E+02 -0.84503609854E+02 -0.21261175997E+03  0.26285724782E+03  0.10457197406E+03 0.  0.
        -13    1    4    4    0    0 -0.28804572306E+02 -0.99541721135E+02 -0.12795326829E+03  0.16465208065E+03  0.10566000000E+00 0. -1.
         13    1    4    4    0    0 -0.47445112412E+02  0.15038111281E+02 -0.84658491672E+02  0.98205167170E+02  0.10566000000E+00 0.  1.
    9000005    1    3    3    0    0  0.53920130178E+02  0.55739020456E+01 -0.11187801610E+03  0.12432272241E+03  0.10000000000E+01 0.  0.
    9000005    1    3    3    0    0  0.22329554539E+02  0.78929707808E+02 -0.69425995824E+01  0.82326833229E+02  0.10000000000E+01 0.  0.
<mgrwt>
<rscale>  0 0.16532298E+03</rscale>
<asrwt>0</asrwt>
<pdfrwt beam="2">  1        2 0.61610705E-01 0.16907306E+03</pdfrwt>
<pdfrwt beam="1">  1       -2 0.10621110E-01 0.16907306E+03</pdfrwt>
<totfact> 0.46767902E+03</totfact>
</mgrwt>
</event>
<event>
 8    3  0.7944584E-004  0.1289320E+03  0.7818608E-02  0.1244659E+00
          2   -1    0    0  501    0  0.00000000000E+00  0.00000000000E+00  0.25012800187E+03  0.25012800188E+03  0.25500000000E-02 0. -1.
         -2   -1    0    0    0  501 -0.00000000000E+00 -0.00000000000E+00 -0.49879023842E+02  0.49879023907E+02  0.25500000000E-02 0.  1.
         25    2    1    2    0    0 -0.21500572792E+02  0.23155583913E+02  0.12768977340E+03  0.18146112543E+03  0.12500002445E+03 0.  0.
         23    2    1    2    0    0  0.21500572792E+02 -0.23155583913E+02  0.72559204629E+02  0.11854590036E+03  0.88260051098E+02 0.  0.
        -13    1    4    4    0    0 -0.18360374858E+02 -0.40530153050E+01 -0.12575355784E+02  0.22620367705E+02  0.10566000000E+00 0.  1.
         13    1    4    4    0    0  0.39860947650E+02 -0.19102568608E+02  0.85134560413E+02  0.95925532658E+02  0.10566000000E+00 0. -1.
    9000005    1    3    3    0    0 -0.73544529827E+00 -0.11307205668E+02 -0.22908644577E+02  0.25577329340E+02  0.10000000000E+01 0.  0.
    9000005    1    3    3    0    0 -0.20765127493E+02  0.34462789581E+02  0.15059841797E+03  0.15588379609E+03  0.10000000000E+01 0.  0.
<mgrwt>
<rscale>  0 0.11905801E+03</rscale>
<asrwt>0</asrwt>
<pdfrwt beam="1">  1        2 0.38481231E-01 0.12893200E+03</pdfrwt>
<pdfrwt beam="2">  1       -2 0.76736959E-02 0.12893200E+03</pdfrwt>
<totfact> 0.12601788E+04</totfact>
</mgrwt>
</event>
<event>
 8    3  0.7944584E-004  0.2948335E+03  0.7818608E-02  0.1090085E+00
         -2   -1    0    0    0  501 -0.00000000000E+00  0.00000000000E+00  0.50051642295E+02  0.50051642360E+02  0.25500000000E-02 0.  1.
          2   -1    0    0  501    0  0.00000000000E+00 -0.00000000000E+00 -0.16582910694E+04  0.16582910694E+04  0.25500000000E-02 0. -1.
         25    2    1    2    0    0  0.22045441964E+03  0.15067236080E+03 -0.73423533250E+03  0.79121950337E+03  0.12499787026E+03 0.  0.
         23    2    1    2    0    0 -0.22045441964E+03 -0.15067236080E+03 -0.87400409463E+03  0.91712320842E+03  0.77003315117E+02 0.  0.
        -13    1    4    4    0    0 -0.18189056046E+03 -0.15342148694E+03 -0.71817633801E+03  0.75657094333E+03  0.10566000000E+00 0.  1.
         13    1    4    4    0    0 -0.38563859179E+02  0.27491261414E+01 -0.15582775662E+03  0.16055226509E+03  0.10566000000E+00 0. -1.
    9000005    1    3    3    0    0  0.22772984977E+03  0.15286557041E+03 -0.73397691196E+03  0.78355081162E+03  0.10000000000E+01 0.  0.
    9000005    1    3    3    0    0 -0.72754301290E+01 -0.21932096135E+01 -0.25842053762E+00  0.76686917492E+01  0.10000000000E+01 0.  0.
<mgrwt>
<rscale>  0 0.29050735E+03</rscale>
<asrwt>0</asrwt>
<pdfrwt beam="2">  1        2 0.25512166E+00 0.29483348E+03</pdfrwt>
<pdfrwt beam="1">  1       -2 0.77002539E-02 0.29483348E+03</pdfrwt>
<totfact> 0.11271390E+03</totfact>
</mgrwt>
</event>
<event>
 8    3  0.7944584E-004  0.2053196E+03  0.7818608E-02  0.1149327E+00
         -2   -1    0    0    0  501 -0.00000000000E+00  0.00000000000E+00  0.19871363426E+03  0.19871363428E+03  0.25500000000E-02 0.  1.
          2   -1    0    0  501    0  0.00000000000E+00 -0.00000000000E+00 -0.19456263451E+03  0.19456263453E+03  0.25500000000E-02 0. -1.
         25    2    1    2    0    0  0.10262991283E+03 -0.12648154648E+03  0.17931417122E+02  0.20610110007E+03  0.12500258846E+03 0.  0.
         23    2    1    2    0    0 -0.10262991283E+03  0.12648154648E+03 -0.13780417372E+02  0.18717516873E+03  0.91182033754E+02 0.  0.
        -13    1    4    4    0    0 -0.10379731104E+03  0.70036457810E+02  0.10631047368E+02  0.12566629435E+03  0.10566000000E+00 0.  1.
         13    1    4    4    0    0  0.11673982115E+01  0.56445088670E+02 -0.24411464740E+02  0.61508874387E+02  0.10566000000E+00 0. -1.
    9000005    1    3    3    0    0  0.12011298401E+03 -0.79325498372E+02 -0.16872143122E+02  0.14493216632E+03  0.10000000000E+01 0.  0.
    9000005    1    3    3    0    0 -0.17483071175E+02 -0.47156048108E+02  0.34803560244E+02  0.61168933753E+02  0.10000000000E+01 0.  0.
<mgrwt>
<rscale>  0 0.20048864E+03</rscale>
<asrwt>0</asrwt>
<pdfrwt beam="2">  1        2 0.29932713E-01 0.20531957E+03</pdfrwt>
<pdfrwt beam="1">  1       -2 0.30571329E-01 0.20531957E+03</pdfrwt>
<totfact> 0.17199207E+03</totfact>
</mgrwt>
</event>
<event>
 8    3  0.7944584E-004  0.1447446E+03  0.7818608E-02  0.1216736E+00
          2   -1    0    0  501    0  0.00000000000E+00  0.00000000000E+00  0.42511591502E+03  0.42511591503E+03  0.25500000000E-02 0. -1.
         -2   -1    0    0    0  501 -0.00000000000E+00 -0.00000000000E+00 -0.45216936971E+02  0.45216937043E+02  0.25500000000E-02 0.  1.
         25    2    1    2    0    0 -0.72944326179E+02 -0.21654803303E+01  0.13223427283E+03  0.19605334643E+03  0.12500179081E+03 0.  0.
         23    2    1    2    0    0  0.72944326179E+02  0.21654803303E+01  0.24766470522E+03  0.27427950565E+03  0.92552023101E+02 0.  0.
        -13    1    4    4    0    0 -0.17425447533E+02  0.10837624838E+02  0.90325581236E+02  0.92627329248E+02  0.10566000000E+00 0. -1.
         13    1    4    4    0    0  0.90369773711E+02 -0.86721445075E+01  0.15733912398E+03  0.18165217640E+03  0.10566000000E+00 0.  1.
    9000005    1    3    3    0    0 -0.33498375137E+02 -0.15591698378E+02  0.14719836134E+03  0.15176824363E+03  0.10000000000E+01 0.  0.
    9000005    1    3    3    0    0 -0.39445951042E+02  0.13426218048E+02 -0.14964088504E+02  0.44285102793E+02  0.10000000000E+01 0.  0.
<mgrwt>
<rscale>  0 0.13749765E+03</rscale>
<asrwt>0</asrwt>
<pdfrwt beam="1">  1        2 0.65402448E-01 0.14474464E+03</pdfrwt>
<pdfrwt beam="2">  1       -2 0.69564519E-02 0.14474464E+03</pdfrwt>
<totfact> 0.84066517E+03</totfact>
</mgrwt>
</event>
<event>
 8    3  0.7944584E-004  0.1263800E+03  0.7818608E-02  0.1236507E+00
          2   -1    0    0  501    0  0.00000000000E+00  0.00000000000E+00  0.17136046887E+03  0.17136046889E+03  0.25500000000E-02 0.  1.
         -2   -1    0    0    0  501 -0.00000000000E+00 -0.00000000000E+00 -0.89169589418E+02  0.89169589454E+02  0.25500000000E-02 0. -1.
         25    2    1    2    0    0 -0.71170654868E+00 -0.18621952620E+02  0.64078219644E+02  0.14169655349E+03  0.12499844556E+03 0.  0.
         23    2    1    2    0    0  0.71170654868E+00  0.18621952620E+02  0.18112659808E+02  0.11883350485E+03  0.11595710321E+03 0.  0.
        -13    1    4    4    0    0 -0.52028687709E+02 -0.15648009145E+02  0.47933219045E+01  0.54542017142E+02  0.10566000000E+00 0.  1.
         13    1    4    4    0    0  0.52740394258E+02  0.34269961765E+02  0.13319337903E+02  0.64291487711E+02  0.10566000000E+00 0. -1.
    9000005    1    3    3    0    0 -0.45930149819E+02  0.33498595580E+02  0.35322780878E+02  0.66936039748E+02  0.10000000000E+01 0.  0.
    9000005    1    3    3    0    0  0.45218443270E+02 -0.52120548200E+02  0.28755438767E+02  0.74760513743E+02  0.10000000000E+01 0.  0.
<mgrwt>
<rscale>  0 0.12408444E+03</rscale>
<asrwt>0</asrwt>
<pdfrwt beam="1">  1        2 0.26363149E-01 0.12637996E+03</pdfrwt>
<pdfrwt beam="2">  1       -2 0.13718399E-01 0.12637996E+03</pdfrwt>
<totfact> 0.75789128E+03</totfact>
</mgrwt>
</event>
<event>
 8    3  0.7944584E-004  0.1353545E+03  0.7818608E-02  0.1232019E+00
         -2   -1    0    0    0  501 -0.00000000000E+00  0.00000000000E+00  0.18814313893E+02  0.18814314066E+02  0.25500000000E-02 0. -1.
          2   -1    0    0  501    0  0.00000000000E+00 -0.00000000000E+00 -0.77171118327E+03  0.77171118327E+03  0.25500000000E-02 0.  1.
         25    2    1    2    0    0  0.92152785629E+01  0.51095436395E+02 -0.45637601352E+03  0.47602512006E+03  0.12500073693E+03 0.  0.
         23    2    1    2    0    0 -0.92152785629E+01 -0.51095436395E+02 -0.29652085585E+03  0.31450037727E+03  0.91050559423E+02 0.  0.
        -13    1    4    4    0    0 -0.13077591016E+01 -0.48606777090E+01 -0.24412141171E+03  0.24417332213E+03  0.10566000000E+00 0.  1.
         13    1    4    4    0    0 -0.79075194614E+01 -0.46234758686E+02 -0.52399444147E+02  0.70327055147E+02  0.10566000000E+00 0. -1.
    9000005    1    3    3    0    0  0.12445510723E+02  0.74805366223E+02 -0.44120231469E+03  0.44767311293E+03  0.10000000000E+01 0.  0.
    9000005    1    3    3    0    0 -0.32302321598E+01 -0.23709929828E+02 -0.15173698834E+02  0.28352007135E+02  0.10000000000E+01 0.  0.
<mgrwt>
<rscale>  0 0.12697228E+03</rscale>
<asrwt>0</asrwt>
<pdfrwt beam="2">  1        2 0.11872477E+00 0.13535453E+03</pdfrwt>
<pdfrwt beam="1">  1       -2 0.28945104E-02 0.13535453E+03</pdfrwt>
<totfact> 0.15792559E+04</totfact>
</mgrwt>
</event>
<event>
 8    3  0.7944584E-004  0.1436559E+03  0.7818608E-02  0.1218905E+00
          2   -1    0    0  501    0  0.00000000000E+00  0.00000000000E+00  0.41420363263E+03  0.41420363264E+03  0.25500000000E-02 0.  1.
         -2   -1    0    0    0  501 -0.00000000000E+00 -0.00000000000E+00 -0.40440938998E+02  0.40440939079E+02  0.25500000000E-02 0. -1.
         25    2    1    2    0    0  0.61785886080E+02  0.34543574584E+02  0.20475350450E+03  0.25012198211E+03  0.12500501617E+03 0.  0.
         23    2    1    2    0    0 -0.61785886080E+02 -0.34543574584E+02  0.16900918913E+03  0.20452258961E+03  0.90854990964E+02 0.  0.
        -13    1    4    4    0    0 -0.39734569582E+02 -0.65178979709E+02  0.12579239753E+03  0.14714235915E+03  0.10566000000E+00 0.  1.
         13    1    4    4    0    0 -0.22051316498E+02  0.30635405125E+02  0.43216791606E+02  0.57380230456E+02  0.10566000000E+00 0. -1.
    9000005    1    3    3    0    0  0.83509558306E+02  0.51302971798E+02  0.19934648752E+03  0.22213928813E+03  0.10000000000E+01 0.  0.
    9000005    1    3    3    0    0 -0.21723672227E+02 -0.16759397214E+02  0.54070169779E+01  0.27982693983E+02  0.10000000000E+01 0.  0.
<mgrwt>
<rscale>  0 0.13593538E+03</rscale>
<asrwt>0</asrwt>
<pdfrwt beam="1">  1        2 0.63723634E-01 0.14365587E+03</pdfrwt>
<pdfrwt beam="2">  1       -2 0.62216831E-02 0.14365587E+03</pdfrwt>
<totfact> 0.10246586E+04</totfact>
</mgrwt>
</event>
<event>
 8    3  0.7944584E-004  0.1389026E+03  0.7818608E-02  0.1226425E+00
         -2   -1    0    0    0  501 -0.00000000000E+00  0.00000000000E+00  0.15150715488E+02  0.15150715703E+02  0.25500000000E-02 0.  1.
          2   -1    0    0  501    0  0.00000000000E+00 -0.00000000000E+00 -0.10205808960E+04  0.10205808960E+04  0.25500000000E-02 0. -1.
         25    2    1    2    0    0 -0.53116597124E+02 -0.29116010413E+02 -0.60730506250E+03  0.62298744952E+03  0.12499923345E+03 0.  0.
         23    2    1    2    0    0  0.53116597124E+02  0.29116010413E+02 -0.39812511800E+03  0.41274416218E+03  0.90471094162E+02 0.  0.
        -13    1    4    4    0    0  0.76999337462E+02  0.10627896068E+02 -0.30960683129E+03  0.31921505493E+03  0.10566000000E+00 0. -1.
         13    1    4    4    0    0 -0.23882740338E+02  0.18488114344E+02 -0.88518286709E+02  0.93529107256E+02  0.10566000000E+00 0.  1.
    9000005    1    3    3    0    0 -0.48042757224E+02 -0.75947690624E+02 -0.44485475512E+03  0.45384238606E+03  0.10000000000E+01 0.  0.
    9000005    1    3    3    0    0 -0.50738399001E+01  0.46831680212E+02 -0.16245030738E+03  0.16914506345E+03  0.10000000000E+01 0.  0.
<mgrwt>
<rscale>  0 0.13069725E+03</rscale>
<asrwt>0</asrwt>
<pdfrwt beam="2">  1        2 0.15701239E+00 0.13890257E+03</pdfrwt>
<pdfrwt beam="1">  1       -2 0.23308801E-02 0.13890257E+03</pdfrwt>
<totfact> 0.15091500E+04</totfact>
</mgrwt>
</event>
<event>
 8    3  0.7944584E-004  0.1253581E+03  0.7818608E-02  0.1250880E+00
          2   -1    0    0  501    0  0.00000000000E+00  0.00000000000E+00  0.35288189504E+02  0.35288189596E+02  0.25500000000E-02 0. -1.
         -2   -1    0    0    0  501 -0.00000000000E+00 -0.00000000000E+00 -0.33043369342E+03  0.33043369343E+03  0.25500000000E-02 0.  1.
         25    2    1    2    0    0 -0.67128995166E+01  0.66257791592E+01 -0.15849734363E+03  0.20207934758E+03  0.12500276321E+03 0.  0.
         23    2    1    2    0    0  0.67128995166E+01 -0.66257791592E+01 -0.13664816029E+03  0.16364253545E+03  0.89538794546E+02 0.  0.
        -13    1    4    4    0    0  0.44963543078E+01  0.16377214034E+02  0.68371227554E+01  0.18308133526E+02  0.10566000000E+00 0. -1.
         13    1    4    4    0    0  0.22165452088E+01 -0.23002993193E+02 -0.14348528304E+03  0.14533440192E+03  0.10566000000E+00 0.  1.
    9000005    1    3    3    0    0  0.27538189629E+02  0.42146810764E+02 -0.14098811865E+03  0.14971090524E+03  0.10000000000E+01 0.  0.
    9000005    1    3    3    0    0 -0.34251089146E+02 -0.35521031605E+02 -0.17509224977E+02  0.52368442341E+02  0.10000000000E+01 0.  0.
<mgrwt>
<rscale>  0 0.11540276E+03</rscale>
<asrwt>0</asrwt>
<pdfrwt beam="1">  1        2 0.54289525E-02 0.12535811E+03</pdfrwt>
<pdfrwt beam="2">  1       -2 0.50835951E-01 0.12535811E+03</pdfrwt>
<totfact> 0.49362189E+03</totfact>
</mgrwt>
</event>
<event>
 8    3  0.7944584E-004  0.1862404E+03  0.7818608E-02  0.1167015E+00
          2   -1    0    0  501    0  0.00000000000E+00  0.00000000000E+00  0.27520951837E+04  0.27520951837E+04  0.25500000000E-02 0. -1.
         -2   -1    0    0    0  501 -0.00000000000E+00 -0.00000000000E+00 -0.15891172988E+02  0.15891173193E+02  0.25500000000E-02 0.  1.
         25    2    1    2    0    0 -0.94253882368E+02 -0.10088106826E+03  0.67717284167E+03  0.70231654670E+03  0.12499875998E+03 0.  0.
         23    2    1    2    0    0  0.94253882368E+02  0.10088106826E+03  0.20590311691E+04  0.20656698102E+04  0.91222943319E+02 0.  0.
        -13    1    4    4    0    0  0.63207116959E+02  0.23680017411E+02  0.51589134551E+03  0.52028816477E+03  0.10566000000E+00 0.  1.
         13    1    4    4    0    0  0.31046765409E+02  0.77201050851E+02  0.15431398235E+04  0.15453816454E+04  0.10566000000E+00 0. -1.
    9000005    1    3    3    0    0 -0.78753029329E+02  0.42870264821E+01  0.32591958658E+03  0.33532819020E+03  0.10000000000E+01 0.  0.
    9000005    1    3    3    0    0 -0.15500853039E+02 -0.10516809474E+03  0.35125325509E+03  0.36698835650E+03  0.10000000000E+01 0.  0.
<mgrwt>
<rscale>  0 0.18081703E+03</rscale>
<asrwt>0</asrwt>
<pdfrwt beam="1">  1        2 0.42339949E+00 0.18624037E+03</pdfrwt>
<pdfrwt beam="2">  1       -2 0.24447945E-02 0.18624037E+03</pdfrwt>
<totfact> 0.16866970E+03</totfact>
</mgrwt>
</event>
<event>
 8    3  0.7944584E-004  0.1698402E+03  0.7818608E-02  0.1183815E+00
         -2   -1    0    0    0  501 -0.00000000000E+00  0.00000000000E+00  0.12046377918E+03  0.12046377920E+03  0.25500000000E-02 0.  1.
          2   -1    0    0  501    0  0.00000000000E+00 -0.00000000000E+00 -0.21272055423E+03  0.21272055424E+03  0.25500000000E-02 0. -1.
         25    2    1    2    0    0  0.19369470810E+02  0.11332880698E+03 -0.63529834372E+02  0.18133319789E+03  0.12500837536E+03 0.  0.
         23    2    1    2    0    0 -0.19369470810E+02 -0.11332880698E+03 -0.28726940680E+02  0.15185113556E+03  0.94947013418E+02 0.  0.
        -13    1    4    4    0    0  0.34468115335E+00 -0.11489029147E+03  0.24661574697E+01  0.11491732235E+03  0.10566000000E+00 0.  1.
         13    1    4    4    0    0 -0.19714151963E+02  0.15614844914E+01 -0.31193098149E+02  0.36933813202E+02  0.10566000000E+00 0. -1.
    9000005    1    3    3    0    0  0.30159846321E+02 -0.10739709744E+02 -0.45277710550E+02  0.55461957847E+02  0.10000000000E+01 0.  0.
    9000005    1    3    3    0    0 -0.10790375512E+02  0.12406851673E+03 -0.18252123822E+02  0.12587124005E+03  0.10000000000E+01 0.  0.
<mgrwt>
<rscale>  0 0.16440173E+03</rscale>
<asrwt>0</asrwt>
<pdfrwt beam="2">  1        2 0.32726239E-01 0.16984019E+03</pdfrwt>
<pdfrwt beam="1">  1       -2 0.18532889E-01 0.16984019E+03</pdfrwt>
<totfact> 0.37148296E+03</totfact>
</mgrwt>
</event>
<event>
 8    3  0.7944584E-004  0.1353075E+03  0.7818608E-02  0.1232054E+00
          2   -1    0    0  501    0  0.00000000000E+00  0.00000000000E+00  0.50262259610E+03  0.50262259610E+03  0.25500000000E-02 0. -1.
         -2   -1    0    0    0  501 -0.00000000000E+00 -0.00000000000E+00 -0.30290043748E+02  0.30290043855E+02  0.25500000000E-02 0.  1.
         25    2    1    2    0    0  0.48565928340E+02  0.18032334929E+02  0.20370153916E+03  0.24454537363E+03  0.12499723280E+03 0.  0.
         23    2    1    2    0    0 -0.48565928340E+02 -0.18032334929E+02  0.26863101319E+03  0.28836726633E+03  0.91155057713E+02 0.  0.
        -13    1    4    4    0    0 -0.43474614109E+02 -0.25157772897E+02  0.54724279867E+02  0.74281313801E+02  0.10566000000E+00 0.  1.
         13    1    4    4    0    0 -0.50913142309E+01  0.71254379678E+01  0.21390673332E+03  0.21408595253E+03  0.10566000000E+00 0. -1.
    9000005    1    3    3    0    0  0.49525048249E+02  0.55488222721E+02  0.19099648218E+03  0.20496909393E+03  0.10000000000E+01 0.  0.
    9000005    1    3    3    0    0 -0.95911990966E+00 -0.37455887792E+02  0.12705056986E+02  0.39576279692E+02  0.10000000000E+01 0.  0.
<mgrwt>
<rscale>  0 0.12694957E+03</rscale>
<asrwt>0</asrwt>
<pdfrwt beam="1">  1        2 0.77326552E-01 0.13530751E+03</pdfrwt>
<pdfrwt beam="2">  1       -2 0.46600068E-02 0.13530751E+03</pdfrwt>
<totfact> 0.12789279E+04</totfact>
</mgrwt>
</event>
<event>
 8    3  0.7944584E-004  0.1303685E+03  0.7818608E-02  0.1237138E+00
          2   -1    0    0  501    0  0.00000000000E+00  0.00000000000E+00  0.73853813453E+03  0.73853813454E+03  0.25500000000E-02 0. -1.
         -2   -1    0    0    0  501 -0.00000000000E+00 -0.00000000000E+00 -0.30376116324E+02  0.30376116431E+02  0.25500000000E-02 0.  1.
         25    2    1    2    0    0 -0.15817771019E+02  0.33505043162E+02  0.61311864611E+03  0.62682567908E+03  0.12499267157E+03 0.  0.
         23    2    1    2    0    0  0.15817771019E+02 -0.33505043162E+02  0.95043372099E+02  0.14208857189E+03  0.98909705717E+02 0.  0.
        -13    1    4    4    0    0  0.36334197368E+02 -0.55789314445E+02  0.35901421264E+02  0.75640893156E+02  0.10566000000E+00 0.  1.
         13    1    4    4    0    0 -0.20516426349E+02  0.22284271283E+02  0.59141950836E+02  0.66447678736E+02  0.10566000000E+00 0. -1.
    9000005    1    3    3    0    0 -0.25675912161E+02  0.52138005860E+02  0.12082064248E+03  0.13407554501E+03  0.10000000000E+01 0.  0.
    9000005    1    3    3    0    0  0.98581411424E+01 -0.18632962698E+02  0.49229800363E+03  0.49275013407E+03  0.10000000000E+01 0.  0.
<mgrwt>
<rscale>  0 0.12368522E+03</rscale>
<asrwt>0</asrwt>
<pdfrwt beam="1">  1        2 0.11362125E+00 0.13036855E+03</pdfrwt>
<pdfrwt beam="2">  1       -2 0.46732488E-02 0.13036855E+03</pdfrwt>
<totfact> 0.81766916E+03</totfact>
</mgrwt>
</event>
<event>
 8    3  0.7944584E-004  0.1846711E+03  0.7818608E-02  0.1168527E+00
          2   -1    0    0  501    0  0.00000000000E+00  0.00000000000E+00  0.15089529435E+04  0.15089529435E+04  0.25500000000E-02 0. -1.
         -2   -1    0    0    0  501 -0.00000000000E+00 -0.00000000000E+00 -0.20686350080E+02  0.20686350237E+02  0.25500000000E-02 0.  1.
         25    2    1    2    0    0 -0.11423238766E+03 -0.73682948981E+02  0.66250119448E+03  0.68775812367E+03  0.12500075451E+03 0.  0.
         23    2    1    2    0    0  0.11423238766E+03  0.73682948981E+02  0.82576539891E+03  0.84188117004E+03  0.91636210452E+02 0.  0.
        -13    1    4    4    0    0  0.10380322428E+03  0.20021502140E+02  0.45581589999E+03  0.46791464581E+03  0.10566000000E+00 0.  1.
         13    1    4    4    0    0  0.10429163384E+02  0.53661446841E+02  0.36994949892E+03  0.37396652423E+03  0.10566000000E+00 0. -1.
    9000005    1    3    3    0    0  0.21124105796E+02 -0.36972588403E+01  0.19198625929E+03  0.19318287017E+03  0.10000000000E+01 0.  0.
    9000005    1    3    3    0    0 -0.13535649345E+03 -0.69985690141E+02  0.47051493519E+03  0.49457525350E+03  0.10000000000E+01 0.  0.
<mgrwt>
<rscale>  0 0.17925387E+03</rscale>
<asrwt>0</asrwt>
<pdfrwt beam="1">  1        2 0.23214662E+00 0.18467107E+03</pdfrwt>
<pdfrwt beam="2">  1       -2 0.31825153E-02 0.18467107E+03</pdfrwt>
<totfact> 0.51939010E+03</totfact>
</mgrwt>
</event>
<event>
 8    3  0.7944584E-004  0.1510737E+03  0.7818608E-02  0.1210771E+00
          2   -1    0    0  501    0  0.00000000000E+00  0.00000000000E+00  0.64095813514E+03  0.64095813515E+03  0.25500000000E-02 0. -1.
         -2   -1    0    0    0  501 -0.00000000000E+00 -0.00000000000E+00 -0.30144774668E+02  0.30144774776E+02  0.25500000000E-02 0.  1.
         25    2    1    2    0    0 -0.71756468675E+02 -0.45272163827E+02  0.42626046745E+03  0.45224025688E+03  0.12499881687E+03 0.  0.
         23    2    1    2    0    0  0.71756468675E+02  0.45272163827E+02  0.18455289302E+03  0.21886265304E+03  0.81501723650E+02 0.  0.
        -13    1    4    4    0    0  0.14425098371E+02  0.34076452848E+02  0.14160241400E+03  0.14635758579E+03  0.10566000000E+00 0. -1.
         13    1    4    4    0    0  0.57331370304E+02  0.11195710980E+02  0.42950479020E+02  0.72505067253E+02  0.10566000000E+00 0.  1.
    9000005    1    3    3    0    0 -0.75583450155E+02  0.20197289742E+02  0.29905709139E+03  0.30912284348E+03  0.10000000000E+01 0.  0.
    9000005    1    3    3    0    0  0.38269814799E+01 -0.65469453569E+02  0.12720337606E+03  0.14311741340E+03  0.10000000000E+01 0.  0.
<mgrwt>
<rscale>  0 0.14191815E+03</rscale>
<asrwt>0</asrwt>
<pdfrwt beam="1">  1        2 0.98608939E-01 0.15107370E+03</pdfrwt>
<pdfrwt beam="2">  1       -2 0.46376579E-02 0.15107370E+03</pdfrwt>
<totfact> 0.98670438E+03</totfact>
</mgrwt>
</event>
<event>
 8    3  0.7944584E-004  0.1287753E+03  0.7818608E-02  0.1243750E+00
          2   -1    0    0  501    0  0.00000000000E+00  0.00000000000E+00  0.98506823008E+03  0.98506823008E+03  0.25500000000E-02 0. -1.
         -2   -1    0    0    0  501 -0.00000000000E+00 -0.00000000000E+00 -0.13038221644E+02  0.13038221894E+02  0.25500000000E-02 0.  1.
         25    2    1    2    0    0  0.21390661534E+02  0.22345727090E+02  0.62233770000E+03  0.63552128269E+03  0.12500478387E+03 0.  0.
         23    2    1    2    0    0 -0.21390661534E+02 -0.22345727090E+02  0.34969230843E+03  0.36258516928E+03  0.90699517573E+02 0.  0.
        -13    1    4    4    0    0 -0.44317417301E+02 -0.25667547386E+02  0.32386916606E+03  0.32789343444E+03  0.10566000000E+00 0. -1.
         13    1    4    4    0    0  0.22926755767E+02  0.33218202959E+01  0.25823142377E+02  0.34691734841E+02  0.10566000000E+00 0.  1.
    9000005    1    3    3    0    0 -0.30297456425E+02  0.36715360056E+02  0.49574736002E+03  0.49802851173E+03  0.10000000000E+01 0.  0.
    9000005    1    3    3    0    0  0.51688117959E+02 -0.14369632966E+02  0.12659033998E+03  0.13749277096E+03  0.10000000000E+01 0.  0.
<mgrwt>
<rscale>  0 0.11960500E+03</rscale>
<asrwt>0</asrwt>
<pdfrwt beam="1">  1        2 0.15154897E+00 0.12877534E+03</pdfrwt>
<pdfrwt beam="2">  1       -2 0.20058802E-02 0.12877534E+03</pdfrwt>
<totfact> 0.19609972E+04</totfact>
</mgrwt>
</event>
<event>
 8    3  0.7944584E-004  0.1313362E+03  0.7818608E-02  0.1239629E+00
          2   -1    0    0  501    0  0.00000000000E+00  0.00000000000E+00  0.69312747300E+03  0.69312747301E+03  0.25500000000E-02 0. -1.
         -2   -1    0    0    0  501 -0.00000000000E+00 -0.00000000000E+00 -0.20232190380E+02  0.20232190540E+02  0.25500000000E-02 0.  1.
         25    2    1    2    0    0 -0.44734662223E+01 -0.40055389693E+02  0.29500633371E+03  0.32292093826E+03  0.12499899716E+03 0.  0.
         23    2    1    2    0    0  0.44734662223E+01  0.40055389693E+02  0.37788894891E+03  0.39043872529E+03  0.89542695711E+02 0.  0.
        -13    1    4    4    0    0 -0.40899387280E+02  0.88975807419E+01  0.13255719156E+03  0.13900844227E+03  0.10566000000E+00 0. -1.
         13    1    4    4    0    0  0.45372853502E+02  0.31157808951E+02  0.24533175734E+03  0.25143028302E+03  0.10566000000E+00 0.  1.
    9000005    1    3    3    0    0 -0.23848939843E+02  0.27255561469E+02  0.25108147199E+02  0.44080115908E+02  0.10000000000E+01 0.  0.
    9000005    1    3    3    0    0  0.19375473621E+02 -0.67310951163E+02  0.26989818652E+03  0.27884082235E+03  0.10000000000E+01 0.  0.
<mgrwt>
<rscale>  0 0.12212684E+03</rscale>
<asrwt>0</asrwt>
<pdfrwt beam="1">  1        2 0.10663499E+00 0.13133619E+03</pdfrwt>
<pdfrwt beam="2">  1       -2 0.31126450E-02 0.13133619E+03</pdfrwt>
<totfact> 0.16116016E+04</totfact>
</mgrwt>
</event>
<event>
 8    3  0.7944584E-004  0.1275413E+03  0.7818608E-02  0.1245104E+00
          2   -1    0    0  501    0  0.00000000000E+00  0.00000000000E+00  0.18849565137E+04  0.18849565137E+04  0.25500000000E-02 0. -1.
         -2   -1    0    0    0  501 -0.00000000000E+00 -0.00000000000E+00 -0.85976193951E+01  0.85976197733E+01  0.25500000000E-02 0.  1.
         25    2    1    2    0    0 -0.21959290731E+02 -0.12668494602E+02  0.14901035983E+04  0.14955519084E+04  0.12499630361E+03 0.  0.
         23    2    1    2    0    0  0.21959290731E+02  0.12668494602E+02  0.38625529605E+03  0.39800222510E+03  0.92573842152E+02 0.  0.
        -13    1    4    4    0    0 -0.90842273517E+01  0.10548803195E+02  0.40031806866E+01  0.14485753521E+02  0.10566000000E+00 0.  1.
         13    1    4    4    0    0  0.31043518083E+02  0.21196914078E+01  0.38225211537E+03  0.38351647158E+03  0.10566000000E+00 0. -1.
    9000005    1    3    3    0    0  0.25398180185E+02 -0.39265734513E+02  0.25501610989E+03  0.25927028709E+03  0.10000000000E+01 0.  0.
    9000005    1    3    3    0    0 -0.47357470916E+02  0.26597239911E+02  0.12350874884E+04  0.12362816213E+04  0.10000000000E+01 0.  0.
<mgrwt>
<rscale>  0 0.11879166E+03</rscale>
<asrwt>0</asrwt>
<pdfrwt beam="1">  1        2 0.28999316E+00 0.12754128E+03</pdfrwt>
<pdfrwt beam="2">  1       -2 0.13227114E-02 0.12754128E+03</pdfrwt>
<totfact> 0.11821311E+04</totfact>
</mgrwt>
</event>
<event>
 8    3  0.7944584E-004  0.1406299E+03  0.7818608E-02  0.1223457E+00
         -2   -1    0    0    0  501 -0.00000000000E+00  0.00000000000E+00  0.20428634612E+02  0.20428634771E+02  0.25500000000E-02 0.  1.
          2   -1    0    0  501    0  0.00000000000E+00 -0.00000000000E+00 -0.10534399382E+04  0.10534399382E+04  0.25500000000E-02 0. -1.
         25    2    1    2    0    0 -0.64372859140E+02 -0.28346380341E+01 -0.83336205209E+03  0.84514441036E+03  0.12499945733E+03 0.  0.
         23    2    1    2    0    0  0.64372859140E+02  0.28346380341E+01 -0.19964925153E+03  0.22872416265E+03  0.91120901966E+02 0.  0.
        -13    1    4    4    0    0  0.20220679855E+02 -0.74878086312E+01 -0.17650280577E+03  0.17781505780E+03  0.10566000000E+00 0. -1.
         13    1    4    4    0    0  0.44152179285E+02  0.10322446665E+02 -0.23146445759E+02  0.50909104844E+02  0.10566000000E+00 0.  1.
    9000005    1    3    3    0    0 -0.93618454161E+02 -0.10592929789E+01 -0.40084112024E+03  0.41163107358E+03  0.10000000000E+01 0.  0.
    9000005    1    3    3    0    0  0.29245595021E+02 -0.17753450552E+01 -0.43252093185E+03  0.43351333678E+03  0.10000000000E+01 0.  0.
<mgrwt>
<rscale>  0 0.13273206E+03</rscale>
<asrwt>0</asrwt>
<pdfrwt beam="2">  1        2 0.16206764E+00 0.14062988E+03</pdfrwt>
<pdfrwt beam="1">  1       -2 0.31428677E-02 0.14062988E+03</pdfrwt>
<totfact> 0.93205207E+03</totfact>
</mgrwt>
</event>
<event>
 8    3  0.7944584E-004  0.1692051E+03  0.7818608E-02  0.1184965E+00
          2   -1    0    0  501    0  0.00000000000E+00  0.00000000000E+00  0.19449690456E+04  0.19449690456E+04  0.25500000000E-02 0. -1.
         -2   -1    0    0    0  501 -0.00000000000E+00 -0.00000000000E+00 -0.13121321341E+02  0.13121321589E+02  0.25500000000E-02 0.  1.
         25    2    1    2    0    0 -0.10948044987E+03 -0.31911727328E+02  0.89191307615E+03  0.90782117648E+03  0.12500410321E+03 0.  0.
         23    2    1    2    0    0  0.10948044987E+03  0.31911727328E+02  0.10399346481E+04  0.10502691907E+04  0.92719865014E+02 0.  0.
        -13    1    4    4    0    0  0.89861697546E+02 -0.95558196160E+01  0.47815483375E+03  0.48661945561E+03  0.10566000000E+00 0.  1.
         13    1    4    4    0    0  0.19618752324E+02  0.41467546944E+02  0.56177981436E+03  0.56364973510E+03  0.10566000000E+00 0. -1.
    9000005    1    3    3    0    0 -0.12461132705E+03  0.91314087020E+01  0.68993676853E+03  0.70115983201E+03  0.10000000000E+01 0.  0.
    9000005    1    3    3    0    0  0.15130877183E+02 -0.41043136030E+02  0.20197630762E+03  0.20666134447E+03  0.10000000000E+01 0.  0.
<mgrwt>
<rscale>  0 0.16335032E+03</rscale>
<asrwt>0</asrwt>
<pdfrwt beam="1">  1        2 0.29922607E+00 0.16920506E+03</pdfrwt>
<pdfrwt beam="2">  1       -2 0.20186644E-02 0.16920506E+03</pdfrwt>
<totfact> 0.60183454E+03</totfact>
</mgrwt>
</event>
<event>
 8    3  0.7944584E-004  0.1320035E+03  0.7818608E-02  0.1242702E+00
         -2   -1    0    0    0  501 -0.00000000000E+00  0.00000000000E+00  0.41201943182E+02  0.41201943260E+02  0.25500000000E-02 0.  1.
          2   -1    0    0  501    0  0.00000000000E+00 -0.00000000000E+00 -0.42106587022E+03  0.42106587023E+03  0.25500000000E-02 0. -1.
         25    2    1    2    0    0  0.18651474551E+02  0.38104309564E+02 -0.93318709515E+02  0.16165795204E+03  0.12500038401E+03 0.  0.
         23    2    1    2    0    0 -0.18651474551E+02 -0.38104309564E+02 -0.28654521752E+03  0.30060986144E+03  0.80363618643E+02 0.  0.
        -13    1    4    4    0    0  0.26310596194E+01 -0.58926565309E+02 -0.15773178911E+03  0.16840009214E+03  0.10566000000E+00 0.  1.
         13    1    4    4    0    0 -0.21282534171E+02  0.20822255745E+02 -0.12881342841E+03  0.13220976930E+03  0.10566000000E+00 0. -1.
    9000005    1    3    3    0    0 -0.11706600039E+02 -0.14035408668E+02  0.23730851035E+02  0.29969826022E+02  0.10000000000E+01 0.  0.
    9000005    1    3    3    0    0  0.30358074590E+02  0.52139718232E+02 -0.11704956055E+03  0.13168812602E+03  0.10000000000E+01 0.  0.
<mgrwt>
<rscale>  0 0.12024006E+03</rscale>
<asrwt>0</asrwt>
<pdfrwt beam="2">  1        2 0.64779362E-01 0.13200345E+03</pdfrwt>
<pdfrwt beam="1">  1       -2 0.63387608E-02 0.13200345E+03</pdfrwt>
<totfact> 0.97282710E+03</totfact>
</mgrwt>
</event>
<event>
 8    3  0.7944584E-004  0.1694843E+03  0.7818608E-02  0.1184793E+00
          2   -1    0    0  501    0  0.00000000000E+00  0.00000000000E+00  0.43227899795E+03  0.43227899795E+03  0.25500000000E-02 0. -1.
         -2   -1    0    0    0  501 -0.00000000000E+00 -0.00000000000E+00 -0.61827454083E+02  0.61827454136E+02  0.25500000000E-02 0.  1.
         25    2    1    2    0    0 -0.95652017501E+02  0.62856852337E+02  0.13520526969E+03  0.21680726915E+03  0.12499853866E+03 0.  0.
         23    2    1    2    0    0  0.95652017501E+02 -0.62856852337E+02  0.23524627418E+03  0.27729918294E+03  0.91944195082E+02 0.  0.
        -13    1    4    4    0    0  0.67445403797E+02 -0.74831932781E+02  0.22224552426E+03  0.24401185396E+03  0.10566000000E+00 0. -1.
         13    1    4    4    0    0  0.28206613704E+02  0.11975080445E+02  0.13000749922E+02  0.33287328984E+02  0.10566000000E+00 0.  1.
    9000005    1    3    3    0    0 -0.74440169351E+02  0.19807044941E+02  0.40494246017E+01  0.77143085769E+02  0.10000000000E+01 0.  0.
    9000005    1    3    3    0    0 -0.21211848150E+02  0.43049807395E+02  0.13115584508E+03  0.13966418338E+03  0.10000000000E+01 0.  0.
<mgrwt>
<rscale>  0 0.16350768E+03</rscale>
<asrwt>0</asrwt>
<pdfrwt beam="1">  1        2 0.66504459E-01 0.16948430E+03</pdfrwt>
<pdfrwt beam="2">  1       -2 0.95119163E-02 0.16948430E+03</pdfrwt>
<totfact> 0.51264283E+03</totfact>
</mgrwt>
</event>
<event>
 8    3  0.7944584E-004  0.1588229E+03  0.7818608E-02  0.1197519E+00
         -2   -1    0    0    0  501 -0.00000000000E+00  0.00000000000E+00  0.22389295138E+02  0.22389295283E+02  0.25500000000E-02 0.  1.
          2   -1    0    0  501    0  0.00000000000E+00 -0.00000000000E+00 -0.96849503392E+03  0.96849503393E+03  0.25500000000E-02 0. -1.
         25    2    1    2    0    0 -0.75100262044E+02 -0.62899254044E+02 -0.47228336678E+03  0.49827331990E+03  0.12501342834E+03 0.  0.
         23    2    1    2    0    0  0.75100262044E+02  0.62899254044E+02 -0.47382237200E+03  0.49261100931E+03  0.92528918530E+02 0.  0.
        -13    1    4    4    0    0  0.18482002354E+02  0.39971111172E+02 -0.36638861467E+03  0.36902561194E+03  0.10566000000E+00 0. -1.
         13    1    4    4    0    0  0.56618259689E+02  0.22928142872E+02 -0.10743375733E+03  0.12358539737E+03  0.10566000000E+00 0.  1.
    9000005    1    3    3    0    0 -0.44398376307E+02  0.24094104550E+02 -0.75085288170E+02  0.90501614307E+02  0.10000000000E+01 0.  0.
    9000005    1    3    3    0    0 -0.30701885737E+02 -0.86993358595E+02 -0.39719807861E+03  0.40777170559E+03  0.10000000000E+01 0.  0.
<mgrwt>
<rscale>  0 0.15242925E+03</rscale>
<asrwt>0</asrwt>
<pdfrwt beam="2">  1        2 0.14899920E+00 0.15882293E+03</pdfrwt>
<pdfrwt beam="1">  1       -2 0.34445077E-02 0.15882293E+03</pdfrwt>
<totfact> 0.92046710E+03</totfact>
</mgrwt>
</event>
<event>
 8    3  0.7944584E-004  0.1255114E+03  0.7818608E-02  0.1249746E+00
          2   -1    0    0  501    0  0.00000000000E+00  0.00000000000E+00  0.17854867989E+03  0.17854867991E+03  0.25500000000E-02 0.  1.
         -2   -1    0    0    0  501 -0.00000000000E+00 -0.00000000000E+00 -0.66614513139E+02  0.66614513188E+02  0.25500000000E-02 0. -1.
         25    2    1    2    0    0  0.37738446663E+01  0.10667727407E+02  0.75264921905E+02  0.14634863535E+03  0.12500028916E+03 0.  0.
         23    2    1    2    0    0 -0.37738446663E+01 -0.10667727407E+02  0.36669244850E+02  0.98814557746E+02  0.91058448224E+02 0.  0.
        -13    1    4    4    0    0 -0.23064196311E+02 -0.45986382091E+02  0.22474549872E+02  0.56141081618E+02  0.10566000000E+00 0. -1.
         13    1    4    4    0    0  0.19290351645E+02  0.35318654684E+02  0.14194694978E+02  0.42673476128E+02  0.10566000000E+00 0.  1.
    9000005    1    3    3    0    0 -0.32578851377E+02  0.36947657866E+02  0.86989902284E+02  0.99973766950E+02  0.10000000000E+01 0.  0.
    9000005    1    3    3    0    0  0.36352696043E+02 -0.26279930459E+02 -0.11724980379E+02  0.46374868404E+02  0.10000000000E+01 0.  0.
<mgrwt>
<rscale>  0 0.11605781E+03</rscale>
<asrwt>0</asrwt>
<pdfrwt beam="1">  1        2 0.27469027E-01 0.12551141E+03</pdfrwt>
<pdfrwt beam="2">  1       -2 0.10248387E-01 0.12551141E+03</pdfrwt>
<totfact> 0.11522901E+04</totfact>
</mgrwt>
</event>
<event>
 8    3  0.7944584E-004  0.1335198E+03  0.7818608E-02  0.1235928E+00
         -2   -1    0    0    0  501 -0.00000000000E+00  0.00000000000E+00  0.62354253127E+02  0.62354253179E+02  0.25500000000E-02 0.  1.
          2   -1    0    0  501    0  0.00000000000E+00 -0.00000000000E+00 -0.38332358904E+03  0.38332358905E+03  0.25500000000E-02 0. -1.
         25    2    1    2    0    0 -0.46758910337E+01 -0.46703300072E+02 -0.31795649765E+03  0.34485339440E+03  0.12499786813E+03 0.  0.
         23    2    1    2    0    0  0.46758910337E+01  0.46703300072E+02 -0.30128382691E+01  0.10082444783E+03  0.89182004306E+02 0.  0.
        -13    1    4    4    0    0  0.14705448889E+02  0.57635828939E+02  0.28527011990E+02  0.65969239663E+02  0.10566000000E+00 0.  1.
         13    1    4    4    0    0 -0.10029557855E+02 -0.10932528867E+02 -0.31539850260E+02  0.34855208171E+02  0.10566000000E+00 0. -1.
    9000005    1    3    3    0    0  0.35945490168E+02  0.93701278590E+01 -0.27428399804E+02  0.46186520494E+02  0.10000000000E+01 0.  0.
    9000005    1    3    3    0    0 -0.40621381202E+02 -0.56073427931E+02 -0.29052809784E+03  0.29866687390E+03  0.10000000000E+01 0.  0.
<mgrwt>
<rscale>  0 0.12445208E+03</rscale>
<asrwt>0</asrwt>
<pdfrwt beam="2">  1        2 0.58972858E-01 0.13351977E+03</pdfrwt>
<pdfrwt beam="1">  1       -2 0.95929623E-02 0.13351977E+03</pdfrwt>
<totfact> 0.56828310E+03</totfact>
</mgrwt>
</event>
<event>
 8    3  0.7944584E-004  0.1763469E+03  0.7818608E-02  0.1177160E+00
          2   -1    0    0  501    0  0.00000000000E+00  0.00000000000E+00  0.14025701128E+03  0.14025701131E+03  0.25500000000E-02 0. -1.
         -2   -1    0    0    0  501 -0.00000000000E+00 -0.00000000000E+00 -0.19534284323E+03  0.19534284325E+03  0.25500000000E-02 0.  1.
         25    2    1    2    0    0  0.11992797532E+03  0.32996817269E+02 -0.27467253425E+02  0.17847313973E+03  0.12500680934E+03 0.  0.
         23    2    1    2    0    0 -0.11992797532E+03 -0.32996817269E+02 -0.27618578527E+02  0.15712671482E+03  0.91948406271E+02 0.  0.
        -13    1    4    4    0    0 -0.65402913020E+02  0.25650657950E+02 -0.31417988537E+02  0.76958420283E+02  0.10566000000E+00 0. -1.
         13    1    4    4    0    0 -0.54525062302E+02 -0.58647475219E+02  0.37994100099E+01  0.80168294537E+02  0.10566000000E+00 0.  1.
    9000005    1    3    3    0    0  0.97240563625E+02  0.38227394205E+02 -0.72903802531E+02  0.12740889021E+03  0.10000000000E+01 0.  0.
    9000005    1    3    3    0    0  0.22687411697E+02 -0.52305769360E+01  0.45436549106E+02  0.51064249522E+02  0.10000000000E+01 0.  0.
<mgrwt>
<rscale>  0 0.17066112E+03</rscale>
<asrwt>0</asrwt>
<pdfrwt beam="1">  1        2 0.21578002E-01 0.17634685E+03</pdfrwt>
<pdfrwt beam="2">  1       -2 0.30052745E-01 0.17634685E+03</pdfrwt>
<totfact> 0.25388502E+03</totfact>
</mgrwt>
</event>
<event>
 8    3  0.7944584E-004  0.1326133E+03  0.7818608E-02  0.1231631E+00
          2   -1    0    0  501    0  0.00000000000E+00  0.00000000000E+00  0.10946740342E+04  0.10946740342E+04  0.25500000000E-02 0. -1.
         -2   -1    0    0    0  501 -0.00000000000E+00 -0.00000000000E+00 -0.18353284181E+02  0.18353284358E+02  0.25500000000E-02 0.  1.
         25    2    1    2    0    0  0.43457188218E+02 -0.84803102854E+01  0.85080976731E+03  0.86108277345E+03  0.12500335881E+03 0.  0.
         23    2    1    2    0    0 -0.43457188218E+02  0.84803102854E+01  0.22551098274E+03  0.25194454514E+03  0.10324924997E+03 0.  0.
        -13    1    4    4    0    0 -0.51674722820E+01 -0.36678392749E+02  0.15739017565E+03  0.16169009190E+03  0.10566000000E+00 0. -1.
         13    1    4    4    0    0 -0.38289715936E+02  0.45158703034E+02  0.68120807087E+02  0.90254453233E+02  0.10566000000E+00 0.  1.
    9000005    1    3    3    0    0  0.71591465793E+02  0.33551964364E+02  0.60299404662E+03  0.60815614158E+03  0.10000000000E+01 0.  0.
    9000005    1    3    3    0    0 -0.28134277575E+02 -0.42032274650E+02  0.24781572069E+03  0.25292663187E+03  0.10000000000E+01 0.  0.
<mgrwt>
<rscale>  0 0.12722614E+03</rscale>
<asrwt>0</asrwt>
<pdfrwt beam="1">  1        2 0.16841136E+00 0.13261328E+03</pdfrwt>
<pdfrwt beam="2">  1       -2 0.28235826E-02 0.13261328E+03</pdfrwt>
<totfact> 0.10295314E+04</totfact>
</mgrwt>
</event>
<event>
 8    3  0.7944584E-004  0.2110888E+03  0.7818608E-02  0.1145298E+00
          2   -1    0    0  501    0  0.00000000000E+00  0.00000000000E+00  0.15920950653E+03  0.15920950655E+03  0.25500000000E-02 0. -1.
         -2   -1    0    0    0  501 -0.00000000000E+00 -0.00000000000E+00 -0.25197917874E+03  0.25197917875E+03  0.25500000000E-02 0.  1.
         25    2    1    2    0    0 -0.72578370359E+02 -0.15383945508E+03 -0.39465415046E+02  0.21474636075E+03  0.12499713072E+03 0.  0.
         23    2    1    2    0    0  0.72578370359E+02  0.15383945508E+03 -0.53304257164E+02  0.19644232455E+03  0.82547230481E+02 0.  0.
        -13    1    4    4    0    0  0.72828856757E+02  0.12326084668E+03 -0.10118286128E+02  0.14352584986E+03  0.10566000000E+00 0. -1.
         13    1    4    4    0    0 -0.25048639828E+00  0.30578608401E+02 -0.43185971036E+02  0.52916474689E+02  0.10566000000E+00 0.  1.
    9000005    1    3    3    0    0 -0.79808993575E+02 -0.66712559302E+02  0.23940021010E+02  0.10674345708E+03  0.10000000000E+01 0.  0.
    9000005    1    3    3    0    0  0.72306232158E+01 -0.87126895777E+02 -0.63405436056E+02  0.10800290367E+03  0.10000000000E+01 0.  0.
<mgrwt>
<rscale>  0 0.20535521E+03</rscale>
<asrwt>0</asrwt>
<pdfrwt beam="1">  1        2 0.24493770E-01 0.21108880E+03</pdfrwt>
<pdfrwt beam="2">  1       -2 0.38766028E-01 0.21108880E+03</pdfrwt>
<totfact> 0.13827643E+03</totfact>
</mgrwt>
</event>
<event>
 8    3  0.7944584E-004  0.1528415E+03  0.7818608E-02  0.1208284E+00
          2   -1    0    0  501    0  0.00000000000E+00  0.00000000000E+00  0.13944259487E+04  0.13944259487E+04  0.25500000000E-02 0. -1.
         -2   -1    0    0    0  501 -0.00000000000E+00 -0.00000000000E+00 -0.13599607975E+02  0.13599608214E+02  0.25500000000E-02 0.  1.
         25    2    1    2    0    0  0.14727604722E+02 -0.86707210833E+02  0.87106774585E+03  0.88437521840E+03  0.12500186522E+03 0.  0.
         23    2    1    2    0    0 -0.14727604722E+02  0.86707210833E+02  0.50975859489E+03  0.52365033853E+03  0.81368355205E+02 0.  0.
        -13    1    4    4    0    0 -0.39906128640E+02  0.73309528499E+02  0.28141135183E+03  0.29352878253E+03  0.10566000000E+00 0.  1.
         13    1    4    4    0    0  0.25178523918E+02  0.13397682334E+02  0.22834724306E+03  0.23012155600E+03  0.10566000000E+00 0. -1.
    9000005    1    3    3    0    0  0.27139092653E+02 -0.11291983730E+03  0.78504665018E+03  0.79359099224E+03  0.10000000000E+01 0.  0.
    9000005    1    3    3    0    0 -0.12411487931E+02  0.26212626468E+02  0.86021095672E+02  0.90784226161E+02  0.10000000000E+01 0.  0.
<mgrwt>
<rscale>  0 0.14381675E+03</rscale>
<asrwt>0</asrwt>
<pdfrwt beam="1">  1        2 0.21452709E+00 0.15284145E+03</pdfrwt>
<pdfrwt beam="2">  1       -2 0.20922472E-02 0.15284145E+03</pdfrwt>
<totfact> 0.10998028E+04</totfact>
</mgrwt>
</event>
<event>
 8    3  0.7944584E-004  0.1276202E+03  0.7818608E-02  0.1243490E+00
          2   -1    0    0  501    0  0.00000000000E+00  0.00000000000E+00  0.77002882081E+03  0.77002882081E+03  0.25500000000E-02 0. -1.
         -2   -1    0    0    0  501 -0.00000000000E+00 -0.00000000000E+00 -0.17292705333E+02  0.17292705521E+02  0.25500000000E-02 0.  1.
         25    2    1    2    0    0  0.25373957815E+02  0.43397782837E+01  0.34809380757E+03  0.37075089520E+03  0.12499702404E+03 0.  0.
         23    2    1    2    0    0 -0.25373957815E+02 -0.43397782837E+01  0.40464230791E+03  0.41657063113E+03  0.95566845502E+02 0.  0.
        -13    1    4    4    0    0  0.12966311706E+02 -0.34489933711E+02  0.77513579082E+02  0.85825677235E+02  0.10566000000E+00 0.  1.
         13    1    4    4    0    0 -0.38340269520E+02  0.30150155427E+02  0.32712872882E+03  0.33074495389E+03  0.10566000000E+00 0. -1.
    9000005    1    3    3    0    0  0.65894291525E+01  0.64364977173E+02  0.17849981474E+03  0.18986693953E+03  0.10000000000E+01 0.  0.
    9000005    1    3    3    0    0  0.18784528662E+02 -0.60025198889E+02  0.16959399283E+03  0.18088395568E+03  0.10000000000E+01 0.  0.
<mgrwt>
<rscale>  0 0.11976201E+03</rscale>
<asrwt>0</asrwt>
<pdfrwt beam="1">  1        2 0.11846598E+00 0.12762025E+03</pdfrwt>
<pdfrwt beam="2">  1       -2 0.26604161E-02 0.12762025E+03</pdfrwt>
<totfact> 0.17836942E+04</totfact>
</mgrwt>
</event>
<event>
 8    3  0.7944584E-004  0.3119251E+03  0.7818608E-02  0.1080835E+00
         -2   -1    0    0    0  501 -0.00000000000E+00  0.00000000000E+00  0.60375554204E+03  0.60375554204E+03  0.25500000000E-02 0.  1.
          2   -1    0    0  501    0  0.00000000000E+00 -0.00000000000E+00 -0.15769813326E+03  0.15769813328E+03  0.25500000000E-02 0. -1.
         25    2    1    2    0    0  0.19722315340E+03  0.20682143468E+03  0.17939673878E+03  0.35983389953E+03  0.12500066914E+03 0.  0.
         23    2    1    2    0    0 -0.19722315340E+03 -0.20682143468E+03  0.26666067001E+03  0.40161977579E+03  0.92295467386E+02 0.  0.
        -13    1    4    4    0    0 -0.18624622895E+03 -0.20629092614E+03  0.27245267117E+03  0.38919670245E+03  0.10566000000E+00 0.  1.
         13    1    4    4    0    0 -0.10976924455E+02 -0.53050854348E+00 -0.57920011671E+01  0.12423073346E+02  0.10566000000E+00 0. -1.
    9000005    1    3    3    0    0  0.14414316100E+03  0.60651351016E+02  0.92255259856E+02  0.18157056539E+03  0.10000000000E+01 0.  0.
    9000005    1    3    3    0    0  0.53079992400E+02  0.14617008366E+03  0.87141478920E+02  0.17826333414E+03  0.10000000000E+01 0.  0.
<mgrwt>
<rscale>  0 0.30898175E+03</rscale>
<asrwt>0</asrwt>
<pdfrwt beam="2">  1        2 0.24261252E-01 0.31192506E+03</pdfrwt>
<pdfrwt beam="1">  1       -2 0.92885465E-01 0.31192506E+03</pdfrwt>
<totfact> 0.22716946E+02</totfact>
</mgrwt>
</event>
<event>
 8    3  0.7944584E-004  0.1410771E+03  0.7818608E-02  0.1222636E+00
         -2   -1    0    0    0  501 -0.00000000000E+00  0.00000000000E+00  0.23301681018E+02  0.23301681158E+02  0.25500000000E-02 0.  1.
          2   -1    0    0  501    0  0.00000000000E+00 -0.00000000000E+00 -0.97443932640E+03  0.97443932640E+03  0.25500000000E-02 0. -1.
         25    2    1    2    0    0 -0.64645942656E+02 -0.99395923895E+01 -0.78203911431E+03  0.79466213924E+03  0.12499938333E+03 0.  0.
         23    2    1    2    0    0  0.64645942656E+02  0.99395923895E+01 -0.16909853107E+03  0.20307886831E+03  0.91481255720E+02 0.  0.
        -13    1    4    4    0    0  0.67668293678E+02  0.31893805344E+02 -0.16411976431E+03  0.18036496608E+03  0.10566000000E+00 0. -1.
         13    1    4    4    0    0 -0.30223510223E+01 -0.21954212955E+02 -0.49787667567E+01  0.22713902232E+02  0.10566000000E+00 0.  1.
    9000005    1    3    3    0    0 -0.96755701227E+02 -0.24209966182E+02 -0.66561685056E+03  0.67304872033E+03  0.10000000000E+01 0.  0.
    9000005    1    3    3    0    0  0.32109758571E+02  0.14270373793E+02 -0.11642226375E+03  0.12161341891E+03  0.10000000000E+01 0.  0.
<mgrwt>
<rscale>  0 0.13330288E+03</rscale>
<asrwt>0</asrwt>
<pdfrwt beam="2">  1        2 0.14991371E+00 0.14107707E+03</pdfrwt>
<pdfrwt beam="1">  1       -2 0.35848748E-02 0.14107707E+03</pdfrwt>
<totfact> 0.85520197E+03</totfact>
</mgrwt>
</event>
<event>
 8    3  0.7944584E-004  0.1729788E+03  0.7818608E-02  0.1180752E+00
         -2   -1    0    0    0  501 -0.00000000000E+00  0.00000000000E+00  0.40355190477E+02  0.40355190558E+02  0.25500000000E-02 0.  1.
          2   -1    0    0  501    0  0.00000000000E+00 -0.00000000000E+00 -0.65483716550E+03  0.65483716551E+03  0.25500000000E-02 0. -1.
         25    2    1    2    0    0  0.10789766681E+03 -0.51524523374E+02 -0.30082932840E+03  0.34701578053E+03  0.12499993640E+03 0.  0.
         23    2    1    2    0    0 -0.10789766681E+03  0.51524523374E+02 -0.31365264662E+03  0.34817657553E+03  0.92478440750E+02 0.  0.
        -13    1    4    4    0    0 -0.72178527661E+02 -0.33096950009E+01 -0.91519482075E+02  0.11660411957E+03  0.10566000000E+00 0.  1.
         13    1    4    4    0    0 -0.35719139151E+02  0.54834218375E+02 -0.22213316455E+03  0.23157245597E+03  0.10566000000E+00 0. -1.
    9000005    1    3    3    0    0  0.22478184861E+02 -0.85535114297E+01 -0.22140256300E+03  0.22270726583E+03  0.10000000000E+01 0.  0.
    9000005    1    3    3    0    0  0.85419481951E+02 -0.42971011944E+02 -0.79426765404E+02  0.12430851470E+03  0.10000000000E+01 0.  0.
<mgrwt>
<rscale>  0 0.16724492E+03</rscale>
<asrwt>0</asrwt>
<pdfrwt beam="2">  1        2 0.10074417E+00 0.17297881E+03</pdfrwt>
<pdfrwt beam="1">  1       -2 0.62084913E-02 0.17297881E+03</pdfrwt>
<totfact> 0.62338810E+03</totfact>
</mgrwt>
</event>
<event>
 8    3  0.7944584E-004  0.1319873E+03  0.7818608E-02  0.1237488E+00
          2   -1    0    0  501    0  0.00000000000E+00  0.00000000000E+00  0.43002046781E+03  0.43002046782E+03  0.25500000000E-02 0. -1.
         -2   -1    0    0    0  501 -0.00000000000E+00 -0.00000000000E+00 -0.31691040633E+02  0.31691040735E+02  0.25500000000E-02 0.  1.
         25    2    1    2    0    0 -0.27355083668E+02 -0.32368135120E+02  0.21161381627E+03  0.24940138745E+03  0.12499859220E+03 0.  0.
         23    2    1    2    0    0  0.27355083668E+02  0.32368135120E+02  0.18671561091E+03  0.21231012110E+03  0.91743508724E+02 0.  0.
        -13    1    4    4    0    0  0.61299470259E+01 -0.31625781460E+02  0.77925007536E+02  0.84321315614E+02  0.10566000000E+00 0. -1.
         13    1    4    4    0    0  0.21225136642E+02  0.63993916579E+02  0.10879060337E+03  0.12798880549E+03  0.10566000000E+00 0.  1.
    9000005    1    3    3    0    0  0.34117453372E+02 -0.19110161494E+02  0.13242488230E+02  0.41298455074E+02  0.10000000000E+01 0.  0.
    9000005    1    3    3    0    0 -0.61472537040E+02 -0.13257973625E+02  0.19837132804E+03  0.20810293237E+03  0.10000000000E+01 0.  0.
<mgrwt>
<rscale>  0 0.12346463E+03</rscale>
<asrwt>0</asrwt>
<pdfrwt beam="1">  1        2 0.66156993E-01 0.13198729E+03</pdfrwt>
<pdfrwt beam="2">  1       -2 0.48755448E-02 0.13198729E+03</pdfrwt>
<totfact> 0.14131878E+04</totfact>
</mgrwt>
</event>
<event>
 8    3  0.7944584E-004  0.1302438E+03  0.7818608E-02  0.1240767E+00
          2   -1    0    0  501    0  0.00000000000E+00  0.00000000000E+00  0.82125695972E+02  0.82125696012E+02  0.25500000000E-02 0. -1.
         -2   -1    0    0    0  501 -0.00000000000E+00 -0.00000000000E+00 -0.16711928309E+03  0.16711928311E+03  0.25500000000E-02 0.  1.
         25    2    1    2    0    0  0.92511366850E+01 -0.35405528315E+02 -0.21127125182E+02  0.13194624138E+03  0.12499728089E+03 0.  0.
         23    2    1    2    0    0 -0.92511366850E+01  0.35405528315E+02 -0.63866461939E+02  0.11729873775E+03  0.91328713729E+02 0.  0.
        -13    1    4    4    0    0 -0.43302159317E+02  0.40926508509E+02 -0.56318332204E+02  0.81986717257E+02  0.10566000000E+00 0.  1.
         13    1    4    4    0    0  0.34051022632E+02 -0.55209801945E+01 -0.75481297350E+01  0.35312020491E+02  0.10566000000E+00 0. -1.
    9000005    1    3    3    0    0 -0.29547410262E+02 -0.53051730320E+02  0.28018417865E+02  0.66884731313E+02  0.10000000000E+01 0.  0.
    9000005    1    3    3    0    0  0.38798546947E+02  0.17646202005E+02 -0.49145543048E+02  0.65061510065E+02  0.10000000000E+01 0.  0.
<mgrwt>
<rscale>  0 0.12142348E+03</rscale>
<asrwt>0</asrwt>
<pdfrwt beam="1">  1        2 0.12634722E-01 0.13024383E+03</pdfrwt>
<pdfrwt beam="2">  1       -2 0.25710659E-01 0.13024383E+03</pdfrwt>
<totfact> 0.61306206E+03</totfact>
</mgrwt>
</event>
<event>
 8    3  0.7944584E-004  0.3035569E+03  0.7818608E-02  0.1084812E+00
          2   -1    0    0  501    0  0.00000000000E+00  0.00000000000E+00  0.22189227479E+04  0.22189227479E+04  0.25500000000E-02 0. -1.
         -2   -1    0    0    0  501 -0.00000000000E+00 -0.00000000000E+00 -0.40170507065E+02  0.40170507146E+02  0.25500000000E-02 0.  1.
         25    2    1    2    0    0 -0.26066007086E+03  0.92619167535E+02  0.10562487114E+04  0.10990032330E+04  0.12499913160E+03 0.  0.
         23    2    1    2    0    0  0.26066007086E+03 -0.92619167535E+02  0.11225035294E+04  0.11600900221E+04  0.96294875796E+02 0.  0.
        -13    1    4    4    0    0  0.15324968141E+03 -0.99148832165E+02  0.62648343998E+03  0.65253158353E+03  0.10566000000E+00 0. -1.
         13    1    4    4    0    0  0.10741038945E+03  0.65296646296E+01  0.49602008940E+03  0.50755843854E+03  0.10566000000E+00 0.  1.
    9000005    1    3    3    0    0 -0.21823603729E+03  0.50142397942E+02  0.95831519661E+03  0.98412918059E+03  0.10000000000E+01 0.  0.
    9000005    1    3    3    0    0 -0.42424033577E+02  0.42476769593E+02  0.97933514822E+02  0.11487405236E+03  0.10000000000E+01 0.  0.
<mgrwt>
<rscale>  0 0.30085871E+03</rscale>
<asrwt>0</asrwt>
<pdfrwt beam="1">  1        2 0.34137271E+00 0.30355686E+03</pdfrwt>
<pdfrwt beam="2">  1       -2 0.61800784E-02 0.30355686E+03</pdfrwt>
<totfact> 0.80082663E+02</totfact>
</mgrwt>
</event>
<event>
 8    3  0.7944584E-004  0.1382261E+03  0.7818608E-02  0.1225612E+00
         -2   -1    0    0    0  501 -0.00000000000E+00  0.00000000000E+00  0.60757858922E+01  0.60757864273E+01  0.25500000000E-02 0.  1.
          2   -1    0    0  501    0  0.00000000000E+00 -0.00000000000E+00 -0.26752984095E+04  0.26752984095E+04  0.25500000000E-02 0. -1.
         25    2    1    2    0    0 -0.56578078709E+02  0.16720927342E+02 -0.17141830489E+04  0.17197470700E+04  0.12500316524E+03 0.  0.
         23    2    1    2    0    0  0.56578078709E+02 -0.16720927342E+02 -0.95503957470E+03  0.96162712589E+03  0.95631959171E+02 0.  0.
        -13    1    4    4    0    0  0.42569151411E+02 -0.41969472327E+01 -0.14041858372E+03  0.14678943026E+03  0.10566000000E+00 0.  1.
         13    1    4    4    0    0  0.14008927299E+02 -0.12523980109E+02 -0.81462099098E+03  0.81483769563E+03  0.10566000000E+00 0. -1.
    9000005    1    3    3    0    0 -0.43404715735E+02 -0.52288182409E+02 -0.84078671230E+03  0.84352908601E+03  0.10000000000E+01 0.  0.
    9000005    1    3    3    0    0 -0.13173362974E+02  0.69009109751E+02 -0.87339633657E+03  0.87621798399E+03  0.10000000000E+01 0.  0.
<mgrwt>
<rscale>  0 0.13125063E+03</rscale>
<asrwt>0</asrwt>
<pdfrwt beam="2">  1        2 0.41158343E+00 0.13822612E+03</pdfrwt>
<pdfrwt beam="1">  1       -2 0.93473847E-03 0.13822612E+03</pdfrwt>
<totfact> 0.75156842E+03</totfact>
</mgrwt>
</event>
<event>
 8    3  0.7944584E-004  0.1364440E+03  0.7818608E-02  0.1229309E+00
          2   -1    0    0  501    0  0.00000000000E+00  0.00000000000E+00  0.22317595900E+03  0.22317595902E+03  0.25500000000E-02 0. -1.
         -2   -1    0    0    0  501 -0.00000000000E+00 -0.00000000000E+00 -0.67839559898E+02  0.67839559946E+02  0.25500000000E-02 0.  1.
         25    2    1    2    0    0  0.48949922093E+02 -0.24388486564E+02  0.10214902713E+03  0.17044471750E+03  0.12500433924E+03 0.  0.
         23    2    1    2    0    0 -0.48949922093E+02  0.24388486564E+02  0.53187371972E+02  0.12057080146E+03  0.93367705759E+02 0.  0.
        -13    1    4    4    0    0  0.93349744142E+01  0.17550675853E+02 -0.19027471936E+02  0.27517700168E+02  0.10566000000E+00 0.  1.
         13    1    4    4    0    0 -0.58284896508E+02  0.68378107110E+01  0.72214843908E+02  0.93053101297E+02  0.10566000000E+00 0. -1.
    9000005    1    3    3    0    0  0.69785269339E+02 -0.61714961498E+02  0.62966622811E+02  0.11244783625E+03  0.10000000000E+01 0.  0.
    9000005    1    3    3    0    0 -0.20835347246E+02  0.37326474934E+02  0.39182404323E+02  0.57996881247E+02  0.10000000000E+01 0.  0.
<mgrwt>
<rscale>  0 0.12875919E+03</rscale>
<asrwt>0</asrwt>
<pdfrwt beam="1">  1        2 0.34334763E-01 0.13644405E+03</pdfrwt>
<pdfrwt beam="2">  1       -2 0.10436855E-01 0.13644405E+03</pdfrwt>
<totfact> 0.88578732E+03</totfact>
</mgrwt>
</event>
<event>
 8    3  0.7944584E-004  0.1483714E+03  0.7818608E-02  0.1210174E+00
         -2   -1    0    0    0  501 -0.00000000000E+00  0.00000000000E+00  0.14669203480E+04  0.14669203480E+04  0.25500000000E-02 0. -1.
          2   -1    0    0  501    0  0.00000000000E+00 -0.00000000000E+00 -0.13247249976E+02  0.13247250222E+02  0.25500000000E-02 0.  1.
         25    2    1    2    0    0 -0.64092414942E+02 -0.47764474938E+02  0.65065418771E+03  0.66735669373E+03  0.12499920784E+03 0.  0.
         23    2    1    2    0    0  0.64092414942E+02  0.47764474938E+02  0.80301891031E+03  0.81281090449E+03  0.97123186861E+02 0.  0.
        -13    1    4    4    0    0  0.26350525800E+02  0.23429035120E+02  0.69413295377E+03  0.69502794086E+03  0.10566000000E+00 0. -1.
         13    1    4    4    0    0  0.37741889143E+02  0.24335439818E+02  0.10888595654E+03  0.11778296363E+03  0.10566000000E+00 0.  1.
    9000005    1    3    3    0    0 -0.49666889295E+02 -0.41379721487E+02  0.64813321362E+03  0.65134993962E+03  0.10000000000E+01 0.  0.
    9000005    1    3    3    0    0 -0.14425525647E+02 -0.63847534510E+01  0.25209740907E+01  0.16006754112E+02  0.10000000000E+01 0.  0.
<mgrwt>
<rscale>  0 0.14237085E+03</rscale>
<asrwt>0</asrwt>
<pdfrwt beam="2">  1        2 0.20380382E-02 0.14837144E+03</pdfrwt>
<pdfrwt beam="1">  1       -2 0.22568008E+00 0.14837144E+03</pdfrwt>
<totfact> 0.52463023E+02</totfact>
</mgrwt>
</event>
<event>
 8    3  0.7944584E-004  0.1318505E+03  0.7818608E-02  0.1237890E+00
          2   -1    0    0  501    0  0.00000000000E+00  0.00000000000E+00  0.15416862406E+03  0.15416862408E+03  0.25500000000E-02 0. -1.
         -2   -1    0    0    0  501 -0.00000000000E+00 -0.00000000000E+00 -0.88707625569E+02  0.88707625606E+02  0.25500000000E-02 0.  1.
         25    2    1    2    0    0  0.27152649846E+02 -0.31936937564E+02  0.23515739616E+02  0.13393112159E+03  0.12500928344E+03 0.  0.
         23    2    1    2    0    0 -0.27152649846E+02  0.31936937564E+02  0.41945258873E+02  0.10894512810E+03  0.91391475638E+02 0.  0.
        -13    1    4    4    0    0 -0.22413473361E+02 -0.23073320316E+02 -0.94350706930E+01  0.33522732907E+02  0.10566000000E+00 0.  1.
         13    1    4    4    0    0 -0.47391764850E+01  0.55010257880E+02  0.51380329566E+02  0.75422395189E+02  0.10566000000E+00 0. -1.
    9000005    1    3    3    0    0  0.62176961653E+02 -0.14601919285E+02 -0.27596814245E+02  0.69582862572E+02  0.10000000000E+01 0.  0.
    9000005    1    3    3    0    0 -0.35024311807E+02 -0.17335018278E+02  0.51112553861E+02  0.64348259016E+02  0.10000000000E+01 0.  0.
<mgrwt>
<rscale>  0 0.12321208E+03</rscale>
<asrwt>0</asrwt>
<pdfrwt beam="1">  1        2 0.23718250E-01 0.13185050E+03</pdfrwt>
<pdfrwt beam="2">  1       -2 0.13647327E-01 0.13185050E+03</pdfrwt>
<totfact> 0.86146794E+03</totfact>
</mgrwt>
</event>
<event>
 8    3  0.7944584E-004  0.1646431E+03  0.7818608E-02  0.1190380E+00
         -2   -1    0    0    0  501 -0.00000000000E+00  0.00000000000E+00  0.99922117399E+02  0.99922117432E+02  0.25500000000E-02 0.  1.
          2   -1    0    0  501    0  0.00000000000E+00 -0.00000000000E+00 -0.24114981686E+03  0.24114981687E+03  0.25500000000E-02 0. -1.
         25    2    1    2    0    0  0.24543515563E+02 -0.10430445998E+03 -0.10414083971E+03  0.19481445405E+03  0.12500220991E+03 0.  0.
         23    2    1    2    0    0 -0.24543515563E+02  0.10430445998E+03 -0.37086859745E+02  0.14625748025E+03  0.92379710091E+02 0.  0.
        -13    1    4    4    0    0  0.27263721029E+02  0.55908279342E+02  0.72759486419E+01  0.62625847508E+02  0.10566000000E+00 0.  1.
         13    1    4    4    0    0 -0.51807236593E+02  0.48396180636E+02 -0.44362808387E+02  0.83631632744E+02  0.10566000000E+00 0. -1.
    9000005    1    3    3    0    0  0.25073757388E+01  0.75557671344E+00 -0.85874985802E+02  0.85920725182E+02  0.10000000000E+01 0.  0.
    9000005    1    3    3    0    0  0.22036139825E+02 -0.10506003669E+03 -0.18265853913E+02  0.10889372887E+03  0.10000000000E+01 0.  0.
<mgrwt>
<rscale>  0 0.15851828E+03</rscale>
<asrwt>0</asrwt>
<pdfrwt beam="2">  1        2 0.37099972E-01 0.16464312E+03</pdfrwt>
<pdfrwt beam="1">  1       -2 0.15372634E-01 0.16464312E+03</pdfrwt>
<totfact> 0.44221378E+03</totfact>
</mgrwt>
</event>
<event>
 8    3  0.7944584E-004  0.1344961E+03  0.7818608E-02  0.1232894E+00
          2   -1    0    0  501    0  0.00000000000E+00  0.00000000000E+00  0.11090370301E+04  0.11090370301E+04  0.25500000000E-02 0. -1.
         -2   -1    0    0    0  501 -0.00000000000E+00 -0.00000000000E+00 -0.12981567562E+02  0.12981567812E+02  0.25500000000E-02 0.  1.
         25    2    1    2    0    0 -0.45727588378E+02 -0.19332618995E+02  0.57767785075E+03  0.59312807067E+03  0.12499778587E+03 0.  0.
         23    2    1    2    0    0  0.45727588378E+02  0.19332618995E+02  0.51837761181E+03  0.52889052727E+03  0.92439596013E+02 0.  0.
        -13    1    4    4    0    0  0.49521175784E+02  0.12301156133E+02  0.51839503543E+03  0.52090026801E+03  0.10566000000E+00 0. -1.
         13    1    4    4    0    0 -0.37935874065E+01  0.70314628619E+01 -0.17423616526E-01  0.79902592578E+01  0.10566000000E+00 0.  1.
    9000005    1    3    3    0    0 -0.37833179200E+02  0.31665862521E+02  0.89275300490E+02  0.10200566443E+03  0.10000000000E+01 0.  0.
    9000005    1    3    3    0    0 -0.78944091778E+01 -0.50998481516E+02  0.48840255026E+03  0.49112240624E+03  0.10000000000E+01 0.  0.
<mgrwt>
<rscale>  0 0.12640230E+03</rscale>
<asrwt>0</asrwt>
<pdfrwt beam="1">  1        2 0.17062116E+00 0.13449613E+03</pdfrwt>
<pdfrwt beam="2">  1       -2 0.19971633E-02 0.13449613E+03</pdfrwt>
<totfact> 0.16753421E+04</totfact>
</mgrwt>
</event>
<event>
 8    3  0.7944584E-004  0.1259103E+03  0.7818608E-02  0.1248417E+00
          2   -1    0    0  501    0  0.00000000000E+00  0.00000000000E+00  0.72798277037E+03  0.72798277038E+03  0.25500000000E-02 0. -1.
         -2   -1    0    0    0  501 -0.00000000000E+00 -0.00000000000E+00 -0.20419382636E+02  0.20419382796E+02  0.25500000000E-02 0.  1.
         25    2    1    2    0    0 -0.15074997579E+02  0.91792595889E+00  0.23396464359E+03  0.26569314633E+03  0.12500118165E+03 0.  0.
         23    2    1    2    0    0  0.15074997579E+02 -0.91792595889E+00  0.47359874414E+03  0.48270900685E+03  0.92109264985E+02 0.  0.
        -13    1    4    4    0    0 -0.47023949171E+01 -0.44315305672E+02  0.19231119221E+03  0.19740710385E+03  0.10566000000E+00 0.  1.
         13    1    4    4    0    0  0.19777392497E+02  0.43397379713E+02  0.28128755193E+03  0.28530190300E+03  0.10566000000E+00 0. -1.
    9000005    1    3    3    0    0  0.49074592034E+02 -0.17531158880E+02  0.60667498281E+02  0.79982513481E+02  0.10000000000E+01 0.  0.
    9000005    1    3    3    0    0 -0.64149589613E+02  0.18449084838E+02  0.17329714531E+03  0.18571063285E+03  0.10000000000E+01 0.  0.
<mgrwt>
<rscale>  0 0.11683203E+03</rscale>
<asrwt>0</asrwt>
<pdfrwt beam="1">  1        2 0.11199733E+00 0.12591026E+03</pdfrwt>
<pdfrwt beam="2">  1       -2 0.31414442E-02 0.12591026E+03</pdfrwt>
<totfact> 0.14949267E+04</totfact>
</mgrwt>
</event>
<event>
 8    3  0.7944584E-004  0.1254180E+03  0.7818608E-02  0.1249621E+00
         -2   -1    0    0    0  501 -0.00000000000E+00  0.00000000000E+00  0.81851006928E+01  0.81851010900E+01  0.25500000000E-02 0.  1.
          2   -1    0    0  501    0  0.00000000000E+00 -0.00000000000E+00 -0.20134320190E+04  0.20134320190E+04  0.25500000000E-02 0. -1.
         25    2    1    2    0    0  0.10153676984E+02 -0.23645141936E+00 -0.58066525085E+03  0.59405539449E+03  0.12500610029E+03 0.  0.
         23    2    1    2    0    0 -0.10153676984E+02  0.23645141936E+00 -0.14245816675E+04  0.14275617256E+04  0.91631872680E+02 0.  0.
        -13    1    4    4    0    0  0.20179273591E+02  0.32635818114E+02 -0.98455692042E+03  0.98530433899E+03  0.10566000000E+00 0. -1.
         13    1    4    4    0    0 -0.30332950576E+02 -0.32399366694E+02 -0.44002474705E+03  0.44225738663E+03  0.10566000000E+00 0.  1.
    9000005    1    3    3    0    0 -0.28816560942E+02  0.51102737452E+02 -0.22086754410E+03  0.22852867653E+03  0.10000000000E+01 0.  0.
    9000005    1    3    3    0    0  0.38970237926E+02 -0.51339188872E+02 -0.35979770675E+03  0.36552671796E+03  0.10000000000E+01 0.  0.
<mgrwt>
<rscale>  0 0.11613001E+03</rscale>
<asrwt>0</asrwt>
<pdfrwt beam="2">  1        2 0.30975838E+00 0.12541801E+03</pdfrwt>
<pdfrwt beam="1">  1       -2 0.12592479E-02 0.12541801E+03</pdfrwt>
<totfact> 0.10903425E+04</totfact>
</mgrwt>
</event>
<event>
 8    3  0.7944584E-004  0.1322863E+03  0.7818608E-02  0.1236950E+00
         -2   -1    0    0    0  501 -0.00000000000E+00  0.00000000000E+00  0.57985726409E+02  0.57985726465E+02  0.25500000000E-02 0.  1.
          2   -1    0    0  501    0  0.00000000000E+00 -0.00000000000E+00 -0.34086450115E+03  0.34086450116E+03  0.25500000000E-02 0. -1.
         25    2    1    2    0    0 -0.41387263010E+02  0.12722745697E+02 -0.26447056293E+03  0.29570988787E+03  0.12499954132E+03 0.  0.
         23    2    1    2    0    0  0.41387263010E+02 -0.12722745697E+02 -0.18408211814E+02  0.10314033975E+03  0.91783950803E+02 0.  0.
        -13    1    4    4    0    0 -0.76298302531E+01  0.29812966857E+02  0.99117087606E+01  0.32330797038E+02  0.10566000000E+00 0. -1.
         13    1    4    4    0    0  0.49017093263E+02 -0.42535712554E+02 -0.28319920574E+02  0.70809542717E+02  0.10566000000E+00 0.  1.
    9000005    1    3    3    0    0 -0.30879776221E+02  0.68219821967E+02 -0.13340825879E+03  0.15299107230E+03  0.10000000000E+01 0.  0.
    9000005    1    3    3    0    0 -0.10507486789E+02 -0.55497076270E+02 -0.13106230414E+03  0.14271881557E+03  0.10000000000E+01 0.  0.
<mgrwt>
<rscale>  0 0.12380433E+03</rscale>
<asrwt>0</asrwt>
<pdfrwt beam="2">  1        2 0.52440691E-01 0.13228628E+03</pdfrwt>
<pdfrwt beam="1">  1       -2 0.89208812E-02 0.13228628E+03</pdfrwt>
<totfact> 0.72066887E+03</totfact>
</mgrwt>
</event>
<event>
 8    3  0.7944584E-004  0.1539176E+03  0.7818608E-02  0.1203428E+00
          2   -1    0    0  501    0  0.00000000000E+00  0.00000000000E+00  0.25864988891E+03  0.25864988892E+03  0.25500000000E-02 0. -1.
         -2   -1    0    0    0  501 -0.00000000000E+00 -0.00000000000E+00 -0.78258325783E+02  0.78258325824E+02  0.25500000000E-02 0.  1.
         25    2    1    2    0    0  0.87651506583E+02  0.19555978925E+02  0.88838023647E+02  0.17771555011E+03  0.12500159754E+03 0.  0.
         23    2    1    2    0    0 -0.87651506583E+02 -0.19555978925E+02  0.91553539480E+02  0.15919266464E+03  0.94313471810E+02 0.  0.
        -13    1    4    4    0    0  0.16077238180E+02 -0.17648399190E+01 -0.44121244431E+01  0.16765149972E+02  0.10566000000E+00 0.  1.
         13    1    4    4    0    0 -0.10372874476E+03 -0.17791139006E+02  0.95965663923E+02  0.14242751466E+03  0.10566000000E+00 0. -1.
    9000005    1    3    3    0    0  0.35204717654E+02  0.20167789101E+02  0.11292029833E+03  0.11999210656E+03  0.10000000000E+01 0.  0.
    9000005    1    3    3    0    0  0.52446788929E+02 -0.61181017612E+00 -0.24082274685E+02  0.57723443545E+02  0.10000000000E+01 0.  0.
<mgrwt>
<rscale>  0 0.14762001E+03</rscale>
<asrwt>0</asrwt>
<pdfrwt beam="1">  1        2 0.39792289E-01 0.15391758E+03</pdfrwt>
<pdfrwt beam="2">  1       -2 0.12039743E-01 0.15391758E+03</pdfrwt>
<totfact> 0.60767138E+03</totfact>
</mgrwt>
</event>
<event>
 8    3  0.7944584E-004  0.1348021E+03  0.7818608E-02  0.1230215E+00
         -2   -1    0    0    0  501 -0.00000000000E+00  0.00000000000E+00  0.15842773995E+02  0.15842774200E+02  0.25500000000E-02 0.  1.
          2   -1    0    0  501    0  0.00000000000E+00 -0.00000000000E+00 -0.11165496793E+04  0.11165496793E+04  0.25500000000E-02 0. -1.
         25    2    1    2    0    0 -0.49266584630E+02  0.10957849235E+02 -0.81727869960E+03  0.82832123576E+03  0.12499730382E+03 0.  0.
         23    2    1    2    0    0  0.49266584630E+02 -0.10957849235E+02 -0.28342820570E+03  0.30407121774E+03  0.97879961444E+02 0.  0.
        -13    1    4    4    0    0  0.78570860880E+02 -0.14370779156E+02 -0.22183704446E+03  0.23577867786E+03  0.10566000000E+00 0.  1.
         13    1    4    4    0    0 -0.29304276250E+02  0.34129299202E+01 -0.61591161241E+02  0.68292539887E+02  0.10566000000E+00 0. -1.
    9000005    1    3    3    0    0 -0.35977266552E+02  0.55251165106E+02 -0.23118057077E+03  0.24040073056E+03  0.10000000000E+01 0.  0.
    9000005    1    3    3    0    0 -0.13289318079E+02 -0.44293315871E+02 -0.58609812884E+03  0.58792050520E+03  0.10000000000E+01 0.  0.
<mgrwt>
<rscale>  0 0.12815778E+03</rscale>
<asrwt>0</asrwt>
<pdfrwt beam="2">  1        2 0.17177681E+00 0.13480207E+03</pdfrwt>
<pdfrwt beam="1">  1       -2 0.24373507E-02 0.13480207E+03</pdfrwt>
<totfact> 0.12415976E+04</totfact>
</mgrwt>
</event>
<event>
 8    3  0.7944584E-004  0.1298945E+03  0.7818608E-02  0.1241532E+00
          2   -1    0    0  501    0  0.00000000000E+00  0.00000000000E+00  0.18628029257E+04  0.18628029257E+04  0.25500000000E-02 0. -1.
         -2   -1    0    0    0  501 -0.00000000000E+00 -0.00000000000E+00 -0.72093197959E+01  0.72093202469E+01  0.25500000000E-02 0.  1.
         25    2    1    2    0    0  0.32603929550E+02 -0.13578656634E+02  0.87860024253E+03  0.88815030986E+03  0.12500076239E+03 0.  0.
         23    2    1    2    0    0 -0.32603929550E+02  0.13578656634E+02  0.97699336336E+03  0.98186193607E+03  0.91046325119E+02 0.  0.
        -13    1    4    4    0    0 -0.52324504964E+02  0.35173795600E+02  0.79884166712E+03  0.80132582013E+03  0.10566000000E+00 0. -1.
         13    1    4    4    0    0  0.19720575415E+02 -0.21595138967E+02  0.17815169624E+03  0.18053611594E+03  0.10566000000E+00 0.  1.
    9000005    1    3    3    0    0 -0.30925347121E+02  0.37313133269E+02  0.33453329562E+03  0.33802688190E+03  0.10000000000E+01 0.  0.
    9000005    1    3    3    0    0  0.63529276671E+02 -0.50891789902E+02  0.54406694690E+03  0.55012342796E+03  0.10000000000E+01 0.  0.
<mgrwt>
<rscale>  0 0.12095355E+03</rscale>
<asrwt>0</asrwt>
<pdfrwt beam="1">  1        2 0.28658509E+00 0.12989452E+03</pdfrwt>
<pdfrwt beam="2">  1       -2 0.11091261E-02 0.12989452E+03</pdfrwt>
<totfact> 0.15629171E+04</totfact>
</mgrwt>
</event>
<event>
 8    3  0.7944584E-004  0.1258129E+03  0.7818608E-02  0.1248645E+00
         -2   -1    0    0    0  501 -0.00000000000E+00  0.00000000000E+00  0.42930102294E+01  0.42930109868E+01  0.25500000000E-02 0.  1.
          2   -1    0    0  501    0  0.00000000000E+00 -0.00000000000E+00 -0.46221148756E+04  0.46221148756E+04  0.25500000000E-02 0. -1.
         25    2    1    2    0    0 -0.13492048339E+02 -0.45488163325E+01 -0.10711320304E+04  0.10784955806E+04  0.12500465447E+03 0.  0.
         23    2    1    2    0    0  0.13492048339E+02  0.45488163325E+01 -0.35466898350E+04  0.35479123061E+04  0.92033790994E+02 0.  0.
        -13    1    4    4    0    0 -0.11687030136E+02 -0.33298275324E+02 -0.72694216085E+03  0.72779824003E+03  0.10566000000E+00 0.  1.
         13    1    4    4    0    0  0.25179078475E+02  0.37847091656E+02 -0.28197476742E+04  0.28201140660E+04  0.10566000000E+00 0. -1.
    9000005    1    3    3    0    0 -0.53629439184E+02 -0.41745799002E+02 -0.70904060456E+03  0.71229095698E+03  0.10000000000E+01 0.  0.
    9000005    1    3    3    0    0  0.40137390845E+02  0.37196982669E+02 -0.36209142583E+03  0.36620462357E+03  0.10000000000E+01 0.  0.
<mgrwt>
<rscale>  0 0.11669836E+03</rscale>
<asrwt>0</asrwt>
<pdfrwt beam="2">  1        2 0.71109062E+00 0.12581292E+03</pdfrwt>
<pdfrwt beam="1">  1       -2 0.66046687E-03 0.12581292E+03</pdfrwt>
<totfact> 0.54038299E+02</totfact>
</mgrwt>
</event>
<event>
 8    3  0.7944584E-004  0.5077796E+03  0.7818608E-02  0.1012249E+00
          2   -1    0    0  501    0  0.00000000000E+00  0.00000000000E+00  0.24340152496E+04  0.24340152496E+04  0.25500000000E-02 0.  1.
         -2   -1    0    0    0  501 -0.00000000000E+00 -0.00000000000E+00 -0.10985809545E+03  0.10985809548E+03  0.25500000000E-02 0. -1.
         25    2    1    2    0    0 -0.21693686207E+03  0.44176350688E+03  0.88624512955E+03  0.10214061510E+04  0.12499399014E+03 0.  0.
         23    2    1    2    0    0  0.21693686207E+03 -0.44176350688E+03  0.14379120246E+04  0.15224671941E+04  0.89993157199E+02 0.  0.
        -13    1    4    4    0    0  0.98807236436E+02 -0.26986978702E+03  0.93019571039E+03  0.97357929451E+03  0.10566000000E+00 0. -1.
         13    1    4    4    0    0  0.11812962563E+03 -0.17189371986E+03  0.50771631423E+03  0.54888789955E+03  0.10566000000E+00 0.  1.
    9000005    1    3    3    0    0 -0.96281065347E+02  0.97672576196E+02  0.17700763005E+03  0.22392560546E+03  0.10000000000E+01 0.  0.
    9000005    1    3    3    0    0 -0.12065579672E+03  0.34409093069E+03  0.70923749950E+03  0.79748054557E+03  0.10000000000E+01 0.  0.
<mgrwt>
<rscale>  0 0.50590312E+03</rscale>
<asrwt>0</asrwt>
<pdfrwt beam="1">  1        2 0.37446386E+00 0.50777957E+03</pdfrwt>
<pdfrwt beam="2">  1       -2 0.16901247E-01 0.50777957E+03</pdfrwt>
<totfact> 0.11636549E+02</totfact>
</mgrwt>
</event>
<event>
 8    3  0.7944584E-004  0.1544065E+03  0.7818608E-02  0.1202316E+00
          2   -1    0    0  501    0  0.00000000000E+00  0.00000000000E+00  0.71406082522E+03  0.71406082522E+03  0.25500000000E-02 0. -1.
         -2   -1    0    0    0  501 -0.00000000000E+00 -0.00000000000E+00 -0.49950004595E+02  0.49950004660E+02  0.25500000000E-02 0.  1.
         25    2    1    2    0    0 -0.40027984208E+02 -0.81326711305E+02  0.59536252203E+03  0.61505927507E+03  0.12500042288E+03 0.  0.
         23    2    1    2    0    0  0.40027984208E+02  0.81326711305E+02  0.68748298597E+02  0.14895155482E+03  0.96145533598E+02 0.  0.
        -13    1    4    4    0    0 -0.66479088647E+01  0.84981640610E+02  0.46795263039E+02  0.97241358176E+02  0.10566000000E+00 0.  1.
         13    1    4    4    0    0  0.46675893073E+02 -0.36549293048E+01  0.21953035558E+02  0.51710196641E+02  0.10566000000E+00 0. -1.
    9000005    1    3    3    0    0  0.37835894910E+02 -0.57230712916E+02  0.34514916212E+03  0.35190318777E+03  0.10000000000E+01 0.  0.
    9000005    1    3    3    0    0 -0.77863879118E+02 -0.24095998389E+02  0.25021335990E+03  0.26315608730E+03  0.10000000000E+01 0.  0.
<mgrwt>
<rscale>  0 0.14850994E+03</rscale>
<asrwt>0</asrwt>
<pdfrwt beam="1">  1        2 0.10985551E+00 0.15440654E+03</pdfrwt>
<pdfrwt beam="2">  1       -2 0.76846165E-02 0.15440654E+03</pdfrwt>
<totfact> 0.40334914E+03</totfact>
</mgrwt>
</event>
<event>
 8    3  0.7944584E-004  0.1605526E+03  0.7818608E-02  0.1195859E+00
          2   -1    0    0  501    0  0.00000000000E+00  0.00000000000E+00  0.10268680875E+03  0.10268680878E+03  0.25500000000E-02 0.  1.
         -2   -1    0    0    0  501 -0.00000000000E+00 -0.00000000000E+00 -0.23245691761E+03  0.23245691762E+03  0.25500000000E-02 0. -1.
         25    2    1    2    0    0 -0.56150870885E+02  0.83588973919E+02 -0.21702477157E+02  0.16201275207E+03  0.12504838046E+03 0.  0.
         23    2    1    2    0    0  0.56150870885E+02 -0.83588973919E+02 -0.10806763170E+03  0.17313097433E+03  0.90308827853E+02 0.  0.
        -13    1    4    4    0    0 -0.11051164520E+02 -0.14354420905E+02  0.99684467162E+01  0.20677493338E+02  0.10566000000E+00 0.  1.
         13    1    4    4    0    0  0.67202035405E+02 -0.69234553014E+02 -0.11803607842E+03  0.15245348099E+03  0.10566000000E+00 0. -1.
    9000005    1    3    3    0    0 -0.15994861326E+02 -0.20327387168E+02 -0.41447915914E+02  0.48866839386E+02  0.10000000000E+01 0.  0.
    9000005    1    3    3    0    0 -0.40156009559E+02  0.10391636109E+03  0.19745438757E+02  0.11314591268E+03  0.10000000000E+01 0.  0.
<mgrwt>
<rscale>  0 0.15381783E+03</rscale>
<asrwt>0</asrwt>
<pdfrwt beam="1">  1        2 0.15797971E-01 0.16055259E+03</pdfrwt>
<pdfrwt beam="2">  1       -2 0.35762603E-01 0.16055259E+03</pdfrwt>
<totfact> 0.26292118E+03</totfact>
</mgrwt>
</event>
<event>
 8    3  0.7944584E-004  0.1882034E+03  0.7818608E-02  0.1164992E+00
          2   -1    0    0  501    0  0.00000000000E+00  0.00000000000E+00  0.45876955870E+03  0.45876955871E+03  0.25500000000E-02 0. -1.
         -2   -1    0    0    0  501 -0.00000000000E+00 -0.00000000000E+00 -0.79303177222E+02  0.79303177263E+02  0.25500000000E-02 0.  1.
         25    2    1    2    0    0 -0.45008882842E+02  0.13330188873E+03  0.29528195574E+03  0.35015987660E+03  0.12500125089E+03 0.  0.
         23    2    1    2    0    0  0.45008882842E+02 -0.13330188873E+03  0.84184425741E+02  0.18791285937E+03  0.91809760403E+02 0.  0.
        -13    1    4    4    0    0 -0.12652244005E+02 -0.31529844837E+02  0.59271121990E+02  0.68317548696E+02  0.10566000000E+00 0.  1.
         13    1    4    4    0    0  0.57661126846E+02 -0.10177204389E+03  0.24913303751E+02  0.11959531067E+03  0.10566000000E+00 0. -1.
    9000005    1    3    3    0    0 -0.53932126126E+01  0.12693938955E+03  0.13691893830E+03  0.18678996501E+03  0.10000000000E+01 0.  0.
    9000005    1    3    3    0    0 -0.39615670229E+02  0.63624991820E+01  0.15836301743E+03  0.16336991159E+03  0.10000000000E+01 0.  0.
<mgrwt>
<rscale>  0 0.18293562E+03</rscale>
<asrwt>0</asrwt>
<pdfrwt beam="1">  1        2 0.70579931E-01 0.18820336E+03</pdfrwt>
<pdfrwt beam="2">  1       -2 0.12200489E-01 0.18820336E+03</pdfrwt>
<totfact> 0.32471156E+03</totfact>
</mgrwt>
</event>
<event>
 8    3  0.7944584E-004  0.1643348E+03  0.7818608E-02  0.1190872E+00
          2   -1    0    0  501    0  0.00000000000E+00  0.00000000000E+00  0.62091431570E+03  0.62091431570E+03  0.25500000000E-02 0. -1.
         -2   -1    0    0    0  501 -0.00000000000E+00 -0.00000000000E+00 -0.37503462749E+02  0.37503462835E+02  0.25500000000E-02 0.  1.
         25    2    1    2    0    0 -0.48076008538E+02 -0.95235661329E+02  0.32370118289E+03  0.36302671222E+03  0.12499921678E+03 0.  0.
         23    2    1    2    0    0  0.48076008538E+02  0.95235661329E+02  0.25970967006E+03  0.29539106632E+03  0.91791260760E+02 0.  0.
        -13    1    4    4    0    0  0.63877895370E+02  0.99054206612E+02  0.18823850488E+03  0.22209427559E+03  0.10566000000E+00 0.  1.
         13    1    4    4    0    0 -0.15801886831E+02 -0.38185452827E+01  0.71471165177E+02  0.73296790730E+02  0.10566000000E+00 0. -1.
    9000005    1    3    3    0    0 -0.72947265203E+02 -0.57807909754E+02  0.29585308357E+03  0.31015013299E+03  0.10000000000E+01 0.  0.
    9000005    1    3    3    0    0  0.24871256664E+02 -0.37427751576E+02  0.27848099313E+02  0.52876579233E+02  0.10000000000E+01 0.  0.
<mgrwt>
<rscale>  0 0.15808801E+03</rscale>
<asrwt>0</asrwt>
<pdfrwt beam="1">  1        2 0.95525268E-01 0.16433483E+03</pdfrwt>
<pdfrwt beam="2">  1       -2 0.57697642E-02 0.16433483E+03</pdfrwt>
<totfact> 0.73975113E+03</totfact>
</mgrwt>
</event>
<event>
 8    3  0.7944584E-004  0.1291435E+03  0.7818608E-02  0.1241905E+00
         -2   -1    0    0    0  501 -0.00000000000E+00  0.00000000000E+00  0.14057581092E+03  0.14057581094E+03  0.25500000000E-02 0.  1.
          2   -1    0    0  501    0  0.00000000000E+00 -0.00000000000E+00 -0.10373250025E+03  0.10373250028E+03  0.25500000000E-02 0. -1.
         25    2    1    2    0    0 -0.50710098536E+01 -0.32001939616E+02 -0.19683709257E+02  0.13063500267E+03  0.12501286427E+03 0.  0.
         23    2    1    2    0    0  0.50710098536E+01  0.32001939616E+02  0.56527019929E+02  0.11367330855E+03  0.93147613043E+02 0.  0.
        -13    1    4    4    0    0 -0.43638896290E+02  0.19058379838E+02  0.21200897989E+02  0.52125467393E+02  0.10566000000E+00 0. -1.
         13    1    4    4    0    0  0.48709906143E+02  0.12943559778E+02  0.35326121941E+02  0.61547841161E+02  0.10566000000E+00 0.  1.
    9000005    1    3    3    0    0  0.48825285127E+01  0.47161272807E+02  0.34704444046E+01  0.47550696334E+02  0.10000000000E+01 0.  0.
    9000005    1    3    3    0    0 -0.99535383664E+01 -0.79163212423E+02 -0.23154153662E+02  0.83084306334E+02  0.10000000000E+01 0.  0.
<mgrwt>
<rscale>  0 0.12072524E+03</rscale>
<asrwt>0</asrwt>
<pdfrwt beam="2">  1        2 0.15958846E-01 0.12914355E+03</pdfrwt>
<pdfrwt beam="1">  1       -2 0.21627048E-01 0.12914355E+03</pdfrwt>
<totfact> 0.62775670E+03</totfact>
</mgrwt>
</event>
<event>
 8    3  0.7944584E-004  0.1274877E+03  0.7818608E-02  0.1246448E+00
          2   -1    0    0  501    0  0.00000000000E+00  0.00000000000E+00  0.46748992671E+03  0.46748992671E+03  0.25500000000E-02 0. -1.
         -2   -1    0    0    0  501 -0.00000000000E+00 -0.00000000000E+00 -0.51489104108E+02  0.51489104171E+02  0.25500000000E-02 0.  1.
         25    2    1    2    0    0 -0.74068106818E+01 -0.23937225239E+02  0.43178026938E+02  0.13460113674E+03  0.12500108961E+03 0.  0.
         23    2    1    2    0    0  0.74068106818E+01  0.23937225239E+02  0.37282279566E+03  0.38437789415E+03  0.90120347025E+02 0.  0.
        -13    1    4    4    0    0 -0.10509378746E+02 -0.28803699656E+02  0.69206438395E+02  0.75694401609E+02  0.10566000000E+00 0.  1.
         13    1    4    4    0    0  0.17916189427E+02  0.52740924895E+02  0.30361635726E+03  0.30868349254E+03  0.10566000000E+00 0. -1.
    9000005    1    3    3    0    0 -0.48980345613E+02 -0.40630961130E+02  0.59287283153E+02  0.86982361444E+02  0.10000000000E+01 0.  0.
    9000005    1    3    3    0    0  0.41573534931E+02  0.16693735891E+02 -0.16109256215E+02  0.47618775294E+02  0.10000000000E+01 0.  0.
<mgrwt>
<rscale>  0 0.11799114E+03</rscale>
<asrwt>0</asrwt>
<pdfrwt beam="1">  1        2 0.71921526E-01 0.12748774E+03</pdfrwt>
<pdfrwt beam="2">  1       -2 0.79214007E-02 0.12748774E+03</pdfrwt>
<totfact> 0.61650814E+03</totfact>
</mgrwt>
</event>
<event>
 8    3  0.7944584E-004  0.1622209E+03  0.7818608E-02  0.1193370E+00
         -2   -1    0    0    0  501 -0.00000000000E+00  0.00000000000E+00  0.17909042017E+02  0.17909042199E+02  0.25500000000E-02 0.  1.
          2   -1    0    0  501    0  0.00000000000E+00 -0.00000000000E+00 -0.19681338187E+04  0.19681338187E+04  0.25500000000E-02 0. -1.
         25    2    1    2    0    0 -0.89180230878E+02 -0.52322624148E+02 -0.43097350079E+03  0.46049297332E+03  0.12499939806E+03 0.  0.
         23    2    1    2    0    0  0.89180230878E+02  0.52322624148E+02 -0.15192512759E+04  0.15255498876E+04  0.92126269995E+02 0.  0.
        -13    1    4    4    0    0  0.73643285915E+02  0.47489156867E+02 -0.14854868825E+04  0.14880691660E+04  0.10566000000E+00 0. -1.
         13    1    4    4    0    0  0.15536944963E+02  0.48334672815E+01 -0.33764393426E+02  0.37480721608E+02  0.10566000000E+00 0.  1.
    9000005    1    3    3    0    0 -0.33964484463E+01  0.37673953523E+02 -0.10524819765E+03  0.11184384536E+03  0.10000000000E+01 0.  0.
    9000005    1    3    3    0    0 -0.85783782432E+02 -0.89996577671E+02 -0.32572530314E+03  0.34864912796E+03  0.10000000000E+01 0.  0.
<mgrwt>
<rscale>  0 0.15593032E+03</rscale>
<asrwt>0</asrwt>
<pdfrwt beam="2">  1        2 0.30278965E+00 0.16222090E+03</pdfrwt>
<pdfrwt beam="1">  1       -2 0.27552388E-02 0.16222090E+03</pdfrwt>
<totfact> 0.37094491E+03</totfact>
</mgrwt>
</event>
<event>
 8    3  0.7944584E-004  0.1719345E+03  0.7818608E-02  0.1183348E+00
          2   -1    0    0  501    0  0.00000000000E+00  0.00000000000E+00  0.57217642496E+02  0.57217642553E+02  0.25500000000E-02 0. -1.
         -2   -1    0    0    0  501 -0.00000000000E+00 -0.00000000000E+00 -0.44321773130E+03  0.44321773131E+03  0.25500000000E-02 0.  1.
         25    2    1    2    0    0  0.31363942056E+02 -0.11381477880E+03 -0.23186713479E+03  0.28865866746E+03  0.12499582941E+03 0.  0.
         23    2    1    2    0    0 -0.31363942056E+02  0.11381477880E+03 -0.15413295401E+03  0.21177670640E+03  0.84586672269E+02 0.  0.
        -13    1    4    4    0    0  0.96708703842E+01  0.82923373016E+02 -0.13123893048E+03  0.15554253297E+03  0.10566000000E+00 0.  1.
         13    1    4    4    0    0 -0.41034812440E+02  0.30891405784E+02 -0.22894023536E+02  0.56234173427E+02  0.10566000000E+00 0. -1.
    9000005    1    3    3    0    0  0.61892490624E+02 -0.18807929366E+02 -0.52167450697E+02  0.83107529833E+02  0.10000000000E+01 0.  0.
    9000005    1    3    3    0    0 -0.30528548568E+02 -0.95006849434E+02 -0.17969968410E+03  0.20555113763E+03  0.10000000000E+01 0.  0.
<mgrwt>
<rscale>  0 0.16483065E+03</rscale>
<asrwt>0</asrwt>
<pdfrwt beam="1">  1        2 0.88027145E-02 0.17193446E+03</pdfrwt>
<pdfrwt beam="2">  1       -2 0.68187341E-01 0.17193446E+03</pdfrwt>
<totfact> 0.14888714E+03</totfact>
</mgrwt>
</event>
<event>
 8    3  0.7944584E-004  0.1255450E+03  0.7818608E-02  0.1248885E+00
          2   -1    0    0  501    0  0.00000000000E+00  0.00000000000E+00  0.62272829767E+02  0.62272829820E+02  0.25500000000E-02 0. -1.
         -2   -1    0    0    0  501 -0.00000000000E+00 -0.00000000000E+00 -0.19293822237E+03  0.19293822239E+03  0.25500000000E-02 0.  1.
         25    2    1    2    0    0 -0.11640575462E+02  0.16887207273E+01 -0.82572552013E+02  0.15026571273E+03  0.12499281300E+03 0.  0.
         23    2    1    2    0    0  0.11640575462E+02 -0.16887207273E+01 -0.48092840593E+02  0.10494533948E+03  0.92532416953E+02 0.  0.
        -13    1    4    4    0    0  0.77250653253E+01  0.12063270816E+02 -0.73989398856E+02  0.75363395917E+02  0.10566000000E+00 0.  1.
         13    1    4    4    0    0  0.39155101367E+01 -0.13751991543E+02  0.25896558262E+02  0.29581943562E+02  0.10566000000E+00 0. -1.
    9000005    1    3    3    0    0  0.14440036540E+00 -0.52964260237E+02 -0.30637717181E+01  0.53062419951E+02  0.10000000000E+01 0.  0.
    9000005    1    3    3    0    0 -0.11784975827E+02  0.54652980964E+02 -0.79508780295E+02  0.97203292781E+02  0.10000000000E+01 0.  0.
<mgrwt>
<rscale>  0 0.11655834E+03</rscale>
<asrwt>0</asrwt>
<pdfrwt beam="1">  1        2 0.95804355E-02 0.12554504E+03</pdfrwt>
<pdfrwt beam="2">  1       -2 0.29682803E-01 0.12554504E+03</pdfrwt>
<totfact> 0.66276234E+03</totfact>
</mgrwt>
</event>
<event>
 8    3  0.7944584E-004  0.1305896E+03  0.7818608E-02  0.1240139E+00
          2   -1    0    0  501    0  0.00000000000E+00  0.00000000000E+00  0.43938714648E+03  0.43938714648E+03  0.25500000000E-02 0. -1.
         -2   -1    0    0    0  501 -0.00000000000E+00 -0.00000000000E+00 -0.42098686924E+02  0.42098687001E+02  0.25500000000E-02 0.  1.
         25    2    1    2    0    0 -0.33093780338E+02  0.18269706160E+02  0.34660780638E+03  0.37039252057E+03  0.12499866957E+03 0.  0.
         23    2    1    2    0    0  0.33093780338E+02 -0.18269706160E+02  0.50680653177E+02  0.11109331291E+03  0.91346675404E+02 0.  0.
        -13    1    4    4    0    0  0.45410211489E+02 -0.43788912173E+02  0.13785527611E+02  0.64572502447E+02  0.10566000000E+00 0.  1.
         13    1    4    4    0    0 -0.12316431151E+02  0.25519206013E+02  0.36895125565E+02  0.46520810466E+02  0.10566000000E+00 0. -1.
    9000005    1    3    3    0    0  0.16902678342E+02  0.41634781189E+02  0.44374756810E+02  0.63160704411E+02  0.10000000000E+01 0.  0.
    9000005    1    3    3    0    0 -0.49996458680E+02 -0.23365075030E+02  0.30223304957E+03  0.30723181616E+03  0.10000000000E+01 0.  0.
<mgrwt>
<rscale>  0 0.12181087E+03</rscale>
<asrwt>0</asrwt>
<pdfrwt beam="1">  1        2 0.67598022E-01 0.13058962E+03</pdfrwt>
<pdfrwt beam="2">  1       -2 0.64767212E-02 0.13058962E+03</pdfrwt>
<totfact> 0.89866432E+03</totfact>
</mgrwt>
</event>
<event>
 8    3  0.7944584E-004  0.1988015E+03  0.7818608E-02  0.1155079E+00
         -2   -1    0    0    0  501 -0.00000000000E+00  0.00000000000E+00  0.40443729684E+02  0.40443729764E+02  0.25500000000E-02 0.  1.
          2   -1    0    0  501    0  0.00000000000E+00 -0.00000000000E+00 -0.88570044359E+03  0.88570044359E+03  0.25500000000E-02 0. -1.
         25    2    1    2    0    0  0.13682378882E+03 -0.71943847684E+02 -0.45894005603E+03  0.50014799473E+03  0.12500150078E+03 0.  0.
         23    2    1    2    0    0 -0.13682378882E+03  0.71943847684E+02 -0.38631665788E+03  0.42599617863E+03  0.91299056116E+02 0.  0.
        -13    1    4    4    0    0 -0.12324124745E+03  0.77421155500E+02 -0.38464017358E+03  0.41125480507E+03  0.10566000000E+00 0. -1.
         13    1    4    4    0    0 -0.13582541364E+02 -0.54773078166E+01 -0.16764842922E+01  0.14741373561E+02  0.10566000000E+00 0.  1.
    9000005    1    3    3    0    0  0.94400438845E+02 -0.98184517998E+01 -0.12021482328E+03  0.15316804036E+03  0.10000000000E+01 0.  0.
    9000005    1    3    3    0    0  0.42423349971E+02 -0.62125395884E+02 -0.33872523275E+03  0.34697995437E+03  0.10000000000E+01 0.  0.
<mgrwt>
<rscale>  0 0.19379875E+03</rscale>
<asrwt>0</asrwt>
<pdfrwt beam="2">  1        2 0.13626159E+00 0.19880151E+03</pdfrwt>
<pdfrwt beam="1">  1       -2 0.62221129E-02 0.19880151E+03</pdfrwt>
<totfact> 0.42952363E+03</totfact>
</mgrwt>
</event>
<event>
 8    3  0.7944584E-004  0.2120525E+03  0.7818608E-02  0.1143760E+00
          2   -1    0    0  501    0  0.00000000000E+00  0.00000000000E+00  0.83076200482E+02  0.83076200521E+02  0.25500000000E-02 0. -1.
         -2   -1    0    0    0  501 -0.00000000000E+00 -0.00000000000E+00 -0.62272412015E+03  0.62272412016E+03  0.25500000000E-02 0.  1.
         25    2    1    2    0    0  0.79690877168E+02 -0.15162406175E+03 -0.11990762585E+03  0.24360640825E+03  0.12500300556E+03 0.  0.
         23    2    1    2    0    0 -0.79690877168E+02  0.15162406175E+03 -0.41974029381E+03  0.46219391243E+03  0.90004480041E+02 0.  0.
        -13    1    4    4    0    0 -0.57827795918E+02  0.21731115966E+02 -0.13476307370E+03  0.14824774056E+03  0.10566000000E+00 0. -1.
         13    1    4    4    0    0 -0.21863081250E+02  0.12989294578E+03 -0.28497722011E+03  0.31394617187E+03  0.10566000000E+00 0.  1.
    9000005    1    3    3    0    0  0.77316694947E+02 -0.14530923102E+03 -0.14391817925E+03  0.21864602959E+03  0.10000000000E+01 0.  0.
    9000005    1    3    3    0    0  0.23741822210E+01 -0.63148307293E+01  0.24010553398E+02  0.24960378659E+02  0.10000000000E+01 0.  0.
<mgrwt>
<rscale>  0 0.20725325E+03</rscale>
<asrwt>0</asrwt>
<pdfrwt beam="1">  1        2 0.12780954E-01 0.21205245E+03</pdfrwt>
<pdfrwt beam="2">  1       -2 0.95803708E-01 0.21205245E+03</pdfrwt>
<totfact> 0.44713015E+02</totfact>
</mgrwt>
</event>
<event>
 8    3  0.7944584E-004  0.1311685E+03  0.7818608E-02  0.1238920E+00
          2   -1    0    0  501    0  0.00000000000E+00  0.00000000000E+00  0.10222969746E+03  0.10222969749E+03  0.25500000000E-02 0. -1.
         -2   -1    0    0    0  501 -0.00000000000E+00 -0.00000000000E+00 -0.13218857617E+03  0.13218857620E+03  0.25500000000E-02 0.  1.
         25    2    1    2    0    0 -0.18997422036E+02  0.34911789956E+02 -0.29355889542E+02  0.13441334586E+03  0.12500177668E+03 0.  0.
         23    2    1    2    0    0  0.18997422036E+02 -0.34911789956E+02 -0.60298917152E+00  0.10000492783E+03  0.91765390387E+02 0.  0.
        -13    1    4    4    0    0  0.25021394469E+02 -0.52419622884E+02  0.29128259136E+02  0.64979640572E+02  0.10566000000E+00 0. -1.
         13    1    4    4    0    0 -0.60239724328E+01  0.17507832928E+02 -0.29731248308E+02  0.35025287260E+02  0.10566000000E+00 0.  1.
    9000005    1    3    3    0    0 -0.59676032313E+01 -0.35453661661E+02  0.25627196500E+02  0.44162513673E+02  0.10000000000E+01 0.  0.
    9000005    1    3    3    0    0 -0.13029818805E+02  0.70365451617E+02 -0.54983086042E+02  0.90250832185E+02  0.10000000000E+01 0.  0.
<mgrwt>
<rscale>  0 0.12256757E+03</rscale>
<asrwt>0</asrwt>
<pdfrwt beam="1">  1        2 0.15727646E-01 0.13116851E+03</pdfrwt>
<pdfrwt beam="2">  1       -2 0.20336704E-01 0.13116851E+03</pdfrwt>
<totfact> 0.70977346E+03</totfact>
</mgrwt>
</event>
<event>
 8    3  0.7944584E-004  0.1268036E+03  0.7818608E-02  0.1247745E+00
          2   -1    0    0  501    0  0.00000000000E+00  0.00000000000E+00  0.64310163849E+03  0.64310163850E+03  0.25500000000E-02 0. -1.
         -2   -1    0    0    0  501 -0.00000000000E+00 -0.00000000000E+00 -0.30828866902E+02  0.30828867007E+02  0.25500000000E-02 0.  1.
         25    2    1    2    0    0  0.29848460358E+01  0.21139795915E+02  0.54474579948E+03  0.55930951479E+03  0.12499338782E+03 0.  0.
         23    2    1    2    0    0 -0.29848460358E+01 -0.21139795915E+02  0.67526972108E+02  0.11462099072E+03  0.90123688750E+02 0.  0.
        -13    1    4    4    0    0 -0.63087924395E+01 -0.15997801537E+02 -0.20286187778E+02  0.26594568894E+02  0.10566000000E+00 0.  1.
         13    1    4    4    0    0  0.33239464037E+01 -0.51419943774E+01  0.87813159886E+02  0.88026421824E+02  0.10566000000E+00 0. -1.
    9000005    1    3    3    0    0  0.14815134829E+02 -0.49711484272E+02  0.17002221322E+03  0.17776184314E+03  0.10000000000E+01 0.  0.
    9000005    1    3    3    0    0 -0.11830288793E+02  0.70851280187E+02  0.37472358626E+03  0.38154767164E+03  0.10000000000E+01 0.  0.
<mgrwt>
<rscale>  0 0.11722558E+03</rscale>
<asrwt>0</asrwt>
<pdfrwt beam="1">  1        2 0.98938702E-01 0.12680358E+03</pdfrwt>
<pdfrwt beam="2">  1       -2 0.47429032E-02 0.12680358E+03</pdfrwt>
<totfact> 0.93992521E+03</totfact>
</mgrwt>
</event>
<event>
 8    3  0.7944584E-004  0.1759322E+03  0.7818608E-02  0.1178005E+00
         -2   -1    0    0    0  501 -0.00000000000E+00  0.00000000000E+00  0.57970218522E+02  0.57970218578E+02  0.25500000000E-02 0. -1.
          2   -1    0    0  501    0  0.00000000000E+00 -0.00000000000E+00 -0.55293980004E+03  0.55293980004E+03  0.25500000000E-02 0.  1.
         25    2    1    2    0    0 -0.11995548902E+03 -0.30629506036E+02 -0.38291504728E+03  0.42139777789E+03  0.12499867116E+03 0.  0.
         23    2    1    2    0    0  0.11995548902E+03  0.30629506036E+02 -0.11205453424E+03  0.18951224073E+03  0.89616877645E+02 0.  0.
        -13    1    4    4    0    0  0.31987382511E+02  0.38733096734E+02 -0.82066667992E+02  0.96220551765E+02  0.10566000000E+00 0.  1.
         13    1    4    4    0    0  0.87968106507E+02 -0.81035906979E+01 -0.29987866246E+02  0.93291688968E+02  0.10566000000E+00 0. -1.
    9000005    1    3    3    0    0 -0.11473154715E+03 -0.59641192190E+02 -0.36417779282E+03  0.38645422044E+03  0.10000000000E+01 0.  0.
    9000005    1    3    3    0    0 -0.52239418650E+01  0.29011686154E+02 -0.18737254461E+02  0.34943557444E+02  0.10000000000E+01 0.  0.
<mgrwt>
<rscale>  0 0.16984982E+03</rscale>
<asrwt>0</asrwt>
<pdfrwt beam="2">  1        2 0.85067658E-01 0.17593224E+03</pdfrwt>
<pdfrwt beam="1">  1       -2 0.89184956E-02 0.17593224E+03</pdfrwt>
<totfact> 0.43284346E+03</totfact>
</mgrwt>
</event>
<event>
 8    3  0.7944584E-004  0.1429068E+03  0.7818608E-02  0.1218932E+00
          2   -1    0    0  501    0  0.00000000000E+00  0.00000000000E+00  0.20413934815E+04  0.20413934815E+04  0.25500000000E-02 0. -1.
         -2   -1    0    0    0  501 -0.00000000000E+00 -0.00000000000E+00 -0.83524851520E+01  0.83524855412E+01  0.25500000000E-02 0.  1.
         25    2    1    2    0    0  0.54718755439E+02  0.42461037531E+02  0.12195382090E+04  0.12278826532E+04  0.12500113925E+03 0.  0.
         23    2    1    2    0    0 -0.54718755439E+02 -0.42461037531E+02  0.81350278736E+03  0.82186331390E+03  0.94209552486E+02 0.  0.
        -13    1    4    4    0    0 -0.50497732148E+02  0.18969706240E+02  0.44402218926E+03  0.44728691735E+03  0.10566000000E+00 0. -1.
         13    1    4    4    0    0 -0.42210232910E+01 -0.61430743771E+02  0.36948059810E+03  0.37457639655E+03  0.10566000000E+00 0.  1.
    9000005    1    3    3    0    0  0.45103221812E+02 -0.37855894669E+02  0.64394222930E+03  0.64662969623E+03  0.10000000000E+01 0.  0.
    9000005    1    3    3    0    0  0.96155336269E+01  0.80316932200E+02  0.57559597971E+03  0.58125295693E+03  0.10000000000E+01 0.  0.
<mgrwt>
<rscale>  0 0.13591608E+03</rscale>
<asrwt>0</asrwt>
<pdfrwt beam="1">  1        2 0.31406013E+00 0.14290685E+03</pdfrwt>
<pdfrwt beam="2">  1       -2 0.12849994E-02 0.14290685E+03</pdfrwt>
<totfact> 0.10290990E+04</totfact>
</mgrwt>
</event>
<event>
 8    3  0.7944584E-004  0.1363388E+03  0.7818608E-02  0.1231711E+00
         -2   -1    0    0    0  501 -0.00000000000E+00  0.00000000000E+00  0.26201116031E+03  0.26201116033E+03  0.25500000000E-02 0.  1.
          2   -1    0    0  501    0  0.00000000000E+00 -0.00000000000E+00 -0.58668760343E+02  0.58668760399E+02  0.25500000000E-02 0. -1.
         25    2    1    2    0    0  0.34167194223E+01  0.54358439127E+02  0.73744931536E+02  0.15500510139E+03  0.12498700994E+03 0.  0.
         23    2    1    2    0    0 -0.34167194223E+01 -0.54358439127E+02  0.12959746843E+03  0.16567481933E+03  0.87670565528E+02 0.  0.
        -13    1    4    4    0    0  0.26348099466E+02 -0.12010253744E+02  0.10394862359E+03  0.10790642265E+03  0.10566000000E+00 0.  1.
         13    1    4    4    0    0 -0.29764818889E+02 -0.42348185383E+02  0.25648844849E+02  0.57768396679E+02  0.10566000000E+00 0. -1.
    9000005    1    3    3    0    0 -0.10715485539E+02  0.79414422248E+02  0.91148002018E+02  0.12136898435E+03  0.10000000000E+01 0.  0.
    9000005    1    3    3    0    0  0.14132204962E+02 -0.25055983121E+02 -0.17403070482E+02  0.33636117039E+02  0.10000000000E+01 0.  0.
<mgrwt>
<rscale>  0 0.12717354E+03</rscale>
<asrwt>0</asrwt>
<pdfrwt beam="2">  1        2 0.90259630E-02 0.13633879E+03</pdfrwt>
<pdfrwt beam="1">  1       -2 0.40309410E-01 0.13633879E+03</pdfrwt>
<totfact> 0.40847112E+03</totfact>
</mgrwt>
</event>
<event>
 8    3  0.7944584E-004  0.1439880E+03  0.7818608E-02  0.1218888E+00
         -2   -1    0    0    0  501 -0.00000000000E+00  0.00000000000E+00  0.32640956224E+02  0.32640956323E+02  0.25500000000E-02 0.  1.
          2   -1    0    0  501    0  0.00000000000E+00 -0.00000000000E+00 -0.72133485757E+03  0.72133485757E+03  0.25500000000E-02 0. -1.
         25    2    1    2    0    0  0.70682991879E+02 -0.10694958304E+02 -0.57469240486E+03  0.59245582097E+03  0.12498828797E+03 0.  0.
         23    2    1    2    0    0 -0.70682991879E+02  0.10694958304E+02 -0.11400149648E+03  0.16151999292E+03  0.89341476585E+02 0.  0.
        -13    1    4    4    0    0  0.14979284529E+02 -0.18496281329E+02 -0.20791865682E+02  0.31603864172E+02  0.10566000000E+00 0. -1.
         13    1    4    4    0    0 -0.85662276408E+02  0.29191239633E+02 -0.93209630801E+02  0.12991612875E+03  0.10566000000E+00 0.  1.
    9000005    1    3    3    0    0  0.10266254376E+03 -0.27870929496E+02 -0.39135091963E+03  0.40555262161E+03  0.10000000000E+01 0.  0.
    9000005    1    3    3    0    0 -0.31979551883E+02  0.17175971192E+02 -0.18334148523E+03  0.18690319936E+03  0.10000000000E+01 0.  0.
<mgrwt>
<rscale>  0 0.13594773E+03</rscale>
<asrwt>0</asrwt>
<pdfrwt beam="2">  1        2 0.11097458E+00 0.14398798E+03</pdfrwt>
<pdfrwt beam="1">  1       -2 0.50216861E-02 0.14398798E+03</pdfrwt>
<totfact> 0.75940631E+03</totfact>
</mgrwt>
</event>
<event>
 8    3  0.7944584E-004  0.1272327E+03  0.7818608E-02  0.1246701E+00
          2   -1    0    0  501    0  0.00000000000E+00  0.00000000000E+00  0.37730255190E+03  0.37730255191E+03  0.25500000000E-02 0. -1.
         -2   -1    0    0    0  501 -0.00000000000E+00 -0.00000000000E+00 -0.32786013455E+02  0.32786013554E+02  0.25500000000E-02 0.  1.
         25    2    1    2    0    0  0.13023252016E+02  0.19873043050E+02  0.22224394005E+03  0.25608694055E+03  0.12499443705E+03 0.  0.
         23    2    1    2    0    0 -0.13023252016E+02 -0.19873043050E+02  0.12227259839E+03  0.15400162492E+03  0.90561411356E+02 0.  0.
        -13    1    4    4    0    0  0.64765438228E+00 -0.41168087828E+02  0.15057065927E+02  0.43840133553E+02  0.10566000000E+00 0.  1.
         13    1    4    4    0    0 -0.13670906399E+02  0.21295044778E+02  0.10721553247E+03  0.11016149137E+03  0.10566000000E+00 0. -1.
    9000005    1    3    3    0    0  0.59228784613E+02 -0.92450307504E+01  0.17093406106E+03  0.18114351424E+03  0.10000000000E+01 0.  0.
    9000005    1    3    3    0    0 -0.46205532597E+02  0.29118073800E+02  0.51309878997E+02  0.74943426310E+02  0.10000000000E+01 0.  0.
<mgrwt>
<rscale>  0 0.11784160E+03</rscale>
<asrwt>0</asrwt>
<pdfrwt beam="1">  1        2 0.58046547E-01 0.12723267E+03</pdfrwt>
<pdfrwt beam="2">  1       -2 0.50440020E-02 0.12723267E+03</pdfrwt>
<totfact> 0.15395760E+04</totfact>
</mgrwt>
</event>
<event>
 8    3  0.7944584E-004  0.2058306E+03  0.7818608E-02  0.1148837E+00
         -2   -1    0    0    0  501 -0.00000000000E+00  0.00000000000E+00  0.28354224863E+02  0.28354224977E+02  0.25500000000E-02 0.  1.
          2   -1    0    0  501    0  0.00000000000E+00 -0.00000000000E+00 -0.16620244964E+04  0.16620244964E+04  0.25500000000E-02 0. -1.
         25    2    1    2    0    0  0.60269337053E+02 -0.15201437261E+03 -0.49040941046E+03  0.53185299749E+03  0.12500183440E+03 0.  0.
         23    2    1    2    0    0 -0.60269337053E+02  0.15201437261E+03 -0.11432608611E+04  0.11585257239E+04  0.91628019561E+02 0.  0.
        -13    1    4    4    0    0 -0.53771116136E+02  0.77432806142E+02 -0.87340101756E+03  0.87847397289E+03  0.10566000000E+00 0.  1.
         13    1    4    4    0    0 -0.64982209170E+01  0.74581566470E+02 -0.26985984351E+03  0.28005175099E+03  0.10566000000E+00 0. -1.
    9000005    1    3    3    0    0  0.75945228162E+02 -0.16606829305E+03 -0.45934755468E+03  0.49431521484E+03  0.10000000000E+01 0.  0.
    9000005    1    3    3    0    0 -0.15675891109E+02  0.14053920432E+02 -0.31061855779E+02  0.37537782646E+02  0.10000000000E+01 0.  0.
<mgrwt>
<rscale>  0 0.20107225E+03</rscale>
<asrwt>0</asrwt>
<pdfrwt beam="2">  1        2 0.25569600E+00 0.20583056E+03</pdfrwt>
<pdfrwt beam="1">  1       -2 0.43621897E-02 0.20583056E+03</pdfrwt>
<totfact> 0.26973116E+03</totfact>
</mgrwt>
</event>
<event>
 8    3  0.7944584E-004  0.1307749E+03  0.7818608E-02  0.1240200E+00
         -2   -1    0    0    0  501 -0.00000000000E+00  0.00000000000E+00  0.10170394531E+02  0.10170394850E+02  0.25500000000E-02 0.  1.
          2   -1    0    0  501    0  0.00000000000E+00 -0.00000000000E+00 -0.15820045526E+04  0.15820045526E+04  0.25500000000E-02 0. -1.
         25    2    1    2    0    0  0.37943465906E+02 -0.61065275778E+01 -0.12158589640E+04  0.12228716549E+04  0.12500027118E+03 0.  0.
         23    2    1    2    0    0 -0.37943465906E+02  0.61065275778E+01 -0.35597519414E+03  0.36930329260E+03  0.90496335820E+02 0.  0.
        -13    1    4    4    0    0 -0.19917540635E+01  0.71882971603E+01 -0.31373676954E+03  0.31382544579E+03  0.10566000000E+00 0. -1.
         13    1    4    4    0    0 -0.35951711843E+02 -0.10817695825E+01 -0.42238424607E+02  0.55477846815E+02  0.10566000000E+00 0.  1.
    9000005    1    3    3    0    0  0.42310144098E+02 -0.37208300287E+02 -0.24077969179E+03  0.24728620237E+03  0.10000000000E+01 0.  0.
    9000005    1    3    3    0    0 -0.43666781921E+01  0.31101772709E+02 -0.97507927218E+03  0.97558545252E+03  0.10000000000E+01 0.  0.
<mgrwt>
<rscale>  0 0.12177337E+03</rscale>
<asrwt>0</asrwt>
<pdfrwt beam="2">  1        2 0.24338512E+00 0.13077486E+03</pdfrwt>
<pdfrwt beam="1">  1       -2 0.15646774E-02 0.13077486E+03</pdfrwt>
<totfact> 0.13273874E+04</totfact>
</mgrwt>
</event>
<event>
 8    3  0.7944584E-004  0.2793131E+03  0.7818608E-02  0.1097897E+00
         -2   -1    0    0    0  501 -0.00000000000E+00  0.00000000000E+00  0.93530118024E+02  0.93530118059E+02  0.25500000000E-02 0.  1.
          2   -1    0    0  501    0  0.00000000000E+00 -0.00000000000E+00 -0.85869090703E+03  0.85869090703E+03  0.25500000000E-02 0. -1.
         25    2    1    2    0    0  0.14255359973E+03 -0.20510795349E+03 -0.26206591682E+03  0.38300702111E+03  0.12500012832E+03 0.  0.
         23    2    1    2    0    0 -0.14255359973E+03  0.20510795349E+03 -0.50309487219E+03  0.56921400399E+03  0.92246032583E+02 0.  0.
        -13    1    4    4    0    0 -0.78965824422E+02  0.16285858470E+03 -0.27987254501E+03  0.33329742371E+03  0.10566000000E+00 0. -1.
         13    1    4    4    0    0 -0.63587775311E+02  0.42249368784E+02 -0.22322232719E+03  0.23591658028E+03  0.10566000000E+00 0.  1.
    9000005    1    3    3    0    0  0.19878669820E+02 -0.59567992282E+02 -0.14879506094E+03  0.16150689576E+03  0.10000000000E+01 0.  0.
    9000005    1    3    3    0    0  0.12267492991E+03 -0.14553996121E+03 -0.11327085587E+03  0.22150012534E+03  0.10000000000E+01 0.  0.
<mgrwt>
<rscale>  0 0.27599385E+03</rscale>
<asrwt>0</asrwt>
<pdfrwt beam="2">  1        2 0.13210629E+00 0.27931315E+03</pdfrwt>
<pdfrwt beam="1">  1       -2 0.14389249E-01 0.27931315E+03</pdfrwt>
<totfact> 0.11878818E+03</totfact>
</mgrwt>
</event>
<event>
 8    3  0.7944584E-004  0.1260617E+03  0.7818608E-02  0.1253210E+00
          2   -1    0    0  501    0  0.00000000000E+00  0.00000000000E+00  0.53361504354E+03  0.53361504354E+03  0.25500000000E-02 0. -1.
         -2   -1    0    0    0  501 -0.00000000000E+00 -0.00000000000E+00 -0.20819637018E+02  0.20819637174E+02  0.25500000000E-02 0.  1.
         25    2    1    2    0    0 -0.17082638848E+01 -0.16287397998E+02  0.29441525941E+03  0.32026848642E+03  0.12499344352E+03 0.  0.
         23    2    1    2    0    0  0.17082638848E+01  0.16287397998E+02  0.21838014711E+03  0.23416619430E+03  0.82919963816E+02 0.  0.
        -13    1    4    4    0    0 -0.24222011678E+02  0.29962414126E+02  0.18815664317E+03  0.19206089046E+03  0.10566000000E+00 0. -1.
         13    1    4    4    0    0  0.25930275563E+02 -0.13675016128E+02  0.30223503946E+02  0.42105303843E+02  0.10566000000E+00 0.  1.
    9000005    1    3    3    0    0 -0.34860228855E+02 -0.48775365059E+02  0.24595073541E+03  0.25315417445E+03  0.10000000000E+01 0.  0.
    9000005    1    3    3    0    0  0.33151964971E+02  0.32487967060E+02  0.48464523995E+02  0.67114311970E+02  0.10000000000E+01 0.  0.
<mgrwt>
<rscale>  0 0.11407211E+03</rscale>
<asrwt>0</asrwt>
<pdfrwt beam="1">  1        2 0.82094622E-01 0.12606172E+03</pdfrwt>
<pdfrwt beam="2">  1       -2 0.32030211E-02 0.12606172E+03</pdfrwt>
<totfact> 0.20752787E+04</totfact>
</mgrwt>
</event>
<event>
 8    3  0.7944584E-004  0.1357860E+03  0.7818608E-02  0.1231012E+00
          2   -1    0    0  501    0  0.00000000000E+00  0.00000000000E+00  0.33861013227E+03  0.33861013228E+03  0.25500000000E-02 0.  1.
         -2   -1    0    0    0  501 -0.00000000000E+00 -0.00000000000E+00 -0.44670550325E+02  0.44670550398E+02  0.25500000000E-02 0. -1.
         25    2    1    2    0    0  0.35519896486E+02  0.39392596590E+02  0.12948048973E+03  0.18762472683E+03  0.12499760471E+03 0.  0.
         23    2    1    2    0    0 -0.35519896486E+02 -0.39392596590E+02  0.16445909222E+03  0.19565595585E+03  0.91766117579E+02 0.  0.
        -13    1    4    4    0    0 -0.46581527167E+02  0.63011315695E+01  0.12739099362E+03  0.13578666853E+03  0.10566000000E+00 0.  1.
         13    1    4    4    0    0  0.11061630680E+02 -0.45693728160E+02  0.37068098599E+02  0.59869287320E+02  0.10566000000E+00 0. -1.
    9000005    1    3    3    0    0  0.73517586277E+02  0.53299768346E+02  0.11018791956E+03  0.14278682858E+03  0.10000000000E+01 0.  0.
    9000005    1    3    3    0    0 -0.37997689791E+02 -0.13907171755E+02  0.19292570169E+02  0.44837898250E+02  0.10000000000E+01 0.  0.
<mgrwt>
<rscale>  0 0.12763221E+03</rscale>
<asrwt>0</asrwt>
<pdfrwt beam="1">  1        2 0.52093866E-01 0.13578601E+03</pdfrwt>
<pdfrwt beam="2">  1       -2 0.68723924E-02 0.13578601E+03</pdfrwt>
<totfact> 0.10870658E+04</totfact>
</mgrwt>
</event>
<event>
 8    3  0.7944584E-004  0.1530458E+03  0.7818608E-02  0.1205464E+00
          2   -1    0    0  501    0  0.00000000000E+00  0.00000000000E+00  0.18185292799E+04  0.18185292799E+04  0.25500000000E-02 0. -1.
         -2   -1    0    0    0  501 -0.00000000000E+00 -0.00000000000E+00 -0.10768676352E+02  0.10768676654E+02  0.25500000000E-02 0.  1.
         25    2    1    2    0    0 -0.69986716971E+02 -0.53849579790E+02  0.10059953648E+04  0.10175704787E+04  0.12500034959E+03 0.  0.
         23    2    1    2    0    0  0.69986716971E+02  0.53849579790E+02  0.80176523871E+03  0.81172747778E+03  0.90972976136E+02 0.  0.
        -13    1    4    4    0    0  0.36182455883E+02 -0.19250054830E+02  0.39093716653E+03  0.39307965358E+03  0.10566000000E+00 0.  1.
         13    1    4    4    0    0  0.33804261088E+02  0.73099634619E+02  0.41082807218E+03  0.41864782420E+03  0.10566000000E+00 0. -1.
    9000005    1    3    3    0    0  0.21039262188E+02 -0.21778076457E+02  0.65869189691E+02  0.72503002132E+02  0.10000000000E+01 0.  0.
    9000005    1    3    3    0    0 -0.91025979159E+02 -0.32071503332E+02  0.94012617511E+03  0.94506747661E+03  0.10000000000E+01 0.  0.
<mgrwt>
<rscale>  0 0.14600962E+03</rscale>
<asrwt>0</asrwt>
<pdfrwt beam="1">  1        2 0.27977399E+00 0.15304576E+03</pdfrwt>
<pdfrwt beam="2">  1       -2 0.16567180E-02 0.15304576E+03</pdfrwt>
<totfact> 0.92969822E+03</totfact>
</mgrwt>
</event>
<event>
 8    3  0.7944584E-004  0.1425948E+03  0.7818608E-02  0.1220063E+00
         -2   -1    0    0    0  501 -0.00000000000E+00  0.00000000000E+00  0.57116460143E+02  0.57116460200E+02  0.25500000000E-02 0.  1.
          2   -1    0    0  501    0  0.00000000000E+00 -0.00000000000E+00 -0.29029188460E+03  0.29029188461E+03  0.25500000000E-02 0. -1.
         25    2    1    2    0    0  0.65379397795E+02 -0.20925122013E+02 -0.12929027690E+03  0.19248183651E+03  0.12498382014E+03 0.  0.
         23    2    1    2    0    0 -0.65379397795E+02  0.20925122013E+02 -0.10388514756E+03  0.15492650831E+03  0.92183364578E+02 0.  0.
        -13    1    4    4    0    0  0.16726219027E+02  0.89794539719E+01  0.34155152587E+01  0.19289217327E+02  0.10566000000E+00 0.  1.
         13    1    4    4    0    0 -0.82105616822E+02  0.11945668041E+02 -0.10730066282E+03  0.13563729098E+03  0.10566000000E+00 0. -1.
    9000005    1    3    3    0    0  0.24727591586E+02 -0.38243180446E+02 -0.13981447706E+03  0.14704789231E+03  0.10000000000E+01 0.  0.
    9000005    1    3    3    0    0  0.40651806209E+02  0.17318058432E+02  0.10524200168E+02  0.45433944195E+02  0.10000000000E+01 0.  0.
<mgrwt>
<rscale>  0 0.13511111E+03</rscale>
<asrwt>0</asrwt>
<pdfrwt beam="2">  1        2 0.44660289E-01 0.14259482E+03</pdfrwt>
<pdfrwt beam="1">  1       -2 0.87871479E-02 0.14259482E+03</pdfrwt>
<totfact> 0.87919428E+03</totfact>
</mgrwt>
</event>
<event>
 8    3  0.7944584E-004  0.1264140E+03  0.7818608E-02  0.1250222E+00
          2   -1    0    0  501    0  0.00000000000E+00  0.00000000000E+00  0.59812397233E+03  0.59812397233E+03  0.25500000000E-02 0. -1.
         -2   -1    0    0    0  501 -0.00000000000E+00 -0.00000000000E+00 -0.20128465644E+02  0.20128465805E+02  0.25500000000E-02 0.  1.
         25    2    1    2    0    0  0.13360811097E+02 -0.13314129383E+02  0.27897692812E+03  0.30628193809E+03  0.12499888747E+03 0.  0.
         23    2    1    2    0    0 -0.13360811097E+02  0.13314129383E+02  0.29901857857E+03  0.31197050004E+03  0.86935063430E+02 0.  0.
        -13    1    4    4    0    0  0.16009149912E+02  0.25355970041E+02  0.35166811562E+02  0.46216164890E+02  0.10566000000E+00 0.  1.
         13    1    4    4    0    0 -0.29369961010E+02 -0.12041840659E+02  0.26385176701E+03  0.26575433515E+03  0.10566000000E+00 0. -1.
    9000005    1    3    3    0    0  0.50350632529E+02  0.36914581205E+02  0.11536648862E+03  0.13118040707E+03  0.10000000000E+01 0.  0.
    9000005    1    3    3    0    0 -0.36989821431E+02 -0.50228710588E+02  0.16361043949E+03  0.17510153103E+03  0.10000000000E+01 0.  0.
<mgrwt>
<rscale>  0 0.11578234E+03</rscale>
<asrwt>0</asrwt>
<pdfrwt beam="1">  1        2 0.92019064E-01 0.12641400E+03</pdfrwt>
<pdfrwt beam="2">  1       -2 0.30966873E-02 0.12641400E+03</pdfrwt>
<totfact> 0.19197310E+04</totfact>
</mgrwt>
</event>
<event>
 8    3  0.7944584E-004  0.1283031E+03  0.7818608E-02  0.1240496E+00
         -2   -1    0    0    0  501 -0.00000000000E+00  0.00000000000E+00  0.89873582360E+01  0.89873585978E+01  0.25500000000E-02 0. -1.
          2   -1    0    0  501    0  0.00000000000E+00 -0.00000000000E+00 -0.24765143809E+04  0.24765143809E+04  0.25500000000E-02 0.  1.
         25    2    1    2    0    0 -0.93509769305E+01  0.27310205478E+02 -0.53362261176E+03  0.54883037259E+03  0.12501359127E+03 0.  0.
         23    2    1    2    0    0  0.93509769305E+01 -0.27310205478E+02 -0.19339044109E+04  0.19366713669E+04  0.99380203259E+02 0.  0.
        -13    1    4    4    0    0  0.39139244636E+02 -0.42283208747E+02 -0.16153082615E+04  0.16163355286E+04  0.10566000000E+00 0. -1.
         13    1    4    4    0    0 -0.29788267705E+02  0.14973003269E+02 -0.31859614935E+03  0.32033583825E+03  0.10566000000E+00 0.  1.
    9000005    1    3    3    0    0 -0.61688283535E+02  0.35893382264E+02 -0.37006400424E+03  0.37688479201E+03  0.10000000000E+01 0.  0.
    9000005    1    3    3    0    0  0.52337306604E+02 -0.85831767858E+01 -0.16355860752E+03  0.17194558058E+03  0.10000000000E+01 0.  0.
<mgrwt>
<rscale>  0 0.12159063E+03</rscale>
<asrwt>0</asrwt>
<pdfrwt beam="2">  1        2 0.38100167E+00 0.12830310E+03</pdfrwt>
<pdfrwt beam="1">  1       -2 0.13826725E-02 0.12830310E+03</pdfrwt>
<totfact> 0.54842829E+03</totfact>
</mgrwt>
</event>
<event>
 8    3  0.7944584E-004  0.1334108E+03  0.7818608E-02  0.1234704E+00
          2   -1    0    0  501    0  0.00000000000E+00  0.00000000000E+00  0.10813385470E+04  0.10813385470E+04  0.25500000000E-02 0. -1.
         -2   -1    0    0    0  501 -0.00000000000E+00 -0.00000000000E+00 -0.12993484366E+02  0.12993484617E+02  0.25500000000E-02 0.  1.
         25    2    1    2    0    0  0.24347461024E+02 -0.39747887186E+02  0.58835236960E+03  0.60328844231E+03  0.12500296165E+03 0.  0.
         23    2    1    2    0    0 -0.24347461024E+02  0.39747887186E+02  0.47999269304E+03  0.49104358931E+03  0.92510149926E+02 0.  0.
        -13    1    4    4    0    0  0.31416223074E+02  0.43080415185E+01  0.24130728084E+03  0.24338190821E+03  0.10566000000E+00 0.  1.
         13    1    4    4    0    0 -0.55763684098E+02  0.35439845667E+02  0.23868541220E+03  0.24766168110E+03  0.10566000000E+00 0. -1.
    9000005    1    3    3    0    0 -0.20807051440E+02  0.37216938350E+02  0.23519405803E+03  0.23902987015E+03  0.10000000000E+01 0.  0.
    9000005    1    3    3    0    0  0.45154512464E+02 -0.76964825536E+02  0.35315831157E+03  0.36425857217E+03  0.10000000000E+01 0.  0.
<mgrwt>
<rscale>  0 0.12523401E+03</rscale>
<asrwt>0</asrwt>
<pdfrwt beam="1">  1        2 0.16635976E+00 0.13341077E+03</pdfrwt>
<pdfrwt beam="2">  1       -2 0.19989978E-02 0.13341077E+03</pdfrwt>
<totfact> 0.17344697E+04</totfact>
</mgrwt>
</event>
<event>
 8    3  0.7944584E-004  0.1278657E+03  0.7818608E-02  0.1246104E+00
          2   -1    0    0  501    0  0.00000000000E+00  0.00000000000E+00  0.15153661903E+03  0.15153661905E+03  0.25500000000E-02 0. -1.
         -2   -1    0    0    0  501 -0.00000000000E+00 -0.00000000000E+00 -0.20071673350E+03  0.20071673351E+03  0.25500000000E-02 0.  1.
         25    2    1    2    0    0 -0.11945566795E+02  0.24230752323E+02  0.10937043193E+03  0.16826030836E+03  0.12497925453E+03 0.  0.
         23    2    1    2    0    0  0.11945566795E+02 -0.24230752323E+02 -0.15855054641E+03  0.18399304420E+03  0.89360721937E+02 0.  0.
        -13    1    4    4    0    0  0.15182269833E+02  0.18160852295E+01  0.66831944083E+01  0.16687592228E+02  0.10566000000E+00 0. -1.
         13    1    4    4    0    0 -0.32367030380E+01 -0.26046837552E+02 -0.16523374081E+03  0.16730545197E+03  0.10566000000E+00 0.  1.
    9000005    1    3    3    0    0  0.33275208685E+02  0.62920048945E+01 -0.13218750345E+02  0.36367075759E+02  0.10000000000E+01 0.  0.
    9000005    1    3    3    0    0 -0.45220775479E+02  0.17938747428E+02  0.12258918228E+03  0.13189323260E+03  0.10000000000E+01 0.  0.
<mgrwt>
<rscale>  0 0.11819525E+03</rscale>
<asrwt>0</asrwt>
<pdfrwt beam="1">  1        2 0.23313326E-01 0.12786571E+03</pdfrwt>
<pdfrwt beam="2">  1       -2 0.30879498E-01 0.12786571E+03</pdfrwt>
<totfact> 0.21853463E+03</totfact>
</mgrwt>
</event>
<event>
 8    3  0.7944584E-004  0.1258030E+03  0.7818608E-02  0.1246234E+00
         -2   -1    0    0    0  501 -0.00000000000E+00  0.00000000000E+00  0.27564100174E+03  0.27564100175E+03  0.25500000000E-02 0.  1.
          2   -1    0    0  501    0  0.00000000000E+00 -0.00000000000E+00 -0.45918160253E+02  0.45918160324E+02  0.25500000000E-02 0. -1.
         25    2    1    2    0    0 -0.34205947094E+01 -0.13769750284E+02  0.14707554570E+03  0.19353968170E+03  0.12500034304E+03 0.  0.
         23    2    1    2    0    0  0.34205947094E+01  0.13769750284E+02  0.82647295787E+02  0.12801948037E+03  0.96732132008E+02 0.  0.
        -13    1    4    4    0    0  0.44854149134E+02  0.26883867308E+02  0.32109023734E+02  0.61364791087E+02  0.10566000000E+00 0. -1.
         13    1    4    4    0    0 -0.41433554425E+02 -0.13114117024E+02  0.50538272053E+02  0.66654689285E+02  0.10566000000E+00 0.  1.
    9000005    1    3    3    0    0  0.34412568206E+02  0.33422750822E+02  0.11599784185E+03  0.12553009375E+03  0.10000000000E+01 0.  0.
    9000005    1    3    3    0    0 -0.37833162915E+02 -0.47192501106E+02  0.31077703845E+02  0.68009587950E+02  0.10000000000E+01 0.  0.
<mgrwt>
<rscale>  0 0.11811810E+03</rscale>
<asrwt>0</asrwt>
<pdfrwt beam="2">  1        2 0.70643325E-02 0.12580299E+03</pdfrwt>
<pdfrwt beam="1">  1       -2 0.42406307E-01 0.12580299E+03</pdfrwt>
<totfact> 0.50140546E+03</totfact>
</mgrwt>
</event>
<event>
 8    3  0.7944584E-004  0.1315281E+03  0.7818608E-02  0.1241829E+00
          2   -1    0    0  501    0  0.00000000000E+00  0.00000000000E+00  0.15042438619E+03  0.15042438621E+03  0.25500000000E-02 0. -1.
         -2   -1    0    0    0  501 -0.00000000000E+00 -0.00000000000E+00 -0.85150467428E+02  0.85150467466E+02  0.25500000000E-02 0.  1.
         25    2    1    2    0    0  0.13915893290E+01  0.40904635477E+02  0.25549043823E+02  0.13398652201E+03  0.12499803485E+03 0.  0.
         23    2    1    2    0    0 -0.13915893290E+01 -0.40904635477E+02  0.39724874942E+02  0.10158833167E+03  0.84065437121E+02 0.  0.
        -13    1    4    4    0    0 -0.36967415387E+02  0.24795426830E+01  0.11573130111E+02  0.38816059008E+02  0.10566000000E+00 0.  1.
         13    1    4    4    0    0  0.35575826058E+02 -0.43384178160E+02  0.28151744831E+02  0.62772272664E+02  0.10566000000E+00 0. -1.
    9000005    1    3    3    0    0  0.60562121694E+02  0.19552766923E+02  0.31079383776E+02  0.70830850442E+02  0.10000000000E+01 0.  0.
    9000005    1    3    3    0    0 -0.59170532365E+02  0.21351868554E+02 -0.55303399528E+01  0.63155671567E+02  0.10000000000E+01 0.  0.
<mgrwt>
<rscale>  0 0.12077192E+03</rscale>
<asrwt>0</asrwt>
<pdfrwt beam="1">  1        2 0.23142213E-01 0.13152807E+03</pdfrwt>
<pdfrwt beam="2">  1       -2 0.13100072E-01 0.13152807E+03</pdfrwt>
<totfact> 0.94552701E+03</totfact>
</mgrwt>
</event>
<event>
 8    3  0.7944584E-004  0.1365971E+03  0.7818608E-02  0.1231613E+00
          2   -1    0    0  501    0  0.00000000000E+00  0.00000000000E+00  0.13377825752E+03  0.13377825755E+03  0.25500000000E-02 0. -1.
         -2   -1    0    0    0  501 -0.00000000000E+00 -0.00000000000E+00 -0.11821310792E+03  0.11821310795E+03  0.25500000000E-02 0.  1.
         25    2    1    2    0    0  0.47902898754E+02  0.27192482816E+02  0.47002941217E+02  0.14445778614E+03  0.12499862664E+03 0.  0.
         23    2    1    2    0    0 -0.47902898754E+02 -0.27192482816E+02 -0.31437791613E+02  0.10753357936E+03  0.86839029917E+02 0.  0.
        -13    1    4    4    0    0 -0.50947755356E+02 -0.49960813106E+02 -0.36078396344E+01  0.71447773184E+02  0.10566000000E+00 0. -1.
         13    1    4    4    0    0  0.30448566016E+01  0.22768330291E+02 -0.27829951978E+02  0.36085806172E+02  0.10566000000E+00 0.  1.
    9000005    1    3    3    0    0  0.87740365061E+02  0.31772869606E+02  0.18210495561E+02  0.95081591555E+02  0.10000000000E+01 0.  0.
    9000005    1    3    3    0    0 -0.39837466307E+02 -0.45803867902E+01  0.28792445656E+02  0.49376194586E+02  0.10000000000E+01 0.  0.
<mgrwt>
<rscale>  0 0.12723803E+03</rscale>
<asrwt>0</asrwt>
<pdfrwt beam="1">  1        2 0.20581270E-01 0.13659713E+03</pdfrwt>
<pdfrwt beam="2">  1       -2 0.18186632E-01 0.13659713E+03</pdfrwt>
<totfact> 0.63142240E+03</totfact>
</mgrwt>
</event>
<event>
 8    3  0.7944584E-004  0.1792123E+03  0.7818608E-02  0.1174151E+00
         -2   -1    0    0    0  501 -0.00000000000E+00  0.00000000000E+00  0.12651949137E+02  0.12651949394E+02  0.25500000000E-02 0.  1.
          2   -1    0    0  501    0  0.00000000000E+00 -0.00000000000E+00 -0.23017133170E+04  0.23017133170E+04  0.25500000000E-02 0. -1.
         25    2    1    2    0    0 -0.72856721734E+02  0.10575688374E+03 -0.10324882483E+04  0.10479260624E+04  0.12499771636E+03 0.  0.
         23    2    1    2    0    0  0.72856721734E+02 -0.10575688374E+03 -0.12565731196E+04  0.12664392040E+04  0.91649507122E+02 0.  0.
        -13    1    4    4    0    0  0.12636241134E+02 -0.94151345677E+02 -0.84476172267E+03  0.85008618960E+03  0.10566000000E+00 0. -1.
         13    1    4    4    0    0  0.60220480600E+02 -0.11605538060E+02 -0.41181139695E+03  0.41635301442E+03  0.10566000000E+00 0.  1.
    9000005    1    3    3    0    0 -0.42501187734E+02  0.73539877790E+01 -0.89771416257E+02  0.99600899955E+02  0.10000000000E+01 0.  0.
    9000005    1    3    3    0    0 -0.30355534000E+02  0.98402895958E+02 -0.94271683200E+03  0.94832516243E+03  0.10000000000E+01 0.  0.
<mgrwt>
<rscale>  0 0.17359367E+03</rscale>
<asrwt>0</asrwt>
<pdfrwt beam="2">  1        2 0.35410941E+00 0.17921230E+03</pdfrwt>
<pdfrwt beam="1">  1       -2 0.19464556E-02 0.17921230E+03</pdfrwt>
<totfact> 0.41391962E+03</totfact>
</mgrwt>
</event>
<event>
 8    3  0.7944584E-004  0.1392833E+03  0.7818608E-02  0.1225538E+00
         -2   -1    0    0    0  501 -0.00000000000E+00  0.00000000000E+00  0.41241150546E+02  0.41241150625E+02  0.25500000000E-02 0.  1.
          2   -1    0    0  501    0  0.00000000000E+00 -0.00000000000E+00 -0.39239989173E+03  0.39239989173E+03  0.25500000000E-02 0. -1.
         25    2    1    2    0    0 -0.56136071238E+02  0.24971688673E+02 -0.23847864131E+03  0.27617366644E+03  0.12499995178E+03 0.  0.
         23    2    1    2    0    0  0.56136071238E+02 -0.24971688673E+02 -0.11268009987E+03  0.15746737591E+03  0.91237743517E+02 0.  0.
        -13    1    4    4    0    0  0.23432214097E+01 -0.46742824695E+02 -0.27144010230E+02  0.54103519317E+02  0.10566000000E+00 0.  1.
         13    1    4    4    0    0  0.53792849828E+02  0.21771136022E+02 -0.85536089636E+02  0.10336385660E+03  0.10566000000E+00 0. -1.
    9000005    1    3    3    0    0  0.39424166573E+02  0.17482197881E+02 -0.82395512264E+02  0.93004906290E+02  0.10000000000E+01 0.  0.
    9000005    1    3    3    0    0 -0.95560237811E+02  0.74894907927E+01 -0.15608312905E+03  0.18316876015E+03  0.10000000000E+01 0.  0.
<mgrwt>
<rscale>  0 0.13130120E+03</rscale>
<asrwt>0</asrwt>
<pdfrwt beam="2">  1        2 0.60369212E-01 0.13928328E+03</pdfrwt>
<pdfrwt beam="1">  1       -2 0.63447927E-02 0.13928328E+03</pdfrwt>
<totfact> 0.10515495E+04</totfact>
</mgrwt>
</event>
<event>
 8    3  0.7944584E-004  0.2789611E+03  0.7818608E-02  0.1098056E+00
         -2   -1    0    0    0  501 -0.00000000000E+00  0.00000000000E+00  0.14011005082E+03  0.14011005084E+03  0.25500000000E-02 0.  1.
          2   -1    0    0  501    0  0.00000000000E+00 -0.00000000000E+00 -0.56050882772E+03  0.56050882772E+03  0.25500000000E-02 0. -1.
         25    2    1    2    0    0  0.15289641033E+03  0.19701742619E+03 -0.29622207041E+03  0.40689903160E+03  0.12500451352E+03 0.  0.
         23    2    1    2    0    0 -0.15289641033E+03 -0.19701742619E+03 -0.12417670649E+03  0.29371984697E+03  0.93050070150E+02 0.  0.
        -13    1    4    4    0    0 -0.96377670464E+02 -0.14991677469E+03 -0.41392118637E+02  0.18296724665E+03  0.10566000000E+00 0.  1.
         13    1    4    4    0    0 -0.56518739866E+02 -0.47100651503E+02 -0.82784587852E+02  0.11075260032E+03  0.10566000000E+00 0. -1.
    9000005    1    3    3    0    0 -0.16210463262E+02  0.39455056682E+02 -0.21185979613E+02  0.47637446921E+02  0.10000000000E+01 0.  0.
    9000005    1    3    3    0    0  0.16910687359E+03  0.15756236951E+03 -0.27503609080E+03  0.35926158467E+03  0.10000000000E+01 0.  0.
<mgrwt>
<rscale>  0 0.27570928E+03</rscale>
<asrwt>0</asrwt>
<pdfrwt beam="2">  1        2 0.86232126E-01 0.27896112E+03</pdfrwt>
<pdfrwt beam="1">  1       -2 0.21555393E-01 0.27896112E+03</pdfrwt>
<totfact> 0.10101792E+03</totfact>
</mgrwt>
</event>
<event>
 8    3  0.7944584E-004  0.1278932E+03  0.7818608E-02  0.1243667E+00
         -2   -1    0    0    0  501 -0.00000000000E+00  0.00000000000E+00  0.95657969795E+01  0.95657973194E+01  0.25500000000E-02 0.  1.
          2   -1    0    0  501    0  0.00000000000E+00 -0.00000000000E+00 -0.13443901239E+04  0.13443901239E+04  0.25500000000E-02 0. -1.
         25    2    1    2    0    0  0.16662555089E+01 -0.27073655550E+02 -0.81548447015E+03  0.82545234878E+03  0.12498359818E+03 0.  0.
         23    2    1    2    0    0 -0.16662555089E+01  0.27073655550E+02 -0.51933985680E+03  0.52850357248E+03  0.94161457215E+02 0.  0.
        -13    1    4    4    0    0 -0.19194156508E+02  0.30120267888E+02 -0.67965079857E+02  0.76778313512E+02  0.10566000000E+00 0.  1.
         13    1    4    4    0    0  0.17527900999E+02 -0.30466123386E+01 -0.45137477695E+03  0.45172525897E+03  0.10566000000E+00 0. -1.
    9000005    1    3    3    0    0  0.30172808215E+01 -0.76886020141E+02 -0.44062710008E+03  0.44729610484E+03  0.10000000000E+01 0.  0.
    9000005    1    3    3    0    0 -0.13510253125E+01  0.49812364592E+02 -0.37485737007E+03  0.37815624395E+03  0.10000000000E+01 0.  0.
<mgrwt>
<rscale>  0 0.11965517E+03</rscale>
<asrwt>0</asrwt>
<pdfrwt beam="2">  1        2 0.20682910E+00 0.12789315E+03</pdfrwt>
<pdfrwt beam="1">  1       -2 0.14716622E-02 0.12789315E+03</pdfrwt>
<totfact> 0.19275744E+04</totfact>
</mgrwt>
</event>
<event>
 8    3  0.7944584E-004  0.1506747E+03  0.7818608E-02  0.1208484E+00
         -2   -1    0    0    0  501 -0.00000000000E+00  0.00000000000E+00  0.55586036342E+01  0.55586042191E+01  0.25500000000E-02 0.  1.
          2   -1    0    0  501    0  0.00000000000E+00 -0.00000000000E+00 -0.34498869045E+04  0.34498869045E+04  0.25500000000E-02 0. -1.
         25    2    1    2    0    0 -0.84056591043E+02  0.35394933931E+01 -0.16900980310E+04  0.16968011764E+04  0.12499935736E+03 0.  0.
         23    2    1    2    0    0  0.84056591043E+02 -0.35394933931E+01 -0.17542302699E+04  0.17586443323E+04  0.91804190362E+02 0.  0.
        -13    1    4    4    0    0  0.19025850459E+02 -0.43476452344E+02 -0.58126901450E+03  0.58320310637E+03  0.10566000000E+00 0. -1.
         13    1    4    4    0    0  0.65030740584E+02  0.39936958951E+02 -0.11729612554E+04  0.11754412259E+04  0.10566000000E+00 0.  1.
    9000005    1    3    3    0    0 -0.10671963273E+03  0.21082381177E+02 -0.96071480944E+03  0.96685443159E+03  0.10000000000E+01 0.  0.
    9000005    1    3    3    0    0  0.22663041688E+02 -0.17542887784E+02 -0.72938322155E+03  0.72994674480E+03  0.10000000000E+01 0.  0.
<mgrwt>
<rscale>  0 0.14366236E+03</rscale>
<asrwt>0</asrwt>
<pdfrwt beam="2">  1        2 0.53075012E+00 0.15067474E+03</pdfrwt>
<pdfrwt beam="1">  1       -2 0.85517259E-03 0.15067474E+03</pdfrwt>
<totfact> 0.29813205E+03</totfact>
</mgrwt>
</event>
<event>
 8    3  0.7944584E-004  0.1632053E+03  0.7818608E-02  0.1191764E+00
         -2   -1    0    0    0  501 -0.00000000000E+00  0.00000000000E+00  0.77005141132E+02  0.77005141174E+02  0.25500000000E-02 0.  1.
          2   -1    0    0  501    0  0.00000000000E+00 -0.00000000000E+00 -0.32298961435E+03  0.32298961436E+03  0.25500000000E-02 0. -1.
         25    2    1    2    0    0  0.39032415375E+02  0.97400897433E+02 -0.78396730960E+02  0.18105805632E+03  0.12500203224E+03 0.  0.
         23    2    1    2    0    0 -0.39032415375E+02 -0.97400897433E+02 -0.16758774226E+03  0.21893669922E+03  0.94006184033E+02 0.  0.
        -13    1    4    4    0    0 -0.52566620753E+02 -0.38168483450E+02 -0.36647558092E+02  0.74586442631E+02  0.10566000000E+00 0.  1.
         13    1    4    4    0    0  0.13534205379E+02 -0.59232413984E+02 -0.13094018417E+03  0.14435025658E+03  0.10566000000E+00 0. -1.
    9000005    1    3    3    0    0 -0.41064157330E+02  0.57216538168E+02 -0.52268254076E+02  0.87709564138E+02  0.10000000000E+01 0.  0.
    9000005    1    3    3    0    0  0.80096572705E+02  0.40184359265E+02 -0.26128476884E+02  0.93348492183E+02  0.10000000000E+01 0.  0.
<mgrwt>
<rscale>  0 0.15731288E+03</rscale>
<asrwt>0</asrwt>
<pdfrwt beam="2">  1        2 0.49690709E-01 0.16320531E+03</pdfrwt>
<pdfrwt beam="1">  1       -2 0.11846945E-01 0.16320531E+03</pdfrwt>
<totfact> 0.49380416E+03</totfact>
</mgrwt>
</event>
<event>
 8    3  0.7944584E-004  0.1356316E+03  0.7818608E-02  0.1232616E+00
          2   -1    0    0  501    0  0.00000000000E+00  0.00000000000E+00  0.18896046221E+04  0.18896046221E+04  0.25500000000E-02 0. -1.
         -2   -1    0    0    0  501 -0.00000000000E+00 -0.00000000000E+00 -0.10016985920E+02  0.10016986244E+02  0.25500000000E-02 0.  1.
         25    2    1    2    0    0 -0.28968856521E+02  0.44042172310E+02  0.15068324315E+04  0.15129242913E+04  0.12496810403E+03 0.  0.
         23    2    1    2    0    0  0.28968856521E+02 -0.44042172310E+02  0.37275520464E+03  0.38669731699E+03  0.88371176270E+02 0.  0.
        -13    1    4    4    0    0  0.16968345065E+02 -0.70750471874E+02  0.28710329273E+03  0.29617877349E+03  0.10566000000E+00 0. -1.
         13    1    4    4    0    0  0.12000511455E+02  0.26708299564E+02  0.85651911904E+02  0.90518543501E+02  0.10566000000E+00 0.  1.
    9000005    1    3    3    0    0 -0.78540574558E+02  0.28069174878E+02  0.95929956810E+03  0.96291908372E+03  0.10000000000E+01 0.  0.
    9000005    1    3    3    0    0  0.49571718037E+02  0.15972997432E+02  0.54753286343E+03  0.55000520762E+03  0.10000000000E+01 0.  0.
<mgrwt>
<rscale>  0 0.12658270E+03</rscale>
<asrwt>0</asrwt>
<pdfrwt beam="1">  1        2 0.29070869E+00 0.13563161E+03</pdfrwt>
<pdfrwt beam="2">  1       -2 0.15410733E-02 0.13563161E+03</pdfrwt>
<totfact> 0.94567731E+03</totfact>
</mgrwt>
</event>
<event>
 8    3  0.7944584E-004  0.1327002E+03  0.7818608E-02  0.1236423E+00
          2   -1    0    0  501    0  0.00000000000E+00  0.00000000000E+00  0.90537638564E+02  0.90537638600E+02  0.25500000000E-02 0. -1.
         -2   -1    0    0    0  501 -0.00000000000E+00 -0.00000000000E+00 -0.21984727980E+03  0.21984727982E+03  0.25500000000E-02 0.  1.
         25    2    1    2    0    0  0.37249897950E+02 -0.24425037404E+02  0.15362382827E+02  0.13358648163E+03  0.12500083167E+03 0.  0.
         23    2    1    2    0    0 -0.37249897950E+02  0.24425037404E+02 -0.14467202407E+03  0.17679843679E+03  0.91343064066E+02 0.  0.
        -13    1    4    4    0    0  0.69749214078E+01  0.34120765108E+02 -0.12360471297E+02  0.36954953050E+02  0.10566000000E+00 0. -1.
         13    1    4    4    0    0 -0.44224819358E+02 -0.96957277044E+01 -0.13231155277E+03  0.13984348374E+03  0.10566000000E+00 0.  1.
    9000005    1    3    3    0    0  0.59861435159E+02 -0.25785332437E+02 -0.38107203822E+02  0.75507839138E+02  0.10000000000E+01 0.  0.
    9000005    1    3    3    0    0 -0.22611537209E+02  0.13602950329E+01  0.53469586649E+02  0.58078642494E+02  0.10000000000E+01 0.  0.
<mgrwt>
<rscale>  0 0.12413782E+03</rscale>
<asrwt>0</asrwt>
<pdfrwt beam="1">  1        2 0.13928868E-01 0.13270021E+03</pdfrwt>
<pdfrwt beam="2">  1       -2 0.33822658E-01 0.13270021E+03</pdfrwt>
<totfact> 0.33446206E+03</totfact>
</mgrwt>
</event>
<event>
 8    3  0.7944584E-004  0.1349660E+03  0.7818608E-02  0.1231948E+00
          2   -1    0    0  501    0  0.00000000000E+00  0.00000000000E+00  0.43933463651E+03  0.43933463652E+03  0.25500000000E-02 0. -1.
         -2   -1    0    0    0  501 -0.00000000000E+00 -0.00000000000E+00 -0.62350033252E+02  0.62350033304E+02  0.25500000000E-02 0.  1.
         25    2    1    2    0    0 -0.11649130089E+02 -0.49556912152E+02  0.37196031371E+03  0.39568964682E+03  0.12499692735E+03 0.  0.
         23    2    1    2    0    0  0.11649130089E+02  0.49556912152E+02  0.50242895450E+01  0.10599502300E+03  0.92833785027E+02 0.  0.
        -13    1    4    4    0    0 -0.30451319687E+02  0.49358305468E+02  0.19942617535E+02  0.61328984563E+02  0.10566000000E+00 0. -1.
         13    1    4    4    0    0  0.42100449776E+02  0.19860668382E+00 -0.14918327990E+02  0.44666038441E+02  0.10566000000E+00 0.  1.
    9000005    1    3    3    0    0 -0.38998775380E+02 -0.15833253048E+02  0.33785372242E+03  0.34046693545E+03  0.10000000000E+01 0.  0.
    9000005    1    3    3    0    0  0.27349645291E+02 -0.33723659104E+02  0.34106591294E+02  0.55222711366E+02  0.10000000000E+01 0.  0.
<mgrwt>
<rscale>  0 0.12701866E+03</rscale>
<asrwt>0</asrwt>
<pdfrwt beam="1">  1        2 0.67589941E-01 0.13496600E+03</pdfrwt>
<pdfrwt beam="2">  1       -2 0.95923133E-02 0.13496600E+03</pdfrwt>
<totfact> 0.49139347E+03</totfact>
</mgrwt>
</event>
<event>
 8    3  0.7944584E-004  0.1768532E+03  0.7818608E-02  0.1176452E+00
         -2   -1    0    0    0  501 -0.00000000000E+00  0.00000000000E+00  0.21345217031E+02  0.21345217183E+02  0.25500000000E-02 0.  1.
          2   -1    0    0  501    0  0.00000000000E+00 -0.00000000000E+00 -0.16637360959E+04  0.16637360959E+04  0.25500000000E-02 0. -1.
         25    2    1    2    0    0  0.12218906622E+03 -0.26757949962E+02 -0.46629078559E+03  0.49870247911E+03  0.12502363838E+03 0.  0.
         23    2    1    2    0    0 -0.12218906622E+03  0.26757949962E+02 -0.11761000933E+04  0.11863788340E+04  0.92936281938E+02 0.  0.
        -13    1    4    4    0    0 -0.39909131359E+01 -0.19054464136E+01 -0.44130474310E+00  0.44456751574E+01  0.10566000000E+00 0.  1.
         13    1    4    4    0    0 -0.11819815309E+03  0.28663396375E+02 -0.11756587885E+04  0.11819331588E+04  0.10566000000E+00 0. -1.
    9000005    1    3    3    0    0 -0.30955251642E+01  0.35593920628E+02 -0.73594842983E+02  0.81815098701E+02  0.10000000000E+01 0.  0.
    9000005    1    3    3    0    0  0.12528459139E+03 -0.62351870590E+02 -0.39269594260E+03  0.41688738041E+03  0.10000000000E+01 0.  0.
<mgrwt>
<rscale>  0 0.17134571E+03</rscale>
<asrwt>0</asrwt>
<pdfrwt beam="2">  1        2 0.25595930E+00 0.17685323E+03</pdfrwt>
<pdfrwt beam="1">  1       -2 0.32838809E-02 0.17685323E+03</pdfrwt>
<totfact> 0.41119818E+03</totfact>
</mgrwt>
</event>
<event>
 8    3  0.7944584E-004  0.1592266E+03  0.7818608E-02  0.1196867E+00
          2   -1    0    0  501    0  0.00000000000E+00  0.00000000000E+00  0.42208621210E+03  0.42208621210E+03  0.25500000000E-02 0. -1.
         -2   -1    0    0    0  501 -0.00000000000E+00 -0.00000000000E+00 -0.62260775513E+02  0.62260775565E+02  0.25500000000E-02 0.  1.
         25    2    1    2    0    0 -0.23142731196E+02  0.95875003124E+02  0.29222544997E+03  0.33278945455E+03  0.12500202085E+03 0.  0.
         23    2    1    2    0    0  0.23142731196E+02 -0.95875003124E+02  0.67599986614E+02  0.15155753312E+03  0.93125321072E+02 0.  0.
        -13    1    4    4    0    0 -0.92836497153E+01  0.15692189776E+02  0.16655747065E+02  0.24695263642E+02  0.10566000000E+00 0. -1.
         13    1    4    4    0    0  0.32426380911E+02 -0.11156719290E+03  0.50944239549E+02  0.12686226948E+03  0.10566000000E+00 0.  1.
    9000005    1    3    3    0    0  0.19000213421E+02  0.10494868623E+03  0.14918839006E+03  0.18339413999E+03  0.10000000000E+01 0.  0.
    9000005    1    3    3    0    0 -0.42142944617E+02 -0.90736831068E+01  0.14303705990E+03  0.14939531456E+03  0.10000000000E+01 0.  0.
<mgrwt>
<rscale>  0 0.15297262E+03</rscale>
<asrwt>0</asrwt>
<pdfrwt beam="1">  1        2 0.64936340E-01 0.15922659E+03</pdfrwt>
<pdfrwt beam="2">  1       -2 0.95785809E-02 0.15922659E+03</pdfrwt>
<totfact> 0.51870909E+03</totfact>
</mgrwt>
</event>
<event>
 8    3  0.7944584E-004  0.1332655E+03  0.7818608E-02  0.1235748E+00
         -2   -1    0    0    0  501 -0.00000000000E+00  0.00000000000E+00  0.16126693750E+02  0.16126693951E+02  0.25500000000E-02 0.  1.
          2   -1    0    0  501    0  0.00000000000E+00 -0.00000000000E+00 -0.85636178048E+03  0.85636178049E+03  0.25500000000E-02 0. -1.
         25    2    1    2    0    0 -0.23930401203E+02  0.39522510780E+02 -0.46866934312E+03  0.48724802726E+03  0.12499997572E+03 0.  0.
         23    2    1    2    0    0  0.23930401203E+02 -0.39522510780E+02 -0.37156574362E+03  0.38524044718E+03  0.90633367773E+02 0.  0.
        -13    1    4    4    0    0  0.13068734740E+02 -0.63372928835E+02 -0.32861884848E+03  0.33492876657E+03  0.10566000000E+00 0. -1.
         13    1    4    4    0    0  0.10861666463E+02  0.23850418055E+02 -0.42946895139E+02  0.50311680611E+02  0.10566000000E+00 0.  1.
    9000005    1    3    3    0    0 -0.66223313921E+02  0.33393115321E+02 -0.39642665267E+03  0.40330598608E+03  0.10000000000E+01 0.  0.
    9000005    1    3    3    0    0  0.42292912717E+02  0.61293954590E+01 -0.72242690446E+02  0.83942041182E+02  0.10000000000E+01 0.  0.
<mgrwt>
<rscale>  0 0.12456644E+03</rscale>
<asrwt>0</asrwt>
<pdfrwt beam="2">  1        2 0.13174793E+00 0.13326548E+03</pdfrwt>
<pdfrwt beam="1">  1       -2 0.24810305E-02 0.13326548E+03</pdfrwt>
<totfact> 0.17353504E+04</totfact>
</mgrwt>
</event>
<event>
 8    3  0.7944584E-004  0.1268088E+03  0.7818608E-02  0.1246231E+00
          2   -1    0    0  501    0  0.00000000000E+00  0.00000000000E+00  0.14371414886E+04  0.14371414886E+04  0.25500000000E-02 0.  1.
         -2   -1    0    0    0  501 -0.00000000000E+00 -0.00000000000E+00 -0.86199182781E+01  0.86199186553E+01  0.25500000000E-02 0. -1.
         25    2    1    2    0    0  0.76935974858E+01 -0.19907119940E+02  0.77582930587E+03  0.78612441488E+03  0.12499999583E+03 0.  0.
         23    2    1    2    0    0 -0.76935974858E+01  0.19907119940E+02  0.65269226445E+03  0.65963699237E+03  0.93049904731E+02 0.  0.
        -13    1    4    4    0    0  0.38214546351E+01 -0.11395328580E+02  0.88371526651E+01  0.14918560931E+02  0.10566000000E+00 0. -1.
         13    1    4    4    0    0 -0.11515052121E+02  0.31302448521E+02  0.64385511178E+03  0.64471843144E+03  0.10566000000E+00 0.  1.
    9000005    1    3    3    0    0  0.56011072657E+02 -0.10671296244E+02  0.62221168443E+03  0.62481957160E+03  0.10000000000E+01 0.  0.
    9000005    1    3    3    0    0 -0.48317475171E+02 -0.92358236967E+01  0.15361762145E+03  0.16130484328E+03  0.10000000000E+01 0.  0.
<mgrwt>
<rscale>  0 0.11812027E+03</rscale>
<asrwt>0</asrwt>
<pdfrwt beam="1">  1        2 0.22109876E+00 0.12680885E+03</pdfrwt>
<pdfrwt beam="2">  1       -2 0.13261409E-02 0.12680885E+03</pdfrwt>
<totfact> 0.19989654E+04</totfact>
</mgrwt>
</event>
<event>
 8    3  0.7944584E-004  0.1278110E+03  0.7818608E-02  0.1244126E+00
         -2   -1    0    0    0  501 -0.00000000000E+00  0.00000000000E+00  0.10698990034E+02  0.10698990338E+02  0.25500000000E-02 0.  1.
          2   -1    0    0  501    0  0.00000000000E+00 -0.00000000000E+00 -0.15993268793E+04  0.15993268793E+04  0.25500000000E-02 0. -1.
         25    2    1    2    0    0 -0.25440032858E+02 -0.80522789708E+01 -0.12815948613E+04  0.12879522663E+04  0.12499446932E+03 0.  0.
         23    2    1    2    0    0  0.25440032858E+02  0.80522789708E+01 -0.30703302797E+03  0.32207360332E+03  0.93541922260E+02 0.  0.
        -13    1    4    4    0    0 -0.28862575397E+02 -0.20793531350E+02 -0.12294323524E+03  0.12798620809E+03  0.10566000000E+00 0.  1.
         13    1    4    4    0    0  0.54302608255E+02  0.28845810321E+02 -0.18408979273E+03  0.19408739523E+03  0.10566000000E+00 0. -1.
    9000005    1    3    3    0    0  0.94722873619E+00  0.55620221031E+02 -0.43247971815E+03  0.43604381987E+03  0.10000000000E+01 0.  0.
    9000005    1    3    3    0    0 -0.26387261594E+02 -0.63672500002E+02 -0.84911514311E+03  0.85190844643E+03  0.10000000000E+01 0.  0.
<mgrwt>
<rscale>  0 0.11937813E+03</rscale>
<asrwt>0</asrwt>
<pdfrwt beam="2">  1        2 0.24605010E+00 0.12781100E+03</pdfrwt>
<pdfrwt beam="1">  1       -2 0.16459998E-02 0.12781100E+03</pdfrwt>
<totfact> 0.12074540E+04</totfact>
</mgrwt>
</event>
<event>
 8    3  0.7944584E-004  0.1318286E+03  0.7818608E-02  0.1238449E+00
         -2   -1    0    0    0  501 -0.00000000000E+00  0.00000000000E+00  0.37053488003E+02  0.37053488091E+02  0.25500000000E-02 0.  1.
          2   -1    0    0  501    0  0.00000000000E+00 -0.00000000000E+00 -0.36470979736E+03  0.36470979737E+03  0.25500000000E-02 0. -1.
         25    2    1    2    0    0 -0.14406944472E+02  0.39352360595E+02 -0.20680094664E+03  0.24524560313E+03  0.12499042358E+03 0.  0.
         23    2    1    2    0    0  0.14406944472E+02 -0.39352360595E+02 -0.12085536271E+03  0.15651768233E+03  0.90197549039E+02 0.  0.
        -13    1    4    4    0    0  0.36450507087E+02 -0.80491998203E+01 -0.91507189677E+01  0.38434046187E+02  0.10566000000E+00 0.  1.
         13    1    4    4    0    0 -0.22043562614E+02 -0.31303160775E+02 -0.11170464374E+03  0.11808363614E+03  0.10566000000E+00 0. -1.
    9000005    1    3    3    0    0  0.48204895440E+02  0.48051133326E+02 -0.11823521552E+03  0.13643016363E+03  0.10000000000E+01 0.  0.
    9000005    1    3    3    0    0 -0.62611839912E+02 -0.86987727306E+01 -0.88565731125E+02  0.10881543950E+03  0.10000000000E+01 0.  0.
<mgrwt>
<rscale>  0 0.12286167E+03</rscale>
<asrwt>0</asrwt>
<pdfrwt beam="2">  1        2 0.56109197E-01 0.13182858E+03</pdfrwt>
<pdfrwt beam="1">  1       -2 0.57005369E-02 0.13182858E+03</pdfrwt>
<totfact> 0.13316398E+04</totfact>
</mgrwt>
</event>
<event>
 8    3  0.7944584E-004  0.1833875E+03  0.7818608E-02  0.1170240E+00
          2   -1    0    0  501    0  0.00000000000E+00  0.00000000000E+00  0.14050995042E+03  0.14050995045E+03  0.25500000000E-02 0. -1.
         -2   -1    0    0    0  501 -0.00000000000E+00 -0.00000000000E+00 -0.22348658658E+03  0.22348658660E+03  0.25500000000E-02 0.  1.
         25    2    1    2    0    0 -0.41504050249E+02  0.12760310096E+03 -0.87008100214E+02  0.20298122894E+03  0.12500332891E+03 0.  0.
         23    2    1    2    0    0  0.41504050249E+02 -0.12760310096E+03  0.40314640521E+01  0.16101530810E+03  0.88907475384E+02 0.  0.
        -13    1    4    4    0    0 -0.24907208780E+01 -0.28549981965E+02  0.37851952767E+02  0.47477222465E+02  0.10566000000E+00 0. -1.
         13    1    4    4    0    0  0.43994771127E+02 -0.99053118994E+02 -0.33820488715E+02  0.11353808564E+03  0.10566000000E+00 0.  1.
    9000005    1    3    3    0    0 -0.54150954823E+02  0.11641699449E+03 -0.11361824763E+03  0.17145071802E+03  0.10000000000E+01 0.  0.
    9000005    1    3    3    0    0  0.12646904574E+02  0.11186106470E+02  0.26610147420E+02  0.31530510922E+02  0.10000000000E+01 0.  0.
<mgrwt>
<rscale>  0 0.17750477E+03</rscale>
<asrwt>0</asrwt>
<pdfrwt beam="1">  1        2 0.21616915E-01 0.18338749E+03</pdfrwt>
<pdfrwt beam="2">  1       -2 0.34382552E-01 0.18338749E+03</pdfrwt>
<totfact> 0.19837356E+03</totfact>
</mgrwt>
</event>
<event>
 8    3  0.7944584E-004  0.2110188E+03  0.7818608E-02  0.1144533E+00
          2   -1    0    0  501    0  0.00000000000E+00  0.00000000000E+00  0.18033155414E+03  0.18033155416E+03  0.25500000000E-02 0. -1.
         -2   -1    0    0    0  501 -0.00000000000E+00 -0.00000000000E+00 -0.23327488512E+03  0.23327488514E+03  0.25500000000E-02 0.  1.
         25    2    1    2    0    0 -0.57330317222E+02  0.16005396455E+03 -0.64067917969E+02  0.22053032087E+03  0.12499954989E+03 0.  0.
         23    2    1    2    0    0  0.57330317222E+02 -0.16005396455E+03  0.11124586989E+02  0.19307611842E+03  0.90832781693E+02 0.  0.
        -13    1    4    4    0    0 -0.53831974866E+01 -0.11470052195E+03 -0.40406566976E+00  0.11482753583E+03  0.10566000000E+00 0. -1.
         13    1    4    4    0    0  0.62713514708E+02 -0.45353442597E+02  0.11528652658E+02  0.78248582598E+02  0.10566000000E+00 0.  1.
    9000005    1    3    3    0    0  0.25985541334E+02 -0.13361904557E+01  0.44308222686E+01  0.26413366868E+02  0.10000000000E+01 0.  0.
    9000005    1    3    3    0    0 -0.83315858556E+02  0.16139015500E+03 -0.68498740237E+02  0.19411695401E+03  0.10000000000E+01 0.  0.
<mgrwt>
<rscale>  0 0.20629678E+03</rscale>
<asrwt>0</asrwt>
<pdfrwt beam="1">  1        2 0.27743316E-01 0.21101878E+03</pdfrwt>
<pdfrwt beam="2">  1       -2 0.35888444E-01 0.21101878E+03</pdfrwt>
<totfact> 0.13921144E+03</totfact>
</mgrwt>
</event>
<event>
 8    3  0.7944584E-004  0.1544758E+03  0.7818608E-02  0.1205508E+00
          2   -1    0    0  501    0  0.00000000000E+00  0.00000000000E+00  0.20914288287E+03  0.20914288289E+03  0.25500000000E-02 0. -1.
         -2   -1    0    0    0  501 -0.00000000000E+00 -0.00000000000E+00 -0.92954626531E+02  0.92954626566E+02  0.25500000000E-02 0.  1.
         25    2    1    2    0    0  0.66769480835E+01  0.90516792669E+02  0.50640772117E+02  0.16256461046E+03  0.12499957353E+03 0.  0.
         23    2    1    2    0    0 -0.66769480835E+01 -0.90516792669E+02  0.65547484226E+02  0.13953289899E+03  0.83277162669E+02 0.  0.
        -13    1    4    4    0    0  0.29147302598E+02 -0.48842460889E+02  0.62479248993E+02  0.84491531843E+02  0.10566000000E+00 0. -1.
         13    1    4    4    0    0 -0.35824250681E+02 -0.41674331780E+02  0.30682352327E+01  0.55041367150E+02  0.10566000000E+00 0.  1.
    9000005    1    3    3    0    0 -0.56061802358E+02  0.23026687791E+02  0.84063765993E+01  0.61194944250E+02  0.10000000000E+01 0.  0.
    9000005    1    3    3    0    0  0.62738750442E+02  0.67490104878E+02  0.42234395518E+02  0.10136966621E+03  0.10000000000E+01 0.  0.
<mgrwt>
<rscale>  0 0.14597520E+03</rscale>
<asrwt>0</asrwt>
<pdfrwt beam="1">  1        2 0.32175828E-01 0.15447577E+03</pdfrwt>
<pdfrwt beam="2">  1       -2 0.14300712E-01 0.15447577E+03</pdfrwt>
<totfact> 0.57824219E+03</totfact>
</mgrwt>
</event>
<event>
 8    3  0.7944584E-004  0.2202611E+03  0.7818608E-02  0.1136928E+00
          2   -1    0    0  501    0  0.00000000000E+00  0.00000000000E+00  0.10107408011E+04  0.10107408011E+04  0.25500000000E-02 0. -1.
         -2   -1    0    0    0  501 -0.00000000000E+00 -0.00000000000E+00 -0.44527278774E+02  0.44527278847E+02  0.25500000000E-02 0.  1.
         25    2    1    2    0    0 -0.76252344025E+02 -0.16454635388E+03  0.47759136456E+03  0.52593578201E+03  0.12500005100E+03 0.  0.
         23    2    1    2    0    0  0.76252344025E+02  0.16454635388E+03  0.48862215777E+03  0.52933229794E+03  0.92472406914E+02 0.  0.
        -13    1    4    4    0    0 -0.16205820232E+01  0.10507508787E+03  0.27130986059E+03  0.29095094431E+03  0.10566000000E+00 0. -1.
         13    1    4    4    0    0  0.77872926048E+02  0.59471266011E+02  0.21731229717E+03  0.23838135363E+03  0.10566000000E+00 0.  1.
    9000005    1    3    3    0    0 -0.61707569916E+02 -0.31821022849E+02  0.77031959881E+02  0.10370788072E+03  0.10000000000E+01 0.  0.
    9000005    1    3    3    0    0 -0.14544774109E+02 -0.13272533103E+03  0.40055940468E+03  0.42222790129E+03  0.10000000000E+01 0.  0.
<mgrwt>
<rscale>  0 0.21596440E+03</rscale>
<asrwt>0</asrwt>
<pdfrwt beam="1">  1        2 0.15549859E+00 0.22026106E+03</pdfrwt>
<pdfrwt beam="2">  1       -2 0.68503503E-02 0.22026106E+03</pdfrwt>
<totfact> 0.31010130E+03</totfact>
</mgrwt>
</event>
<event>
 8    3  0.7944584E-004  0.1256755E+03  0.7818608E-02  0.1248925E+00
         -2   -1    0    0    0  501 -0.00000000000E+00  0.00000000000E+00  0.27573975938E+02  0.27573976056E+02  0.25500000000E-02 0.  1.
          2   -1    0    0  501    0  0.00000000000E+00 -0.00000000000E+00 -0.51755293712E+03  0.51755293712E+03  0.25500000000E-02 0. -1.
         25    2    1    2    0    0 -0.12884945899E+02 -0.30889118654E+00 -0.38471632638E+03  0.40472334595E+03  0.12501287028E+03 0.  0.
         23    2    1    2    0    0  0.12884945899E+02  0.30889118654E+00 -0.10526263480E+03  0.14040356723E+03  0.92015336545E+02 0.  0.
        -13    1    4    4    0    0 -0.31661949027E+02 -0.20174071673E-01 -0.86414041290E+02  0.92031935323E+02  0.10566000000E+00 0. -1.
         13    1    4    4    0    0  0.44546894926E+02  0.32906525822E+00 -0.18848593513E+02  0.48371631903E+02  0.10566000000E+00 0.  1.
    9000005    1    3    3    0    0  0.46493073681E+01  0.48629936941E+02 -0.30920738557E+03  0.31304423668E+03  0.10000000000E+01 0.  0.
    9000005    1    3    3    0    0 -0.17534253267E+02 -0.48938828127E+02 -0.75508940806E+02  0.91679109277E+02  0.10000000000E+01 0.  0.
<mgrwt>
<rscale>  0 0.11653539E+03</rscale>
<asrwt>0</asrwt>
<pdfrwt beam="2">  1        2 0.79623522E-01 0.12567551E+03</pdfrwt>
<pdfrwt beam="1">  1       -2 0.42421505E-02 0.12567551E+03</pdfrwt>
<totfact> 0.14165476E+04</totfact>
</mgrwt>
</event>
<event>
 8    3  0.7944584E-004  0.1401871E+03  0.7818608E-02  0.1224310E+00
         -2   -1    0    0    0  501 -0.00000000000E+00  0.00000000000E+00  0.80553125228E+01  0.80553129265E+01  0.25500000000E-02 0.  1.
          2   -1    0    0  501    0  0.00000000000E+00 -0.00000000000E+00 -0.20480747766E+04  0.20480747766E+04  0.25500000000E-02 0. -1.
         25    2    1    2    0    0 -0.30502376766E+02  0.55667043360E+02 -0.91454251248E+03  0.92522452973E+03  0.12499283411E+03 0.  0.
         23    2    1    2    0    0  0.30502376766E+02 -0.55667043360E+02 -0.11254769516E+04  0.11309055598E+04  0.90663123134E+02 0.  0.
        -13    1    4    4    0    0  0.24193358113E+02  0.90386280766E+01 -0.97112556736E+02  0.10048818445E+03  0.10566000000E+00 0.  1.
         13    1    4    4    0    0  0.63090186532E+01 -0.64705671437E+02 -0.10283643948E+04  0.10304173753E+04  0.10566000000E+00 0. -1.
    9000005    1    3    3    0    0 -0.30736441158E+02 -0.36450798016E+02 -0.28073798375E+03  0.28475990766E+03  0.10000000000E+01 0.  0.
    9000005    1    3    3    0    0  0.23406439165E+00  0.92117841376E+02 -0.63380452873E+03  0.64046462207E+03  0.10000000000E+01 0.  0.
<mgrwt>
<rscale>  0 0.13214286E+03</rscale>
<asrwt>0</asrwt>
<pdfrwt beam="2">  1        2 0.31508801E+00 0.14018710E+03</pdfrwt>
<pdfrwt beam="1">  1       -2 0.12392805E-02 0.14018710E+03</pdfrwt>
<totfact> 0.10749617E+04</totfact>
</mgrwt>
</event>
<event>
 8    3  0.7944584E-004  0.1423993E+03  0.7818608E-02  0.1220847E+00
          2   -1    0    0  501    0  0.00000000000E+00  0.00000000000E+00  0.46155501482E+03  0.46155501483E+03  0.25500000000E-02 0. -1.
         -2   -1    0    0    0  501 -0.00000000000E+00 -0.00000000000E+00 -0.35865785843E+02  0.35865785933E+02  0.25500000000E-02 0.  1.
         25    2    1    2    0    0  0.41125284309E+02  0.54412921303E+02  0.26232491894E+03  0.29848270300E+03  0.12500202348E+03 0.  0.
         23    2    1    2    0    0 -0.41125284309E+02 -0.54412921303E+02  0.16336431003E+03  0.19893809776E+03  0.90754690979E+02 0.  0.
        -13    1    4    4    0    0 -0.27057923671E+02 -0.74130270875E+02  0.15386301836E+03  0.17291983078E+03  0.10566000000E+00 0.  1.
         13    1    4    4    0    0 -0.14067360638E+02  0.19717349573E+02  0.95012916767E+01  0.26018266988E+02  0.10566000000E+00 0. -1.
    9000005    1    3    3    0    0 -0.29119514498E+02  0.10281661365E+02  0.93955748334E+01  0.32294512096E+02  0.10000000000E+01 0.  0.
    9000005    1    3    3    0    0  0.70244798807E+02  0.44131259937E+02  0.25292934411E+03  0.26618819090E+03  0.10000000000E+01 0.  0.
<mgrwt>
<rscale>  0 0.13455693E+03</rscale>
<asrwt>0</asrwt>
<pdfrwt beam="1">  1        2 0.71008463E-01 0.14239930E+03</pdfrwt>
<pdfrwt beam="2">  1       -2 0.55178133E-02 0.14239930E+03</pdfrwt>
<totfact> 0.10928924E+04</totfact>
</mgrwt>
</event>
<event>
 8    3  0.7944584E-004  0.2817239E+03  0.7818608E-02  0.1095541E+00
         -2   -1    0    0    0  501 -0.00000000000E+00  0.00000000000E+00  0.28644296555E+02  0.28644296668E+02  0.25500000000E-02 0.  1.
          2   -1    0    0  501    0  0.00000000000E+00 -0.00000000000E+00 -0.28571410110E+04  0.28571410110E+04  0.25500000000E-02 0. -1.
         25    2    1    2    0    0 -0.10928484947E+03  0.22759753440E+03 -0.11056521193E+04  0.11409798213E+04  0.12499811103E+03 0.  0.
         23    2    1    2    0    0  0.10928484947E+03 -0.22759753440E+03 -0.17228445951E+04  0.17448054863E+04  0.11139510842E+03 0.  0.
        -13    1    4    4    0    0  0.12432312037E+03 -0.15403043421E+03 -0.11274051538E+04  0.11446501670E+04  0.10566000000E+00 0.  1.
         13    1    4    4    0    0 -0.15038270901E+02 -0.73567100189E+02 -0.59543944133E+03  0.60015531929E+03  0.10566000000E+00 0. -1.
    9000005    1    3    3    0    0 -0.61476022987E+02  0.13562346166E+03 -0.38298195236E+03  0.41091264350E+03  0.10000000000E+01 0.  0.
    9000005    1    3    3    0    0 -0.47808826482E+02  0.91974072745E+02 -0.72267016696E+03  0.73006717784E+03  0.10000000000E+01 0.  0.
<mgrwt>
<rscale>  0 0.28027115E+03</rscale>
<asrwt>0</asrwt>
<pdfrwt beam="2">  1        2 0.43955993E+00 0.28172388E+03</pdfrwt>
<pdfrwt beam="1">  1       -2 0.44068171E-02 0.28172388E+03</pdfrwt>
<totfact> 0.59810544E+02</totfact>
</mgrwt>
</event>
<event>
 8    3  0.7944584E-004  0.2086002E+03  0.7818608E-02  0.1146957E+00
         -2   -1    0    0    0  501 -0.00000000000E+00  0.00000000000E+00  0.62532535622E+02  0.62532535674E+02  0.25500000000E-02 0.  1.
          2   -1    0    0  501    0  0.00000000000E+00 -0.00000000000E+00 -0.71025613916E+03  0.71025613916E+03  0.25500000000E-02 0. -1.
         25    2    1    2    0    0  0.16695181084E+03  0.43486438291E+01 -0.20867617224E+03  0.29505893180E+03  0.12498884162E+03 0.  0.
         23    2    1    2    0    0 -0.16695181084E+03 -0.43486438291E+01 -0.43904743129E+03  0.47772974303E+03  0.87012887573E+02 0.  0.
        -13    1    4    4    0    0 -0.70880404080E+02 -0.38904145701E+02 -0.13922337157E+03  0.16099913848E+03  0.10566000000E+00 0. -1.
         13    1    4    4    0    0 -0.96071406764E+02  0.34555501872E+02 -0.29982405973E+03  0.31673060456E+03  0.10566000000E+00 0.  1.
    9000005    1    3    3    0    0  0.14951657501E+03 -0.18425449667E+01 -0.89118216232E+02  0.17407371323E+03  0.10000000000E+01 0.  0.
    9000005    1    3    3    0    0  0.17435235833E+02  0.61911887958E+01 -0.11955795601E+03  0.12098521857E+03  0.10000000000E+01 0.  0.
<mgrwt>
<rscale>  0 0.20333307E+03</rscale>
<asrwt>0</asrwt>
<pdfrwt beam="2">  1        2 0.10927017E+00 0.20860016E+03</pdfrwt>
<pdfrwt beam="1">  1       -2 0.96203906E-02 0.20860016E+03</pdfrwt>
<totfact> 0.28840072E+03</totfact>
</mgrwt>
</event>
<event>
 8    3  0.7944584E-004  0.1582048E+03  0.7818608E-02  0.1198179E+00
          2   -1    0    0  501    0  0.00000000000E+00  0.00000000000E+00  0.36673552926E+03  0.36673552927E+03  0.25500000000E-02 0. -1.
         -2   -1    0    0    0  501 -0.00000000000E+00 -0.00000000000E+00 -0.58818715462E+02  0.58818715517E+02  0.25500000000E-02 0.  1.
         25    2    1    2    0    0 -0.13081569731E+02 -0.96089653780E+02  0.14767414837E+03  0.21641723211E+03  0.12499766088E+03 0.  0.
         23    2    1    2    0    0  0.13081569731E+02  0.96089653780E+02  0.16024266542E+03  0.20913701268E+03  0.93038858654E+02 0.  0.
        -13    1    4    4    0    0  0.45611646435E+01  0.37727733865E+02 -0.40455513498E+00  0.38004749103E+02  0.10566000000E+00 0.  1.
         13    1    4    4    0    0  0.85204050879E+01  0.58361919915E+02  0.16064722056E+03  0.17113226357E+03  0.10566000000E+00 0. -1.
    9000005    1    3    3    0    0  0.43592954931E+02 -0.83151969054E+02  0.60715148414E+02  0.11181200707E+03  0.10000000000E+01 0.  0.
    9000005    1    3    3    0    0 -0.56674524663E+02 -0.12937684727E+02  0.86958999959E+02  0.10460522504E+03  0.10000000000E+01 0.  0.
<mgrwt>
<rscale>  0 0.15188197E+03</rscale>
<asrwt>0</asrwt>
<pdfrwt beam="1">  1        2 0.56420849E-01 0.15820482E+03</pdfrwt>
<pdfrwt beam="2">  1       -2 0.90490334E-02 0.15820482E+03</pdfrwt>
<totfact> 0.65925440E+03</totfact>
</mgrwt>
</event>
<event>
 8    3  0.7944584E-004  0.1378020E+03  0.7818608E-02  0.1228386E+00
         -2   -1    0    0    0  501 -0.00000000000E+00  0.00000000000E+00  0.19514623327E+03  0.19514623328E+03  0.25500000000E-02 0.  1.
          2   -1    0    0  501    0  0.00000000000E+00 -0.00000000000E+00 -0.17510379121E+03  0.17510379123E+03  0.25500000000E-02 0. -1.
         25    2    1    2    0    0  0.53898036541E+02  0.21426679168E+02 -0.12764672379E+03  0.18783787390E+03  0.12500111941E+03 0.  0.
         23    2    1    2    0    0 -0.53898036541E+02 -0.21426679168E+02  0.14768916584E+03  0.18241215062E+03  0.89988899659E+02 0.  0.
        -13    1    4    4    0    0  0.82344463499E+01 -0.40906699733E+01  0.10422443803E+03  0.10462927093E+03  0.10566000000E+00 0.  1.
         13    1    4    4    0    0 -0.62132482891E+02 -0.17336009194E+02  0.43464727810E+02  0.77782879688E+02  0.10566000000E+00 0. -1.
    9000005    1    3    3    0    0  0.83256888428E+00 -0.49088926893E+02 -0.38572042143E+02  0.62443721458E+02  0.10000000000E+01 0.  0.
    9000005    1    3    3    0    0  0.53065467657E+02  0.70515606061E+02 -0.89074681646E+02  0.12539415244E+03  0.10000000000E+01 0.  0.
<mgrwt>
<rscale>  0 0.12937477E+03</rscale>
<asrwt>0</asrwt>
<pdfrwt beam="2">  1        2 0.26939045E-01 0.13780196E+03</pdfrwt>
<pdfrwt beam="1">  1       -2 0.30022497E-01 0.13780196E+03</pdfrwt>
<totfact> 0.19667959E+03</totfact>
</mgrwt>
</event>
<event>
 8    3  0.7944584E-004  0.4832427E+03  0.7818608E-02  0.1018711E+00
         -2   -1    0    0    0  501 -0.00000000000E+00  0.00000000000E+00  0.66908967141E+03  0.66908967141E+03  0.25500000000E-02 0.  1.
          2   -1    0    0  501    0  0.00000000000E+00 -0.00000000000E+00 -0.35153117395E+03  0.35153117396E+03  0.25500000000E-02 0. -1.
         25    2    1    2    0    0  0.11090637427E+03  0.45342978731E+03  0.85984592321E+02  0.49083281423E+03  0.12499882213E+03 0.  0.
         23    2    1    2    0    0 -0.11090637427E+03 -0.45342978731E+03  0.23157390514E+03  0.52978803114E+03  0.95656095073E+02 0.  0.
        -13    1    4    4    0    0 -0.11696685898E+03 -0.28652877236E+03  0.14967643488E+03  0.34377758771E+03  0.10566000000E+00 0. -1.
         13    1    4    4    0    0  0.60604847080E+01 -0.16690101495E+03  0.81897470256E+02  0.18601044343E+03  0.10566000000E+00 0.  1.
    9000005    1    3    3    0    0 -0.14563114284E+02  0.19639455036E+03  0.43291097453E+02  0.20163834662E+03  0.10000000000E+01 0.  0.
    9000005    1    3    3    0    0  0.12546948855E+03  0.25703523695E+03  0.42693494867E+02  0.28919446761E+03  0.10000000000E+01 0.  0.
<mgrwt>
<rscale>  0 0.48154724E+03</rscale>
<asrwt>0</asrwt>
<pdfrwt beam="2">  1        2 0.54081720E-01 0.48324269E+03</pdfrwt>
<pdfrwt beam="1">  1       -2 0.10293687E+00 0.48324269E+03</pdfrwt>
<totfact> 0.72877637E+01</totfact>
</mgrwt>
</event>
<event>
 8    3  0.7944584E-004  0.1551752E+03  0.7818608E-02  0.1202172E+00
         -2   -1    0    0    0  501 -0.00000000000E+00  0.00000000000E+00  0.58438430610E+01  0.58438436174E+01  0.25500000000E-02 0. -1.
          2   -1    0    0  501    0  0.00000000000E+00 -0.00000000000E+00 -0.42327140952E+04  0.42327140952E+04  0.25500000000E-02 0.  1.
         25    2    1    2    0    0 -0.51078556420E+02 -0.76452550703E+02 -0.13805507875E+04  0.13892443322E+04  0.12500130533E+03 0.  0.
         23    2    1    2    0    0  0.51078556420E+02  0.76452550703E+02 -0.28463194647E+04  0.28493136066E+04  0.92733610216E+02 0.  0.
        -13    1    4    4    0    0 -0.20219918776E+02  0.10238780684E+02 -0.21409655633E+03  0.21529288038E+03  0.10566000000E+00 0. -1.
         13    1    4    4    0    0  0.71298475197E+02  0.66213770018E+02 -0.26322229083E+04  0.26340207262E+04  0.10566000000E+00 0.  1.
    9000005    1    3    3    0    0 -0.60331513708E+02 -0.47215015874E+01 -0.10031688981E+04  0.10049930459E+04  0.10000000000E+01 0.  0.
    9000005    1    3    3    0    0  0.92529572876E+01 -0.71731049115E+02 -0.37738188935E+03  0.38425128632E+03  0.10000000000E+01 0.  0.
<mgrwt>
<rscale>  0 0.14862556E+03</rscale>
<asrwt>0</asrwt>
<pdfrwt beam="2">  1        2 0.65118433E+00 0.15517518E+03</pdfrwt>
<pdfrwt beam="1">  1       -2 0.89905620E-03 0.15517518E+03</pdfrwt>
<totfact> 0.75642667E+02</totfact>
</mgrwt>
</event>
<event>
 8    3  0.7944584E-004  0.1328687E+03  0.7818608E-02  0.1233819E+00
         -2   -1    0    0    0  501 -0.00000000000E+00  0.00000000000E+00  0.66516771570E+02  0.66516771619E+02  0.25500000000E-02 0.  1.
          2   -1    0    0  501    0  0.00000000000E+00 -0.00000000000E+00 -0.30967308984E+03  0.30967308985E+03  0.25500000000E-02 0. -1.
         25    2    1    2    0    0  0.13358211900E+01 -0.45008648113E+02 -0.23390225657E+03  0.26900626300E+03  0.12500616418E+03 0.  0.
         23    2    1    2    0    0 -0.13358211900E+01  0.45008648113E+02 -0.92540617033E+01  0.10718359847E+03  0.96825220372E+02 0.  0.
        -13    1    4    4    0    0 -0.45971986315E+02  0.88886852705E+01 -0.15740490160E+02  0.49398445786E+02  0.10566000000E+00 0.  1.
         13    1    4    4    0    0  0.44636165125E+02  0.36119962842E+02  0.64864284568E+01  0.57785152686E+02  0.10566000000E+00 0. -1.
    9000005    1    3    3    0    0  0.30969873267E+02  0.18031166768E+02 -0.17236714653E+03  0.17605592642E+03  0.10000000000E+01 0.  0.
    9000005    1    3    3    0    0 -0.29634052077E+02 -0.63039814880E+02 -0.61535110040E+02  0.92950336579E+02  0.10000000000E+01 0.  0.
<mgrwt>
<rscale>  0 0.12580359E+03</rscale>
<asrwt>0</asrwt>
<pdfrwt beam="2">  1        2 0.47642013E-01 0.13286875E+03</pdfrwt>
<pdfrwt beam="1">  1       -2 0.10233350E-01 0.13286875E+03</pdfrwt>
<totfact> 0.64379378E+03</totfact>
</mgrwt>
</event>
<event>
 8    3  0.7944584E-004  0.1686324E+03  0.7818608E-02  0.1186041E+00
          2   -1    0    0  501    0  0.00000000000E+00  0.00000000000E+00  0.18967311084E+04  0.18967311084E+04  0.25500000000E-02 0. -1.
         -2   -1    0    0    0  501 -0.00000000000E+00 -0.00000000000E+00 -0.13035780535E+02  0.13035780785E+02  0.25500000000E-02 0.  1.
         25    2    1    2    0    0  0.62304314388E+02 -0.94509472084E+02  0.94087764013E+03  0.95587008290E+03  0.12499205486E+03 0.  0.
         23    2    1    2    0    0 -0.62304314388E+02  0.94509472084E+02  0.94281768775E+03  0.95389680631E+03  0.90554165220E+02 0.  0.
        -13    1    4    4    0    0 -0.70006705370E+01  0.88306475739E+02  0.62444903194E+03  0.63070091779E+03  0.10566000000E+00 0. -1.
         13    1    4    4    0    0 -0.55303643851E+02  0.62029963447E+01  0.31836865582E+03  0.32319588852E+03  0.10566000000E+00 0.  1.
    9000005    1    3    3    0    0  0.82149672880E+02 -0.80243660508E+02  0.45132993813E+03  0.46571163487E+03  0.10000000000E+01 0.  0.
    9000005    1    3    3    0    0 -0.19845358493E+02 -0.14265811576E+02  0.48954770201E+03  0.49015844803E+03  0.10000000000E+01 0.  0.
<mgrwt>
<rscale>  0 0.16237499E+03</rscale>
<asrwt>0</asrwt>
<pdfrwt beam="1">  1        2 0.29180483E+00 0.16863239E+03</pdfrwt>
<pdfrwt beam="2">  1       -2 0.20055044E-02 0.16863239E+03</pdfrwt>
<totfact> 0.64338788E+03</totfact>
</mgrwt>
</event>
<event>
 8    3  0.7944584E-004  0.1459574E+03  0.7818608E-02  0.1217124E+00
          2   -1    0    0  501    0  0.00000000000E+00  0.00000000000E+00  0.14185379020E+04  0.14185379020E+04  0.25500000000E-02 0. -1.
         -2   -1    0    0    0  501 -0.00000000000E+00 -0.00000000000E+00 -0.14677823242E+02  0.14677823464E+02  0.25500000000E-02 0.  1.
         25    2    1    2    0    0  0.53417590973E+02  0.53068772943E+02  0.10811578849E+04  0.10909656000E+04  0.12503533394E+03 0.  0.
         23    2    1    2    0    0 -0.53417590973E+02 -0.53068772943E+02  0.32270219389E+03  0.34225012545E+03  0.85607877782E+02 0.  0.
        -13    1    4    4    0    0 -0.43994931852E+02 -0.11606410339E+02  0.55880629659E+02  0.72061908972E+02  0.10566000000E+00 0.  1.
         13    1    4    4    0    0 -0.94226591208E+01 -0.41462362604E+02  0.26682156423E+03  0.27018821648E+03  0.10566000000E+00 0. -1.
    9000005    1    3    3    0    0  0.32371835462E+02  0.91168742265E+02  0.58981856342E+03  0.59770110678E+03  0.10000000000E+01 0.  0.
    9000005    1    3    3    0    0  0.21045755511E+02 -0.38099969322E+02  0.49133932147E+03  0.49326449326E+03  0.10000000000E+01 0.  0.
<mgrwt>
<rscale>  0 0.13721641E+03</rscale>
<asrwt>0</asrwt>
<pdfrwt beam="1">  1        2 0.21823665E+00 0.14595742E+03</pdfrwt>
<pdfrwt beam="2">  1       -2 0.22581261E-02 0.14595742E+03</pdfrwt>
<totfact> 0.95351962E+03</totfact>
</mgrwt>
</event>
<event>
 8    3  0.7944584E-004  0.1282400E+03  0.7818608E-02  0.1244430E+00
         -2   -1    0    0    0  501 -0.00000000000E+00  0.00000000000E+00  0.14426940920E+02  0.14426941145E+02  0.25500000000E-02 0.  1.
          2   -1    0    0  501    0  0.00000000000E+00 -0.00000000000E+00 -0.95136149579E+03  0.95136149579E+03  0.25500000000E-02 0. -1.
         25    2    1    2    0    0 -0.11779342813E+02 -0.26120495228E+02 -0.67123595065E+03  0.68337632782E+03  0.12499788314E+03 0.  0.
         23    2    1    2    0    0  0.11779342813E+02  0.26120495228E+02 -0.26569860422E+03  0.28241210912E+03  0.91322603475E+02 0.  0.
        -13    1    4    4    0    0  0.11034998664E+02  0.31656394494E+02 -0.25429673578E+02  0.42078236300E+02  0.10566000000E+00 0.  1.
         13    1    4    4    0    0  0.74434414886E+00 -0.55358992652E+01 -0.24026893064E+03  0.24033387282E+03  0.10566000000E+00 0. -1.
    9000005    1    3    3    0    0 -0.47401779179E+02 -0.52905341323E+02 -0.25343528889E+03  0.26320400731E+03  0.10000000000E+01 0.  0.
    9000005    1    3    3    0    0  0.35622436366E+02  0.26784846094E+02 -0.41780066176E+03  0.42017232051E+03  0.10000000000E+01 0.  0.
<mgrwt>
<rscale>  0 0.11919545E+03</rscale>
<asrwt>0</asrwt>
<pdfrwt beam="2">  1        2 0.14636326E+00 0.12824002E+03</pdfrwt>
<pdfrwt beam="1">  1       -2 0.22195301E-02 0.12824002E+03</pdfrwt>
<totfact> 0.17738990E+04</totfact>
</mgrwt>
</event>
<event>
 8    3  0.7944584E-004  0.1321046E+03  0.7818608E-02  0.1237926E+00
          2   -1    0    0  501    0  0.00000000000E+00  0.00000000000E+00  0.41264012565E+03  0.41264012566E+03  0.25500000000E-02 0.  1.
         -2   -1    0    0    0  501 -0.00000000000E+00 -0.00000000000E+00 -0.33889031003E+02  0.33889031098E+02  0.25500000000E-02 0. -1.
         25    2    1    2    0    0  0.28920881096E+02  0.31463224689E+02  0.25765886563E+03  0.28955086995E+03  0.12500105351E+03 0.  0.
         23    2    1    2    0    0 -0.28920881096E+02 -0.31463224689E+02  0.12109222902E+03  0.15697828681E+03  0.90291210701E+02 0.  0.
        -13    1    4    4    0    0 -0.17412548330E+01  0.30531368581E+02  0.51497763408E+02  0.59893465719E+02  0.10566000000E+00 0.  1.
         13    1    4    4    0    0 -0.27179626263E+02 -0.61994593270E+02  0.69594465612E+02  0.97084821091E+02  0.10566000000E+00 0. -1.
    9000005    1    3    3    0    0  0.52131987297E+02 -0.29282288097E+01  0.34558132476E+02  0.62622545011E+02  0.10000000000E+01 0.  0.
    9000005    1    3    3    0    0 -0.23211106200E+02  0.34391453499E+02  0.22310073316E+03  0.22692832494E+03  0.10000000000E+01 0.  0.
<mgrwt>
<rscale>  0 0.12318943E+03</rscale>
<asrwt>0</asrwt>
<pdfrwt beam="1">  1        2 0.63483095E-01 0.13210456E+03</pdfrwt>
<pdfrwt beam="2">  1       -2 0.52136972E-02 0.13210456E+03</pdfrwt>
<totfact> 0.13357883E+04</totfact>
</mgrwt>
</event>
<event>
 8    3  0.7944584E-004  0.1579306E+03  0.7818608E-02  0.1197506E+00
          2   -1    0    0  501    0  0.00000000000E+00  0.00000000000E+00  0.34295989498E+03  0.34295989499E+03  0.25500000000E-02 0. -1.
         -2   -1    0    0    0  501 -0.00000000000E+00 -0.00000000000E+00 -0.64684303477E+02  0.64684303527E+02  0.25500000000E-02 0.  1.
         25    2    1    2    0    0 -0.91391768118E+02 -0.31061828865E+02  0.17691835001E+03  0.23715432751E+03  0.12499911998E+03 0.  0.
         23    2    1    2    0    0  0.91391768118E+02  0.31061828865E+02  0.10135724150E+03  0.17048987101E+03  0.97345843361E+02 0.  0.
        -13    1    4    4    0    0  0.92853754295E+02  0.31097789083E+02  0.11825110667E+03  0.15353249677E+03  0.10566000000E+00 0. -1.
         13    1    4    4    0    0 -0.14619861770E+01 -0.35960217871E-01 -0.16893865167E+02  0.16957374238E+02  0.10566000000E+00 0.  1.
    9000005    1    3    3    0    0  0.21132262141E+02  0.52750356339E+00 -0.42222782790E+01  0.21579582875E+02  0.10000000000E+01 0.  0.
    9000005    1    3    3    0    0 -0.11252403026E+03 -0.31589332428E+02  0.18114062829E+03  0.21557474464E+03  0.10000000000E+01 0.  0.
<mgrwt>
<rscale>  0 0.15244061E+03</rscale>
<asrwt>0</asrwt>
<pdfrwt beam="1">  1        2 0.52763060E-01 0.15793059E+03</pdfrwt>
<pdfrwt beam="2">  1       -2 0.99514315E-02 0.15793059E+03</pdfrwt>
<totfact> 0.60993454E+03</totfact>
</mgrwt>
</event>
<event>
 8    3  0.7944584E-004  0.1527884E+03  0.7818608E-02  0.1206670E+00
         -2   -1    0    0    0  501 -0.00000000000E+00  0.00000000000E+00  0.62312199169E+02  0.62312199222E+02  0.25500000000E-02 0.  1.
          2   -1    0    0  501    0  0.00000000000E+00 -0.00000000000E+00 -0.39551926702E+03  0.39551926703E+03  0.25500000000E-02 0. -1.
         25    2    1    2    0    0  0.70975630105E+02  0.51792007679E+02 -0.72604413144E+02  0.16916174174E+03  0.12499736770E+03 0.  0.
         23    2    1    2    0    0 -0.70975630105E+02 -0.51792007679E+02 -0.26060265471E+03  0.28866972451E+03  0.87729778754E+02 0.  0.
        -13    1    4    4    0    0  0.11466913903E+02 -0.35581368141E+02 -0.54406988532E+02  0.66012540009E+02  0.10566000000E+00 0.  1.
         13    1    4    4    0    0 -0.82442544008E+02 -0.16210639538E+02 -0.20619566618E+03  0.22265718450E+03  0.10566000000E+00 0. -1.
    9000005    1    3    3    0    0 -0.30797891363E+02 -0.89824749018E+01 -0.43958689894E+01  0.32396274971E+02  0.10000000000E+01 0.  0.
    9000005    1    3    3    0    0  0.10177352147E+03  0.60774482581E+02 -0.68208544155E+02  0.13676546677E+03  0.10000000000E+01 0.  0.
<mgrwt>
<rscale>  0 0.14506608E+03</rscale>
<asrwt>0</asrwt>
<pdfrwt beam="2">  1        2 0.60849116E-01 0.15278840E+03</pdfrwt>
<pdfrwt beam="1">  1       -2 0.95864924E-02 0.15278840E+03</pdfrwt>
<totfact> 0.55433810E+03</totfact>
</mgrwt>
</event>
<event>
 8    3  0.7944584E-004  0.1937540E+03  0.7818608E-02  0.1159668E+00
         -2   -1    0    0    0  501 -0.00000000000E+00  0.00000000000E+00  0.12074780958E+02  0.12074781227E+02  0.25500000000E-02 0.  1.
          2   -1    0    0  501    0  0.00000000000E+00 -0.00000000000E+00 -0.29261853653E+04  0.29261853653E+04  0.25500000000E-02 0. -1.
         25    2    1    2    0    0  0.14643006925E+03 -0.21707393467E+02 -0.18321042176E+04  0.18423209483E+04  0.12501054489E+03 0.  0.
         23    2    1    2    0    0 -0.14643006925E+03  0.21707393467E+02 -0.10820063667E+04  0.10959391982E+04  0.91825771985E+02 0.  0.
        -13    1    4    4    0    0  0.74367467670E+01 -0.92484861848E+01 -0.17913647073E+03  0.17952917871E+03  0.10566000000E+00 0. -1.
         13    1    4    4    0    0 -0.15386681602E+03  0.30955879652E+02 -0.90286989596E+03  0.91641001945E+03  0.10566000000E+00 0.  1.
    9000005    1    3    3    0    0  0.14326385326E+03 -0.52497420347E+02 -0.12311240136E+04  0.12405433679E+04  0.10000000000E+01 0.  0.
    9000005    1    3    3    0    0  0.31662159840E+01  0.30790026880E+02 -0.60098020408E+03  0.60177758048E+03  0.10000000000E+01 0.  0.
<mgrwt>
<rscale>  0 0.18866824E+03</rscale>
<asrwt>0</asrwt>
<pdfrwt beam="2">  1        2 0.45018180E+00 0.19375400E+03</pdfrwt>
<pdfrwt beam="1">  1       -2 0.18576610E-02 0.19375400E+03</pdfrwt>
<totfact> 0.20061380E+03</totfact>
</mgrwt>
</event>
<event>
 8    3  0.7944584E-004  0.1618355E+03  0.7818608E-02  0.1193940E+00
          2   -1    0    0  501    0  0.00000000000E+00  0.00000000000E+00  0.52528651652E+03  0.52528651653E+03  0.25500000000E-02 0. -1.
         -2   -1    0    0    0  501 -0.00000000000E+00 -0.00000000000E+00 -0.47722112256E+02  0.47722112324E+02  0.25500000000E-02 0.  1.
         25    2    1    2    0    0 -0.58396751268E+02 -0.84501012154E+02  0.16341798471E+03  0.22999165419E+03  0.12506047201E+03 0.  0.
         23    2    1    2    0    0  0.58396751268E+02  0.84501012154E+02  0.31414641956E+03  0.34301697466E+03  0.91771838643E+02 0.  0.
        -13    1    4    4    0    0  0.79604667933E+02  0.66179302491E+02  0.19675810143E+03  0.22232940623E+03  0.10566000000E+00 0.  1.
         13    1    4    4    0    0 -0.21207916665E+02  0.18321709663E+02  0.11738831813E+03  0.12068756843E+03  0.10566000000E+00 0. -1.
    9000005    1    3    3    0    0 -0.45788352559E+02 -0.27467578506E+02 -0.31290041861E+01  0.53496091131E+02  0.10000000000E+01 0.  0.
    9000005    1    3    3    0    0 -0.12608398709E+02 -0.57033433648E+02  0.16654698889E+03  0.17649556306E+03  0.10000000000E+01 0.  0.
<mgrwt>
<rscale>  0 0.15544307E+03</rscale>
<asrwt>0</asrwt>
<pdfrwt beam="1">  1        2 0.80813314E-01 0.16183548E+03</pdfrwt>
<pdfrwt beam="2">  1       -2 0.73418631E-02 0.16183548E+03</pdfrwt>
<totfact> 0.61790968E+03</totfact>
</mgrwt>
</event>
<event>
 8    3  0.7944584E-004  0.1328413E+03  0.7818608E-02  0.1236496E+00
          2   -1    0    0  501    0  0.00000000000E+00  0.00000000000E+00  0.50972100256E+03  0.50972100257E+03  0.25500000000E-02 0. -1.
         -2   -1    0    0    0  501 -0.00000000000E+00 -0.00000000000E+00 -0.26856783705E+02  0.26856783826E+02  0.25500000000E-02 0.  1.
         25    2    1    2    0    0  0.11980614398E+02  0.43333106283E+02  0.27132903153E+03  0.30210304657E+03  0.12500205668E+03 0.  0.
         23    2    1    2    0    0 -0.11980614398E+02 -0.43333106283E+02  0.21153518732E+03  0.23447473982E+03  0.90608911908E+02 0.  0.
        -13    1    4    4    0    0 -0.43815204334E+02 -0.23292502069E+02  0.57679649285E+02  0.76087225532E+02  0.10566000000E+00 0.  1.
         13    1    4    4    0    0  0.31834589937E+02 -0.20040604213E+02  0.15385553804E+03  0.15838751429E+03  0.10566000000E+00 0. -1.
    9000005    1    3    3    0    0  0.42930300901E+02  0.45516052544E+02  0.26246242856E+03  0.26981891738E+03  0.10000000000E+01 0.  0.
    9000005    1    3    3    0    0 -0.30949686503E+02 -0.21829462616E+01  0.88666029772E+01  0.32284129188E+02  0.10000000000E+01 0.  0.
<mgrwt>
<rscale>  0 0.12409120E+03</rscale>
<asrwt>0</asrwt>
<pdfrwt beam="1">  1        2 0.78418621E-01 0.13284129E+03</pdfrwt>
<pdfrwt beam="2">  1       -2 0.41318126E-02 0.13284129E+03</pdfrwt>
<totfact> 0.15047995E+04</totfact>
</mgrwt>
</event>
<event>
 8    3  0.7944584E-004  0.1413783E+03  0.7818608E-02  0.1222828E+00
         -2   -1    0    0    0  501 -0.00000000000E+00  0.00000000000E+00  0.87750468017E+02  0.87750468054E+02  0.25500000000E-02 0. -1.
          2   -1    0    0  501    0  0.00000000000E+00 -0.00000000000E+00 -0.20293256565E+03  0.20293256566E+03  0.25500000000E-02 0.  1.
         25    2    1    2    0    0 -0.47716520943E+02 -0.45659346264E+02 -0.11024540419E+03  0.17928157884E+03  0.12500477228E+03 0.  0.
         23    2    1    2    0    0  0.47716520943E+02  0.45659346264E+02 -0.49366934380E+01  0.11140145488E+03  0.89578294999E+02 0.  0.
        -13    1    4    4    0    0  0.18590709175E+02  0.67410440114E+02  0.12580026797E+02  0.71049631542E+02  0.10566000000E+00 0. -1.
         13    1    4    4    0    0  0.29125811767E+02 -0.21751093850E+02 -0.17516720235E+02  0.40351823337E+02  0.10566000000E+00 0.  1.
    9000005    1    3    3    0    0 -0.14522026745E+02  0.41144232412E+02 -0.14857900646E+02  0.46103083771E+02  0.10000000000E+01 0.  0.
    9000005    1    3    3    0    0 -0.33194494198E+02 -0.86803578676E+02 -0.95387503547E+02  0.13317849507E+03  0.10000000000E+01 0.  0.
<mgrwt>
<rscale>  0 0.13316901E+03</rscale>
<asrwt>0</asrwt>
<pdfrwt beam="2">  1        2 0.31220395E-01 0.14137834E+03</pdfrwt>
<pdfrwt beam="1">  1       -2 0.13500072E-01 0.14137834E+03</pdfrwt>
<totfact> 0.65228412E+03</totfact>
</mgrwt>
</event>
<event>
 8    3  0.7944584E-004  0.2180725E+03  0.7818608E-02  0.1138551E+00
          2   -1    0    0  501    0  0.00000000000E+00  0.00000000000E+00  0.49901750035E+03  0.49901750036E+03  0.25500000000E-02 0. -1.
         -2   -1    0    0    0  501 -0.00000000000E+00 -0.00000000000E+00 -0.14896518405E+03  0.14896518407E+03  0.25500000000E-02 0.  1.
         25    2    1    2    0    0  0.17189870458E+03  0.48803639113E+02  0.38579366039E+03  0.44316177856E+03  0.12499861498E+03 0.  0.
         23    2    1    2    0    0 -0.17189870458E+03 -0.48803639113E+02 -0.35741344088E+02  0.20482090588E+03  0.93505079966E+02 0.  0.
        -13    1    4    4    0    0 -0.53140595438E+02 -0.81358651478E+01 -0.56045616309E+02  0.77661042079E+02  0.10566000000E+00 0.  1.
         13    1    4    4    0    0 -0.11875810914E+03 -0.40667773965E+02  0.20304272222E+02  0.12715986380E+03  0.10566000000E+00 0. -1.
    9000005    1    3    3    0    0  0.49970105899E+02  0.78042527018E+02  0.16206469715E+03  0.18669122521E+03  0.10000000000E+01 0.  0.
    9000005    1    3    3    0    0  0.12192859868E+03 -0.29238887905E+02  0.22372896324E+03  0.25647055335E+03  0.10000000000E+01 0.  0.
<mgrwt>
<rscale>  0 0.21385307E+03</rscale>
<asrwt>0</asrwt>
<pdfrwt beam="1">  1        2 0.76771921E-01 0.21807250E+03</pdfrwt>
<pdfrwt beam="2">  1       -2 0.22917721E-01 0.21807250E+03</pdfrwt>
<totfact> 0.10345216E+03</totfact>
</mgrwt>
</event>
<event>
 8    3  0.7944584E-004  0.1374295E+03  0.7818608E-02  0.1228784E+00
         -2   -1    0    0    0  501 -0.00000000000E+00  0.00000000000E+00  0.28122171220E+03  0.28122171221E+03  0.25500000000E-02 0.  1.
          2   -1    0    0  501    0  0.00000000000E+00 -0.00000000000E+00 -0.53344044839E+02  0.53344044900E+02  0.25500000000E-02 0. -1.
         25    2    1    2    0    0 -0.69938414209E+01  0.56675170751E+02  0.11762137615E+03  0.18089131025E+03  0.12500355675E+03 0.  0.
         23    2    1    2    0    0  0.69938414209E+01 -0.56675170751E+02  0.11025629121E+03  0.15367444686E+03  0.90545000242E+02 0.  0.
        -13    1    4    4    0    0  0.32212569092E+02 -0.39172822089E+01  0.83079810684E+02  0.89192268806E+02  0.10566000000E+00 0.  1.
         13    1    4    4    0    0 -0.25218727672E+02 -0.52757888542E+02  0.27176480527E+02  0.64482178055E+02  0.10566000000E+00 0. -1.
    9000005    1    3    3    0    0 -0.29086678107E+02  0.84505613414E+02  0.11443402437E+03  0.14520116899E+03  0.10000000000E+01 0.  0.
    9000005    1    3    3    0    0  0.22092836686E+02 -0.27830442663E+02  0.31873517724E+01  0.35690141258E+02  0.10000000000E+01 0.  0.
<mgrwt>
<rscale>  0 0.12910862E+03</rscale>
<asrwt>0</asrwt>
<pdfrwt beam="2">  1        2 0.82067762E-02 0.13742954E+03</pdfrwt>
<pdfrwt beam="1">  1       -2 0.43264878E-01 0.13742954E+03</pdfrwt>
<totfact> 0.40202483E+03</totfact>
</mgrwt>
</event>
<event>
 8    3  0.7944584E-004  0.1312825E+03  0.7818608E-02  0.1239630E+00
         -2   -1    0    0    0  501 -0.00000000000E+00  0.00000000000E+00  0.24231123247E+04  0.24231123247E+04  0.25500000000E-02 0. -1.
          2   -1    0    0  501    0  0.00000000000E+00 -0.00000000000E+00 -0.68037917763E+01  0.68037922542E+01  0.25500000000E-02 0.  1.
         25    2    1    2    0    0 -0.39910054028E+02  0.41727693011E+01  0.18865285531E+04  0.18910909767E+04  0.12499950352E+03 0.  0.
         23    2    1    2    0    0  0.39910054028E+02 -0.41727693011E+01  0.52977997985E+03  0.53882514034E+03  0.89752328051E+02 0.  0.
        -13    1    4    4    0    0  0.25330252727E+02  0.42161116721E+02  0.23793591141E+03  0.24296643918E+03  0.10566000000E+00 0.  1.
         13    1    4    4    0    0  0.14579801301E+02 -0.46333886022E+02  0.29184406844E+03  0.29585870115E+03  0.10566000000E+00 0. -1.
    9000005    1    3    3    0    0  0.94980421725E+01  0.51743089493E+02  0.11977848794E+04  0.11989400224E+04  0.10000000000E+01 0.  0.
    9000005    1    3    3    0    0 -0.49408096200E+02 -0.47570320192E+02  0.68874367372E+03  0.69215095422E+03  0.10000000000E+01 0.  0.
<mgrwt>
<rscale>  0 0.12212635E+03</rscale>
<asrwt>0</asrwt>
<pdfrwt beam="2">  1        2 0.10467368E-02 0.13128252E+03</pdfrwt>
<pdfrwt beam="1">  1       -2 0.37278665E+00 0.13128252E+03</pdfrwt>
<totfact> 0.18190742E+02</totfact>
</mgrwt>
</event>
<event>
 8    3  0.7944584E-004  0.1318767E+03  0.7818608E-02  0.1238012E+00
          2   -1    0    0  501    0  0.00000000000E+00  0.00000000000E+00  0.21714233995E+04  0.21714233995E+04  0.25500000000E-02 0. -1.
         -2   -1    0    0    0  501 -0.00000000000E+00 -0.00000000000E+00 -0.80395792130E+01  0.80395796174E+01  0.25500000000E-02 0.  1.
         25    2    1    2    0    0  0.15064789302E+02 -0.39242678923E+02  0.67834797732E+03  0.69104808002E+03  0.12499813934E+03 0.  0.
         23    2    1    2    0    0 -0.15064789302E+02  0.39242678923E+02  0.14850358430E+04  0.14884148991E+04  0.90997369415E+02 0.  0.
        -13    1    4    4    0    0  0.95699982154E+00  0.67347553273E+02  0.92871746637E+03  0.93115667441E+03  0.10566000000E+00 0.  1.
         13    1    4    4    0    0 -0.16021789123E+02 -0.28104874350E+02  0.55631837663E+03  0.55725822473E+03  0.10566000000E+00 0. -1.
    9000005    1    3    3    0    0  0.62327840575E+02 -0.40788770034E+02  0.27411256617E+03  0.28405489329E+03  0.10000000000E+01 0.  0.
    9000005    1    3    3    0    0 -0.47263051273E+02  0.15460911111E+01  0.40423541115E+03  0.40699318673E+03  0.10000000000E+01 0.  0.
<mgrwt>
<rscale>  0 0.12313546E+03</rscale>
<asrwt>0</asrwt>
<pdfrwt beam="1">  1        2 0.33406526E+00 0.13187672E+03</pdfrwt>
<pdfrwt beam="2">  1       -2 0.12368579E-02 0.13187672E+03</pdfrwt>
<totfact> 0.92969223E+03</totfact>
</mgrwt>
</event>
<event>
 8    3  0.7944584E-004  0.1318218E+03  0.7818608E-02  0.1237927E+00
         -2   -1    0    0    0  501 -0.00000000000E+00  0.00000000000E+00  0.63121778424E+02  0.63121778476E+02  0.25500000000E-02 0.  1.
          2   -1    0    0  501    0  0.00000000000E+00 -0.00000000000E+00 -0.25586593266E+03  0.25586593267E+03  0.25500000000E-02 0. -1.
         25    2    1    2    0    0  0.39639698139E+02  0.13447091274E+02 -0.43065797869E+02  0.13867822752E+03  0.12499943164E+03 0.  0.
         23    2    1    2    0    0 -0.39639698139E+02 -0.13447091274E+02 -0.14967835637E+03  0.18030948363E+03  0.91409898744E+02 0.  0.
        -13    1    4    4    0    0 -0.40076027557E+02 -0.48878827487E+02 -0.11186957610E+03  0.12849140431E+03  0.10566000000E+00 0.  1.
         13    1    4    4    0    0  0.43632941799E+00  0.35431736213E+02 -0.37808780266E+02  0.51818079313E+02  0.10566000000E+00 0. -1.
    9000005    1    3    3    0    0 -0.14059691206E+02 -0.41051691282E+02  0.11256245117E+02  0.44839930063E+02  0.10000000000E+01 0.  0.
    9000005    1    3    3    0    0  0.53699389345E+02  0.54498782556E+02 -0.54322042986E+02  0.93838297460E+02  0.10000000000E+01 0.  0.
<mgrwt>
<rscale>  0 0.12318932E+03</rscale>
<asrwt>0</asrwt>
<pdfrwt beam="2">  1        2 0.39363989E-01 0.13182180E+03</pdfrwt>
<pdfrwt beam="1">  1       -2 0.97110430E-02 0.13182180E+03</pdfrwt>
<totfact> 0.85516633E+03</totfact>
</mgrwt>
</event>
<event>
 8    3  0.7944584E-004  0.1446963E+03  0.7818608E-02  0.1217208E+00
         -2   -1    0    0    0  501 -0.00000000000E+00  0.00000000000E+00  0.19991856891E+02  0.19991857054E+02  0.25500000000E-02 0.  1.
          2   -1    0    0  501    0  0.00000000000E+00 -0.00000000000E+00 -0.86101088934E+03  0.86101088935E+03  0.25500000000E-02 0. -1.
         25    2    1    2    0    0 -0.55349034079E+02 -0.47414339525E+02 -0.42899473550E+03  0.45273999549E+03  0.12500154105E+03 0.  0.
         23    2    1    2    0    0  0.55349034079E+02  0.47414339525E+02 -0.41202429695E+03  0.42826275091E+03  0.91287060264E+02 0.  0.
        -13    1    4    4    0    0  0.28397004869E+02  0.71757208908E+02 -0.32351437712E+03  0.33259141643E+03  0.10566000000E+00 0. -1.
         13    1    4    4    0    0  0.26952029210E+02 -0.24342869383E+02 -0.88509919832E+02  0.95671334479E+02  0.10566000000E+00 0.  1.
    9000005    1    3    3    0    0 -0.67045816127E+02 -0.81658426095E+02 -0.27633189960E+03  0.29584380803E+03  0.10000000000E+01 0.  0.
    9000005    1    3    3    0    0  0.11696782048E+02  0.34244086570E+02 -0.15266283590E+03  0.15689618746E+03  0.10000000000E+01 0.  0.
<mgrwt>
<rscale>  0 0.13715594E+03</rscale>
<asrwt>0</asrwt>
<pdfrwt beam="2">  1        2 0.13246319E+00 0.14469630E+03</pdfrwt>
<pdfrwt beam="1">  1       -2 0.30756710E-02 0.14469630E+03</pdfrwt>
<totfact> 0.12646264E+04</totfact>
</mgrwt>
</event>
<event>
 8    3  0.7944584E-004  0.1386562E+03  0.7818608E-02  0.1226356E+00
          2   -1    0    0  501    0  0.00000000000E+00  0.00000000000E+00  0.28661906255E+03  0.28661906256E+03  0.25500000000E-02 0. -1.
         -2   -1    0    0    0  501 -0.00000000000E+00 -0.00000000000E+00 -0.54082268516E+02  0.54082268576E+02  0.25500000000E-02 0.  1.
         25    2    1    2    0    0 -0.26141800812E+02 -0.54018209178E+02  0.11678922473E+03  0.18128781917E+03  0.12499675873E+03 0.  0.
         23    2    1    2    0    0  0.26141800812E+02  0.54018209178E+02  0.11574756930E+03  0.15941351197E+03  0.91726808107E+02 0.  0.
        -13    1    4    4    0    0  0.51308742340E+02  0.22512456709E+02  0.27554584474E+02  0.62439282804E+02  0.10566000000E+00 0.  1.
         13    1    4    4    0    0 -0.25166941528E+02  0.31505752470E+02  0.88192984828E+02  0.96974229162E+02  0.10566000000E+00 0. -1.
    9000005    1    3    3    0    0  0.64523512727E+01 -0.15128653761E+02 -0.25420182380E+02  0.30293475762E+02  0.10000000000E+01 0.  0.
    9000005    1    3    3    0    0 -0.32594152084E+02 -0.38889555418E+02  0.14220940711E+03  0.15099434341E+03  0.10000000000E+01 0.  0.
<mgrwt>
<rscale>  0 0.13074370E+03</rscale>
<asrwt>0</asrwt>
<pdfrwt beam="1">  1        2 0.44095240E-01 0.13865623E+03</pdfrwt>
<pdfrwt beam="2">  1       -2 0.83203490E-02 0.13865623E+03</pdfrwt>
<totfact> 0.96805484E+03</totfact>
</mgrwt>
</event>
<event>
 8    3  0.7944584E-004  0.1642810E+03  0.7818608E-02  0.1190971E+00
          2   -1    0    0  501    0  0.00000000000E+00  0.00000000000E+00  0.18677015291E+03  0.18677015293E+03  0.25500000000E-02 0. -1.
         -2   -1    0    0    0  501 -0.00000000000E+00 -0.00000000000E+00 -0.12779277276E+03  0.12779277279E+03  0.25500000000E-02 0.  1.
         25    2    1    2    0    0  0.41705244799E+02  0.98090495129E+02  0.57293048261E+02  0.17398487463E+03  0.12500868187E+03 0.  0.
         23    2    1    2    0    0 -0.41705244799E+02 -0.98090495129E+02  0.16843318885E+01  0.14057805109E+03  0.91642123475E+02 0.  0.
        -13    1    4    4    0    0 -0.57207019088E+02 -0.84373366627E+02  0.29299684832E+02  0.10606597345E+03  0.10566000000E+00 0. -1.
         13    1    4    4    0    0  0.15501774289E+02 -0.13717128503E+02 -0.27615352944E+02  0.34512077635E+02  0.10566000000E+00 0.  1.
    9000005    1    3    3    0    0 -0.14848535277E+02 -0.22488233494E+02  0.25373378842E+02  0.37027125184E+02  0.10000000000E+01 0.  0.
    9000005    1    3    3    0    0  0.56553780076E+02  0.12057872862E+03  0.31919669419E+02  0.13695774944E+03  0.10000000000E+01 0.  0.
<mgrwt>
<rscale>  0 0.15800181E+03</rscale>
<asrwt>0</asrwt>
<pdfrwt beam="1">  1        2 0.28733870E-01 0.16428099E+03</pdfrwt>
<pdfrwt beam="2">  1       -2 0.19660427E-01 0.16428099E+03</pdfrwt>
<totfact> 0.38668457E+03</totfact>
</mgrwt>
</event>
<event>
 8    3  0.7944584E-004  0.1307011E+03  0.7818608E-02  0.1241807E+00
          2   -1    0    0  501    0  0.00000000000E+00  0.00000000000E+00  0.20730922429E+02  0.20730922586E+02  0.25500000000E-02 0. -1.
         -2   -1    0    0    0  501 -0.00000000000E+00 -0.00000000000E+00 -0.65288800246E+03  0.65288800247E+03  0.25500000000E-02 0.  1.
         25    2    1    2    0    0 -0.33453586274E+02  0.18380645017E+02 -0.28373589265E+03  0.31239212230E+03  0.12500316297E+03 0.  0.
         23    2    1    2    0    0  0.33453586274E+02 -0.18380645017E+02 -0.34842118738E+03  0.36122680275E+03  0.87352668316E+02 0.  0.
        -13    1    4    4    0    0  0.34306277521E+02 -0.24008635076E+02 -0.35201336259E+03  0.35449506885E+03  0.10566000000E+00 0.  1.
         13    1    4    4    0    0 -0.85269124721E+00  0.56279900595E+01  0.35921752084E+01  0.67317338952E+01  0.10566000000E+00 0. -1.
    9000005    1    3    3    0    0  0.44665837781E+02  0.24734941151E+02 -0.91425088617E+02  0.10472058636E+03  0.10000000000E+01 0.  0.
    9000005    1    3    3    0    0 -0.78119424055E+02 -0.63542961341E+01 -0.19231080403E+03  0.20767153595E+03  0.10000000000E+01 0.  0.
<mgrwt>
<rscale>  0 0.12078553E+03</rscale>
<asrwt>0</asrwt>
<pdfrwt beam="1">  1        2 0.31893732E-02 0.13070111E+03</pdfrwt>
<pdfrwt beam="2">  1       -2 0.10044429E+00 0.13070111E+03</pdfrwt>
<totfact> 0.23339338E+03</totfact>
</mgrwt>
</event>
<event>
 8    3  0.7944584E-004  0.1292975E+03  0.7818608E-02  0.1242467E+00
         -2   -1    0    0    0  501 -0.00000000000E+00  0.00000000000E+00  0.12875602203E+02  0.12875602455E+02  0.25500000000E-02 0.  1.
          2   -1    0    0  501    0  0.00000000000E+00 -0.00000000000E+00 -0.11247472914E+04  0.11247472914E+04  0.25500000000E-02 0. -1.
         25    2    1    2    0    0 -0.24309051865E+02 -0.22405447527E+02 -0.81669825571E+03  0.82686993869E+03  0.12499968219E+03 0.  0.
         23    2    1    2    0    0  0.24309051865E+02  0.22405447527E+02 -0.29517343350E+03  0.31075295518E+03  0.91362515443E+02 0.  0.
        -13    1    4    4    0    0  0.33960216595E+02 -0.27903981456E+01 -0.33815667032E+02  0.48006178080E+02  0.10566000000E+00 0.  1.
         13    1    4    4    0    0 -0.96511647303E+01  0.25195845673E+02 -0.26135776647E+03  0.26274677710E+03  0.10566000000E+00 0. -1.
    9000005    1    3    3    0    0 -0.31305574362E+02  0.48650172288E+02 -0.37450142867E+03  0.37894484866E+03  0.10000000000E+01 0.  0.
    9000005    1    3    3    0    0  0.69965224976E+01 -0.71055619815E+02 -0.44219682703E+03  0.44792509002E+03  0.10000000000E+01 0.  0.
<mgrwt>
<rscale>  0 0.12038280E+03</rscale>
<asrwt>0</asrwt>
<pdfrwt beam="2">  1        2 0.17303797E+00 0.12929754E+03</pdfrwt>
<pdfrwt beam="1">  1       -2 0.19808628E-02 0.12929754E+03</pdfrwt>
<totfact> 0.16565784E+04</totfact>
</mgrwt>
</event>
<event>
 8    3  0.7944584E-004  0.1645115E+03  0.7818608E-02  0.1186652E+00
          2   -1    0    0  501    0  0.00000000000E+00  0.00000000000E+00  0.14981603149E+03  0.14981603151E+03  0.25500000000E-02 0. -1.
         -2   -1    0    0    0  501 -0.00000000000E+00 -0.00000000000E+00 -0.17722811354E+03  0.17722811356E+03  0.25500000000E-02 0.  1.
         25    2    1    2    0    0  0.93228774253E+01  0.10654243369E+03 -0.48666150329E+02  0.17155883525E+03  0.12500333413E+03 0.  0.
         23    2    1    2    0    0 -0.93228774253E+01 -0.10654243369E+03  0.21254068279E+02  0.15548530982E+03  0.11084105707E+03 0.  0.
        -13    1    4    4    0    0  0.43458388281E+02 -0.35756533429E+02 -0.17673169792E+02  0.58987399412E+02  0.10566000000E+00 0. -1.
         13    1    4    4    0    0 -0.52781265706E+02 -0.70785900262E+02  0.38927238071E+02  0.96497910409E+02  0.10566000000E+00 0.  1.
    9000005    1    3    3    0    0 -0.25418919246E+02  0.12314048979E+03 -0.41261151682E+02  0.13233738822E+03  0.10000000000E+01 0.  0.
    9000005    1    3    3    0    0  0.34741796671E+02 -0.16598056102E+02 -0.74049986470E+01  0.39221447032E+02  0.10000000000E+01 0.  0.
<mgrwt>
<rscale>  0 0.16182499E+03</rscale>
<asrwt>0</asrwt>
<pdfrwt beam="1">  1        2 0.23048620E-01 0.16451152E+03</pdfrwt>
<pdfrwt beam="2">  1       -2 0.27265863E-01 0.16451152E+03</pdfrwt>
<totfact> 0.27983368E+03</totfact>
</mgrwt>
</event>
<event>
 8    3  0.7944584E-004  0.1496596E+03  0.7818608E-02  0.1210033E+00
         -2   -1    0    0    0  501 -0.00000000000E+00  0.00000000000E+00  0.95811133296E+02  0.95811133330E+02  0.25500000000E-02 0.  1.
          2   -1    0    0  501    0  0.00000000000E+00 -0.00000000000E+00 -0.19961626559E+03  0.19961626560E+03  0.25500000000E-02 0. -1.
         25    2    1    2    0    0 -0.63785890581E+02 -0.52003980738E+02 -0.81745007579E+02  0.17052928806E+03  0.12499975188E+03 0.  0.
         23    2    1    2    0    0  0.63785890581E+02  0.52003980738E+02 -0.22060124712E+02  0.12489811088E+03  0.91322697884E+02 0.  0.
        -13    1    4    4    0    0  0.62626822955E+02  0.17096413794E+02  0.22116362642E+02  0.68582439287E+02  0.10566000000E+00 0.  1.
         13    1    4    4    0    0  0.11590676261E+01  0.34907566944E+02 -0.44176487355E+02  0.56315671591E+02  0.10566000000E+00 0. -1.
    9000005    1    3    3    0    0 -0.96511726420E+02 -0.38943123461E+02 -0.30727671727E+02  0.10851852382E+03  0.10000000000E+01 0.  0.
    9000005    1    3    3    0    0  0.32725835839E+02 -0.13060857277E+02 -0.51017335853E+02  0.62010764240E+02  0.10000000000E+01 0.  0.
<mgrwt>
<rscale>  0 0.14247768E+03</rscale>
<asrwt>0</asrwt>
<pdfrwt beam="2">  1        2 0.30710195E-01 0.14965959E+03</pdfrwt>
<pdfrwt beam="1">  1       -2 0.14740174E-01 0.14965959E+03</pdfrwt>
<totfact> 0.57771608E+03</totfact>
</mgrwt>
</event>
<event>
 8    3  0.7944584E-004  0.1678128E+03  0.7818608E-02  0.1187761E+00
          2   -1    0    0  501    0  0.00000000000E+00  0.00000000000E+00  0.10881003956E+04  0.10881003957E+04  0.25500000000E-02 0. -1.
         -2   -1    0    0    0  501 -0.00000000000E+00 -0.00000000000E+00 -0.22644953188E+02  0.22644953332E+02  0.25500000000E-02 0.  1.
         25    2    1    2    0    0 -0.84826201728E+02  0.73082226189E+02  0.48275151300E+03  0.51108722756E+03  0.12499853834E+03 0.  0.
         23    2    1    2    0    0  0.84826201728E+02 -0.73082226189E+02  0.58270392946E+03  0.59965812142E+03  0.86657353389E+02 0.  0.
        -13    1    4    4    0    0  0.27295131854E+02 -0.78884920703E+02  0.36279653476E+03  0.37227569318E+03  0.10566000000E+00 0. -1.
         13    1    4    4    0    0  0.57531069874E+02  0.58026945137E+01  0.21990739470E+03  0.22738242824E+03  0.10566000000E+00 0.  1.
    9000005    1    3    3    0    0 -0.74488433105E+02  0.93208259467E+02  0.47038552850E+03  0.48528326956E+03  0.10000000000E+01 0.  0.
    9000005    1    3    3    0    0 -0.10337768623E+02 -0.20126033278E+02  0.12365984506E+02  0.25803957999E+02  0.10000000000E+01 0.  0.
<mgrwt>
<rscale>  0 0.16083191E+03</rscale>
<asrwt>0</asrwt>
<pdfrwt beam="1">  1        2 0.16740007E+00 0.16781279E+03</pdfrwt>
<pdfrwt beam="2">  1       -2 0.34838388E-02 0.16781279E+03</pdfrwt>
<totfact> 0.77025998E+03</totfact>
</mgrwt>
</event>
<event>
 8    3  0.7944584E-004  0.2067174E+03  0.7818608E-02  0.1147967E+00
          2   -1    0    0  501    0  0.00000000000E+00  0.00000000000E+00  0.84793205397E+03  0.84793205397E+03  0.25500000000E-02 0.  1.
         -2   -1    0    0    0  501 -0.00000000000E+00 -0.00000000000E+00 -0.47447922403E+02  0.47447922472E+02  0.25500000000E-02 0. -1.
         25    2    1    2    0    0  0.15840889874E+03 -0.44878434880E+02  0.49176939608E+03  0.53345030062E+03  0.12499852474E+03 0.  0.
         23    2    1    2    0    0 -0.15840889874E+03  0.44878434880E+02  0.30871473549E+03  0.36192967583E+03  0.92632873339E+02 0.  0.
        -13    1    4    4    0    0 -0.75869776779E+02 -0.96071937788E+01  0.70554018097E+02  0.10404999680E+03  0.10566000000E+00 0. -1.
         13    1    4    4    0    0 -0.82539121961E+02  0.54485628658E+02  0.23816071739E+03  0.25787967903E+03  0.10566000000E+00 0.  1.
    9000005    1    3    3    0    0  0.16593933684E+03 -0.60842820589E+02  0.36596845888E+03  0.40641312137E+03  0.10000000000E+01 0.  0.
    9000005    1    3    3    0    0 -0.75304381037E+01  0.15964385710E+02  0.12580093720E+03  0.12703717925E+03  0.10000000000E+01 0.  0.
<mgrwt>
<rscale>  0 0.20211499E+03</rscale>
<asrwt>0</asrwt>
<pdfrwt beam="1">  1        2 0.13045108E+00 0.20671740E+03</pdfrwt>
<pdfrwt beam="2">  1       -2 0.72996804E-02 0.20671740E+03</pdfrwt>
<totfact> 0.35582225E+03</totfact>
</mgrwt>
</event>
<event>
 8    3  0.7944584E-004  0.1259232E+03  0.7818608E-02  0.1249709E+00
         -2   -1    0    0    0  501 -0.00000000000E+00  0.00000000000E+00  0.97243294216E+02  0.97243294249E+02  0.25500000000E-02 0. -1.
          2   -1    0    0  501    0  0.00000000000E+00 -0.00000000000E+00 -0.12302445316E+03  0.12302445319E+03  0.25500000000E-02 0.  1.
         25    2    1    2    0    0 -0.91172642831E+01  0.12183078307E+02 -0.29243538812E+02  0.12927429179E+03  0.12500042420E+03 0.  0.
         23    2    1    2    0    0  0.91172642831E+01 -0.12183078307E+02  0.34623798637E+01  0.90993455647E+02  0.89645239646E+02 0.  0.
        -13    1    4    4    0    0  0.57067501808E+01  0.65400770288E+01  0.44721697443E+02  0.45556349628E+02  0.10566000000E+00 0. -1.
         13    1    4    4    0    0  0.34105141023E+01 -0.18723155336E+02 -0.41259317580E+02  0.45437106019E+02  0.10566000000E+00 0.  1.
    9000005    1    3    3    0    0 -0.12452204894E+02 -0.56137798062E+02 -0.12931678663E+02  0.58946909088E+02  0.10000000000E+01 0.  0.
    9000005    1    3    3    0    0  0.33349406106E+01  0.68320876369E+02 -0.16311860149E+02  0.70327382705E+02  0.10000000000E+01 0.  0.
<mgrwt>
<rscale>  0 0.11607889E+03</rscale>
<asrwt>0</asrwt>
<pdfrwt beam="2">  1        2 0.18926839E-01 0.12592322E+03</pdfrwt>
<pdfrwt beam="1">  1       -2 0.14960507E-01 0.12592322E+03</pdfrwt>
<totfact> 0.95228498E+03</totfact>
</mgrwt>
</event>
<event>
 8    3  0.7944584E-004  0.1482338E+03  0.7818608E-02  0.1212248E+00
         -2   -1    0    0    0  501 -0.00000000000E+00  0.00000000000E+00  0.34383064025E+02  0.34383064120E+02  0.25500000000E-02 0.  1.
          2   -1    0    0  501    0  0.00000000000E+00 -0.00000000000E+00 -0.53588019928E+03  0.53588019928E+03  0.25500000000E-02 0. -1.
         25    2    1    2    0    0  0.48690382589E+02 -0.63077235292E+02 -0.31482369233E+03  0.34797588281E+03  0.12499506707E+03 0.  0.
         23    2    1    2    0    0 -0.48690382589E+02  0.63077235292E+02 -0.18667344292E+03  0.22228738060E+03  0.90637819438E+02 0.  0.
        -13    1    4    4    0    0 -0.66354050681E+02  0.35248581177E+02 -0.76246532142E+02  0.10704609916E+03  0.10566000000E+00 0.  1.
         13    1    4    4    0    0  0.17663668092E+02  0.27828654115E+02 -0.11042691078E+03  0.11524128144E+03  0.10566000000E+00 0. -1.
    9000005    1    3    3    0    0 -0.26337762619E+02 -0.67258172562E+02 -0.13579374503E+03  0.15381248553E+03  0.10000000000E+01 0.  0.
    9000005    1    3    3    0    0  0.75028145208E+02  0.41809372696E+01 -0.17902994731E+03  0.19416339728E+03  0.10000000000E+01 0.  0.
<mgrwt>
<rscale>  0 0.14080664E+03</rscale>
<asrwt>0</asrwt>
<pdfrwt beam="2">  1        2 0.82443101E-01 0.14823379E+03</pdfrwt>
<pdfrwt beam="1">  1       -2 0.52897026E-02 0.14823379E+03</pdfrwt>
<totfact> 0.99106161E+03</totfact>
</mgrwt>
</event>
<event>
 8    3  0.7944584E-004  0.2491190E+03  0.7818608E-02  0.1116540E+00
          2   -1    0    0  501    0  0.00000000000E+00  0.00000000000E+00  0.58007951860E+03  0.58007951861E+03  0.25500000000E-02 0. -1.
         -2   -1    0    0    0  501 -0.00000000000E+00 -0.00000000000E+00 -0.22176222907E+03  0.22176222908E+03  0.25500000000E-02 0.  1.
         25    2    1    2    0    0  0.63024386675E+01  0.21539603564E+03  0.47875414110E+03  0.53969047320E+03  0.12500042539E+03 0.  0.
         23    2    1    2    0    0 -0.63024386675E+01 -0.21539603564E+03 -0.12043685156E+03  0.26215127449E+03  0.88221780747E+02 0.  0.
        -13    1    4    4    0    0 -0.32173334738E+02 -0.11222918708E+03 -0.10026358590E+03  0.15389383263E+03  0.10566000000E+00 0.  1.
         13    1    4    4    0    0  0.25870896070E+02 -0.10316684856E+03 -0.20173265665E+02  0.10825744186E+03  0.10566000000E+00 0. -1.
    9000005    1    3    3    0    0  0.14310538215E+02 -0.13461430964E+02  0.29836789663E+02  0.35738433723E+02  0.10000000000E+01 0.  0.
    9000005    1    3    3    0    0 -0.80080995475E+01  0.22885746660E+03  0.44891735143E+03  0.50395203948E+03  0.10000000000E+01 0.  0.
<mgrwt>
<rscale>  0 0.24494769E+03</rscale>
<asrwt>0</asrwt>
<pdfrwt beam="1">  1        2 0.89243003E-01 0.24911901E+03</pdfrwt>
<pdfrwt beam="2">  1       -2 0.34117266E-01 0.24911901E+03</pdfrwt>
<totfact> 0.42617260E+02</totfact>
</mgrwt>
</event>
<event>
 8    3  0.7944584E-004  0.1363170E+03  0.7818608E-02  0.1230211E+00
          2   -1    0    0  501    0  0.00000000000E+00  0.00000000000E+00  0.14163737560E+03  0.14163737562E+03  0.25500000000E-02 0. -1.
         -2   -1    0    0    0  501 -0.00000000000E+00 -0.00000000000E+00 -0.10892060059E+03  0.10892060062E+03  0.25500000000E-02 0.  1.
         25    2    1    2    0    0 -0.23297618089E+02 -0.49117945807E+02  0.44517988496E+02  0.14340218844E+03  0.12500793871E+03 0.  0.
         23    2    1    2    0    0  0.23297618089E+02  0.49117945807E+02 -0.11801213484E+02  0.10715578780E+03  0.91584619949E+02 0.  0.
        -13    1    4    4    0    0 -0.17454930814E+02  0.19905237937E+02 -0.41243369014E+02  0.49009384394E+02  0.10566000000E+00 0.  1.
         13    1    4    4    0    0  0.40752548903E+02  0.29212707871E+02  0.29442155529E+02  0.58146403410E+02  0.10566000000E+00 0. -1.
    9000005    1    3    3    0    0  0.20172228948E+02  0.15039214762E+02  0.59369220763E+02  0.64488767824E+02  0.10000000000E+01 0.  0.
    9000005    1    3    3    0    0 -0.43469847038E+02 -0.64157160569E+02 -0.14851232267E+02  0.78913420618E+02  0.10000000000E+01 0.  0.
<mgrwt>
<rscale>  0 0.12816046E+03</rscale>
<asrwt>0</asrwt>
<pdfrwt beam="1">  1        2 0.21790365E-01 0.13631704E+03</pdfrwt>
<pdfrwt beam="2">  1       -2 0.16757016E-01 0.13631704E+03</pdfrwt>
<totfact> 0.67847225E+03</totfact>
</mgrwt>
</event>
<event>
 8    3  0.7944584E-004  0.1354455E+03  0.7818608E-02  0.1232370E+00
          2   -1    0    0  501    0  0.00000000000E+00  0.00000000000E+00  0.32109613142E+04  0.32109613142E+04  0.25500000000E-02 0.  1.
         -2   -1    0    0    0  501 -0.00000000000E+00 -0.00000000000E+00 -0.44583546744E+01  0.44583554036E+01  0.25500000000E-02 0. -1.
         25    2    1    2    0    0 -0.49753989967E+02 -0.15680828230E+02  0.18148793909E+04  0.18199265639E+04  0.12499658709E+03 0.  0.
         23    2    1    2    0    0  0.49753989967E+02  0.15680828230E+02  0.13916235687E+04  0.13954931057E+04  0.89797011472E+02 0.  0.
        -13    1    4    4    0    0  0.61540556533E+02  0.21323929786E+02  0.13557473517E+04  0.13573108866E+04  0.10566000000E+00 0.  1.
         13    1    4    4    0    0 -0.11786566566E+02 -0.56431015569E+01  0.35876216937E+02  0.38182219060E+02  0.10566000000E+00 0. -1.
    9000005    1    3    3    0    0  0.32400955382E+02 -0.33434125112E+02  0.89639711615E+03  0.89760595612E+03  0.10000000000E+01 0.  0.
    9000005    1    3    3    0    0 -0.82154945349E+02  0.17753296882E+02  0.91848227473E+03  0.92232060781E+03  0.10000000000E+01 0.  0.
<mgrwt>
<rscale>  0 0.12674339E+03</rscale>
<asrwt>0</asrwt>
<pdfrwt beam="1">  1        2 0.49399281E+00 0.13544554E+03</pdfrwt>
<pdfrwt beam="2">  1       -2 0.68590250E-03 0.13544554E+03</pdfrwt>
<totfact> 0.57593592E+03</totfact>
</mgrwt>
</event>
<event>
 8    3  0.7944584E-004  0.1368189E+03  0.7818608E-02  0.1229984E+00
         -2   -1    0    0    0  501 -0.00000000000E+00  0.00000000000E+00  0.61532771386E+02  0.61532771439E+02  0.25500000000E-02 0.  1.
          2   -1    0    0  501    0  0.00000000000E+00 -0.00000000000E+00 -0.24506229829E+03  0.24506229831E+03  0.25500000000E-02 0. -1.
         25    2    1    2    0    0  0.99414126576E+01 -0.54731887593E+02 -0.12668862488E+03  0.18646559852E+03  0.12500000221E+03 0.  0.
         23    2    1    2    0    0 -0.99414126576E+01  0.54731887593E+02 -0.56840902033E+02  0.12012947123E+03  0.90032163746E+02 0.  0.
        -13    1    4    4    0    0 -0.51696905847E+01 -0.91153099980E+01 -0.55092366983E+02  0.56080251791E+02  0.10566000000E+00 0. -1.
         13    1    4    4    0    0 -0.47717220729E+01  0.63847197591E+02 -0.17485350494E+01  0.64049219438E+02  0.10566000000E+00 0.  1.
    9000005    1    3    3    0    0  0.19596435279E+02 -0.17117653375E+02  0.21188865780E+02  0.33570855898E+02  0.10000000000E+01 0.  0.
    9000005    1    3    3    0    0 -0.96550226212E+01 -0.37614234218E+02 -0.14787749065E+03  0.15289474262E+03  0.10000000000E+01 0.  0.
<mgrwt>
<rscale>  0 0.12831068E+03</rscale>
<asrwt>0</asrwt>
<pdfrwt beam="2">  1        2 0.37701892E-01 0.13681890E+03</pdfrwt>
<pdfrwt beam="1">  1       -2 0.94665804E-02 0.13681890E+03</pdfrwt>
<totfact> 0.93436910E+03</totfact>
</mgrwt>
</event>
<event>
 8    3  0.7944584E-004  0.1270786E+03  0.7818608E-02  0.1247083E+00
         -2   -1    0    0    0  501 -0.00000000000E+00  0.00000000000E+00  0.13304290125E+02  0.13304290370E+02  0.25500000000E-02 0.  1.
          2   -1    0    0  501    0  0.00000000000E+00 -0.00000000000E+00 -0.95120002201E+03  0.95120002202E+03  0.25500000000E-02 0. -1.
         25    2    1    2    0    0  0.42484843112E+01  0.22479123045E+02 -0.63455313988E+03  0.64715273157E+03  0.12500244023E+03 0.  0.
         23    2    1    2    0    0 -0.42484843112E+01 -0.22479123045E+02 -0.30334259201E+03  0.31735158081E+03  0.90398767275E+02 0.  0.
        -13    1    4    4    0    0  0.12896310024E+02  0.99057041649E+01 -0.53571347214E+01  0.17121560785E+02  0.10566000000E+00 0.  1.
         13    1    4    4    0    0 -0.17144794336E+02 -0.32384827210E+02 -0.29798545729E+03  0.30023002003E+03  0.10566000000E+00 0. -1.
    9000005    1    3    3    0    0 -0.36193402736E+02  0.59960881894E+02 -0.40905326604E+03  0.41500704116E+03  0.10000000000E+01 0.  0.
    9000005    1    3    3    0    0  0.40441887047E+02 -0.37481758848E+02 -0.22549987384E+03  0.23214569041E+03  0.10000000000E+01 0.  0.
<mgrwt>
<rscale>  0 0.11761559E+03</rscale>
<asrwt>0</asrwt>
<pdfrwt beam="2">  1        2 0.14633841E+00 0.12707860E+03</pdfrwt>
<pdfrwt beam="1">  1       -2 0.20468146E-02 0.12707860E+03</pdfrwt>
<totfact> 0.19944350E+04</totfact>
</mgrwt>
</event>
<event>
 8    3  0.7944584E-004  0.1706630E+03  0.7818608E-02  0.1182970E+00
          2   -1    0    0  501    0  0.00000000000E+00  0.00000000000E+00  0.11662409713E+04  0.11662409713E+04  0.25500000000E-02 0.  1.
         -2   -1    0    0    0  501 -0.00000000000E+00 -0.00000000000E+00 -0.22092858844E+02  0.22092858991E+02  0.25500000000E-02 0. -1.
         25    2    1    2    0    0  0.19905297779E+00 -0.11619730869E+03  0.57279284049E+03  0.59767675076E+03  0.12499602443E+03 0.  0.
         23    2    1    2    0    0 -0.19905297779E+00  0.11619730869E+03  0.57135527201E+03  0.59065707957E+03  0.94483250500E+02 0.  0.
        -13    1    4    4    0    0 -0.31357391223E+02  0.60125795520E+02  0.43145459570E+03  0.43675104646E+03  0.10566000000E+00 0.  1.
         13    1    4    4    0    0  0.31158338245E+02  0.56071513168E+02  0.13990067631E+03  0.15390603311E+03  0.10566000000E+00 0. -1.
    9000005    1    3    3    0    0 -0.16370418446E+02  0.22686211572E+02  0.61036376164E+02  0.67149787869E+02  0.10000000000E+01 0.  0.
    9000005    1    3    3    0    0  0.16569471424E+02 -0.13888352026E+03  0.51175646432E+03  0.53052696290E+03  0.10000000000E+01 0.  0.
<mgrwt>
<rscale>  0 0.16517930E+03</rscale>
<asrwt>0</asrwt>
<pdfrwt beam="1">  1        2 0.17942171E+00 0.17066300E+03</pdfrwt>
<pdfrwt beam="2">  1       -2 0.33989009E-02 0.17066300E+03</pdfrwt>
<totfact> 0.72130863E+03</totfact>
</mgrwt>
</event>
<event>
 8    3  0.7944584E-004  0.1375305E+03  0.7818608E-02  0.1227843E+00
          2   -1    0    0  501    0  0.00000000000E+00  0.00000000000E+00  0.19010504371E+04  0.19010504372E+04  0.25500000000E-02 0.  1.
         -2   -1    0    0    0  501 -0.00000000000E+00 -0.00000000000E+00 -0.83230079045E+01  0.83230082951E+01  0.25500000000E-02 0. -1.
         25    2    1    2    0    0  0.18974414698E+02 -0.54129115464E+02  0.12423405787E+04  0.12499299004E+04  0.12499861127E+03 0.  0.
         23    2    1    2    0    0 -0.18974414698E+02  0.54129115464E+02  0.65038685051E+03  0.65944354504E+03  0.92589114998E+02 0.  0.
        -13    1    4    4    0    0 -0.17652085025E+01  0.53493208495E+02  0.15922566983E+03  0.16798054772E+03  0.10566000000E+00 0. -1.
         13    1    4    4    0    0 -0.17209206196E+02  0.63590696902E+00  0.49116118068E+03  0.49146299731E+03  0.10566000000E+00 0.  1.
    9000005    1    3    3    0    0  0.24609565067E+02 -0.71559802564E+02  0.38363981226E+03  0.39103317198E+03  0.10000000000E+01 0.  0.
    9000005    1    3    3    0    0 -0.56351503689E+01  0.17430687100E+02  0.85870076647E+03  0.85889672843E+03  0.10000000000E+01 0.  0.
<mgrwt>
<rscale>  0 0.12973955E+03</rscale>
<asrwt>0</asrwt>
<pdfrwt beam="1">  1        2 0.29246948E+00 0.13753051E+03</pdfrwt>
<pdfrwt beam="2">  1       -2 0.12804620E-02 0.13753051E+03</pdfrwt>
<totfact> 0.12189297E+04</totfact>
</mgrwt>
</event>
<event>
 8    3  0.7944584E-004  0.1298799E+03  0.7818608E-02  0.1242198E+00
         -2   -1    0    0    0  501 -0.00000000000E+00  0.00000000000E+00  0.12639260981E+02  0.12639261239E+02  0.25500000000E-02 0.  1.
          2   -1    0    0  501    0  0.00000000000E+00 -0.00000000000E+00 -0.10143614329E+04  0.10143614329E+04  0.25500000000E-02 0. -1.
         25    2    1    2    0    0 -0.17334565762E+02  0.30712472165E+02 -0.59605508905E+03  0.61004135474E+03  0.12500016879E+03 0.  0.
         23    2    1    2    0    0  0.17334565762E+02 -0.30712472165E+02 -0.40566708287E+03  0.41695933940E+03  0.89697076162E+02 0.  0.
        -13    1    4    4    0    0  0.48865099714E+02 -0.40306163509E+02 -0.25868459885E+03  0.26632708768E+03  0.10566000000E+00 0. -1.
         13    1    4    4    0    0 -0.31530533952E+02  0.95936913446E+01 -0.14698248403E+03  0.15063225172E+03  0.10566000000E+00 0.  1.
    9000005    1    3    3    0    0 -0.69795380734E+02  0.30284731172E+02 -0.39430145133E+03  0.40157588902E+03  0.10000000000E+01 0.  0.
    9000005    1    3    3    0    0  0.52460814972E+02  0.42774099279E+00 -0.20175363772E+03  0.20846546573E+03  0.10000000000E+01 0.  0.
<mgrwt>
<rscale>  0 0.12054643E+03</rscale>
<asrwt>0</asrwt>
<pdfrwt beam="2">  1        2 0.15605554E+00 0.12987989E+03</pdfrwt>
<pdfrwt beam="1">  1       -2 0.19445025E-02 0.12987989E+03</pdfrwt>
<totfact> 0.19717514E+04</totfact>
</mgrwt>
</event>
<event>
 8    3  0.7944584E-004  0.1264386E+03  0.7818608E-02  0.1246731E+00
          2   -1    0    0  501    0  0.00000000000E+00  0.00000000000E+00  0.86418383987E+03  0.86418383987E+03  0.25500000000E-02 0. -1.
         -2   -1    0    0    0  501 -0.00000000000E+00 -0.00000000000E+00 -0.14420926608E+02  0.14420926834E+02  0.25500000000E-02 0.  1.
         25    2    1    2    0    0  0.80641872431E+01  0.17188643674E+02  0.53378203641E+03  0.54855261940E+03  0.12500493299E+03 0.  0.
         23    2    1    2    0    0 -0.80641872431E+01 -0.17188643674E+02  0.31598087685E+03  0.33005214730E+03  0.93434601825E+02 0.  0.
        -13    1    4    4    0    0  0.15923256695E+01 -0.50584739722E+02  0.10905432625E+03  0.12022565712E+03  0.10566000000E+00 0.  1.
         13    1    4    4    0    0 -0.96565129126E+01  0.33396096047E+02  0.20692655060E+03  0.20982649018E+03  0.10566000000E+00 0. -1.
    9000005    1    3    3    0    0 -0.30132062580E+01 -0.37071265441E+02  0.53959281828E+02  0.65543590295E+02  0.10000000000E+01 0.  0.
    9000005    1    3    3    0    0  0.11077393501E+02  0.54259909115E+02  0.47982275458E+03  0.48300902911E+03  0.10000000000E+01 0.  0.
<mgrwt>
<rscale>  0 0.11782385E+03</rscale>
<asrwt>0</asrwt>
<pdfrwt beam="1">  1        2 0.13295141E+00 0.12643858E+03</pdfrwt>
<pdfrwt beam="2">  1       -2 0.22186032E-02 0.12643858E+03</pdfrwt>
<totfact> 0.20105260E+04</totfact>
</mgrwt>
</event>
<event>
 8    3  0.7944584E-004  0.2241681E+03  0.7818608E-02  0.1133964E+00
         -2   -1    0    0    0  501 -0.00000000000E+00  0.00000000000E+00  0.17364909675E+03  0.17364909676E+03  0.25500000000E-02 0.  1.
          2   -1    0    0  501    0  0.00000000000E+00 -0.00000000000E+00 -0.30202493991E+03  0.30202493992E+03  0.25500000000E-02 0. -1.
         25    2    1    2    0    0 -0.12968326260E+03 -0.13346654577E+03  0.13012032005E+02  0.22454544659E+03  0.12498110725E+03 0.  0.
         23    2    1    2    0    0  0.12968326260E+03  0.13346654577E+03 -0.14138787517E+03  0.25112859009E+03  0.91891077260E+02 0.  0.
        -13    1    4    4    0    0  0.76019282726E+02  0.39203821488E+02 -0.10773543054E+03  0.13756018728E+03  0.10566000000E+00 0. -1.
         13    1    4    4    0    0  0.53663979876E+02  0.94262724280E+02 -0.33652444621E+02  0.11356840281E+03  0.10566000000E+00 0.  1.
    9000005    1    3    3    0    0 -0.98473532730E+02 -0.76645316157E+02 -0.49718814802E+02  0.13432982425E+03  0.10000000000E+01 0.  0.
    9000005    1    3    3    0    0 -0.31209729872E+02 -0.56821229610E+02  0.62730846807E+02  0.90215622340E+02  0.10000000000E+01 0.  0.
<mgrwt>
<rscale>  0 0.21989158E+03</rscale>
<asrwt>0</asrwt>
<pdfrwt beam="2">  1        2 0.46465375E-01 0.22416812E+03</pdfrwt>
<pdfrwt beam="1">  1       -2 0.26715246E-01 0.22416812E+03</pdfrwt>
<totfact> 0.13647110E+03</totfact>
</mgrwt>
</event>
<event>
 8    3  0.7944584E-004  0.3136553E+03  0.7818608E-02  0.1080110E+00
         -2   -1    0    0    0  501 -0.00000000000E+00  0.00000000000E+00  0.12303116233E+04  0.12303116233E+04  0.25500000000E-02 0.  1.
          2   -1    0    0  501    0  0.00000000000E+00 -0.00000000000E+00 -0.89908924293E+02  0.89908924329E+02  0.25500000000E-02 0. -1.
         25    2    1    2    0    0 -0.12696420437E+03  0.25814345446E+03  0.32823728493E+03  0.45400372055E+03  0.12498684243E+03 0.  0.
         23    2    1    2    0    0  0.12696420437E+03 -0.25814345446E+03  0.81216541412E+03  0.86621682712E+03  0.89224320843E+02 0.  0.
        -13    1    4    4    0    0  0.53149526387E+02 -0.11274602244E+03  0.48372273518E+03  0.49952400686E+03  0.10566000000E+00 0.  1.
         13    1    4    4    0    0  0.73814677988E+02 -0.14539743202E+03  0.32844267894E+03  0.36669282027E+03  0.10566000000E+00 0. -1.
    9000005    1    3    3    0    0 -0.35046027305E+02  0.34835501159E+02  0.13800274956E+03  0.14658613529E+03  0.10000000000E+01 0.  0.
    9000005    1    3    3    0    0 -0.91918177070E+02  0.22330795330E+03  0.19023453537E+03  0.30741758526E+03  0.10000000000E+01 0.  0.
<mgrwt>
<rscale>  0 0.31049295E+03</rscale>
<asrwt>0</asrwt>
<pdfrwt beam="2">  1        2 0.13832144E-01 0.31365533E+03</pdfrwt>
<pdfrwt beam="1">  1       -2 0.18927869E+00 0.31365533E+03</pdfrwt>
<totfact> 0.72450445E+01</totfact>
</mgrwt>
</event>
<event>
 8    3  0.7944584E-004  0.1288942E+03  0.7818608E-02  0.1242754E+00
          2   -1    0    0  501    0  0.00000000000E+00  0.00000000000E+00  0.49145216724E+03  0.49145216725E+03  0.25500000000E-02 0. -1.
         -2   -1    0    0    0  501 -0.00000000000E+00 -0.00000000000E+00 -0.32010449363E+02  0.32010449464E+02  0.25500000000E-02 0.  1.
         25    2    1    2    0    0 -0.25457124829E+02  0.18418326820E+02  0.36748469888E+03  0.38943384581E+03  0.12500566542E+03 0.  0.
         23    2    1    2    0    0  0.25457124829E+02 -0.18418326820E+02  0.91957019002E+02  0.13402877090E+03  0.92305569271E+02 0.  0.
        -13    1    4    4    0    0  0.35143670115E+02 -0.26093421606E+01 -0.47510729663E+01  0.35559387987E+02  0.10566000000E+00 0.  1.
         13    1    4    4    0    0 -0.96865452854E+01 -0.15808984659E+02  0.96708091969E+02  0.98469382915E+02  0.10566000000E+00 0. -1.
    9000005    1    3    3    0    0 -0.31674212226E+02  0.42247076301E+02  0.35974450152E+03  0.36360029916E+03  0.10000000000E+01 0.  0.
    9000005    1    3    3    0    0  0.62170873971E+01 -0.23828749481E+02  0.77401973613E+01  0.25833546654E+02  0.10000000000E+01 0.  0.
<mgrwt>
<rscale>  0 0.12020818E+03</rscale>
<asrwt>0</asrwt>
<pdfrwt beam="1">  1        2 0.75608017E-01 0.12889421E+03</pdfrwt>
<pdfrwt beam="2">  1       -2 0.49246851E-02 0.12889421E+03</pdfrwt>
<totfact> 0.12023525E+04</totfact>
</mgrwt>
</event>
<event>
 8    3  0.7944584E-004  0.1836965E+03  0.7818608E-02  0.1169910E+00
         -2   -1    0    0    0  501 -0.00000000000E+00  0.00000000000E+00  0.17408766062E+03  0.17408766064E+03  0.25500000000E-02 0.  1.
          2   -1    0    0  501    0  0.00000000000E+00 -0.00000000000E+00 -0.34159640909E+03  0.34159640910E+03  0.25500000000E-02 0. -1.
         25    2    1    2    0    0  0.12660880471E+03  0.45753055914E+02  0.95560627311E+02  0.20706581289E+03  0.12498514240E+03 0.  0.
         23    2    1    2    0    0 -0.12660880471E+03 -0.45753055914E+02 -0.26306937578E+03  0.30861825685E+03  0.88975279886E+02 0.  0.
        -13    1    4    4    0    0 -0.79509146622E+02 -0.67731475748E+02 -0.13714554250E+03  0.17238958262E+03  0.10566000000E+00 0. -1.
         13    1    4    4    0    0 -0.47099658085E+02  0.21978419834E+02 -0.12592383328E+03  0.13622867423E+03  0.10566000000E+00 0.  1.
    9000005    1    3    3    0    0  0.14767491605E+03  0.58258498415E+02  0.87411575131E+02  0.18122835577E+03  0.10000000000E+01 0.  0.
    9000005    1    3    3    0    0 -0.21066111341E+02 -0.12505442501E+02  0.81490521801E+01  0.25837457123E+02  0.10000000000E+01 0.  0.
<mgrwt>
<rscale>  0 0.17784034E+03</rscale>
<asrwt>0</asrwt>
<pdfrwt beam="2">  1        2 0.52553294E-01 0.18369654E+03</pdfrwt>
<pdfrwt beam="1">  1       -2 0.26782717E-01 0.18369654E+03</pdfrwt>
<totfact> 0.11858132E+03</totfact>
</mgrwt>
</event>
<event>
 8    3  0.7944584E-004  0.1594099E+03  0.7818608E-02  0.1194784E+00
          2   -1    0    0  501    0  0.00000000000E+00  0.00000000000E+00  0.30261404489E+03  0.30261404490E+03  0.25500000000E-02 0.  1.
         -2   -1    0    0    0  501 -0.00000000000E+00 -0.00000000000E+00 -0.86882864038E+02  0.86882864075E+02  0.25500000000E-02 0. -1.
         25    2    1    2    0    0  0.88683445984E+02 -0.43837738172E+02  0.18592864295E+03  0.24491011376E+03  0.12500001068E+03 0.  0.
         23    2    1    2    0    0 -0.88683445984E+02  0.43837738172E+02  0.29802537897E+02  0.14458679522E+03  0.10114667175E+03 0.  0.
        -13    1    4    4    0    0  0.26673240509E+01 -0.86575057667E+01  0.37850737230E+02  0.38919872772E+02  0.10566000000E+00 0.  1.
         13    1    4    4    0    0 -0.91350770035E+02  0.52495243939E+02 -0.80481993329E+01  0.10566692244E+03  0.10566000000E+00 0. -1.
    9000005    1    3    3    0    0  0.29855354687E+02  0.10679134115E+02  0.15616532572E+03  0.15935493424E+03  0.10000000000E+01 0.  0.
    9000005    1    3    3    0    0  0.58828091297E+02 -0.54516872287E+02  0.29763317230E+02  0.85555179517E+02  0.10000000000E+01 0.  0.
<mgrwt>
<rscale>  0 0.15472542E+03</rscale>
<asrwt>0</asrwt>
<pdfrwt beam="1">  1        2 0.46556006E-01 0.15940986E+03</pdfrwt>
<pdfrwt beam="2">  1       -2 0.13366595E-01 0.15940986E+03</pdfrwt>
<totfact> 0.43528062E+03</totfact>
</mgrwt>
</event>
<event>
 8    3  0.7944584E-004  0.1273741E+03  0.7818608E-02  0.1245398E+00
          2   -1    0    0  501    0  0.00000000000E+00  0.00000000000E+00  0.22727849446E+03  0.22727849447E+03  0.25500000000E-02 0. -1.
         -2   -1    0    0    0  501 -0.00000000000E+00 -0.00000000000E+00 -0.56668162250E+02  0.56668162308E+02  0.25500000000E-02 0.  1.
         25    2    1    2    0    0 -0.16299261177E+02 -0.18272503993E+02  0.12262898585E+03  0.17681074032E+03  0.12499847761E+03 0.  0.
         23    2    1    2    0    0  0.16299261177E+02  0.18272503993E+02  0.47981346353E+02  0.10713591646E+03  0.92608556194E+02 0.  0.
        -13    1    4    4    0    0  0.13602952719E+02  0.22788044524E+02 -0.23507691798E+02  0.35453603958E+02  0.10566000000E+00 0.  1.
         13    1    4    4    0    0  0.26963084584E+01 -0.45155405304E+01  0.71489038151E+02  0.71682312500E+02  0.10566000000E+00 0. -1.
    9000005    1    3    3    0    0 -0.65869610736E+02 -0.19390323489E+02  0.10230287458E+03  0.12321391322E+03  0.10000000000E+01 0.  0.
    9000005    1    3    3    0    0  0.49570349559E+02  0.11178194957E+01  0.20326111272E+02  0.53596827100E+02  0.10000000000E+01 0.  0.
<mgrwt>
<rscale>  0 0.11861565E+03</rscale>
<asrwt>0</asrwt>
<pdfrwt beam="1">  1        2 0.34965922E-01 0.12737413E+03</pdfrwt>
<pdfrwt beam="2">  1       -2 0.87181788E-02 0.12737413E+03</pdfrwt>
<totfact> 0.11448752E+04</totfact>
</mgrwt>
</event>
<event>
 8    3  0.7944584E-004  0.1667080E+03  0.7818608E-02  0.1188055E+00
         -2   -1    0    0    0  501 -0.00000000000E+00  0.00000000000E+00  0.25031047271E+02  0.25031047401E+02  0.25500000000E-02 0. -1.
          2   -1    0    0  501    0  0.00000000000E+00 -0.00000000000E+00 -0.11106032354E+04  0.11106032354E+04  0.25500000000E-02 0.  1.
         25    2    1    2    0    0  0.93751944681E+02  0.58107022303E+02 -0.78587664053E+03  0.80336396664E+03  0.12500286234E+03 0.  0.
         23    2    1    2    0    0 -0.93751944681E+02 -0.58107022303E+02 -0.29969554761E+03  0.33227031618E+03  0.91762130430E+02 0.  0.
        -13    1    4    4    0    0 -0.44443792286E+02 -0.14689877835E+02 -0.32174640738E+02  0.56800192378E+02  0.10566000000E+00 0. -1.
         13    1    4    4    0    0 -0.49308152395E+02 -0.43417144468E+02 -0.26752090687E+03  0.27547012380E+03  0.10566000000E+00 0.  1.
    9000005    1    3    3    0    0  0.11348983913E+03  0.26984487149E+02 -0.70359319625E+03  0.71319877449E+03  0.10000000000E+01 0.  0.
    9000005    1    3    3    0    0 -0.19737894452E+02  0.31122535155E+02 -0.82283444282E+02  0.90165192146E+02  0.10000000000E+01 0.  0.
<mgrwt>
<rscale>  0 0.16056995E+03</rscale>
<asrwt>0</asrwt>
<pdfrwt beam="2">  1        2 0.17086200E+00 0.16670803E+03</pdfrwt>
<pdfrwt beam="1">  1       -2 0.38509312E-02 0.16670803E+03</pdfrwt>
<totfact> 0.64382379E+03</totfact>
</mgrwt>
</event>
<event>
 8    3  0.7944584E-004  0.1609339E+03  0.7818608E-02  0.1194778E+00
          2   -1    0    0  501    0  0.00000000000E+00  0.00000000000E+00  0.23389921981E+03  0.23389921982E+03  0.25500000000E-02 0. -1.
         -2   -1    0    0    0  501 -0.00000000000E+00 -0.00000000000E+00 -0.95215031440E+02  0.95215031474E+02  0.25500000000E-02 0.  1.
         25    2    1    2    0    0  0.65522504741E+02  0.77340660954E+02  0.76495532121E+02  0.17818891473E+03  0.12499978574E+03 0.  0.
         23    2    1    2    0    0 -0.65522504741E+02 -0.77340660954E+02  0.62188656247E+02  0.15092533656E+03  0.92931435941E+02 0.  0.
        -13    1    4    4    0    0 -0.37107784365E+02 -0.53033777604E+02  0.85215838113E+02  0.10701083803E+03  0.10566000000E+00 0. -1.
         13    1    4    4    0    0 -0.28414720376E+02 -0.24306883350E+02 -0.23027181866E+02  0.43914498528E+02  0.10566000000E+00 0.  1.
    9000005    1    3    3    0    0  0.38448271235E+01 -0.22275151681E+02 -0.16990269086E+02  0.28295482354E+02  0.10000000000E+01 0.  0.
    9000005    1    3    3    0    0  0.61677677617E+02  0.99615812635E+02  0.93485801207E+02  0.14989343238E+03  0.10000000000E+01 0.  0.
<mgrwt>
<rscale>  0 0.15473019E+03</rscale>
<asrwt>0</asrwt>
<pdfrwt beam="1">  1        2 0.35984495E-01 0.16093391E+03</pdfrwt>
<pdfrwt beam="2">  1       -2 0.14648466E-01 0.16093391E+03</pdfrwt>
<totfact> 0.49402041E+03</totfact>
</mgrwt>
</event>
<event>
 8    3  0.7944584E-004  0.1994936E+03  0.7818608E-02  0.1154451E+00
          2   -1    0    0  501    0  0.00000000000E+00  0.00000000000E+00  0.20111271944E+04  0.20111271944E+04  0.25500000000E-02 0. -1.
         -2   -1    0    0    0  501 -0.00000000000E+00 -0.00000000000E+00 -0.18158235066E+02  0.18158235245E+02  0.25500000000E-02 0.  1.
         25    2    1    2    0    0  0.11930524716E+03 -0.99702340367E+02  0.93302846556E+03  0.95411729893E+03  0.12499361544E+03 0.  0.
         23    2    1    2    0    0 -0.11930524716E+03  0.99702340367E+02  0.10599404938E+04  0.10751681308E+04  0.91314622541E+02 0.  0.
        -13    1    4    4    0    0 -0.14618092249E+02 -0.78116845132E+01  0.30544426913E+03  0.30589364777E+03  0.10566000000E+00 0. -1.
         13    1    4    4    0    0 -0.10468715491E+03  0.10751402488E+03  0.75449622468E+03  0.76927448298E+03  0.10566000000E+00 0.  1.
    9000005    1    3    3    0    0  0.14478084715E+03 -0.79180977400E+02  0.82028720367E+03  0.83672170845E+03  0.10000000000E+01 0.  0.
    9000005    1    3    3    0    0 -0.25475599986E+02 -0.20521362968E+02  0.11274126189E+03  0.11739559049E+03  0.10000000000E+01 0.  0.
<mgrwt>
<rscale>  0 0.19451510E+03</rscale>
<asrwt>0</asrwt>
<pdfrwt beam="1">  1        2 0.30940432E+00 0.19949362E+03</pdfrwt>
<pdfrwt beam="2">  1       -2 0.27935734E-02 0.19949362E+03</pdfrwt>
<totfact> 0.34538704E+03</totfact>
</mgrwt>
</event>
<event>
 8    3  0.7944584E-004  0.1254743E+03  0.7818608E-02  0.1250874E+00
          2   -1    0    0  501    0  0.00000000000E+00  0.00000000000E+00  0.46647114230E+03  0.46647114231E+03  0.25500000000E-02 0. -1.
         -2   -1    0    0    0  501 -0.00000000000E+00 -0.00000000000E+00 -0.25302366675E+02  0.25302366804E+02  0.25500000000E-02 0.  1.
         25    2    1    2    0    0 -0.33694060689E+01  0.10333141908E+02  0.28941527335E+03  0.31544412043E+03  0.12500266375E+03 0.  0.
         23    2    1    2    0    0  0.33694060689E+01 -0.10333141908E+02  0.15175350228E+03  0.17632938869E+03  0.89133613986E+02 0.  0.
        -13    1    4    4    0    0  0.30146358921E+02  0.28333393615E+02  0.55748786697E+02  0.69422781075E+02  0.10566000000E+00 0.  1.
         13    1    4    4    0    0 -0.26776952852E+02 -0.38666535522E+02  0.96004715579E+02  0.10690660761E+03  0.10566000000E+00 0. -1.
    9000005    1    3    3    0    0  0.15356031122E+02 -0.42214276819E+02  0.22835063954E+03  0.23272917187E+03  0.10000000000E+01 0.  0.
    9000005    1    3    3    0    0 -0.18725437191E+02  0.52547418727E+02  0.61064633807E+02  0.82714948557E+02  0.10000000000E+01 0.  0.
<mgrwt>
<rscale>  0 0.11540579E+03</rscale>
<asrwt>0</asrwt>
<pdfrwt beam="1">  1        2 0.71764789E-01 0.12547427E+03</pdfrwt>
<pdfrwt beam="2">  1       -2 0.38926719E-02 0.12547427E+03</pdfrwt>
<totfact> 0.18024560E+04</totfact>
</mgrwt>
</event>
<event>
 8    3  0.7944584E-004  0.1719335E+03  0.7818608E-02  0.1182226E+00
          2   -1    0    0  501    0  0.00000000000E+00  0.00000000000E+00  0.33466416310E+03  0.33466416311E+03  0.25500000000E-02 0. -1.
         -2   -1    0    0    0  501 -0.00000000000E+00 -0.00000000000E+00 -0.12405062231E+03  0.12405062233E+03  0.25500000000E-02 0.  1.
         25    2    1    2    0    0 -0.10200395226E+03 -0.59426215645E+02  0.25115491373E+03  0.30436804402E+03  0.12499933659E+03 0.  0.
         23    2    1    2    0    0  0.10200395226E+03  0.59426215645E+02 -0.40541372937E+02  0.15434674142E+03  0.90791146508E+02 0.  0.
        -13    1    4    4    0    0  0.52476015572E+02 -0.62317088439E+01 -0.48489158735E+02  0.71720123287E+02  0.10566000000E+00 0.  1.
         13    1    4    4    0    0  0.49527936689E+02  0.65657924488E+02  0.79477857978E+01  0.82626618132E+02  0.10566000000E+00 0. -1.
    9000005    1    3    3    0    0 -0.37315011195E+02 -0.89594484713E+02  0.17411036136E+03  0.19933639829E+03  0.10000000000E+01 0.  0.
    9000005    1    3    3    0    0 -0.64688941066E+02  0.30168269068E+02  0.77044552373E+02  0.10503164573E+03  0.10000000000E+01 0.  0.
<mgrwt>
<rscale>  0 0.16586846E+03</rscale>
<asrwt>0</asrwt>
<pdfrwt beam="1">  1        2 0.51486794E-01 0.17193346E+03</pdfrwt>
<pdfrwt beam="2">  1       -2 0.19084711E-01 0.17193346E+03</pdfrwt>
<totfact> 0.21761712E+03</totfact>
</mgrwt>
</event>
<event>
 8    3  0.7944584E-004  0.1564847E+03  0.7818608E-02  0.1201006E+00
         -2   -1    0    0    0  501 -0.00000000000E+00  0.00000000000E+00  0.13101751064E+02  0.13101751312E+02  0.25500000000E-02 0.  1.
          2   -1    0    0  501    0  0.00000000000E+00 -0.00000000000E+00 -0.20687983054E+04  0.20687983054E+04  0.25500000000E-02 0. -1.
         25    2    1    2    0    0 -0.82723356816E+02 -0.44939614108E+02 -0.59008946614E+03  0.61048589910E+03  0.12499892907E+03 0.  0.
         23    2    1    2    0    0  0.82723356816E+02  0.44939614108E+02 -0.14656070882E+04  0.14714141577E+04  0.90513886139E+02 0.  0.
        -13    1    4    4    0    0  0.41648384642E+02  0.97588137429E+01 -0.19411393444E+03  0.19877135884E+03  0.10566000000E+00 0.  1.
         13    1    4    4    0    0  0.41074972175E+02  0.35180800365E+02 -0.12714931538E+04  0.12726427988E+04  0.10566000000E+00 0. -1.
    9000005    1    3    3    0    0 -0.89914796993E+02 -0.67736548507E+02 -0.31786716286E+03  0.33721424043E+03  0.10000000000E+01 0.  0.
    9000005    1    3    3    0    0  0.71914401768E+01  0.22796934398E+02 -0.27222230328E+03  0.27327165867E+03  0.10000000000E+01 0.  0.
<mgrwt>
<rscale>  0 0.14956738E+03</rscale>
<asrwt>0</asrwt>
<pdfrwt beam="2">  1        2 0.31827640E+00 0.15648468E+03</pdfrwt>
<pdfrwt beam="1">  1       -2 0.20156557E-02 0.15648468E+03</pdfrwt>
<totfact> 0.52006897E+03</totfact>
</mgrwt>
</event>
<event>
 8    3  0.7944584E-004  0.2139641E+03  0.7818608E-02  0.1141788E+00
         -2   -1    0    0    0  501 -0.00000000000E+00  0.00000000000E+00  0.13849791987E+03  0.13849791989E+03  0.25500000000E-02 0.  1.
          2   -1    0    0  501    0  0.00000000000E+00 -0.00000000000E+00 -0.64727169495E+03  0.64727169496E+03  0.25500000000E-02 0. -1.
         25    2    1    2    0    0 -0.80963379673E+02 -0.15362319030E+03 -0.54454342022E+03  0.58507108834E+03  0.12500195381E+03 0.  0.
         23    2    1    2    0    0  0.80963379673E+02  0.15362319030E+03  0.35769645141E+02  0.20069852651E+03  0.94049335899E+02 0.  0.
        -13    1    4    4    0    0 -0.83474827524E+01  0.83048251054E+02  0.19469100848E+02  0.85707348129E+02  0.10566000000E+00 0. -1.
         13    1    4    4    0    0  0.89310862426E+02  0.70574939246E+02  0.16300544293E+02  0.11499117838E+03  0.10566000000E+00 0.  1.
    9000005    1    3    3    0    0 -0.70059032680E+02 -0.65987259199E+02 -0.13308698381E+03  0.16424290456E+03  0.10000000000E+01 0.  0.
    9000005    1    3    3    0    0 -0.10904346993E+02 -0.87635931101E+02 -0.41145643641E+03  0.42082818378E+03  0.10000000000E+01 0.  0.
<mgrwt>
<rscale>  0 0.20971977E+03</rscale>
<asrwt>0</asrwt>
<pdfrwt beam="2">  1        2 0.99580259E-01 0.21396411E+03</pdfrwt>
<pdfrwt beam="1">  1       -2 0.21307373E-01 0.21396411E+03</pdfrwt>
<totfact> 0.87116499E+02</totfact>
</mgrwt>
</event>
<event>
 8    3  0.7944584E-004  0.1325514E+03  0.7818608E-02  0.1235677E+00
          2   -1    0    0  501    0  0.00000000000E+00  0.00000000000E+00  0.10177540594E+04  0.10177540594E+04  0.25500000000E-02 0. -1.
         -2   -1    0    0    0  501 -0.00000000000E+00 -0.00000000000E+00 -0.15120488816E+02  0.15120489031E+02  0.25500000000E-02 0.  1.
         25    2    1    2    0    0 -0.42735614070E+02 -0.10955564206E+02  0.39941397197E+03  0.42083417682E+03  0.12499410499E+03 0.  0.
         23    2    1    2    0    0  0.42735614070E+02  0.10955564206E+02  0.60321959858E+03  0.61204037158E+03  0.93665229570E+02 0.  0.
        -13    1    4    4    0    0  0.30480190065E+02 -0.30376196765E+02  0.13165372427E+03  0.13850801275E+03  0.10566000000E+00 0. -1.
         13    1    4    4    0    0  0.12255424006E+02  0.41331760971E+02  0.47156587431E+03  0.47353235883E+03  0.10566000000E+00 0.  1.
    9000005    1    3    3    0    0 -0.60708207360E+02  0.24942325826E+02  0.10595145147E+03  0.12463673667E+03  0.10000000000E+01 0.  0.
    9000005    1    3    3    0    0  0.17972593290E+02 -0.35897890032E+02  0.29346252049E+03  0.29619744015E+03  0.10000000000E+01 0.  0.
<mgrwt>
<rscale>  0 0.12461213E+03</rscale>
<asrwt>0</asrwt>
<pdfrwt beam="1">  1        2 0.15657758E+00 0.13255144E+03</pdfrwt>
<pdfrwt beam="2">  1       -2 0.23262286E-02 0.13255144E+03</pdfrwt>
<totfact> 0.15148055E+04</totfact>
</mgrwt>
</event>
<event>
 8    3  0.7944584E-004  0.1326095E+03  0.7818608E-02  0.1236852E+00
          2   -1    0    0  501    0  0.00000000000E+00  0.00000000000E+00  0.37162428280E+03  0.37162428281E+03  0.25500000000E-02 0. -1.
         -2   -1    0    0    0  501 -0.00000000000E+00 -0.00000000000E+00 -0.45319554130E+02  0.45319554201E+02  0.25500000000E-02 0.  1.
         25    2    1    2    0    0  0.43296872428E+02  0.92585729326E+01  0.90800201315E+02  0.16071698205E+03  0.12499972570E+03 0.  0.
         23    2    1    2    0    0 -0.43296872428E+02 -0.92585729326E+01  0.23550452736E+03  0.25622685496E+03  0.90716472946E+02 0.  0.
        -13    1    4    4    0    0  0.83460045487E+01 -0.28779276146E+02  0.26331836620E+02  0.39890842449E+02  0.10566000000E+00 0.  1.
         13    1    4    4    0    0 -0.51642876977E+02  0.19520703214E+02  0.20917269074E+03  0.21633601251E+03  0.10566000000E+00 0. -1.
    9000005    1    3    3    0    0  0.31157838002E+02 -0.17113940023E+02 -0.23603475547E+02  0.42682805320E+02  0.10000000000E+01 0.  0.
    9000005    1    3    3    0    0  0.12139034426E+02  0.26372512955E+02  0.11440367686E+03  0.11803417673E+03  0.10000000000E+01 0.  0.
<mgrwt>
<rscale>  0 0.12386589E+03</rscale>
<asrwt>0</asrwt>
<pdfrwt beam="1">  1        2 0.57172967E-01 0.13260947E+03</pdfrwt>
<pdfrwt beam="2">  1       -2 0.69722391E-02 0.13260947E+03</pdfrwt>
<totfact> 0.96160134E+03</totfact>
</mgrwt>
</event>
<event>
 8    3  0.7944584E-004  0.2226910E+03  0.7818608E-02  0.1136107E+00
         -2   -1    0    0    0  501 -0.00000000000E+00  0.00000000000E+00  0.10820043805E+04  0.10820043805E+04  0.25500000000E-02 0.  1.
          2   -1    0    0  501    0  0.00000000000E+00 -0.00000000000E+00 -0.42218932443E+02  0.42218932520E+02  0.25500000000E-02 0. -1.
         25    2    1    2    0    0 -0.30665345300E+02  0.18172403416E+03  0.62104872404E+03  0.65976724701E+03  0.12500925806E+03 0.  0.
         23    2    1    2    0    0  0.30665345300E+02 -0.18172403416E+03  0.41873672404E+03  0.46445606603E+03  0.80093727746E+02 0.  0.
        -13    1    4    4    0    0  0.18976240531E+02 -0.83723933486E+00  0.29564927165E+02  0.35141069373E+02  0.10566000000E+00 0. -1.
         13    1    4    4    0    0  0.11689104768E+02 -0.18088679483E+03  0.38917179687E+03  0.42931499666E+03  0.10566000000E+00 0.  1.
    9000005    1    3    3    0    0  0.28909322317E+02  0.15420849739E+03  0.44922061033E+03  0.47583207787E+03  0.10000000000E+01 0.  0.
    9000005    1    3    3    0    0 -0.59574667617E+02  0.27515536768E+02  0.17182811371E+03  0.18393516914E+03  0.10000000000E+01 0.  0.
<mgrwt>
<rscale>  0 0.21704336E+03</rscale>
<asrwt>0</asrwt>
<pdfrwt beam="2">  1        2 0.64952197E-02 0.22269105E+03</pdfrwt>
<pdfrwt beam="1">  1       -2 0.16646223E+00 0.22269105E+03</pdfrwt>
<totfact> 0.26762941E+02</totfact>
</mgrwt>
</event>
<event>
 8    3  0.7944584E-004  0.1383383E+03  0.7818608E-02  0.1230354E+00
          2   -1    0    0  501    0  0.00000000000E+00  0.00000000000E+00  0.21761046028E+02  0.21761046177E+02  0.25500000000E-02 0. -1.
         -2   -1    0    0    0  501 -0.00000000000E+00 -0.00000000000E+00 -0.68148178558E+03  0.68148178559E+03  0.25500000000E-02 0.  1.
         25    2    1    2    0    0  0.87107431321E+01  0.58623295108E+02 -0.31922124744E+03  0.34790759059E+03  0.12499967599E+03 0.  0.
         23    2    1    2    0    0 -0.87107431321E+01 -0.58623295108E+02 -0.34049949212E+03  0.35533524118E+03  0.82526733338E+02 0.  0.
        -13    1    4    4    0    0  0.29620405759E+02 -0.37558733727E+02 -0.25335051017E+03  0.25782652906E+03  0.10566000000E+00 0.  1.
         13    1    4    4    0    0 -0.38331148891E+02 -0.21064561382E+02 -0.87148981943E+02  0.97508712120E+02  0.10566000000E+00 0. -1.
    9000005    1    3    3    0    0  0.18501378475E+02 -0.12240235824E+02 -0.24053937868E+03  0.24156224265E+03  0.10000000000E+01 0.  0.
    9000005    1    3    3    0    0 -0.97906353426E+01  0.70863530933E+02 -0.78681868762E+02  0.10634534794E+03  0.10000000000E+01 0.  0.
<mgrwt>
<rscale>  0 0.12806598E+03</rscale>
<asrwt>0</asrwt>
<pdfrwt beam="1">  1        2 0.33478538E-02 0.13833831E+03</pdfrwt>
<pdfrwt beam="2">  1       -2 0.10484334E+00 0.13833831E+03</pdfrwt>
<totfact> 0.19879332E+03</totfact>
</mgrwt>
</event>
<event>
 8    3  0.7944584E-004  0.2082177E+03  0.7818608E-02  0.1146767E+00
          2   -1    0    0  501    0  0.00000000000E+00  0.00000000000E+00  0.22461952312E+04  0.22461952312E+04  0.25500000000E-02 0. -1.
         -2   -1    0    0    0  501 -0.00000000000E+00 -0.00000000000E+00 -0.19875442269E+02  0.19875442433E+02  0.25500000000E-02 0.  1.
         25    2    1    2    0    0  0.24096600589E+02 -0.16477265550E+03  0.15350687394E+04  0.15491257615E+04  0.12499566419E+03 0.  0.
         23    2    1    2    0    0 -0.24096600589E+02  0.16477265550E+03  0.69125104952E+03  0.71694491213E+03  0.91931057917E+02 0.  0.
        -13    1    4    4    0    0 -0.18595947702E+02  0.16679370764E+03  0.69098903050E+03  0.71107791529E+03  0.10566000000E+00 0. -1.
         13    1    4    4    0    0 -0.55006528870E+01 -0.20210521364E+01  0.26201901773E+00  0.58669968402E+01  0.10566000000E+00 0.  1.
    9000005    1    3    3    0    0  0.23431474962E+02 -0.84227909690E+01  0.64129378876E+03  0.64177776600E+03  0.10000000000E+01 0.  0.
    9000005    1    3    3    0    0  0.66512562739E+00 -0.15634986453E+03  0.89377495063E+03  0.90734799548E+03  0.10000000000E+01 0.  0.
<mgrwt>
<rscale>  0 0.20356341E+03</rscale>
<asrwt>0</asrwt>
<pdfrwt beam="1">  1        2 0.34556853E+00 0.20821765E+03</pdfrwt>
<pdfrwt beam="2">  1       -2 0.30577601E-02 0.20821765E+03</pdfrwt>
<totfact> 0.22737499E+03</totfact>
</mgrwt>
</event>
<event>
 8    3  0.7944584E-004  0.2900269E+03  0.7818608E-02  0.1092016E+00
          2   -1    0    0  501    0  0.00000000000E+00  0.00000000000E+00  0.25577133091E+03  0.25577133093E+03  0.25500000000E-02 0. -1.
         -2   -1    0    0    0  501 -0.00000000000E+00 -0.00000000000E+00 -0.33251916533E+03  0.33251916534E+03  0.25500000000E-02 0.  1.
         25    2    1    2    0    0 -0.13091991646E+03  0.22660742539E+03 -0.10713016108E+03  0.30918032015E+03  0.12499859674E+03 0.  0.
         23    2    1    2    0    0  0.13091991646E+03 -0.22660742539E+03  0.30382326667E+02  0.27911017612E+03  0.92132811053E+02 0.  0.
        -13    1    4    4    0    0  0.96150078126E+02 -0.17736520088E+03  0.61971862480E+02  0.21105396208E+03  0.10566000000E+00 0. -1.
         13    1    4    4    0    0  0.34769838333E+02 -0.49242224505E+02 -0.31589535812E+02  0.68056214035E+02  0.10566000000E+00 0.  1.
    9000005    1    3    3    0    0 -0.36810754269E+02 -0.38110952523E+01 -0.32692000680E+02  0.49389502785E+02  0.10000000000E+01 0.  0.
    9000005    1    3    3    0    0 -0.94109162190E+02  0.23041852064E+03 -0.74438160400E+02  0.25979081736E+03  0.10000000000E+01 0.  0.
<mgrwt>
<rscale>  0 0.28683063E+03</rscale>
<asrwt>0</asrwt>
<pdfrwt beam="1">  1        2 0.39349435E-01 0.29002689E+03</pdfrwt>
<pdfrwt beam="2">  1       -2 0.51156795E-01 0.29002689E+03</pdfrwt>
<totfact> 0.47915120E+02</totfact>
</mgrwt>
</event>
<event>
 8    3  0.7944584E-004  0.1402340E+03  0.7818608E-02  0.1224042E+00
          2   -1    0    0  501    0  0.00000000000E+00  0.00000000000E+00  0.25426385904E+03  0.25426385905E+03  0.25500000000E-02 0. -1.
         -2   -1    0    0    0  501 -0.00000000000E+00 -0.00000000000E+00 -0.69697146159E+02  0.69697146206E+02  0.25500000000E-02 0.  1.
         25    2    1    2    0    0 -0.63466758522E+02 -0.35070630493E+01  0.15477222341E+03  0.20885407992E+03  0.12500102652E+03 0.  0.
         23    2    1    2    0    0  0.63466758522E+02  0.35070630493E+01  0.29794489466E+02  0.11510692533E+03  0.91222605361E+02 0.  0.
        -13    1    4    4    0    0  0.42010480320E+02  0.11947120651E+02 -0.28679908388E+02  0.52250956525E+02  0.10566000000E+00 0.  1.
         13    1    4    4    0    0  0.21456278202E+02 -0.84400576013E+01  0.58474397854E+02  0.62855968809E+02  0.10566000000E+00 0. -1.
    9000005    1    3    3    0    0  0.94261200486E+01  0.46854234196E+02  0.78666272951E+02  0.92051906559E+02  0.10000000000E+01 0.  0.
    9000005    1    3    3    0    0 -0.72892878570E+02 -0.50361297245E+02  0.76105950462E+02  0.11680217336E+03  0.10000000000E+01 0.  0.
<mgrwt>
<rscale>  0 0.13232768E+03</rscale>
<asrwt>0</asrwt>
<pdfrwt beam="1">  1        2 0.39117517E-01 0.14023404E+03</pdfrwt>
<pdfrwt beam="2">  1       -2 0.10722638E-01 0.14023404E+03</pdfrwt>
<totfact> 0.73973713E+03</totfact>
</mgrwt>
</event>
<event>
 8    3  0.7944584E-004  0.1342594E+03  0.7818608E-02  0.1234747E+00
         -2   -1    0    0    0  501 -0.00000000000E+00  0.00000000000E+00  0.99675209453E+01  0.99675212715E+01  0.25500000000E-02 0.  1.
          2   -1    0    0  501    0  0.00000000000E+00 -0.00000000000E+00 -0.17886008045E+04  0.17886008045E+04  0.25500000000E-02 0. -1.
         25    2    1    2    0    0  0.45500282814E+02  0.18220833117E+02 -0.14043828993E+04  0.14107859241E+04  0.12499328437E+03 0.  0.
         23    2    1    2    0    0 -0.45500282814E+02 -0.18220833117E+02 -0.37425038422E+03  0.38778240170E+03  0.88935743546E+02 0.  0.
        -13    1    4    4    0    0 -0.73850823799E+01  0.35174242033E+02 -0.13117481942E+03  0.13600959951E+03  0.10566000000E+00 0. -1.
         13    1    4    4    0    0 -0.38115200434E+02 -0.53395075150E+02 -0.24307556480E+03  0.25177280218E+03  0.10566000000E+00 0.  1.
    9000005    1    3    3    0    0  0.45757685795E+02  0.12872028441E+02 -0.17365211736E+03  0.18004308593E+03  0.10000000000E+01 0.  0.
    9000005    1    3    3    0    0 -0.25740298149E+00  0.53488046763E+01 -0.12307307820E+04  0.12307428381E+04  0.10000000000E+01 0.  0.
<mgrwt>
<rscale>  0 0.12520614E+03</rscale>
<asrwt>0</asrwt>
<pdfrwt beam="2">  1        2 0.27516910E+00 0.13425943E+03</pdfrwt>
<pdfrwt beam="1">  1       -2 0.15334662E-02 0.13425943E+03</pdfrwt>
<totfact> 0.10721315E+04</totfact>
</mgrwt>
</event>
<event>
 8    3  0.7944584E-004  0.1487935E+03  0.7818608E-02  0.1211441E+00
          2   -1    0    0  501    0  0.00000000000E+00  0.00000000000E+00  0.21134809206E+02  0.21134809359E+02  0.25500000000E-02 0. -1.
         -2   -1    0    0    0  501 -0.00000000000E+00 -0.00000000000E+00 -0.22435631274E+04  0.22435631274E+04  0.25500000000E-02 0.  1.
         25    2    1    2    0    0  0.34171881979E+02 -0.73126145786E+02 -0.20409133283E+04  0.20463300628E+04  0.12499744776E+03 0.  0.
         23    2    1    2    0    0 -0.34171881979E+02  0.73126145786E+02 -0.18151498991E+03  0.21836787389E+03  0.90673513595E+02 0.  0.
        -13    1    4    4    0    0 -0.35086474258E+02 -0.42743603592E+01 -0.99506946182E+02  0.10559817392E+03  0.10566000000E+00 0.  1.
         13    1    4    4    0    0  0.91459227966E+00  0.77400506145E+02 -0.82008043731E+02  0.11276969997E+03  0.10566000000E+00 0. -1.
    9000005    1    3    3    0    0  0.29598155308E+02 -0.10335702628E+03 -0.18360511048E+04  0.18391963966E+04  0.10000000000E+01 0.  0.
    9000005    1    3    3    0    0  0.45737266711E+01  0.30230880490E+02 -0.20486222345E+03  0.20713366629E+03  0.10000000000E+01 0.  0.
<mgrwt>
<rscale>  0 0.14141275E+03</rscale>
<asrwt>0</asrwt>
<pdfrwt beam="1">  1        2 0.32515109E-02 0.14879352E+03</pdfrwt>
<pdfrwt beam="2">  1       -2 0.34516337E+00 0.14879352E+03</pdfrwt>
<totfact> 0.56531060E+01</totfact>
</mgrwt>
</event>
<event>
 8    3  0.7944584E-004  0.1307562E+03  0.7818608E-02  0.1239905E+00
          2   -1    0    0  501    0  0.00000000000E+00  0.00000000000E+00  0.62853104575E+03  0.62853104575E+03  0.25500000000E-02 0. -1.
         -2   -1    0    0    0  501 -0.00000000000E+00 -0.00000000000E+00 -0.22145030654E+02  0.22145030801E+02  0.25500000000E-02 0.  1.
         25    2    1    2    0    0  0.10230436620E+02  0.36987108263E+02  0.41667768714E+03  0.43671211905E+03  0.12499788781E+03 0.  0.
         23    2    1    2    0    0 -0.10230436620E+02 -0.36987108263E+02  0.18970832796E+03  0.21396395750E+03  0.91206454834E+02 0.  0.
        -13    1    4    4    0    0 -0.26191011358E+02 -0.60776736860E+02  0.10105594557E+03  0.12079774881E+03  0.10566000000E+00 0.  1.
         13    1    4    4    0    0  0.15960574738E+02  0.23789628598E+02  0.88652382386E+02  0.93166208689E+02  0.10566000000E+00 0. -1.
    9000005    1    3    3    0    0  0.63002838769E+02  0.97725586761E+01  0.14155905741E+03  0.15525729397E+03  0.10000000000E+01 0.  0.
    9000005    1    3    3    0    0 -0.52772402149E+02  0.27214549587E+02  0.27511862973E+03  0.28145482508E+03  0.10000000000E+01 0.  0.
<mgrwt>
<rscale>  0 0.12195563E+03</rscale>
<asrwt>0</asrwt>
<pdfrwt beam="1">  1        2 0.96697077E-01 0.13075619E+03</pdfrwt>
<pdfrwt beam="2">  1       -2 0.34069280E-02 0.13075619E+03</pdfrwt>
<totfact> 0.15806360E+04</totfact>
</mgrwt>
</event>
<event>
 8    3  0.7944584E-004  0.1320475E+03  0.7818608E-02  0.1238340E+00
          2   -1    0    0  501    0  0.00000000000E+00  0.00000000000E+00  0.16762174295E+04  0.16762174295E+04  0.25500000000E-02 0. -1.
         -2   -1    0    0    0  501 -0.00000000000E+00 -0.00000000000E+00 -0.82088651444E+01  0.82088655405E+01  0.25500000000E-02 0.  1.
         25    2    1    2    0    0 -0.41776657164E+02  0.81250426694E+01  0.80826979008E+03  0.81898509374E+03  0.12500089922E+03 0.  0.
         23    2    1    2    0    0  0.41776657164E+02 -0.81250426694E+01  0.85973877423E+03  0.86544120126E+03  0.89590220007E+02 0.  0.
        -13    1    4    4    0    0  0.47731797260E+02 -0.17648719685E+02  0.22832804857E+03  0.23393056812E+03  0.10566000000E+00 0.  1.
         13    1    4    4    0    0 -0.59551400957E+01  0.95236770160E+01  0.63141072566E+03  0.63151063313E+03  0.10566000000E+00 0. -1.
    9000005    1    3    3    0    0 -0.13928287993E+02  0.13704987823E+02  0.77492727338E+03  0.77517424036E+03  0.10000000000E+01 0.  0.
    9000005    1    3    3    0    0 -0.27848369172E+02 -0.55799451539E+01  0.33342516706E+02  0.43810853378E+02  0.10000000000E+01 0.  0.
<mgrwt>
<rscale>  0 0.12293040E+03</rscale>
<asrwt>0</asrwt>
<pdfrwt beam="1">  1        2 0.25787962E+00 0.13204745E+03</pdfrwt>
<pdfrwt beam="2">  1       -2 0.12629023E-02 0.13204745E+03</pdfrwt>
<totfact> 0.16169110E+04</totfact>
</mgrwt>
</event>
<event>
 8    3  0.7944584E-004  0.1430230E+03  0.7818608E-02  0.1229359E+00
         -2   -1    0    0    0  501 -0.00000000000E+00  0.00000000000E+00  0.41105418953E+01  0.41105426863E+01  0.25500000000E-02 0.  1.
          2   -1    0    0  501    0  0.00000000000E+00 -0.00000000000E+00 -0.37738890821E+04  0.37738890821E+04  0.25500000000E-02 0. -1.
         25    2    1    2    0    0 -0.47989710038E+02 -0.50268855154E+02 -0.16656781864E+04  0.16718072265E+04  0.12500244807E+03 0.  0.
         23    2    1    2    0    0  0.47989710038E+02  0.50268855154E+02 -0.21041003538E+04  0.21061923982E+04  0.63072572866E+02 0.  0.
        -13    1    4    4    0    0  0.41923234204E+02  0.45175011197E+02 -0.20780583149E+04  0.20789720321E+04  0.10566000000E+00 0. -1.
         13    1    4    4    0    0  0.60664758337E+01  0.50938439562E+01 -0.26042038926E+02  0.27220366103E+02  0.10566000000E+00 0.  1.
    9000005    1    3    3    0    0 -0.47328761557E+02  0.27814654161E+02 -0.40391818830E+03  0.40763288569E+03  0.10000000000E+01 0.  0.
    9000005    1    3    3    0    0 -0.66094848170E+00 -0.78083509315E+02 -0.12617599981E+04  0.12641743409E+04  0.10000000000E+01 0.  0.
<mgrwt>
<rscale>  0 0.12872558E+03</rscale>
<asrwt>0</asrwt>
<pdfrwt beam="2">  1        2 0.58059555E+00 0.14302301E+03</pdfrwt>
<pdfrwt beam="1">  1       -2 0.63239414E-03 0.14302301E+03</pdfrwt>
<totfact> 0.27875101E+03</totfact>
</mgrwt>
</event>
<event>
 8    3  0.7944584E-004  0.2603625E+03  0.7818608E-02  0.1109174E+00
          2   -1    0    0  501    0  0.00000000000E+00  0.00000000000E+00  0.39950018081E+03  0.39950018082E+03  0.25500000000E-02 0. -1.
         -2   -1    0    0    0  501 -0.00000000000E+00 -0.00000000000E+00 -0.19548322736E+03  0.19548322737E+03  0.25500000000E-02 0.  1.
         25    2    1    2    0    0 -0.22824660705E+03  0.82358563291E+01 -0.21682211584E+02  0.26126374586E+03  0.12499713453E+03 0.  0.
         23    2    1    2    0    0  0.22824660705E+03 -0.82358563291E+01  0.22569916504E+03  0.33371966234E+03  0.90908508785E+02 0.  0.
        -13    1    4    4    0    0  0.12724285894E+03  0.33299260341E+02  0.89262226118E+02  0.15895704472E+03  0.10566000000E+00 0.  1.
         13    1    4    4    0    0  0.10100374811E+03 -0.41535116670E+02  0.13643693892E+03  0.17476261762E+03  0.10566000000E+00 0. -1.
    9000005    1    3    3    0    0 -0.88242341586E+02 -0.35120483310E+02 -0.56639061290E+02  0.11058545320E+03  0.10000000000E+01 0.  0.
    9000005    1    3    3    0    0 -0.14000426547E+03  0.43356339639E+02  0.34956849707E+02  0.15067829265E+03  0.10000000000E+01 0.  0.
<mgrwt>
<rscale>  0 0.25664879E+03</rscale>
<asrwt>0</asrwt>
<pdfrwt beam="1">  1        2 0.61461566E-01 0.26036249E+03</pdfrwt>
<pdfrwt beam="2">  1       -2 0.30074343E-01 0.26036249E+03</pdfrwt>
<totfact> 0.81575600E+02</totfact>
</mgrwt>
</event>
<event>
 8    3  0.7944584E-004  0.1512085E+03  0.7818608E-02  0.1210631E+00
          2   -1    0    0  501    0  0.00000000000E+00  0.00000000000E+00  0.95430458406E+02  0.95430458440E+02  0.25500000000E-02 0. -1.
         -2   -1    0    0    0  501 -0.00000000000E+00 -0.00000000000E+00 -0.20956699587E+03  0.20956699588E+03  0.25500000000E-02 0.  1.
         25    2    1    2    0    0  0.57473338129E+02  0.62744459748E+02 -0.16542024047E+02  0.15211060623E+03  0.12499578451E+03 0.  0.
         23    2    1    2    0    0 -0.57473338129E+02 -0.62744459748E+02 -0.97594513415E+02  0.15288684809E+03  0.81299738282E+02 0.  0.
        -13    1    4    4    0    0  0.20201374435E+02 -0.17304253631E+02 -0.13991450921E+02  0.30055025964E+02  0.10566000000E+00 0. -1.
         13    1    4    4    0    0 -0.77674712564E+02 -0.45440206118E+02 -0.83603062495E+02  0.12283182212E+03  0.10566000000E+00 0.  1.
    9000005    1    3    3    0    0  0.37035813821E+02 -0.17072730960E+02  0.35982247638E+02  0.54395328778E+02  0.10000000000E+01 0.  0.
    9000005    1    3    3    0    0  0.20437524308E+02  0.79817190708E+02 -0.52524271685E+02  0.97715277457E+02  0.10000000000E+01 0.  0.
<mgrwt>
<rscale>  0 0.14202412E+03</rscale>
<asrwt>0</asrwt>
<pdfrwt beam="1">  1        2 0.14681609E-01 0.15120846E+03</pdfrwt>
<pdfrwt beam="2">  1       -2 0.32241076E-01 0.15120846E+03</pdfrwt>
<totfact> 0.34569200E+03</totfact>
</mgrwt>
</event>
<event>
 8    3  0.7944584E-004  0.1472441E+03  0.7818608E-02  0.1213261E+00
          2   -1    0    0  501    0  0.00000000000E+00  0.00000000000E+00  0.20582108215E+04  0.20582108215E+04  0.25500000000E-02 0.  1.
         -2   -1    0    0    0  501 -0.00000000000E+00 -0.00000000000E+00 -0.94390378956E+01  0.94390382400E+01  0.25500000000E-02 0. -1.
         25    2    1    2    0    0  0.28319936249E+02  0.72486498749E+02  0.83238630883E+03  0.84530929098E+03  0.12499807595E+03 0.  0.
         23    2    1    2    0    0 -0.28319936249E+02 -0.72486498749E+02  0.12163854748E+04  0.12223405688E+04  0.92013757225E+02 0.  0.
        -13    1    4    4    0    0 -0.10618946184E+02 -0.29514639690E+02  0.10218254002E+04  0.10223067229E+04  0.10566000000E+00 0.  1.
         13    1    4    4    0    0 -0.17700990066E+02 -0.42971859059E+02  0.19456007459E+03  0.20003384591E+03  0.10566000000E+00 0. -1.
    9000005    1    3    3    0    0 -0.28262950684E+02  0.35223756864E+01  0.51033457658E+03  0.51112971110E+03  0.10000000000E+01 0.  0.
    9000005    1    3    3    0    0  0.56582886933E+02  0.68964123063E+02  0.32205173225E+03  0.33417957988E+03  0.10000000000E+01 0.  0.
<mgrwt>
<rscale>  0 0.14005058E+03</rscale>
<asrwt>0</asrwt>
<pdfrwt beam="1">  1        2 0.31664844E+00 0.14724412E+03</pdfrwt>
<pdfrwt beam="2">  1       -2 0.14521569E-02 0.14724412E+03</pdfrwt>
<totfact> 0.84644887E+03</totfact>
</mgrwt>
</event>
<event>
 8    3  0.7944584E-004  0.1332247E+03  0.7818608E-02  0.1241395E+00
          2   -1    0    0  501    0  0.00000000000E+00  0.00000000000E+00  0.22238012359E+02  0.22238012505E+02  0.25500000000E-02 0. -1.
         -2   -1    0    0    0  501 -0.00000000000E+00 -0.00000000000E+00 -0.61360419083E+03  0.61360419084E+03  0.25500000000E-02 0.  1.
         25    2    1    2    0    0 -0.45448180342E+02 -0.76213965074E+01 -0.25834821116E+03  0.29067614906E+03  0.12500081055E+03 0.  0.
         23    2    1    2    0    0  0.45448180342E+02  0.76213965074E+01 -0.33301796731E+03  0.34516605429E+03  0.78198565836E+02 0.  0.
        -13    1    4    4    0    0  0.28385977478E+00 -0.37094993686E+01  0.36974299382E+01  0.52462476229E+01  0.10566000000E+00 0. -1.
         13    1    4    4    0    0  0.45164320567E+02  0.11330895876E+02 -0.33671539725E+03  0.33991980667E+03  0.10566000000E+00 0.  1.
    9000005    1    3    3    0    0  0.71795952855E+01 -0.22723081865E+02 -0.22562691572E+03  0.22688408965E+03  0.10000000000E+01 0.  0.
    9000005    1    3    3    0    0 -0.52627775627E+02  0.15101685357E+02 -0.32721295443E+02  0.63792059408E+02  0.10000000000E+01 0.  0.
<mgrwt>
<rscale>  0 0.12103767E+03</rscale>
<asrwt>0</asrwt>
<pdfrwt beam="1">  1        2 0.34212331E-02 0.13322472E+03</pdfrwt>
<pdfrwt beam="2">  1       -2 0.94400632E-01 0.13322472E+03</pdfrwt>
<totfact> 0.24521052E+03</totfact>
</mgrwt>
</event>
<event>
 8    3  0.7944584E-004  0.1337032E+03  0.7818608E-02  0.1234932E+00
          2   -1    0    0  501    0  0.00000000000E+00  0.00000000000E+00  0.17655046236E+04  0.17655046236E+04  0.25500000000E-02 0.  1.
         -2   -1    0    0    0  501 -0.00000000000E+00 -0.00000000000E+00 -0.89789040678E+01  0.89789044298E+01  0.25500000000E-02 0. -1.
         25    2    1    2    0    0  0.29905908063E+02 -0.36834755244E+02  0.67475841249E+03  0.68787749618E+03  0.12500148793E+03 0.  0.
         23    2    1    2    0    0 -0.29905908063E+02  0.36834755244E+02  0.10817673070E+04  0.10866060318E+04  0.90779950172E+02 0.  0.
        -13    1    4    4    0    0 -0.36587847660E+02  0.13507420869E+02  0.16611063664E+03  0.17062788689E+03  0.10566000000E+00 0. -1.
         13    1    4    4    0    0  0.66819395976E+01  0.23327334375E+02  0.91565667039E+03  0.91597814496E+03  0.10566000000E+00 0.  1.
    9000005    1    3    3    0    0  0.52876875775E+02  0.15011375246E+02  0.14466664394E+03  0.15476027671E+03  0.10000000000E+01 0.  0.
    9000005    1    3    3    0    0 -0.22970967713E+02 -0.51846130490E+02  0.53009176855E+03  0.53311721946E+03  0.10000000000E+01 0.  0.
<mgrwt>
<rscale>  0 0.12508763E+03</rscale>
<asrwt>0</asrwt>
<pdfrwt beam="1">  1        2 0.27161619E+00 0.13370316E+03</pdfrwt>
<pdfrwt beam="2">  1       -2 0.13813694E-02 0.13370316E+03</pdfrwt>
<totfact> 0.12803120E+04</totfact>
</mgrwt>
</event>
<event>
 8    3  0.7944584E-004  0.1308436E+03  0.7818608E-02  0.1240347E+00
          2   -1    0    0  501    0  0.00000000000E+00  0.00000000000E+00  0.16474345746E+03  0.16474345748E+03  0.25500000000E-02 0. -1.
         -2   -1    0    0    0  501 -0.00000000000E+00 -0.00000000000E+00 -0.93295567585E+02  0.93295567620E+02  0.25500000000E-02 0.  1.
         25    2    1    2    0    0 -0.29131542654E+02  0.25434331953E+02  0.89488271694E+02  0.15851878448E+03  0.12499800895E+03 0.  0.
         23    2    1    2    0    0  0.29131542654E+02 -0.25434331953E+02 -0.18040381817E+02  0.99520240627E+02  0.89907012513E+02 0.  0.
        -13    1    4    4    0    0  0.18077301552E+02 -0.57838475399E+02 -0.23217099396E+02  0.64893165559E+02  0.10566000000E+00 0.  1.
         13    1    4    4    0    0  0.11054241102E+02  0.32404143446E+02  0.51767175796E+01  0.34627075067E+02  0.10566000000E+00 0. -1.
    9000005    1    3    3    0    0 -0.41188809685E+01  0.66753529973E+02  0.87539699775E+02  0.11016895198E+03  0.10000000000E+01 0.  0.
    9000005    1    3    3    0    0 -0.25012661686E+02 -0.41319198019E+02  0.19485719194E+01  0.48349832493E+02  0.10000000000E+01 0.  0.
<mgrwt>
<rscale>  0 0.12168259E+03</rscale>
<asrwt>0</asrwt>
<pdfrwt beam="1">  1        2 0.25345147E-01 0.13084363E+03</pdfrwt>
<pdfrwt beam="2">  1       -2 0.14353164E-01 0.13084363E+03</pdfrwt>
<totfact> 0.73735453E+03</totfact>
</mgrwt>
</event>
<event>
 8    3  0.7944584E-004  0.1431345E+03  0.7818608E-02  0.1219808E+00
         -2   -1    0    0    0  501 -0.00000000000E+00  0.00000000000E+00  0.85921701710E+03  0.85921701711E+03  0.25500000000E-02 0.  1.
          2   -1    0    0  501    0  0.00000000000E+00 -0.00000000000E+00 -0.45337376061E+02  0.45337376133E+02  0.25500000000E-02 0. -1.
         25    2    1    2    0    0  0.64852789766E+02 -0.25616480284E+02  0.84364655926E+02  0.16614720647E+03  0.12500164257E+03 0.  0.
         23    2    1    2    0    0 -0.64852789766E+02  0.25616480284E+02  0.72951498512E+03  0.73840718677E+03  0.90503986450E+02 0.  0.
        -13    1    4    4    0    0 -0.22048112129E+02 -0.10127932690E+02  0.41029060362E+02  0.47666437115E+02  0.10566000000E+00 0. -1.
         13    1    4    4    0    0 -0.42804677636E+02  0.35744412973E+02  0.68848592475E+03  0.69074074966E+03  0.10566000000E+00 0.  1.
    9000005    1    3    3    0    0 -0.47813401310E+01 -0.53446415059E+02  0.54177840002E+00  0.53671910902E+02  0.10000000000E+01 0.  0.
    9000005    1    3    3    0    0  0.69634129896E+02  0.27829934775E+02  0.83822877526E+02  0.11247529557E+03  0.10000000000E+01 0.  0.
<mgrwt>
<rscale>  0 0.13529209E+03</rscale>
<asrwt>0</asrwt>
<pdfrwt beam="2">  1        2 0.69749814E-02 0.14313455E+03</pdfrwt>
<pdfrwt beam="1">  1       -2 0.13218722E+00 0.14313455E+03</pdfrwt>
<totfact> 0.43755949E+02</totfact>
</mgrwt>
</event>
<event>
 8    3  0.7944584E-004  0.1649503E+03  0.7818608E-02  0.1190485E+00
          2   -1    0    0  501    0  0.00000000000E+00  0.00000000000E+00  0.12787885164E+04  0.12787885164E+04  0.25500000000E-02 0. -1.
         -2   -1    0    0    0  501 -0.00000000000E+00 -0.00000000000E+00 -0.18260156709E+02  0.18260156887E+02  0.25500000000E-02 0.  1.
         25    2    1    2    0    0  0.90121973314E+02  0.58832401818E+02  0.70984237229E+03  0.72875564343E+03  0.12500149104E+03 0.  0.
         23    2    1    2    0    0 -0.90121973314E+02 -0.58832401818E+02  0.55068598742E+03  0.56829302988E+03  0.90103770655E+02 0.  0.
        -13    1    4    4    0    0 -0.66655395292E+02 -0.57372608902E+01  0.41999112352E+03  0.42528627169E+03  0.10566000000E+00 0. -1.
         13    1    4    4    0    0 -0.23466578022E+02 -0.53095140928E+02  0.13069486390E+03  0.14300675819E+03  0.10566000000E+00 0.  1.
    9000005    1    3    3    0    0  0.96485636924E+02  0.92847771681E+01  0.60379921237E+03  0.61153100828E+03  0.10000000000E+01 0.  0.
    9000005    1    3    3    0    0 -0.63636636105E+01  0.49547624650E+02  0.10604315992E+03  0.11722463516E+03  0.10000000000E+01 0.  0.
<mgrwt>
<rscale>  0 0.15842668E+03</rscale>
<asrwt>0</asrwt>
<pdfrwt beam="1">  1        2 0.19673666E+00 0.16495028E+03</pdfrwt>
<pdfrwt beam="2">  1       -2 0.28092554E-02 0.16495028E+03</pdfrwt>
<totfact> 0.82690403E+03</totfact>
</mgrwt>
</event>
<event>
 8    3  0.7944584E-004  0.1360799E+03  0.7818608E-02  0.1231343E+00
          2   -1    0    0  501    0  0.00000000000E+00  0.00000000000E+00  0.50114558099E+02  0.50114558164E+02  0.25500000000E-02 0. -1.
         -2   -1    0    0    0  501 -0.00000000000E+00 -0.00000000000E+00 -0.41884357479E+03  0.41884357480E+03  0.25500000000E-02 0.  1.
         25    2    1    2    0    0 -0.23623745750E+02 -0.48346451317E+02 -0.33081071430E+03  0.35770585017E+03  0.12498914287E+03 0.  0.
         23    2    1    2    0    0  0.23623745750E+02  0.48346451317E+02 -0.37918302396E+02  0.11125228279E+03  0.89687301505E+02 0.  0.
        -13    1    4    4    0    0 -0.13734264958E+01 -0.13880077465E+02 -0.41814392544E+02  0.44079444627E+02  0.10566000000E+00 0.  1.
         13    1    4    4    0    0  0.24997172245E+02  0.62226528782E+02  0.38960901477E+01  0.67172838164E+02  0.10566000000E+00 0. -1.
    9000005    1    3    3    0    0  0.17900050869E+02 -0.40221024852E+02 -0.30493755702E+03  0.30810072435E+03  0.10000000000E+01 0.  0.
    9000005    1    3    3    0    0 -0.41523796619E+02 -0.81254264647E+01 -0.25873157277E+02  0.49605125828E+02  0.10000000000E+01 0.  0.
<mgrwt>
<rscale>  0 0.12741457E+03</rscale>
<asrwt>0</asrwt>
<pdfrwt beam="1">  1        2 0.77099323E-02 0.13607993E+03</pdfrwt>
<pdfrwt beam="2">  1       -2 0.64437471E-01 0.13607993E+03</pdfrwt>
<totfact> 0.19581690E+03</totfact>
</mgrwt>
</event>
<event>
 8    3  0.7944584E-004  0.1349914E+03  0.7818608E-02  0.1232403E+00
         -2   -1    0    0    0  501 -0.00000000000E+00  0.00000000000E+00  0.12702629117E+03  0.12702629120E+03  0.25500000000E-02 0.  1.
          2   -1    0    0  501    0  0.00000000000E+00 -0.00000000000E+00 -0.11322928140E+03  0.11322928142E+03  0.25500000000E-02 0. -1.
         25    2    1    2    0    0 -0.18162076967E+02  0.47618791798E+02  0.56217704374E+01  0.13510845422E+03  0.12500111890E+03 0.  0.
         23    2    1    2    0    0  0.18162076967E+02 -0.47618791798E+02  0.81752393390E+01  0.10514711840E+03  0.91606067475E+02 0.  0.
        -13    1    4    4    0    0 -0.22496824084E+02 -0.43321690780E+02  0.31481027197E+02  0.58085645588E+02  0.10566000000E+00 0.  1.
         13    1    4    4    0    0  0.40658901051E+02 -0.42971010180E+01 -0.23305787858E+02  0.47061472816E+02  0.10566000000E+00 0. -1.
    9000005    1    3    3    0    0  0.27359510873E+02  0.42541432504E+02 -0.44375814560E+02  0.67294347701E+02  0.10000000000E+01 0.  0.
    9000005    1    3    3    0    0 -0.45521587841E+02  0.50773592947E+01  0.49997584998E+02  0.67814106516E+02  0.10000000000E+01 0.  0.
<mgrwt>
<rscale>  0 0.12672137E+03</rscale>
<asrwt>0</asrwt>
<pdfrwt beam="2">  1        2 0.17419889E-01 0.13499144E+03</pdfrwt>
<pdfrwt beam="1">  1       -2 0.19542506E-01 0.13499144E+03</pdfrwt>
<totfact> 0.67603139E+03</totfact>
</mgrwt>
</event>
<event>
 8    3  0.7944584E-004  0.1503019E+03  0.7818608E-02  0.1209392E+00
          2   -1    0    0  501    0  0.00000000000E+00  0.00000000000E+00  0.52718949588E+03  0.52718949589E+03  0.25500000000E-02 0. -1.
         -2   -1    0    0    0  501 -0.00000000000E+00 -0.00000000000E+00 -0.35512144536E+02  0.35512144628E+02  0.25500000000E-02 0.  1.
         25    2    1    2    0    0 -0.59644536454E+02  0.58367547219E+02  0.28367261250E+03  0.32103087379E+03  0.12500571805E+03 0.  0.
         23    2    1    2    0    0  0.59644536454E+02 -0.58367547219E+02  0.20800473884E+03  0.24167076673E+03  0.90413200432E+02 0.  0.
        -13    1    4    4    0    0  0.22067543115E+02 -0.50644949794E+02  0.37176967029E+02  0.66588478285E+02  0.10566000000E+00 0.  1.
         13    1    4    4    0    0  0.37576993339E+02 -0.77225974254E+01  0.17082777181E+03  0.17508228844E+03  0.10566000000E+00 0. -1.
    9000005    1    3    3    0    0  0.30384225328E+02  0.39728186183E+02  0.53858753424E+02  0.73507110177E+02  0.10000000000E+01 0.  0.
    9000005    1    3    3    0    0 -0.90028761782E+02  0.18639361036E+02  0.22981385908E+03  0.24752376361E+03  0.10000000000E+01 0.  0.
<mgrwt>
<rscale>  0 0.14296667E+03</rscale>
<asrwt>0</asrwt>
<pdfrwt beam="1">  1        2 0.81106073E-01 0.15030193E+03</pdfrwt>
<pdfrwt beam="2">  1       -2 0.54634071E-02 0.15030193E+03</pdfrwt>
<totfact> 0.96206758E+03</totfact>
</mgrwt>
</event>
<event>
 8    3  0.7944584E-004  0.1851902E+03  0.7818608E-02  0.1168269E+00
          2   -1    0    0  501    0  0.00000000000E+00  0.00000000000E+00  0.49193246911E+03  0.49193246912E+03  0.25500000000E-02 0. -1.
         -2   -1    0    0    0  501 -0.00000000000E+00 -0.00000000000E+00 -0.85453920039E+02  0.85453920077E+02  0.25500000000E-02 0.  1.
         25    2    1    2    0    0 -0.13657480434E+03 -0.41088283717E+01  0.60692344016E+02  0.19488198097E+03  0.12500346489E+03 0.  0.
         23    2    1    2    0    0  0.13657480434E+03  0.41088283717E+01  0.34578620506E+03  0.38250440822E+03  0.89844104157E+02 0.  0.
        -13    1    4    4    0    0  0.30376195796E+02  0.30656036636E+02  0.44689206004E+02  0.62126018306E+02  0.10566000000E+00 0.  1.
         13    1    4    4    0    0  0.10619860854E+03 -0.26547208265E+02  0.30109699905E+03  0.32037838992E+03  0.10566000000E+00 0. -1.
    9000005    1    3    3    0    0 -0.12463842840E+03 -0.52535432137E+02  0.46187778368E+02  0.14293012395E+03  0.10000000000E+01 0.  0.
    9000005    1    3    3    0    0 -0.11936375944E+02  0.48426603765E+02  0.14504565648E+02  0.51951857018E+02  0.10000000000E+01 0.  0.
<mgrwt>
<rscale>  0 0.17951959E+03</rscale>
<asrwt>0</asrwt>
<pdfrwt beam="1">  1        2 0.75681919E-01 0.18519024E+03</pdfrwt>
<pdfrwt beam="2">  1       -2 0.13146757E-01 0.18519024E+03</pdfrwt>
<totfact> 0.26630824E+03</totfact>
</mgrwt>
</event>
<event>
 8    3  0.7944584E-004  0.1396430E+03  0.7818608E-02  0.1225141E+00
          2   -1    0    0  501    0  0.00000000000E+00  0.00000000000E+00  0.21002318711E+03  0.21002318712E+03  0.25500000000E-02 0. -1.
         -2   -1    0    0    0  501 -0.00000000000E+00 -0.00000000000E+00 -0.13223642595E+03  0.13223642597E+03  0.25500000000E-02 0.  1.
         25    2    1    2    0    0 -0.58877951775E+02  0.20205262222E+02 -0.71427984225E+02  0.15685063556E+03  0.12500119647E+03 0.  0.
         23    2    1    2    0    0  0.58877951775E+02 -0.20205262222E+02  0.14921474539E+03  0.18540897753E+03  0.90755621756E+02 0.  0.
        -13    1    4    4    0    0  0.26583119607E+00  0.89566131119E+01  0.10730203151E+03  0.10767557158E+03  0.10566000000E+00 0. -1.
         13    1    4    4    0    0  0.58612120579E+02 -0.29161875334E+02  0.41912713875E+02  0.77733405947E+02  0.10566000000E+00 0.  1.
    9000005    1    3    3    0    0 -0.63049709194E+02 -0.16989686416E+02  0.11084753526E+02  0.66240373147E+02  0.10000000000E+01 0.  0.
    9000005    1    3    3    0    0  0.41717574188E+01  0.37194948638E+02 -0.82512737751E+02  0.90610262417E+02  0.10000000000E+01 0.  0.
<mgrwt>
<rscale>  0 0.13157212E+03</rscale>
<asrwt>0</asrwt>
<pdfrwt beam="1">  1        2 0.32311259E-01 0.13964299E+03</pdfrwt>
<pdfrwt beam="2">  1       -2 0.20344066E-01 0.13964299E+03</pdfrwt>
<totfact> 0.31863072E+03</totfact>
</mgrwt>
</event>
<event>
 8    3  0.7944584E-004  0.1291604E+03  0.7818608E-02  0.1242597E+00
         -2   -1    0    0    0  501 -0.00000000000E+00  0.00000000000E+00  0.10173935928E+03  0.10173935931E+03  0.25500000000E-02 0.  1.
          2   -1    0    0  501    0  0.00000000000E+00 -0.00000000000E+00 -0.19051120891E+03  0.19051120893E+03  0.25500000000E-02 0. -1.
         25    2    1    2    0    0 -0.20683272884E+02 -0.25106272424E+02  0.35994476214E+02  0.13408210916E+03  0.12499714791E+03 0.  0.
         23    2    1    2    0    0  0.20683272884E+02  0.25106272424E+02 -0.12476632585E+03  0.15816845908E+03  0.91610603596E+02 0.  0.
        -13    1    4    4    0    0  0.11649291148E+02  0.51441280183E+02 -0.11838776575E+03  0.12960549963E+03  0.10566000000E+00 0. -1.
         13    1    4    4    0    0  0.90339817353E+01 -0.26335007759E+02 -0.63785600945E+01  0.28562959451E+02  0.10566000000E+00 0.  1.
    9000005    1    3    3    0    0 -0.13187806953E+02 -0.12797318572E+02 -0.46668609085E+02  0.50166210629E+02  0.10000000000E+01 0.  0.
    9000005    1    3    3    0    0 -0.74954659301E+01 -0.12308953852E+02  0.82663085299E+02  0.83915898527E+02  0.10000000000E+01 0.  0.
<mgrwt>
<rscale>  0 0.12030387E+03</rscale>
<asrwt>0</asrwt>
<pdfrwt beam="2">  1        2 0.29309417E-01 0.12916040E+03</pdfrwt>
<pdfrwt beam="1">  1       -2 0.15652209E-01 0.12916040E+03</pdfrwt>
<totfact> 0.54571728E+03</totfact>
</mgrwt>
</event>
<event>
 8    3  0.7944584E-004  0.1327030E+03  0.7818608E-02  0.1236735E+00
          2   -1    0    0  501    0  0.00000000000E+00  0.00000000000E+00  0.19356363698E+03  0.19356363699E+03  0.25500000000E-02 0. -1.
         -2   -1    0    0    0  501 -0.00000000000E+00 -0.00000000000E+00 -0.79100263530E+02  0.79100263572E+02  0.25500000000E-02 0.  1.
         25    2    1    2    0    0 -0.40260427259E+02 -0.19081697865E+02  0.10867757677E+03  0.17152520515E+03  0.12500026845E+03 0.  0.
         23    2    1    2    0    0  0.40260427259E+02  0.19081697865E+02  0.57857966802E+01  0.10113869542E+03  0.90612069127E+02 0.  0.
        -13    1    4    4    0    0  0.85859470261E+00 -0.30070739266E+02 -0.16507354910E+02  0.34314581085E+02  0.10566000000E+00 0.  1.
         13    1    4    4    0    0  0.39401832556E+02  0.49152437131E+02  0.22293151590E+02  0.66824114335E+02  0.10566000000E+00 0. -1.
    9000005    1    3    3    0    0 -0.76816522438E+02 -0.42618825651E+02  0.60774241281E+02  0.10682532856E+03  0.10000000000E+01 0.  0.
    9000005    1    3    3    0    0  0.36556095180E+02  0.23537127785E+02  0.47903335484E+02  0.64699876582E+02  0.10000000000E+01 0.  0.
<mgrwt>
<rscale>  0 0.12394011E+03</rscale>
<asrwt>0</asrwt>
<pdfrwt beam="1">  1        2 0.29779021E-01 0.13270298E+03</pdfrwt>
<pdfrwt beam="2">  1       -2 0.12169271E-01 0.13270298E+03</pdfrwt>
<totfact> 0.80763148E+03</totfact>
</mgrwt>
</event>
<event>
 8    3  0.7944584E-004  0.1781910E+03  0.7818608E-02  0.1174831E+00
          2   -1    0    0  501    0  0.00000000000E+00  0.00000000000E+00  0.11527102938E+04  0.11527102938E+04  0.25500000000E-02 0.  1.
         -2   -1    0    0    0  501 -0.00000000000E+00 -0.00000000000E+00 -0.24561034168E+02  0.24561034300E+02  0.25500000000E-02 0. -1.
         25    2    1    2    0    0  0.46948037485E+02  0.11799473464E+03  0.62212808245E+03  0.64714402492E+03  0.12500064960E+03 0.  0.
         23    2    1    2    0    0 -0.46948037485E+02 -0.11799473464E+03  0.50602117715E+03  0.53012730315E+03  0.94077894255E+02 0.  0.
        -13    1    4    4    0    0 -0.54396222128E+02 -0.27138784060E+02  0.27778789181E+03  0.28436171786E+03  0.10566000000E+00 0.  1.
         13    1    4    4    0    0  0.74481846437E+01 -0.90855950579E+02  0.22823328534E+03  0.24576558529E+03  0.10566000000E+00 0. -1.
    9000005    1    3    3    0    0  0.68355443146E+02  0.11724374075E+03  0.37000628514E+03  0.39411192877E+03  0.10000000000E+01 0.  0.
    9000005    1    3    3    0    0 -0.21407405661E+02  0.75099389045E+00  0.25212179731E+03  0.25303209616E+03  0.10000000000E+01 0.  0.
<mgrwt>
<rscale>  0 0.17292510E+03</rscale>
<asrwt>0</asrwt>
<pdfrwt beam="1">  1        2 0.17734005E+00 0.17819102E+03</pdfrwt>
<pdfrwt beam="2">  1       -2 0.37786206E-02 0.17819102E+03</pdfrwt>
<totfact> 0.62804639E+03</totfact>
</mgrwt>
</event>
<event>
 8    3  0.7944584E-004  0.1363498E+03  0.7818608E-02  0.1229438E+00
         -2   -1    0    0    0  501 -0.00000000000E+00  0.00000000000E+00  0.84387088139E+01  0.84387091992E+01  0.25500000000E-02 0.  1.
          2   -1    0    0  501    0  0.00000000000E+00 -0.00000000000E+00 -0.19781092327E+04  0.19781092327E+04  0.25500000000E-02 0. -1.
         25    2    1    2    0    0  0.53528765219E+02 -0.10061403140E+02 -0.76697797565E+03  0.77900351073E+03  0.12499877627E+03 0.  0.
         23    2    1    2    0    0 -0.53528765219E+02  0.10061403140E+02 -0.12026925483E+04  0.12075444312E+04  0.93421770032E+02 0.  0.
        -13    1    4    4    0    0 -0.23102394414E+02  0.40657587495E+01 -0.59874033776E+02  0.64305226122E+02  0.10566000000E+00 0.  1.
         13    1    4    4    0    0 -0.30426370805E+02  0.59956443906E+01 -0.11428185145E+04  0.11432392051E+04  0.10566000000E+00 0. -1.
    9000005    1    3    3    0    0  0.71516911096E+00 -0.25258110848E+01  0.47040438596E+01  0.54789795698E+01  0.10000000000E+01 0.  0.
    9000005    1    3    3    0    0  0.52813596108E+02 -0.75355920554E+01 -0.77168201951E+03  0.77352453116E+03  0.10000000000E+01 0.  0.
<mgrwt>
<rscale>  0 0.12867288E+03</rscale>
<asrwt>0</asrwt>
<pdfrwt beam="2">  1        2 0.30432413E+00 0.13634975E+03</pdfrwt>
<pdfrwt beam="1">  1       -2 0.12982645E-02 0.13634975E+03</pdfrwt>
<totfact> 0.10910071E+04</totfact>
</mgrwt>
</event>
<event>
 8    3  0.7944584E-004  0.1390796E+03  0.7818608E-02  0.1221593E+00
         -2   -1    0    0    0  501 -0.00000000000E+00  0.00000000000E+00  0.13485481108E+02  0.13485481349E+02  0.25500000000E-02 0.  1.
          2   -1    0    0  501    0  0.00000000000E+00 -0.00000000000E+00 -0.13918027521E+04  0.13918027521E+04  0.25500000000E-02 0. -1.
         25    2    1    2    0    0  0.54529955049E+02 -0.27290536738E+02 -0.96306230444E+03  0.97305299411E+03  0.12499935094E+03 0.  0.
         23    2    1    2    0    0 -0.54529955049E+02  0.27290536738E+02 -0.41525496660E+03  0.43223523938E+03  0.10330694790E+03 0.  0.
        -13    1    4    4    0    0 -0.21447750235E+01  0.21455973709E+02 -0.33814465840E+03  0.33883149209E+03  0.10566000000E+00 0. -1.
         13    1    4    4    0    0 -0.52385180025E+02  0.58345630296E+01 -0.77110308200E+02  0.93403747284E+02  0.10566000000E+00 0.  1.
    9000005    1    3    3    0    0  0.39497256805E+01  0.48099776864E+02 -0.32725459619E+03  0.33079564628E+03  0.10000000000E+01 0.  0.
    9000005    1    3    3    0    0  0.50580229368E+02 -0.75390313603E+02 -0.63580770824E+03  0.64225734784E+03  0.10000000000E+01 0.  0.
<mgrwt>
<rscale>  0 0.13403167E+03</rscale>
<asrwt>0</asrwt>
<pdfrwt beam="2">  1        2 0.21412339E+00 0.13907957E+03</pdfrwt>
<pdfrwt beam="1">  1       -2 0.20746905E-02 0.13907957E+03</pdfrwt>
<totfact> 0.11121099E+04</totfact>
</mgrwt>
</event>
<event>
 8    3  0.7944584E-004  0.1900600E+03  0.7818608E-02  0.1163295E+00
          2   -1    0    0  501    0  0.00000000000E+00  0.00000000000E+00  0.17759245690E+03  0.17759245692E+03  0.25500000000E-02 0. -1.
         -2   -1    0    0    0  501 -0.00000000000E+00 -0.00000000000E+00 -0.18268246237E+03  0.18268246239E+03  0.25500000000E-02 0.  1.
         25    2    1    2    0    0  0.96831710844E+02 -0.10545504350E+03  0.70655832311E+01  0.19019125401E+03  0.12500257681E+03 0.  0.
         23    2    1    2    0    0 -0.96831710844E+02  0.10545504350E+03 -0.12155588694E+02  0.17008366530E+03  0.91014001352E+02 0.  0.
        -13    1    4    4    0    0 -0.93550262449E+02  0.50008207774E+02 -0.32478589928E+02  0.11093846230E+03  0.10566000000E+00 0.  1.
         13    1    4    4    0    0 -0.32814483947E+01  0.55446835723E+02  0.20323001234E+02  0.59145203005E+02  0.10566000000E+00 0. -1.
    9000005    1    3    3    0    0  0.91958223823E+02 -0.13320417506E+03  0.63415857587E+01  0.16199037901E+03  0.10000000000E+01 0.  0.
    9000005    1    3    3    0    0  0.48734870213E+01  0.27749131562E+02  0.72399747236E+00  0.28200874996E+02  0.10000000000E+01 0.  0.
<mgrwt>
<rscale>  0 0.18473775E+03</rscale>
<asrwt>0</asrwt>
<pdfrwt beam="1">  1        2 0.27321916E-01 0.19005997E+03</pdfrwt>
<pdfrwt beam="2">  1       -2 0.28104994E-01 0.19005997E+03</pdfrwt>
<totfact> 0.22076741E+03</totfact>
</mgrwt>
</event>
<event>
 8    3  0.7944584E-004  0.1553628E+03  0.7818608E-02  0.1202375E+00
         -2   -1    0    0    0  501 -0.00000000000E+00  0.00000000000E+00  0.14336453584E+03  0.14336453587E+03  0.25500000000E-02 0.  1.
          2   -1    0    0  501    0  0.00000000000E+00 -0.00000000000E+00 -0.14166011449E+03  0.14166011451E+03  0.25500000000E-02 0. -1.
         25    2    1    2    0    0 -0.89718481881E+02  0.21568410127E+02  0.48914780324E+01  0.15543979132E+03  0.12499199919E+03 0.  0.
         23    2    1    2    0    0  0.89718481881E+02 -0.21568410127E+02 -0.31870566764E+01  0.12958485906E+03  0.90925662279E+02 0.  0.
        -13    1    4    4    0    0  0.12699883877E+02  0.21529392121E+02 -0.28364518044E+02  0.37806862121E+02  0.10566000000E+00 0. -1.
         13    1    4    4    0    0  0.77018598005E+02 -0.43097802248E+02  0.25177461367E+02  0.91777996939E+02  0.10566000000E+00 0.  1.
    9000005    1    3    3    0    0 -0.11399439691E+03 -0.10164362730E+02 -0.39028885141E+01  0.11451755034E+03  0.10000000000E+01 0.  0.
    9000005    1    3    3    0    0  0.24275915029E+02  0.31732772857E+02  0.87943665465E+01  0.40922240978E+02  0.10000000000E+01 0.  0.
<mgrwt>
<rscale>  0 0.14846224E+03</rscale>
<asrwt>0</asrwt>
<pdfrwt beam="2">  1        2 0.21793864E-01 0.15536281E+03</pdfrwt>
<pdfrwt beam="1">  1       -2 0.22056082E-01 0.15536281E+03</pdfrwt>
<totfact> 0.43036158E+03</totfact>
</mgrwt>
</event>
<event>
 8    3  0.7944584E-004  0.1733369E+03  0.7818608E-02  0.1180530E+00
          2   -1    0    0  501    0  0.00000000000E+00  0.00000000000E+00  0.10192478542E+04  0.10192478542E+04  0.25500000000E-02 0. -1.
         -2   -1    0    0    0  501 -0.00000000000E+00 -0.00000000000E+00 -0.36925733078E+02  0.36925733166E+02  0.25500000000E-02 0.  1.
         25    2    1    2    0    0  0.11904231020E+03 -0.15798300845E+02  0.22540446361E+03  0.28434636917E+03  0.12500011008E+03 0.  0.
         23    2    1    2    0    0 -0.11904231020E+03  0.15798300845E+02  0.75691765754E+03  0.77182721822E+03  0.91500035862E+02 0.  0.
        -13    1    4    4    0    0 -0.85516461540E+02 -0.15560563690E+02  0.64545601353E+03  0.65128232964E+03  0.10566000000E+00 0. -1.
         13    1    4    4    0    0 -0.33525848657E+02  0.31358864535E+02  0.11146164401E+03  0.12054488858E+03  0.10566000000E+00 0.  1.
    9000005    1    3    3    0    0  0.12014365429E+03  0.41939567611E+01  0.97242611643E+02  0.15462604069E+03  0.10000000000E+01 0.  0.
    9000005    1    3    3    0    0 -0.11013440954E+01 -0.19992257606E+02  0.12816185196E+03  0.12972032848E+03  0.10000000000E+01 0.  0.
<mgrwt>
<rscale>  0 0.16745313E+03</rscale>
<asrwt>0</asrwt>
<pdfrwt beam="1">  1        2 0.15680735E+00 0.17333691E+03</pdfrwt>
<pdfrwt beam="2">  1       -2 0.56808823E-02 0.17333691E+03</pdfrwt>
<totfact> 0.40616668E+03</totfact>
</mgrwt>
</event>
<event>
 8    3  0.7944584E-004  0.1737345E+03  0.7818608E-02  0.1179724E+00
          2   -1    0    0  501    0  0.00000000000E+00  0.00000000000E+00  0.12393817673E+04  0.12393817673E+04  0.25500000000E-02 0.  1.
         -2   -1    0    0    0  501 -0.00000000000E+00 -0.00000000000E+00 -0.22668637610E+02  0.22668637753E+02  0.25500000000E-02 0. -1.
         25    2    1    2    0    0 -0.10661346982E+03  0.56474287997E+02  0.78904642377E+03  0.80794674528E+03  0.12501162825E+03 0.  0.
         23    2    1    2    0    0  0.10661346982E+03 -0.56474287997E+02  0.42766670588E+03  0.45410365974E+03  0.93571070919E+02 0.  0.
        -13    1    4    4    0    0  0.11472668514E+03 -0.26828734266E+02  0.37555220673E+03  0.39360064077E+03  0.10566000000E+00 0.  1.
         13    1    4    4    0    0 -0.81132153182E+01 -0.29645553731E+02  0.52114499149E+02  0.60503018969E+02  0.10566000000E+00 0. -1.
    9000005    1    3    3    0    0 -0.60246190375E+02 -0.22086366477E+02  0.16116114016E+03  0.17346851050E+03  0.10000000000E+01 0.  0.
    9000005    1    3    3    0    0 -0.46367279445E+02  0.78560654474E+02  0.62788528361E+03  0.63447823478E+03  0.10000000000E+01 0.  0.
<mgrwt>
<rscale>  0 0.16821335E+03</rscale>
<asrwt>0</asrwt>
<pdfrwt beam="1">  1        2 0.19067415E+00 0.17373452E+03</pdfrwt>
<pdfrwt beam="2">  1       -2 0.34874821E-02 0.17373452E+03</pdfrwt>
<totfact> 0.63227912E+03</totfact>
</mgrwt>
</event>
<event>
 8    3  0.7944584E-004  0.1334872E+03  0.7818608E-02  0.1233656E+00
         -2   -1    0    0    0  501 -0.00000000000E+00  0.00000000000E+00  0.43529803562E+02  0.43529803637E+02  0.25500000000E-02 0.  1.
          2   -1    0    0  501    0  0.00000000000E+00 -0.00000000000E+00 -0.33437546681E+03  0.33437546682E+03  0.25500000000E-02 0. -1.
         25    2    1    2    0    0 -0.11237317335E+02  0.45468669118E+02 -0.18702021964E+03  0.22977248604E+03  0.12500062245E+03 0.  0.
         23    2    1    2    0    0  0.11237317335E+02 -0.45468669118E+02 -0.10382544360E+03  0.14813278441E+03  0.94709671665E+02 0.  0.
        -13    1    4    4    0    0  0.18476327929E+02 -0.43314583166E+01 -0.10464842647E+03  0.10635525634E+03  0.10566000000E+00 0. -1.
         13    1    4    4    0    0 -0.72390105940E+01 -0.41137210801E+02  0.82298287006E+00  0.41777528071E+02  0.10566000000E+00 0.  1.
    9000005    1    3    3    0    0 -0.18852340938E+02  0.42417554156E+02 -0.40386678643E+01  0.46604404272E+02  0.10000000000E+01 0.  0.
    9000005    1    3    3    0    0  0.76150236038E+01  0.30511149619E+01 -0.18298155178E+03  0.18316808177E+03  0.10000000000E+01 0.  0.
<mgrwt>
<rscale>  0 0.12590856E+03</rscale>
<asrwt>0</asrwt>
<pdfrwt beam="2">  1        2 0.51442378E-01 0.13348720E+03</pdfrwt>
<pdfrwt beam="1">  1       -2 0.66968931E-02 0.13348720E+03</pdfrwt>
<totfact> 0.11446050E+04</totfact>
</mgrwt>
</event>
<event>
 8    3  0.7944584E-004  0.1328887E+03  0.7818608E-02  0.1235794E+00
         -2   -1    0    0    0  501 -0.00000000000E+00  0.00000000000E+00  0.37029705183E+02  0.37029705270E+02  0.25500000000E-02 0.  1.
          2   -1    0    0  501    0  0.00000000000E+00 -0.00000000000E+00 -0.89217684209E+03  0.89217684209E+03  0.25500000000E-02 0. -1.
         25    2    1    2    0    0 -0.37184242572E+02 -0.25537486937E+02 -0.97908710775E+02  0.16506216203E+03  0.12499828220E+03 0.  0.
         23    2    1    2    0    0  0.37184242572E+02  0.25537486937E+02 -0.75723842613E+03  0.76414438533E+03  0.92042253834E+02 0.  0.
        -13    1    4    4    0    0  0.46312691436E+02  0.24656387189E+02 -0.19808631375E+03  0.20491706048E+03  0.10566000000E+00 0.  1.
         13    1    4    4    0    0 -0.91284488642E+01  0.88109974816E+00 -0.55915211238E+03  0.55922732485E+03  0.10566000000E+00 0. -1.
    9000005    1    3    3    0    0  0.21959912029E+02  0.20513384025E+02 -0.83469145235E+02  0.88719416515E+02  0.10000000000E+01 0.  0.
    9000005    1    3    3    0    0 -0.59144154601E+02 -0.46050870962E+02 -0.14439565540E+02  0.76342745515E+02  0.10000000000E+01 0.  0.
<mgrwt>
<rscale>  0 0.12453712E+03</rscale>
<asrwt>0</asrwt>
<pdfrwt beam="2">  1        2 0.13725796E+00 0.13288868E+03</pdfrwt>
<pdfrwt beam="1">  1       -2 0.56968784E-02 0.13288868E+03</pdfrwt>
<totfact> 0.47983405E+03</totfact>
</mgrwt>
</event>
<event>
 8    3  0.7944584E-004  0.1250737E+03  0.7818608E-02  0.1250133E+00
          2   -1    0    0  501    0  0.00000000000E+00  0.00000000000E+00  0.10693830062E+04  0.10693830062E+04  0.25500000000E-02 0. -1.
         -2   -1    0    0    0  501 -0.00000000000E+00 -0.00000000000E+00 -0.12738509146E+02  0.12738509401E+02  0.25500000000E-02 0.  1.
         25    2    1    2    0    0  0.26948080980E+01  0.16516955287E+01  0.40101872796E+03  0.42007076363E+03  0.12503374020E+03 0.  0.
         23    2    1    2    0    0 -0.26948080980E+01 -0.16516955287E+01  0.65562576906E+03  0.66205075194E+03  0.91956832310E+02 0.  0.
        -13    1    4    4    0    0  0.27707316603E+02  0.48576639193E+01  0.67808820004E+02  0.73412121114E+02  0.10566000000E+00 0.  1.
         13    1    4    4    0    0 -0.30402124701E+02 -0.65093594479E+01  0.58781694905E+03  0.58863863083E+03  0.10566000000E+00 0. -1.
    9000005    1    3    3    0    0  0.14170678575E+02 -0.24328977807E+02  0.38763450279E+03  0.38865693747E+03  0.10000000000E+01 0.  0.
    9000005    1    3    3    0    0 -0.11475870477E+02  0.25980673336E+02  0.13384225173E+02  0.31413826154E+02  0.10000000000E+01 0.  0.
<mgrwt>
<rscale>  0 0.11583360E+03</rscale>
<asrwt>0</asrwt>
<pdfrwt beam="1">  1        2 0.16452044E+00 0.12507368E+03</pdfrwt>
<pdfrwt beam="2">  1       -2 0.19597709E-02 0.12507368E+03</pdfrwt>
<totfact> 0.18054675E+04</totfact>
</mgrwt>
</event>
<event>
 8    3  0.7944584E-004  0.1304273E+03  0.7818608E-02  0.1239028E+00
         -2   -1    0    0    0  501 -0.00000000000E+00  0.00000000000E+00  0.14535144968E+03  0.14535144970E+03  0.25500000000E-02 0.  1.
          2   -1    0    0  501    0  0.00000000000E+00 -0.00000000000E+00 -0.93359187776E+02  0.93359187811E+02  0.25500000000E-02 0. -1.
         25    2    1    2    0    0  0.26902289957E+02  0.25752922581E+02  0.17939048370E+02  0.13165521213E+03  0.12499735676E+03 0.  0.
         23    2    1    2    0    0 -0.26902289957E+02 -0.25752922581E+02  0.34053213530E+02  0.10705542538E+03  0.94415552349E+02 0.  0.
        -13    1    4    4    0    0 -0.48725384282E+02  0.16166340050E+02  0.30380565790E+02  0.59653194095E+02  0.10566000000E+00 0.  1.
         13    1    4    4    0    0  0.21823094326E+02 -0.41919262630E+02  0.36726477408E+01  0.47402231286E+02  0.10566000000E+00 0. -1.
    9000005    1    3    3    0    0 -0.56245853771E+01  0.52281790503E+02 -0.35680126058E+02  0.63553858848E+02  0.10000000000E+01 0.  0.
    9000005    1    3    3    0    0  0.32526875334E+02 -0.26528867923E+02  0.53619174428E+02  0.68101353280E+02  0.10000000000E+01 0.  0.
<mgrwt>
<rscale>  0 0.12250043E+03</rscale>
<asrwt>0</asrwt>
<pdfrwt beam="2">  1        2 0.14362952E-01 0.13042732E+03</pdfrwt>
<pdfrwt beam="1">  1       -2 0.22361761E-01 0.13042732E+03</pdfrwt>
<totfact> 0.67097232E+03</totfact>
</mgrwt>
</event>
<event>
 8    3  0.7944584E-004  0.1646161E+03  0.7818608E-02  0.1190538E+00
         -2   -1    0    0    0  501 -0.00000000000E+00  0.00000000000E+00  0.12510060953E+03  0.12510060956E+03  0.25500000000E-02 0.  1.
          2   -1    0    0  501    0  0.00000000000E+00 -0.00000000000E+00 -0.25711040319E+03  0.25711040320E+03  0.25500000000E-02 0. -1.
         25    2    1    2    0    0 -0.67287938910E+02  0.83347283620E+02 -0.16947981054E+03  0.23626649280E+03  0.12499605207E+03 0.  0.
         23    2    1    2    0    0  0.67287938910E+02 -0.83347283620E+02  0.37470016880E+02  0.14594451995E+03  0.91767991859E+02 0.  0.
        -13    1    4    4    0    0  0.66157317748E+02 -0.79251855524E+02  0.62417041993E+02  0.12063807687E+03  0.10566000000E+00 0.  1.
         13    1    4    4    0    0  0.11306211621E+01 -0.40954280958E+01 -0.24947025113E+02  0.25306443084E+02  0.10566000000E+00 0. -1.
    9000005    1    3    3    0    0 -0.45579394835E+02 -0.69786658369E+01 -0.12505288088E+03  0.13328693119E+03  0.10000000000E+01 0.  0.
    9000005    1    3    3    0    0 -0.21708544075E+02  0.90325949457E+02 -0.44426929658E+02  0.10297956161E+03  0.10000000000E+01 0.  0.
<mgrwt>
<rscale>  0 0.15837964E+03</rscale>
<asrwt>0</asrwt>
<pdfrwt beam="2">  1        2 0.39555447E-01 0.16461607E+03</pdfrwt>
<pdfrwt beam="1">  1       -2 0.19246248E-01 0.16461607E+03</pdfrwt>
<totfact> 0.28382087E+03</totfact>
</mgrwt>
</event>
<event>
 8    3  0.7944584E-004  0.1660962E+03  0.7818608E-02  0.1189625E+00
          2   -1    0    0  501    0  0.00000000000E+00  0.00000000000E+00  0.19198351722E+04  0.19198351722E+04  0.25500000000E-02 0. -1.
         -2   -1    0    0    0  501 -0.00000000000E+00 -0.00000000000E+00 -0.23196544333E+02  0.23196544473E+02  0.25500000000E-02 0.  1.
         25    2    1    2    0    0 -0.98468798415E+02 -0.47608931658E+02  0.16580109515E+04  0.16663097755E+04  0.12500095231E+03 0.  0.
         23    2    1    2    0    0  0.98468798415E+02  0.47608931658E+02  0.23862767640E+03  0.27672194118E+03  0.87573684139E+02 0.  0.
        -13    1    4    4    0    0  0.79176988011E+02  0.63381070485E+01  0.20572170053E+03  0.22052345967E+03  0.10566000000E+00 0.  1.
         13    1    4    4    0    0  0.19291810404E+02  0.41270824610E+02  0.32905975871E+02  0.56198481516E+02  0.10566000000E+00 0. -1.
    9000005    1    3    3    0    0 -0.12029805327E+03 -0.51947281094E+02  0.15722881736E+04  0.15777392822E+04  0.10000000000E+01 0.  0.
    9000005    1    3    3    0    0  0.21829254858E+02  0.43383494353E+01  0.85722777899E+02  0.88570493361E+02  0.10000000000E+01 0.  0.
<mgrwt>
<rscale>  0 0.15918055E+03</rscale>
<asrwt>0</asrwt>
<pdfrwt beam="1">  1        2 0.29535930E+00 0.16609622E+03</pdfrwt>
<pdfrwt beam="2">  1       -2 0.35686986E-02 0.16609622E+03</pdfrwt>
<totfact> 0.26792998E+03</totfact>
</mgrwt>
</event>
<event>
 8    3  0.7944584E-004  0.1441221E+03  0.7818608E-02  0.1217666E+00
         -2   -1    0    0    0  501 -0.00000000000E+00  0.00000000000E+00  0.63051616556E+03  0.63051616556E+03  0.25500000000E-02 0.  1.
          2   -1    0    0  501    0  0.00000000000E+00 -0.00000000000E+00 -0.29745584897E+02  0.29745585006E+02  0.25500000000E-02 0. -1.
         25    2    1    2    0    0  0.32743536331E+02  0.63832457309E+02  0.42754762634E+03  0.45118528604E+03  0.12499787107E+03 0.  0.
         23    2    1    2    0    0 -0.32743536331E+02 -0.63832457309E+02  0.17322295432E+03  0.20907646453E+03  0.92520561711E+02 0.  0.
        -13    1    4    4    0    0 -0.47430763050E+02 -0.81364037302E+02  0.13762760123E+03  0.16676675818E+03  0.10566000000E+00 0.  1.
         13    1    4    4    0    0  0.14687226719E+02  0.17531579993E+02  0.35595353089E+02  0.42309706349E+02  0.10566000000E+00 0. -1.
    9000005    1    3    3    0    0  0.11766534459E+01  0.74488522428E+02  0.40289840220E+03  0.40972923618E+03  0.10000000000E+01 0.  0.
    9000005    1    3    3    0    0  0.31566882885E+02 -0.10656065119E+02  0.24649224137E+02  0.41456049854E+02  0.10000000000E+01 0.  0.
<mgrwt>
<rscale>  0 0.13682483E+03</rscale>
<asrwt>0</asrwt>
<pdfrwt beam="2">  1        2 0.45762439E-02 0.14412213E+03</pdfrwt>
<pdfrwt beam="1">  1       -2 0.97002485E-01 0.14412213E+03</pdfrwt>
<totfact> 0.15752343E+03</totfact>
</mgrwt>
</event>
<event>
 8    3  0.7944584E-004  0.1428451E+03  0.7818608E-02  0.1219929E+00
         -2   -1    0    0    0  501 -0.00000000000E+00  0.00000000000E+00  0.61572901592E+02  0.61572901645E+02  0.25500000000E-02 0.  1.
          2   -1    0    0  501    0  0.00000000000E+00 -0.00000000000E+00 -0.33484835907E+03  0.33484835908E+03  0.25500000000E-02 0. -1.
         25    2    1    2    0    0  0.26202819047E+02  0.63963618113E+02 -0.23599201768E+03  0.27585677787E+03  0.12500718907E+03 0.  0.
         23    2    1    2    0    0 -0.26202819047E+02 -0.63963618113E+02 -0.37283439801E+02  0.12056448286E+03  0.91475720687E+02 0.  0.
        -13    1    4    4    0    0 -0.52116629849E+02 -0.25580088530E+02  0.44450697871E+01  0.58225886386E+02  0.10566000000E+00 0.  1.
         13    1    4    4    0    0  0.25913810802E+02 -0.38383529583E+02 -0.41728509588E+02  0.62338596471E+02  0.10566000000E+00 0. -1.
    9000005    1    3    3    0    0 -0.35899871651E+02  0.32436946155E+02 -0.26683409085E+02  0.55262650867E+02  0.10000000000E+01 0.  0.
    9000005    1    3    3    0    0  0.62102690697E+02  0.31526671958E+02 -0.20930860859E+03  0.22059412700E+03  0.10000000000E+01 0.  0.
<mgrwt>
<rscale>  0 0.13520638E+03</rscale>
<asrwt>0</asrwt>
<pdfrwt beam="2">  1        2 0.51515131E-01 0.14284512E+03</pdfrwt>
<pdfrwt beam="1">  1       -2 0.94727543E-02 0.14284512E+03</pdfrwt>
<totfact> 0.67197786E+03</totfact>
</mgrwt>
</event>
<event>
 8    3  0.7944584E-004  0.1269186E+03  0.7818608E-02  0.1247981E+00
          2   -1    0    0  501    0  0.00000000000E+00  0.00000000000E+00  0.50935024819E+02  0.50935024882E+02  0.25500000000E-02 0. -1.
         -2   -1    0    0    0  501 -0.00000000000E+00 -0.00000000000E+00 -0.24120530623E+03  0.24120530624E+03  0.25500000000E-02 0.  1.
         25    2    1    2    0    0 -0.21664308395E+02 -0.62207386751E+00 -0.13294718033E+03  0.18380226278E+03  0.12505434744E+03 0.  0.
         23    2    1    2    0    0  0.21664308395E+02  0.62207386751E+00 -0.57323101081E+02  0.10833806834E+03  0.89339072639E+02 0.  0.
        -13    1    4    4    0    0  0.35802258210E+02 -0.23152571575E+02  0.22091034541E+01  0.42693495589E+02  0.10566000000E+00 0. -1.
         13    1    4    4    0    0 -0.14137949816E+02  0.23774645442E+02 -0.59532204535E+02  0.65644572751E+02  0.10566000000E+00 0.  1.
    9000005    1    3    3    0    0 -0.19920412301E+02  0.51369715086E+02 -0.18576978375E+02  0.58153027262E+02  0.10000000000E+01 0.  0.
    9000005    1    3    3    0    0 -0.17438960936E+01 -0.51991788953E+02 -0.11437020195E+03  0.12564923552E+03  0.10000000000E+01 0.  0.
<mgrwt>
<rscale>  0 0.11708699E+03</rscale>
<asrwt>0</asrwt>
<pdfrwt beam="1">  1        2 0.78361578E-02 0.12691855E+03</pdfrwt>
<pdfrwt beam="2">  1       -2 0.37108508E-01 0.12691855E+03</pdfrwt>
<totfact> 0.56629526E+03</totfact>
</mgrwt>
</event>
<event>
 8    3  0.7944584E-004  0.1253936E+03  0.7818608E-02  0.1250728E+00
         -2   -1    0    0    0  501 -0.00000000000E+00  0.00000000000E+00  0.20251577251E+02  0.20251577412E+02  0.25500000000E-02 0.  1.
          2   -1    0    0  501    0  0.00000000000E+00 -0.00000000000E+00 -0.57396866324E+03  0.57396866325E+03  0.25500000000E-02 0. -1.
         25    2    1    2    0    0  0.85571824501E+01  0.49695653416E+01 -0.32341593269E+03  0.34687379712E+03  0.12500257461E+03 0.  0.
         23    2    1    2    0    0 -0.85571824501E+01 -0.49695653416E+01 -0.23030115330E+03  0.24734644354E+03  0.89686788153E+02 0.  0.
        -13    1    4    4    0    0  0.44956716438E+01 -0.21621582618E+01  0.75887224353E+01  0.90821728740E+01  0.10566000000E+00 0.  1.
         13    1    4    4    0    0 -0.13052854094E+02 -0.28074070798E+01 -0.23788987573E+03  0.23826427067E+03  0.10566000000E+00 0. -1.
    9000005    1    3    3    0    0  0.42887177021E+02 -0.26597703327E+02 -0.27518132105E+03  0.27977224171E+03  0.10000000000E+01 0.  0.
    9000005    1    3    3    0    0 -0.34329994571E+02  0.31567268668E+02 -0.48234611636E+02  0.67101555408E+02  0.10000000000E+01 0.  0.
<mgrwt>
<rscale>  0 0.11549033E+03</rscale>
<asrwt>0</asrwt>
<pdfrwt beam="2">  1        2 0.88302859E-01 0.12539364E+03</pdfrwt>
<pdfrwt beam="1">  1       -2 0.31156277E-02 0.12539364E+03</pdfrwt>
<totfact> 0.19917938E+04</totfact>
</mgrwt>
</event>
<event>
 8    3  0.7944584E-004  0.1854800E+03  0.7818608E-02  0.1167688E+00
         -2   -1    0    0    0  501 -0.00000000000E+00  0.00000000000E+00  0.23841019391E+02  0.23841019527E+02  0.25500000000E-02 0. -1.
          2   -1    0    0  501    0  0.00000000000E+00 -0.00000000000E+00 -0.19166777663E+04  0.19166777663E+04  0.25500000000E-02 0.  1.
         25    2    1    2    0    0  0.13701677123E+03 -0.19392042965E+01 -0.42849458641E+03  0.46691588473E+03  0.12500190686E+03 0.  0.
         23    2    1    2    0    0 -0.13701677123E+03  0.19392042965E+01 -0.14643421605E+04  0.14736029011E+04  0.91816071577E+02 0.  0.
        -13    1    4    4    0    0 -0.14136448642E+03 -0.32979849941E+01 -0.14559335281E+04  0.14627840730E+04  0.10566000000E+00 0.  1.
         13    1    4    4    0    0  0.43477151908E+01  0.52371892906E+01 -0.84086323639E+01  0.10818828093E+02  0.10566000000E+00 0. -1.
    9000005    1    3    3    0    0  0.70178746849E+02  0.31886839988E+02 -0.82533745803E+02  0.11293647006E+03  0.10000000000E+01 0.  0.
    9000005    1    3    3    0    0  0.66838024383E+02 -0.33826044285E+02 -0.34596084061E+03  0.35397941467E+03  0.10000000000E+01 0.  0.
<mgrwt>
<rscale>  0 0.18011878E+03</rscale>
<asrwt>0</asrwt>
<pdfrwt beam="2">  1        2 0.29487338E+00 0.18548001E+03</pdfrwt>
<pdfrwt beam="1">  1       -2 0.36678506E-02 0.18548001E+03</pdfrwt>
<totfact> 0.25805823E+03</totfact>
</mgrwt>
</event>
<event>
 8    3  0.7944584E-004  0.1312892E+03  0.7818608E-02  0.1238002E+00
          2   -1    0    0  501    0  0.00000000000E+00  0.00000000000E+00  0.14209496151E+03  0.14209496153E+03  0.25500000000E-02 0.  1.
         -2   -1    0    0    0  501 -0.00000000000E+00 -0.00000000000E+00 -0.12265243923E+03  0.12265243925E+03  0.25500000000E-02 0. -1.
         25    2    1    2    0    0 -0.82860188798E+01 -0.39215348229E+02 -0.51279053582E+02  0.14094816789E+03  0.12502137037E+03 0.  0.
         23    2    1    2    0    0  0.82860188798E+01  0.39215348229E+02  0.70721575865E+02  0.12379923289E+03  0.93371339963E+02 0.  0.
        -13    1    4    4    0    0  0.14368699730E+02  0.58350296284E+02  0.81304531437E+02  0.10110219881E+03  0.10566000000E+00 0.  1.
         13    1    4    4    0    0 -0.60826808507E+01 -0.19134948056E+02 -0.10582955572E+02  0.22697034081E+02  0.10566000000E+00 0. -1.
    9000005    1    3    3    0    0  0.61739893938E+01 -0.67548063505E+02  0.13138803425E+02  0.69097664098E+02  0.10000000000E+01 0.  0.
    9000005    1    3    3    0    0 -0.14460008274E+02  0.28332715276E+02 -0.64417857007E+02  0.71850503795E+02  0.10000000000E+01 0.  0.
<mgrwt>
<rscale>  0 0.12314205E+03</rscale>
<asrwt>0</asrwt>
<pdfrwt beam="1">  1        2 0.21860763E-01 0.13128916E+03</pdfrwt>
<pdfrwt beam="2">  1       -2 0.18869606E-01 0.13128916E+03</pdfrwt>
<totfact> 0.55329024E+03</totfact>
</mgrwt>
</event>
<event>
 8    3  0.7944584E-004  0.1699883E+03  0.7818608E-02  0.1185681E+00
          2   -1    0    0  501    0  0.00000000000E+00  0.00000000000E+00  0.11952144464E+04  0.11952144464E+04  0.25500000000E-02 0.  1.
         -2   -1    0    0    0  501 -0.00000000000E+00 -0.00000000000E+00 -0.36983079912E+02  0.36983080000E+02  0.25500000000E-02 0. -1.
         25    2    1    2    0    0  0.28416273755E+02  0.11163997779E+03  0.19598837027E+03  0.25943684256E+03  0.12500025895E+03 0.  0.
         23    2    1    2    0    0 -0.28416273755E+02 -0.11163997779E+03  0.96224299619E+03  0.97276068382E+03  0.84147459946E+02 0.  0.
        -13    1    4    4    0    0 -0.12654389127E+02 -0.11686504506E+03  0.91815574286E+03  0.92564979968E+03  0.10566000000E+00 0.  1.
         13    1    4    4    0    0 -0.15761884628E+02  0.52250672733E+01  0.44087253328E+02  0.47110884147E+02  0.10566000000E+00 0. -1.
    9000005    1    3    3    0    0  0.25171138530E+02  0.10710686625E+03  0.21396004271E+03  0.24059377982E+03  0.10000000000E+01 0.  0.
    9000005    1    3    3    0    0  0.32451352250E+01  0.45331115413E+01 -0.17971672440E+02  0.18843062733E+02  0.10000000000E+01 0.  0.
<mgrwt>
<rscale>  0 0.16270077E+03</rscale>
<asrwt>0</asrwt>
<pdfrwt beam="1">  1        2 0.18387915E+00 0.16998833E+03</pdfrwt>
<pdfrwt beam="2">  1       -2 0.56897044E-02 0.16998833E+03</pdfrwt>
<totfact> 0.32053048E+03</totfact>
</mgrwt>
</event>
<event>
 8    3  0.7944584E-004  0.1596760E+03  0.7818608E-02  0.1196765E+00
          2   -1    0    0  501    0  0.00000000000E+00  0.00000000000E+00  0.47708731050E+03  0.47708731051E+03  0.25500000000E-02 0. -1.
         -2   -1    0    0    0  501 -0.00000000000E+00 -0.00000000000E+00 -0.57197138374E+02  0.57197138431E+02  0.25500000000E-02 0.  1.
         25    2    1    2    0    0 -0.19062276861E+02  0.97513546591E+02  0.34479971617E+03  0.37997797576E+03  0.12499662245E+03 0.  0.
         23    2    1    2    0    0  0.19062276861E+02 -0.97513546591E+02  0.75090455957E+02  0.15430647318E+03  0.91102408976E+02 0.  0.
        -13    1    4    4    0    0 -0.35327703046E+02 -0.33129615957E+02  0.14672477009E+02  0.50605442411E+02  0.10566000000E+00 0.  1.
         13    1    4    4    0    0  0.54389979907E+02 -0.64383930634E+02  0.60417978948E+02  0.10370103077E+03  0.10566000000E+00 0. -1.
    9000005    1    3    3    0    0 -0.42874773987E+02 -0.83504741046E+01  0.15817386247E+03  0.16409737180E+03  0.10000000000E+01 0.  0.
    9000005    1    3    3    0    0  0.23812497126E+02  0.10586402070E+03  0.18662585370E+03  0.21588060396E+03  0.10000000000E+01 0.  0.
<mgrwt>
<rscale>  0 0.15305755E+03</rscale>
<asrwt>0</asrwt>
<pdfrwt beam="1">  1        2 0.73398046E-01 0.15967598E+03</pdfrwt>
<pdfrwt beam="2">  1       -2 0.87995599E-02 0.15967598E+03</pdfrwt>
<totfact> 0.51859031E+03</totfact>
</mgrwt>
</event>
<event>
 8    3  0.7944584E-004  0.1402970E+03  0.7818608E-02  0.1223837E+00
          2   -1    0    0  501    0  0.00000000000E+00  0.00000000000E+00  0.74446256789E+03  0.74446256790E+03  0.25500000000E-02 0. -1.
         -2   -1    0    0    0  501 -0.00000000000E+00 -0.00000000000E+00 -0.21372566887E+02  0.21372567039E+02  0.25500000000E-02 0.  1.
         25    2    1    2    0    0 -0.62776891659E+02 -0.10733239098E+02  0.37947679974E+03  0.40458111926E+03  0.12500839963E+03 0.  0.
         23    2    1    2    0    0  0.62776891659E+02  0.10733239098E+02  0.34361320127E+03  0.36125401567E+03  0.91533006098E+02 0.  0.
        -13    1    4    4    0    0  0.60730449392E+02 -0.11510538178E+01  0.97682434926E+02  0.11502774302E+03  0.10566000000E+00 0.  1.
         13    1    4    4    0    0  0.20464422673E+01  0.11884292916E+02  0.24593076634E+03  0.24622627265E+03  0.10566000000E+00 0. -1.
    9000005    1    3    3    0    0 -0.29413557313E+02  0.10075430967E+02  0.95090254439E+01  0.32528344992E+02  0.10000000000E+01 0.  0.
    9000005    1    3    3    0    0 -0.33363334346E+02 -0.20808670065E+02  0.36996777429E+03  0.37205277427E+03  0.10000000000E+01 0.  0.
<mgrwt>
<rscale>  0 0.13246906E+03</rscale>
<asrwt>0</asrwt>
<pdfrwt beam="1">  1        2 0.11453272E+00 0.14029697E+03</pdfrwt>
<pdfrwt beam="2">  1       -2 0.32880869E-02 0.14029697E+03</pdfrwt>
<totfact> 0.13712018E+04</totfact>
</mgrwt>
</event>
<event>
 8    3  0.7944584E-004  0.1319644E+03  0.7818608E-02  0.1238583E+00
         -2   -1    0    0    0  501 -0.00000000000E+00  0.00000000000E+00  0.16303563505E+02  0.16303563704E+02  0.25500000000E-02 0. -1.
          2   -1    0    0  501    0  0.00000000000E+00 -0.00000000000E+00 -0.82321236269E+03  0.82321236269E+03  0.25500000000E-02 0.  1.
         25    2    1    2    0    0 -0.41991733618E+02  0.50893111213E+01 -0.42520951833E+03  0.44521649973E+03  0.12500156148E+03 0.  0.
         23    2    1    2    0    0  0.41991733618E+02 -0.50893111213E+01 -0.38169928085E+03  0.39429942666E+03  0.89378353562E+02 0.  0.
        -13    1    4    4    0    0 -0.26286175776E+02  0.74833717049E+01 -0.74560775104E+02  0.79412116438E+02  0.10566000000E+00 0.  1.
         13    1    4    4    0    0  0.68277909395E+02 -0.12572682826E+02 -0.30713850575E+03  0.31488731023E+03  0.10566000000E+00 0. -1.
    9000005    1    3    3    0    0  0.35916491096E+02 -0.49944526098E+01 -0.25719619904E+03  0.25974184047E+03  0.10000000000E+01 0.  0.
    9000005    1    3    3    0    0 -0.77908224715E+02  0.10083763731E+02 -0.16801331929E+03  0.18547465927E+03  0.10000000000E+01 0.  0.
<mgrwt>
<rscale>  0 0.12277844E+03</rscale>
<asrwt>0</asrwt>
<pdfrwt beam="2">  1        2 0.12664802E+00 0.13196438E+03</pdfrwt>
<pdfrwt beam="1">  1       -2 0.25082412E-02 0.13196438E+03</pdfrwt>
<totfact> 0.17942028E+04</totfact>
</mgrwt>
</event>
<event>
 8    3  0.7944584E-004  0.1274403E+03  0.7818608E-02  0.1246030E+00
         -2   -1    0    0    0  501 -0.00000000000E+00  0.00000000000E+00  0.43796817328E+02  0.43796817402E+02  0.25500000000E-02 0.  1.
          2   -1    0    0  501    0  0.00000000000E+00 -0.00000000000E+00 -0.50285224568E+03  0.50285224569E+03  0.25500000000E-02 0. -1.
         25    2    1    2    0    0 -0.13467234159E+02 -0.20839394600E+02 -0.68188072698E+02  0.14453595363E+03  0.12500152748E+03 0.  0.
         23    2    1    2    0    0  0.13467234159E+02  0.20839394600E+02 -0.39086735566E+03  0.40211310945E+03  0.91115401088E+02 0.  0.
        -13    1    4    4    0    0 -0.26718300089E+02  0.40136949748E+02 -0.24008551929E+03  0.24487937853E+03  0.10566000000E+00 0. -1.
         13    1    4    4    0    0  0.40185534248E+02 -0.19297555147E+02 -0.15078183637E+03  0.15723373092E+03  0.10566000000E+00 0.  1.
    9000005    1    3    3    0    0 -0.41872868713E+02 -0.16578300454E+02  0.21818335876E+02  0.50052142417E+02  0.10000000000E+01 0.  0.
    9000005    1    3    3    0    0  0.28405634554E+02 -0.42610941468E+01 -0.90006408574E+02  0.94483811217E+02  0.10000000000E+01 0.  0.
<mgrwt>
<rscale>  0 0.11823919E+03</rscale>
<asrwt>0</asrwt>
<pdfrwt beam="2">  1        2 0.77361880E-01 0.12744029E+03</pdfrwt>
<pdfrwt beam="1">  1       -2 0.67379723E-02 0.12744029E+03</pdfrwt>
<totfact> 0.72960812E+03</totfact>
</mgrwt>
</event>
<event>
 8    3  0.7944584E-004  0.2878417E+03  0.7818608E-02  0.1093260E+00
         -2   -1    0    0    0  501 -0.00000000000E+00  0.00000000000E+00  0.24073129878E+02  0.24073130013E+02  0.25500000000E-02 0.  1.
          2   -1    0    0  501    0  0.00000000000E+00 -0.00000000000E+00 -0.33732396475E+04  0.33732396475E+04  0.25500000000E-02 0. -1.
         25    2    1    2    0    0 -0.25921020249E+03 -0.61610193965E+01 -0.19857126547E+04  0.20064664398E+04  0.12499975993E+03 0.  0.
         23    2    1    2    0    0  0.25921020249E+03  0.61610193965E+01 -0.13634538630E+04  0.13908463377E+04  0.90659866750E+02 0.  0.
        -13    1    4    4    0    0  0.12505027735E+03 -0.30256770142E+02 -0.81259550797E+03  0.82271776129E+03  0.10566000000E+00 0. -1.
         13    1    4    4    0    0  0.13415992513E+03  0.36417789538E+02 -0.55085835499E+03  0.56812857641E+03  0.10566000000E+00 0.  1.
    9000005    1    3    3    0    0  0.72850615334E-01  0.23615439446E+02 -0.26790053604E+03  0.26894124172E+03  0.10000000000E+01 0.  0.
    9000005    1    3    3    0    0 -0.25928305310E+03 -0.29776458842E+02 -0.17178121186E+04  0.17375251981E+04  0.10000000000E+01 0.  0.
<mgrwt>
<rscale>  0 0.28449233E+03</rscale>
<asrwt>0</asrwt>
<pdfrwt beam="2">  1        2 0.51895957E+00 0.28784167E+03</pdfrwt>
<pdfrwt beam="1">  1       -2 0.37035611E-02 0.28784167E+03</pdfrwt>
<totfact> 0.37699135E+02</totfact>
</mgrwt>
</event>
<event>
 8    3  0.7944584E-004  0.1276491E+03  0.7818608E-02  0.1246262E+00
         -2   -1    0    0    0  501 -0.00000000000E+00  0.00000000000E+00  0.99035022007E+01  0.99035025290E+01  0.25500000000E-02 0.  1.
          2   -1    0    0  501    0  0.00000000000E+00 -0.00000000000E+00 -0.12458561724E+04  0.12458561724E+04  0.25500000000E-02 0. -1.
         25    2    1    2    0    0  0.14143557360E+02  0.21658537007E+02 -0.77048888102E+03  0.78099130257E+03  0.12500066589E+03 0.  0.
         23    2    1    2    0    0 -0.14143557360E+02 -0.21658537007E+02 -0.46546378919E+03  0.47476837238E+03  0.89885126238E+02 0.  0.
        -13    1    4    4    0    0 -0.73584791298E+01 -0.38571533571E+01  0.58594294810E+00  0.83294261686E+01  0.10566000000E+00 0.  1.
         13    1    4    4    0    0 -0.67850782302E+01 -0.17801383649E+02 -0.46604973214E+03  0.46643894621E+03  0.10566000000E+00 0. -1.
    9000005    1    3    3    0    0  0.52418529015E+02 -0.29075530464E+01 -0.65134447979E+03  0.65345756358E+03  0.10000000000E+01 0.  0.
    9000005    1    3    3    0    0 -0.38274971655E+02  0.24566090053E+02 -0.11914440122E+03  0.12753373898E+03  0.10000000000E+01 0.  0.
<mgrwt>
<rscale>  0 0.11810136E+03</rscale>
<asrwt>0</asrwt>
<pdfrwt beam="2">  1        2 0.19167006E+00 0.12764912E+03</pdfrwt>
<pdfrwt beam="1">  1       -2 0.15236167E-02 0.12764912E+03</pdfrwt>
<totfact> 0.20716268E+04</totfact>
</mgrwt>
</event>
<event>
 8    3  0.7944584E-004  0.1397056E+03  0.7818608E-02  0.1224889E+00
         -2   -1    0    0    0  501 -0.00000000000E+00  0.00000000000E+00  0.75363248155E+02  0.75363248198E+02  0.25500000000E-02 0.  1.
          2   -1    0    0  501    0  0.00000000000E+00 -0.00000000000E+00 -0.20809893904E+03  0.20809893905E+03  0.25500000000E-02 0. -1.
         25    2    1    2    0    0  0.62286944455E+02  0.35229793316E+01 -0.67513120403E+02  0.15516342608E+03  0.12500237011E+03 0.  0.
         23    2    1    2    0    0 -0.62286944455E+02 -0.35229793316E+01 -0.65222570478E+02  0.12829876117E+03  0.91183954648E+02 0.  0.
        -13    1    4    4    0    0 -0.53092941700E+02 -0.50551216496E+01  0.84851891247E+01  0.54003928669E+02  0.10566000000E+00 0.  1.
         13    1    4    4    0    0 -0.91940027554E+01  0.15321423180E+01 -0.73707759602E+02  0.74294832501E+02  0.10566000000E+00 0. -1.
    9000005    1    3    3    0    0 -0.22904081032E+01 -0.83778803297E+01 -0.86390483616E+02  0.86831736753E+02  0.10000000000E+01 0.  0.
    9000005    1    3    3    0    0  0.64577352558E+02  0.11900859661E+02  0.18877363213E+02  0.68331689325E+02  0.10000000000E+01 0.  0.
<mgrwt>
<rscale>  0 0.13174519E+03</rscale>
<asrwt>0</asrwt>
<pdfrwt beam="2">  1        2 0.32015221E-01 0.13970565E+03</pdfrwt>
<pdfrwt beam="1">  1       -2 0.11594346E-01 0.13970565E+03</pdfrwt>
<totfact> 0.80974120E+03</totfact>
</mgrwt>
</event>
<event>
 8    3  0.7944584E-004  0.1333757E+03  0.7818608E-02  0.1243638E+00
         -2   -1    0    0    0  501 -0.00000000000E+00  0.00000000000E+00  0.94567468817E+01  0.94567472255E+01  0.25500000000E-02 0.  1.
          2   -1    0    0  501    0  0.00000000000E+00 -0.00000000000E+00 -0.12798737922E+04  0.12798737922E+04  0.25500000000E-02 0. -1.
         25    2    1    2    0    0  0.10517235022E+02  0.45312830740E+02 -0.74318275325E+03  0.75505608147E+03  0.12500086630E+03 0.  0.
         23    2    1    2    0    0 -0.10517235022E+02 -0.45312830740E+02 -0.52723429209E+03  0.53427445797E+03  0.72865168839E+02 0.  0.
        -13    1    4    4    0    0 -0.18449166664E+02 -0.12461450984E+01 -0.31532114145E+02  0.36554206525E+02  0.10566000000E+00 0.  1.
         13    1    4    4    0    0  0.79319316421E+01 -0.44066685642E+02 -0.49570217794E+03  0.49772025145E+03  0.10566000000E+00 0. -1.
    9000005    1    3    3    0    0  0.49763237953E+02 -0.53215509226E+01 -0.53246881093E+03  0.53481654179E+03  0.10000000000E+01 0.  0.
    9000005    1    3    3    0    0 -0.39246002931E+02  0.50634381663E+02 -0.21071394232E+03  0.22023953968E+03  0.10000000000E+01 0.  0.
<mgrwt>
<rscale>  0 0.11967292E+03</rscale>
<asrwt>0</asrwt>
<pdfrwt beam="2">  1        2 0.19690352E+00 0.13337572E+03</pdfrwt>
<pdfrwt beam="1">  1       -2 0.14548852E-02 0.13337572E+03</pdfrwt>
<totfact> 0.21282366E+04</totfact>
</mgrwt>
</event>
<event>
 8    3  0.7944584E-004  0.1258384E+03  0.7818608E-02  0.1246815E+00
          2   -1    0    0  501    0  0.00000000000E+00  0.00000000000E+00  0.22271602672E+03  0.22271602673E+03  0.25500000000E-02 0. -1.
         -2   -1    0    0    0  501 -0.00000000000E+00 -0.00000000000E+00 -0.66208823968E+02  0.66208824017E+02  0.25500000000E-02 0.  1.
         25    2    1    2    0    0  0.72084293609E+01 -0.12582888847E+02  0.14452776806E+03  0.19163396612E+03  0.12500004275E+03 0.  0.
         23    2    1    2    0    0 -0.72084293609E+01  0.12582888847E+02  0.11979434694E+02  0.97290884625E+02  0.95455323738E+02 0.  0.
        -13    1    4    4    0    0  0.24123364523E+02  0.15339563752E+02 -0.32199806709E+02  0.43059001941E+02  0.10566000000E+00 0.  1.
         13    1    4    4    0    0 -0.31331793884E+02 -0.27566749050E+01  0.44179241403E+02  0.54231882684E+02  0.10566000000E+00 0. -1.
    9000005    1    3    3    0    0  0.77980543774E+01 -0.24258493900E+02  0.16558037618E+03  0.16753251970E+03  0.10000000000E+01 0.  0.
    9000005    1    3    3    0    0 -0.58962501649E+00  0.11675605053E+02 -0.21052608127E+02  0.24101446429E+02  0.10000000000E+01 0.  0.
<mgrwt>
<rscale>  0 0.11777377E+03</rscale>
<asrwt>0</asrwt>
<pdfrwt beam="1">  1        2 0.34264005E-01 0.12583839E+03</pdfrwt>
<pdfrwt beam="2">  1       -2 0.10185973E-01 0.12583839E+03</pdfrwt>
<totfact> 0.91677489E+03</totfact>
</mgrwt>
</event>
<event>
 8    3  0.7944584E-004  0.1564764E+03  0.7818608E-02  0.1195943E+00
          2   -1    0    0  501    0  0.00000000000E+00  0.00000000000E+00  0.10457019369E+03  0.10457019372E+03  0.25500000000E-02 0.  1.
         -2   -1    0    0    0  501 -0.00000000000E+00 -0.00000000000E+00 -0.21957037671E+03  0.21957037672E+03  0.25500000000E-02 0. -1.
         25    2    1    2    0    0  0.93446755002E+02 -0.11225701577E+02 -0.70808481103E+02  0.17175190691E+03  0.12500625638E+03 0.  0.
         23    2    1    2    0    0 -0.93446755002E+02  0.11225701577E+02 -0.44191701916E+02  0.15238866353E+03  0.11140505311E+03 0.  0.
        -13    1    4    4    0    0 -0.49527652231E+02  0.41394986568E+01 -0.80741883812E+02  0.94812376566E+02  0.10566000000E+00 0. -1.
         13    1    4    4    0    0 -0.43919102771E+02  0.70862029203E+01  0.36550181895E+02  0.57576286965E+02  0.10566000000E+00 0.  1.
    9000005    1    3    3    0    0  0.20061539754E+01  0.47357412773E+02 -0.27683303516E+02  0.54900951648E+02  0.10000000000E+01 0.  0.
    9000005    1    3    3    0    0  0.91440601027E+02 -0.58583114350E+02 -0.43125177586E+02  0.11685095526E+03  0.10000000000E+01 0.  0.
<mgrwt>
<rscale>  0 0.15374681E+03</rscale>
<asrwt>0</asrwt>
<pdfrwt beam="1">  1        2 0.16087722E-01 0.15647644E+03</pdfrwt>
<pdfrwt beam="2">  1       -2 0.33780058E-01 0.15647644E+03</pdfrwt>
<totfact> 0.28567092E+03</totfact>
</mgrwt>
</event>
<event>
 8    3  0.7944584E-004  0.1671517E+03  0.7818608E-02  0.1188115E+00
          2   -1    0    0  501    0  0.00000000000E+00  0.00000000000E+00  0.16071936796E+03  0.16071936798E+03  0.25500000000E-02 0.  1.
         -2   -1    0    0    0  501 -0.00000000000E+00 -0.00000000000E+00 -0.15028254677E+03  0.15028254679E+03  0.25500000000E-02 0. -1.
         25    2    1    2    0    0 -0.10122814993E+03  0.45461378243E+02  0.20974124133E+02  0.16846248935E+03  0.12500328470E+03 0.  0.
         23    2    1    2    0    0  0.10122814993E+03 -0.45461378243E+02 -0.10537302941E+02  0.14253942542E+03  0.88840181199E+02 0.  0.
        -13    1    4    4    0    0  0.70646273983E+02  0.14550276119E+02  0.82869126560E+01  0.72603654510E+02  0.10566000000E+00 0. -1.
         13    1    4    4    0    0  0.30581875946E+02 -0.60011654362E+02 -0.18824215597E+02  0.69935770908E+02  0.10566000000E+00 0.  1.
    9000005    1    3    3    0    0  0.24695673940E+02 -0.12521693275E+02  0.97536571258E+01  0.29373507471E+02  0.10000000000E+01 0.  0.
    9000005    1    3    3    0    0 -0.12592382387E+03  0.57983071518E+02  0.11220467007E+02  0.13908898188E+03  0.10000000000E+01 0.  0.
<mgrwt>
<rscale>  0 0.16051639E+03</rscale>
<asrwt>0</asrwt>
<pdfrwt beam="1">  1        2 0.24726056E-01 0.16715172E+03</pdfrwt>
<pdfrwt beam="2">  1       -2 0.23120392E-01 0.16715172E+03</pdfrwt>
<totfact> 0.34587543E+03</totfact>
</mgrwt>
</event>
<event>
 8    3  0.7944584E-004  0.1287351E+03  0.7818608E-02  0.1245125E+00
         -2   -1    0    0    0  501 -0.00000000000E+00  0.00000000000E+00  0.19123610263E+02  0.19123610433E+02  0.25500000000E-02 0.  1.
          2   -1    0    0  501    0  0.00000000000E+00 -0.00000000000E+00 -0.67568021208E+03  0.67568021209E+03  0.25500000000E-02 0. -1.
         25    2    1    2    0    0  0.22677686581E+02 -0.20826098003E+02 -0.45200491507E+03  0.46997997569E+03  0.12499892192E+03 0.  0.
         23    2    1    2    0    0 -0.22677686581E+02  0.20826098003E+02 -0.20455168675E+03  0.22482384683E+03  0.88070231760E+02 0.  0.
        -13    1    4    4    0    0  0.99102813966E+01 -0.30271707327E+02 -0.85352678637E+02  0.91102584247E+02  0.10566000000E+00 0.  1.
         13    1    4    4    0    0 -0.32587967978E+02  0.51097805330E+02 -0.11919900811E+03  0.13372126258E+03  0.10566000000E+00 0. -1.
    9000005    1    3    3    0    0  0.26823715585E+02  0.29856348766E+02 -0.37832827344E+03  0.38045261960E+03  0.10000000000E+01 0.  0.
    9000005    1    3    3    0    0 -0.41460290036E+01 -0.50682446768E+02 -0.73676641630E+02  0.89527356092E+02  0.10000000000E+01 0.  0.
<mgrwt>
<rscale>  0 0.11877909E+03</rscale>
<asrwt>0</asrwt>
<pdfrwt beam="2">  1        2 0.10395078E+00 0.12873513E+03</pdfrwt>
<pdfrwt beam="1">  1       -2 0.29420944E-02 0.12873513E+03</pdfrwt>
<totfact> 0.18011066E+04</totfact>
</mgrwt>
</event>
<event>
 8    3  0.7944584E-004  0.1339871E+03  0.7818608E-02  0.1234558E+00
          2   -1    0    0  501    0  0.00000000000E+00  0.00000000000E+00  0.12581193842E+03  0.12581193844E+03  0.25500000000E-02 0. -1.
         -2   -1    0    0    0  501 -0.00000000000E+00 -0.00000000000E+00 -0.12420389345E+03  0.12420389347E+03  0.25500000000E-02 0.  1.
         25    2    1    2    0    0 -0.59694901729E+01 -0.47866678061E+02 -0.39241152033E+02  0.13961518084E+03  0.12500270808E+03 0.  0.
         23    2    1    2    0    0  0.59694901729E+01  0.47866678061E+02  0.40849197003E+02  0.11040065107E+03  0.90514049627E+02 0.  0.
        -13    1    4    4    0    0  0.18614714387E+01 -0.22157210716E+02 -0.93734329292E+01  0.24130467702E+02  0.10566000000E+00 0.  1.
         13    1    4    4    0    0  0.41080187342E+01  0.70023888777E+02  0.50222629932E+02  0.86270183370E+02  0.10566000000E+00 0. -1.
    9000005    1    3    3    0    0 -0.11208172919E+02  0.35609337115E+02  0.14645559115E+02  0.40114092683E+02  0.10000000000E+01 0.  0.
    9000005    1    3    3    0    0  0.52386827464E+01 -0.83476015176E+02 -0.53886711148E+02  0.99501088160E+02  0.10000000000E+01 0.  0.
<mgrwt>
<rscale>  0 0.12532776E+03</rscale>
<asrwt>0</asrwt>
<pdfrwt beam="1">  1        2 0.19355683E-01 0.13398705E+03</pdfrwt>
<pdfrwt beam="2">  1       -2 0.19108291E-01 0.13398705E+03</pdfrwt>
<totfact> 0.62216870E+03</totfact>
</mgrwt>
</event>
<event>
 8    3  0.7944584E-004  0.1418291E+03  0.7818608E-02  0.1220490E+00
         -2   -1    0    0    0  501 -0.00000000000E+00  0.00000000000E+00  0.23858347770E+02  0.23858347907E+02  0.25500000000E-02 0.  1.
          2   -1    0    0  501    0  0.00000000000E+00 -0.00000000000E+00 -0.69555002985E+03  0.69555002986E+03  0.25500000000E-02 0. -1.
         25    2    1    2    0    0  0.12206726862E+02  0.65895498640E+02 -0.36302941330E+03  0.38975100933E+03  0.12499709368E+03 0.  0.
         23    2    1    2    0    0 -0.12206726862E+02 -0.65895498640E+02 -0.30866226878E+03  0.32965736843E+03  0.94394721634E+02 0.  0.
        -13    1    4    4    0    0  0.24384703388E+02 -0.56355603838E+02 -0.98149658179E+02  0.11577536184E+03  0.10566000000E+00 0.  1.
         13    1    4    4    0    0 -0.36591430250E+02 -0.95398948020E+01 -0.21051261060E+03  0.21388200659E+03  0.10566000000E+00 0. -1.
    9000005    1    3    3    0    0  0.13948011948E+02  0.97444189193E+02 -0.32851340593E+03  0.34294602333E+03  0.10000000000E+01 0.  0.
    9000005    1    3    3    0    0 -0.17412850856E+01 -0.31548690553E+02 -0.34516007379E+02  0.46804986003E+02  0.10000000000E+01 0.  0.
<mgrwt>
<rscale>  0 0.13480889E+03</rscale>
<asrwt>0</asrwt>
<pdfrwt beam="2">  1        2 0.10700768E+00 0.14182910E+03</pdfrwt>
<pdfrwt beam="1">  1       -2 0.36705156E-02 0.14182910E+03</pdfrwt>
<totfact> 0.12651926E+04</totfact>
</mgrwt>
</event>
<event>
 8    3  0.7944584E-004  0.1876192E+03  0.7818608E-02  0.1164726E+00
          2   -1    0    0  501    0  0.00000000000E+00  0.00000000000E+00  0.82199671654E+02  0.82199671693E+02  0.25500000000E-02 0. -1.
         -2   -1    0    0    0  501 -0.00000000000E+00 -0.00000000000E+00 -0.66446036121E+03  0.66446036121E+03  0.25500000000E-02 0.  1.
         25    2    1    2    0    0 -0.39048586633E+02  0.13435054735E+03 -0.59604649045E+02  0.19685955772E+03  0.12500443828E+03 0.  0.
         23    2    1    2    0    0  0.39048586633E+02 -0.13435054735E+03 -0.52265604051E+03  0.54980047518E+03  0.97654309367E+02 0.  0.
        -13    1    4    4    0    0  0.39262842208E+02 -0.11219740629E+03 -0.25628701005E+03  0.28251171912E+03  0.10566000000E+00 0. -1.
         13    1    4    4    0    0 -0.21425557459E+00 -0.22153141058E+02 -0.26636903046E+03  0.26728875606E+03  0.10566000000E+00 0.  1.
    9000005    1    3    3    0    0 -0.28601470397E+02  0.15636915562E+03 -0.65226947686E+02  0.17182814566E+03  0.10000000000E+01 0.  0.
    9000005    1    3    3    0    0 -0.10447116237E+02 -0.22018608269E+02  0.56222986412E+01  0.25031412061E+02  0.10000000000E+01 0.  0.
<mgrwt>
<rscale>  0 0.18321691E+03</rscale>
<asrwt>0</asrwt>
<pdfrwt beam="1">  1        2 0.12646104E-01 0.18761922E+03</pdfrwt>
<pdfrwt beam="2">  1       -2 0.10222467E+00 0.18761922E+03</pdfrwt>
<totfact> 0.38911809E+02</totfact>
</mgrwt>
</event>
<event>
 8    3  0.7944584E-004  0.1472104E+03  0.7818608E-02  0.1213398E+00
         -2   -1    0    0    0  501 -0.00000000000E+00  0.00000000000E+00  0.18069825676E+03  0.18069825677E+03  0.25500000000E-02 0.  1.
          2   -1    0    0  501    0  0.00000000000E+00 -0.00000000000E+00 -0.99148847290E+02  0.99148847323E+02  0.25500000000E-02 0. -1.
         25    2    1    2    0    0  0.22268360151E+01  0.77741125179E+02  0.50859011126E+02  0.15574830986E+03  0.12498902219E+03 0.  0.
         23    2    1    2    0    0 -0.22268360151E+01 -0.77741125179E+02  0.30690398339E+02  0.12409879424E+03  0.91705882247E+02 0.  0.
        -13    1    4    4    0    0 -0.20992851298E+02  0.74069085014E+01  0.29426123665E+02  0.36898103165E+02  0.10566000000E+00 0.  1.
         13    1    4    4    0    0  0.18766015283E+02 -0.85148033681E+02  0.12642746736E+01  0.87200691074E+02  0.10566000000E+00 0. -1.
    9000005    1    3    3    0    0  0.15663408240E+02 -0.27504238406E+02 -0.10274450057E+02  0.33292488822E+02  0.10000000000E+01 0.  0.
    9000005    1    3    3    0    0 -0.13436572225E+02  0.10524536359E+03  0.61133461184E+02  0.12245582104E+03  0.10000000000E+01 0.  0.
<mgrwt>
<rscale>  0 0.13994895E+03</rscale>
<asrwt>0</asrwt>
<pdfrwt beam="2">  1        2 0.15253669E-01 0.14721038E+03</pdfrwt>
<pdfrwt beam="1">  1       -2 0.27799731E-01 0.14721038E+03</pdfrwt>
<totfact> 0.43098157E+03</totfact>
</mgrwt>
</event>
<event>
 8    3  0.7944584E-004  0.1447489E+03  0.7818608E-02  0.1220132E+00
          2   -1    0    0  501    0  0.00000000000E+00  0.00000000000E+00  0.37656639243E+03  0.37656639243E+03  0.25500000000E-02 0. -1.
         -2   -1    0    0    0  501 -0.00000000000E+00 -0.00000000000E+00 -0.45738958757E+02  0.45738958828E+02  0.25500000000E-02 0.  1.
         25    2    1    2    0    0  0.42927563624E+02  0.59042615846E+02  0.13551380415E+03  0.19828321950E+03  0.12499375111E+03 0.  0.
         23    2    1    2    0    0 -0.42927563624E+02 -0.59042615846E+02  0.19531362952E+03  0.22402213176E+03  0.81912730613E+02 0.  0.
        -13    1    4    4    0    0 -0.95027006925E+01 -0.44140418524E+02  0.17781346460E+03  0.18345658131E+03  0.10566000000E+00 0. -1.
         13    1    4    4    0    0 -0.33424862932E+02 -0.14902197321E+02  0.17500164918E+02  0.40565550449E+02  0.10566000000E+00 0.  1.
    9000005    1    3    3    0    0  0.68706726094E+01 -0.16493097857E+02 -0.16760629625E+02  0.24518301827E+02  0.10000000000E+01 0.  0.
    9000005    1    3    3    0    0  0.36056891015E+02  0.75535713703E+02  0.15227443377E+03  0.17376491768E+03  0.10000000000E+01 0.  0.
<mgrwt>
<rscale>  0 0.13506195E+03</rscale>
<asrwt>0</asrwt>
<pdfrwt beam="1">  1        2 0.57933292E-01 0.14474890E+03</pdfrwt>
<pdfrwt beam="2">  1       -2 0.70367628E-02 0.14474890E+03</pdfrwt>
<totfact> 0.94061443E+03</totfact>
</mgrwt>
</event>
<event>
 8    3  0.7944584E-004  0.1263939E+03  0.7818608E-02  0.1248260E+00
          2   -1    0    0  501    0  0.00000000000E+00  0.00000000000E+00  0.13299829340E+04  0.13299829340E+04  0.25500000000E-02 0. -1.
         -2   -1    0    0    0  501 -0.00000000000E+00 -0.00000000000E+00 -0.91219407765E+01  0.91219411329E+01  0.25500000000E-02 0.  1.
         25    2    1    2    0    0 -0.18336963654E+02  0.37934629018E+01  0.68852130557E+03  0.70002642811E+03  0.12499910894E+03 0.  0.
         23    2    1    2    0    0  0.18336963654E+02 -0.37934629018E+01  0.63233968764E+03  0.63907844701E+03  0.90648476383E+02 0.  0.
        -13    1    4    4    0    0  0.11072172386E+01 -0.33302754810E+02  0.95387103091E+02  0.10103964572E+03  0.10566000000E+00 0.  1.
         13    1    4    4    0    0  0.17229746415E+02  0.29509291909E+02  0.53695258455E+03  0.53803880129E+03  0.10566000000E+00 0. -1.
    9000005    1    3    3    0    0 -0.66798674484E+02  0.27195720128E+02  0.42277072010E+03  0.42887964731E+03  0.10000000000E+01 0.  0.
    9000005    1    3    3    0    0  0.48461710830E+02 -0.23402257227E+02  0.26575058547E+03  0.27114678080E+03  0.10000000000E+01 0.  0.
<mgrwt>
<rscale>  0 0.11692384E+03</rscale>
<asrwt>0</asrwt>
<pdfrwt beam="1">  1        2 0.20461269E+00 0.12639388E+03</pdfrwt>
<pdfrwt beam="2">  1       -2 0.14033760E-02 0.12639388E+03</pdfrwt>
<totfact> 0.20990819E+04</totfact>
</mgrwt>
</event>
<event>
 8    3  0.7944584E-004  0.1310590E+03  0.7818608E-02  0.1239523E+00
         -2   -1    0    0    0  501 -0.00000000000E+00  0.00000000000E+00  0.10771301029E+02  0.10771301331E+02  0.25500000000E-02 0.  1.
          2   -1    0    0  501    0  0.00000000000E+00 -0.00000000000E+00 -0.15522602349E+04  0.15522602349E+04  0.25500000000E-02 0. -1.
         25    2    1    2    0    0 -0.29145560831E+02 -0.26484382742E+02 -0.50165281859E+03  0.51849012871E+03  0.12500230768E+03 0.  0.
         23    2    1    2    0    0  0.29145560831E+02  0.26484382742E+02 -0.10398361153E+04  0.10445414076E+04  0.90866490763E+02 0.  0.
        -13    1    4    4    0    0  0.43516039006E+02 -0.22696989254E+01 -0.23144056127E+03  0.23550698875E+03  0.10566000000E+00 0.  1.
         13    1    4    4    0    0 -0.14370478174E+02  0.28754081667E+02 -0.80839555404E+03  0.80903441881E+03  0.10566000000E+00 0. -1.
    9000005    1    3    3    0    0 -0.60210324738E+02 -0.22461720515E+02 -0.12518364337E+03  0.14071871468E+03  0.10000000000E+01 0.  0.
    9000005    1    3    3    0    0  0.31064763907E+02 -0.40226622267E+01 -0.37646917521E+03  0.37777141402E+03  0.10000000000E+01 0.  0.
<mgrwt>
<rscale>  0 0.12219277E+03</rscale>
<asrwt>0</asrwt>
<pdfrwt beam="2">  1        2 0.23880909E+00 0.13105901E+03</pdfrwt>
<pdfrwt beam="1">  1       -2 0.16571245E-02 0.13105901E+03</pdfrwt>
<totfact> 0.12659813E+04</totfact>
</mgrwt>
</event>
<event>
 8    3  0.7944584E-004  0.1330449E+03  0.7818608E-02  0.1237998E+00
         -2   -1    0    0    0  501 -0.00000000000E+00  0.00000000000E+00  0.60846418913E+02  0.60846418966E+02  0.25500000000E-02 0.  1.
          2   -1    0    0  501    0  0.00000000000E+00 -0.00000000000E+00 -0.26304079754E+03  0.26304079755E+03  0.25500000000E-02 0. -1.
         25    2    1    2    0    0  0.33501236868E+02 -0.30857842981E+02 -0.17985473292E+03  0.22371558557E+03  0.12500559559E+03 0.  0.
         23    2    1    2    0    0 -0.33501236868E+02  0.30857842981E+02 -0.22339645706E+02  0.10017163095E+03  0.86375670943E+02 0.  0.
        -13    1    4    4    0    0  0.56385862606E+00  0.52452426842E+02 -0.27971074105E+02  0.59447179654E+02  0.10566000000E+00 0. -1.
         13    1    4    4    0    0 -0.34065095494E+02 -0.21594583861E+02  0.56314283990E+01  0.40724451292E+02  0.10566000000E+00 0.  1.
    9000005    1    3    3    0    0 -0.67378257148E+01  0.29729692865E+02 -0.13467851654E+03  0.13808894145E+03  0.10000000000E+01 0.  0.
    9000005    1    3    3    0    0  0.40239062583E+02 -0.60587535846E+02 -0.45176216382E+02  0.85626644125E+02  0.10000000000E+01 0.  0.
<mgrwt>
<rscale>  0 0.12314460E+03</rscale>
<asrwt>0</asrwt>
<pdfrwt beam="2">  1        2 0.40467814E-01 0.13304487E+03</pdfrwt>
<pdfrwt beam="1">  1       -2 0.93609877E-02 0.13304487E+03</pdfrwt>
<totfact> 0.88010470E+03</totfact>
</mgrwt>
</event>
<event>
 8    3  0.7944584E-004  0.1589187E+03  0.7818608E-02  0.1197674E+00
          2   -1    0    0  501    0  0.00000000000E+00  0.00000000000E+00  0.17936546070E+04  0.17936546070E+04  0.25500000000E-02 0. -1.
         -2   -1    0    0    0  501 -0.00000000000E+00 -0.00000000000E+00 -0.12027401879E+02  0.12027402149E+02  0.25500000000E-02 0.  1.
         25    2    1    2    0    0 -0.76417941885E+02  0.61565362156E+02  0.10315562423E+04  0.10437257453E+04  0.12500061911E+03 0.  0.
         23    2    1    2    0    0  0.76417941885E+02 -0.61565362156E+02  0.75007096286E+03  0.76195626386E+03  0.91328544546E+02 0.  0.
        -13    1    4    4    0    0  0.20403728016E+02 -0.27106141474E+02  0.55621415117E+03  0.55724792341E+03  0.10566000000E+00 0. -1.
         13    1    4    4    0    0  0.56014213869E+02 -0.34459220681E+02  0.19385681169E+03  0.20470834044E+03  0.10566000000E+00 0.  1.
    9000005    1    3    3    0    0  0.32940217635E+02  0.22772748713E+01  0.28025396885E+03  0.28219413703E+03  0.10000000000E+01 0.  0.
    9000005    1    3    3    0    0 -0.10935815952E+03  0.59288087284E+02  0.75130227344E+03  0.76153160829E+03  0.10000000000E+01 0.  0.
<mgrwt>
<rscale>  0 0.15230090E+03</rscale>
<asrwt>0</asrwt>
<pdfrwt beam="1">  1        2 0.27594673E+00 0.15891869E+03</pdfrwt>
<pdfrwt beam="2">  1       -2 0.18503704E-02 0.15891869E+03</pdfrwt>
<totfact> 0.81636561E+03</totfact>
</mgrwt>
</event>
<event>
 8    3  0.7944584E-004  0.1428039E+03  0.7818608E-02  0.1220542E+00
          2   -1    0    0  501    0  0.00000000000E+00  0.00000000000E+00  0.83320907220E+03  0.83320907221E+03  0.25500000000E-02 0. -1.
         -2   -1    0    0    0  501 -0.00000000000E+00 -0.00000000000E+00 -0.23353714808E+02  0.23353714947E+02  0.25500000000E-02 0.  1.
         25    2    1    2    0    0  0.47133549118E+02 -0.50464402748E+02  0.27528473633E+03  0.31012034206E+03  0.12499885241E+03 0.  0.
         23    2    1    2    0    0 -0.47133549118E+02  0.50464402748E+02  0.53457062106E+03  0.54644244509E+03  0.89807402269E+02 0.  0.
        -13    1    4    4    0    0 -0.25693267529E+02 -0.24122997872E+02  0.14554000299E+03  0.14974634105E+03  0.10566000000E+00 0. -1.
         13    1    4    4    0    0 -0.21440281589E+02  0.74587400620E+02  0.38903061807E+03  0.39669610405E+03  0.10566000000E+00 0.  1.
    9000005    1    3    3    0    0 -0.11880151653E+02  0.10388922691E+02 -0.55577719634E+01  0.16761758475E+02  0.10000000000E+01 0.  0.
    9000005    1    3    3    0    0  0.59013700772E+02 -0.60853325439E+02  0.28084250830E+03  0.29335858358E+03  0.10000000000E+01 0.  0.
<mgrwt>
<rscale>  0 0.13477163E+03</rscale>
<asrwt>0</asrwt>
<pdfrwt beam="1">  1        2 0.12818600E+00 0.14280385E+03</pdfrwt>
<pdfrwt beam="2">  1       -2 0.35928796E-02 0.14280385E+03</pdfrwt>
<totfact> 0.10472985E+04</totfact>
</mgrwt>
</event>
<event>
 8    3  0.7944584E-004  0.1583488E+03  0.7818608E-02  0.1196862E+00
         -2   -1    0    0    0  501 -0.00000000000E+00  0.00000000000E+00  0.53950401549E+02  0.53950401609E+02  0.25500000000E-02 0.  1.
          2   -1    0    0  501    0  0.00000000000E+00 -0.00000000000E+00 -0.46690099764E+03  0.46690099764E+03  0.25500000000E-02 0. -1.
         25    2    1    2    0    0 -0.74953110657E+02 -0.61890929261E+02 -0.31213643917E+03  0.35000499769E+03  0.12500354327E+03 0.  0.
         23    2    1    2    0    0  0.74953110657E+02  0.61890929261E+02 -0.10081415692E+03  0.17084640156E+03  0.97859811821E+02 0.  0.
        -13    1    4    4    0    0 -0.20251104060E+02  0.12196933137E+02 -0.42523877117E+02  0.48653506376E+02  0.10566000000E+00 0. -1.
         13    1    4    4    0    0  0.95204214716E+02  0.49693996123E+02 -0.58290279800E+02  0.12219289518E+03  0.10566000000E+00 0.  1.
    9000005    1    3    3    0    0  0.17815119377E+02 -0.31842007060E+02 -0.19157379643E+02  0.41222531300E+02  0.10000000000E+01 0.  0.
    9000005    1    3    3    0    0 -0.92768230034E+02 -0.30048922201E+02 -0.29297905953E+03  0.30878246639E+03  0.10000000000E+01 0.  0.
<mgrwt>
<rscale>  0 0.15297718E+03</rscale>
<asrwt>0</asrwt>
<pdfrwt beam="2">  1        2 0.71830920E-01 0.15834880E+03</pdfrwt>
<pdfrwt beam="1">  1       -2 0.83000621E-02 0.15834880E+03</pdfrwt>
<totfact> 0.58133756E+03</totfact>
</mgrwt>
</event>
<event>
 8    3  0.7944584E-004  0.2070820E+03  0.7818608E-02  0.1147514E+00
          2   -1    0    0  501    0  0.00000000000E+00  0.00000000000E+00  0.19078277212E+03  0.19078277214E+03  0.25500000000E-02 0. -1.
         -2   -1    0    0    0  501 -0.00000000000E+00 -0.00000000000E+00 -0.20687993532E+03  0.20687993534E+03  0.25500000000E-02 0.  1.
         25    2    1    2    0    0 -0.16509213846E+03 -0.16812639262E+01 -0.16160822015E+02  0.20771162879E+03  0.12499883095E+03 0.  0.
         23    2    1    2    0    0  0.16509213846E+03  0.16812639262E+01  0.63658815215E-01  0.18995107868E+03  0.93931716750E+02 0.  0.
        -13    1    4    4    0    0  0.16443676297E+03 -0.19376702535E+02 -0.11398712740E+02  0.16596640453E+03  0.10566000000E+00 0.  1.
         13    1    4    4    0    0  0.65537548933E+00  0.21057966461E+02  0.11462371555E+02  0.23984674153E+02  0.10566000000E+00 0. -1.
    9000005    1    3    3    0    0 -0.24339342501E+02  0.43037494359E+02  0.23553497164E+02  0.54775877379E+02  0.10000000000E+01 0.  0.
    9000005    1    3    3    0    0 -0.14075279596E+03 -0.44718758285E+02 -0.39714319179E+02  0.15293575141E+03  0.10000000000E+01 0.  0.
<mgrwt>
<rscale>  0 0.20265960E+03</rscale>
<asrwt>0</asrwt>
<pdfrwt beam="1">  1        2 0.29351196E-01 0.20708199E+03</pdfrwt>
<pdfrwt beam="2">  1       -2 0.31827682E-01 0.20708199E+03</pdfrwt>
<totfact> 0.16331950E+03</totfact>
</mgrwt>
</event>
<event>
 8    3  0.7944584E-004  0.1868673E+03  0.7818608E-02  0.1166412E+00
          2   -1    0    0  501    0  0.00000000000E+00  0.00000000000E+00  0.76611925208E+03  0.76611925209E+03  0.25500000000E-02 0. -1.
         -2   -1    0    0    0  501 -0.00000000000E+00 -0.00000000000E+00 -0.45212636906E+02  0.45212636978E+02  0.25500000000E-02 0.  1.
         25    2    1    2    0    0 -0.10096195762E+03 -0.95421808138E+02  0.50810494310E+03  0.54137789789E+03  0.12498302590E+03 0.  0.
         23    2    1    2    0    0  0.10096195762E+03  0.95421808138E+02  0.21280167207E+03  0.26995399117E+03  0.91060240277E+02 0.  0.
        -13    1    4    4    0    0  0.35528961874E+02  0.18280445060E+02  0.13929395578E+03  0.14491134906E+03  0.10566000000E+00 0. -1.
         13    1    4    4    0    0  0.65432995742E+02  0.77141363079E+02  0.73507716288E+02  0.12504264212E+03  0.10566000000E+00 0.  1.
    9000005    1    3    3    0    0  0.21306623808E+02  0.50359439025E+01  0.12449290031E+03  0.12640733830E+03  0.10000000000E+01 0.  0.
    9000005    1    3    3    0    0 -0.12226858142E+03 -0.10045775204E+03  0.38361204280E+03  0.41497055959E+03  0.10000000000E+01 0.  0.
<mgrwt>
<rscale>  0 0.18144507E+03</rscale>
<asrwt>0</asrwt>
<pdfrwt beam="1">  1        2 0.11786449E+00 0.18686732E+03</pdfrwt>
<pdfrwt beam="2">  1       -2 0.69557911E-02 0.18686732E+03</pdfrwt>
<totfact> 0.43466723E+03</totfact>
</mgrwt>
</event>
<event>
 8    3  0.7944584E-004  0.1299939E+03  0.7818608E-02  0.1236304E+00
          2   -1    0    0  501    0  0.00000000000E+00  0.00000000000E+00  0.12464273617E+03  0.12464273620E+03  0.25500000000E-02 0.  1.
         -2   -1    0    0    0  501 -0.00000000000E+00 -0.00000000000E+00 -0.11696993787E+03  0.11696993790E+03  0.25500000000E-02 0. -1.
         25    2    1    2    0    0 -0.35697257575E+02  0.15451762088E+01  0.23482895799E+02  0.13209791718E+03  0.12498692556E+03 0.  0.
         23    2    1    2    0    0  0.35697257575E+02 -0.15451762088E+01 -0.15810097501E+02  0.10951475692E+03  0.10230758052E+03 0.  0.
        -13    1    4    4    0    0  0.30123981405E+02  0.95755474240E+00  0.41827022153E+02  0.51554651711E+02  0.10566000000E+00 0.  1.
         13    1    4    4    0    0  0.55732761703E+01 -0.25027309512E+01 -0.57637119654E+02  0.57960105206E+02  0.10566000000E+00 0. -1.
    9000005    1    3    3    0    0 -0.36198768799E+02 -0.18346011790E+02 -0.45100583587E+02  0.60679400549E+02  0.10000000000E+01 0.  0.
    9000005    1    3    3    0    0  0.50151122317E+00  0.19891187999E+02  0.68583479386E+02  0.71418516634E+02  0.10000000000E+01 0.  0.
<mgrwt>
<rscale>  0 0.12421299E+03</rscale>
<asrwt>0</asrwt>
<pdfrwt beam="1">  1        2 0.19175806E-01 0.12999390E+03</pdfrwt>
<pdfrwt beam="2">  1       -2 0.17995375E-01 0.12999390E+03</pdfrwt>
<totfact> 0.69373333E+03</totfact>
</mgrwt>
</event>
<event>
 8    3  0.7944584E-004  0.1856405E+03  0.7818608E-02  0.1167617E+00
         -2   -1    0    0    0  501 -0.00000000000E+00  0.00000000000E+00  0.24458045339E+03  0.24458045341E+03  0.25500000000E-02 0.  1.
          2   -1    0    0  501    0  0.00000000000E+00 -0.00000000000E+00 -0.13972331705E+03  0.13972331707E+03  0.25500000000E-02 0. -1.
         25    2    1    2    0    0  0.53385854177E+01  0.13714531023E+03 -0.59307515765E+01  0.18573521424E+03  0.12500023753E+03 0.  0.
         23    2    1    2    0    0 -0.53385854177E+01 -0.13714531023E+03  0.11078788792E+03  0.19856855624E+03  0.91204050374E+02 0.  0.
        -13    1    4    4    0    0  0.17780048406E+02 -0.23479245464E+02 -0.10001248956E+02  0.31103717359E+02  0.10566000000E+00 0. -1.
         13    1    4    4    0    0 -0.23118633823E+02 -0.11366606476E+03  0.12078913688E+03  0.16746483888E+03  0.10566000000E+00 0.  1.
    9000005    1    3    3    0    0 -0.58575012108E+02  0.61700533080E+02  0.96664374620E+01  0.85629596747E+02  0.10000000000E+01 0.  0.
    9000005    1    3    3    0    0  0.63913597526E+02  0.75444777148E+02 -0.15597189038E+02  0.10010561749E+03  0.10000000000E+01 0.  0.
<mgrwt>
<rscale>  0 0.18019254E+03</rscale>
<asrwt>0</asrwt>
<pdfrwt beam="2">  1        2 0.21495895E-01 0.18564050E+03</pdfrwt>
<pdfrwt beam="1">  1       -2 0.37627762E-01 0.18564050E+03</pdfrwt>
<totfact> 0.16877404E+03</totfact>
</mgrwt>
</event>
<event>
 8    3  0.7944584E-004  0.1345944E+03  0.7818608E-02  0.1233539E+00
         -2   -1    0    0    0  501 -0.00000000000E+00  0.00000000000E+00  0.29928083824E+02  0.29928083933E+02  0.25500000000E-02 0.  1.
          2   -1    0    0  501    0  0.00000000000E+00 -0.00000000000E+00 -0.66944374634E+03  0.66944374635E+03  0.25500000000E-02 0. -1.
         25    2    1    2    0    0 -0.49818789272E+02  0.29636373027E+01 -0.53779757220E+03  0.55438422827E+03  0.12499979593E+03 0.  0.
         23    2    1    2    0    0  0.49818789272E+02 -0.29636373027E+01 -0.10171809032E+03  0.14498760201E+03  0.90466236397E+02 0.  0.
        -13    1    4    4    0    0  0.36771247300E+02  0.25702136052E+01  0.51186983739E+01  0.37214820475E+02  0.10566000000E+00 0.  1.
         13    1    4    4    0    0  0.13047541973E+02 -0.55338509080E+01 -0.10683678869E+03  0.10777278153E+03  0.10566000000E+00 0. -1.
    9000005    1    3    3    0    0 -0.86377171611E+02 -0.22694344604E+02 -0.38244986081E+03  0.39274030235E+03  0.10000000000E+01 0.  0.
    9000005    1    3    3    0    0  0.36558382339E+02  0.25657981907E+02 -0.15534771139E+03  0.16164392592E+03  0.10000000000E+01 0.  0.
<mgrwt>
<rscale>  0 0.12598398E+03</rscale>
<asrwt>0</asrwt>
<pdfrwt beam="2">  1        2 0.10299133E+00 0.13459437E+03</pdfrwt>
<pdfrwt beam="1">  1       -2 0.46043211E-02 0.13459437E+03</pdfrwt>
<totfact> 0.94132311E+03</totfact>
</mgrwt>
</event>
<event>
 8    3  0.7944584E-004  0.1532175E+03  0.7818608E-02  0.1205173E+00
          2   -1    0    0  501    0  0.00000000000E+00  0.00000000000E+00  0.29104005581E+03  0.29104005582E+03  0.25500000000E-02 0. -1.
         -2   -1    0    0    0  501 -0.00000000000E+00 -0.00000000000E+00 -0.68159652665E+02  0.68159652713E+02  0.25500000000E-02 0.  1.
         25    2    1    2    0    0 -0.69854611604E+02 -0.54510525004E+02  0.13900996830E+03  0.20688011814E+03  0.12499819157E+03 0.  0.
         23    2    1    2    0    0  0.69854611604E+02  0.54510525004E+02  0.83870434842E+02  0.15231959039E+03  0.91191796112E+02 0.  0.
        -13    1    4    4    0    0  0.86538708852E+02  0.56588159501E+02  0.50761956439E+02  0.11518661081E+03  0.10566000000E+00 0.  1.
         13    1    4    4    0    0 -0.16684097248E+02 -0.20776344968E+01  0.33108478404E+02  0.37132979578E+02  0.10566000000E+00 0. -1.
    9000005    1    3    3    0    0 -0.60930648998E+02  0.21289654400E+02  0.10513659376E+03  0.12337137722E+03  0.10000000000E+01 0.  0.
    9000005    1    3    3    0    0 -0.89239626053E+01 -0.75800179404E+02  0.33873374546E+02  0.83508740916E+02  0.10000000000E+01 0.  0.
<mgrwt>
<rscale>  0 0.14623794E+03</rscale>
<asrwt>0</asrwt>
<pdfrwt beam="1">  1        2 0.44775393E-01 0.15321753E+03</pdfrwt>
<pdfrwt beam="2">  1       -2 0.10486100E-01 0.15321753E+03</pdfrwt>
<totfact> 0.66756813E+03</totfact>
</mgrwt>
</event>
<event>
 8    3  0.7944584E-004  0.2229833E+03  0.7818608E-02  0.1134917E+00
          2   -1    0    0  501    0  0.00000000000E+00  0.00000000000E+00  0.76340006315E+03  0.76340006315E+03  0.25500000000E-02 0.  1.
         -2   -1    0    0    0  501 -0.00000000000E+00 -0.00000000000E+00 -0.65594390210E+02  0.65594390260E+02  0.25500000000E-02 0. -1.
         25    2    1    2    0    0 -0.11740753909E+03 -0.14251603056E+03  0.47953301998E+03  0.52884161921E+03  0.12500476693E+03 0.  0.
         23    2    1    2    0    0  0.11740753909E+03  0.14251603056E+03  0.21827265295E+03  0.30015283420E+03  0.91397065866E+02 0.  0.
        -13    1    4    4    0    0  0.77602674127E+02  0.38969733995E+02  0.13866239823E+03  0.16360955670E+03  0.10566000000E+00 0.  1.
         13    1    4    4    0    0  0.39804864960E+02  0.10354629657E+03  0.79610254728E+02  0.13654327749E+03  0.10566000000E+00 0. -1.
    9000005    1    3    3    0    0  0.17930071343E+02 -0.16892756637E+02  0.14176261419E+03  0.14389055378E+03  0.10000000000E+01 0.  0.
    9000005    1    3    3    0    0 -0.13533761043E+03 -0.12562327392E+03  0.33777040580E+03  0.38495106544E+03  0.10000000000E+01 0.  0.
<mgrwt>
<rscale>  0 0.21861873E+03</rscale>
<asrwt>0</asrwt>
<pdfrwt beam="1">  1        2 0.11744616E+00 0.22298328E+03</pdfrwt>
<pdfrwt beam="2">  1       -2 0.10091445E-01 0.22298328E+03</pdfrwt>
<totfact> 0.24498984E+03</totfact>
</mgrwt>
</event>
<event>
 8    3  0.7944584E-004  0.1290910E+03  0.7818608E-02  0.1235247E+00
          2   -1    0    0  501    0  0.00000000000E+00  0.00000000000E+00  0.13671819918E+03  0.13671819921E+03  0.25500000000E-02 0.  1.
         -2   -1    0    0    0  501 -0.00000000000E+00 -0.00000000000E+00 -0.10729742801E+03  0.10729742804E+03  0.25500000000E-02 0. -1.
         25    2    1    2    0    0  0.26956561906E+00 -0.32249225808E+02  0.18546667456E+02  0.13041646569E+03  0.12499756165E+03 0.  0.
         23    2    1    2    0    0 -0.26956561906E+00  0.32249225808E+02  0.10874103718E+02  0.11359916156E+03  0.10838098608E+03 0.  0.
        -13    1    4    4    0    0  0.13854996200E+02  0.51323399127E+01  0.56653385949E+02  0.58548434105E+02  0.10566000000E+00 0.  1.
         13    1    4    4    0    0 -0.14124561819E+02  0.27116885896E+02 -0.45779282230E+02  0.55050727450E+02  0.10566000000E+00 0. -1.
    9000005    1    3    3    0    0 -0.37670882859E+02  0.30934058128E+02 -0.12667179541E+02  0.50373294563E+02  0.10000000000E+01 0.  0.
    9000005    1    3    3    0    0  0.37940448478E+02 -0.63183283936E+02  0.31213846997E+02  0.80043171127E+02  0.10000000000E+01 0.  0.
<mgrwt>
<rscale>  0 0.12488663E+03</rscale>
<asrwt>0</asrwt>
<pdfrwt beam="1">  1        2 0.21033569E-01 0.12909096E+03</pdfrwt>
<pdfrwt beam="2">  1       -2 0.16507297E-01 0.12909096E+03</pdfrwt>
<totfact> 0.72078897E+03</totfact>
</mgrwt>
</event>
<event>
 8    3  0.7944584E-004  0.1349523E+03  0.7818608E-02  0.1232679E+00
         -2   -1    0    0    0  501 -0.00000000000E+00  0.00000000000E+00  0.14730624724E+02  0.14730624945E+02  0.25500000000E-02 0.  1.
          2   -1    0    0  501    0  0.00000000000E+00 -0.00000000000E+00 -0.97662327775E+03  0.97662327775E+03  0.25500000000E-02 0. -1.
         25    2    1    2    0    0 -0.48323767744E+02  0.15875468945E+02 -0.57710119824E+03  0.59267016644E+03  0.12499966455E+03 0.  0.
         23    2    1    2    0    0  0.48323767744E+02 -0.15875468945E+02 -0.38479145479E+03  0.39868373626E+03  0.91088093812E+02 0.  0.
        -13    1    4    4    0    0 -0.19410917533E+02 -0.10208367578E+02 -0.20998639874E+03  0.21112861792E+03  0.10566000000E+00 0. -1.
         13    1    4    4    0    0  0.67734685278E+02 -0.56671013675E+01 -0.17480505605E+03  0.18755511834E+03  0.10566000000E+00 0.  1.
    9000005    1    3    3    0    0  0.37762927830E+02 -0.14554024893E+02 -0.24144700710E+03  0.24481731066E+03  0.10000000000E+01 0.  0.
    9000005    1    3    3    0    0 -0.86086695574E+02  0.30429493838E+02 -0.33565419113E+03  0.34785285578E+03  0.10000000000E+01 0.  0.
<mgrwt>
<rscale>  0 0.12654214E+03</rscale>
<asrwt>0</asrwt>
<pdfrwt beam="2">  1        2 0.15024968E+00 0.13495234E+03</pdfrwt>
<pdfrwt beam="1">  1       -2 0.22662507E-02 0.13495234E+03</pdfrwt>
<totfact> 0.16672194E+04</totfact>
</mgrwt>
</event>
<event>
 8    3  0.7944584E-004  0.1534986E+03  0.7818608E-02  0.1204772E+00
         -2   -1    0    0    0  501 -0.00000000000E+00  0.00000000000E+00  0.50382736821E+02  0.50382736885E+02  0.25500000000E-02 0. -1.
          2   -1    0    0  501    0  0.00000000000E+00 -0.00000000000E+00 -0.63381599404E+03  0.63381599404E+03  0.25500000000E-02 0.  1.
         25    2    1    2    0    0 -0.88969479801E+02 -0.45804792734E+01 -0.97597110089E+02  0.18189840910E+03  0.12500114483E+03 0.  0.
         23    2    1    2    0    0  0.88969479801E+02  0.45804792734E+01 -0.48583614713E+03  0.50230032182E+03  0.91281445666E+02 0.  0.
        -13    1    4    4    0    0  0.10670805704E+03 -0.45460874735E+01 -0.38679413779E+03  0.40126922700E+03  0.10566000000E+00 0. -1.
         13    1    4    4    0    0 -0.17738577235E+02  0.91265667468E+01 -0.99042009338E+02  0.10103109482E+03  0.10566000000E+00 0.  1.
    9000005    1    3    3    0    0  0.21756250104E+02 -0.32606698175E+02 -0.27276907658E+02  0.47765687223E+02  0.10000000000E+01 0.  0.
    9000005    1    3    3    0    0 -0.11072572991E+03  0.28026218901E+02 -0.70320202431E+02  0.13413272188E+03  0.10000000000E+01 0.  0.
<mgrwt>
<rscale>  0 0.14655412E+03</rscale>
<asrwt>0</asrwt>
<pdfrwt beam="2">  1        2 0.97510147E-01 0.15349865E+03</pdfrwt>
<pdfrwt beam="1">  1       -2 0.77511907E-02 0.15349865E+03</pdfrwt>
<totfact> 0.45798555E+03</totfact>
</mgrwt>
</event>
<event>
 8    3  0.7944584E-004  0.1250449E+03  0.7818608E-02  0.1250147E+00
          2   -1    0    0  501    0  0.00000000000E+00  0.00000000000E+00  0.28025163798E+02  0.28025163914E+02  0.25500000000E-02 0. -1.
         -2   -1    0    0    0  501 -0.00000000000E+00 -0.00000000000E+00 -0.44652194917E+03  0.44652194918E+03  0.25500000000E-02 0.  1.
         25    2    1    2    0    0 -0.88440671276E+00  0.48381165426E+01 -0.18245510667E+03  0.22119242924E+03  0.12494813027E+03 0.  0.
         23    2    1    2    0    0  0.88440671276E+00 -0.48381165426E+01 -0.23604167870E+03  0.25335468385E+03  0.91916985358E+02 0.  0.
        -13    1    4    4    0    0  0.10893547182E+02 -0.47212836047E+02 -0.12865443805E+03  0.13747616831E+03  0.10566000000E+00 0.  1.
         13    1    4    4    0    0 -0.10009140469E+02  0.42374719505E+02 -0.10738724065E+03  0.11587851554E+03  0.10566000000E+00 0. -1.
    9000005    1    3    3    0    0  0.23671441497E+02  0.25881271673E+02  0.80580057460E+00  0.35097388514E+02  0.10000000000E+01 0.  0.
    9000005    1    3    3    0    0 -0.24555848210E+02 -0.21043155131E+02 -0.18326090725E+03  0.18609504073E+03  0.10000000000E+01 0.  0.
<mgrwt>
<rscale>  0 0.11582535E+03</rscale>
<asrwt>0</asrwt>
<pdfrwt beam="1">  1        2 0.43115640E-02 0.12504489E+03</pdfrwt>
<pdfrwt beam="2">  1       -2 0.68695679E-01 0.12504489E+03</pdfrwt>
<totfact> 0.36018910E+03</totfact>
</mgrwt>
</event>
<event>
 8    3  0.7944584E-004  0.1256208E+03  0.7818608E-02  0.1249554E+00
          2   -1    0    0  501    0  0.00000000000E+00  0.00000000000E+00  0.13091542463E+04  0.13091542463E+04  0.25500000000E-02 0. -1.
         -2   -1    0    0    0  501 -0.00000000000E+00 -0.00000000000E+00 -0.93771847012E+01  0.93771850479E+01  0.25500000000E-02 0.  1.
         25    2    1    2    0    0  0.48646070627E+01  0.11442289943E+02  0.87185223086E+03  0.88085576906E+03  0.12500393204E+03 0.  0.
         23    2    1    2    0    0 -0.48646070627E+01 -0.11442289943E+02  0.42792483077E+03  0.43767566232E+03  0.91026008370E+02 0.  0.
        -13    1    4    4    0    0  0.65693274596E+01  0.13186943624E+02  0.77928311411E+01  0.16667061128E+02  0.10566000000E+00 0.  1.
         13    1    4    4    0    0 -0.11433934522E+02 -0.24629233566E+02  0.42013199963E+03  0.42100860120E+03  0.10566000000E+00 0. -1.
    9000005    1    3    3    0    0  0.41869731474E+02 -0.49951372632E+01  0.77129806671E+03  0.77245047318E+03  0.10000000000E+01 0.  0.
    9000005    1    3    3    0    0 -0.37005124411E+02  0.16437427206E+02  0.10055416415E+03  0.10840529587E+03  0.10000000000E+01 0.  0.
<mgrwt>
<rscale>  0 0.11616918E+03</rscale>
<asrwt>0</asrwt>
<pdfrwt beam="1">  1        2 0.20140818E+00 0.12562075E+03</pdfrwt>
<pdfrwt beam="2">  1       -2 0.14426450E-02 0.12562075E+03</pdfrwt>
<totfact> 0.20690046E+04</totfact>
</mgrwt>
</event>
<event>
 8    3  0.7944584E-004  0.1293024E+03  0.7818608E-02  0.1243069E+00
         -2   -1    0    0    0  501 -0.00000000000E+00  0.00000000000E+00  0.30492237452E+03  0.30492237453E+03  0.25500000000E-02 0. -1.
          2   -1    0    0  501    0  0.00000000000E+00 -0.00000000000E+00 -0.61003586709E+02  0.61003586762E+02  0.25500000000E-02 0.  1.
         25    2    1    2    0    0  0.23687476234E+02  0.23083180985E+02  0.31874492423E+02  0.13317318056E+03  0.12500073192E+03 0.  0.
         23    2    1    2    0    0 -0.23687476234E+02 -0.23083180985E+02  0.21204429539E+03  0.23275278073E+03  0.90095193854E+02 0.  0.
        -13    1    4    4    0    0 -0.63027221850E+00 -0.32961857073E+01 -0.90125314491E+01  0.96176385065E+01  0.10566000000E+00 0.  1.
         13    1    4    4    0    0 -0.23057204015E+02 -0.19786995278E+02  0.22105682684E+03  0.22313514222E+03  0.10566000000E+00 0. -1.
    9000005    1    3    3    0    0 -0.23636067974E+02  0.63040940666E+02  0.17885145728E+02  0.69668517617E+02  0.10000000000E+01 0.  0.
    9000005    1    3    3    0    0  0.47323544208E+02 -0.39957759681E+02  0.13989346695E+02  0.63504662947E+02  0.10000000000E+01 0.  0.
<mgrwt>
<rscale>  0 0.12001727E+03</rscale>
<asrwt>0</asrwt>
<pdfrwt beam="2">  1        2 0.93851674E-02 0.12930241E+03</pdfrwt>
<pdfrwt beam="1">  1       -2 0.46911133E-01 0.12930241E+03</pdfrwt>
<totfact> 0.28979896E+03</totfact>
</mgrwt>
</event>
<event>
 8    3  0.7944584E-004  0.1873177E+03  0.7818608E-02  0.1166029E+00
         -2   -1    0    0    0  501 -0.00000000000E+00  0.00000000000E+00  0.15411702787E+03  0.15411702789E+03  0.25500000000E-02 0. -1.
          2   -1    0    0  501    0  0.00000000000E+00 -0.00000000000E+00 -0.20324592516E+03  0.20324592518E+03  0.25500000000E-02 0.  1.
         25    2    1    2    0    0  0.47093927620E+02  0.13132208693E+03 -0.18864202577E+02  0.18826513880E+03  0.12499830326E+03 0.  0.
         23    2    1    2    0    0 -0.47093927620E+02 -0.13132208693E+03 -0.30264694709E+02  0.16909781427E+03  0.90635481520E+02 0.  0.
        -13    1    4    4    0    0 -0.50379986086E+02 -0.10746516541E+03  0.13187081550E+02  0.11941865456E+03  0.10566000000E+00 0. -1.
         13    1    4    4    0    0  0.32860584662E+01 -0.23856921519E+02 -0.43451776259E+02  0.49679159702E+02  0.10566000000E+00 0.  1.
    9000005    1    3    3    0    0  0.33775341731E+02  0.84451221689E+02  0.50079161424E+02  0.10383498911E+03  0.10000000000E+01 0.  0.
    9000005    1    3    3    0    0  0.13318585889E+02  0.46870865238E+02 -0.68943364001E+02  0.84430149698E+02  0.10000000000E+01 0.  0.
<mgrwt>
<rscale>  0 0.18184489E+03</rscale>
<asrwt>0</asrwt>
<pdfrwt beam="2">  1        2 0.31268604E-01 0.18731766E+03</pdfrwt>
<pdfrwt beam="1">  1       -2 0.23710312E-01 0.18731766E+03</pdfrwt>
<totfact> 0.25702537E+03</totfact>
</mgrwt>
</event>
<event>
 8    3  0.7944584E-004  0.1352937E+03  0.7818608E-02  0.1232628E+00
         -2   -1    0    0    0  501 -0.00000000000E+00  0.00000000000E+00  0.90514377269E+01  0.90514380861E+01  0.25500000000E-02 0.  1.
          2   -1    0    0  501    0  0.00000000000E+00 -0.00000000000E+00 -0.16234431995E+04  0.16234431995E+04  0.25500000000E-02 0. -1.
         25    2    1    2    0    0 -0.10739526186E+02 -0.50640382410E+02 -0.10480401183E+04  0.10567367163E+04  0.12499844865E+03 0.  0.
         23    2    1    2    0    0  0.10739526186E+02  0.50640382410E+02 -0.56635164348E+03  0.57575792134E+03  0.89795401651E+02 0.  0.
        -13    1    4    4    0    0  0.25422812798E+02 -0.16077558154E+02 -0.99903450579E+02  0.10433368530E+03  0.10566000000E+00 0.  1.
         13    1    4    4    0    0 -0.14683286612E+02  0.66717940564E+02 -0.46644819291E+03  0.47142423604E+03  0.10566000000E+00 0. -1.
    9000005    1    3    3    0    0  0.36973455403E+02 -0.25269558424E+02 -0.85777467913E+03  0.85894352966E+03  0.10000000000E+01 0.  0.
    9000005    1    3    3    0    0 -0.47712981589E+02 -0.25370823986E+02 -0.19026543917E+03  0.19779318660E+03  0.10000000000E+01 0.  0.
<mgrwt>
<rscale>  0 0.12657531E+03</rscale>
<asrwt>0</asrwt>
<pdfrwt beam="2">  1        2 0.24976026E+00 0.13529375E+03</pdfrwt>
<pdfrwt beam="1">  1       -2 0.13925302E-02 0.13529375E+03</pdfrwt>
<totfact> 0.14973193E+04</totfact>
</mgrwt>
</event>
<event>
 8    3  0.7944584E-004  0.1443896E+03  0.7818608E-02  0.1216966E+00
         -2   -1    0    0    0  501 -0.00000000000E+00  0.00000000000E+00  0.22789303378E+03  0.22789303380E+03  0.25500000000E-02 0.  1.
          2   -1    0    0  501    0  0.00000000000E+00 -0.00000000000E+00 -0.81072394159E+02  0.81072394199E+02  0.25500000000E-02 0. -1.
         25    2    1    2    0    0 -0.68365451972E+02  0.23437938846E+02  0.40368716443E+02  0.14992660682E+03  0.12500072866E+03 0.  0.
         23    2    1    2    0    0  0.68365451972E+02 -0.23437938846E+02  0.10645192318E+03  0.15903882118E+03  0.93478140180E+02 0.  0.
        -13    1    4    4    0    0 -0.89266239675E+01 -0.20464510948E+02 -0.54720799097E+01  0.22987728169E+02  0.10566000000E+00 0. -1.
         13    1    4    4    0    0  0.77292075940E+02 -0.29734278979E+01  0.11192400309E+03  0.13605109301E+03  0.10566000000E+00 0.  1.
    9000005    1    3    3    0    0 -0.14416980140E+02 -0.30773192157E+02  0.61764631277E+02  0.70503250625E+02  0.10000000000E+01 0.  0.
    9000005    1    3    3    0    0 -0.53948471832E+02  0.54211131004E+02 -0.21395914834E+02  0.79423356195E+02  0.10000000000E+01 0.  0.
<mgrwt>
<rscale>  0 0.13733075E+03</rscale>
<asrwt>0</asrwt>
<pdfrwt beam="2">  1        2 0.12472676E-01 0.14438959E+03</pdfrwt>
<pdfrwt beam="1">  1       -2 0.35060466E-01 0.14438959E+03</pdfrwt>
<totfact> 0.35874020E+03</totfact>
</mgrwt>
</event>
<event>
 8    3  0.7944584E-004  0.1278051E+03  0.7818608E-02  0.1245005E+00
         -2   -1    0    0    0  501 -0.00000000000E+00  0.00000000000E+00  0.11558793768E+03  0.11558793770E+03  0.25500000000E-02 0. -1.
          2   -1    0    0  501    0  0.00000000000E+00 -0.00000000000E+00 -0.11026688875E+03  0.11026688878E+03  0.25500000000E-02 0.  1.
         25    2    1    2    0    0  0.72636290036E+01 -0.25624063086E+02 -0.13241149511E+02  0.12848918617E+03  0.12499916003E+03 0.  0.
         23    2    1    2    0    0 -0.72636290036E+01  0.25624063086E+02  0.18562198437E+02  0.97365640313E+02  0.91794116301E+02 0.  0.
        -13    1    4    4    0    0  0.23101044163E+02  0.45126406601E+02  0.30728700018E+02  0.59281658065E+02  0.10566000000E+00 0. -1.
         13    1    4    4    0    0 -0.30364673167E+02 -0.19502343515E+02 -0.12166501581E+02  0.38083982248E+02  0.10566000000E+00 0.  1.
    9000005    1    3    3    0    0  0.89787582405E+01 -0.75377517868E+02  0.33885489073E+01  0.75992569131E+02  0.10000000000E+01 0.  0.
    9000005    1    3    3    0    0 -0.17151292368E+01  0.49753454783E+02 -0.16629698419E+02  0.52496617040E+02  0.10000000000E+01 0.  0.
<mgrwt>
<rscale>  0 0.11885097E+03</rscale>
<asrwt>0</asrwt>
<pdfrwt beam="2">  1        2 0.16964137E-01 0.12780510E+03</pdfrwt>
<pdfrwt beam="1">  1       -2 0.17782760E-01 0.12780510E+03</pdfrwt>
<totfact> 0.81295705E+03</totfact>
</mgrwt>
</event>
<event>
 8    3  0.7944584E-004  0.1336262E+03  0.7818608E-02  0.1234756E+00
         -2   -1    0    0    0  501 -0.00000000000E+00  0.00000000000E+00  0.13613292488E+02  0.13613292726E+02  0.25500000000E-02 0.  1.
          2   -1    0    0  501    0  0.00000000000E+00 -0.00000000000E+00 -0.10293623468E+04  0.10293623468E+04  0.25500000000E-02 0. -1.
         25    2    1    2    0    0  0.37615729681E+02 -0.28562477579E+02 -0.59174429292E+03  0.60664425922E+03  0.12500076317E+03 0.  0.
         23    2    1    2    0    0 -0.37615729681E+02  0.28562477579E+02 -0.42400476135E+03  0.43633138027E+03  0.91511078652E+02 0.  0.
        -13    1    4    4    0    0  0.66969632662E+01  0.34415712043E+02 -0.33403685589E+03  0.33587188452E+03  0.10566000000E+00 0. -1.
         13    1    4    4    0    0 -0.44312692947E+02 -0.58532344643E+01 -0.89967905460E+02  0.10045949575E+03  0.10566000000E+00 0.  1.
    9000005    1    3    3    0    0 -0.13393378473E+02  0.34345736319E+02 -0.74842365182E+02  0.83434955602E+02  0.10000000000E+01 0.  0.
    9000005    1    3    3    0    0  0.51009108154E+02 -0.62908213898E+02 -0.51690192774E+03  0.52320930362E+03  0.10000000000E+01 0.  0.
<mgrwt>
<rscale>  0 0.12520095E+03</rscale>
<asrwt>0</asrwt>
<pdfrwt beam="2">  1        2 0.15836338E+00 0.13362615E+03</pdfrwt>
<pdfrwt beam="1">  1       -2 0.20943535E-02 0.13362615E+03</pdfrwt>
<totfact> 0.17381691E+04</totfact>
</mgrwt>
</event>
<event>
 8    3  0.7944584E-004  0.1451386E+03  0.7818608E-02  0.1217668E+00
          2   -1    0    0  501    0  0.00000000000E+00  0.00000000000E+00  0.19444843669E+04  0.19444843669E+04  0.25500000000E-02 0. -1.
         -2   -1    0    0    0  501 -0.00000000000E+00 -0.00000000000E+00 -0.10564711752E+02  0.10564712060E+02  0.25500000000E-02 0.  1.
         25    2    1    2    0    0  0.57099382597E+02  0.46711250255E+02  0.14712094011E+04  0.14783512103E+04  0.12499167539E+03 0.  0.
         23    2    1    2    0    0 -0.57099382597E+02 -0.46711250255E+02  0.46271025410E+03  0.47669786865E+03  0.87737097789E+02 0.  0.
        -13    1    4    4    0    0 -0.34759126760E+02 -0.37433634934E+02  0.92254890945E+02  0.10545354420E+03  0.10566000000E+00 0.  1.
         13    1    4    4    0    0 -0.22340255837E+02 -0.92776153213E+01  0.37045536316E+03  0.37124432445E+03  0.10566000000E+00 0. -1.
    9000005    1    3    3    0    0  0.53009621326E+02 -0.30611068989E+02  0.44004978914E+03  0.44428805343E+03  0.10000000000E+01 0.  0.
    9000005    1    3    3    0    0  0.40897612707E+01  0.77322319244E+02  0.10311596119E+04  0.10340631569E+04  0.10000000000E+01 0.  0.
<mgrwt>
<rscale>  0 0.13682386E+03</rscale>
<asrwt>0</asrwt>
<pdfrwt beam="1">  1        2 0.29915190E+00 0.14513855E+03</pdfrwt>
<pdfrwt beam="2">  1       -2 0.16253378E-02 0.14513855E+03</pdfrwt>
<totfact> 0.82249182E+03</totfact>
</mgrwt>
</event>
<event>
 8    3  0.7944584E-004  0.1363718E+03  0.7818608E-02  0.1230265E+00
         -2   -1    0    0    0  501 -0.00000000000E+00  0.00000000000E+00  0.57837301238E+01  0.57837306860E+01  0.25500000000E-02 0.  1.
          2   -1    0    0  501    0  0.00000000000E+00 -0.00000000000E+00 -0.26815598475E+04  0.26815598475E+04  0.25500000000E-02 0. -1.
         25    2    1    2    0    0  0.16829402924E+02 -0.51876028149E+02 -0.17969041606E+04  0.18020715414E+04  0.12499170740E+03 0.  0.
         23    2    1    2    0    0 -0.16829402924E+02  0.51876028149E+02 -0.87887195676E+03  0.88527203675E+03  0.91193813242E+02 0.  0.
        -13    1    4    4    0    0  0.23973171800E+02  0.76483482907E+01 -0.74152669995E+02  0.78306065085E+02  0.10566000000E+00 0.  1.
         13    1    4    4    0    0 -0.40802574724E+02  0.44227679858E+02 -0.80471928676E+03  0.80696597166E+03  0.10566000000E+00 0. -1.
    9000005    1    3    3    0    0  0.37979999782E+02 -0.59721263588E+02 -0.50149027975E+03  0.50646086758E+03  0.10000000000E+01 0.  0.
    9000005    1    3    3    0    0 -0.21150596858E+02  0.78452354390E+01 -0.12954138809E+04  0.12956106738E+04  0.10000000000E+01 0.  0.
<mgrwt>
<rscale>  0 0.12812487E+03</rscale>
<asrwt>0</asrwt>
<pdfrwt beam="2">  1        2 0.41254668E+00 0.13637184E+03</pdfrwt>
<pdfrwt beam="1">  1       -2 0.88980682E-03 0.13637184E+03</pdfrwt>
<totfact> 0.79989281E+03</totfact>
</mgrwt>
</event>
<event>
 8    3  0.7944584E-004  0.1561744E+03  0.7818608E-02  0.1201158E+00
          2   -1    0    0  501    0  0.00000000000E+00  0.00000000000E+00  0.31431738624E+04  0.31431738624E+04  0.25500000000E-02 0. -1.
         -2   -1    0    0    0  501 -0.00000000000E+00 -0.00000000000E+00 -0.13099311918E+02  0.13099312166E+02  0.25500000000E-02 0.  1.
         25    2    1    2    0    0  0.93578580119E+02 -0.27154260267E+01  0.27470266016E+04  0.27514624484E+04  0.12500452382E+03 0.  0.
         23    2    1    2    0    0 -0.93578580119E+02  0.27154260267E+01  0.38304794884E+03  0.40481072611E+03  0.91551453636E+02 0.  0.
        -13    1    4    4    0    0  0.11017567016E+02 -0.80242997195E+01  0.13104234150E+03  0.13174931726E+03  0.10566000000E+00 0. -1.
         13    1    4    4    0    0 -0.10459614714E+03  0.10739725746E+02  0.25200560735E+03  0.27306140885E+03  0.10566000000E+00 0.  1.
    9000005    1    3    3    0    0  0.94256185906E+02  0.24898282916E+02  0.11295463803E+04  0.11337460819E+04  0.10000000000E+01 0.  0.
    9000005    1    3    3    0    0 -0.67760578655E+00 -0.27613708942E+02  0.16174802213E+04  0.16177163665E+04  0.10000000000E+01 0.  0.
<mgrwt>
<rscale>  0 0.14944376E+03</rscale>
<asrwt>0</asrwt>
<pdfrwt beam="1">  1        2 0.48356514E+00 0.15617444E+03</pdfrwt>
<pdfrwt beam="2">  1       -2 0.20152791E-02 0.15617444E+03</pdfrwt>
<totfact> 0.13383567E+03</totfact>
</mgrwt>
</event>
<event>
 8    3  0.7944584E-004  0.1411118E+03  0.7818608E-02  0.1223499E+00
         -2   -1    0    0    0  501 -0.00000000000E+00  0.00000000000E+00  0.27165760026E+03  0.27165760028E+03  0.25500000000E-02 0.  1.
          2   -1    0    0  501    0  0.00000000000E+00 -0.00000000000E+00 -0.59481441225E+02  0.59481441280E+02  0.25500000000E-02 0. -1.
         25    2    1    2    0    0  0.12451654456E+02 -0.64284516967E+02  0.14290879503E+03  0.20083689764E+03  0.12499997174E+03 0.  0.
         23    2    1    2    0    0 -0.12451654456E+02  0.64284516967E+02  0.69267364006E+02  0.13030214392E+03  0.88843334992E+02 0.  0.
        -13    1    4    4    0    0 -0.20028614488E+02 -0.17493213960E+02  0.77803655764E+01  0.27707457218E+02  0.10566000000E+00 0. -1.
         13    1    4    4    0    0  0.75769600317E+01  0.81777730927E+02  0.61486998429E+02  0.10259468670E+03  0.10566000000E+00 0.  1.
    9000005    1    3    3    0    0  0.63021102193E+02 -0.53540695001E+01  0.69431517340E+02  0.93925827023E+02  0.10000000000E+01 0.  0.
    9000005    1    3    3    0    0 -0.50569447737E+02 -0.58930447467E+02  0.73477277693E+02  0.10691107062E+03  0.10000000000E+01 0.  0.
<mgrwt>
<rscale>  0 0.13270320E+03</rscale>
<asrwt>0</asrwt>
<pdfrwt beam="2">  1        2 0.91509908E-02 0.14111178E+03</pdfrwt>
<pdfrwt beam="1">  1       -2 0.41793478E-01 0.14111178E+03</pdfrwt>
<totfact> 0.37570427E+03</totfact>
</mgrwt>
</event>
<event>
 8    3  0.7944584E-004  0.1274975E+03  0.7818608E-02  0.1246302E+00
         -2   -1    0    0    0  501 -0.00000000000E+00  0.00000000000E+00  0.42883213395E+02  0.42883213470E+02  0.25500000000E-02 0.  1.
          2   -1    0    0  501    0  0.00000000000E+00 -0.00000000000E+00 -0.28660795041E+03  0.28660795042E+03  0.25500000000E-02 0. -1.
         25    2    1    2    0    0 -0.23477052520E+02  0.88995015038E+01 -0.13013247797E+03  0.18218140321E+03  0.12500091493E+03 0.  0.
         23    2    1    2    0    0  0.23477052520E+02 -0.88995015038E+01 -0.11359225905E+03  0.14730976068E+03  0.90369193610E+02 0.  0.
        -13    1    4    4    0    0  0.35143066042E+02 -0.30249441007E+02 -0.11390159732E+03  0.12297824526E+03  0.10566000000E+00 0. -1.
         13    1    4    4    0    0 -0.11666013522E+02  0.21349939503E+02  0.30933827104E+00  0.24331515417E+02  0.10566000000E+00 0.  1.
    9000005    1    3    3    0    0 -0.38923031007E+02 -0.48478305889E+02 -0.39043796237E+02  0.73420477452E+02  0.10000000000E+01 0.  0.
    9000005    1    3    3    0    0  0.15445978488E+02  0.57377807393E+02 -0.91088681730E+02  0.10876092576E+03  0.10000000000E+01 0.  0.
<mgrwt>
<rscale>  0 0.11807766E+03</rscale>
<asrwt>0</asrwt>
<pdfrwt beam="2">  1        2 0.44093530E-01 0.12749746E+03</pdfrwt>
<pdfrwt beam="1">  1       -2 0.65974176E-02 0.12749746E+03</pdfrwt>
<totfact> 0.13733315E+04</totfact>
</mgrwt>
</event>
<event>
 8    3  0.7944584E-004  0.1833514E+03  0.7818608E-02  0.1169892E+00
          2   -1    0    0  501    0  0.00000000000E+00  0.00000000000E+00  0.12487396079E+04  0.12487396079E+04  0.25500000000E-02 0.  1.
         -2   -1    0    0    0  501 -0.00000000000E+00 -0.00000000000E+00 -0.28911652515E+02  0.28911652627E+02  0.25500000000E-02 0. -1.
         25    2    1    2    0    0 -0.97544519895E+02  0.92072937835E+02  0.37569182147E+03  0.41804556945E+03  0.12500157669E+03 0.  0.
         23    2    1    2    0    0  0.97544519895E+02 -0.92072937835E+02  0.84413613388E+03  0.85960569104E+03  0.91453662089E+02 0.  0.
        -13    1    4    4    0    0  0.59679176592E+02 -0.60092854170E+01  0.47106464704E+03  0.47486801164E+03  0.10566000000E+00 0.  1.
         13    1    4    4    0    0  0.37865343303E+02 -0.86063652418E+02  0.37307148684E+03  0.38473767939E+03  0.10566000000E+00 0. -1.
    9000005    1    3    3    0    0 -0.61229147104E+01 -0.11670398220E+02 -0.41201141255E+01  0.13844263056E+02  0.10000000000E+01 0.  0.
    9000005    1    3    3    0    0 -0.91421605185E+02  0.10374333605E+03  0.37981193560E+03  0.40420130640E+03  0.10000000000E+01 0.  0.
<mgrwt>
<rscale>  0 0.17785803E+03</rscale>
<asrwt>0</asrwt>
<pdfrwt beam="1">  1        2 0.19211383E+00 0.18335145E+03</pdfrwt>
<pdfrwt beam="2">  1       -2 0.44479456E-02 0.18335145E+03</pdfrwt>
<totfact> 0.43491337E+03</totfact>
</mgrwt>
</event>
<event>
 8    3  0.7944584E-004  0.1260984E+03  0.7818608E-02  0.1246794E+00
         -2   -1    0    0    0  501 -0.00000000000E+00  0.00000000000E+00  0.83319940908E+01  0.83319944811E+01  0.25500000000E-02 0.  1.
          2   -1    0    0  501    0  0.00000000000E+00 -0.00000000000E+00 -0.15202392276E+04  0.15202392276E+04  0.25500000000E-02 0. -1.
         25    2    1    2    0    0  0.10982756319E+02 -0.12473275362E+02 -0.73249853421E+03  0.74327310856E+03  0.12499843102E+03 0.  0.
         23    2    1    2    0    0 -0.10982756319E+02  0.12473275362E+02 -0.77940869934E+03  0.78529811356E+03  0.94546300940E+02 0.  0.
        -13    1    4    4    0    0  0.12247940000E+02 -0.33902251439E+02 -0.17536106123E+03  0.17902761700E+03  0.10566000000E+00 0.  1.
         13    1    4    4    0    0 -0.23230696319E+02  0.46375526801E+02 -0.60404763811E+03  0.60627049657E+03  0.10566000000E+00 0. -1.
    9000005    1    3    3    0    0 -0.13784731411E+02 -0.64883512632E+02 -0.45233042884E+03  0.45716923112E+03  0.10000000000E+01 0.  0.
    9000005    1    3    3    0    0  0.24767487730E+02  0.52410237270E+02 -0.28016810537E+03  0.28610387744E+03  0.10000000000E+01 0.  0.
<mgrwt>
<rscale>  0 0.11778646E+03</rscale>
<asrwt>0</asrwt>
<pdfrwt beam="2">  1        2 0.23388274E+00 0.12609842E+03</pdfrwt>
<pdfrwt beam="1">  1       -2 0.12818465E-02 0.12609842E+03</pdfrwt>
<totfact> 0.18991785E+04</totfact>
</mgrwt>
</event>
<event>
 8    3  0.7944584E-004  0.1846999E+03  0.7818608E-02  0.1168610E+00
          2   -1    0    0  501    0  0.00000000000E+00  0.00000000000E+00  0.53596065896E+04  0.53596065896E+04  0.25500000000E-02 0. -1.
         -2   -1    0    0    0  501 -0.00000000000E+00 -0.00000000000E+00 -0.59472831745E+01  0.59472837212E+01  0.25500000000E-02 0.  1.
         25    2    1    2    0    0 -0.89324046352E+02  0.10252298754E+03  0.34230717540E+04  0.34280510896E+04  0.12499716669E+03 0.  0.
         23    2    1    2    0    0  0.89324046352E+02 -0.10252298754E+03  0.19305875525E+04  0.19375027837E+04  0.90878991512E+02 0.  0.
        -13    1    4    4    0    0  0.94019720651E+02 -0.11551937734E+03  0.17055086173E+04  0.17120000260E+04  0.10566000000E+00 0.  1.
         13    1    4    4    0    0 -0.46956742995E+01  0.12996389805E+02  0.22507893520E+03  0.22550275772E+03  0.10566000000E+00 0. -1.
    9000005    1    3    3    0    0 -0.11518502437E+03  0.51479766991E+02  0.21574749271E+04  0.21611609883E+04  0.10000000000E+01 0.  0.
    9000005    1    3    3    0    0  0.25860978016E+02  0.51043220548E+02  0.12655968269E+04  0.12668901013E+04  0.10000000000E+01 0.  0.
<mgrwt>
<rscale>  0 0.17916899E+03</rscale>
<asrwt>0</asrwt>
<pdfrwt beam="1">  1        2 0.82456049E+00 0.18469986E+03</pdfrwt>
<pdfrwt beam="2">  1       -2 0.91496044E-03 0.18469986E+03</pdfrwt>
<totfact> 0.42398443E+01</totfact>
</mgrwt>
</event>
<event>
 8    3  0.7944584E-004  0.1407412E+03  0.7818608E-02  0.1221067E+00
         -2   -1    0    0    0  501 -0.00000000000E+00  0.00000000000E+00  0.10599810317E+02  0.10599810624E+02  0.25500000000E-02 0.  1.
          2   -1    0    0  501    0  0.00000000000E+00 -0.00000000000E+00 -0.21203827392E+04  0.21203827392E+04  0.25500000000E-02 0. -1.
         25    2    1    2    0    0  0.37555398478E+02 -0.52657060238E+02 -0.16690287961E+04  0.16749523036E+04  0.12499969283E+03 0.  0.
         23    2    1    2    0    0 -0.37555398478E+02  0.52657060238E+02 -0.44075413285E+03  0.45603024628E+03  0.97551042806E+02 0.  0.
        -13    1    4    4    0    0  0.50298396662E+00 -0.12980396619E+02 -0.53241209558E+01  0.14039270539E+02  0.10566000000E+00 0.  1.
         13    1    4    4    0    0 -0.38058382445E+02  0.65637456858E+02 -0.43543001189E+03  0.44199097574E+03  0.10566000000E+00 0. -1.
    9000005    1    3    3    0    0 -0.27034357763E+02 -0.68718234392E+02 -0.82078028326E+03  0.82409606577E+03  0.10000000000E+01 0.  0.
    9000005    1    3    3    0    0  0.64589756242E+02  0.16061174153E+02 -0.84824851281E+03  0.85085623780E+03  0.10000000000E+01 0.  0.
<mgrwt>
<rscale>  0 0.13440136E+03</rscale>
<asrwt>0</asrwt>
<pdfrwt beam="2">  1        2 0.32621239E+00 0.14074124E+03</pdfrwt>
<pdfrwt beam="1">  1       -2 0.16307418E-02 0.14074124E+03</pdfrwt>
<totfact> 0.66431165E+03</totfact>
</mgrwt>
</event>
<event>
 8    3  0.7944584E-004  0.4203841E+03  0.7818608E-02  0.1037656E+00
         -2   -1    0    0    0  501 -0.00000000000E+00  0.00000000000E+00  0.64745336735E+03  0.64745336735E+03  0.25500000000E-02 0.  1.
          2   -1    0    0  501    0  0.00000000000E+00 -0.00000000000E+00 -0.27385379671E+03  0.27385379673E+03  0.25500000000E-02 0. -1.
         25    2    1    2    0    0  0.25323808579E+03  0.31139596874E+03  0.25980262549E+03  0.49418639966E+03  0.12500326377E+03 0.  0.
         23    2    1    2    0    0 -0.25323808579E+03 -0.31139596874E+03  0.11379694514E+03  0.42712076442E+03  0.91571967506E+02 0.  0.
        -13    1    4    4    0    0 -0.18347709756E+03 -0.21968761787E+03  0.36910824576E+02  0.28859818937E+03  0.10566000000E+00 0. -1.
         13    1    4    4    0    0 -0.69760988225E+02 -0.91708350876E+02  0.76886120564E+02  0.13852257505E+03  0.10566000000E+00 0.  1.
    9000005    1    3    3    0    0  0.25379671593E+03  0.25867730839E+03  0.19803441494E+03  0.41297136994E+03  0.10000000000E+01 0.  0.
    9000005    1    3    3    0    0 -0.55863014062E+00  0.52718660354E+02  0.61768210548E+02  0.81215029714E+02  0.10000000000E+01 0.  0.
<mgrwt>
<rscale>  0 0.41819158E+03</rscale>
<asrwt>0</asrwt>
<pdfrwt beam="2">  1        2 0.42131354E-01 0.42038410E+03</pdfrwt>
<pdfrwt beam="1">  1       -2 0.99608210E-01 0.42038410E+03</pdfrwt>
<totfact> 0.10411816E+02</totfact>
</mgrwt>
</event>
<event>
 8    3  0.7944584E-004  0.1315748E+03  0.7818608E-02  0.1238208E+00
         -2   -1    0    0    0  501 -0.00000000000E+00  0.00000000000E+00  0.69793104011E+02  0.69793104058E+02  0.25500000000E-02 0.  1.
          2   -1    0    0  501    0  0.00000000000E+00 -0.00000000000E+00 -0.19464759441E+03  0.19464759443E+03  0.25500000000E-02 0. -1.
         25    2    1    2    0    0  0.27381518010E+02 -0.30605844651E+02 -0.58529726937E+02  0.14400578118E+03  0.12500188327E+03 0.  0.
         23    2    1    2    0    0 -0.27381518010E+02  0.30605844651E+02 -0.66324763465E+02  0.12043491731E+03  0.91755816185E+02 0.  0.
        -13    1    4    4    0    0  0.18562717248E+02  0.42552282988E+02 -0.54344349900E+02  0.71474406533E+02  0.10566000000E+00 0. -1.
         13    1    4    4    0    0 -0.45944235259E+02 -0.11946438337E+02 -0.11980413564E+02  0.48960510778E+02  0.10566000000E+00 0.  1.
    9000005    1    3    3    0    0  0.22977963894E+02  0.42308082040E+02 -0.51669560559E+02  0.70630759015E+02  0.10000000000E+01 0.  0.
    9000005    1    3    3    0    0  0.44035541160E+01 -0.72913926691E+02 -0.68601663783E+01  0.73375022161E+02  0.10000000000E+01 0.  0.
<mgrwt>
<rscale>  0 0.12301267E+03</rscale>
<asrwt>0</asrwt>
<pdfrwt beam="2">  1        2 0.29945784E-01 0.13157483E+03</pdfrwt>
<pdfrwt beam="1">  1       -2 0.10737401E-01 0.13157483E+03</pdfrwt>
<totfact> 0.97873048E+03</totfact>
</mgrwt>
</event>
<event>
 8    3  0.7944584E-004  0.1596053E+03  0.7818608E-02  0.1196783E+00
         -2   -1    0    0    0  501 -0.00000000000E+00  0.00000000000E+00  0.20829181895E+02  0.20829182052E+02  0.25500000000E-02 0.  1.
          2   -1    0    0  501    0  0.00000000000E+00 -0.00000000000E+00 -0.12150425918E+04  0.12150425918E+04  0.25500000000E-02 0. -1.
         25    2    1    2    0    0  0.39283982646E+02  0.91179180817E+02 -0.87299058207E+03  0.88746065245E+03  0.12496791171E+03 0.  0.
         23    2    1    2    0    0 -0.39283982646E+02 -0.91179180817E+02 -0.32122282783E+03  0.34841112140E+03  0.91374668748E+02 0.  0.
        -13    1    4    4    0    0 -0.10979859268E+02 -0.10599496803E+02  0.77300833522E+00  0.15281208982E+02  0.10566000000E+00 0.  1.
         13    1    4    4    0    0 -0.28304123378E+02 -0.80579684015E+02 -0.32199583616E+03  0.33312991241E+03  0.10566000000E+00 0. -1.
    9000005    1    3    3    0    0  0.34213875646E+00 -0.29248820484E+02 -0.10070925965E+03  0.10487595310E+03  0.10000000000E+01 0.  0.
    9000005    1    3    3    0    0  0.38941843890E+02  0.12042800130E+03 -0.77228132242E+03  0.78258469936E+03  0.10000000000E+01 0.  0.
<mgrwt>
<rscale>  0 0.15304281E+03</rscale>
<asrwt>0</asrwt>
<pdfrwt beam="2">  1        2 0.18692958E+00 0.15960530E+03</pdfrwt>
<pdfrwt beam="1">  1       -2 0.32044905E-02 0.15960530E+03</pdfrwt>
<totfact> 0.73723802E+03</totfact>
</mgrwt>
</event>
<event>
 8    3  0.7944584E-004  0.1354614E+03  0.7818608E-02  0.1231634E+00
         -2   -1    0    0    0  501 -0.00000000000E+00  0.00000000000E+00  0.33189805938E+02  0.33189806036E+02  0.25500000000E-02 0. -1.
          2   -1    0    0  501    0  0.00000000000E+00 -0.00000000000E+00 -0.50728423184E+03  0.50728423185E+03  0.25500000000E-02 0.  1.
         25    2    1    2    0    0 -0.51098527500E+02  0.10559780535E+02 -0.36246334118E+03  0.38694893346E+03  0.12500893938E+03 0.  0.
         23    2    1    2    0    0  0.51098527500E+02 -0.10559780535E+02 -0.11163108472E+03  0.15352510443E+03  0.91574505925E+02 0.  0.
        -13    1    4    4    0    0  0.14045885319E+02 -0.47337070836E+02 -0.33916988534E+02  0.59903743163E+02  0.10566000000E+00 0.  1.
         13    1    4    4    0    0  0.37052642182E+02  0.36777290300E+02 -0.77714096189E+02  0.93621361265E+02  0.10566000000E+00 0. -1.
    9000005    1    3    3    0    0 -0.36733246985E+02  0.66563876886E+02 -0.17590313687E+03  0.19163244689E+03  0.10000000000E+01 0.  0.
    9000005    1    3    3    0    0 -0.14365280516E+02 -0.56004096351E+02 -0.18656020431E+03  0.19531648657E+03  0.10000000000E+01 0.  0.
<mgrwt>
<rscale>  0 0.12722384E+03</rscale>
<asrwt>0</asrwt>
<pdfrwt beam="2">  1        2 0.78043723E-01 0.13546145E+03</pdfrwt>
<pdfrwt beam="1">  1       -2 0.51061244E-02 0.13546145E+03</pdfrwt>
<totfact> 0.11039048E+04</totfact>
</mgrwt>
</event>
<event>
 8    3  0.7944584E-004  0.9247960E+03  0.7818608E-02  0.9396286E-01
         -2   -1    0    0    0  501 -0.00000000000E+00  0.00000000000E+00  0.16821942144E+04  0.16821942144E+04  0.25500000000E-02 0.  1.
          2   -1    0    0  501    0  0.00000000000E+00 -0.00000000000E+00 -0.50640187487E+03  0.50640187488E+03  0.25500000000E-02 0. -1.
         25    2    1    2    0    0  0.73152594275E+03 -0.55180945106E+03  0.57156536710E+03  0.10871681689E+04  0.12499513358E+03 0.  0.
         23    2    1    2    0    0 -0.73152594275E+03  0.55180945106E+03  0.60422697241E+03  0.11014279204E+04  0.91811515379E+02 0.  0.
        -13    1    4    4    0    0 -0.37516264219E+03  0.28296323083E+03  0.25490079748E+03  0.53459295339E+03  0.10566000000E+00 0. -1.
         13    1    4    4    0    0 -0.35636330056E+03  0.26884622023E+03  0.34932617493E+03  0.56683496696E+03  0.10566000000E+00 0.  1.
    9000005    1    3    3    0    0  0.25915850139E+03 -0.16526854873E+03  0.25619693683E+03  0.40014333992E+03  0.10000000000E+01 0.  0.
    9000005    1    3    3    0    0  0.47236744135E+03 -0.38654090233E+03  0.31536843027E+03  0.68702482898E+03  0.10000000000E+01 0.  0.
<mgrwt>
<rscale>  0 0.92381998E+03</rscale>
<asrwt>0</asrwt>
<pdfrwt beam="2">  1        2 0.77907982E-01 0.92479601E+03</pdfrwt>
<pdfrwt beam="1">  1       -2 0.25879911E+00 0.92479601E+03</pdfrwt>
<totfact> 0.34745189E+00</totfact>
</mgrwt>
</event>
<event>
 8    3  0.7944584E-004  0.1310897E+03  0.7818608E-02  0.1240465E+00
          2   -1    0    0  501    0  0.00000000000E+00  0.00000000000E+00  0.23058579459E+04  0.23058579459E+04  0.25500000000E-02 0.  1.
         -2   -1    0    0    0  501 -0.00000000000E+00 -0.00000000000E+00 -0.63138861377E+01  0.63138866527E+01  0.25500000000E-02 0. -1.
         25    2    1    2    0    0  0.34761870366E+02 -0.18728087411E+02  0.93039236226E+03  0.93958207019E+03  0.12500155989E+03 0.  0.
         23    2    1    2    0    0 -0.34761870366E+02  0.18728087411E+02  0.13691516975E+04  0.13725897624E+04  0.88696990337E+02 0.  0.
        -13    1    4    4    0    0 -0.39115910207E+02 -0.77444917423E+01  0.25362494636E+03  0.25674044513E+03  0.10566000000E+00 0.  1.
         13    1    4    4    0    0  0.43540398410E+01  0.26472579154E+02  0.11155267512E+04  0.11158493173E+04  0.10566000000E+00 0. -1.
    9000005    1    3    3    0    0 -0.89348287616E+01 -0.23146742761E+02  0.82534772862E+03  0.82572118539E+03  0.10000000000E+01 0.  0.
    9000005    1    3    3    0    0  0.43696699128E+02  0.44186553493E+01  0.10504463364E+03  0.11386088480E+03  0.10000000000E+01 0.  0.
<mgrwt>
<rscale>  0 0.12160994E+03</rscale>
<asrwt>0</asrwt>
<pdfrwt beam="1">  1        2 0.35474764E+00 0.13108974E+03</pdfrwt>
<pdfrwt beam="2">  1       -2 0.97136642E-03 0.13108974E+03</pdfrwt>
<totfact> 0.11188629E+04</totfact>
</mgrwt>
</event>
<event>
 8    3  0.7944584E-004  0.1310013E+03  0.7818608E-02  0.1239236E+00
          2   -1    0    0  501    0  0.00000000000E+00  0.00000000000E+00  0.13514653282E+04  0.13514653282E+04  0.25500000000E-02 0. -1.
         -2   -1    0    0    0  501 -0.00000000000E+00 -0.00000000000E+00 -0.17233496549E+02  0.17233496738E+02  0.25500000000E-02 0.  1.
         25    2    1    2    0    0  0.12129123961E+02 -0.37243394774E+02  0.27315140424E+03  0.30294062329E+03  0.12500858170E+03 0.  0.
         23    2    1    2    0    0 -0.12129123961E+02  0.37243394774E+02  0.10610804274E+04  0.10657582017E+04  0.91731591349E+02 0.  0.
        -13    1    4    4    0    0  0.84856787233E+00  0.11737069580E+02  0.97449142871E+03  0.97456248371E+03  0.10566000000E+00 0. -1.
         13    1    4    4    0    0 -0.12977691834E+02  0.25506325193E+02  0.86588998711E+02  0.91195717948E+02  0.10566000000E+00 0.  1.
    9000005    1    3    3    0    0 -0.29966360805E+02  0.17745595846E+01  0.72298883508E+01  0.30893415596E+02  0.10000000000E+01 0.  0.
    9000005    1    3    3    0    0  0.42095484767E+02 -0.39017954358E+02  0.26592151589E+03  0.27204720769E+03  0.10000000000E+01 0.  0.
<mgrwt>
<rscale>  0 0.12237095E+03</rscale>
<asrwt>0</asrwt>
<pdfrwt beam="1">  1        2 0.20791773E+00 0.13100127E+03</pdfrwt>
<pdfrwt beam="2">  1       -2 0.26513073E-02 0.13100127E+03</pdfrwt>
<totfact> 0.81492125E+03</totfact>
</mgrwt>
</event>
<event>
 8    3  0.7944584E-004  0.1662879E+03  0.7818608E-02  0.1187617E+00
          2   -1    0    0  501    0  0.00000000000E+00  0.00000000000E+00  0.12646651459E+04  0.12646651459E+04  0.25500000000E-02 0. -1.
         -2   -1    0    0    0  501 -0.00000000000E+00 -0.00000000000E+00 -0.20248969013E+02  0.20248969174E+02  0.25500000000E-02 0.  1.
         25    2    1    2    0    0 -0.61878924022E+02  0.90539733666E+02  0.80128510464E+03  0.81835779793E+03  0.12500088763E+03 0.  0.
         23    2    1    2    0    0  0.61878924022E+02 -0.90539733666E+02  0.44313107223E+03  0.46655631713E+03  0.96349391621E+02 0.  0.
        -13    1    4    4    0    0 -0.59139329971E+01 -0.19296852323E+02  0.24025155115E+03  0.24109782684E+03  0.10566000000E+00 0. -1.
         13    1    4    4    0    0  0.67792857019E+02 -0.71242881343E+02  0.20287952107E+03  0.22545849028E+03  0.10566000000E+00 0.  1.
    9000005    1    3    3    0    0 -0.42877058019E+02  0.93955326297E+02  0.78837429171E+03  0.79511072768E+03  0.10000000000E+01 0.  0.
    9000005    1    3    3    0    0 -0.19001866003E+02 -0.34155926308E+01  0.12910812925E+02  0.23247070246E+02  0.10000000000E+01 0.  0.
<mgrwt>
<rscale>  0 0.16095984E+03</rscale>
<asrwt>0</asrwt>
<pdfrwt beam="1">  1        2 0.19456384E+00 0.16628790E+03</pdfrwt>
<pdfrwt beam="2">  1       -2 0.31152264E-02 0.16628790E+03</pdfrwt>
<totfact> 0.72282488E+03</totfact>
</mgrwt>
</event>
<event>
 8    3  0.7944584E-004  0.1524304E+03  0.7818608E-02  0.1206248E+00
          2   -1    0    0  501    0  0.00000000000E+00  0.00000000000E+00  0.13791283324E+04  0.13791283324E+04  0.25500000000E-02 0. -1.
         -2   -1    0    0    0  501 -0.00000000000E+00 -0.00000000000E+00 -0.19247973643E+02  0.19247973811E+02  0.25500000000E-02 0.  1.
         25    2    1    2    0    0  0.79915467905E+02 -0.34953693014E+02  0.36534714605E+03  0.39587065486E+03  0.12500718213E+03 0.  0.
         23    2    1    2    0    0 -0.79915467905E+02  0.34953693014E+02  0.99453321268E+03  0.10025056513E+04  0.91175803572E+02 0.  0.
        -13    1    4    4    0    0  0.12345155862E+02 -0.91875914842E+01  0.30920575672E+03  0.30958847825E+03  0.10566000000E+00 0. -1.
         13    1    4    4    0    0 -0.92260623767E+02  0.44141284498E+02  0.68532745596E+03  0.69291717308E+03  0.10566000000E+00 0.  1.
    9000005    1    3    3    0    0  0.53473120159E+02 -0.38446380090E+02  0.36316610129E+03  0.36909093168E+03  0.10000000000E+01 0.  0.
    9000005    1    3    3    0    0  0.26442347746E+02  0.34926870758E+01  0.21810447613E+01  0.26779723180E+02  0.10000000000E+01 0.  0.
<mgrwt>
<rscale>  0 0.14539551E+03</rscale>
<asrwt>0</asrwt>
<pdfrwt beam="1">  1        2 0.21217364E+00 0.15243044E+03</pdfrwt>
<pdfrwt beam="2">  1       -2 0.29612260E-02 0.15243044E+03</pdfrwt>
<totfact> 0.67353644E+03</totfact>
</mgrwt>
</event>
<event>
 8    3  0.7944584E-004  0.2992895E+03  0.7818608E-02  0.1087278E+00
          2   -1    0    0  501    0  0.00000000000E+00  0.00000000000E+00  0.70796035685E+03  0.70796035685E+03  0.25500000000E-02 0. -1.
         -2   -1    0    0    0  501 -0.00000000000E+00 -0.00000000000E+00 -0.12321678150E+03  0.12321678153E+03  0.25500000000E-02 0.  1.
         25    2    1    2    0    0 -0.27139273531E+03 -0.17185456932E+02  0.24366158788E+03  0.38593416586E+03  0.12499941704E+03 0.  0.
         23    2    1    2    0    0  0.27139273531E+03  0.17185456932E+02  0.34108198746E+03  0.44524297253E+03  0.89190950795E+02 0.  0.
        -13    1    4    4    0    0  0.11212355044E+03 -0.23328526702E+02  0.19089046933E+03  0.22260973286E+03  0.10566000000E+00 0.  1.
         13    1    4    4    0    0  0.15926918487E+03  0.40513983634E+02  0.15019151814E+03  0.22263323967E+03  0.10566000000E+00 0. -1.
    9000005    1    3    3    0    0 -0.42155825551E+01 -0.32065405919E+01  0.62713283691E+02  0.62944491341E+02  0.10000000000E+01 0.  0.
    9000005    1    3    3    0    0 -0.26717715275E+03 -0.13978916340E+02  0.18094830419E+03  0.32298967452E+03  0.10000000000E+01 0.  0.
<mgrwt>
<rscale>  0 0.29595932E+03</rscale>
<asrwt>0</asrwt>
<pdfrwt beam="1">  1        2 0.10891698E+00 0.29928951E+03</pdfrwt>
<pdfrwt beam="2">  1       -2 0.18956427E-01 0.29928951E+03</pdfrwt>
<totfact> 0.95521174E+02</totfact>
</mgrwt>
</event>
<event>
 8    3  0.7944584E-004  0.1435985E+03  0.7818608E-02  0.1219455E+00
          2   -1    0    0  501    0  0.00000000000E+00  0.00000000000E+00  0.69509752374E+02  0.69509752421E+02  0.25500000000E-02 0. -1.
         -2   -1    0    0    0  501 -0.00000000000E+00 -0.00000000000E+00 -0.27792110118E+03  0.27792110119E+03  0.25500000000E-02 0.  1.
         25    2    1    2    0    0 -0.51302891334E+01  0.70488337955E+02 -0.49552875875E+02  0.15190794766E+03  0.12500244558E+03 0.  0.
         23    2    1    2    0    0  0.51302891334E+01 -0.70488337955E+02 -0.15885847293E+03  0.19552290595E+03  0.89433028996E+02 0.  0.
        -13    1    4    4    0    0 -0.40718409197E+02 -0.22653315436E+02 -0.52323131663E+02  0.70063419977E+02  0.10566000000E+00 0. -1.
         13    1    4    4    0    0  0.45848698330E+02 -0.47835022519E+02 -0.10653534127E+03  0.12545948597E+03  0.10566000000E+00 0.  1.
    9000005    1    3    3    0    0 -0.53602664657E+02  0.61140831367E+02  0.88970802894E+00  0.81321820559E+02  0.10000000000E+01 0.  0.
    9000005    1    3    3    0    0  0.48472375524E+02  0.93475065884E+01 -0.50442583904E+02  0.70586127102E+02  0.10000000000E+01 0.  0.
<mgrwt>
<rscale>  0 0.13554296E+03</rscale>
<asrwt>0</asrwt>
<pdfrwt beam="1">  1        2 0.10693808E-01 0.14359853E+03</pdfrwt>
<pdfrwt beam="2">  1       -2 0.42757092E-01 0.14359853E+03</pdfrwt>
<totfact> 0.29726080E+03</totfact>
</mgrwt>
</event>
<event>
 8    3  0.7944584E-004  0.2046602E+03  0.7818608E-02  0.1150055E+00
         -2   -1    0    0    0  501 -0.00000000000E+00  0.00000000000E+00  0.34139115464E+03  0.34139115465E+03  0.25500000000E-02 0.  1.
          2   -1    0    0  501    0  0.00000000000E+00 -0.00000000000E+00 -0.13446355936E+03  0.13446355939E+03  0.25500000000E-02 0. -1.
         25    2    1    2    0    0 -0.92547612284E+02 -0.13302307027E+03  0.20630862903E+03  0.29060118463E+03  0.12500240130E+03 0.  0.
         23    2    1    2    0    0  0.92547612284E+02  0.13302307027E+03  0.61896623863E+00  0.18525352940E+03  0.89767974658E+02 0.  0.
        -13    1    4    4    0    0  0.48973184543E+02  0.13282591050E+03 -0.22461927382E+01  0.14158443364E+03  0.10566000000E+00 0.  1.
         13    1    4    4    0    0  0.43574427741E+02  0.19715977444E+00  0.28651589768E+01  0.43669095765E+02  0.10566000000E+00 0. -1.
    9000005    1    3    3    0    0 -0.58487468033E+02 -0.14514952458E+03  0.19989857692E+03  0.25386927631E+03  0.10000000000E+01 0.  0.
    9000005    1    3    3    0    0 -0.34060144250E+02  0.12126454309E+02  0.64100521179E+01  0.36731908317E+02  0.10000000000E+01 0.  0.
<mgrwt>
<rscale>  0 0.19962552E+03</rscale>
<asrwt>0</asrwt>
<pdfrwt beam="2">  1        2 0.20686701E-01 0.20466020E+03</pdfrwt>
<pdfrwt beam="1">  1       -2 0.52521716E-01 0.20466020E+03</pdfrwt>
<totfact> 0.92385869E+02</totfact>
</mgrwt>
</event>
<event>
 8    3  0.7944584E-004  0.1273086E+03  0.7818608E-02  0.1245960E+00
          2   -1    0    0  501    0  0.00000000000E+00  0.00000000000E+00  0.89670857847E+03  0.89670857847E+03  0.25500000000E-02 0. -1.
         -2   -1    0    0    0  501 -0.00000000000E+00 -0.00000000000E+00 -0.17401773086E+02  0.17401773273E+02  0.25500000000E-02 0.  1.
         25    2    1    2    0    0  0.23975066145E+01 -0.24024660937E+02  0.28315183676E+03  0.31045521256E+03  0.12499817587E+03 0.  0.
         23    2    1    2    0    0 -0.23975066145E+01  0.24024660937E+02  0.59615496862E+03  0.60365513919E+03  0.91737931552E+02 0.  0.
        -13    1    4    4    0    0 -0.11995423203E+02  0.55232277894E+02  0.26891960826E+03  0.27479494459E+03  0.10566000000E+00 0.  1.
         13    1    4    4    0    0  0.95979165886E+01 -0.31207616958E+02  0.32723536036E+03  0.32886019460E+03  0.10566000000E+00 0. -1.
    9000005    1    3    3    0    0 -0.42077544684E+02 -0.56582230101E+02  0.18328168323E+03  0.19638035527E+03  0.10000000000E+01 0.  0.
    9000005    1    3    3    0    0  0.44475051299E+02  0.32557569165E+02  0.99870153535E+02  0.11407485729E+03  0.10000000000E+01 0.  0.
<mgrwt>
<rscale>  0 0.11828134E+03</rscale>
<asrwt>0</asrwt>
<pdfrwt beam="1">  1        2 0.13795515E+00 0.12730859E+03</pdfrwt>
<pdfrwt beam="2">  1       -2 0.26771962E-02 0.12730859E+03</pdfrwt>
<totfact> 0.14585133E+04</totfact>
</mgrwt>
</event>
<event>
 8    3  0.7944584E-004  0.1290988E+03  0.7818608E-02  0.1243286E+00
         -2   -1    0    0    0  501 -0.00000000000E+00  0.00000000000E+00  0.21029426801E+03  0.21029426803E+03  0.25500000000E-02 0.  1.
          2   -1    0    0  501    0  0.00000000000E+00 -0.00000000000E+00 -0.60314687461E+02  0.60314687514E+02  0.25500000000E-02 0. -1.
         25    2    1    2    0    0 -0.28794377675E+02 -0.14544004691E+02  0.90722804275E+02  0.15778826519E+03  0.12500346058E+03 0.  0.
         23    2    1    2    0    0  0.28794377675E+02  0.14544004691E+02  0.59256776276E+02  0.11282069035E+03  0.90423992274E+02 0.  0.
        -13    1    4    4    0    0 -0.31930866072E+02 -0.16744960646E+01  0.28554410371E+02  0.42868982503E+02  0.10566000000E+00 0. -1.
         13    1    4    4    0    0  0.60725243746E+02  0.16218500756E+02  0.30702365905E+02  0.69951707849E+02  0.10566000000E+00 0.  1.
    9000005    1    3    3    0    0  0.16969391055E+02 -0.29542888599E+02  0.10265284065E+03  0.10816352524E+03  0.10000000000E+01 0.  0.
    9000005    1    3    3    0    0 -0.45763768730E+02  0.14998883908E+02 -0.11930036375E+02  0.49624739946E+02  0.10000000000E+01 0.  0.
<mgrwt>
<rscale>  0 0.11988540E+03</rscale>
<asrwt>0</asrwt>
<pdfrwt beam="2">  1        2 0.92791827E-02 0.12909884E+03</pdfrwt>
<pdfrwt beam="1">  1       -2 0.32352964E-01 0.12909884E+03</pdfrwt>
<totfact> 0.59137685E+03</totfact>
</mgrwt>
</event>
<event>
 8    3  0.7944584E-004  0.1396164E+03  0.7818608E-02  0.1224844E+00
          2   -1    0    0  501    0  0.00000000000E+00  0.00000000000E+00  0.10456297319E+03  0.10456297322E+03  0.25500000000E-02 0. -1.
         -2   -1    0    0    0  501 -0.00000000000E+00 -0.00000000000E+00 -0.15170427790E+03  0.15170427792E+03  0.25500000000E-02 0.  1.
         25    2    1    2    0    0  0.61359687460E+02  0.10141565162E+02 -0.40018584069E+02  0.14523849677E+03  0.12499948513E+03 0.  0.
         23    2    1    2    0    0 -0.61359687460E+02 -0.10141565162E+02 -0.71227206393E+01  0.11102875438E+03  0.91699446893E+02 0.  0.
        -13    1    4    4    0    0 -0.12674340931E+01 -0.18894956848E+02  0.33138548143E+02  0.38168053664E+02  0.10566000000E+00 0. -1.
         13    1    4    4    0    0 -0.60092253367E+02  0.87533916854E+01 -0.40261268782E+02  0.72860700715E+02  0.10566000000E+00 0.  1.
    9000005    1    3    3    0    0  0.95248339169E+02  0.30166552285E+02 -0.24207112357E+02  0.10280686397E+03  0.10000000000E+01 0.  0.
    9000005    1    3    3    0    0 -0.33888651708E+02 -0.20024987122E+02 -0.15811471712E+02  0.42431632794E+02  0.10000000000E+01 0.  0.
<mgrwt>
<rscale>  0 0.13177629E+03</rscale>
<asrwt>0</asrwt>
<pdfrwt beam="1">  1        2 0.16086611E-01 0.13961638E+03</pdfrwt>
<pdfrwt beam="2">  1       -2 0.23339119E-01 0.13961638E+03</pdfrwt>
<totfact> 0.54859272E+03</totfact>
</mgrwt>
</event>
<event>
 8    3  0.7944584E-004  0.1263676E+03  0.7818608E-02  0.1258406E+00
          2   -1    0    0  501    0  0.00000000000E+00  0.00000000000E+00  0.16018326852E+04  0.16018326852E+04  0.25500000000E-02 0. -1.
         -2   -1    0    0    0  501 -0.00000000000E+00 -0.00000000000E+00 -0.84673652741E+01  0.84673656580E+01  0.25500000000E-02 0.  1.
         25    2    1    2    0    0  0.14155690077E+02 -0.12026263339E+02  0.55617881453E+03  0.57035396361E+03  0.12499502188E+03 0.  0.
         23    2    1    2    0    0 -0.14155690077E+02  0.12026263339E+02  0.10371865054E+04  0.10399460872E+04  0.73396204626E+02 0.  0.
        -13    1    4    4    0    0  0.10593224807E+02 -0.27050753622E+02  0.34914945566E+03  0.35035598073E+03  0.10566000000E+00 0.  1.
         13    1    4    4    0    0 -0.24748914884E+02  0.39077016961E+02  0.68803704971E+03  0.68959010650E+03  0.10566000000E+00 0. -1.
    9000005    1    3    3    0    0  0.38853027513E+02  0.18161410421E+02  0.50067237813E+03  0.50250694005E+03  0.10000000000E+01 0.  0.
    9000005    1    3    3    0    0 -0.24697337436E+02 -0.30187673760E+02  0.55506436405E+02  0.67847023560E+02  0.10000000000E+01 0.  0.
<mgrwt>
<rscale>  0 0.11117707E+03</rscale>
<asrwt>0</asrwt>
<pdfrwt beam="1">  1        2 0.24643536E+00 0.12636760E+03</pdfrwt>
<pdfrwt beam="2">  1       -2 0.13026739E-02 0.12636760E+03</pdfrwt>
<totfact> 0.16846181E+04</totfact>
</mgrwt>
</event>
<event>
 8    3  0.7944584E-004  0.1324383E+03  0.7818608E-02  0.1235815E+00
         -2   -1    0    0    0  501 -0.00000000000E+00  0.00000000000E+00  0.86940527416E+01  0.86940531156E+01  0.25500000000E-02 0.  1.
          2   -1    0    0  501    0  0.00000000000E+00 -0.00000000000E+00 -0.16233851705E+04  0.16233851705E+04  0.25500000000E-02 0. -1.
         25    2    1    2    0    0 -0.25482892260E+02 -0.35573529423E+02 -0.80945048071E+03  0.82021337257E+03  0.12500016810E+03 0.  0.
         23    2    1    2    0    0  0.25482892260E+02  0.35573529423E+02 -0.80524063708E+03  0.81186585108E+03  0.93802040235E+02 0.  0.
        -13    1    4    4    0    0 -0.33918103172E+02  0.65377097664E+01 -0.19313983491E+03  0.19620445042E+03  0.10566000000E+00 0.  1.
         13    1    4    4    0    0  0.59400995431E+02  0.29035819656E+02 -0.61210080217E+03  0.61566140066E+03  0.10566000000E+00 0. -1.
    9000005    1    3    3    0    0  0.50076658221E+02 -0.46085114656E+01 -0.27547792606E+03  0.28003213712E+03  0.10000000000E+01 0.  0.
    9000005    1    3    3    0    0 -0.75559550481E+02 -0.30965017957E+02 -0.53397255466E+03  0.54018123545E+03  0.10000000000E+01 0.  0.
<mgrwt>
<rscale>  0 0.12452382E+03</rscale>
<asrwt>0</asrwt>
<pdfrwt beam="2">  1        2 0.24975132E+00 0.13243827E+03</pdfrwt>
<pdfrwt beam="1">  1       -2 0.13375479E-02 0.13243827E+03</pdfrwt>
<totfact> 0.15850222E+04</totfact>
</mgrwt>
</event>
<event>
 8    3  0.7944584E-004  0.1445893E+03  0.7818608E-02  0.1219242E+00
         -2   -1    0    0    0  501 -0.00000000000E+00  0.00000000000E+00  0.45886167040E+02  0.45886167111E+02  0.25500000000E-02 0.  1.
          2   -1    0    0  501    0  0.00000000000E+00 -0.00000000000E+00 -0.35915341881E+03  0.35915341882E+03  0.25500000000E-02 0. -1.
         25    2    1    2    0    0 -0.39619267394E+02 -0.60960338440E+02 -0.17648894472E+03  0.22815438503E+03  0.12498090491E+03 0.  0.
         23    2    1    2    0    0  0.39619267394E+02  0.60960338440E+02 -0.13677830705E+03  0.17688520090E+03  0.85406204720E+02 0.  0.
        -13    1    4    4    0    0  0.25389308523E+02  0.90535352956E+01 -0.11616394206E+03  0.11925039240E+03  0.10566000000E+00 0. -1.
         13    1    4    4    0    0  0.14229958871E+02  0.51906803144E+02 -0.20614364990E+02  0.57634808493E+02  0.10566000000E+00 0.  1.
    9000005    1    3    3    0    0  0.93377965625E+01 -0.16408204356E+02 -0.15840199693E+03  0.15952622432E+03  0.10000000000E+01 0.  0.
    9000005    1    3    3    0    0 -0.48957063956E+02 -0.44552134084E+02 -0.18086947789E+02  0.68628160714E+02  0.10000000000E+01 0.  0.
<mgrwt>
<rscale>  0 0.13569460E+03</rscale>
<asrwt>0</asrwt>
<pdfrwt beam="2">  1        2 0.55254371E-01 0.14458934E+03</pdfrwt>
<pdfrwt beam="1">  1       -2 0.70594105E-02 0.14458934E+03</pdfrwt>
<totfact> 0.98439952E+03</totfact>
</mgrwt>
</event>
<event>
 8    3  0.7944584E-004  0.1332960E+03  0.7818608E-02  0.1229692E+00
         -2   -1    0    0    0  501 -0.00000000000E+00  0.00000000000E+00  0.25785362088E+02  0.25785362214E+02  0.25500000000E-02 0. -1.
          2   -1    0    0  501    0  0.00000000000E+00 -0.00000000000E+00 -0.74598485003E+03  0.74598485004E+03  0.25500000000E-02 0.  1.
         25    2    1    2    0    0  0.44541703607E+02 -0.12630101127E+02 -0.55247967371E+03  0.56833230821E+03  0.12499735947E+03 0.  0.
         23    2    1    2    0    0 -0.44541703607E+02  0.12630101127E+02 -0.16771981423E+03  0.20343790404E+03  0.10542087981E+03 0.  0.
        -13    1    4    4    0    0 -0.59555294035E+02  0.33501729514E+02 -0.16373337095E+03  0.17741991674E+03  0.10566000000E+00 0.  1.
         13    1    4    4    0    0  0.15013590428E+02 -0.20871628387E+02 -0.39864432766E+01  0.26017987300E+02  0.10566000000E+00 0. -1.
    9000005    1    3    3    0    0 -0.17940093260E+02  0.44777032201E+02 -0.21515564878E+03  0.22049894050E+03  0.10000000000E+01 0.  0.
    9000005    1    3    3    0    0  0.62481796866E+02 -0.57407133328E+02 -0.33732402493E+03  0.34783336771E+03  0.10000000000E+01 0.  0.
<mgrwt>
<rscale>  0 0.12850460E+03</rscale>
<asrwt>0</asrwt>
<pdfrwt beam="2">  1        2 0.11476688E+00 0.13329600E+03</pdfrwt>
<pdfrwt beam="1">  1       -2 0.39669794E-02 0.13329600E+03</pdfrwt>
<totfact> 0.10325584E+04</totfact>
</mgrwt>
</event>
<event>
 8    3  0.7944584E-004  0.1300772E+03  0.7818608E-02  0.1241421E+00
         -2   -1    0    0    0  501 -0.00000000000E+00  0.00000000000E+00  0.39042224236E+03  0.39042224237E+03  0.25500000000E-02 0.  1.
          2   -1    0    0  501    0  0.00000000000E+00 -0.00000000000E+00 -0.46720487628E+02  0.46720487697E+02  0.25500000000E-02 0. -1.
         25    2    1    2    0    0 -0.25195563543E+02  0.25681391906E+02  0.72407266629E+02  0.14887207047E+03  0.12500292314E+03 0.  0.
         23    2    1    2    0    0  0.25195563543E+02 -0.25681391906E+02  0.27129448811E+03  0.28827065960E+03  0.90581033316E+02 0.  0.
        -13    1    4    4    0    0  0.13436419843E+02 -0.15230353240E+02  0.27177297320E+03  0.27253084442E+03  0.10566000000E+00 0.  1.
         13    1    4    4    0    0  0.11759143700E+02 -0.10451038666E+02 -0.47848509048E+00  0.15739815176E+02  0.10566000000E+00 0. -1.
    9000005    1    3    3    0    0 -0.18548081036E+02 -0.47921020762E+02  0.10489330577E+02  0.52454566979E+02  0.10000000000E+01 0.  0.
    9000005    1    3    3    0    0 -0.66474825066E+01  0.73602412669E+02  0.61917936052E+02  0.96417503490E+02  0.10000000000E+01 0.  0.
<mgrwt>
<rscale>  0 0.12102141E+03</rscale>
<asrwt>0</asrwt>
<pdfrwt beam="2">  1        2 0.71877674E-02 0.13007721E+03</pdfrwt>
<pdfrwt beam="1">  1       -2 0.60064960E-01 0.13007721E+03</pdfrwt>
<totfact> 0.24678706E+03</totfact>
</mgrwt>
</event>
<event>
 8    3  0.7944584E-004  0.1655341E+03  0.7818608E-02  0.1189555E+00
         -2   -1    0    0    0  501 -0.00000000000E+00  0.00000000000E+00  0.10619037088E+02  0.10619037395E+02  0.25500000000E-02 0.  1.
          2   -1    0    0  501    0  0.00000000000E+00 -0.00000000000E+00 -0.28813943345E+04  0.28813943345E+04  0.25500000000E-02 0. -1.
         25    2    1    2    0    0 -0.81895071352E+02 -0.71202893950E+02 -0.83154304838E+03  0.84785929548E+03  0.12499955519E+03 0.  0.
         23    2    1    2    0    0  0.81895071352E+02  0.71202893950E+02 -0.20392322490E+04  0.20441540764E+04  0.91219887276E+02 0.  0.
        -13    1    4    4    0    0  0.66214626856E+02  0.18180644851E+02 -0.15974587533E+04  0.15989338299E+04  0.10566000000E+00 0. -1.
         13    1    4    4    0    0  0.15680444496E+02  0.53022249099E+02 -0.44177349570E+03  0.44522024651E+03  0.10566000000E+00 0.  1.
    9000005    1    3    3    0    0 -0.10699528990E+03 -0.21953293001E+02 -0.59483308088E+03  0.60477874734E+03  0.10000000000E+01 0.  0.
    9000005    1    3    3    0    0  0.25100218545E+02 -0.49249600949E+02 -0.23670996751E+03  0.24308054814E+03  0.10000000000E+01 0.  0.
<mgrwt>
<rscale>  0 0.15924250E+03</rscale>
<asrwt>0</asrwt>
<pdfrwt beam="2">  1        2 0.44329081E+00 0.16553412E+03</pdfrwt>
<pdfrwt beam="1">  1       -2 0.16337003E-02 0.16553412E+03</pdfrwt>
<totfact> 0.25773121E+03</totfact>
</mgrwt>
</event>
<event>
 8    3  0.7944584E-004  0.2282750E+03  0.7818608E-02  0.1130269E+00
          2   -1    0    0  501    0  0.00000000000E+00  0.00000000000E+00  0.16490218793E+04  0.16490218793E+04  0.25500000000E-02 0.  1.
         -2   -1    0    0    0  501 -0.00000000000E+00 -0.00000000000E+00 -0.43295011135E+02  0.43295011210E+02  0.25500000000E-02 0. -1.
         25    2    1    2    0    0 -0.12624279795E+03 -0.14334336876E+03  0.34710989603E+03  0.41544524005E+03  0.12499960864E+03 0.  0.
         23    2    1    2    0    0  0.12624279795E+03  0.14334336876E+03  0.12586169721E+04  0.12768716504E+04  0.98994766555E+02 0.  0.
        -13    1    4    4    0    0  0.91393742440E+02  0.55509293631E+02  0.43945158413E+03  0.45227403617E+03  0.10566000000E+00 0.  1.
         13    1    4    4    0    0  0.34849055506E+02  0.87834075125E+02  0.81916538797E+03  0.82459761425E+03  0.10566000000E+00 0. -1.
    9000005    1    3    3    0    0  0.12535557943E+02 -0.26809591280E+02  0.75594471653E+01  0.30562062087E+02  0.10000000000E+01 0.  0.
    9000005    1    3    3    0    0 -0.13877835589E+03 -0.11653377748E+03  0.33955044887E+03  0.38488317797E+03  0.10000000000E+01 0.  0.
<mgrwt>
<rscale>  0 0.22491749E+03</rscale>
<asrwt>0</asrwt>
<pdfrwt beam="1">  1        2 0.25369563E+00 0.22827498E+03</pdfrwt>
<pdfrwt beam="2">  1       -2 0.66607722E-02 0.22827498E+03</pdfrwt>
<totfact> 0.14357432E+03</totfact>
</mgrwt>
</event>
<event>
 8    3  0.7944584E-004  0.1320266E+03  0.7818608E-02  0.1236993E+00
         -2   -1    0    0    0  501 -0.00000000000E+00  0.00000000000E+00  0.12578031291E+02  0.12578031550E+02  0.25500000000E-02 0.  1.
          2   -1    0    0  501    0  0.00000000000E+00 -0.00000000000E+00 -0.10897944098E+04  0.10897944098E+04  0.25500000000E-02 0. -1.
         25    2    1    2    0    0 -0.41008201041E+02 -0.11198935324E+02 -0.62633736335E+03  0.64010117591E+03  0.12499573581E+03 0.  0.
         23    2    1    2    0    0  0.41008201041E+02  0.11198935324E+02 -0.45087901520E+03  0.46227126548E+03  0.92713255990E+02 0.  0.
        -13    1    4    4    0    0  0.37792239747E+02 -0.18250357033E+02 -0.81175398886E+02  0.91382632186E+02  0.10566000000E+00 0.  1.
         13    1    4    4    0    0  0.32159612943E+01  0.29449292357E+02 -0.36970361632E+03  0.37088863330E+03  0.10566000000E+00 0. -1.
    9000005    1    3    3    0    0  0.10164104582E+02  0.50141496810E+02 -0.20781808614E+03  0.21402531544E+03  0.10000000000E+01 0.  0.
    9000005    1    3    3    0    0 -0.51172305623E+02 -0.61340432134E+02 -0.41851927721E+03  0.42607586047E+03  0.10000000000E+01 0.  0.
<mgrwt>
<rscale>  0 0.12377703E+03</rscale>
<asrwt>0</asrwt>
<pdfrwt beam="2">  1        2 0.16766060E+00 0.13202660E+03</pdfrwt>
<pdfrwt beam="1">  1       -2 0.19350826E-02 0.13202660E+03</pdfrwt>
<totfact> 0.17966548E+04</totfact>
</mgrwt>
</event>
<event>
 8    3  0.7944584E-004  0.1252774E+03  0.7818608E-02  0.1248719E+00
         -2   -1    0    0    0  501 -0.00000000000E+00  0.00000000000E+00  0.22135657906E+02  0.22135658053E+02  0.25500000000E-02 0.  1.
          2   -1    0    0  501    0  0.00000000000E+00 -0.00000000000E+00 -0.25260704387E+04  0.25260704387E+04  0.25500000000E-02 0. -1.
         25    2    1    2    0    0  0.74618723524E+01 -0.40529092661E+01 -0.24163249458E+04  0.24195703487E+04  0.12498929085E+03 0.  0.
         23    2    1    2    0    0 -0.74618723524E+01  0.40529092661E+01 -0.87609834991E+02  0.12863574809E+03  0.93806006665E+02 0.  0.
        -13    1    4    4    0    0 -0.61881926700E+01  0.53528408424E+01  0.19688863258E+02  0.21321564999E+02  0.10566000000E+00 0.  1.
         13    1    4    4    0    0 -0.12736796824E+01 -0.12999315763E+01 -0.10729869825E+03  0.10731418309E+03  0.10566000000E+00 0. -1.
    9000005    1    3    3    0    0 -0.57389497329E+02  0.11589315471E+02 -0.11366402282E+04  0.11381475630E+04  0.10000000000E+01 0.  0.
    9000005    1    3    3    0    0  0.64851369681E+02 -0.15642224737E+02 -0.12796847176E+04  0.12814227857E+04  0.10000000000E+01 0.  0.
<mgrwt>
<rscale>  0 0.11665551E+03</rscale>
<asrwt>0</asrwt>
<pdfrwt beam="2">  1        2 0.38862599E+00 0.12527741E+03</pdfrwt>
<pdfrwt beam="1">  1       -2 0.34054878E-02 0.12527741E+03</pdfrwt>
<totfact> 0.13927992E+03</totfact>
</mgrwt>
</event>
<event>
 8    3  0.7944584E-004  0.1530525E+03  0.7818608E-02  0.1206003E+00
          2   -1    0    0  501    0  0.00000000000E+00  0.00000000000E+00  0.19498553202E+03  0.19498553203E+03  0.25500000000E-02 0. -1.
         -2   -1    0    0    0  501 -0.00000000000E+00 -0.00000000000E+00 -0.10012168466E+03  0.10012168469E+03  0.25500000000E-02 0.  1.
         25    2    1    2    0    0 -0.73337467328E+02 -0.49223215360E+02  0.65053586638E+02  0.16630401498E+03  0.12499498878E+03 0.  0.
         23    2    1    2    0    0  0.73337467328E+02  0.49223215360E+02  0.29810260724E+02  0.12880320174E+03  0.88883654793E+02 0.  0.
        -13    1    4    4    0    0  0.12728166215E+02  0.56969272237E+02 -0.48148590902E+01  0.58572162556E+02  0.10566000000E+00 0.  1.
         13    1    4    4    0    0  0.60609301113E+02 -0.77460568771E+01  0.34625119814E+02  0.70231039183E+02  0.10566000000E+00 0. -1.
    9000005    1    3    3    0    0 -0.77076977801E+02 -0.80668239244E+02  0.73382901818E+02  0.13354503214E+03  0.10000000000E+01 0.  0.
    9000005    1    3    3    0    0  0.37395104730E+01  0.31445023884E+02 -0.83293151797E+01  0.32758982845E+02  0.10000000000E+01 0.  0.
<mgrwt>
<rscale>  0 0.14558723E+03</rscale>
<asrwt>0</asrwt>
<pdfrwt beam="1">  1        2 0.29997774E-01 0.15305246E+03</pdfrwt>
<pdfrwt beam="2">  1       -2 0.15403336E-01 0.15305246E+03</pdfrwt>
<totfact> 0.55215747E+03</totfact>
</mgrwt>
</event>
<event>
 8    3  0.7944584E-004  0.2224425E+03  0.7818608E-02  0.1135393E+00
         -2   -1    0    0    0  501 -0.00000000000E+00  0.00000000000E+00  0.12493933130E+02  0.12493933390E+02  0.25500000000E-02 0.  1.
          2   -1    0    0  501    0  0.00000000000E+00 -0.00000000000E+00 -0.43993333166E+04  0.43993333166E+04  0.25500000000E-02 0. -1.
         25    2    1    2    0    0  0.18114808188E+03 -0.32259616993E+02 -0.31718400044E+04  0.31796304321E+04  0.12500144316E+03 0.  0.
         23    2    1    2    0    0 -0.18114808188E+03  0.32259616993E+02 -0.12149993791E+04  0.12321968180E+04  0.90720429959E+02 0.  0.
        -13    1    4    4    0    0 -0.94554598483E+02 -0.25776024902E+02 -0.48611700816E+03  0.49589790516E+03  0.10566000000E+00 0.  1.
         13    1    4    4    0    0 -0.86593483400E+02  0.58035641895E+02 -0.72888237097E+03  0.73629891279E+03  0.10566000000E+00 0. -1.
    9000005    1    3    3    0    0  0.14976392415E+03 -0.74682327693E+02 -0.25901222621E+04  0.25955232643E+04  0.10000000000E+01 0.  0.
    9000005    1    3    3    0    0  0.31384157733E+02  0.42422710700E+02 -0.58171774229E+03  0.58410716777E+03  0.10000000000E+01 0.  0.
<mgrwt>
<rscale>  0 0.21798666E+03</rscale>
<asrwt>0</asrwt>
<pdfrwt beam="2">  1        2 0.67681928E+00 0.22244251E+03</pdfrwt>
<pdfrwt beam="1">  1       -2 0.19221471E-02 0.22244251E+03</pdfrwt>
<totfact> 0.17566648E+02</totfact>
</mgrwt>
</event>
<event>
 8    3  0.7944584E-004  0.2001204E+03  0.7818608E-02  0.1154120E+00
          2   -1    0    0  501    0  0.00000000000E+00  0.00000000000E+00  0.14931774097E+04  0.14931774097E+04  0.25500000000E-02 0.  1.
         -2   -1    0    0    0  501 -0.00000000000E+00 -0.00000000000E+00 -0.24368808883E+02  0.24368809017E+02  0.25500000000E-02 0. -1.
         25    2    1    2    0    0 -0.17177447112E+02  0.15533409365E+03  0.83710476631E+03  0.86069306539E+03  0.12499767070E+03 0.  0.
         23    2    1    2    0    0  0.17177447112E+02 -0.15533409365E+03  0.63170383455E+03  0.65685315338E+03  0.89345314254E+02 0.  0.
        -13    1    4    4    0    0 -0.28823531671E+02 -0.11567910433E+03  0.42693191790E+03  0.44326439609E+03  0.10566000000E+00 0.  1.
         13    1    4    4    0    0  0.46000978783E+02 -0.39654989320E+02  0.20477191665E+03  0.21358875729E+03  0.10566000000E+00 0. -1.
    9000005    1    3    3    0    0  0.38799441733E+02  0.62055742352E+01  0.12709090759E+03  0.13303008916E+03  0.10000000000E+01 0.  0.
    9000005    1    3    3    0    0 -0.55976888845E+02  0.14912851942E+03  0.71001385872E+03  0.72766297623E+03  0.10000000000E+01 0.  0.
<mgrwt>
<rscale>  0 0.19489343E+03</rscale>
<asrwt>0</asrwt>
<pdfrwt beam="1">  1        2 0.22971965E+00 0.20012037E+03</pdfrwt>
<pdfrwt beam="2">  1       -2 0.37490468E-02 0.20012037E+03</pdfrwt>
<totfact> 0.41534969E+03</totfact>
</mgrwt>
</event>
<event>
 8    3  0.7944584E-004  0.1309220E+03  0.7818608E-02  0.1240199E+00
         -2   -1    0    0    0  501 -0.00000000000E+00  0.00000000000E+00  0.18133812355E+02  0.18133812534E+02  0.25500000000E-02 0.  1.
          2   -1    0    0  501    0  0.00000000000E+00 -0.00000000000E+00 -0.15586220613E+04  0.15586220613E+04  0.25500000000E-02 0. -1.
         25    2    1    2    0    0 -0.20957823028E+02 -0.32803790663E+02 -0.24692245867E+03  0.27948392167E+03  0.12500097139E+03 0.  0.
         23    2    1    2    0    0  0.20957823028E+02  0.32803790663E+02 -0.12935657903E+04  0.12972719522E+04  0.89926331400E+02 0.  0.
        -13    1    4    4    0    0  0.24382534245E+02 -0.19222316697E+02 -0.19383961792E+03  0.19631050424E+03  0.10566000000E+00 0.  1.
         13    1    4    4    0    0 -0.34247112165E+01  0.52026107360E+02 -0.10997261723E+04  0.11009614479E+04  0.10566000000E+00 0. -1.
    9000005    1    3    3    0    0 -0.68983924151E+02 -0.29558796882E+02 -0.19360714855E+03  0.20764689315E+03  0.10000000000E+01 0.  0.
    9000005    1    3    3    0    0  0.48026101122E+02 -0.32449937811E+01 -0.53315310118E+02  0.71837028520E+02  0.10000000000E+01 0.  0.
<mgrwt>
<rscale>  0 0.12177411E+03</rscale>
<asrwt>0</asrwt>
<pdfrwt beam="2">  1        2 0.23978790E+00 0.13092197E+03</pdfrwt>
<pdfrwt beam="1">  1       -2 0.27898185E-02 0.13092197E+03</pdfrwt>
<totfact> 0.58922775E+03</totfact>
</mgrwt>
</event>
<event>
 8    3  0.7944584E-004  0.1385178E+03  0.7818608E-02  0.1227275E+00
          2   -1    0    0  501    0  0.00000000000E+00  0.00000000000E+00  0.48377194018E+03  0.48377194019E+03  0.25500000000E-02 0. -1.
         -2   -1    0    0    0  501 -0.00000000000E+00 -0.00000000000E+00 -0.38292300515E+02  0.38292300599E+02  0.25500000000E-02 0.  1.
         25    2    1    2    0    0 -0.23419477481E+01 -0.59642230083E+02  0.35571326014E+03  0.38173172709E+03  0.12499803078E+03 0.  0.
         23    2    1    2    0    0  0.23419477481E+01  0.59642230083E+02  0.89766379524E+02  0.14033251369E+03  0.89847265837E+02 0.  0.
        -13    1    4    4    0    0 -0.12400612846E+02 -0.11374440908E+02  0.59337350439E+02  0.61677268309E+02  0.10566000000E+00 0. -1.
         13    1    4    4    0    0  0.14742560595E+02  0.71016670990E+02  0.30429029085E+02  0.78655245385E+02  0.10566000000E+00 0.  1.
    9000005    1    3    3    0    0  0.26454376989E+02 -0.76076958195E+02  0.12540431636E+03  0.14904623508E+03  0.10000000000E+01 0.  0.
    9000005    1    3    3    0    0 -0.28796324737E+02  0.16434728113E+02  0.23030894378E+03  0.23268549201E+03  0.10000000000E+01 0.  0.
<mgrwt>
<rscale>  0 0.13012209E+03</rscale>
<asrwt>0</asrwt>
<pdfrwt beam="1">  1        2 0.74426456E-01 0.13851783E+03</pdfrwt>
<pdfrwt beam="2">  1       -2 0.58911229E-02 0.13851783E+03</pdfrwt>
<totfact> 0.93859854E+03</totfact>
</mgrwt>
</event>
<event>
 8    3  0.7944584E-004  0.2370437E+03  0.7818608E-02  0.1124656E+00
          2   -1    0    0  501    0  0.00000000000E+00  0.00000000000E+00  0.21011383603E+03  0.21011383605E+03  0.25500000000E-02 0. -1.
         -2   -1    0    0    0  501 -0.00000000000E+00 -0.00000000000E+00 -0.26453925690E+03  0.26453925691E+03  0.25500000000E-02 0.  1.
         25    2    1    2    0    0 -0.95802369107E+02 -0.17716695222E+03  0.28841931693E+02  0.23879191060E+03  0.12499398649E+03 0.  0.
         23    2    1    2    0    0  0.95802369107E+02  0.17716695222E+03 -0.83267352561E+02  0.23586118236E+03  0.90171073266E+02 0.  0.
        -13    1    4    4    0    0  0.68897220410E+02  0.59617793775E+02 -0.69289809069E+02  0.11446482918E+03  0.10566000000E+00 0.  1.
         13    1    4    4    0    0  0.26905148698E+02  0.11754915845E+03 -0.13977543492E+02  0.12139635317E+03  0.10566000000E+00 0. -1.
    9000005    1    3    3    0    0 -0.82048520792E+02 -0.11981685742E+03  0.75416765242E+02  0.16363596049E+03  0.10000000000E+01 0.  0.
    9000005    1    3    3    0    0 -0.13753848315E+02 -0.57350094800E+02 -0.46574833549E+02  0.75155950112E+02  0.10000000000E+01 0.  0.
<mgrwt>
<rscale>  0 0.23284084E+03</rscale>
<asrwt>0</asrwt>
<pdfrwt beam="1">  1        2 0.32325206E-01 0.23704371E+03</pdfrwt>
<pdfrwt beam="2">  1       -2 0.40698347E-01 0.23704371E+03</pdfrwt>
<totfact> 0.92956355E+02</totfact>
</mgrwt>
</event>
<event>
 8    3  0.7944584E-004  0.2361052E+03  0.7818608E-02  0.1123390E+00
         -2   -1    0    0    0  501 -0.00000000000E+00  0.00000000000E+00  0.69801855013E+02  0.69801855060E+02  0.25500000000E-02 0.  1.
          2   -1    0    0  501    0  0.00000000000E+00 -0.00000000000E+00 -0.82004272929E+03  0.82004272930E+03  0.25500000000E-02 0. -1.
         25    2    1    2    0    0  0.12131973939E+03  0.15938125315E+03 -0.28064390008E+03  0.36675148583E+03  0.12499916274E+03 0.  0.
         23    2    1    2    0    0 -0.12131973939E+03 -0.15938125315E+03 -0.46959697420E+03  0.52309309853E+03  0.11394827128E+03 0.  0.
        -13    1    4    4    0    0 -0.53689540397E+02 -0.43796663677E+02 -0.58325672618E+02  0.90568260156E+02  0.10566000000E+00 0.  1.
         13    1    4    4    0    0 -0.67630198996E+02 -0.11558458947E+03 -0.41127130158E+03  0.43252483837E+03  0.10566000000E+00 0. -1.
    9000005    1    3    3    0    0 -0.19820068217E+02  0.42523348348E+02 -0.94713373966E+02  0.10570096247E+03  0.10000000000E+01 0.  0.
    9000005    1    3    3    0    0  0.14113980761E+03  0.11685790480E+03 -0.18593052612E+03  0.26105052336E+03  0.10000000000E+01 0.  0.
<mgrwt>
<rscale>  0 0.23467733E+03</rscale>
<asrwt>0</asrwt>
<pdfrwt beam="2">  1        2 0.12616041E+00 0.23610518E+03</pdfrwt>
<pdfrwt beam="1">  1       -2 0.10738748E-01 0.23610518E+03</pdfrwt>
<totfact> 0.20281721E+03</totfact>
</mgrwt>
</event>
<event>
 8    3  0.7944584E-004  0.2680160E+03  0.7818608E-02  0.1104704E+00
          2   -1    0    0  501    0  0.00000000000E+00  0.00000000000E+00  0.17329026484E+04  0.17329026484E+04  0.25500000000E-02 0. -1.
         -2   -1    0    0    0  501 -0.00000000000E+00 -0.00000000000E+00 -0.43230983701E+02  0.43230983776E+02  0.25500000000E-02 0.  1.
         25    2    1    2    0    0  0.97458595464E+02  0.21612657780E+03  0.11411979462E+04  0.11722479741E+04  0.12499473915E+03 0.  0.
         23    2    1    2    0    0 -0.97458595464E+02 -0.21612657780E+03  0.54847371847E+03  0.60388565809E+03  0.87439080118E+02 0.  0.
        -13    1    4    4    0    0 -0.50831539040E+02 -0.49663989033E+02  0.95454397510E+02  0.11900382488E+03  0.10566000000E+00 0.  1.
         13    1    4    4    0    0 -0.46627056425E+02 -0.16646258877E+03  0.45301932096E+03  0.48488183321E+03  0.10566000000E+00 0. -1.
    9000005    1    3    3    0    0  0.10763103382E+03  0.10552144788E+03  0.77710331942E+03  0.79158687739E+03  0.10000000000E+01 0.  0.
    9000005    1    3    3    0    0 -0.10172438360E+02  0.11060512992E+03  0.36409462681E+03  0.38066109670E+03  0.10000000000E+01 0.  0.
<mgrwt>
<rscale>  0 0.26410062E+03</rscale>
<asrwt>0</asrwt>
<pdfrwt beam="1">  1        2 0.26660042E+00 0.26801597E+03</pdfrwt>
<pdfrwt beam="2">  1       -2 0.66509203E-02 0.26801597E+03</pdfrwt>
<totfact> 0.12962102E+03</totfact>
</mgrwt>
</event>
<event>
 8    3  0.7944584E-004  0.1901567E+03  0.7818608E-02  0.1162884E+00
         -2   -1    0    0    0  501 -0.00000000000E+00  0.00000000000E+00  0.38716360688E+02  0.38716360772E+02  0.25500000000E-02 0.  1.
          2   -1    0    0  501    0  0.00000000000E+00 -0.00000000000E+00 -0.91807714884E+03  0.91807714884E+03  0.25500000000E-02 0. -1.
         25    2    1    2    0    0 -0.51398604159E+02 -0.13377071827E+03 -0.32378578795E+03  0.37549542901E+03  0.12499263638E+03 0.  0.
         23    2    1    2    0    0  0.51398604159E+02  0.13377071827E+03 -0.55557500020E+03  0.58129808061E+03  0.93313750849E+02 0.  0.
        -13    1    4    4    0    0  0.24409214844E+02 -0.85064115594E+01 -0.71676856094E+02  0.76195483268E+02  0.10566000000E+00 0.  1.
         13    1    4    4    0    0  0.26989389315E+02  0.14227712983E+03 -0.48389814410E+03  0.50510259734E+03  0.10566000000E+00 0. -1.
    9000005    1    3    3    0    0 -0.10258283706E+02 -0.35252574429E+02 -0.23142763023E+03  0.23432397322E+03  0.10000000000E+01 0.  0.
    9000005    1    3    3    0    0 -0.41140320452E+02 -0.98518143840E+02 -0.92358157718E+02  0.14117145579E+03  0.10000000000E+01 0.  0.
<mgrwt>
<rscale>  0 0.18517747E+03</rscale>
<asrwt>0</asrwt>
<pdfrwt beam="2">  1        2 0.14124262E+00 0.19015673E+03</pdfrwt>
<pdfrwt beam="1">  1       -2 0.59563639E-02 0.19015673E+03</pdfrwt>
<totfact> 0.43724468E+03</totfact>
</mgrwt>
</event>
<event>
 8    3  0.7944584E-004  0.1315564E+03  0.7818608E-02  0.1240096E+00
         -2   -1    0    0    0  501 -0.00000000000E+00  0.00000000000E+00  0.10930918795E+02  0.10930919092E+02  0.25500000000E-02 0.  1.
          2   -1    0    0  501    0  0.00000000000E+00 -0.00000000000E+00 -0.11944481190E+04  0.11944481190E+04  0.25500000000E-02 0. -1.
         25    2    1    2    0    0  0.17794511390E+02 -0.36954427299E+02 -0.65726869878E+03  0.67030532355E+03  0.12499924021E+03 0.  0.
         23    2    1    2    0    0 -0.17794511390E+02  0.36954427299E+02 -0.52624850145E+03  0.53507371457E+03  0.87659114816E+02 0.  0.
        -13    1    4    4    0    0 -0.19529762796E+02 -0.26079694923E+02 -0.22010587026E+03  0.22250430875E+03  0.10566000000E+00 0. -1.
         13    1    4    4    0    0  0.17352514063E+01  0.63034122222E+02 -0.30614263119E+03  0.31256940582E+03  0.10566000000E+00 0.  1.
    9000005    1    3    3    0    0  0.41908790199E+02  0.35395462294E+02 -0.24887331347E+03  0.25484919385E+03  0.10000000000E+01 0.  0.
    9000005    1    3    3    0    0 -0.24114278809E+02 -0.72349889593E+02 -0.40839538530E+03  0.41545612970E+03  0.10000000000E+01 0.  0.
<mgrwt>
<rscale>  0 0.12183737E+03</rscale>
<asrwt>0</asrwt>
<pdfrwt beam="2">  1        2 0.18376115E+00 0.13155639E+03</pdfrwt>
<pdfrwt beam="1">  1       -2 0.16816808E-02 0.13155639E+03</pdfrwt>
<totfact> 0.19213737E+04</totfact>
</mgrwt>
</event>
<event>
 8    3  0.7944584E-004  0.1897421E+03  0.7818608E-02  0.1163598E+00
         -2   -1    0    0    0  501 -0.00000000000E+00  0.00000000000E+00  0.12510685489E+02  0.12510685749E+02  0.25500000000E-02 0.  1.
          2   -1    0    0  501    0  0.00000000000E+00 -0.00000000000E+00 -0.26049977259E+04  0.26049977259E+04  0.25500000000E-02 0. -1.
         25    2    1    2    0    0  0.13478819010E+03 -0.47002684015E+02 -0.12317990481E+04  0.12463269805E+04  0.12499975659E+03 0.  0.
         23    2    1    2    0    0 -0.13478819010E+03  0.47002684015E+02 -0.13606879923E+04  0.13711814311E+04  0.91047218369E+02 0.  0.
        -13    1    4    4    0    0 -0.55635655027E+02  0.66854753762E+02 -0.63819267699E+03  0.64409222037E+03  0.10566000000E+00 0. -1.
         13    1    4    4    0    0 -0.79152535073E+02 -0.19852069747E+02 -0.72249531533E+03  0.72708921070E+03  0.10566000000E+00 0.  1.
    9000005    1    3    3    0    0  0.36827798033E+02 -0.13457288284E+02 -0.72646469238E+02  0.82558432693E+02  0.10000000000E+01 0.  0.
    9000005    1    3    3    0    0  0.97960392066E+02 -0.33545395731E+02 -0.11591525788E+04  0.11637685478E+04  0.10000000000E+01 0.  0.
<mgrwt>
<rscale>  0 0.18441444E+03</rscale>
<asrwt>0</asrwt>
<pdfrwt beam="2">  1        2 0.40076845E+00 0.18974206E+03</pdfrwt>
<pdfrwt beam="1">  1       -2 0.19247229E-02 0.18974206E+03</pdfrwt>
<totfact> 0.28888987E+03</totfact>
</mgrwt>
</event>
<event>
 8    3  0.7944584E-004  0.1277759E+03  0.7818608E-02  0.1245443E+00
          2   -1    0    0  501    0  0.00000000000E+00  0.00000000000E+00  0.13342688466E+04  0.13342688466E+04  0.25500000000E-02 0. -1.
         -2   -1    0    0    0  501 -0.00000000000E+00 -0.00000000000E+00 -0.10347677318E+02  0.10347677632E+02  0.25500000000E-02 0.  1.
         25    2    1    2    0    0  0.26453232493E+02  0.14814865017E+01  0.53637490808E+03  0.55138436034E+03  0.12499880997E+03 0.  0.
         23    2    1    2    0    0 -0.26453232493E+02 -0.14814865017E+01  0.78754626120E+03  0.79323216389E+03  0.91028479052E+02 0.  0.
        -13    1    4    4    0    0  0.24716906824E+02 -0.26887429069E+02  0.24901367883E+03  0.25167773587E+03  0.10566000000E+00 0. -1.
         13    1    4    4    0    0 -0.51170139317E+02  0.25405942568E+02  0.53853258237E+03  0.54155442803E+03  0.10566000000E+00 0.  1.
    9000005    1    3    3    0    0 -0.64077339867E+01 -0.45768142477E+02  0.40903625581E+03  0.41163994035E+03  0.10000000000E+01 0.  0.
    9000005    1    3    3    0    0  0.32860966480E+02  0.47249628978E+02  0.12733865227E+03  0.13974441999E+03  0.10000000000E+01 0.  0.
<mgrwt>
<rscale>  0 0.11858928E+03</rscale>
<asrwt>0</asrwt>
<pdfrwt beam="1">  1        2 0.20527212E+00 0.12777586E+03</pdfrwt>
<pdfrwt beam="2">  1       -2 0.15919505E-02 0.12777586E+03</pdfrwt>
<totfact> 0.17427473E+04</totfact>
</mgrwt>
</event>
<event>
 8    3  0.7944584E-004  0.1268858E+03  0.7818608E-02  0.1248011E+00
         -2   -1    0    0    0  501 -0.00000000000E+00  0.00000000000E+00  0.37196106197E+02  0.37196106284E+02  0.25500000000E-02 0. -1.
          2   -1    0    0  501    0  0.00000000000E+00 -0.00000000000E+00 -0.38669244472E+03  0.38669244473E+03  0.25500000000E-02 0.  1.
         25    2    1    2    0    0  0.19398018907E+02 -0.99694152486E+01 -0.28382999634E+03  0.31090108174E+03  0.12499737368E+03 0.  0.
         23    2    1    2    0    0 -0.19398018907E+02  0.99694152486E+01 -0.65666342181E+02  0.11298746927E+03  0.89322042848E+02 0.  0.
        -13    1    4    4    0    0 -0.39119489545E+02  0.19961101388E+02 -0.23144905428E+00  0.43918615228E+02  0.10566000000E+00 0. -1.
         13    1    4    4    0    0  0.19721470638E+02 -0.99916861391E+01 -0.65434893127E+02  0.69068854041E+02  0.10566000000E+00 0.  1.
    9000005    1    3    3    0    0  0.29633632431E+02 -0.60162891273E+02 -0.21417330212E+03  0.22443023192E+03  0.10000000000E+01 0.  0.
    9000005    1    3    3    0    0 -0.10235613524E+02  0.50193476024E+02 -0.69656694219E+02  0.86470849823E+02  0.10000000000E+01 0.  0.
<mgrwt>
<rscale>  0 0.11706937E+03</rscale>
<asrwt>0</asrwt>
<pdfrwt beam="2">  1        2 0.59491143E-01 0.12688584E+03</pdfrwt>
<pdfrwt beam="1">  1       -2 0.57224781E-02 0.12688584E+03</pdfrwt>
<totfact> 0.12402200E+04</totfact>
</mgrwt>
</event>
<event>
 8    3  0.7944584E-004  0.3362044E+03  0.7818608E-02  0.1069674E+00
         -2   -1    0    0    0  501 -0.00000000000E+00  0.00000000000E+00  0.26342154483E+03  0.26342154484E+03  0.25500000000E-02 0. -1.
          2   -1    0    0  501    0  0.00000000000E+00 -0.00000000000E+00 -0.76106590582E+03  0.76106590583E+03  0.25500000000E-02 0.  1.
         25    2    1    2    0    0 -0.20595598289E+03  0.23449483619E+03  0.94377341703E+02  0.34919975470E+03  0.12501076340E+03 0.  0.
         23    2    1    2    0    0  0.20595598289E+03 -0.23449483619E+03 -0.59202170270E+03  0.67528769597E+03  0.90100392741E+02 0.  0.
        -13    1    4    4    0    0  0.12218073814E+03 -0.91927240445E+02 -0.21730632725E+03  0.26570811304E+03  0.10566000000E+00 0. -1.
         13    1    4    4    0    0  0.83775244747E+02 -0.14256759575E+03 -0.37471537545E+03  0.40957958293E+03  0.10566000000E+00 0.  1.
    9000005    1    3    3    0    0 -0.12279698472E+03  0.12517776169E+03 -0.11561063110E+02  0.17573625027E+03  0.10000000000E+01 0.  0.
    9000005    1    3    3    0    0 -0.83158998165E+02  0.10931707450E+03  0.10593840481E+03  0.17346350443E+03  0.10000000000E+01 0.  0.
<mgrwt>
<rscale>  0 0.33332763E+03</rscale>
<asrwt>0</asrwt>
<pdfrwt beam="2">  1        2 0.11708706E+00 0.33620438E+03</pdfrwt>
<pdfrwt beam="1">  1       -2 0.40526392E-01 0.33620438E+03</pdfrwt>
<totfact> 0.22015298E+02</totfact>
</mgrwt>
</event>
<event>
 8    3  0.7944584E-004  0.1413590E+03  0.7818608E-02  0.1222059E+00
          2   -1    0    0  501    0  0.00000000000E+00  0.00000000000E+00  0.11083034931E+04  0.11083034931E+04  0.25500000000E-02 0. -1.
         -2   -1    0    0    0  501 -0.00000000000E+00 -0.00000000000E+00 -0.14731698320E+02  0.14731698541E+02  0.25500000000E-02 0.  1.
         25    2    1    2    0    0  0.58915038614E+02 -0.29781027921E+02  0.55627661968E+03  0.57395647405E+03  0.12499786039E+03 0.  0.
         23    2    1    2    0    0 -0.58915038614E+02  0.29781027921E+02  0.53729517511E+03  0.54907871761E+03  0.91888201255E+02 0.  0.
        -13    1    4    4    0    0 -0.34985832732E+02  0.43681896588E+02  0.49732002662E+03  0.50045912583E+03  0.10566000000E+00 0. -1.
         13    1    4    4    0    0 -0.23929205882E+02 -0.13900868667E+02  0.39975148494E+02  0.48619591782E+02  0.10566000000E+00 0.  1.
    9000005    1    3    3    0    0  0.12680383036E+02  0.31036107637E+02  0.40656580419E+02  0.52706637367E+02  0.10000000000E+01 0.  0.
    9000005    1    3    3    0    0  0.46234655578E+02 -0.60817135558E+02  0.51562003926E+03  0.52124983668E+03  0.10000000000E+01 0.  0.
<mgrwt>
<rscale>  0 0.13370554E+03</rscale>
<asrwt>0</asrwt>
<pdfrwt beam="1">  1        2 0.17050830E+00 0.14135896E+03</pdfrwt>
<pdfrwt beam="2">  1       -2 0.22664142E-02 0.14135896E+03</pdfrwt>
<totfact> 0.13994605E+04</totfact>
</mgrwt>
</event>
<event>
 8    3  0.7944584E-004  0.1599912E+03  0.7818608E-02  0.1196593E+00
         -2   -1    0    0    0  501 -0.00000000000E+00  0.00000000000E+00  0.19136916287E+02  0.19136916456E+02  0.25500000000E-02 0.  1.
          2   -1    0    0  501    0  0.00000000000E+00 -0.00000000000E+00 -0.14607899000E+04  0.14607899000E+04  0.25500000000E-02 0. -1.
         25    2    1    2    0    0  0.31427270236E+02 -0.94786125094E+02 -0.41972305942E+03  0.44918217344E+03  0.12500038202E+03 0.  0.
         23    2    1    2    0    0 -0.31427270236E+02  0.94786125094E+02 -0.10219299243E+04  0.10307446431E+04  0.90120286918E+02 0.  0.
        -13    1    4    4    0    0 -0.35172867994E+02  0.68402730508E+02 -0.35292791763E+03  0.36121211274E+03  0.10566000000E+00 0.  1.
         13    1    4    4    0    0  0.37455977573E+01  0.26383394586E+02 -0.66900200670E+03  0.66953253031E+03  0.10566000000E+00 0. -1.
    9000005    1    3    3    0    0  0.18480716802E+02 -0.94465224856E+02 -0.14434770130E+03  0.17350064689E+03  0.10000000000E+01 0.  0.
    9000005    1    3    3    0    0  0.12946553435E+02 -0.32090023766E+00 -0.27537535812E+03  0.27568152656E+03  0.10000000000E+01 0.  0.
<mgrwt>
<rscale>  0 0.15320153E+03</rscale>
<asrwt>0</asrwt>
<pdfrwt beam="2">  1        2 0.22473682E+00 0.15999118E+03</pdfrwt>
<pdfrwt beam="1">  1       -2 0.29441421E-02 0.15999118E+03</pdfrwt>
<totfact> 0.61576835E+03</totfact>
</mgrwt>
</event>
<event>
 8    3  0.7944584E-004  0.1630000E+03  0.7818608E-02  0.1192248E+00
         -2   -1    0    0    0  501 -0.00000000000E+00  0.00000000000E+00  0.10002547424E+02  0.10002547749E+02  0.25500000000E-02 0.  1.
          2   -1    0    0  501    0  0.00000000000E+00 -0.00000000000E+00 -0.22977042170E+04  0.22977042170E+04  0.25500000000E-02 0. -1.
         25    2    1    2    0    0  0.10372828202E+03 -0.13588181643E+02 -0.12806735743E+04  0.12910049548E+04  0.12499917694E+03 0.  0.
         23    2    1    2    0    0 -0.10372828202E+03  0.13588181643E+02 -0.10070280952E+04  0.10167018099E+04  0.92912811321E+02 0.  0.
        -13    1    4    4    0    0  0.74306045529E+01  0.20152587444E+02 -0.31888956366E+03  0.31961211748E+03  0.10566000000E+00 0.  1.
         13    1    4    4    0    0 -0.11115888658E+03 -0.65644058015E+01 -0.68813853159E+03  0.69708969244E+03  0.10566000000E+00 0. -1.
    9000005    1    3    3    0    0  0.12962332563E+03  0.43503676939E+01 -0.10978164074E+04  0.11054514899E+04  0.10000000000E+01 0.  0.
    9000005    1    3    3    0    0 -0.25895043610E+02 -0.17938549337E+02 -0.18285716691E+03  0.18555346488E+03  0.10000000000E+01 0.  0.
<mgrwt>
<rscale>  0 0.15689491E+03</rscale>
<asrwt>0</asrwt>
<pdfrwt beam="2">  1        2 0.35349254E+00 0.16299997E+03</pdfrwt>
<pdfrwt beam="1">  1       -2 0.15388553E-02 0.16299997E+03</pdfrwt>
<totfact> 0.58524182E+03</totfact>
</mgrwt>
</event>
<event>
 8    3  0.7944584E-004  0.1508102E+03  0.7818608E-02  0.1210710E+00
         -2   -1    0    0    0  501 -0.00000000000E+00  0.00000000000E+00  0.79997061349E+01  0.79997065413E+01  0.25500000000E-02 0. -1.
          2   -1    0    0  501    0  0.00000000000E+00 -0.00000000000E+00 -0.27115215702E+04  0.27115215702E+04  0.25500000000E-02 0.  1.
         25    2    1    2    0    0  0.39927887843E+02  0.74330033695E+02 -0.20359175782E+04  0.20414955515E+04  0.12499804649E+03 0.  0.
         23    2    1    2    0    0 -0.39927887843E+02 -0.74330033695E+02 -0.66760428590E+03  0.67802572523E+03  0.83091584324E+02 0.  0.
        -13    1    4    4    0    0 -0.88228178968E+01 -0.18147709373E+02 -0.46608371104E+03  0.46652033003E+03  0.10566000000E+00 0.  1.
         13    1    4    4    0    0 -0.31105069947E+02 -0.56182324322E+02 -0.20152057486E+03  0.21150539520E+03  0.10566000000E+00 0. -1.
    9000005    1    3    3    0    0 -0.16828199461E+02  0.40078060178E+01 -0.40735551682E+02  0.44267775831E+02  0.10000000000E+01 0.  0.
    9000005    1    3    3    0    0  0.56756087304E+02  0.70322227677E+02 -0.19951820265E+04  0.19972277757E+04  0.10000000000E+01 0.  0.
<mgrwt>
<rscale>  0 0.14196445E+03</rscale>
<asrwt>0</asrwt>
<pdfrwt beam="2">  1        2 0.41715643E+00 0.15081015E+03</pdfrwt>
<pdfrwt beam="1">  1       -2 0.12307262E-02 0.15081015E+03</pdfrwt>
<totfact> 0.48396297E+03</totfact>
</mgrwt>
</event>
<event>
 8    3  0.7944584E-004  0.1281549E+03  0.7818608E-02  0.1244669E+00
         -2   -1    0    0    0  501 -0.00000000000E+00  0.00000000000E+00  0.46092948319E+01  0.46092955372E+01  0.25500000000E-02 0.  1.
          2   -1    0    0  501    0  0.00000000000E+00 -0.00000000000E+00 -0.30126249727E+04  0.30126249727E+04  0.25500000000E-02 0. -1.
         25    2    1    2    0    0 -0.27570581383E+02 -0.62341209328E+01 -0.21742636595E+04  0.21780372214E+04  0.12499870312E+03 0.  0.
         23    2    1    2    0    0  0.27570581383E+02  0.62341209328E+01 -0.83375201844E+03  0.83919704686E+03  0.91160594461E+02 0.  0.
        -13    1    4    4    0    0 -0.15709021939E+02 -0.31277436407E+02 -0.21857139520E+03  0.22135608725E+03  0.10566000000E+00 0. -1.
         13    1    4    4    0    0  0.43279603322E+02  0.37511557340E+02 -0.61518062324E+03  0.61784095961E+03  0.10566000000E+00 0.  1.
    9000005    1    3    3    0    0  0.25728574740E+02 -0.30313375037E+02 -0.16569001631E+04  0.16573774497E+04  0.10000000000E+01 0.  0.
    9000005    1    3    3    0    0 -0.53299156122E+02  0.24079254104E+02 -0.51736349636E+03  0.52065977172E+03  0.10000000000E+01 0.  0.
<mgrwt>
<rscale>  0 0.11905202E+03</rscale>
<asrwt>0</asrwt>
<pdfrwt beam="2">  1        2 0.46347919E+00 0.12815489E+03</pdfrwt>
<pdfrwt beam="1">  1       -2 0.70912474E-03 0.12815489E+03</pdfrwt>
<totfact> 0.71953485E+03</totfact>
</mgrwt>
</event>
<event>
 8    3  0.7944584E-004  0.1342962E+03  0.7818608E-02  0.1231624E+00
         -2   -1    0    0    0  501 -0.00000000000E+00  0.00000000000E+00  0.33057555613E+02  0.33057555711E+02  0.25500000000E-02 0.  1.
          2   -1    0    0  501    0  0.00000000000E+00 -0.00000000000E+00 -0.51186197993E+03  0.51186197993E+03  0.25500000000E-02 0. -1.
         25    2    1    2    0    0 -0.38747822379E+02 -0.30147623835E+02 -0.36001491320E+03  0.38424758771E+03  0.12500079190E+03 0.  0.
         23    2    1    2    0    0  0.38747822379E+02  0.30147623835E+02 -0.11878951112E+03  0.16067194793E+03  0.96406711068E+02 0.  0.
        -13    1    4    4    0    0  0.61751684422E+02  0.27239687047E+02 -0.39809615686E+02  0.78358711989E+02  0.10566000000E+00 0. -1.
         13    1    4    4    0    0 -0.23003862043E+02  0.29079367879E+01 -0.78979895431E+02  0.82313235944E+02  0.10566000000E+00 0.  1.
    9000005    1    3    3    0    0  0.26377040173E+02  0.33592342267E+02 -0.10080665193E+03  0.10948595700E+03  0.10000000000E+01 0.  0.
    9000005    1    3    3    0    0 -0.65124862552E+02 -0.63739966102E+02 -0.25920826127E+03  0.27476163071E+03  0.10000000000E+01 0.  0.
<mgrwt>
<rscale>  0 0.12723074E+03</rscale>
<asrwt>0</asrwt>
<pdfrwt beam="2">  1        2 0.78747991E-01 0.13429621E+03</pdfrwt>
<pdfrwt beam="1">  1       -2 0.50857782E-02 0.13429621E+03</pdfrwt>
<totfact> 0.10989509E+04</totfact>
</mgrwt>
</event>
<event>
 8    3  0.7944584E-004  0.1286581E+03  0.7818608E-02  0.1230859E+00
         -2   -1    0    0    0  501 -0.00000000000E+00  0.00000000000E+00  0.61686578926E+02  0.61686578979E+02  0.25500000000E-02 0.  1.
          2   -1    0    0  501    0  0.00000000000E+00 -0.00000000000E+00 -0.35041917092E+03  0.35041917093E+03  0.25500000000E-02 0. -1.
         25    2    1    2    0    0 -0.20763589341E+01  0.30373775528E+02 -0.41695421657E+02  0.13524579914E+03  0.12500416190E+03 0.  0.
         23    2    1    2    0    0  0.20763589341E+01 -0.30373775528E+02 -0.24703717034E+03  0.27685995077E+03  0.12123197311E+03 0.  0.
        -13    1    4    4    0    0 -0.23191662472E+02 -0.30230476980E+01  0.34315089525E+01  0.23638494946E+02  0.10566000000E+00 0.  1.
         13    1    4    4    0    0  0.25268021406E+02 -0.27350727830E+02 -0.25046867929E+03  0.25322145582E+03  0.10566000000E+00 0. -1.
    9000005    1    3    3    0    0  0.60777698687E+02  0.55712043313E+01 -0.21458721445E+02  0.64702733339E+02  0.10000000000E+01 0.  0.
    9000005    1    3    3    0    0 -0.62854057622E+02  0.24802571196E+02 -0.20236700212E+02  0.70543065803E+02  0.10000000000E+01 0.  0.
<mgrwt>
<rscale>  0 0.12773274E+03</rscale>
<asrwt>0</asrwt>
<pdfrwt beam="2">  1        2 0.53910640E-01 0.12865814E+03</pdfrwt>
<pdfrwt beam="1">  1       -2 0.94902432E-02 0.12865814E+03</pdfrwt>
<totfact> 0.63432193E+03</totfact>
</mgrwt>
</event>
<event>
 8    3  0.7944584E-004  0.1280174E+03  0.7818608E-02  0.1244904E+00
          2   -1    0    0  501    0  0.00000000000E+00  0.00000000000E+00  0.25738502182E+03  0.25738502183E+03  0.25500000000E-02 0. -1.
         -2   -1    0    0    0  501 -0.00000000000E+00 -0.00000000000E+00 -0.50406702973E+02  0.50406703037E+02  0.25500000000E-02 0.  1.
         25    2    1    2    0    0 -0.25328944924E+02  0.11057284517E+02  0.14815319737E+03  0.19580049484E+03  0.12499857957E+03 0.  0.
         23    2    1    2    0    0  0.25328944924E+02 -0.11057284517E+02  0.58825121473E+02  0.11199123003E+03  0.91202092605E+02 0.  0.
        -13    1    4    4    0    0  0.25156434743E+02  0.38177182762E+02  0.33070737729E+02  0.56427195133E+02  0.10566000000E+00 0. -1.
         13    1    4    4    0    0  0.17251018155E+00 -0.49234467279E+02  0.25754383744E+02  0.55564034897E+02  0.10566000000E+00 0.  1.
    9000005    1    3    3    0    0 -0.36335533005E+02  0.62827026600E+02  0.10423672523E+03  0.12701890063E+03  0.10000000000E+01 0.  0.
    9000005    1    3    3    0    0  0.11006588081E+02 -0.51769742083E+02  0.43916472141E+02  0.68781594208E+02  0.10000000000E+01 0.  0.
<mgrwt>
<rscale>  0 0.11891110E+03</rscale>
<asrwt>0</asrwt>
<pdfrwt beam="1">  1        2 0.39597696E-01 0.12801744E+03</pdfrwt>
<pdfrwt beam="2">  1       -2 0.77548774E-02 0.12801744E+03</pdfrwt>
<totfact> 0.12020937E+04</totfact>
</mgrwt>
</event>
<event>
 8    3  0.7944584E-004  0.1359014E+03  0.7818608E-02  0.1231347E+00
          2   -1    0    0  501    0  0.00000000000E+00  0.00000000000E+00  0.39225757152E+03  0.39225757153E+03  0.25500000000E-02 0. -1.
         -2   -1    0    0    0  501 -0.00000000000E+00 -0.00000000000E+00 -0.43928234779E+02  0.43928234853E+02  0.25500000000E-02 0.  1.
         25    2    1    2    0    0  0.46693414495E+02  0.25753002562E+02  0.10687645484E+03  0.17289235932E+03  0.12500279683E+03 0.  0.
         23    2    1    2    0    0 -0.46693414495E+02 -0.25753002562E+02  0.24145288190E+03  0.26329344706E+03  0.90445856664E+02 0.  0.
        -13    1    4    4    0    0 -0.38500128576E+01 -0.40717261110E+02  0.41542527577E+02  0.58296747018E+02  0.10566000000E+00 0.  1.
         13    1    4    4    0    0 -0.42843401637E+02  0.14964258548E+02  0.19991035432E+03  0.20499670004E+03  0.10566000000E+00 0. -1.
    9000005    1    3    3    0    0 -0.18416040290E+02  0.51068811217E+02  0.12930399041E+02  0.55815492817E+02  0.10000000000E+01 0.  0.
    9000005    1    3    3    0    0  0.65109454785E+02 -0.25315808655E+02  0.93946055797E+02  0.11707686650E+03  0.10000000000E+01 0.  0.
<mgrwt>
<rscale>  0 0.12741193E+03</rscale>
<asrwt>0</asrwt>
<pdfrwt beam="1">  1        2 0.60347318E-01 0.13590140E+03</pdfrwt>
<pdfrwt beam="2">  1       -2 0.67581900E-02 0.13590140E+03</pdfrwt>
<totfact> 0.95377661E+03</totfact>
</mgrwt>
</event>
<event>
 8    3  0.7944584E-004  0.1575165E+03  0.7818608E-02  0.1199332E+00
          2   -1    0    0  501    0  0.00000000000E+00  0.00000000000E+00  0.28952497987E+04  0.28952497987E+04  0.25500000000E-02 0. -1.
         -2   -1    0    0    0  501 -0.00000000000E+00 -0.00000000000E+00 -0.79495293224E+01  0.79495297314E+01  0.25500000000E-02 0.  1.
         25    2    1    2    0    0 -0.79990369763E+02  0.52800164610E+02  0.11354210434E+04  0.11462950666E+04  0.12500046938E+03 0.  0.
         23    2    1    2    0    0  0.79990369763E+02 -0.52800164610E+02  0.17518792260E+04  0.17569042618E+04  0.91899108223E+02 0.  0.
        -13    1    4    4    0    0 -0.76401837258E+01 -0.41804372984E+02  0.71965101990E+03  0.72090469524E+03  0.10566000000E+00 0. -1.
         13    1    4    4    0    0  0.87630553488E+02 -0.10995791625E+02  0.10322282060E+04  0.10359995665E+04  0.10566000000E+00 0.  1.
    9000005    1    3    3    0    0 -0.41991214242E+01 -0.31653415528E+02  0.48481998437E+03  0.48587137040E+03  0.10000000000E+01 0.  0.
    9000005    1    3    3    0    0 -0.75791248338E+02  0.84453580138E+02  0.65060105902E+03  0.66042369621E+03  0.10000000000E+01 0.  0.
<mgrwt>
<rscale>  0 0.15093203E+03</rscale>
<asrwt>0</asrwt>
<pdfrwt beam="1">  1        2 0.44542336E+00 0.15751646E+03</pdfrwt>
<pdfrwt beam="2">  1       -2 0.12230037E-02 0.15751646E+03</pdfrwt>
<totfact> 0.38502312E+03</totfact>
</mgrwt>
</event>
<event>
 8    3  0.7944584E-004  0.1344629E+03  0.7818608E-02  0.1233614E+00
         -2   -1    0    0    0  501 -0.00000000000E+00  0.00000000000E+00  0.61547391223E+03  0.61547391224E+03  0.25500000000E-02 0.  1.
          2   -1    0    0  501    0  0.00000000000E+00 -0.00000000000E+00 -0.24743598940E+02  0.24743599071E+02  0.25500000000E-02 0. -1.
         25    2    1    2    0    0 -0.37861956643E+02  0.31961883177E+02  0.24668711136E+03  0.28095340403E+03  0.12500077834E+03 0.  0.
         23    2    1    2    0    0  0.37861956643E+02 -0.31961883177E+02  0.34404320193E+03  0.35926410728E+03  0.90828873435E+02 0.  0.
        -13    1    4    4    0    0  0.20607071156E+02 -0.36990591027E+02  0.33748644675E+03  0.34013242731E+03  0.10566000000E+00 0.  1.
         13    1    4    4    0    0  0.17254885488E+02  0.50287078504E+01  0.65567551782E+01  0.19131679966E+02  0.10566000000E+00 0. -1.
    9000005    1    3    3    0    0  0.32761545495E+02 -0.11587796929E+02  0.21285411900E+02  0.40763521200E+02  0.10000000000E+01 0.  0.
    9000005    1    3    3    0    0 -0.70623502139E+02  0.43549680106E+02  0.22540169946E+03  0.24018988283E+03  0.10000000000E+01 0.  0.
<mgrwt>
<rscale>  0 0.12593608E+03</rscale>
<asrwt>0</asrwt>
<pdfrwt beam="2">  1        2 0.38067077E-02 0.13446295E+03</pdfrwt>
<pdfrwt beam="1">  1       -2 0.94688290E-01 0.13446295E+03</pdfrwt>
<totfact> 0.21138923E+03</totfact>
</mgrwt>
</event>
<event>
 8    3  0.7944584E-004  0.1461906E+03  0.7818608E-02  0.1213265E+00
         -2   -1    0    0    0  501 -0.00000000000E+00  0.00000000000E+00  0.12499716239E+02  0.12499716499E+02  0.25500000000E-02 0.  1.
          2   -1    0    0  501    0  0.00000000000E+00 -0.00000000000E+00 -0.27047320937E+04  0.27047320937E+04  0.25500000000E-02 0. -1.
         25    2    1    2    0    0 -0.75374111608E+02  0.81084212660E+01 -0.23312482753E+04  0.23358275210E+04  0.12499873424E+03 0.  0.
         23    2    1    2    0    0  0.75374111608E+02 -0.81084212660E+01 -0.36098410216E+03  0.38140428921E+03  0.97019104375E+02 0.  0.
        -13    1    4    4    0    0  0.22293520724E+02 -0.39496767235E+02 -0.25316764903E+03  0.25719810529E+03  0.10566000000E+00 0. -1.
         13    1    4    4    0    0  0.53080590884E+02  0.31388345969E+02 -0.10781645314E+03  0.12420618391E+03  0.10566000000E+00 0.  1.
    9000005    1    3    3    0    0  0.18887115350E+02 -0.15236057707E+02 -0.11923042494E+03  0.12167890044E+03  0.10000000000E+01 0.  0.
    9000005    1    3    3    0    0 -0.94261226959E+02  0.23344478973E+02 -0.22120178504E+04  0.22141486206E+04  0.10000000000E+01 0.  0.
<mgrwt>
<rscale>  0 0.14004768E+03</rscale>
<asrwt>0</asrwt>
<pdfrwt beam="2">  1        2 0.41611216E+00 0.14619058E+03</pdfrwt>
<pdfrwt beam="1">  1       -2 0.19230354E-02 0.14619058E+03</pdfrwt>
<totfact> 0.25609890E+03</totfact>
</mgrwt>
</event>
<event>
 8    3  0.7944584E-004  0.2066172E+03  0.7818608E-02  0.1147873E+00
          2   -1    0    0  501    0  0.00000000000E+00  0.00000000000E+00  0.19366613122E+04  0.19366613122E+04  0.25500000000E-02 0.  1.
         -2   -1    0    0    0  501 -0.00000000000E+00 -0.00000000000E+00 -0.22949586366E+02  0.22949586508E+02  0.25500000000E-02 0. -1.
         25    2    1    2    0    0  0.80813598252E+02  0.14329487657E+03  0.65836527107E+03  0.69002572536E+03  0.12500564867E+03 0.  0.
         23    2    1    2    0    0 -0.80813598252E+02 -0.14329487657E+03  0.12553464547E+04  0.12695851733E+04  0.94273705654E+02 0.  0.
        -13    1    4    4    0    0 -0.23154465133E+02 -0.10470065503E+03  0.51805820471E+03  0.52903938516E+03  0.10566000000E+00 0.  1.
         13    1    4    4    0    0 -0.57659133119E+02 -0.38594221537E+02  0.73728825000E+03  0.74054578813E+03  0.10566000000E+00 0. -1.
    9000005    1    3    3    0    0  0.10100704539E+03  0.11253670385E+03  0.37598008939E+03  0.40525172492E+03  0.10000000000E+01 0.  0.
    9000005    1    3    3    0    0 -0.20193447142E+02  0.30758172718E+02  0.28238518168E+03  0.28477400045E+03  0.10000000000E+01 0.  0.
<mgrwt>
<rscale>  0 0.20222737E+03</rscale>
<asrwt>0</asrwt>
<pdfrwt beam="1">  1        2 0.29794788E+00 0.20661721E+03</pdfrwt>
<pdfrwt beam="2">  1       -2 0.35307058E-02 0.20661721E+03</pdfrwt>
<totfact> 0.26654947E+03</totfact>
</mgrwt>
</event>
<event>
 8    3  0.7944584E-004  0.2403992E+03  0.7818608E-02  0.1122329E+00
         -2   -1    0    0    0  501 -0.00000000000E+00  0.00000000000E+00  0.12872693871E+03  0.12872693874E+03  0.25500000000E-02 0.  1.
          2   -1    0    0  501    0  0.00000000000E+00 -0.00000000000E+00 -0.51991392701E+03  0.51991392701E+03  0.25500000000E-02 0. -1.
         25    2    1    2    0    0 -0.14396694809E+03  0.14642752233E+03 -0.58382730652E+02  0.24738699043E+03  0.12499711341E+03 0.  0.
         23    2    1    2    0    0  0.14396694809E+03 -0.14642752233E+03 -0.33280425764E+03  0.40125387532E+03  0.89880460160E+02 0.  0.
        -13    1    4    4    0    0  0.34262042937E+02 -0.44477072104E+02 -0.30517008781E+02  0.63901459436E+02  0.10566000000E+00 0.  1.
         13    1    4    4    0    0  0.10970490515E+03 -0.10195045022E+03 -0.30228724886E+03  0.33735241588E+03  0.10566000000E+00 0. -1.
    9000005    1    3    3    0    0  0.24904547042E+01  0.17509306542E+02  0.28694013683E+02  0.33721278171E+02  0.10000000000E+01 0.  0.
    9000005    1    3    3    0    0 -0.14645740279E+03  0.12891821578E+03 -0.87076744335E+02  0.21366571226E+03  0.10000000000E+01 0.  0.
<mgrwt>
<rscale>  0 0.23623131E+03</rscale>
<asrwt>0</asrwt>
<pdfrwt beam="2">  1        2 0.79986757E-01 0.24039921E+03</pdfrwt>
<pdfrwt beam="1">  1       -2 0.19804145E-01 0.24039921E+03</pdfrwt>
<totfact> 0.12723340E+03</totfact>
</mgrwt>
</event>
<event>
 8    3  0.7944584E-004  0.1461524E+03  0.7818608E-02  0.1215172E+00
         -2   -1    0    0    0  501 -0.00000000000E+00  0.00000000000E+00  0.45584875101E+02  0.45584875173E+02  0.25500000000E-02 0.  1.
          2   -1    0    0  501    0  0.00000000000E+00 -0.00000000000E+00 -0.72344136023E+03  0.72344136024E+03  0.25500000000E-02 0. -1.
         25    2    1    2    0    0  0.71062219823E+02  0.26186501505E+02 -0.95084574418E+02  0.17436056618E+03  0.12499983520E+03 0.  0.
         23    2    1    2    0    0 -0.71062219823E+02 -0.26186501505E+02 -0.58277191071E+03  0.59466566923E+03  0.90931767263E+02 0.  0.
        -13    1    4    4    0    0 -0.57405658771E+02  0.19550156821E+02 -0.43920383196E+03  0.44337076524E+03  0.10566000000E+00 0. -1.
         13    1    4    4    0    0 -0.13656561052E+02 -0.45736658326E+02 -0.14356807875E+03  0.15129490399E+03  0.10566000000E+00 0.  1.
    9000005    1    3    3    0    0  0.92280975167E+02  0.15152841869E+02 -0.20113036962E+02  0.95660447680E+02  0.10000000000E+01 0.  0.
    9000005    1    3    3    0    0 -0.21218755344E+02  0.11033659636E+02 -0.74971537456E+02  0.78700118499E+02  0.10000000000E+01 0.  0.
<mgrwt>
<rscale>  0 0.13863939E+03</rscale>
<asrwt>0</asrwt>
<pdfrwt beam="2">  1        2 0.11129866E+00 0.14615242E+03</pdfrwt>
<pdfrwt beam="1">  1       -2 0.70130582E-02 0.14615242E+03</pdfrwt>
<totfact> 0.45608548E+03</totfact>
</mgrwt>
</event>
<event>
 8    3  0.7944584E-004  0.2633806E+03  0.7818608E-02  0.1107280E+00
         -2   -1    0    0    0  501 -0.00000000000E+00  0.00000000000E+00  0.15390593075E+03  0.15390593077E+03  0.25500000000E-02 0.  1.
          2   -1    0    0  501    0  0.00000000000E+00 -0.00000000000E+00 -0.45198628863E+03  0.45198628864E+03  0.25500000000E-02 0. -1.
         25    2    1    2    0    0 -0.13366520640E+03 -0.18941500591E+03 -0.81517421534E+02  0.27570718359E+03  0.12499971682E+03 0.  0.
         23    2    1    2    0    0  0.13366520640E+03  0.18941500591E+03 -0.21656293634E+03  0.33018503581E+03  0.91532620477E+02 0.  0.
        -13    1    4    4    0    0  0.83001204638E+02  0.82038117865E+02 -0.53256088098E+02  0.12827967430E+03  0.10566000000E+00 0.  1.
         13    1    4    4    0    0  0.50664001758E+02  0.10737688805E+03 -0.16330684825E+03  0.20190536152E+03  0.10566000000E+00 0. -1.
    9000005    1    3    3    0    0 -0.73673877589E+02 -0.10195841354E+02 -0.23497100515E+02  0.78005827683E+02  0.10000000000E+01 0.  0.
    9000005    1    3    3    0    0 -0.59991328807E+02 -0.17921916456E+03 -0.58020321018E+02  0.19770135591E+03  0.10000000000E+01 0.  0.
<mgrwt>
<rscale>  0 0.25977307E+03</rscale>
<asrwt>0</asrwt>
<pdfrwt beam="2">  1        2 0.69536352E-01 0.26338064E+03</pdfrwt>
<pdfrwt beam="1">  1       -2 0.23677836E-01 0.26338064E+03</pdfrwt>
<totfact> 0.10924734E+03</totfact>
</mgrwt>
</event>
<event>
 8    3  0.7944584E-004  0.1322183E+03  0.7818608E-02  0.1237050E+00
          2   -1    0    0  501    0  0.00000000000E+00  0.00000000000E+00  0.10323885670E+04  0.10323885670E+04  0.25500000000E-02 0. -1.
         -2   -1    0    0    0  501 -0.00000000000E+00 -0.00000000000E+00 -0.13457846207E+02  0.13457846449E+02  0.25500000000E-02 0.  1.
         25    2    1    2    0    0 -0.42879317035E+02 -0.42616902396E+01  0.50648573024E+03  0.52345913703E+03  0.12499950148E+03 0.  0.
         23    2    1    2    0    0  0.42879317035E+02  0.42616902396E+01  0.51244499053E+03  0.52238727640E+03  0.91824835380E+02 0.  0.
        -13    1    4    4    0    0  0.66821318435E+02 -0.15143615647E+02  0.39854107252E+03  0.40438770424E+03  0.10566000000E+00 0.  1.
         13    1    4    4    0    0 -0.23942001400E+02  0.19405305887E+02  0.11390391802E+03  0.11799957216E+03  0.10566000000E+00 0. -1.
    9000005    1    3    3    0    0 -0.34655458849E+02  0.49022211693E+02  0.13079777874E+03  0.14392094007E+03  0.10000000000E+01 0.  0.
    9000005    1    3    3    0    0 -0.82238581854E+01 -0.53283901933E+02  0.37568795150E+03  0.37953819696E+03  0.10000000000E+01 0.  0.
<mgrwt>
<rscale>  0 0.12374087E+03</rscale>
<asrwt>0</asrwt>
<pdfrwt beam="1">  1        2 0.15882906E+00 0.13221828E+03</pdfrwt>
<pdfrwt beam="2">  1       -2 0.20704372E-02 0.13221828E+03</pdfrwt>
<totfact> 0.17588975E+04</totfact>
</mgrwt>
</event>
<event>
 8    3  0.7944584E-004  0.1647096E+03  0.7818608E-02  0.1189988E+00
          2   -1    0    0  501    0  0.00000000000E+00  0.00000000000E+00  0.53025016021E+03  0.53025016022E+03  0.25500000000E-02 0. -1.
         -2   -1    0    0    0  501 -0.00000000000E+00 -0.00000000000E+00 -0.45838041262E+02  0.45838041333E+02  0.25500000000E-02 0.  1.
         25    2    1    2    0    0  0.10621845786E+03  0.14903155002E+02  0.21021456904E+03  0.26705695737E+03  0.12499915448E+03 0.  0.
         23    2    1    2    0    0 -0.10621845786E+03 -0.14903155002E+02  0.27419754991E+03  0.30903124418E+03  0.93869849710E+02 0.  0.
        -13    1    4    4    0    0 -0.19513082261E+02  0.25355543158E+02  0.14397441550E+03  0.14748663475E+03  0.10566000000E+00 0. -1.
         13    1    4    4    0    0 -0.86705375604E+02 -0.40258698160E+02  0.13022313441E+03  0.16154460943E+03  0.10566000000E+00 0.  1.
    9000005    1    3    3    0    0  0.21566910271E+02 -0.30776918099E+02  0.14751912689E+03  0.15223417193E+03  0.10000000000E+01 0.  0.
    9000005    1    3    3    0    0  0.84651547594E+02  0.45680073102E+02  0.62695442156E+02  0.11482278544E+03  0.10000000000E+01 0.  0.
<mgrwt>
<rscale>  0 0.15886163E+03</rscale>
<asrwt>0</asrwt>
<pdfrwt beam="1">  1        2 0.81576954E-01 0.16470960E+03</pdfrwt>
<pdfrwt beam="2">  1       -2 0.70520058E-02 0.16470960E+03</pdfrwt>
<totfact> 0.65118414E+03</totfact>
</mgrwt>
</event>
<event>
 8    3  0.7944584E-004  0.1694394E+03  0.7818608E-02  0.1184358E+00
         -2   -1    0    0    0  501 -0.00000000000E+00  0.00000000000E+00  0.21920150509E+02  0.21920150657E+02  0.25500000000E-02 0.  1.
          2   -1    0    0  501    0  0.00000000000E+00 -0.00000000000E+00 -0.14120698922E+04  0.14120698922E+04  0.25500000000E-02 0. -1.
         25    2    1    2    0    0 -0.11444019437E+03 -0.15288375876E+00 -0.42545735422E+03  0.45795595870E+03  0.12495246450E+03 0.  0.
         23    2    1    2    0    0  0.11444019437E+03  0.15288375876E+00 -0.96469238743E+03  0.97603408412E+03  0.94416892232E+02 0.  0.
        -13    1    4    4    0    0  0.13009364354E+03  0.88228471895E+01 -0.85799634946E+03  0.86784788158E+03  0.10566000000E+00 0. -1.
         13    1    4    4    0    0 -0.15653449163E+02 -0.86699634307E+01 -0.10669603797E+03  0.10818620253E+03  0.10566000000E+00 0.  1.
    9000005    1    3    3    0    0 -0.69069490910E+02  0.56679702935E+02 -0.29911163194E+03  0.31217295152E+03  0.10000000000E+01 0.  0.
    9000005    1    3    3    0    0 -0.45370703464E+02 -0.56832586694E+02 -0.12634572228E+03  0.14578300718E+03  0.10000000000E+01 0.  0.
<mgrwt>
<rscale>  0 0.16390456E+03</rscale>
<asrwt>0</asrwt>
<pdfrwt beam="2">  1        2 0.21724145E+00 0.16943937E+03</pdfrwt>
<pdfrwt beam="1">  1       -2 0.33723320E-02 0.16943937E+03</pdfrwt>
<totfact> 0.53535677E+03</totfact>
</mgrwt>
</event>
<event>
 8    3  0.7944584E-004  0.1258691E+03  0.7818608E-02  0.1248303E+00
          2   -1    0    0  501    0  0.00000000000E+00  0.00000000000E+00  0.34811325404E+02  0.34811325498E+02  0.25500000000E-02 0. -1.
         -2   -1    0    0    0  501 -0.00000000000E+00 -0.00000000000E+00 -0.46135902901E+03  0.46135902902E+03  0.25500000000E-02 0.  1.
         25    2    1    2    0    0 -0.77290064135E+01  0.12584579231E+02 -0.11373789377E+03  0.16964477112E+03  0.12499972286E+03 0.  0.
         23    2    1    2    0    0  0.77290064135E+01 -0.12584579231E+02 -0.31280980984E+03  0.32652558340E+03  0.92470916012E+02 0.  0.
        -13    1    4    4    0    0  0.14710017320E+02 -0.41223217193E+02 -0.74549204285E+02  0.86448442836E+02  0.10566000000E+00 0. -1.
         13    1    4    4    0    0 -0.69810109069E+01  0.28638637963E+02 -0.23826060555E+03  0.24007714056E+03  0.10566000000E+00 0.  1.
    9000005    1    3    3    0    0 -0.53627308351E+02  0.34103387836E+02 -0.26752071894E+02  0.68960877412E+02  0.10000000000E+01 0.  0.
    9000005    1    3    3    0    0  0.45898301937E+02 -0.21518808606E+02 -0.86985821880E+02  0.10068389371E+03  0.10000000000E+01 0.  0.
<mgrwt>
<rscale>  0 0.11689827E+03</rscale>
<asrwt>0</asrwt>
<pdfrwt beam="1">  1        2 0.53555889E-02 0.12586914E+03</pdfrwt>
<pdfrwt beam="2">  1       -2 0.70978308E-01 0.12586914E+03</pdfrwt>
<totfact> 0.25331801E+03</totfact>
</mgrwt>
</event>
<event>
 8    3  0.7944584E-004  0.1813354E+03  0.7818608E-02  0.1173443E+00
         -2   -1    0    0    0  501 -0.00000000000E+00  0.00000000000E+00  0.16312385517E+03  0.16312385519E+03  0.25500000000E-02 0.  1.
          2   -1    0    0  501    0  0.00000000000E+00 -0.00000000000E+00 -0.17317087933E+03  0.17317087935E+03  0.25500000000E-02 0. -1.
         25    2    1    2    0    0  0.13055051992E+03 -0.14643778360E+02 -0.81071721524E+01  0.18151656570E+03  0.12499863554E+03 0.  0.
         23    2    1    2    0    0 -0.13055051992E+03  0.14643778360E+02 -0.19398520087E+01  0.15477816884E+03  0.81820779922E+02 0.  0.
        -13    1    4    4    0    0  0.39991248369E+01 -0.64259021970E+01 -0.16163422947E+02  0.17848042579E+02  0.10566000000E+00 0. -1.
         13    1    4    4    0    0 -0.13454964476E+03  0.21069680558E+02  0.14223570938E+02  0.13693012626E+03  0.10566000000E+00 0.  1.
    9000005    1    3    3    0    0  0.12073401402E+02  0.26507947612E+02 -0.42434555718E+02  0.51479411681E+02  0.10000000000E+01 0.  0.
    9000005    1    3    3    0    0  0.11847711852E+03 -0.41151725972E+02  0.34327383566E+02  0.13003715402E+03  0.10000000000E+01 0.  0.
<mgrwt>
<rscale>  0 0.17429338E+03</rscale>
<asrwt>0</asrwt>
<pdfrwt beam="2">  1        2 0.26641674E-01 0.18133543E+03</pdfrwt>
<pdfrwt beam="1">  1       -2 0.25095978E-01 0.18133543E+03</pdfrwt>
<totfact> 0.27698999E+03</totfact>
</mgrwt>
</event>
<event>
 8    3  0.7944584E-004  0.1465037E+03  0.7818608E-02  0.1214476E+00
          2   -1    0    0  501    0  0.00000000000E+00  0.00000000000E+00  0.77162525487E+03  0.77162525488E+03  0.25500000000E-02 0. -1.
         -2   -1    0    0    0  501 -0.00000000000E+00 -0.00000000000E+00 -0.23182471296E+02  0.23182471436E+02  0.25500000000E-02 0.  1.
         25    2    1    2    0    0 -0.39533550409E+02 -0.65383303602E+02  0.36688887023E+03  0.39505793534E+03  0.12500180471E+03 0.  0.
         23    2    1    2    0    0  0.39533550409E+02  0.65383303602E+02  0.38155391335E+03  0.39974979097E+03  0.91534849062E+02 0.  0.
        -13    1    4    4    0    0  0.30543102158E+02  0.88922942306E+02  0.30324564223E+03  0.31748716739E+03  0.10566000000E+00 0.  1.
         13    1    4    4    0    0  0.89904482504E+01 -0.23539638704E+02  0.78308271117E+02  0.82262623587E+02  0.10566000000E+00 0. -1.
    9000005    1    3    3    0    0 -0.21923786562E+02  0.25672674717E+02  0.28512761964E+02  0.44200862426E+02  0.10000000000E+01 0.  0.
    9000005    1    3    3    0    0 -0.17609763847E+02 -0.91055978320E+02  0.33837610826E+03  0.35085707291E+03  0.10000000000E+01 0.  0.
<mgrwt>
<rscale>  0 0.13915074E+03</rscale>
<asrwt>0</asrwt>
<pdfrwt beam="1">  1        2 0.11871158E+00 0.14650368E+03</pdfrwt>
<pdfrwt beam="2">  1       -2 0.35665341E-02 0.14650368E+03</pdfrwt>
<totfact> 0.11671285E+04</totfact>
</mgrwt>
</event>
<event>
 8    3  0.7944584E-004  0.1512495E+03  0.7818608E-02  0.1206144E+00
         -2   -1    0    0    0  501 -0.00000000000E+00  0.00000000000E+00  0.10246683079E+04  0.10246683079E+04  0.25500000000E-02 0.  1.
          2   -1    0    0  501    0  0.00000000000E+00 -0.00000000000E+00 -0.30993299620E+02  0.30993299725E+02  0.25500000000E-02 0. -1.
         25    2    1    2    0    0  0.47841811045E+02  0.70442897088E+02  0.19610946019E+03  0.24765973547E+03  0.12500153424E+03 0.  0.
         23    2    1    2    0    0 -0.47841811045E+02 -0.70442897088E+02  0.79756554808E+03  0.80800187214E+03  0.97494519214E+02 0.  0.
        -13    1    4    4    0    0  0.67416918258E+01 -0.32612681931E+02  0.56925911261E+03  0.57023239638E+03  0.10566000000E+00 0.  1.
         13    1    4    4    0    0 -0.54583502871E+02 -0.37830215157E+02  0.22830643547E+03  0.23776947576E+03  0.10566000000E+00 0. -1.
    9000005    1    3    3    0    0  0.61779645680E+02  0.60513267730E+02  0.48693420317E+02  0.99250336895E+02  0.10000000000E+01 0.  0.
    9000005    1    3    3    0    0 -0.13937834635E+02  0.99296293585E+01  0.14741603988E+03  0.14840939858E+03  0.10000000000E+01 0.  0.
<mgrwt>
<rscale>  0 0.14547641E+03</rscale>
<asrwt>0</asrwt>
<pdfrwt beam="2">  1        2 0.47682001E-02 0.15124954E+03</pdfrwt>
<pdfrwt beam="1">  1       -2 0.15764127E+00 0.15124954E+03</pdfrwt>
<totfact> 0.45917973E+02</totfact>
</mgrwt>
</event>
<event>
 8    3  0.7944584E-004  0.1359826E+03  0.7818608E-02  0.1231711E+00
         -2   -1    0    0    0  501 -0.00000000000E+00  0.00000000000E+00  0.20674342266E+03  0.20674342267E+03  0.25500000000E-02 0. -1.
          2   -1    0    0  501    0  0.00000000000E+00 -0.00000000000E+00 -0.97353039217E+02  0.97353039251E+02  0.25500000000E-02 0.  1.
         25    2    1    2    0    0 -0.27840795688E+02  0.45728617244E+02 -0.20677950223E+02  0.13754576142E+03  0.12500017008E+03 0.  0.
         23    2    1    2    0    0  0.27840795688E+02 -0.45728617244E+02  0.13006833366E+03  0.16655070050E+03  0.89191636810E+02 0.  0.
        -13    1    4    4    0    0 -0.12835921351E+02 -0.18789578820E+02 -0.46886691972E+01  0.23233680984E+02  0.10566000000E+00 0.  1.
         13    1    4    4    0    0  0.40676717039E+02 -0.26939038423E+02  0.13475700286E+03  0.14331701952E+03  0.10566000000E+00 0. -1.
    9000005    1    3    3    0    0  0.42360173112E+01 -0.10510038428E+02  0.44345362230E+02  0.45781174097E+02  0.10000000000E+01 0.  0.
    9000005    1    3    3    0    0 -0.32076813000E+02  0.56238655672E+02 -0.65023312453E+02  0.91764587322E+02  0.10000000000E+01 0.  0.
<mgrwt>
<rscale>  0 0.12717381E+03</rscale>
<asrwt>0</asrwt>
<pdfrwt beam="2">  1        2 0.14977391E-01 0.13598257E+03</pdfrwt>
<pdfrwt beam="1">  1       -2 0.31806680E-01 0.13598257E+03</pdfrwt>
<totfact> 0.34404200E+03</totfact>
</mgrwt>
</event>
<event>
 8    3  0.7944584E-004  0.1313308E+03  0.7818608E-02  0.1238837E+00
         -2   -1    0    0    0  501 -0.00000000000E+00  0.00000000000E+00  0.14327913797E+02  0.14327914024E+02  0.25500000000E-02 0.  1.
          2   -1    0    0  501    0  0.00000000000E+00 -0.00000000000E+00 -0.93298687654E+03  0.93298687654E+03  0.25500000000E-02 0. -1.
         25    2    1    2    0    0  0.40295549297E+02 -0.82951102779E+00 -0.53605828960E+03  0.55191146816E+03  0.12499343764E+03 0.  0.
         23    2    1    2    0    0 -0.40295549297E+02  0.82951102779E+00 -0.38260067314E+03  0.39540332241E+03  0.91302206442E+02 0.  0.
        -13    1    4    4    0    0 -0.37138096050E+02 -0.27732551834E+02 -0.88507598672E+02  0.99909653168E+02  0.10566000000E+00 0.  1.
         13    1    4    4    0    0 -0.31574532464E+01  0.28562062861E+02 -0.29409307447E+03  0.29549366924E+03  0.10566000000E+00 0. -1.
    9000005    1    3    3    0    0  0.70631978992E+02  0.98616675845E+01 -0.16885399398E+03  0.18329975512E+03  0.10000000000E+01 0.  0.
    9000005    1    3    3    0    0 -0.30336429696E+02 -0.10691178612E+02 -0.36720429562E+03  0.36861171304E+03  0.10000000000E+01 0.  0.
<mgrwt>
<rscale>  0 0.12261967E+03</rscale>
<asrwt>0</asrwt>
<pdfrwt beam="2">  1        2 0.14353640E+00 0.13133080E+03</pdfrwt>
<pdfrwt beam="1">  1       -2 0.22042952E-02 0.13133080E+03</pdfrwt>
<totfact> 0.18421527E+04</totfact>
</mgrwt>
</event>
<event>
 8    3  0.7944584E-004  0.1254451E+03  0.7818608E-02  0.1262346E+00
          2   -1    0    0  501    0  0.00000000000E+00  0.00000000000E+00  0.76758824463E+02  0.76758824506E+02  0.25500000000E-02 0. -1.
         -2   -1    0    0    0  501 -0.00000000000E+00 -0.00000000000E+00 -0.12649321666E+03  0.12649321669E+03  0.25500000000E-02 0.  1.
         25    2    1    2    0    0 -0.11528866193E+01 -0.10501005925E+02 -0.31766864016E+02  0.12940477954E+03  0.12499945218E+03 0.  0.
         23    2    1    2    0    0  0.11528866193E+01  0.10501005925E+02 -0.17967528183E+02  0.73847261649E+02  0.70844800170E+02 0.  0.
        -13    1    4    4    0    0 -0.48659099773E+01  0.31867490829E+02 -0.33702529671E+02  0.46637814292E+02  0.10566000000E+00 0.  1.
         13    1    4    4    0    0  0.60187965966E+01 -0.21366484904E+02  0.15735001488E+02  0.27209447358E+02  0.10566000000E+00 0. -1.
    9000005    1    3    3    0    0  0.28558048107E+02 -0.26710956774E+02  0.36310787211E+02  0.53371439847E+02  0.10000000000E+01 0.  0.
    9000005    1    3    3    0    0 -0.29710934726E+02  0.16209950849E+02 -0.68077651227E+02  0.76033339697E+02  0.10000000000E+01 0.  0.
<mgrwt>
<rscale>  0 0.10904633E+03</rscale>
<asrwt>0</asrwt>
<pdfrwt beam="1">  1        2 0.11809050E-01 0.12544506E+03</pdfrwt>
<pdfrwt beam="2">  1       -2 0.19460495E-01 0.12544506E+03</pdfrwt>
<totfact> 0.10689060E+04</totfact>
</mgrwt>
</event>
<event>
 8    3  0.7944584E-004  0.1532799E+03  0.7818608E-02  0.1204405E+00
          2   -1    0    0  501    0  0.00000000000E+00  0.00000000000E+00  0.23408441346E+03  0.23408441347E+03  0.25500000000E-02 0. -1.
         -2   -1    0    0    0  501 -0.00000000000E+00 -0.00000000000E+00 -0.12001173239E+03  0.12001173241E+03  0.25500000000E-02 0.  1.
         25    2    1    2    0    0 -0.23545280321E+02  0.85531937770E+02  0.15564984583E+03  0.21845273588E+03  0.12499852280E+03 0.  0.
         23    2    1    2    0    0  0.23545280321E+02 -0.85531937770E+02 -0.41577164759E+02  0.13564341000E+03  0.93810348276E+02 0.  0.
        -13    1    4    4    0    0  0.26258436731E+02 -0.59981081946E+02 -0.70998327410E+02  0.96581620145E+02  0.10566000000E+00 0.  1.
         13    1    4    4    0    0 -0.27131564092E+01 -0.25550855824E+02  0.29421162651E+02  0.39061789857E+02  0.10566000000E+00 0. -1.
    9000005    1    3    3    0    0 -0.67484485646E+02  0.58342132923E+02  0.13704539032E+03  0.16352491946E+03  0.10000000000E+01 0.  0.
    9000005    1    3    3    0    0  0.43939205325E+02  0.27189804847E+02  0.18604455515E+02  0.54927816425E+02  0.10000000000E+01 0.  0.
<mgrwt>
<rscale>  0 0.14684439E+03</rscale>
<asrwt>0</asrwt>
<pdfrwt beam="1">  1        2 0.36012987E-01 0.15327989E+03</pdfrwt>
<pdfrwt beam="2">  1       -2 0.18463343E-01 0.15327989E+03</pdfrwt>
<totfact> 0.33552228E+03</totfact>
</mgrwt>
</event>
<event>
 8    3  0.7944584E-004  0.1407167E+03  0.7818608E-02  0.1223506E+00
         -2   -1    0    0    0  501 -0.00000000000E+00  0.00000000000E+00  0.88680565934E+01  0.88680569600E+01  0.25500000000E-02 0.  1.
          2   -1    0    0  501    0  0.00000000000E+00 -0.00000000000E+00 -0.33555095977E+04  0.33555095977E+04  0.25500000000E-02 0. -1.
         25    2    1    2    0    0  0.54287583978E+02 -0.35071688236E+02 -0.63286082564E+03  0.64831630227E+03  0.12499615221E+03 0.  0.
         23    2    1    2    0    0 -0.54287583978E+02  0.35071688236E+02 -0.27137807154E+04  0.27160613523E+04  0.90588814038E+02 0.  0.
        -13    1    4    4    0    0 -0.19464893491E+02  0.56958865358E+02 -0.10153176456E+04  0.10171003525E+04  0.10566000000E+00 0.  1.
         13    1    4    4    0    0 -0.34822690488E+02 -0.21887177121E+02 -0.16984630698E+04  0.16989609998E+04  0.10566000000E+00 0. -1.
    9000005    1    3    3    0    0 -0.73025604391E+01 -0.16146688383E+02 -0.50331897856E+03  0.50363184681E+03  0.10000000000E+01 0.  0.
    9000005    1    3    3    0    0  0.61590144418E+02 -0.18924999853E+02 -0.12954184708E+03  0.14468445547E+03  0.10000000000E+01 0.  0.
<mgrwt>
<rscale>  0 0.13269812E+03</rscale>
<asrwt>0</asrwt>
<pdfrwt beam="2">  1        2 0.51623124E+00 0.14071675E+03</pdfrwt>
<pdfrwt beam="1">  1       -2 0.13643191E-02 0.14071675E+03</pdfrwt>
<totfact> 0.17537645E+03</totfact>
</mgrwt>
</event>
<event>
 8    3  0.7944584E-004  0.1306423E+03  0.7818608E-02  0.1239192E+00
         -2   -1    0    0    0  501 -0.00000000000E+00  0.00000000000E+00  0.53971343104E+02  0.53971343165E+02  0.25500000000E-02 0.  1.
          2   -1    0    0  501    0  0.00000000000E+00 -0.00000000000E+00 -0.27169269263E+03  0.27169269265E+03  0.25500000000E-02 0. -1.
         25    2    1    2    0    0 -0.37108353037E+02  0.80129504934E+01 -0.73834761384E+02  0.15006323357E+03  0.12500465928E+03 0.  0.
         23    2    1    2    0    0  0.37108353037E+02 -0.80129504934E+01 -0.14388658815E+03  0.17560080224E+03  0.93225823982E+02 0.  0.
        -13    1    4    4    0    0  0.50549121390E+01  0.38728249323E+02 -0.86679064098E+02  0.95072081860E+02  0.10566000000E+00 0.  1.
         13    1    4    4    0    0  0.32053440898E+02 -0.46741199816E+02 -0.57207524048E+02  0.80528720376E+02  0.10566000000E+00 0. -1.
    9000005    1    3    3    0    0  0.14370702010E+01 -0.50379903072E+02 -0.30084888303E+01  0.50500008014E+02  0.10000000000E+01 0.  0.
    9000005    1    3    3    0    0 -0.38545423238E+02  0.58392853566E+02 -0.70826272553E+02  0.99563225560E+02  0.10000000000E+01 0.  0.
<mgrwt>
<rscale>  0 0.12239854E+03</rscale>
<asrwt>0</asrwt>
<pdfrwt beam="2">  1        2 0.41798875E-01 0.13064227E+03</pdfrwt>
<pdfrwt beam="1">  1       -2 0.83032837E-02 0.13064227E+03</pdfrwt>
<totfact> 0.10232169E+04</totfact>
</mgrwt>
</event>
<event>
 8    3  0.7944584E-004  0.1300346E+03  0.7818608E-02  0.1243112E+00
          2   -1    0    0  501    0  0.00000000000E+00  0.00000000000E+00  0.27340153746E+03  0.27340153747E+03  0.25500000000E-02 0. -1.
         -2   -1    0    0    0  501 -0.00000000000E+00 -0.00000000000E+00 -0.46239650381E+02  0.46239650451E+02  0.25500000000E-02 0.  1.
         25    2    1    2    0    0  0.78678527084E+01 -0.34960426011E+02  0.14271477581E+03  0.19307125340E+03  0.12499946865E+03 0.  0.
         23    2    1    2    0    0 -0.78678527084E+01  0.34960426011E+02  0.84447111268E+02  0.12656993452E+03  0.87203779906E+02 0.  0.
        -13    1    4    4    0    0  0.69092320654E+01  0.54030872965E+02  0.86644457977E+02  0.10234425232E+03  0.10566000000E+00 0. -1.
         13    1    4    4    0    0 -0.14777084774E+02 -0.19070446954E+02 -0.21973467087E+01  0.24225682200E+02  0.10566000000E+00 0.  1.
    9000005    1    3    3    0    0  0.58428755371E+02 -0.50388167054E+02  0.84238317402E+02  0.11423651322E+03  0.10000000000E+01 0.  0.
    9000005    1    3    3    0    0 -0.50560902663E+02  0.15427741043E+02  0.58476458406E+02  0.78834740182E+02  0.10000000000E+01 0.  0.
<mgrwt>
<rscale>  0 0.11999098E+03</rscale>
<asrwt>0</asrwt>
<pdfrwt beam="1">  1        2 0.42061775E-01 0.13003462E+03</pdfrwt>
<pdfrwt beam="2">  1       -2 0.71137924E-02 0.13003462E+03</pdfrwt>
<totfact> 0.12889230E+04</totfact>
</mgrwt>
</event>
<event>
 8    3  0.7944584E-004  0.2447897E+03  0.7818608E-02  0.1119282E+00
         -2   -1    0    0    0  501 -0.00000000000E+00  0.00000000000E+00  0.30947996395E+02  0.30947996500E+02  0.25500000000E-02 0.  1.
          2   -1    0    0  501    0  0.00000000000E+00 -0.00000000000E+00 -0.18962947206E+04  0.18962947206E+04  0.25500000000E-02 0. -1.
         25    2    1    2    0    0 -0.19943608196E+03  0.67252158820E+02 -0.11627399700E+04  0.11882281887E+04  0.12499754725E+03 0.  0.
         23    2    1    2    0    0  0.19943608196E+03 -0.67252158820E+02 -0.70260675422E+03  0.73901452846E+03  0.90490986028E+02 0.  0.
        -13    1    4    4    0    0  0.46007443991E+02 -0.47889154986E+02 -0.31032130129E+03  0.31734740784E+03  0.10566000000E+00 0. -1.
         13    1    4    4    0    0  0.15342863797E+03 -0.19363003834E+02 -0.39228545293E+03  0.42166712062E+03  0.10566000000E+00 0.  1.
    9000005    1    3    3    0    0 -0.18915157504E+03  0.65764057260E+02 -0.11603686187E+04  0.11775226370E+04  0.10000000000E+01 0.  0.
    9000005    1    3    3    0    0 -0.10284506919E+02  0.14881015603E+01 -0.23713513797E+01  0.10705551653E+02  0.10000000000E+01 0.  0.
<mgrwt>
<rscale>  0 0.24076896E+03</rscale>
<asrwt>0</asrwt>
<pdfrwt beam="2">  1        2 0.29173756E+00 0.24478969E+03</pdfrwt>
<pdfrwt beam="1">  1       -2 0.47612317E-02 0.24478969E+03</pdfrwt>
<totfact> 0.17799099E+03</totfact>
</mgrwt>
</event>
<event>
 8    3  0.7944584E-004  0.1427257E+03  0.7818608E-02  0.1220555E+00
         -2   -1    0    0    0  501 -0.00000000000E+00  0.00000000000E+00  0.19803198735E+02  0.19803198899E+02  0.25500000000E-02 0.  1.
          2   -1    0    0  501    0  0.00000000000E+00 -0.00000000000E+00 -0.87853946621E+03  0.87853946621E+03  0.25500000000E-02 0. -1.
         25    2    1    2    0    0  0.63190975507E+02 -0.27434228576E+02 -0.36903993211E+03  0.39567802208E+03  0.12499955753E+03 0.  0.
         23    2    1    2    0    0 -0.63190975507E+02  0.27434228576E+02 -0.48969633536E+03  0.50266464303E+03  0.90130495399E+02 0.  0.
        -13    1    4    4    0    0 -0.70640838815E+02  0.51904305353E+02 -0.39120527230E+03  0.40090617514E+03  0.10566000000E+00 0.  1.
         13    1    4    4    0    0  0.74498633076E+01 -0.24470076777E+02 -0.98491063062E+02  0.10175846789E+03  0.10566000000E+00 0. -1.
    9000005    1    3    3    0    0  0.48651495836E+02 -0.76220447434E+02 -0.26147766282E+03  0.27667326001E+03  0.10000000000E+01 0.  0.
    9000005    1    3    3    0    0  0.14539479671E+02  0.48786218858E+02 -0.10756226929E+03  0.11900476207E+03  0.10000000000E+01 0.  0.
<mgrwt>
<rscale>  0 0.13476303E+03</rscale>
<asrwt>0</asrwt>
<pdfrwt beam="2">  1        2 0.13515989E+00 0.14272570E+03</pdfrwt>
<pdfrwt beam="1">  1       -2 0.30466467E-02 0.14272570E+03</pdfrwt>
<totfact> 0.12484219E+04</totfact>
</mgrwt>
</event>
<event>
 8    3  0.7944584E-004  0.1468111E+03  0.7818608E-02  0.1214210E+00
          2   -1    0    0  501    0  0.00000000000E+00  0.00000000000E+00  0.25271466261E+02  0.25271466390E+02  0.25500000000E-02 0. -1.
         -2   -1    0    0    0  501 -0.00000000000E+00 -0.00000000000E+00 -0.73204005409E+03  0.73204005409E+03  0.25500000000E-02 0.  1.
         25    2    1    2    0    0 -0.34429425548E+02  0.68885722756E+02 -0.30944058006E+03  0.34250106650E+03  0.12499151900E+03 0.  0.
         23    2    1    2    0    0  0.34429425548E+02 -0.68885722756E+02 -0.39732800777E+03  0.41481045398E+03  0.90926007478E+02 0.  0.
        -13    1    4    4    0    0 -0.90132705425E+01 -0.63045567137E+02 -0.14038834300E+03  0.15415862155E+03  0.10566000000E+00 0. -1.
         13    1    4    4    0    0  0.43442696091E+02 -0.58401556193E+01 -0.25693966476E+03  0.26065183244E+03  0.10566000000E+00 0.  1.
    9000005    1    3    3    0    0 -0.59820567580E+02  0.75875953377E+02 -0.29887632304E+03  0.31410781124E+03  0.10000000000E+01 0.  0.
    9000005    1    3    3    0    0  0.25391142032E+02 -0.69902306215E+01 -0.10564257018E+02  0.28393255259E+02  0.10000000000E+01 0.  0.
<mgrwt>
<rscale>  0 0.13934721E+03</rscale>
<asrwt>0</asrwt>
<pdfrwt beam="1">  1        2 0.38879184E-02 0.14681113E+03</pdfrwt>
<pdfrwt beam="2">  1       -2 0.11262153E+00 0.14681113E+03</pdfrwt>
<totfact> 0.13814954E+03</totfact>
</mgrwt>
</event>
<event>
 8    3  0.7944584E-004  0.2393201E+03  0.7818608E-02  0.1122947E+00
          2   -1    0    0  501    0  0.00000000000E+00  0.00000000000E+00  0.60090957146E+02  0.60090957200E+02  0.25500000000E-02 0. -1.
         -2   -1    0    0    0  501 -0.00000000000E+00 -0.00000000000E+00 -0.92687369478E+03  0.92687369479E+03  0.25500000000E-02 0.  1.
         25    2    1    2    0    0 -0.79130028925E+02  0.18811494076E+03 -0.54302098774E+03  0.59341883318E+03  0.12500130413E+03 0.  0.
         23    2    1    2    0    0  0.79130028925E+02 -0.18811494076E+03 -0.32376174990E+03  0.39354581881E+03  0.91694320370E+02 0.  0.
        -13    1    4    4    0    0 -0.35596751065E+01 -0.10608329375E+03 -0.13485229190E+03  0.17161435923E+03  0.10566000000E+00 0. -1.
         13    1    4    4    0    0  0.82689704032E+02 -0.82031647011E+02 -0.18890945800E+03  0.22193145957E+03  0.10566000000E+00 0.  1.
    9000005    1    3    3    0    0 -0.85853885957E+02  0.72425139563E+02 -0.17833542251E+03  0.21076245751E+03  0.10000000000E+01 0.  0.
    9000005    1    3    3    0    0  0.67238570314E+01  0.11568980120E+03 -0.36468556523E+03  0.38265637567E+03  0.10000000000E+01 0.  0.
<mgrwt>
<rscale>  0 0.23532449E+03</rscale>
<asrwt>0</asrwt>
<pdfrwt beam="1">  1        2 0.92447633E-02 0.23932012E+03</pdfrwt>
<pdfrwt beam="2">  1       -2 0.14259594E+00 0.23932012E+03</pdfrwt>
<totfact> 0.25548575E+02</totfact>
</mgrwt>
</event>
<event>
 8    3  0.7944584E-004  0.1366889E+03  0.7818608E-02  0.1229753E+00
         -2   -1    0    0    0  501 -0.00000000000E+00  0.00000000000E+00  0.60987566993E+03  0.60987566994E+03  0.25500000000E-02 0.  1.
          2   -1    0    0  501    0  0.00000000000E+00 -0.00000000000E+00 -0.25090943074E+02  0.25090943203E+02  0.25500000000E-02 0. -1.
         25    2    1    2    0    0 -0.77958561983E+01  0.54756710657E+02  0.27035617911E+03  0.30294607241E+03  0.12499914588E+03 0.  0.
         23    2    1    2    0    0  0.77958561983E+01 -0.54756710657E+02  0.31442854775E+03  0.33202054073E+03  0.91177053533E+02 0.  0.
        -13    1    4    4    0    0  0.90141176496E+01 -0.56658831130E+02  0.32047252730E+03  0.32556739606E+03  0.10566000000E+00 0.  1.
         13    1    4    4    0    0 -0.12182614513E+01  0.19021204726E+01 -0.60439795496E+01  0.64531446666E+01  0.10566000000E+00 0. -1.
    9000005    1    3    3    0    0 -0.57323851030E+02  0.54396486326E+01  0.17822471005E+03  0.18729832073E+03  0.10000000000E+01 0.  0.
    9000005    1    3    3    0    0  0.49527994832E+02  0.49317062025E+02  0.92131469055E+02  0.11564775168E+03  0.10000000000E+01 0.  0.
<mgrwt>
<rscale>  0 0.12846391E+03</rscale>
<asrwt>0</asrwt>
<pdfrwt beam="2">  1        2 0.38601452E-02 0.13668891E+03</pdfrwt>
<pdfrwt beam="1">  1       -2 0.93827023E-01 0.13668891E+03</pdfrwt>
<totfact> 0.21208778E+03</totfact>
</mgrwt>
</event>
<event>
 8    3  0.7944584E-004  0.1660627E+03  0.7818608E-02  0.1189505E+00
         -2   -1    0    0    0  501 -0.00000000000E+00  0.00000000000E+00  0.88187618107E+02  0.88187618144E+02  0.25500000000E-02 0.  1.
          2   -1    0    0  501    0  0.00000000000E+00 -0.00000000000E+00 -0.29077624908E+03  0.29077624909E+03  0.25500000000E-02 0. -1.
         25    2    1    2    0    0 -0.94904596092E+02  0.54270748600E+02 -0.54488262686E+02  0.17477352360E+03  0.12499846907E+03 0.  0.
         23    2    1    2    0    0  0.94904596092E+02 -0.54270748600E+02 -0.14810036828E+03  0.20419034363E+03  0.88361647969E+02 0.  0.
        -13    1    4    4    0    0  0.36911431768E+02 -0.61768803446E+02 -0.11853168954E+03  0.13866366310E+03  0.10566000000E+00 0. -1.
         13    1    4    4    0    0  0.57993164323E+02  0.74980548462E+01 -0.29568678747E+02  0.65526680532E+02  0.10566000000E+00 0.  1.
    9000005    1    3    3    0    0  0.30029299737E+02  0.10253495052E+02 -0.56170482947E+00  0.31752299378E+02  0.10000000000E+01 0.  0.
    9000005    1    3    3    0    0 -0.12493389583E+03  0.44017253548E+02 -0.53926557857E+02  0.14302122423E+03  0.10000000000E+01 0.  0.
<mgrwt>
<rscale>  0 0.15928590E+03</rscale>
<asrwt>0</asrwt>
<pdfrwt beam="2">  1        2 0.44734807E-01 0.16606268E+03</pdfrwt>
<pdfrwt beam="1">  1       -2 0.13567326E-01 0.16606268E+03</pdfrwt>
<totfact> 0.44423963E+03</totfact>
</mgrwt>
</event>
<event>
 8    3  0.7944584E-004  0.1817514E+03  0.7818608E-02  0.1170984E+00
         -2   -1    0    0    0  501 -0.00000000000E+00  0.00000000000E+00  0.14217242120E+02  0.14217242349E+02  0.25500000000E-02 0.  1.
          2   -1    0    0  501    0  0.00000000000E+00 -0.00000000000E+00 -0.21607448046E+04  0.21607448046E+04  0.25500000000E-02 0. -1.
         25    2    1    2    0    0 -0.64233114209E+02  0.11525990434E+03 -0.92723181274E+03  0.94487693296E+03  0.12499138119E+03 0.  0.
         23    2    1    2    0    0  0.64233114209E+02 -0.11525990434E+03 -0.12192957497E+04  0.12300851140E+04  0.94955378042E+02 0.  0.
        -13    1    4    4    0    0 -0.17297556046E+02 -0.51171795231E+02 -0.57075407227E+03  0.57330443941E+03  0.10566000000E+00 0. -1.
         13    1    4    4    0    0  0.81530670255E+02 -0.64088109108E+02 -0.64854167746E+03  0.65678067457E+03  0.10566000000E+00 0.  1.
    9000005    1    3    3    0    0 -0.29383767291E+02  0.46187409376E+02 -0.99770657564E+02  0.11380626818E+03  0.10000000000E+01 0.  0.
    9000005    1    3    3    0    0 -0.34849346918E+02  0.69072494963E+02 -0.82746115517E+03  0.83107066478E+03  0.10000000000E+01 0.  0.
<mgrwt>
<rscale>  0 0.17675223E+03</rscale>
<asrwt>0</asrwt>
<pdfrwt beam="2">  1        2 0.33242202E+00 0.18175143E+03</pdfrwt>
<pdfrwt beam="1">  1       -2 0.21872698E-02 0.18175143E+03</pdfrwt>
<totfact> 0.41383233E+03</totfact>
</mgrwt>
</event>
<event>
 8    3  0.7944584E-004  0.1324516E+03  0.7818608E-02  0.1236653E+00
         -2   -1    0    0    0  501 -0.00000000000E+00  0.00000000000E+00  0.57132438564E+01  0.57132444255E+01  0.25500000000E-02 0.  1.
          2   -1    0    0  501    0  0.00000000000E+00 -0.00000000000E+00 -0.24049717153E+04  0.24049717153E+04  0.25500000000E-02 0. -1.
         25    2    1    2    0    0  0.42267956024E+02 -0.11342449856E+02 -0.14135404041E+04  0.14197323322E+04  0.12501275866E+03 0.  0.
         23    2    1    2    0    0 -0.42267956024E+02  0.11342449856E+02 -0.98571806735E+03  0.99095262753E+03  0.91824672164E+02 0.  0.
        -13    1    4    4    0    0  0.71629874460E+01  0.32749086187E+02 -0.15973181681E+03  0.16321175050E+03  0.10566000000E+00 0.  1.
         13    1    4    4    0    0 -0.49430943470E+02 -0.21406636331E+02 -0.82598625054E+03  0.82774087703E+03  0.10566000000E+00 0. -1.
    9000005    1    3    3    0    0  0.20156684884E+02  0.22358118858E+02 -0.12772021320E+04  0.12775572251E+04  0.10000000000E+01 0.  0.
    9000005    1    3    3    0    0  0.22111271140E+02 -0.33700568714E+02 -0.13633827217E+03  0.14217510718E+03  0.10000000000E+01 0.  0.
<mgrwt>
<rscale>  0 0.12399229E+03</rscale>
<asrwt>0</asrwt>
<pdfrwt beam="2">  1        2 0.36999484E+00 0.13245158E+03</pdfrwt>
<pdfrwt beam="1">  1       -2 0.87896256E-03 0.13245158E+03</pdfrwt>
<totfact> 0.11452101E+04</totfact>
</mgrwt>
</event>
<event>
 8    3  0.7944584E-004  0.1514993E+03  0.7818608E-02  0.1207647E+00
         -2   -1    0    0    0  501 -0.00000000000E+00  0.00000000000E+00  0.12950658319E+02  0.12950658570E+02  0.25500000000E-02 0. -1.
          2   -1    0    0  501    0  0.00000000000E+00 -0.00000000000E+00 -0.14848985430E+04  0.14848985430E+04  0.25500000000E-02 0.  1.
         25    2    1    2    0    0 -0.66801972849E+02  0.53515046758E+02 -0.87399052351E+03  0.88702393810E+03  0.12500267103E+03 0.  0.
         23    2    1    2    0    0  0.66801972849E+02 -0.53515046758E+02 -0.59795736115E+03  0.61082526346E+03  0.90709056418E+02 0.  0.
        -13    1    4    4    0    0  0.76599185434E+02 -0.42829917679E+02 -0.30148053980E+03  0.31399421030E+03  0.10566000000E+00 0. -1.
         13    1    4    4    0    0 -0.97972125853E+01 -0.10685129080E+02 -0.29647682135E+03  0.29683105316E+03  0.10566000000E+00 0.  1.
    9000005    1    3    3    0    0  0.19493010796E+02  0.47148160825E+02 -0.16337159267E+03  0.17115549605E+03  0.10000000000E+01 0.  0.
    9000005    1    3    3    0    0 -0.86294983645E+02  0.63668859331E+01 -0.71061893085E+03  0.71586844204E+03  0.10000000000E+01 0.  0.
<mgrwt>
<rscale>  0 0.14430784E+03</rscale>
<asrwt>0</asrwt>
<pdfrwt beam="2">  1        2 0.22844580E+00 0.15149928E+03</pdfrwt>
<pdfrwt beam="1">  1       -2 0.19924102E-02 0.15149928E+03</pdfrwt>
<totfact> 0.10576008E+04</totfact>
</mgrwt>
</event>
<event>
 8    3  0.7944584E-004  0.1275626E+03  0.7818608E-02  0.1248848E+00
          2   -1    0    0  501    0  0.00000000000E+00  0.00000000000E+00  0.18444646962E+03  0.18444646963E+03  0.25500000000E-02 0. -1.
         -2   -1    0    0    0  501 -0.00000000000E+00 -0.00000000000E+00 -0.65781729452E+02  0.65781729501E+02  0.25500000000E-02 0.  1.
         25    2    1    2    0    0 -0.51636029971E+01 -0.24901719038E+02  0.46908457037E+02  0.13591398181E+03  0.12500179480E+03 0.  0.
         23    2    1    2    0    0  0.51636029971E+01  0.24901719038E+02  0.71756283126E+02  0.11431421733E+03  0.85276126249E+02 0.  0.
        -13    1    4    4    0    0 -0.36185480454E+02  0.13867208468E+02  0.57238288738E+02  0.69122509561E+02  0.10566000000E+00 0. -1.
         13    1    4    4    0    0  0.41349083451E+02  0.11034510570E+02  0.14517994388E+02  0.45191707766E+02  0.10566000000E+00 0.  1.
    9000005    1    3    3    0    0  0.33667689952E+02 -0.47803168517E+02  0.64904672758E+02  0.87362880062E+02  0.10000000000E+01 0.  0.
    9000005    1    3    3    0    0 -0.38831292949E+02  0.22901449479E+02 -0.17996215721E+02  0.48551101745E+02  0.10000000000E+01 0.  0.
<mgrwt>
<rscale>  0 0.11658017E+03</rscale>
<asrwt>0</asrwt>
<pdfrwt beam="1">  1        2 0.28376380E-01 0.12756256E+03</pdfrwt>
<pdfrwt beam="2">  1       -2 0.10120266E-01 0.12756256E+03</pdfrwt>
<totfact> 0.11360326E+04</totfact>
</mgrwt>
</event>
<event>
 8    3  0.7944584E-004  0.1337973E+03  0.7818608E-02  0.1234226E+00
          2   -1    0    0  501    0  0.00000000000E+00  0.00000000000E+00  0.75627163582E+03  0.75627163583E+03  0.25500000000E-02 0. -1.
         -2   -1    0    0    0  501 -0.00000000000E+00 -0.00000000000E+00 -0.20562050200E+02  0.20562050358E+02  0.25500000000E-02 0.  1.
         25    2    1    2    0    0 -0.43876913044E+02 -0.18718866576E+02  0.52780928219E+03  0.54450376731E+03  0.12500453908E+03 0.  0.
         23    2    1    2    0    0  0.43876913044E+02  0.18718866576E+02  0.20790030344E+03  0.23232991887E+03  0.92081895997E+02 0.  0.
        -13    1    4    4    0    0 -0.27078628564E+02  0.53857892610E+01  0.32451943180E+02  0.42607495010E+02  0.10566000000E+00 0.  1.
         13    1    4    4    0    0  0.70955541607E+02  0.13333077315E+02  0.17544836026E+03  0.18972242386E+03  0.10566000000E+00 0. -1.
    9000005    1    3    3    0    0 -0.30973961878E+02  0.27464046120E+02  0.52903082610E+02  0.67181815199E+02  0.10000000000E+01 0.  0.
    9000005    1    3    3    0    0 -0.12902951165E+02 -0.46182912697E+02  0.47490619958E+03  0.47732195211E+03  0.10000000000E+01 0.  0.
<mgrwt>
<rscale>  0 0.12554084E+03</rscale>
<asrwt>0</asrwt>
<pdfrwt beam="1">  1        2 0.11634948E+00 0.13379729E+03</pdfrwt>
<pdfrwt beam="2">  1       -2 0.31633925E-02 0.13379729E+03</pdfrwt>
<totfact> 0.14194338E+04</totfact>
</mgrwt>
</event>
<event>
 8    3  0.7944584E-004  0.1306128E+03  0.7818608E-02  0.1239925E+00
         -2   -1    0    0    0  501 -0.00000000000E+00  0.00000000000E+00  0.84045584032E+01  0.84045587901E+01  0.25500000000E-02 0.  1.
          2   -1    0    0  501    0  0.00000000000E+00 -0.00000000000E+00 -0.17330081552E+04  0.17330081552E+04  0.25500000000E-02 0. -1.
         25    2    1    2    0    0  0.35671142638E+02  0.12805184855E+02 -0.12325951337E+04  0.12394960519E+04  0.12499318402E+03 0.  0.
         23    2    1    2    0    0 -0.35671142638E+02 -0.12805184855E+02 -0.49200846316E+03  0.50191666209E+03  0.91714800777E+02 0.  0.
        -13    1    4    4    0    0 -0.53571441739E+02  0.24111952101E+01 -0.45453451598E+03  0.45768695701E+03  0.10566000000E+00 0. -1.
         13    1    4    4    0    0  0.17900299100E+02 -0.15216380065E+02 -0.37473947184E+02  0.44229705083E+02  0.10566000000E+00 0.  1.
    9000005    1    3    3    0    0  0.72637830095E+02 -0.90758559686E+01 -0.10187255495E+04  0.10213527162E+04  0.10000000000E+01 0.  0.
    9000005    1    3    3    0    0 -0.36966687457E+02  0.21881040823E+02 -0.21386958412E+03  0.21814333577E+03  0.10000000000E+01 0.  0.
<mgrwt>
<rscale>  0 0.12194326E+03</rscale>
<asrwt>0</asrwt>
<pdfrwt beam="2">  1        2 0.26661635E+00 0.13061278E+03</pdfrwt>
<pdfrwt beam="1">  1       -2 0.12930104E-02 0.13061278E+03</pdfrwt>
<totfact> 0.14612215E+04</totfact>
</mgrwt>
</event>
<event>
 8    3  0.7944584E-004  0.1978370E+03  0.7818608E-02  0.1155842E+00
          2   -1    0    0  501    0  0.00000000000E+00  0.00000000000E+00  0.11696456455E+04  0.11696456455E+04  0.25500000000E-02 0. -1.
         -2   -1    0    0    0  501 -0.00000000000E+00 -0.00000000000E+00 -0.30379044252E+02  0.30379044359E+02  0.25500000000E-02 0.  1.
         25    2    1    2    0    0  0.22867578859E+02 -0.15162672888E+03  0.61894206173E+03  0.64979130796E+03  0.12500350814E+03 0.  0.
         23    2    1    2    0    0 -0.22867578859E+02  0.15162672888E+03  0.52032453951E+03  0.55023338190E+03  0.92225577036E+02 0.  0.
        -13    1    4    4    0    0 -0.53102038276E+02  0.65319493093E+02  0.19717800357E+03  0.21439598621E+03  0.10566000000E+00 0. -1.
         13    1    4    4    0    0  0.30234459417E+02  0.86307235791E+02  0.32314653594E+03  0.33583739568E+03  0.10566000000E+00 0.  1.
    9000005    1    3    3    0    0 -0.29856716148E+02 -0.14088872072E+03  0.45051942952E+03  0.47297971574E+03  0.10000000000E+01 0.  0.
    9000005    1    3    3    0    0  0.52724295007E+02 -0.10738008166E+02  0.16842263221E+03  0.17681159222E+03  0.10000000000E+01 0.  0.
<mgrwt>
<rscale>  0 0.19293313E+03</rscale>
<asrwt>0</asrwt>
<pdfrwt beam="1">  1        2 0.17994549E+00 0.19783697E+03</pdfrwt>
<pdfrwt beam="2">  1       -2 0.46736989E-02 0.19783697E+03</pdfrwt>
<totfact> 0.44779011E+03</totfact>
</mgrwt>
</event>
<event>
 8    3  0.7944584E-004  0.1641707E+03  0.7818608E-02  0.1191658E+00
          2   -1    0    0  501    0  0.00000000000E+00  0.00000000000E+00  0.61417393179E+02  0.61417393231E+02  0.25500000000E-02 0.  1.
         -2   -1    0    0    0  501 -0.00000000000E+00 -0.00000000000E+00 -0.37368971775E+03  0.37368971776E+03  0.25500000000E-02 0. -1.
         25    2    1    2    0    0 -0.50439714186E+02  0.93718195513E+02 -0.17438091043E+03  0.23950095297E+03  0.12499895844E+03 0.  0.
         23    2    1    2    0    0  0.50439714186E+02 -0.93718195513E+02 -0.13789141414E+03  0.19560615802E+03  0.88996977624E+02 0.  0.
        -13    1    4    4    0    0 -0.12652479422E+02 -0.10449313507E+02  0.62726630436E+01  0.17567892702E+02  0.10566000000E+00 0.  1.
         13    1    4    4    0    0  0.63092193608E+02 -0.83268882005E+02 -0.14416407718E+03  0.17803826532E+03  0.10566000000E+00 0. -1.
    9000005    1    3    3    0    0 -0.49611304612E+01 -0.18441630755E+02 -0.89870822428E+02  0.91882921614E+02  0.10000000000E+01 0.  0.
    9000005    1    3    3    0    0 -0.45478583725E+02  0.11215982627E+03 -0.84510088004E+02  0.14761803135E+03  0.10000000000E+01 0.  0.
<mgrwt>
<rscale>  0 0.15740520E+03</rscale>
<asrwt>0</asrwt>
<pdfrwt beam="1">  1        2 0.94488300E-02 0.16417066E+03</pdfrwt>
<pdfrwt beam="2">  1       -2 0.57490724E-01 0.16417066E+03</pdfrwt>
<totfact> 0.19400692E+03</totfact>
</mgrwt>
</event>
<event>
 8    3  0.7944584E-004  0.1638396E+03  0.7818608E-02  0.1192701E+00
          2   -1    0    0  501    0  0.00000000000E+00  0.00000000000E+00  0.17202995800E+04  0.17202995800E+04  0.25500000000E-02 0. -1.
         -2   -1    0    0    0  501 -0.00000000000E+00 -0.00000000000E+00 -0.13775008354E+02  0.13775008590E+02  0.25500000000E-02 0.  1.
         25    2    1    2    0    0  0.37399889260E+02  0.99094408737E+02  0.73637153336E+03  0.75437819414E+03  0.12499988436E+03 0.  0.
         23    2    1    2    0    0 -0.37399889260E+02 -0.99094408737E+02  0.97015303825E+03  0.97969639442E+03  0.85963097014E+02 0.  0.
        -13    1    4    4    0    0 -0.24757871274E+02 -0.41727735574E+02  0.15470314340E+03  0.16213337055E+03  0.10566000000E+00 0.  1.
         13    1    4    4    0    0 -0.12642017986E+02 -0.57366673163E+02  0.81544989486E+03  0.81756302387E+03  0.10566000000E+00 0. -1.
    9000005    1    3    3    0    0 -0.18344121063E+01  0.14230752556E+02  0.25299043170E+01  0.14604102230E+02  0.10000000000E+01 0.  0.
    9000005    1    3    3    0    0  0.39234301366E+02  0.84863656181E+02  0.73384162904E+03  0.73977409191E+03  0.10000000000E+01 0.  0.
<mgrwt>
<rscale>  0 0.15650456E+03</rscale>
<asrwt>0</asrwt>
<pdfrwt beam="1">  1        2 0.26466136E+00 0.16383963E+03</pdfrwt>
<pdfrwt beam="2">  1       -2 0.21192330E-02 0.16383963E+03</pdfrwt>
<totfact> 0.73137036E+03</totfact>
</mgrwt>
</event>
<event>
 8    3  0.7944584E-004  0.1579578E+03  0.7818608E-02  0.1198830E+00
         -2   -1    0    0    0  501 -0.00000000000E+00  0.00000000000E+00  0.28565368598E+02  0.28565368712E+02  0.25500000000E-02 0.  1.
          2   -1    0    0  501    0  0.00000000000E+00 -0.00000000000E+00 -0.74729638385E+03  0.74729638385E+03  0.25500000000E-02 0. -1.
         25    2    1    2    0    0 -0.81000731478E+02 -0.52578848753E+02 -0.42375025107E+03  0.45223329189E+03  0.12500008473E+03 0.  0.
         23    2    1    2    0    0  0.81000731478E+02  0.52578848753E+02 -0.29498076418E+03  0.32362846067E+03  0.91630101390E+02 0.  0.
        -13    1    4    4    0    0  0.46660622114E+02 -0.70745987790E+01 -0.20487518665E+03  0.21024061661E+03  0.10566000000E+00 0. -1.
         13    1    4    4    0    0  0.34340109364E+02  0.59653447532E+02 -0.90105577534E+02  0.11338784406E+03  0.10566000000E+00 0.  1.
    9000005    1    3    3    0    0 -0.10484257303E+03 -0.75879883608E+01 -0.25077073152E+03  0.27191267436E+03  0.10000000000E+01 0.  0.
    9000005    1    3    3    0    0  0.23841841556E+02 -0.44990860392E+02 -0.17297951954E+03  0.18032061754E+03  0.10000000000E+01 0.  0.
<mgrwt>
<rscale>  0 0.15134536E+03</rscale>
<asrwt>0</asrwt>
<pdfrwt beam="2">  1        2 0.11496866E+00 0.15795783E+03</pdfrwt>
<pdfrwt beam="1">  1       -2 0.43946727E-02 0.15795783E+03</pdfrwt>
<totfact> 0.89339617E+03</totfact>
</mgrwt>
</event>
<event>
 8    3  0.7944584E-004  0.1741244E+03  0.7818608E-02  0.1179030E+00
          2   -1    0    0  501    0  0.00000000000E+00  0.00000000000E+00  0.18101113916E+03  0.18101113918E+03  0.25500000000E-02 0. -1.
         -2   -1    0    0    0  501 -0.00000000000E+00 -0.00000000000E+00 -0.15161890882E+03  0.15161890884E+03  0.25500000000E-02 0.  1.
         25    2    1    2    0    0  0.42356763802E+01  0.12114860218E+03  0.38457300524E+02  0.17832070138E+03  0.12499753522E+03 0.  0.
         23    2    1    2    0    0 -0.42356763802E+01 -0.12114860218E+03 -0.90650701856E+01  0.15430934664E+03  0.95048799034E+02 0.  0.
        -13    1    4    4    0    0 -0.66793278397E+01 -0.11360915404E+03 -0.41335551267E+02  0.12107969386E+03  0.10566000000E+00 0.  1.
         13    1    4    4    0    0  0.24436514594E+01 -0.75394481419E+01  0.32270481082E+02  0.33229652782E+02  0.10566000000E+00 0. -1.
    9000005    1    3    3    0    0  0.40868125111E+02  0.12513299291E+03  0.48207912830E+02  0.14019084287E+03  0.10000000000E+01 0.  0.
    9000005    1    3    3    0    0 -0.36632448731E+02 -0.39843907292E+01 -0.97506123055E+01  0.38129858508E+02  0.10000000000E+01 0.  0.
<mgrwt>
<rscale>  0 0.16887102E+03</rscale>
<asrwt>0</asrwt>
<pdfrwt beam="1">  1        2 0.27847868E-01 0.17412441E+03</pdfrwt>
<pdfrwt beam="2">  1       -2 0.23325986E-01 0.17412441E+03</pdfrwt>
<totfact> 0.29924075E+03</totfact>
</mgrwt>
</event>
<event>
 8    3  0.7944584E-004  0.2585933E+03  0.7818608E-02  0.1110206E+00
         -2   -1    0    0    0  501 -0.00000000000E+00  0.00000000000E+00  0.88479021280E+02  0.88479021317E+02  0.25500000000E-02 0.  1.
          2   -1    0    0  501    0  0.00000000000E+00 -0.00000000000E+00 -0.75237570179E+03  0.75237570179E+03  0.25500000000E-02 0. -1.
         25    2    1    2    0    0 -0.46742194698E+02 -0.22149274547E+03 -0.24696525393E+03  0.35757840735E+03  0.12500644662E+03 0.  0.
         23    2    1    2    0    0  0.46742194698E+02  0.22149274547E+03 -0.41693142658E+03  0.48327631576E+03  0.92088619473E+02 0.  0.
        -13    1    4    4    0    0  0.75489495653E+01  0.60572476604E+02 -0.44077892765E+02  0.75291987331E+02  0.10566000000E+00 0.  1.
         13    1    4    4    0    0  0.39193245133E+02  0.16092026887E+03 -0.37285353382E+03  0.40798432843E+03  0.10566000000E+00 0. -1.
    9000005    1    3    3    0    0 -0.40145283324E+02 -0.24253056890E+02 -0.78929126073E+01  0.47572603577E+02  0.10000000000E+01 0.  0.
    9000005    1    3    3    0    0 -0.65969113742E+01 -0.19723968858E+03 -0.23907234132E+03  0.31000580378E+03  0.10000000000E+01 0.  0.
<mgrwt>
<rscale>  0 0.25496566E+03</rscale>
<asrwt>0</asrwt>
<pdfrwt beam="2">  1        2 0.11575010E+00 0.25859327E+03</pdfrwt>
<pdfrwt beam="1">  1       -2 0.13612158E-01 0.25859327E+03</pdfrwt>
<totfact> 0.15415580E+03</totfact>
</mgrwt>
</event>
<event>
 8    3  0.7944584E-004  0.1919926E+03  0.7818608E-02  0.1161296E+00
          2   -1    0    0  501    0  0.00000000000E+00  0.00000000000E+00  0.32754328596E+03  0.32754328597E+03  0.25500000000E-02 0.  1.
         -2   -1    0    0    0  501 -0.00000000000E+00 -0.00000000000E+00 -0.10294932502E+03  0.10294932505E+03  0.25500000000E-02 0. -1.
         25    2    1    2    0    0  0.14219112915E+03 -0.31885988121E+02  0.14512911574E+03  0.24067327123E+03  0.12500451911E+03 0.  0.
         23    2    1    2    0    0 -0.14219112915E+03  0.31885988121E+02  0.79464845191E+02  0.18981933979E+03  0.92096073150E+02 0.  0.
        -13    1    4    4    0    0 -0.31087396775E+02 -0.28232131620E+02  0.28821134307E+01  0.42092721888E+02  0.10566000000E+00 0. -1.
         13    1    4    4    0    0 -0.11110373238E+03  0.60118119741E+02  0.76582731761E+02  0.14772661790E+03  0.10566000000E+00 0.  1.
    9000005    1    3    3    0    0  0.10601917566E+03 -0.73778593645E+02  0.13005769052E+03  0.18330125300E+03  0.10000000000E+01 0.  0.
    9000005    1    3    3    0    0  0.36171953492E+02  0.41892605524E+02  0.15071425225E+02  0.57372018226E+02  0.10000000000E+01 0.  0.
<mgrwt>
<rscale>  0 0.18689105E+03</rscale>
<asrwt>0</asrwt>
<pdfrwt beam="1">  1        2 0.50391275E-01 0.19199261E+03</pdfrwt>
<pdfrwt beam="2">  1       -2 0.15838358E-01 0.19199261E+03</pdfrwt>
<totfact> 0.30541970E+03</totfact>
</mgrwt>
</event>
<event>
 8    3  0.7944584E-004  0.1316403E+03  0.7818608E-02  0.1237650E+00
          2   -1    0    0  501    0  0.00000000000E+00  0.00000000000E+00  0.21454544590E+04  0.21454544590E+04  0.25500000000E-02 0.  1.
         -2   -1    0    0    0  501 -0.00000000000E+00 -0.00000000000E+00 -0.66401033350E+01  0.66401038247E+01  0.25500000000E-02 0. -1.
         25    2    1    2    0    0  0.67431796462E+01  0.40724409273E+02  0.97236420704E+03  0.98123459593E+03  0.12500093256E+03 0.  0.
         23    2    1    2    0    0 -0.67431796462E+01 -0.40724409273E+02  0.11664501486E+04  0.11708599669E+04  0.92753247191E+02 0.  0.
        -13    1    4    4    0    0  0.82189862861E+01  0.28683475806E+02  0.41033951841E+03  0.41142292723E+03  0.10566000000E+00 0.  1.
         13    1    4    4    0    0 -0.14962165932E+02 -0.69407885079E+02  0.75611063020E+03  0.75943703964E+03  0.10566000000E+00 0. -1.
    9000005    1    3    3    0    0  0.51241301016E+02  0.27711305390E+02  0.81757364248E+03  0.81964702662E+03  0.10000000000E+01 0.  0.
    9000005    1    3    3    0    0 -0.44498121370E+02  0.13013103883E+02  0.15479056456E+03  0.16158756931E+03  0.10000000000E+01 0.  0.
<mgrwt>
<rscale>  0 0.12336271E+03</rscale>
<asrwt>0</asrwt>
<pdfrwt beam="1">  1        2 0.33007058E+00 0.13164035E+03</pdfrwt>
<pdfrwt beam="2">  1       -2 0.10215523E-02 0.13164035E+03</pdfrwt>
<totfact> 0.12609171E+04</totfact>
</mgrwt>
</event>
<event>
 8    3  0.7944584E-004  0.2391964E+03  0.7818608E-02  0.1123208E+00
         -2   -1    0    0    0  501 -0.00000000000E+00  0.00000000000E+00  0.73515587691E+03  0.73515587692E+03  0.25500000000E-02 0. -1.
          2   -1    0    0  501    0  0.00000000000E+00 -0.00000000000E+00 -0.73971302771E+02  0.73971302815E+02  0.25500000000E-02 0.  1.
         25    2    1    2    0    0 -0.20296554151E+03  0.19878906627E+02  0.39863658070E+03  0.46489358800E+03  0.12499897090E+03 0.  0.
         23    2    1    2    0    0  0.20296554151E+03 -0.19878906627E+02  0.26254799344E+03  0.34423359173E+03  0.89303610469E+02 0.  0.
        -13    1    4    4    0    0  0.11997647689E+03 -0.27632038351E+02  0.89668171334E+02  0.15230980489E+03  0.10566000000E+00 0.  1.
         13    1    4    4    0    0  0.82989064621E+02  0.77531317238E+01  0.17287982211E+03  0.19192378684E+03  0.10566000000E+00 0. -1.
    9000005    1    3    3    0    0 -0.14659422277E+03 -0.22221890685E+02  0.16951683706E+03  0.22521242555E+03  0.10000000000E+01 0.  0.
    9000005    1    3    3    0    0 -0.56371318748E+02  0.42100797312E+02  0.22911974364E+03  0.23968116246E+03  0.10000000000E+01 0.  0.
<mgrwt>
<rscale>  0 0.23494339E+03</rscale>
<asrwt>0</asrwt>
<pdfrwt beam="2">  1        2 0.11380201E-01 0.23919641E+03</pdfrwt>
<pdfrwt beam="1">  1       -2 0.11310090E+00 0.23919641E+03</pdfrwt>
<totfact> 0.34945774E+02</totfact>
</mgrwt>
</event>
<event>
 8    3  0.7944584E-004  0.1474933E+03  0.7818608E-02  0.1213179E+00
         -2   -1    0    0    0  501 -0.00000000000E+00  0.00000000000E+00  0.21295775700E+03  0.21295775702E+03  0.25500000000E-02 0.  1.
          2   -1    0    0  501    0  0.00000000000E+00 -0.00000000000E+00 -0.86236012067E+02  0.86236012105E+02  0.25500000000E-02 0. -1.
         25    2    1    2    0    0 -0.16510146567E+02  0.76530745648E+02  0.46080515464E+02  0.15452403491E+03  0.12499889396E+03 0.  0.
         23    2    1    2    0    0  0.16510146567E+02 -0.76530745648E+02  0.80641229473E+02  0.14466973421E+03  0.91086684739E+02 0.  0.
        -13    1    4    4    0    0 -0.18812234546E+02 -0.81910003850E+02  0.51534464834E+02  0.98584791571E+02  0.10566000000E+00 0.  1.
         13    1    4    4    0    0  0.35322381114E+02  0.53792582022E+01  0.29106764639E+02  0.46084942640E+02  0.10566000000E+00 0. -1.
    9000005    1    3    3    0    0  0.22517902081E+02 -0.58969636812E+01  0.58035858276E+02  0.62537916024E+02  0.10000000000E+01 0.  0.
    9000005    1    3    3    0    0 -0.39028048649E+02  0.82427709330E+02 -0.11955342812E+02  0.91986118890E+02  0.10000000000E+01 0.  0.
<mgrwt>
<rscale>  0 0.14011144E+03</rscale>
<asrwt>0</asrwt>
<pdfrwt beam="2">  1        2 0.13267079E-01 0.14749327E+03</pdfrwt>
<pdfrwt beam="1">  1       -2 0.32762731E-01 0.14749327E+03</pdfrwt>
<totfact> 0.37793703E+03</totfact>
</mgrwt>
</event>
<event>
 8    3  0.7944584E-004  0.1288844E+03  0.7818608E-02  0.1243811E+00
         -2   -1    0    0    0  501 -0.00000000000E+00  0.00000000000E+00  0.50611097766E+02  0.50611097830E+02  0.25500000000E-02 0.  1.
          2   -1    0    0  501    0  0.00000000000E+00 -0.00000000000E+00 -0.25206534339E+03  0.25206534341E+03  0.25500000000E-02 0. -1.
         25    2    1    2    0    0 -0.24510573728E+02  0.19641198527E+02 -0.98064017716E+02  0.16194980405E+03  0.12499857021E+03 0.  0.
         23    2    1    2    0    0  0.24510573728E+02 -0.19641198527E+02 -0.10339022791E+03  0.14072663719E+03  0.90154879421E+02 0.  0.
        -13    1    4    4    0    0 -0.27485266011E+02  0.15196535353E+02 -0.23427031191E+02  0.39181774958E+02  0.10566000000E+00 0.  1.
         13    1    4    4    0    0  0.51995839739E+02 -0.34837733881E+02 -0.79963196719E+02  0.10154486223E+03  0.10566000000E+00 0. -1.
    9000005    1    3    3    0    0  0.38066906657E+02  0.47049449620E+02 -0.44275424305E+02  0.74993688330E+02  0.10000000000E+01 0.  0.
    9000005    1    3    3    0    0 -0.62577480385E+02 -0.27408251092E+02 -0.53788593411E+02  0.86956115716E+02  0.10000000000E+01 0.  0.
<mgrwt>
<rscale>  0 0.11956844E+03</rscale>
<asrwt>0</asrwt>
<pdfrwt beam="2">  1        2 0.38779283E-01 0.12888440E+03</pdfrwt>
<pdfrwt beam="1">  1       -2 0.77863229E-02 0.12888440E+03</pdfrwt>
<totfact> 0.12221311E+04</totfact>
</mgrwt>
</event>
<event>
 8    3  0.7944584E-004  0.1308659E+03  0.7818608E-02  0.1240343E+00
         -2   -1    0    0    0  501 -0.00000000000E+00  0.00000000000E+00  0.13082809652E+03  0.13082809655E+03  0.25500000000E-02 0. -1.
          2   -1    0    0  501    0  0.00000000000E+00 -0.00000000000E+00 -0.10354303711E+03  0.10354303714E+03  0.25500000000E-02 0.  1.
         25    2    1    2    0    0 -0.26087174152E+00 -0.38604906701E+02 -0.60843221336E+01  0.13100729978E+03  0.12504193994E+03 0.  0.
         23    2    1    2    0    0  0.26087174152E+00  0.38604906701E+02  0.33369381552E+02  0.10336383390E+03  0.89889708303E+02 0.  0.
        -13    1    4    4    0    0  0.99119960205E+01 -0.13519412855E+02  0.45923107033E+02  0.48887269434E+02  0.10566000000E+00 0. -1.
         13    1    4    4    0    0 -0.96511242790E+01  0.52124319557E+02 -0.12553725481E+02  0.54476564471E+02  0.10566000000E+00 0.  1.
    9000005    1    3    3    0    0  0.60094462488E+02 -0.22813569644E+01 -0.69966409332E+01  0.60551647341E+02  0.10000000000E+01 0.  0.
    9000005    1    3    3    0    0 -0.60355334229E+02 -0.36323549737E+02  0.91231879960E+00  0.70455652442E+02  0.10000000000E+01 0.  0.
<mgrwt>
<rscale>  0 0.12168504E+03</rscale>
<asrwt>0</asrwt>
<pdfrwt beam="2">  1        2 0.15929698E-01 0.13086594E+03</pdfrwt>
<pdfrwt beam="1">  1       -2 0.20127399E-01 0.13086594E+03</pdfrwt>
<totfact> 0.71155718E+03</totfact>
</mgrwt>
</event>
<event>
 8    3  0.7944584E-004  0.1848399E+03  0.7818608E-02  0.1168584E+00
         -2   -1    0    0    0  501 -0.00000000000E+00  0.00000000000E+00  0.18614282382E+02  0.18614282557E+02  0.25500000000E-02 0.  1.
          2   -1    0    0  501    0  0.00000000000E+00 -0.00000000000E+00 -0.16663137287E+04  0.16663137287E+04  0.25500000000E-02 0. -1.
         25    2    1    2    0    0  0.13501925638E+03 -0.17651710285E+02 -0.10019147495E+04  0.10188223324E+04  0.12499598936E+03 0.  0.
         23    2    1    2    0    0 -0.13501925638E+03  0.17651710285E+02 -0.64578469684E+03  0.66610567883E+03  0.90095051088E+02 0.  0.
        -13    1    4    4    0    0 -0.65010485564E+02 -0.20259567942E+02 -0.16071064434E+03  0.17454150135E+03  0.10566000000E+00 0.  1.
         13    1    4    4    0    0 -0.70008770821E+02  0.37911278228E+02 -0.48507405250E+03  0.49156417748E+03  0.10566000000E+00 0. -1.
    9000005    1    3    3    0    0  0.12745526035E+03 -0.19576006225E+02 -0.48508796807E+03  0.50193565343E+03  0.10000000000E+01 0.  0.
    9000005    1    3    3    0    0  0.75639960371E+01  0.19242959397E+01 -0.51682678141E+03  0.51688667901E+03  0.10000000000E+01 0.  0.
<mgrwt>
<rscale>  0 0.17919547E+03</rscale>
<asrwt>0</asrwt>
<pdfrwt beam="2">  1        2 0.25635584E+00 0.18483988E+03</pdfrwt>
<pdfrwt beam="1">  1       -2 0.28637371E-02 0.18483988E+03</pdfrwt>
<totfact> 0.50240388E+03</totfact>
</mgrwt>
</event>
<event>
 8    3  0.7944584E-004  0.1350637E+03  0.7818608E-02  0.1232283E+00
          2   -1    0    0  501    0  0.00000000000E+00  0.00000000000E+00  0.24250673193E+02  0.24250673327E+02  0.25500000000E-02 0. -1.
         -2   -1    0    0    0  501 -0.00000000000E+00 -0.00000000000E+00 -0.65605707837E+03  0.65605707838E+03  0.25500000000E-02 0.  1.
         25    2    1    2    0    0 -0.16983172609E+02  0.48257179646E+02 -0.45591240179E+03  0.47549797655E+03  0.12500009622E+03 0.  0.
         23    2    1    2    0    0  0.16983172609E+02 -0.48257179646E+02 -0.17589400339E+03  0.20480977516E+03  0.91603275226E+02 0.  0.
        -13    1    4    4    0    0  0.54235669105E+02 -0.37945739900E+02 -0.11475270529E+03  0.13247483351E+03  0.10566000000E+00 0. -1.
         13    1    4    4    0    0 -0.37252496496E+02 -0.10311439746E+02 -0.61141298100E+02  0.72334941641E+02  0.10566000000E+00 0.  1.
    9000005    1    3    3    0    0 -0.42025328837E+02  0.81592871889E+02 -0.34509115838E+03  0.35708883012E+03  0.10000000000E+01 0.  0.
    9000005    1    3    3    0    0  0.25042156228E+02 -0.33335692243E+02 -0.11082124341E+03  0.11840914643E+03  0.10000000000E+01 0.  0.
<mgrwt>
<rscale>  0 0.12680000E+03</rscale>
<asrwt>0</asrwt>
<pdfrwt beam="1">  1        2 0.37308733E-02 0.13506372E+03</pdfrwt>
<pdfrwt beam="2">  1       -2 0.10093184E+00 0.13506372E+03</pdfrwt>
<totfact> 0.18764570E+03</totfact>
</mgrwt>
</event>
<event>
 8    3  0.7944584E-004  0.5144644E+03  0.7818608E-02  0.1010518E+00
          2   -1    0    0  501    0  0.00000000000E+00  0.00000000000E+00  0.46259598656E+03  0.46259598657E+03  0.25500000000E-02 0. -1.
         -2   -1    0    0    0  501 -0.00000000000E+00 -0.00000000000E+00 -0.58073365181E+03  0.58073365182E+03  0.25500000000E-02 0.  1.
         25    2    1    2    0    0  0.90000394376E+02 -0.49087885182E+03 -0.14713476876E+03  0.53509091026E+03  0.12494608401E+03 0.  0.
         23    2    1    2    0    0 -0.90000394376E+02  0.49087885182E+03  0.28997103511E+02  0.50823872813E+03  0.91671449210E+02 0.  0.
        -13    1    4    4    0    0 -0.66139147663E+01  0.11992669557E+03  0.43525742780E+02  0.12775232924E+03  0.10566000000E+00 0. -1.
         13    1    4    4    0    0 -0.83386479609E+02  0.37095215626E+03 -0.14528639269E+02  0.38048639888E+03  0.10566000000E+00 0.  1.
    9000005    1    3    3    0    0  0.34224554890E+02 -0.12793627754E+03 -0.97694582425E+02  0.16457290999E+03  0.10000000000E+01 0.  0.
    9000005    1    3    3    0    0  0.55775839485E+02 -0.36294257428E+03 -0.49440186339E+02  0.37051800027E+03  0.10000000000E+01 0.  0.
<mgrwt>
<rscale>  0 0.51269189E+03</rscale>
<asrwt>0</asrwt>
<pdfrwt beam="1">  1        2 0.71168613E-01 0.51446442E+03</pdfrwt>
<pdfrwt beam="2">  1       -2 0.89343639E-01 0.51446442E+03</pdfrwt>
<totfact> 0.74416582E+01</totfact>
</mgrwt>
</event>
<event>
 8    3  0.7944584E-004  0.1357935E+03  0.7818608E-02  0.1231110E+00
         -2   -1    0    0    0  501 -0.00000000000E+00  0.00000000000E+00  0.25615394272E+02  0.25615394399E+02  0.25500000000E-02 0.  1.
          2   -1    0    0  501    0  0.00000000000E+00 -0.00000000000E+00 -0.57571546492E+03  0.57571546493E+03  0.25500000000E-02 0. -1.
         25    2    1    2    0    0  0.11330241612E+02 -0.51798890167E+02 -0.27780792940E+03  0.30922020171E+03  0.12501355170E+03 0.  0.
         23    2    1    2    0    0 -0.11330241612E+02  0.51798890167E+02 -0.27229214125E+03  0.29211065762E+03  0.91510254676E+02 0.  0.
        -13    1    4    4    0    0  0.17870388407E+02  0.43612886214E+02 -0.53806350110E+02  0.71530197133E+02  0.10566000000E+00 0.  1.
         13    1    4    4    0    0 -0.29200630018E+02  0.81860039531E+01 -0.21848579114E+03  0.22058046049E+03  0.10566000000E+00 0. -1.
    9000005    1    3    3    0    0 -0.20978136246E+02  0.30749062205E+02 -0.14380087671E+03  0.14854386278E+03  0.10000000000E+01 0.  0.
    9000005    1    3    3    0    0  0.32308377858E+02 -0.82547952372E+02 -0.13400705269E+03  0.16067633893E+03  0.10000000000E+01 0.  0.
<mgrwt>
<rscale>  0 0.12756804E+03</rscale>
<asrwt>0</asrwt>
<pdfrwt beam="2">  1        2 0.88571601E-01 0.13579355E+03</pdfrwt>
<pdfrwt beam="1">  1       -2 0.39408303E-02 0.13579355E+03</pdfrwt>
<totfact> 0.14121815E+04</totfact>
</mgrwt>
</event>
<event>
 8    3  0.7944584E-004  0.1264154E+03  0.7818608E-02  0.1249921E+00
          2   -1    0    0  501    0  0.00000000000E+00  0.00000000000E+00  0.22801316601E+04  0.22801316601E+04  0.25500000000E-02 0. -1.
         -2   -1    0    0    0  501 -0.00000000000E+00 -0.00000000000E+00 -0.55066192256E+01  0.55066198160E+01  0.25500000000E-02 0.  1.
         25    2    1    2    0    0 -0.73515278580E+01  0.17381150174E+02  0.10157409258E+04  0.10235772942E+04  0.12499879808E+03 0.  0.
         23    2    1    2    0    0  0.73515278580E+01 -0.17381150174E+02  0.12588841151E+04  0.12620609857E+04  0.87478952501E+02 0.  0.
        -13    1    4    4    0    0 -0.98984662904E+01  0.10771275873E+02  0.37822796072E+02  0.40553360966E+02  0.10566000000E+00 0.  1.
         13    1    4    4    0    0  0.17249994148E+02 -0.28152426047E+02  0.12210613190E+04  0.12215076247E+04  0.10566000000E+00 0. -1.
    9000005    1    3    3    0    0 -0.24078262075E+02  0.67056864861E+02  0.47720454663E+03  0.48249514521E+03  0.10000000000E+01 0.  0.
    9000005    1    3    3    0    0  0.16726734217E+02 -0.49675714687E+02  0.53853637917E+03  0.54108214899E+03  0.10000000000E+01 0.  0.
<mgrwt>
<rscale>  0 0.11595656E+03</rscale>
<asrwt>0</asrwt>
<pdfrwt beam="1">  1        2 0.35078866E+00 0.12641538E+03</pdfrwt>
<pdfrwt beam="2">  1       -2 0.84717423E-03 0.12641538E+03</pdfrwt>
<totfact> 0.14009581E+04</totfact>
</mgrwt>
</event>
<event>
 8    3  0.7944584E-004  0.1591726E+03  0.7818608E-02  0.1197864E+00
         -2   -1    0    0    0  501 -0.00000000000E+00  0.00000000000E+00  0.82323853898E+02  0.82323853938E+02  0.25500000000E-02 0.  1.
          2   -1    0    0  501    0  0.00000000000E+00 -0.00000000000E+00 -0.26234543546E+03  0.26234543547E+03  0.25500000000E-02 0. -1.
         25    2    1    2    0    0  0.66972810374E+02 -0.72283476500E+02 -0.11741455427E+03  0.19779306606E+03  0.12500264446E+03 0.  0.
         23    2    1    2    0    0 -0.66972810374E+02  0.72283476500E+02 -0.62607027291E+02  0.14687622335E+03  0.89121977174E+02 0.  0.
        -13    1    4    4    0    0 -0.58390686618E+02  0.29062598602E+02  0.58261533235E+01  0.65483296708E+02  0.10566000000E+00 0.  1.
         13    1    4    4    0    0 -0.85821237562E+01  0.43220877898E+02 -0.68433180615E+02  0.81392926643E+02  0.10566000000E+00 0. -1.
    9000005    1    3    3    0    0  0.12300459870E+02 -0.66206793781E+02  0.85515582250E+00  0.67352595698E+02  0.10000000000E+01 0.  0.
    9000005    1    3    3    0    0  0.54672350504E+02 -0.60766827193E+01 -0.11826971009E+03  0.13044047036E+03  0.10000000000E+01 0.  0.
<mgrwt>
<rscale>  0 0.15214354E+03</rscale>
<asrwt>0</asrwt>
<pdfrwt beam="2">  1        2 0.40360836E-01 0.15917261E+03</pdfrwt>
<pdfrwt beam="1">  1       -2 0.12665208E-01 0.15917261E+03</pdfrwt>
<totfact> 0.55289498E+03</totfact>
</mgrwt>
</event>
<event>
 8    3  0.7944584E-004  0.2095441E+03  0.7818608E-02  0.1145859E+00
          2   -1    0    0  501    0  0.00000000000E+00  0.00000000000E+00  0.89014051296E+03  0.89014051296E+03  0.25500000000E-02 0. -1.
         -2   -1    0    0    0  501 -0.00000000000E+00 -0.00000000000E+00 -0.80056749441E+02  0.80056749482E+02  0.25500000000E-02 0.  1.
         25    2    1    2    0    0  0.15111568210E+03  0.73808999834E+02  0.94916370229E+02  0.23003882634E+03  0.12500010581E+03 0.  0.
         23    2    1    2    0    0 -0.15111568210E+03 -0.73808999834E+02  0.71516739329E+03  0.74015843611E+03  0.89924369821E+02 0.  0.
        -13    1    4    4    0    0 -0.10911480347E+02 -0.29748169596E+02  0.51932710617E+02  0.60836104360E+02  0.10566000000E+00 0.  1.
         13    1    4    4    0    0 -0.14020420175E+03 -0.44060830238E+02  0.66323468267E+03  0.67932233175E+03  0.10566000000E+00 0. -1.
    9000005    1    3    3    0    0  0.93851724710E+01  0.22452510002E+02  0.73923795633E+02  0.77832668131E+02  0.10000000000E+01 0.  0.
    9000005    1    3    3    0    0  0.14173050963E+03  0.51356489833E+02  0.20992574597E+02  0.15220615820E+03  0.10000000000E+01 0.  0.
<mgrwt>
<rscale>  0 0.20466789E+03</rscale>
<asrwt>0</asrwt>
<pdfrwt beam="1">  1        2 0.13694470E+00 0.20954413E+03</pdfrwt>
<pdfrwt beam="2">  1       -2 0.12316422E-01 0.20954413E+03</pdfrwt>
<totfact> 0.14603407E+03</totfact>
</mgrwt>
</event>
<event>
 8    3  0.7944584E-004  0.1521186E+03  0.7818608E-02  0.1206520E+00
         -2   -1    0    0    0  501 -0.00000000000E+00  0.00000000000E+00  0.14295952735E+03  0.14295952737E+03  0.25500000000E-02 0.  1.
          2   -1    0    0  501    0  0.00000000000E+00 -0.00000000000E+00 -0.15570057936E+03  0.15570057938E+03  0.25500000000E-02 0. -1.
         25    2    1    2    0    0 -0.16214079359E+02  0.85163758361E+02 -0.60501823355E+02  0.16370874021E+03  0.12499727551E+03 0.  0.
         23    2    1    2    0    0  0.16214079359E+02 -0.85163758361E+02  0.47760771345E+02  0.13495136654E+03  0.91733406918E+02 0.  0.
        -13    1    4    4    0    0  0.43446043509E+02 -0.45895241043E+02  0.58338353300E+02  0.86007595460E+02  0.10566000000E+00 0.  1.
         13    1    4    4    0    0 -0.27231964150E+02 -0.39268517318E+02 -0.10577581955E+02  0.48943771083E+02  0.10566000000E+00 0. -1.
    9000005    1    3    3    0    0  0.16940840672E+02  0.33957327459E+02  0.34173534399E+02  0.51077613728E+02  0.10000000000E+01 0.  0.
    9000005    1    3    3    0    0 -0.33154920032E+02  0.51206430902E+02 -0.94675357753E+02  0.11263112649E+03  0.10000000000E+01 0.  0.
<mgrwt>
<rscale>  0 0.14518323E+03</rscale>
<asrwt>0</asrwt>
<pdfrwt beam="2">  1        2 0.23953935E-01 0.15211864E+03</pdfrwt>
<pdfrwt beam="1">  1       -2 0.21993773E-01 0.15211864E+03</pdfrwt>
<totfact> 0.38863946E+03</totfact>
</mgrwt>
</event>
<event>
 8    3  0.7944584E-004  0.1339446E+03  0.7818608E-02  0.1234412E+00
         -2   -1    0    0    0  501 -0.00000000000E+00  0.00000000000E+00  0.67296150322E+02  0.67296150370E+02  0.25500000000E-02 0.  1.
          2   -1    0    0  501    0  0.00000000000E+00 -0.00000000000E+00 -0.21219163674E+03  0.21219163676E+03  0.25500000000E-02 0. -1.
         25    2    1    2    0    0  0.45069958109E+02  0.17005926126E+02 -0.63512467444E+02  0.14823966351E+03  0.12498264547E+03 0.  0.
         23    2    1    2    0    0 -0.45069958109E+02 -0.17005926126E+02 -0.81383018974E+02  0.13124812362E+03  0.91007535562E+02 0.  0.
        -13    1    4    4    0    0  0.11065190242E+02  0.14819183575E+02  0.86990331041E+01  0.20438468091E+02  0.10566000000E+00 0.  1.
         13    1    4    4    0    0 -0.56135148351E+02 -0.31825109701E+02 -0.90082052078E+02  0.11080965553E+03  0.10566000000E+00 0. -1.
    9000005    1    3    3    0    0  0.20896497421E+02 -0.49651765558E+02 -0.54703904173E+02  0.76782019765E+02  0.10000000000E+01 0.  0.
    9000005    1    3    3    0    0  0.24173460688E+02  0.66657691684E+02 -0.88085632718E+01  0.71457643742E+02  0.10000000000E+01 0.  0.
<mgrwt>
<rscale>  0 0.12542148E+03</rscale>
<asrwt>0</asrwt>
<pdfrwt beam="2">  1        2 0.32644867E-01 0.13394463E+03</pdfrwt>
<pdfrwt beam="1">  1       -2 0.10353254E-01 0.13394463E+03</pdfrwt>
<totfact> 0.94577219E+03</totfact>
</mgrwt>
</event>
<event>
 8    3  0.7944584E-004  0.1556299E+03  0.7818608E-02  0.1201890E+00
          2   -1    0    0  501    0  0.00000000000E+00  0.00000000000E+00  0.65693108534E+03  0.65693108534E+03  0.25500000000E-02 0. -1.
         -2   -1    0    0    0  501 -0.00000000000E+00 -0.00000000000E+00 -0.45363623666E+02  0.45363623738E+02  0.25500000000E-02 0.  1.
         25    2    1    2    0    0  0.92634716212E+02  0.37651903037E+01  0.52077310621E+03  0.54353040370E+03  0.12500121712E+03 0.  0.
         23    2    1    2    0    0 -0.92634716212E+02 -0.37651903037E+01  0.90794355456E+02  0.15876430538E+03  0.91471975900E+02 0.  0.
        -13    1    4    4    0    0 -0.27752781671E+02 -0.44864025429E+02  0.45033723947E+02  0.69361697822E+02  0.10566000000E+00 0.  1.
         13    1    4    4    0    0 -0.64881934541E+02  0.41098835125E+02  0.45760631509E+02  0.89402607560E+02  0.10566000000E+00 0. -1.
    9000005    1    3    3    0    0  0.73716931584E+02 -0.13293771176E+02  0.51062654159E+03  0.51609240968E+03  0.10000000000E+01 0.  0.
    9000005    1    3    3    0    0  0.18917784628E+02  0.17058961480E+02  0.10146564627E+02  0.27437994018E+02  0.10000000000E+01 0.  0.
<mgrwt>
<rscale>  0 0.14885246E+03</rscale>
<asrwt>0</asrwt>
<pdfrwt beam="1">  1        2 0.10106631E+00 0.15562992E+03</pdfrwt>
<pdfrwt beam="2">  1       -2 0.69790197E-02 0.15562992E+03</pdfrwt>
<totfact> 0.51664469E+03</totfact>
</mgrwt>
</event>
<event>
 8    3  0.7944584E-004  0.1765469E+03  0.7818608E-02  0.1176295E+00
         -2   -1    0    0    0  501 -0.00000000000E+00  0.00000000000E+00  0.32672984290E+02  0.32672984390E+02  0.25500000000E-02 0.  1.
          2   -1    0    0  501    0  0.00000000000E+00 -0.00000000000E+00 -0.19443719945E+04  0.19443719945E+04  0.25500000000E-02 0. -1.
         25    2    1    2    0    0 -0.11845653912E+03  0.38868236539E+02 -0.17204304687E+04  0.17294651768E+04  0.12500443527E+03 0.  0.
         23    2    1    2    0    0  0.11845653912E+03 -0.38868236539E+02 -0.19126854156E+03  0.24757980209E+03  0.95757046428E+02 0.  0.
        -13    1    4    4    0    0  0.21085077232E+02  0.30188278311E+02 -0.33844376074E+02  0.50013653987E+02  0.10566000000E+00 0.  1.
         13    1    4    4    0    0  0.97371461887E+02 -0.69056514850E+02 -0.15742416548E+03  0.19756614810E+03  0.10566000000E+00 0. -1.
    9000005    1    3    3    0    0 -0.27991438449E+02 -0.45086228218E+02 -0.49953761096E+03  0.50234959278E+03  0.10000000000E+01 0.  0.
    9000005    1    3    3    0    0 -0.90465100669E+02  0.83954464758E+02 -0.12208928577E+04  0.12271155841E+04  0.10000000000E+01 0.  0.
<mgrwt>
<rscale>  0 0.17149788E+03</rscale>
<asrwt>0</asrwt>
<pdfrwt beam="2">  1        2 0.29913406E+00 0.17654688E+03</pdfrwt>
<pdfrwt beam="1">  1       -2 0.50266145E-02 0.17654688E+03</pdfrwt>
<totfact> 0.15564821E+03</totfact>
</mgrwt>
</event>
<event>
 8    3  0.7944584E-004  0.1340769E+03  0.7818608E-02  0.1233723E+00
          2   -1    0    0  501    0  0.00000000000E+00  0.00000000000E+00  0.24238254162E+02  0.24238254296E+02  0.25500000000E-02 0. -1.
         -2   -1    0    0    0  501 -0.00000000000E+00 -0.00000000000E+00 -0.78711112878E+03  0.78711112879E+03  0.25500000000E-02 0.  1.
         25    2    1    2    0    0  0.33389643871E+02 -0.35177989178E+02 -0.62132908867E+03  0.63563075574E+03  0.12499704785E+03 0.  0.
         23    2    1    2    0    0 -0.33389643871E+02  0.35177989178E+02 -0.14154378595E+03  0.17571862735E+03  0.92141377319E+02 0.  0.
        -13    1    4    4    0    0  0.12986750653E+01  0.16663244063E+02 -0.13479021983E+03  0.13582254888E+03  0.10566000000E+00 0.  1.
         13    1    4    4    0    0 -0.34688318936E+02  0.18514745115E+02 -0.67535661235E+01  0.39896078463E+02  0.10566000000E+00 0. -1.
    9000005    1    3    3    0    0  0.15129161138E+02 -0.73540698894E+02 -0.22876262892E+03  0.24077056776E+03  0.10000000000E+01 0.  0.
    9000005    1    3    3    0    0  0.18260482733E+02  0.38362709716E+02 -0.39256645975E+03  0.39486018797E+03  0.10000000000E+01 0.  0.
<mgrwt>
<rscale>  0 0.12586534E+03</rscale>
<asrwt>0</asrwt>
<pdfrwt beam="1">  1        2 0.37289628E-02 0.13407692E+03</pdfrwt>
<pdfrwt beam="2">  1       -2 0.12109400E+00 0.13407692E+03</pdfrwt>
<totfact> 0.12220453E+03</totfact>
</mgrwt>
</event>
<event>
 8    3  0.7944584E-004  0.1446452E+03  0.7818608E-02  0.1218564E+00
          2   -1    0    0  501    0  0.00000000000E+00  0.00000000000E+00  0.16120505577E+04  0.16120505577E+04  0.25500000000E-02 0. -1.
         -2   -1    0    0    0  501 -0.00000000000E+00 -0.00000000000E+00 -0.12399486546E+02  0.12399486809E+02  0.25500000000E-02 0.  1.
         25    2    1    2    0    0 -0.72458072639E+02  0.69296535056E+01  0.12084894876E+04  0.12171150639E+04  0.12499617914E+03 0.  0.
         23    2    1    2    0    0  0.72458072639E+02 -0.69296535056E+01  0.39116158360E+03  0.40733498064E+03  0.87270897643E+02 0.  0.
        -13    1    4    4    0    0  0.64824444567E+02 -0.29563823322E+01  0.12328622680E+03  0.13932140429E+03  0.10566000000E+00 0.  1.
         13    1    4    4    0    0  0.76336280720E+01 -0.39732711735E+01  0.26787535681E+03  0.26801357635E+03  0.10566000000E+00 0. -1.
    9000005    1    3    3    0    0 -0.20809519221E+02  0.45716347310E+02  0.92480246413E+03  0.92616608562E+03  0.10000000000E+01 0.  0.
    9000005    1    3    3    0    0 -0.51648553418E+02 -0.38786693805E+02  0.28368702343E+03  0.29094897826E+03  0.10000000000E+01 0.  0.
<mgrwt>
<rscale>  0 0.13617969E+03</rscale>
<asrwt>0</asrwt>
<pdfrwt beam="1">  1        2 0.24800789E+00 0.14464521E+03</pdfrwt>
<pdfrwt beam="2">  1       -2 0.19076125E-02 0.14464521E+03</pdfrwt>
<totfact> 0.96571056E+03</totfact>
</mgrwt>
</event>
<event>
 8    3  0.7944584E-004  0.1287590E+03  0.7818608E-02  0.1242296E+00
          2   -1    0    0  501    0  0.00000000000E+00  0.00000000000E+00  0.10416306989E+03  0.10416306992E+03  0.25500000000E-02 0. -1.
         -2   -1    0    0    0  501 -0.00000000000E+00 -0.00000000000E+00 -0.13983784437E+03  0.13983784440E+03  0.25500000000E-02 0.  1.
         25    2    1    2    0    0 -0.27820115147E+02  0.13434388995E+02  0.20549365512E+02  0.13038848251E+03  0.12499775331E+03 0.  0.
         23    2    1    2    0    0  0.27820115147E+02 -0.13434388995E+02 -0.56224139996E+02  0.11361243181E+03  0.93766673871E+02 0.  0.
        -13    1    4    4    0    0  0.71125375819E+01  0.12932375259E+02 -0.74143037187E+02  0.75597854784E+02  0.10566000000E+00 0.  1.
         13    1    4    4    0    0  0.20707577565E+02 -0.26366764254E+02  0.17918897191E+02  0.38014577025E+02  0.10566000000E+00 0. -1.
    9000005    1    3    3    0    0 -0.76490516670E+02  0.66983545217E+01  0.25696521483E+02  0.80975170948E+02  0.10000000000E+01 0.  0.
    9000005    1    3    3    0    0  0.48670401523E+02  0.67360344734E+01 -0.51471559708E+01  0.49413311561E+02  0.10000000000E+01 0.  0.
<mgrwt>
<rscale>  0 0.12048695E+03</rscale>
<asrwt>0</asrwt>
<pdfrwt beam="1">  1        2 0.16025088E-01 0.12875900E+03</pdfrwt>
<pdfrwt beam="2">  1       -2 0.21513515E-01 0.12875900E+03</pdfrwt>
<totfact> 0.63024903E+03</totfact>
</mgrwt>
</event>
<event>
 8    3  0.7944584E-004  0.1255634E+03  0.7818608E-02  0.1248098E+00
          2   -1    0    0  501    0  0.00000000000E+00  0.00000000000E+00  0.11580351933E+04  0.11580351933E+04  0.25500000000E-02 0. -1.
         -2   -1    0    0    0  501 -0.00000000000E+00 -0.00000000000E+00 -0.10777221970E+02  0.10777222272E+02  0.25500000000E-02 0.  1.
         25    2    1    2    0    0 -0.11170593483E+02  0.40721946606E+01  0.74856447930E+03  0.75902236515E+03  0.12499922481E+03 0.  0.
         23    2    1    2    0    0  0.11170593483E+02 -0.40721946606E+01  0.39869349206E+03  0.40979005045E+03  0.93968185631E+02 0.  0.
        -13    1    4    4    0    0  0.15296417782E+01 -0.47760334326E+02  0.24942130031E+03  0.25395744830E+03  0.10566000000E+00 0.  1.
         13    1    4    4    0    0  0.96409517044E+01  0.43688139665E+02  0.14927219175E+03  0.15583260215E+03  0.10566000000E+00 0. -1.
    9000005    1    3    3    0    0  0.19173792872E+02 -0.50051960389E+02  0.20373088147E+03  0.21066586134E+03  0.10000000000E+01 0.  0.
    9000005    1    3    3    0    0 -0.30344386354E+02  0.54124155049E+02  0.54483359783E+03  0.54835650381E+03  0.10000000000E+01 0.  0.
<mgrwt>
<rscale>  0 0.11701857E+03</rscale>
<asrwt>0</asrwt>
<pdfrwt beam="1">  1        2 0.17815918E+00 0.12556341E+03</pdfrwt>
<pdfrwt beam="2">  1       -2 0.16580349E-02 0.12556341E+03</pdfrwt>
<totfact> 0.20479608E+04</totfact>
</mgrwt>
</event>
<event>
 8    3  0.7944584E-004  0.2015602E+03  0.7818608E-02  0.1152868E+00
          2   -1    0    0  501    0  0.00000000000E+00  0.00000000000E+00  0.12899440890E+04  0.12899440890E+04  0.25500000000E-02 0. -1.
         -2   -1    0    0    0  501 -0.00000000000E+00 -0.00000000000E+00 -0.31090046468E+02  0.31090046573E+02  0.25500000000E-02 0.  1.
         25    2    1    2    0    0  0.15798894611E+03 -0.65967322889E+01  0.85249514923E+03  0.87599914844E+03  0.12499001815E+03 0.  0.
         23    2    1    2    0    0 -0.15798894611E+03  0.65967322889E+01  0.40635889333E+03  0.44503498716E+03  0.89020029440E+02 0.  0.
        -13    1    4    4    0    0 -0.49042049105E+02  0.15714157155E+02  0.48106092728E+02  0.70471729347E+02  0.10566000000E+00 0.  1.
         13    1    4    4    0    0 -0.10894689700E+03 -0.91174248659E+01  0.35825280060E+03  0.37456325782E+03  0.10566000000E+00 0. -1.
    9000005    1    3    3    0    0  0.11550382203E+03 -0.25838266471E+02  0.31533825571E+03  0.33682037414E+03  0.10000000000E+01 0.  0.
    9000005    1    3    3    0    0  0.42485124078E+02  0.19241534182E+02  0.53715689351E+03  0.53917877430E+03  0.10000000000E+01 0.  0.
<mgrwt>
<rscale>  0 0.19633616E+03</rscale>
<asrwt>0</asrwt>
<pdfrwt beam="1">  1        2 0.19845291E+00 0.20156024E+03</pdfrwt>
<pdfrwt beam="2">  1       -2 0.47830848E-02 0.20156024E+03</pdfrwt>
<totfact> 0.37057344E+03</totfact>
</mgrwt>
</event>
<event>
 8    3  0.7944584E-004  0.1297733E+03  0.7818608E-02  0.1241312E+00
          2   -1    0    0  501    0  0.00000000000E+00  0.00000000000E+00  0.61308477395E+02  0.61308477448E+02  0.25500000000E-02 0. -1.
         -2   -1    0    0    0  501 -0.00000000000E+00 -0.00000000000E+00 -0.25229939915E+03  0.25229939916E+03  0.25500000000E-02 0.  1.
         25    2    1    2    0    0  0.34432113235E+02  0.55198977046E+01 -0.16853568277E+03  0.21270961319E+03  0.12500025393E+03 0.  0.
         23    2    1    2    0    0 -0.34432113235E+02 -0.55198977046E+01 -0.22455238987E+02  0.10089826342E+03  0.91979248267E+02 0.  0.
        -13    1    4    4    0    0 -0.31222903603E+02 -0.16622562268E+02  0.30494206025E+02  0.46702109705E+02  0.10566000000E+00 0. -1.
         13    1    4    4    0    0 -0.32092096319E+01  0.11102664564E+02 -0.52949445012E+02  0.54196153720E+02  0.10566000000E+00 0.  1.
    9000005    1    3    3    0    0 -0.18898225807E+02  0.25770893432E+02 -0.14901723391E+03  0.15240871986E+03  0.10000000000E+01 0.  0.
    9000005    1    3    3    0    0  0.53330339042E+02 -0.20250995727E+02 -0.19518448858E+02  0.60300893328E+02  0.10000000000E+01 0.  0.
<mgrwt>
<rscale>  0 0.12108830E+03</rscale>
<asrwt>0</asrwt>
<pdfrwt beam="1">  1        2 0.94320736E-02 0.12977328E+03</pdfrwt>
<pdfrwt beam="2">  1       -2 0.38815292E-01 0.12977328E+03</pdfrwt>
<totfact> 0.41404216E+03</totfact>
</mgrwt>
</event>
<event>
 8    3  0.7944584E-004  0.1369232E+03  0.7818608E-02  0.1228953E+00
         -2   -1    0    0    0  501 -0.00000000000E+00  0.00000000000E+00  0.22167496114E+02  0.22167496261E+02  0.25500000000E-02 0.  1.
          2   -1    0    0  501    0  0.00000000000E+00 -0.00000000000E+00 -0.68692109642E+03  0.68692109643E+03  0.25500000000E-02 0. -1.
         25    2    1    2    0    0 -0.55606952858E+02 -0.55728113512E+01 -0.41604601831E+03  0.43799799873E+03  0.12499907242E+03 0.  0.
         23    2    1    2    0    0  0.55606952858E+02  0.55728113512E+01 -0.24870758200E+03  0.27109059396E+03  0.92257570733E+02 0.  0.
        -13    1    4    4    0    0  0.10049228256E+02 -0.25772370059E+01 -0.21137416858E+03  0.21162863570E+03  0.10566000000E+00 0. -1.
         13    1    4    4    0    0  0.45557724602E+02  0.81500483571E+01 -0.37333413417E+02  0.59461958263E+02  0.10566000000E+00 0.  1.
    9000005    1    3    3    0    0  0.10760345676E+02 -0.96774236068E+01  0.20460963062E+01  0.14650053817E+02  0.10000000000E+01 0.  0.
    9000005    1    3    3    0    0 -0.66367298534E+02  0.41046122557E+01 -0.41809211462E+03  0.42334794491E+03  0.10000000000E+01 0.  0.
<mgrwt>
<rscale>  0 0.12899619E+03</rscale>
<asrwt>0</asrwt>
<pdfrwt beam="2">  1        2 0.10568015E+00 0.13692318E+03</pdfrwt>
<pdfrwt beam="1">  1       -2 0.34103846E-02 0.13692318E+03</pdfrwt>
<totfact> 0.14280535E+04</totfact>
</mgrwt>
</event>
<event>
 8    3  0.7944584E-004  0.1317170E+03  0.7818608E-02  0.1239367E+00
         -2   -1    0    0    0  501 -0.00000000000E+00  0.00000000000E+00  0.42632443543E+02  0.42632443619E+02  0.25500000000E-02 0.  1.
          2   -1    0    0  501    0  0.00000000000E+00 -0.00000000000E+00 -0.31593488491E+03  0.31593488492E+03  0.25500000000E-02 0. -1.
         25    2    1    2    0    0 -0.21518098255E+02  0.35504975337E+02 -0.13025047840E+03  0.18524189931E+03  0.12500296921E+03 0.  0.
         23    2    1    2    0    0  0.21518098255E+02 -0.35504975337E+02 -0.14305196297E+03  0.17332542923E+03  0.88623972396E+02 0.  0.
        -13    1    4    4    0    0 -0.10330398669E+02 -0.20865424018E+02  0.26805721052E+01  0.23436716642E+02  0.10566000000E+00 0.  1.
         13    1    4    4    0    0  0.31848496923E+02 -0.14639551320E+02 -0.14573253507E+03  0.14988871259E+03  0.10566000000E+00 0. -1.
    9000005    1    3    3    0    0  0.29539411422E+02  0.17866166981E+02 -0.12644897062E+03  0.13108058179E+03  0.10000000000E+01 0.  0.
    9000005    1    3    3    0    0 -0.51057509676E+02  0.17638808356E+02 -0.38015077788E+01  0.54161317524E+02  0.10000000000E+01 0.  0.
<mgrwt>
<rscale>  0 0.12228970E+03</rscale>
<asrwt>0</asrwt>
<pdfrwt beam="2">  1        2 0.48605365E-01 0.13171702E+03</pdfrwt>
<pdfrwt beam="1">  1       -2 0.65588377E-02 0.13171702E+03</pdfrwt>
<totfact> 0.12533947E+04</totfact>
</mgrwt>
</event>
<event>
 8    3  0.7944584E-004  0.1479943E+03  0.7818608E-02  0.1212526E+00
         -2   -1    0    0    0  501 -0.00000000000E+00  0.00000000000E+00  0.85635694927E+01  0.85635698724E+01  0.25500000000E-02 0.  1.
          2   -1    0    0  501    0  0.00000000000E+00 -0.00000000000E+00 -0.21722936839E+04  0.21722936839E+04  0.25500000000E-02 0. -1.
         25    2    1    2    0    0  0.30153242193E+02 -0.73265555501E+02 -0.13794088592E+04  0.13873251622E+04  0.12500098057E+03 0.  0.
         23    2    1    2    0    0 -0.30153242193E+02  0.73265555501E+02 -0.78432125524E+03  0.79353209162E+03  0.90864125928E+02 0.  0.
        -13    1    4    4    0    0  0.31928000551E+02  0.28104256175E+02 -0.33656918831E+03  0.33924633545E+03  0.10566000000E+00 0. -1.
         13    1    4    4    0    0 -0.62081242744E+02  0.45161299326E+02 -0.44775206693E+03  0.45428575617E+03  0.10566000000E+00 0.  1.
    9000005    1    3    3    0    0  0.38929709212E+02 -0.91058025005E+01 -0.12492203526E+03  0.13116765147E+03  0.10000000000E+01 0.  0.
    9000005    1    3    3    0    0 -0.87764670189E+01 -0.64159753001E+02 -0.12544868239E+04  0.12561575107E+04  0.10000000000E+01 0.  0.
<mgrwt>
<rscale>  0 0.14059808E+03</rscale>
<asrwt>0</asrwt>
<pdfrwt beam="2">  1        2 0.33419859E+00 0.14799427E+03</pdfrwt>
<pdfrwt beam="1">  1       -2 0.13174740E-02 0.14799427E+03</pdfrwt>
<totfact> 0.85052799E+03</totfact>
</mgrwt>
</event>
<event>
 8    3  0.7944584E-004  0.1467757E+03  0.7818608E-02  0.1212622E+00
         -2   -1    0    0    0  501 -0.00000000000E+00  0.00000000000E+00  0.15355985777E+03  0.15355985779E+03  0.25500000000E-02 0. -1.
          2   -1    0    0  501    0  0.00000000000E+00 -0.00000000000E+00 -0.14115863510E+03  0.14115863512E+03  0.25500000000E-02 0.  1.
         25    2    1    2    0    0  0.70583303221E+02  0.30362178534E+02  0.65142912634E+02  0.16058237875E+03  0.12505693391E+03 0.  0.
         23    2    1    2    0    0 -0.70583303221E+02 -0.30362178534E+02 -0.52741689963E+02  0.13413611417E+03  0.96472517769E+02 0.  0.
        -13    1    4    4    0    0 -0.44024505442E+02 -0.64949377884E+02 -0.42920869128E+02  0.89435959981E+02  0.10566000000E+00 0.  1.
         13    1    4    4    0    0 -0.26558797779E+02  0.34587199350E+02 -0.98208208348E+01  0.44700154186E+02  0.10566000000E+00 0. -1.
    9000005    1    3    3    0    0  0.15371810946E+01  0.58621988090E+02  0.62806698844E+02  0.85933589667E+02  0.10000000000E+01 0.  0.
    9000005    1    3    3    0    0  0.69046122127E+02 -0.28259809556E+02  0.23362137900E+01  0.74648789084E+02  0.10000000000E+01 0.  0.
<mgrwt>
<rscale>  0 0.14052695E+03</rscale>
<asrwt>0</asrwt>
<pdfrwt beam="2">  1        2 0.21716713E-01 0.14677568E+03</pdfrwt>
<pdfrwt beam="1">  1       -2 0.23624593E-01 0.14677568E+03</pdfrwt>
<totfact> 0.38248594E+03</totfact>
</mgrwt>
</event>
<event>
 8    3  0.7944584E-004  0.1424499E+03  0.7818608E-02  0.1220886E+00
          2   -1    0    0  501    0  0.00000000000E+00  0.00000000000E+00  0.10455563042E+03  0.10455563046E+03  0.25500000000E-02 0. -1.
         -2   -1    0    0    0  501 -0.00000000000E+00 -0.00000000000E+00 -0.15737258780E+03  0.15737258782E+03  0.25500000000E-02 0.  1.
         25    2    1    2    0    0 -0.45178073758E+02 -0.51212647014E+02 -0.19226132521E+02  0.14374153416E+03  0.12501276298E+03 0.  0.
         23    2    1    2    0    0  0.45178073758E+02  0.51212647014E+02 -0.33590824853E+02  0.11818668412E+03  0.90420988857E+02 0.  0.
        -13    1    4    4    0    0 -0.72386550586E-01 -0.19092362163E+02  0.12397574662E+02  0.22764765633E+02  0.10566000000E+00 0. -1.
         13    1    4    4    0    0  0.45250460309E+02  0.70305009176E+02 -0.45988399516E+02  0.95421918486E+02  0.10566000000E+00 0.  1.
    9000005    1    3    3    0    0 -0.31968407983E+02  0.47033882341E+01 -0.63463011987E+02  0.71222572688E+02  0.10000000000E+01 0.  0.
    9000005    1    3    3    0    0 -0.13209665775E+02 -0.55916035248E+02  0.44236879466E+02  0.72518961469E+02  0.10000000000E+01 0.  0.
<mgrwt>
<rscale>  0 0.13452911E+03</rscale>
<asrwt>0</asrwt>
<pdfrwt beam="1">  1        2 0.16085482E-01 0.14244994E+03</pdfrwt>
<pdfrwt beam="2">  1       -2 0.24211167E-01 0.14244994E+03</pdfrwt>
<totfact> 0.51549282E+03</totfact>
</mgrwt>
</event>
<event>
 8    3  0.7944584E-004  0.1426719E+03  0.7818608E-02  0.1219997E+00
         -2   -1    0    0    0  501 -0.00000000000E+00  0.00000000000E+00  0.27693773442E+03  0.27693773444E+03  0.25500000000E-02 0.  1.
          2   -1    0    0  501    0  0.00000000000E+00 -0.00000000000E+00 -0.60220430414E+02  0.60220430468E+02  0.25500000000E-02 0. -1.
         25    2    1    2    0    0  0.49604440481E+02 -0.47634750767E+02  0.10762888100E+03  0.17871554118E+03  0.12500239452E+03 0.  0.
         23    2    1    2    0    0 -0.49604440481E+02  0.47634750767E+02  0.10908842301E+03  0.15844262373E+03  0.92054934590E+02 0.  0.
        -13    1    4    4    0    0 -0.35857517253E+02  0.24021001295E+02 -0.28149395558E+01  0.43251648471E+02  0.10566000000E+00 0. -1.
         13    1    4    4    0    0 -0.13746923228E+02  0.23613749472E+02  0.11190336257E+03  0.11519097526E+03  0.10566000000E+00 0.  1.
    9000005    1    3    3    0    0 -0.35059936544E+01 -0.47707773321E+02 -0.10683726889E+02  0.49025153207E+02  0.10000000000E+01 0.  0.
    9000005    1    3    3    0    0  0.53110434135E+02  0.73022554205E-01  0.11831260789E+03  0.12969038797E+03  0.10000000000E+01 0.  0.
<mgrwt>
<rscale>  0 0.13515780E+03</rscale>
<asrwt>0</asrwt>
<pdfrwt beam="2">  1        2 0.92646815E-02 0.14267189E+03</pdfrwt>
<pdfrwt beam="1">  1       -2 0.42605806E-01 0.14267189E+03</pdfrwt>
<totfact> 0.35686604E+03</totfact>
</mgrwt>
</event>
<event>
 8    3  0.7944584E-004  0.2510368E+03  0.7818608E-02  0.1115067E+00
         -2   -1    0    0    0  501 -0.00000000000E+00  0.00000000000E+00  0.68865709621E+03  0.68865709622E+03  0.25500000000E-02 0. -1.
          2   -1    0    0  501    0  0.00000000000E+00 -0.00000000000E+00 -0.86667795345E+02  0.86667795382E+02  0.25500000000E-02 0.  1.
         25    2    1    2    0    0  0.21627840472E+03  0.24868431994E+02  0.33955827574E+03  0.42227867906E+03  0.12499869164E+03 0.  0.
         23    2    1    2    0    0 -0.21627840472E+03 -0.24868431994E+02  0.26243102513E+03  0.35304621253E+03  0.91524848937E+02 0.  0.
        -13    1    4    4    0    0 -0.15611876865E+03 -0.49127044777E+02  0.14391800645E+03  0.21794251581E+03  0.10566000000E+00 0.  1.
         13    1    4    4    0    0 -0.60159636071E+02  0.24258612783E+02  0.11851301868E+03  0.13510369672E+03  0.10566000000E+00 0. -1.
    9000005    1    3    3    0    0  0.13574747470E+03 -0.26544159191E+02  0.12111499035E+03  0.18385268603E+03  0.10000000000E+01 0.  0.
    9000005    1    3    3    0    0  0.80530930029E+02  0.51412591185E+02  0.21844328539E+03  0.23842599304E+03  0.10000000000E+01 0.  0.
<mgrwt>
<rscale>  0 0.24723197E+03</rscale>
<asrwt>0</asrwt>
<pdfrwt beam="2">  1        2 0.13333507E-01 0.25103677E+03</pdfrwt>
<pdfrwt beam="1">  1       -2 0.10594725E+00 0.25103677E+03</pdfrwt>
<totfact> 0.33664451E+02</totfact>
</mgrwt>
</event>
<event>
 8    3  0.7944584E-004  0.1318675E+03  0.7818608E-02  0.1237258E+00
         -2   -1    0    0    0  501 -0.00000000000E+00  0.00000000000E+00  0.23259540518E+02  0.23259540658E+02  0.25500000000E-02 0.  1.
          2   -1    0    0  501    0  0.00000000000E+00 -0.00000000000E+00 -0.72347434895E+03  0.72347434895E+03  0.25500000000E-02 0. -1.
         25    2    1    2    0    0  0.87980406266E+01 -0.41087128126E+02 -0.22552115601E+03  0.26124478981E+03  0.12499396296E+03 0.  0.
         23    2    1    2    0    0 -0.87980406266E+01  0.41087128126E+02 -0.47469365242E+03  0.48548909980E+03  0.92736426297E+02 0.  0.
        -13    1    4    4    0    0  0.21762321778E+02  0.32995234328E+02 -0.42336414390E+03  0.42520523708E+03  0.10566000000E+00 0.  1.
         13    1    4    4    0    0 -0.30560362405E+02  0.80918937974E+01 -0.51329508520E+02  0.60283862720E+02  0.10566000000E+00 0. -1.
    9000005    1    3    3    0    0 -0.47476298127E+02  0.14617832080E+02 -0.11507589755E+03  0.12534409478E+03  0.10000000000E+01 0.  0.
    9000005    1    3    3    0    0  0.56274338753E+02 -0.55704960205E+02 -0.11044525845E+03  0.13590069503E+03  0.10000000000E+01 0.  0.
<mgrwt>
<rscale>  0 0.12360976E+03</rscale>
<asrwt>0</asrwt>
<pdfrwt beam="2">  1        2 0.11130373E+00 0.13186754E+03</pdfrwt>
<pdfrwt beam="1">  1       -2 0.35783914E-02 0.13186754E+03</pdfrwt>
<totfact> 0.12472775E+04</totfact>
</mgrwt>
</event>
<event>
 8    3  0.7944584E-004  0.1338724E+03  0.7818608E-02  0.1235447E+00
          2   -1    0    0  501    0  0.00000000000E+00  0.00000000000E+00  0.63604191613E+03  0.63604191614E+03  0.25500000000E-02 0. -1.
         -2   -1    0    0    0  501 -0.00000000000E+00 -0.00000000000E+00 -0.22258827078E+02  0.22258827224E+02  0.25500000000E-02 0.  1.
         25    2    1    2    0    0  0.47098369869E+02 -0.88225625088E+01  0.29611406967E+03  0.32496978056E+03  0.12500288784E+03 0.  0.
         23    2    1    2    0    0 -0.47098369869E+02  0.88225625088E+01  0.31766901939E+03  0.33333096280E+03  0.88880992522E+02 0.  0.
        -13    1    4    4    0    0 -0.21934887878E+02 -0.34175161593E+01  0.99250702369E+01  0.24317419809E+02  0.10566000000E+00 0.  1.
         13    1    4    4    0    0 -0.25163481991E+02  0.12240078668E+02  0.30774394915E+03  0.30901354300E+03  0.10566000000E+00 0. -1.
    9000005    1    3    3    0    0  0.65024680329E+02 -0.41864723306E+02  0.26532620837E+03  0.27636906657E+03  0.10000000000E+01 0.  0.
    9000005    1    3    3    0    0 -0.17926310460E+02  0.33042160798E+02  0.30787861301E+02  0.48600713990E+02  0.10000000000E+01 0.  0.
<mgrwt>
<rscale>  0 0.12475891E+03</rscale>
<asrwt>0</asrwt>
<pdfrwt beam="1">  1        2 0.97852593E-01 0.13387239E+03</pdfrwt>
<pdfrwt beam="2">  1       -2 0.34244353E-02 0.13387239E+03</pdfrwt>
<totfact> 0.15502321E+04</totfact>
</mgrwt>
</event>
<event>
 8    3  0.7944584E-004  0.1262208E+03  0.7818608E-02  0.1248950E+00
         -2   -1    0    0    0  501 -0.00000000000E+00  0.00000000000E+00  0.37318901654E+02  0.37318901741E+02  0.25500000000E-02 0.  1.
          2   -1    0    0  501    0  0.00000000000E+00 -0.00000000000E+00 -0.31823886054E+03  0.31823886055E+03  0.25500000000E-02 0. -1.
         25    2    1    2    0    0  0.17491238675E+02 -0.11881614348E+01 -0.16710778537E+03  0.20941994784E+03  0.12499738983E+03 0.  0.
         23    2    1    2    0    0 -0.17491238675E+02  0.11881614348E+01 -0.11381217351E+03  0.14613781445E+03  0.89976079126E+02 0.  0.
        -13    1    4    4    0    0 -0.35445221103E+02 -0.24815268066E+02 -0.21003294881E+02  0.48096889589E+02  0.10566000000E+00 0.  1.
         13    1    4    4    0    0  0.17953982429E+02  0.26003429501E+02 -0.92808878634E+02  0.98040924864E+02  0.10566000000E+00 0. -1.
    9000005    1    3    3    0    0 -0.12547203428E+02  0.43605909470E+02 -0.14355633259E+03  0.15056004875E+03  0.10000000000E+01 0.  0.
    9000005    1    3    3    0    0  0.30038442103E+02 -0.44794070905E+02 -0.23551452783E+02  0.58859899086E+02  0.10000000000E+01 0.  0.
<mgrwt>
<rscale>  0 0.11652066E+03</rscale>
<asrwt>0</asrwt>
<pdfrwt beam="2">  1        2 0.48959823E-01 0.12622085E+03</pdfrwt>
<pdfrwt beam="1">  1       -2 0.57413697E-02 0.12622085E+03</pdfrwt>
<totfact> 0.15164801E+04</totfact>
</mgrwt>
</event>
<event>
 8    3  0.7944584E-004  0.1298956E+03  0.7818608E-02  0.1242143E+00
          2   -1    0    0  501    0  0.00000000000E+00  0.00000000000E+00  0.22763266524E+03  0.22763266526E+03  0.25500000000E-02 0. -1.
         -2   -1    0    0    0  501 -0.00000000000E+00 -0.00000000000E+00 -0.73987808656E+02  0.73987808700E+02  0.25500000000E-02 0.  1.
         25    2    1    2    0    0  0.17931365241E+02 -0.30395451188E+02  0.12266375241E+02  0.13047347607E+03  0.12500978635E+03 0.  0.
         23    2    1    2    0    0 -0.17931365241E+02  0.30395451188E+02  0.14137848134E+03  0.17114699788E+03  0.89766377810E+02 0.  0.
        -13    1    4    4    0    0 -0.51911994257E+02  0.21264680350E+01  0.83036520633E+02  0.97951273278E+02  0.10566000000E+00 0.  1.
         13    1    4    4    0    0  0.33980629016E+02  0.28268983153E+02  0.58341960711E+02  0.73195724605E+02  0.10566000000E+00 0. -1.
    9000005    1    3    3    0    0  0.64546436241E+02 -0.66028615327E+00 -0.18545471498E+02  0.67168541165E+02  0.10000000000E+01 0.  0.
    9000005    1    3    3    0    0 -0.46615071000E+02 -0.29735165035E+02  0.30811846740E+02  0.63304934906E+02  0.10000000000E+01 0.  0.
<mgrwt>
<rscale>  0 0.12058024E+03</rscale>
<asrwt>0</asrwt>
<pdfrwt beam="1">  1        2 0.35020409E-01 0.12989559E+03</pdfrwt>
<pdfrwt beam="2">  1       -2 0.11382740E-01 0.12989559E+03</pdfrwt>
<totfact> 0.75332583E+03</totfact>
</mgrwt>
</event>
<event>
 8    3  0.7944584E-004  0.1570831E+03  0.7818608E-02  0.1199983E+00
          2   -1    0    0  501    0  0.00000000000E+00  0.00000000000E+00  0.47642683654E+03  0.47642683655E+03  0.25500000000E-02 0.  1.
         -2   -1    0    0    0  501 -0.00000000000E+00 -0.00000000000E+00 -0.44008619626E+02  0.44008619700E+02  0.25500000000E-02 0. -1.
         25    2    1    2    0    0 -0.43283292079E+02 -0.84716786299E+02  0.21952947305E+03  0.26994128666E+03  0.12499892579E+03 0.  0.
         23    2    1    2    0    0  0.43283292079E+02  0.84716786299E+02  0.21288874386E+03  0.25049416959E+03  0.91516853549E+02 0.  0.
        -13    1    4    4    0    0 -0.19235329245E+02  0.16283982305E+02  0.10626784603E+03  0.10921553110E+03  0.10566000000E+00 0. -1.
         13    1    4    4    0    0  0.62518621324E+02  0.68432803995E+02  0.10662089784E+03  0.14127863849E+03  0.10566000000E+00 0.  1.
    9000005    1    3    3    0    0 -0.42979919931E+02 -0.10579510129E+03  0.11056268560E+03  0.15894962856E+03  0.10000000000E+01 0.  0.
    9000005    1    3    3    0    0 -0.30337214803E+00  0.21078314989E+02  0.10896678746E+03  0.11099165809E+03  0.10000000000E+01 0.  0.
<mgrwt>
<rscale>  0 0.15039935E+03</rscale>
<asrwt>0</asrwt>
<pdfrwt beam="1">  1        2 0.73296438E-01 0.15708313E+03</pdfrwt>
<pdfrwt beam="2">  1       -2 0.67705568E-02 0.15708313E+03</pdfrwt>
<totfact> 0.77828125E+03</totfact>
</mgrwt>
</event>
<event>
 8    3  0.7944584E-004  0.1429160E+03  0.7818608E-02  0.1210002E+00
          2   -1    0    0  501    0  0.00000000000E+00  0.00000000000E+00  0.12954639307E+04  0.12954639307E+04  0.25500000000E-02 0. -1.
         -2   -1    0    0    0  501 -0.00000000000E+00 -0.00000000000E+00 -0.18666428791E+02  0.18666428965E+02  0.25500000000E-02 0.  1.
         25    2    1    2    0    0 -0.60707249963E+02 -0.33382410370E+02  0.90845409811E+03  0.91962701354E+03  0.12500096062E+03 0.  0.
         23    2    1    2    0    0  0.60707249963E+02  0.33382410370E+02  0.36834340384E+03  0.39450334616E+03  0.12311080967E+03 0.  0.
        -13    1    4    4    0    0  0.43138236440E+02  0.50322495614E+02  0.74777581949E+02  0.99924766371E+02  0.10566000000E+00 0.  1.
         13    1    4    4    0    0  0.17569013523E+02 -0.16940085245E+02  0.29356582189E+03  0.29457857979E+03  0.10566000000E+00 0. -1.
    9000005    1    3    3    0    0 -0.58790700651E+02  0.34249924482E+02  0.31124840861E+03  0.31860002459E+03  0.10000000000E+01 0.  0.
    9000005    1    3    3    0    0 -0.19165493119E+01 -0.67632334852E+02  0.59720568950E+03  0.60102698895E+03  0.10000000000E+01 0.  0.
<mgrwt>
<rscale>  0 0.14250169E+03</rscale>
<asrwt>0</asrwt>
<pdfrwt beam="1">  1        2 0.19930218E+00 0.14291604E+03</pdfrwt>
<pdfrwt beam="2">  1       -2 0.28717577E-02 0.14291604E+03</pdfrwt>
<totfact> 0.77957881E+03</totfact>
</mgrwt>
</event>
<event>
 8    3  0.7944584E-004  0.1812952E+03  0.7818608E-02  0.1171366E+00
         -2   -1    0    0    0  501 -0.00000000000E+00  0.00000000000E+00  0.58372504561E+02  0.58372504616E+02  0.25500000000E-02 0.  1.
          2   -1    0    0  501    0  0.00000000000E+00 -0.00000000000E+00 -0.50920348057E+03  0.50920348058E+03  0.25500000000E-02 0. -1.
         25    2    1    2    0    0  0.12818753909E+03  0.28454734777E+02 -0.26080358811E+03  0.31762630976E+03  0.12500497581E+03 0.  0.
         23    2    1    2    0    0 -0.12818753909E+03 -0.28454734777E+02 -0.19002738790E+03  0.24994967543E+03  0.95512904813E+02 0.  0.
        -13    1    4    4    0    0 -0.33229414330E+00  0.22096049272E+02 -0.44872286719E+02  0.50018787393E+02  0.10566000000E+00 0. -1.
         13    1    4    4    0    0 -0.12785524494E+03 -0.50550784049E+02 -0.14515510118E+03  0.19993088804E+03  0.10566000000E+00 0.  1.
    9000005    1    3    3    0    0 -0.42567361632E+01 -0.22765474469E+02 -0.10195065104E+03  0.10455296208E+03  0.10000000000E+01 0.  0.
    9000005    1    3    3    0    0  0.13244427525E+03  0.51220209247E+02 -0.15885293706E+03  0.21307334769E+03  0.10000000000E+01 0.  0.
<mgrwt>
<rscale>  0 0.17636690E+03</rscale>
<asrwt>0</asrwt>
<pdfrwt beam="2">  1        2 0.78338994E-01 0.18129523E+03</pdfrwt>
<pdfrwt beam="1">  1       -2 0.89803857E-02 0.18129523E+03</pdfrwt>
<totfact> 0.47020809E+03</totfact>
</mgrwt>
</event>
<event>
 8    3  0.7944584E-004  0.1385519E+03  0.7818608E-02  0.1227252E+00
          2   -1    0    0  501    0  0.00000000000E+00  0.00000000000E+00  0.81142860769E+03  0.81142860770E+03  0.25500000000E-02 0.  1.
         -2   -1    0    0    0  501 -0.00000000000E+00 -0.00000000000E+00 -0.31340701752E+02  0.31340701856E+02  0.25500000000E-02 0. -1.
         25    2    1    2    0    0 -0.59750108377E+02  0.13731919131E+01  0.15273290553E+03  0.20621340656E+03  0.12499867003E+03 0.  0.
         23    2    1    2    0    0  0.59750108377E+02 -0.13731919131E+01  0.62735500041E+03  0.63655590299E+03  0.89761684377E+02 0.  0.
        -13    1    4    4    0    0  0.78945383981E+02 -0.95002530169E+01  0.37478566823E+03  0.38312783341E+03  0.10566000000E+00 0.  1.
         13    1    4    4    0    0 -0.19195275605E+02  0.81270611038E+01  0.25256933218E+03  0.25342806958E+03  0.10566000000E+00 0. -1.
    9000005    1    3    3    0    0 -0.55217947617E+02  0.22171346772E+02  0.16914979685E+03  0.17931325698E+03  0.10000000000E+01 0.  0.
    9000005    1    3    3    0    0 -0.45321607600E+01 -0.20798154859E+02 -0.16416891320E+02  0.26900149578E+02  0.10000000000E+01 0.  0.
<mgrwt>
<rscale>  0 0.13013758E+03</rscale>
<asrwt>0</asrwt>
<pdfrwt beam="1">  1        2 0.12483517E+00 0.13855190E+03</pdfrwt>
<pdfrwt beam="2">  1       -2 0.48216465E-02 0.13855190E+03</pdfrwt>
<totfact> 0.69738069E+03</totfact>
</mgrwt>
</event>
<event>
 8    3  0.7944584E-004  0.1529465E+03  0.7818608E-02  0.1205632E+00
          2   -1    0    0  501    0  0.00000000000E+00  0.00000000000E+00  0.45855668925E+03  0.45855668925E+03  0.25500000000E-02 0. -1.
         -2   -1    0    0    0  501 -0.00000000000E+00 -0.00000000000E+00 -0.47080847520E+02  0.47080847589E+02  0.25500000000E-02 0.  1.
         25    2    1    2    0    0 -0.25422254935E+01 -0.88079013105E+02  0.14558689056E+03  0.21115909251E+03  0.12501297606E+03 0.  0.
         23    2    1    2    0    0  0.25422254935E+01  0.88079013105E+02  0.26588895116E+03  0.29447844434E+03  0.90863878242E+02 0.  0.
        -13    1    4    4    0    0  0.16674579593E+02  0.33669599315E+01  0.14608055181E+03  0.14706772864E+03  0.10566000000E+00 0. -1.
         13    1    4    4    0    0 -0.14132354099E+02  0.84712053173E+02  0.11980839935E+03  0.14741071570E+03  0.10566000000E+00 0.  1.
    9000005    1    3    3    0    0  0.21640933902E+02 -0.77210367983E+02  0.16143407413E+03  0.18025462888E+03  0.10000000000E+01 0.  0.
    9000005    1    3    3    0    0 -0.24183159396E+02 -0.10868645122E+02 -0.15847183561E+02  0.30904463625E+02  0.10000000000E+01 0.  0.
<mgrwt>
<rscale>  0 0.14587789E+03</rscale>
<asrwt>0</asrwt>
<pdfrwt beam="1">  1        2 0.70547187E-01 0.15294646E+03</pdfrwt>
<pdfrwt beam="2">  1       -2 0.72432069E-02 0.15294646E+03</pdfrwt>
<totfact> 0.73041361E+03</totfact>
</mgrwt>
</event>
<event>
 8    3  0.7944584E-004  0.3453652E+03  0.7818608E-02  0.1065659E+00
         -2   -1    0    0    0  501 -0.00000000000E+00  0.00000000000E+00  0.39771475020E+02  0.39771475102E+02  0.25500000000E-02 0. -1.
          2   -1    0    0  501    0  0.00000000000E+00 -0.00000000000E+00 -0.29758330117E+04  0.29758330117E+04  0.25500000000E-02 0.  1.
         25    2    1    2    0    0 -0.30779033904E+03  0.94431343700E+02 -0.12622695496E+04  0.13086640366E+04  0.12499989396E+03 0.  0.
         23    2    1    2    0    0  0.30779033904E+03 -0.94431343700E+02 -0.16737919871E+04  0.17069404502E+04  0.91727383499E+02 0.  0.
        -13    1    4    4    0    0  0.50315233272E+02 -0.34007301869E+02 -0.18139729705E+03  0.19129325608E+03  0.10566000000E+00 0.  1.
         13    1    4    4    0    0  0.25747510577E+03 -0.60424041831E+02 -0.14923946901E+04  0.15156471941E+04  0.10566000000E+00 0. -1.
    9000005    1    3    3    0    0 -0.19036212052E+03  0.54111823924E+02 -0.52600209738E+03  0.56200091891E+03  0.10000000000E+01 0.  0.
    9000005    1    3    3    0    0 -0.11742821852E+03  0.40319519776E+02 -0.73626745222E+03  0.74666311773E+03  0.10000000000E+01 0.  0.
<mgrwt>
<rscale>  0 0.34268353E+03</rscale>
<asrwt>0</asrwt>
<pdfrwt beam="2">  1        2 0.45782029E+00 0.34536523E+03</pdfrwt>
<pdfrwt beam="1">  1       -2 0.61186908E-02 0.34536523E+03</pdfrwt>
<totfact> 0.30375176E+02</totfact>
</mgrwt>
</event>
<event>
 8    3  0.7944584E-004  0.1430399E+03  0.7818608E-02  0.1223003E+00
          2   -1    0    0  501    0  0.00000000000E+00  0.00000000000E+00  0.11393700149E+04  0.11393700149E+04  0.25500000000E-02 0. -1.
         -2   -1    0    0    0  501 -0.00000000000E+00 -0.00000000000E+00 -0.30757657241E+02  0.30757657347E+02  0.25500000000E-02 0.  1.
         25    2    1    2    0    0  0.38329077571E+02  0.58026023069E+02  0.10232436876E+04  0.10331931408E+04  0.12499713753E+03 0.  0.
         23    2    1    2    0    0 -0.38329077571E+02 -0.58026023069E+02  0.85368670056E+02  0.13693453147E+03  0.81407116038E+02 0.  0.
        -13    1    4    4    0    0  0.59584945646E+01 -0.39183084859E+02  0.79001135102E+02  0.88385566174E+02  0.10566000000E+00 0. -1.
         13    1    4    4    0    0 -0.44287572135E+02 -0.18842938209E+02  0.63675349542E+01  0.48548965297E+02  0.10566000000E+00 0.  1.
    9000005    1    3    3    0    0 -0.21295068152E+02 -0.25859363006E+02  0.13915694704E+03  0.14313574848E+03  0.10000000000E+01 0.  0.
    9000005    1    3    3    0    0  0.59624145722E+02  0.83885386075E+02  0.88408674058E+03  0.89005739232E+03  0.10000000000E+01 0.  0.
<mgrwt>
<rscale>  0 0.13304742E+03</rscale>
<asrwt>0</asrwt>
<pdfrwt beam="1">  1        2 0.17528768E+00 0.14303993E+03</pdfrwt>
<pdfrwt beam="2">  1       -2 0.47319478E-02 0.14303993E+03</pdfrwt>
<totfact> 0.45324940E+03</totfact>
</mgrwt>
</event>
<event>
 8    3  0.7944584E-004  0.1530349E+03  0.7818608E-02  0.1205445E+00
         -2   -1    0    0    0  501 -0.00000000000E+00  0.00000000000E+00  0.15276485178E+03  0.15276485180E+03  0.25500000000E-02 0.  1.
          2   -1    0    0  501    0  0.00000000000E+00 -0.00000000000E+00 -0.15445576843E+03  0.15445576845E+03  0.25500000000E-02 0. -1.
         25    2    1    2    0    0  0.13666167462E+02 -0.87224776713E+02 -0.64004130043E+02  0.16588015101E+03  0.12499908012E+03 0.  0.
         23    2    1    2    0    0 -0.13666167462E+02  0.87224776713E+02  0.62313213390E+02  0.14134046924E+03  0.91100306670E+02 0.  0.
        -13    1    4    4    0    0 -0.32868486272E+02  0.53053084374E+02  0.77323246873E+02  0.99367312646E+02  0.10566000000E+00 0.  1.
         13    1    4    4    0    0  0.19202318810E+02  0.34171692339E+02 -0.15010033484E+02  0.41973156591E+02  0.10566000000E+00 0. -1.
    9000005    1    3    3    0    0  0.30336703683E+02 -0.90226965855E+02 -0.92487340622E+02  0.13272576665E+03  0.10000000000E+01 0.  0.
    9000005    1    3    3    0    0 -0.16670536221E+02  0.30021891422E+01  0.28483210579E+02  0.33154384362E+02  0.10000000000E+01 0.  0.
<mgrwt>
<rscale>  0 0.14602480E+03</rscale>
<asrwt>0</asrwt>
<pdfrwt beam="2">  1        2 0.23762426E-01 0.15303495E+03</pdfrwt>
<pdfrwt beam="1">  1       -2 0.23502285E-01 0.15303495E+03</pdfrwt>
<totfact> 0.34979929E+03</totfact>
</mgrwt>
</event>
<event>
 8    3  0.7944584E-004  0.1345225E+03  0.7818608E-02  0.1233534E+00
         -2   -1    0    0    0  501 -0.00000000000E+00  0.00000000000E+00  0.90984544118E+02  0.90984544154E+02  0.25500000000E-02 0.  1.
          2   -1    0    0  501    0  0.00000000000E+00 -0.00000000000E+00 -0.23409796717E+03  0.23409796718E+03  0.25500000000E-02 0. -1.
         25    2    1    2    0    0  0.39948726499E+02 -0.29583898270E+02  0.15790163236E+02  0.13544603332E+03  0.12500076360E+03 0.  0.
         23    2    1    2    0    0 -0.39948726499E+02  0.29583898270E+02 -0.15890358629E+03  0.18963647802E+03  0.90777399580E+02 0.  0.
        -13    1    4    4    0    0 -0.19405892836E+02 -0.16304614438E+02 -0.12829568645E+03  0.13077546962E+03  0.10566000000E+00 0. -1.
         13    1    4    4    0    0 -0.20542833663E+02  0.45888512708E+02 -0.30607899843E+02  0.58861008404E+02  0.10566000000E+00 0.  1.
    9000005    1    3    3    0    0 -0.19923818661E+02 -0.74977170657E+01 -0.43431669087E+02  0.48378550939E+02  0.10000000000E+01 0.  0.
    9000005    1    3    3    0    0  0.59872545160E+02 -0.22086181204E+02  0.59221832323E+02  0.87067482379E+02  0.10000000000E+01 0.  0.
<mgrwt>
<rscale>  0 0.12598771E+03</rscale>
<asrwt>0</asrwt>
<pdfrwt beam="2">  1        2 0.36015072E-01 0.13452248E+03</pdfrwt>
<pdfrwt beam="1">  1       -2 0.13997622E-01 0.13452248E+03</pdfrwt>
<totfact> 0.52595607E+03</totfact>
</mgrwt>
</event>
<event>
 8    3  0.7944584E-004  0.1643594E+03  0.7818608E-02  0.1191112E+00
         -2   -1    0    0    0  501 -0.00000000000E+00  0.00000000000E+00  0.60212530399E+02  0.60212530453E+02  0.25500000000E-02 0. -1.
          2   -1    0    0  501    0  0.00000000000E+00 -0.00000000000E+00 -0.40291782492E+03  0.40291782492E+03  0.25500000000E-02 0.  1.
         25    2    1    2    0    0 -0.46845210278E+02 -0.95893512750E+02 -0.13504308390E+03  0.21272197866E+03  0.12499586465E+03 0.  0.
         23    2    1    2    0    0  0.46845210278E+02  0.95893512750E+02 -0.20766221062E+03  0.25040837672E+03  0.90502607146E+02 0.  0.
        -13    1    4    4    0    0  0.69971087991E+02  0.47768660730E+02 -0.14637267247E+03  0.16912353033E+03  0.10566000000E+00 0. -1.
         13    1    4    4    0    0 -0.23125877713E+02  0.48124852020E+02 -0.61289538151E+02  0.81284846390E+02  0.10566000000E+00 0.  1.
    9000005    1    3    3    0    0 -0.58044670171E+02 -0.92461085018E+02 -0.15498220268E+03  0.18957510155E+03  0.10000000000E+01 0.  0.
    9000005    1    3    3    0    0  0.11199459893E+02 -0.34324277327E+01  0.19939118784E+02  0.23146877109E+02  0.10000000000E+01 0.  0.
<mgrwt>
<rscale>  0 0.15787907E+03</rscale>
<asrwt>0</asrwt>
<pdfrwt beam="2">  1        2 0.61987356E-01 0.16435938E+03</pdfrwt>
<pdfrwt beam="1">  1       -2 0.92634665E-02 0.16435938E+03</pdfrwt>
<totfact> 0.57572305E+03</totfact>
</mgrwt>
</event>
<event>
 8    3  0.7944584E-004  0.1602168E+03  0.7818608E-02  0.1196857E+00
          2   -1    0    0  501    0  0.00000000000E+00  0.00000000000E+00  0.57627085924E+02  0.57627085981E+02  0.25500000000E-02 0.  1.
         -2   -1    0    0    0  501 -0.00000000000E+00 -0.00000000000E+00 -0.46294801543E+03  0.46294801544E+03  0.25500000000E-02 0. -1.
         25    2    1    2    0    0  0.91021829579E+02  0.41931845481E+02 -0.10366351721E+03  0.19082858040E+03  0.12500467661E+03 0.  0.
         23    2    1    2    0    0 -0.91021829579E+02 -0.41931845481E+02 -0.30165741229E+03  0.32974652101E+03  0.87705875530E+02 0.  0.
        -13    1    4    4    0    0 -0.54364016126E+02 -0.29680384905E+02 -0.27713594698E+03  0.28397308987E+03  0.10566000000E+00 0. -1.
         13    1    4    4    0    0 -0.36657813454E+02 -0.12251460576E+02 -0.24521465315E+02  0.45773431144E+02  0.10566000000E+00 0.  1.
    9000005    1    3    3    0    0  0.27110694433E+02 -0.30900140276E+01  0.27102962432E+02  0.38472178414E+02  0.10000000000E+01 0.  0.
    9000005    1    3    3    0    0  0.63911135147E+02  0.45021859508E+02 -0.13076647964E+03  0.15235640199E+03  0.10000000000E+01 0.  0.
<mgrwt>
<rscale>  0 0.15298072E+03</rscale>
<asrwt>0</asrwt>
<pdfrwt beam="1">  1        2 0.88657058E-02 0.16021680E+03</pdfrwt>
<pdfrwt beam="2">  1       -2 0.71222769E-01 0.16021680E+03</pdfrwt>
<totfact> 0.13409594E+03</totfact>
</mgrwt>
</event>
<event>
 8    3  0.7944584E-004  0.1588830E+03  0.7818608E-02  0.1198110E+00
         -2   -1    0    0    0  501 -0.00000000000E+00  0.00000000000E+00  0.15254485163E+02  0.15254485376E+02  0.25500000000E-02 0.  1.
          2   -1    0    0  501    0  0.00000000000E+00 -0.00000000000E+00 -0.17139698293E+04  0.17139698293E+04  0.25500000000E-02 0. -1.
         25    2    1    2    0    0 -0.36947214961E+02 -0.90844773634E+02 -0.53923247716E+03  0.56215253238E+03  0.12500374252E+03 0.  0.
         23    2    1    2    0    0  0.36947214961E+02  0.90844773634E+02 -0.11594828670E+04  0.11670717823E+04  0.89655767461E+02 0.  0.
        -13    1    4    4    0    0  0.42481324035E+02  0.31290698287E+02 -0.24410264173E+03  0.24973962752E+03  0.10566000000E+00 0.  1.
         13    1    4    4    0    0 -0.55341090740E+01  0.59554075346E+02 -0.91538022528E+03  0.91733215481E+03  0.10566000000E+00 0. -1.
    9000005    1    3    3    0    0 -0.73833088700E+02 -0.93625146005E+02 -0.36318931201E+03  0.38226230433E+03  0.10000000000E+01 0.  0.
    9000005    1    3    3    0    0  0.36885873739E+02  0.27803723714E+01 -0.17604316516E+03  0.17989022806E+03  0.10000000000E+01 0.  0.
<mgrwt>
<rscale>  0 0.15193915E+03</rscale>
<asrwt>0</asrwt>
<pdfrwt beam="2">  1        2 0.26368751E+00 0.15888299E+03</pdfrwt>
<pdfrwt beam="1">  1       -2 0.23468452E-02 0.15888299E+03</pdfrwt>
<totfact> 0.63427361E+03</totfact>
</mgrwt>
</event>
<event>
 8    3  0.7944584E-004  0.1331683E+03  0.7818608E-02  0.1236014E+00
         -2   -1    0    0    0  501 -0.00000000000E+00  0.00000000000E+00  0.14324210570E+02  0.14324210797E+02  0.25500000000E-02 0.  1.
          2   -1    0    0  501    0  0.00000000000E+00 -0.00000000000E+00 -0.97733072807E+03  0.97733072807E+03  0.25500000000E-02 0. -1.
         25    2    1    2    0    0 -0.44781508611E+02 -0.10188634066E+02 -0.61043118502E+03  0.62478799564E+03  0.12499846426E+03 0.  0.
         23    2    1    2    0    0  0.44781508611E+02  0.10188634066E+02 -0.35257533248E+03  0.36686694323E+03  0.90403524196E+02 0.  0.
        -13    1    4    4    0    0 -0.26479651522E+02  0.95694235330E+01 -0.13545922617E+03  0.13835446842E+03  0.10566000000E+00 0. -1.
         13    1    4    4    0    0  0.71261160133E+02  0.61921053311E+00 -0.21711610630E+03  0.22851247481E+03  0.10566000000E+00 0.  1.
    9000005    1    3    3    0    0 -0.33071452238E+02  0.13053377697E+02 -0.59155265033E+03  0.59262100008E+03  0.10000000000E+01 0.  0.
    9000005    1    3    3    0    0 -0.11710056373E+02 -0.23242011763E+02 -0.18878534688E+02  0.32166995555E+02  0.10000000000E+01 0.  0.
<mgrwt>
<rscale>  0 0.12439714E+03</rscale>
<asrwt>0</asrwt>
<pdfrwt beam="2">  1        2 0.15035852E+00 0.13316834E+03</pdfrwt>
<pdfrwt beam="1">  1       -2 0.22037255E-02 0.13316834E+03</pdfrwt>
<totfact> 0.17332293E+04</totfact>
</mgrwt>
</event>
<event>
 8    3  0.7944584E-004  0.2881894E+03  0.7818608E-02  0.1093063E+00
         -2   -1    0    0    0  501 -0.00000000000E+00  0.00000000000E+00  0.65825815482E+02  0.65825815532E+02  0.25500000000E-02 0.  1.
          2   -1    0    0  501    0  0.00000000000E+00 -0.00000000000E+00 -0.12581134379E+04  0.12581134379E+04  0.25500000000E-02 0. -1.
         25    2    1    2    0    0 -0.87517813907E+02 -0.24447709501E+03 -0.47351816754E+03  0.55432174276E+03  0.12499888707E+03 0.  0.
         23    2    1    2    0    0  0.87517813907E+02  0.24447709501E+03 -0.71876945490E+03  0.76961751070E+03  0.90846935769E+02 0.  0.
        -13    1    4    4    0    0 -0.13694520142E+02  0.36651827378E+02 -0.61580550488E+02  0.72959383869E+02  0.10566000000E+00 0.  1.
         13    1    4    4    0    0  0.10121233405E+03  0.20782526764E+03 -0.65718890441E+03  0.69665812683E+03  0.10566000000E+00 0. -1.
    9000005    1    3    3    0    0 -0.10171550600E+03 -0.22768870863E+03 -0.35536042297E+03  0.43413157270E+03  0.10000000000E+01 0.  0.
    9000005    1    3    3    0    0  0.14197692095E+02 -0.16788386388E+02 -0.11815774457E+03  0.12019017006E+03  0.10000000000E+01 0.  0.
<mgrwt>
<rscale>  0 0.28486054E+03</rscale>
<asrwt>0</asrwt>
<pdfrwt beam="2">  1        2 0.19355590E+00 0.28818942E+03</pdfrwt>
<pdfrwt beam="1">  1       -2 0.10127050E-01 0.28818942E+03</pdfrwt>
<totfact> 0.12049275E+03</totfact>
</mgrwt>
</event>
<event>
 8    3  0.7944584E-004  0.2360172E+03  0.7818608E-02  0.1125179E+00
         -2   -1    0    0    0  501 -0.00000000000E+00  0.00000000000E+00  0.96751048588E+02  0.96751048621E+02  0.25500000000E-02 0.  1.
          2   -1    0    0  501    0  0.00000000000E+00 -0.00000000000E+00 -0.53965689083E+03  0.53965689084E+03  0.25500000000E-02 0. -1.
         25    2    1    2    0    0  0.54885530005E+02  0.19252547959E+03 -0.21743368027E+03  0.32090731102E+03  0.12500246099E+03 0.  0.
         23    2    1    2    0    0 -0.54885530005E+02 -0.19252547959E+03 -0.22547216197E+03  0.31550062844E+03  0.92868019385E+02 0.  0.
        -13    1    4    4    0    0 -0.20008480300E+02 -0.13912736425E+03 -0.20491706079E+03  0.24849099729E+03  0.10566000000E+00 0. -1.
         13    1    4    4    0    0 -0.34877049705E+02 -0.53398115344E+02 -0.20555101185E+02  0.67009631152E+02  0.10566000000E+00 0.  1.
    9000005    1    3    3    0    0 -0.35313464606E+02  0.10315476977E+03 -0.10076737431E+03  0.14846888911E+03  0.10000000000E+01 0.  0.
    9000005    1    3    3    0    0  0.90198994610E+02  0.89370709822E+02 -0.11666630597E+03  0.17243842191E+03  0.10000000000E+01 0.  0.
<mgrwt>
<rscale>  0 0.23208768E+03</rscale>
<asrwt>0</asrwt>
<pdfrwt beam="2">  1        2 0.83024135E-01 0.23601715E+03</pdfrwt>
<pdfrwt beam="1">  1       -2 0.14884777E-01 0.23601715E+03</pdfrwt>
<totfact> 0.19706109E+03</totfact>
</mgrwt>
</event>
<event>
 8    3  0.7944584E-004  0.1462799E+03  0.7818608E-02  0.1215206E+00
         -2   -1    0    0    0  501 -0.00000000000E+00  0.00000000000E+00  0.11952193349E+02  0.11952193621E+02  0.25500000000E-02 0.  1.
          2   -1    0    0  501    0  0.00000000000E+00 -0.00000000000E+00 -0.14674467006E+04  0.14674467006E+04  0.25500000000E-02 0. -1.
         25    2    1    2    0    0 -0.42827706771E+02 -0.62760839445E+02 -0.85677781590E+03  0.86917549227E+03  0.12499870041E+03 0.  0.
         23    2    1    2    0    0  0.42827706771E+02  0.62760839445E+02 -0.59871669134E+03  0.61022340194E+03  0.90209691039E+02 0.  0.
        -13    1    4    4    0    0  0.22861930195E+02  0.13057831128E+02 -0.34146912348E+02  0.43118413618E+02  0.10566000000E+00 0.  1.
         13    1    4    4    0    0  0.19965776576E+02  0.49703008317E+02 -0.56456977899E+03  0.56710498832E+03  0.10566000000E+00 0. -1.
    9000005    1    3    3    0    0 -0.15967774911E+02 -0.60097964044E+02 -0.82554165606E+03  0.82788088576E+03  0.10000000000E+01 0.  0.
    9000005    1    3    3    0    0 -0.26859931860E+02 -0.26628754003E+01 -0.31236159840E+02  0.41294606506E+02  0.10000000000E+01 0.  0.
<mgrwt>
<rscale>  0 0.13861429E+03</rscale>
<asrwt>0</asrwt>
<pdfrwt beam="2">  1        2 0.22576089E+00 0.14627990E+03</pdfrwt>
<pdfrwt beam="1">  1       -2 0.18388002E-02 0.14627990E+03</pdfrwt>
<totfact> 0.12118505E+04</totfact>
</mgrwt>
</event>
<event>
 8    3  0.7944584E-004  0.2797236E+03  0.7818608E-02  0.1097572E+00
          2   -1    0    0  501    0  0.00000000000E+00  0.00000000000E+00  0.92116671637E+03  0.92116671637E+03  0.25500000000E-02 0. -1.
         -2   -1    0    0    0  501 -0.00000000000E+00 -0.00000000000E+00 -0.83276812826E+02  0.83276812865E+02  0.25500000000E-02 0.  1.
         25    2    1    2    0    0  0.25023879653E+03  0.65637960769E+00  0.34941585679E+03  0.44758993254E+03  0.12500168245E+03 0.  0.
         23    2    1    2    0    0 -0.25023879653E+03 -0.65637960769E+00  0.48847404675E+03  0.55685359669E+03  0.94123045399E+02 0.  0.
        -13    1    4    4    0    0 -0.14887319655E+03 -0.35037088008E+01  0.38111346804E+03  0.40917354669E+03  0.10566000000E+00 0.  1.
         13    1    4    4    0    0 -0.10136559998E+03  0.28473291931E+01  0.10736057871E+03  0.14768005000E+03  0.10566000000E+00 0. -1.
    9000005    1    3    3    0    0  0.96499095423E+02  0.84010380028E+01  0.23975920000E+03  0.25858872141E+03  0.10000000000E+01 0.  0.
    9000005    1    3    3    0    0  0.15373970111E+03 -0.77446583951E+01  0.10965665679E+03  0.18900121113E+03  0.10000000000E+01 0.  0.
<mgrwt>
<rscale>  0 0.27657900E+03</rscale>
<asrwt>0</asrwt>
<pdfrwt beam="1">  1        2 0.14171796E+00 0.27972363E+03</pdfrwt>
<pdfrwt beam="2">  1       -2 0.12811817E-01 0.27972363E+03</pdfrwt>
<totfact> 0.13085393E+03</totfact>
</mgrwt>
</event>
<event>
 8    3  0.7944584E-004  0.1468434E+03  0.7818608E-02  0.1214072E+00
         -2   -1    0    0    0  501 -0.00000000000E+00  0.00000000000E+00  0.76303038893E+02  0.76303038935E+02  0.25500000000E-02 0.  1.
          2   -1    0    0  501    0  0.00000000000E+00 -0.00000000000E+00 -0.23618900276E+03  0.23618900278E+03  0.25500000000E-02 0. -1.
         25    2    1    2    0    0 -0.72205647926E+02 -0.26884055456E+02 -0.10799550297E+03  0.18228001569E+03  0.12500626955E+03 0.  0.
         23    2    1    2    0    0  0.72205647926E+02  0.26884055456E+02 -0.51890460899E+02  0.13021202603E+03  0.91247705503E+02 0.  0.
        -13    1    4    4    0    0  0.54549457155E+02  0.49592853393E+02 -0.33632247047E+01  0.73799843008E+02  0.10566000000E+00 0.  1.
         13    1    4    4    0    0  0.17656190772E+02 -0.22708797937E+02 -0.48527236195E+02  0.56412183019E+02  0.10566000000E+00 0. -1.
    9000005    1    3    3    0    0 -0.10281485925E+03 -0.30764852726E+02 -0.10676648138E+03  0.15138511483E+03  0.10000000000E+01 0.  0.
    9000005    1    3    3    0    0  0.30609211319E+02  0.38807972693E+01 -0.12290215925E+01  0.30894900859E+02  0.10000000000E+01 0.  0.
<mgrwt>
<rscale>  0 0.13944900E+03</rscale>
<asrwt>0</asrwt>
<pdfrwt beam="2">  1        2 0.36336769E-01 0.14684337E+03</pdfrwt>
<pdfrwt beam="1">  1       -2 0.11738929E-01 0.14684337E+03</pdfrwt>
<totfact> 0.69525093E+03</totfact>
</mgrwt>
</event>
<event>
 8    3  0.7944584E-004  0.1356461E+03  0.7818608E-02  0.1231665E+00
         -2   -1    0    0    0  501 -0.00000000000E+00  0.00000000000E+00  0.14861730298E+02  0.14861730517E+02  0.25500000000E-02 0.  1.
          2   -1    0    0  501    0  0.00000000000E+00 -0.00000000000E+00 -0.11832569130E+04  0.11832569130E+04  0.25500000000E-02 0. -1.
         25    2    1    2    0    0  0.51404473241E+02 -0.11488921834E+02 -0.39500361907E+03  0.41764546034E+03  0.12500182509E+03 0.  0.
         23    2    1    2    0    0 -0.51404473241E+02  0.11488921834E+02 -0.77339156367E+03  0.78047318321E+03  0.90716391894E+02 0.  0.
        -13    1    4    4    0    0  0.68274659939E+01  0.36285082457E+02 -0.18220310957E+03  0.18590644368E+03  0.10566000000E+00 0. -1.
         13    1    4    4    0    0 -0.58231939235E+02 -0.24796160622E+02 -0.59118845410E+03  0.59456673953E+03  0.10566000000E+00 0.  1.
    9000005    1    3    3    0    0  0.71026059755E+02  0.37081171048E+02 -0.28056890290E+03  0.29178694914E+03  0.10000000000E+01 0.  0.
    9000005    1    3    3    0    0 -0.19621586514E+02 -0.48570092883E+02 -0.11443471616E+03  0.12585851121E+03  0.10000000000E+01 0.  0.
<mgrwt>
<rscale>  0 0.12720342E+03</rscale>
<asrwt>0</asrwt>
<pdfrwt beam="2">  1        2 0.18203945E+00 0.13564613E+03</pdfrwt>
<pdfrwt beam="1">  1       -2 0.22864210E-02 0.13564613E+03</pdfrwt>
<totfact> 0.12505933E+04</totfact>
</mgrwt>
</event>
<event>
 8    3  0.7944584E-004  0.1692479E+03  0.7818608E-02  0.1184996E+00
         -2   -1    0    0    0  501 -0.00000000000E+00  0.00000000000E+00  0.34829249728E+02  0.34829249821E+02  0.25500000000E-02 0.  1.
          2   -1    0    0  501    0  0.00000000000E+00 -0.00000000000E+00 -0.74409462905E+03  0.74409462905E+03  0.25500000000E-02 0. -1.
         25    2    1    2    0    0  0.69596650600E+02 -0.90420227871E+02 -0.30452355828E+03  0.34839554617E+03  0.12500139062E+03 0.  0.
         23    2    1    2    0    0 -0.69596650600E+02  0.90420227871E+02 -0.40474182104E+03  0.43052833271E+03  0.92299470122E+02 0.  0.
        -13    1    4    4    0    0 -0.73919352236E+02  0.95418588243E+02 -0.27148299864E+03  0.29710571743E+03  0.10566000000E+00 0.  1.
         13    1    4    4    0    0  0.43227016357E+01 -0.49983603720E+01 -0.13325882240E+03  0.13342261527E+03  0.10566000000E+00 0. -1.
    9000005    1    3    3    0    0  0.10120146442E+02  0.12279650027E+02 -0.16263318301E+03  0.16341284951E+03  0.10000000000E+01 0.  0.
    9000005    1    3    3    0    0  0.59476504158E+02 -0.10269987790E+03 -0.14189037527E+03  0.18498269666E+03  0.10000000000E+01 0.  0.
<mgrwt>
<rscale>  0 0.16332210E+03</rscale>
<asrwt>0</asrwt>
<pdfrwt beam="2">  1        2 0.11447609E+00 0.16924792E+03</pdfrwt>
<pdfrwt beam="1">  1       -2 0.53583467E-02 0.16924792E+03</pdfrwt>
<totfact> 0.66856642E+03</totfact>
</mgrwt>
</event>
<event>
 8    3  0.7944584E-004  0.1482225E+03  0.7818608E-02  0.1211665E+00
         -2   -1    0    0    0  501 -0.00000000000E+00  0.00000000000E+00  0.29834198220E+03  0.29834198221E+03  0.25500000000E-02 0. -1.
          2   -1    0    0  501    0  0.00000000000E+00 -0.00000000000E+00 -0.61291403286E+02  0.61291403339E+02  0.25500000000E-02 0.  1.
         25    2    1    2    0    0 -0.74946265886E+02 -0.27006950761E+02  0.13136725835E+03  0.19805876819E+03  0.12499440359E+03 0.  0.
         23    2    1    2    0    0  0.74946265886E+02  0.27006950761E+02  0.10568332056E+03  0.16157461736E+03  0.92688049773E+02 0.  0.
        -13    1    4    4    0    0 -0.22639751116E+01  0.41780108864E+02  0.24123475520E+02  0.48297580842E+02  0.10566000000E+00 0.  1.
         13    1    4    4    0    0  0.77210240997E+02 -0.14773158103E+02  0.81559845036E+02  0.11327703651E+03  0.10566000000E+00 0. -1.
    9000005    1    3    3    0    0  0.31146531064E+02  0.11078936805E+02  0.15924587957E+02  0.36707516119E+02  0.10000000000E+01 0.  0.
    9000005    1    3    3    0    0 -0.10609279695E+03 -0.38085887566E+02  0.11544267040E+03  0.16135125207E+03  0.10000000000E+01 0.  0.
<mgrwt>
<rscale>  0 0.14124400E+03</rscale>
<asrwt>0</asrwt>
<pdfrwt beam="2">  1        2 0.94294469E-02 0.14822253E+03</pdfrwt>
<pdfrwt beam="1">  1       -2 0.45898765E-01 0.14822253E+03</pdfrwt>
<totfact> 0.30308667E+03</totfact>
</mgrwt>
</event>
<event>
 8    3  0.7944584E-004  0.1324380E+03  0.7818608E-02  0.1236815E+00
         -2   -1    0    0    0  501 -0.00000000000E+00  0.00000000000E+00  0.10507038637E+02  0.10507038946E+02  0.25500000000E-02 0.  1.
          2   -1    0    0  501    0  0.00000000000E+00 -0.00000000000E+00 -0.13286515992E+04  0.13286515992E+04  0.25500000000E-02 0. -1.
         25    2    1    2    0    0 -0.16958283986E+02 -0.40330979185E+02 -0.84011430315E+03  0.85048918833E+03  0.12500258332E+03 0.  0.
         23    2    1    2    0    0  0.16958283986E+02  0.40330979185E+02 -0.47803025739E+03  0.48866944979E+03  0.91491709472E+02 0.  0.
        -13    1    4    4    0    0 -0.30274822264E+02  0.26157403772E+02 -0.33491248549E+03  0.33729387593E+03  0.10566000000E+00 0. -1.
         13    1    4    4    0    0  0.47233106250E+02  0.14173575413E+02 -0.14311777190E+03  0.15137557386E+03  0.10566000000E+00 0.  1.
    9000005    1    3    3    0    0 -0.27477730859E+02  0.60801761588E-01 -0.36037360428E+02  0.45329027528E+02  0.10000000000E+01 0.  0.
    9000005    1    3    3    0    0  0.10519446874E+02 -0.40391780947E+02 -0.80407694272E+03  0.80516016080E+03  0.10000000000E+01 0.  0.
<mgrwt>
<rscale>  0 0.12388948E+03</rscale>
<asrwt>0</asrwt>
<pdfrwt beam="2">  1        2 0.20440781E+00 0.13243797E+03</pdfrwt>
<pdfrwt beam="1">  1       -2 0.16164686E-02 0.13243797E+03</pdfrwt>
<totfact> 0.17203882E+04</totfact>
</mgrwt>
</event>
<event>
 8    3  0.7944584E-004  0.1416973E+03  0.7818608E-02  0.1221887E+00
         -2   -1    0    0    0  501 -0.00000000000E+00  0.00000000000E+00  0.80798303431E+02  0.80798303471E+02  0.25500000000E-02 0.  1.
          2   -1    0    0  501    0  0.00000000000E+00 -0.00000000000E+00 -0.20884130100E+03  0.20884130102E+03  0.25500000000E-02 0. -1.
         25    2    1    2    0    0 -0.66688172697E+02 -0.22564474391E+01 -0.10010446876E+03  0.17349072290E+03  0.12500288930E+03 0.  0.
         23    2    1    2    0    0  0.66688172697E+02  0.22564474391E+01 -0.27938528811E+02  0.11614888159E+03  0.90871323141E+02 0.  0.
        -13    1    4    4    0    0  0.35886167469E+02  0.12964990639E+02 -0.59553826618E+02  0.70728900930E+02  0.10566000000E+00 0. -1.
         13    1    4    4    0    0  0.30802005228E+02 -0.10708543200E+02  0.31615297807E+02  0.45419980659E+02  0.10566000000E+00 0.  1.
    9000005    1    3    3    0    0  0.36523490546E+02 -0.69933932521E+00 -0.14243138212E+02  0.39221440862E+02  0.10000000000E+01 0.  0.
    9000005    1    3    3    0    0 -0.10321166324E+03 -0.15571081139E+01 -0.85861330547E+02  0.13426928204E+03  0.10000000000E+01 0.  0.
<mgrwt>
<rscale>  0 0.13382566E+03</rscale>
<asrwt>0</asrwt>
<pdfrwt beam="2">  1        2 0.32129431E-01 0.14169731E+03</pdfrwt>
<pdfrwt beam="1">  1       -2 0.12430508E-01 0.14169731E+03</pdfrwt>
<totfact> 0.72239262E+03</totfact>
</mgrwt>
</event>
<event>
 8    3  0.7944584E-004  0.1739990E+03  0.7818608E-02  0.1179977E+00
         -2   -1    0    0    0  501 -0.00000000000E+00  0.00000000000E+00  0.58775728936E+03  0.58775728936E+03  0.25500000000E-02 0.  1.
          2   -1    0    0  501    0  0.00000000000E+00 -0.00000000000E+00 -0.46673972873E+02  0.46673972943E+02  0.25500000000E-02 0. -1.
         25    2    1    2    0    0  0.73255667765E+02 -0.96356806372E+02  0.22825779477E+03  0.28701440730E+03  0.12499848851E+03 0.  0.
         23    2    1    2    0    0 -0.73255667765E+02  0.96356806372E+02  0.31282552172E+03  0.34741685501E+03  0.90485563010E+02 0.  0.
        -13    1    4    4    0    0 -0.81683920077E+02  0.42721326446E+02  0.23581149396E+03  0.25318855895E+03  0.10566000000E+00 0. -1.
         13    1    4    4    0    0  0.84282523115E+01  0.53635479926E+02  0.77014027752E+02  0.94228296061E+02  0.10566000000E+00 0.  1.
    9000005    1    3    3    0    0  0.72588128241E+02 -0.65811125991E+02  0.57643990352E+02  0.11368364126E+03  0.10000000000E+01 0.  0.
    9000005    1    3    3    0    0  0.66753952383E+00 -0.30545680381E+02  0.17061380441E+03  0.17333076604E+03  0.10000000000E+01 0.  0.
<mgrwt>
<rscale>  0 0.16797470E+03</rscale>
<asrwt>0</asrwt>
<pdfrwt beam="2">  1        2 0.71806113E-02 0.17399899E+03</pdfrwt>
<pdfrwt beam="1">  1       -2 0.90424197E-01 0.17399899E+03</pdfrwt>
<totfact> 0.10392528E+03</totfact>
</mgrwt>
</event>
<event>
 8    3  0.7944584E-004  0.1263294E+03  0.7818608E-02  0.1247898E+00
          2   -1    0    0  501    0  0.00000000000E+00  0.00000000000E+00  0.86093038014E+03  0.86093038015E+03  0.25500000000E-02 0. -1.
         -2   -1    0    0    0  501 -0.00000000000E+00 -0.00000000000E+00 -0.14354411974E+02  0.14354412201E+02  0.25500000000E-02 0.  1.
         25    2    1    2    0    0  0.17668568578E+02  0.46542683238E+01  0.55161684303E+03  0.56589775547E+03  0.12500115039E+03 0.  0.
         23    2    1    2    0    0 -0.17668568578E+02 -0.46542683238E+01  0.29495912513E+03  0.30938703688E+03  0.91572990331E+02 0.  0.
        -13    1    4    4    0    0  0.36545145698E+02 -0.81376936343E+00  0.15484290521E+03  0.15909917144E+03  0.10566000000E+00 0. -1.
         13    1    4    4    0    0 -0.54213714276E+02 -0.38404989604E+01  0.14011621992E+03  0.15028786543E+03  0.10566000000E+00 0.  1.
    9000005    1    3    3    0    0  0.57507466740E+02  0.23377443071E+02  0.15696947341E+03  0.16880174513E+03  0.10000000000E+01 0.  0.
    9000005    1    3    3    0    0 -0.39838898161E+02 -0.18723174747E+02  0.39464736962E+03  0.39709601034E+03  0.10000000000E+01 0.  0.
<mgrwt>
<rscale>  0 0.11713578E+03</rscale>
<asrwt>0</asrwt>
<pdfrwt beam="1">  1        2 0.13245084E+00 0.12632944E+03</pdfrwt>
<pdfrwt beam="2">  1       -2 0.22083710E-02 0.12632944E+03</pdfrwt>
<totfact> 0.20337221E+04</totfact>
</mgrwt>
</event>
<event>
 8    3  0.7944584E-004  0.1582459E+03  0.7818608E-02  0.1198467E+00
          2   -1    0    0  501    0  0.00000000000E+00  0.00000000000E+00  0.15981267891E+04  0.15981267891E+04  0.25500000000E-02 0.  1.
         -2   -1    0    0    0  501 -0.00000000000E+00 -0.00000000000E+00 -0.14192794243E+02  0.14192794472E+02  0.25500000000E-02 0. -1.
         25    2    1    2    0    0 -0.38139410559E+02 -0.89230619476E+02  0.10554679849E+04  0.10672649280E+04  0.12500016580E+03 0.  0.
         23    2    1    2    0    0  0.38139410559E+02  0.89230619476E+02  0.52846600994E+03  0.54505465549E+03  0.91605325804E+02 0.  0.
        -13    1    4    4    0    0  0.14698192373E+02  0.18870859260E+02  0.36231449799E+03  0.36310322610E+03  0.10566000000E+00 0.  1.
         13    1    4    4    0    0  0.23441218186E+02  0.70359760216E+02  0.16615151196E+03  0.18195142939E+03  0.10566000000E+00 0. -1.
    9000005    1    3    3    0    0 -0.48925919608E+02  0.16620326616E+02  0.36797407926E+03  0.37158566156E+03  0.10000000000E+01 0.  0.
    9000005    1    3    3    0    0  0.10786509049E+02 -0.10585094609E+03  0.68749390561E+03  0.69567926648E+03  0.10000000000E+01 0.  0.
<mgrwt>
<rscale>  0 0.15164461E+03</rscale>
<asrwt>0</asrwt>
<pdfrwt beam="1">  1        2 0.24586569E+00 0.15824588E+03</pdfrwt>
<pdfrwt beam="2">  1       -2 0.21835065E-02 0.15824588E+03</pdfrwt>
<totfact> 0.80901693E+03</totfact>
</mgrwt>
</event>
<event>
 8    3  0.7944584E-004  0.1653636E+03  0.7818608E-02  0.1189666E+00
          2   -1    0    0  501    0  0.00000000000E+00  0.00000000000E+00  0.24895227727E+03  0.24895227729E+03  0.25500000000E-02 0.  1.
         -2   -1    0    0    0  501 -0.00000000000E+00 -0.00000000000E+00 -0.10295390048E+03  0.10295390051E+03  0.25500000000E-02 0. -1.
         25    2    1    2    0    0 -0.42349702018E+02 -0.99632968099E+02  0.12758589097E+03  0.20886186676E+03  0.12499957687E+03 0.  0.
         23    2    1    2    0    0  0.42349702018E+02  0.99632968099E+02  0.18412485822E+02  0.14304431105E+03  0.91664768015E+02 0.  0.
        -13    1    4    4    0    0  0.36517017747E+02  0.91025363249E+01 -0.22151895095E+02  0.43669971067E+02  0.10566000000E+00 0.  1.
         13    1    4    4    0    0  0.58326842711E+01  0.90530431774E+02  0.40564380917E+02  0.99374339979E+02  0.10566000000E+00 0. -1.
    9000005    1    3    3    0    0 -0.17184870496E+02 -0.76018896954E+02  0.13130733147E+01  0.77954580556E+02  0.10000000000E+01 0.  0.
    9000005    1    3    3    0    0 -0.25164831522E+02 -0.23614071145E+02  0.12627281766E+03  0.13090728620E+03  0.10000000000E+01 0.  0.
<mgrwt>
<rscale>  0 0.15914412E+03</rscale>
<asrwt>0</asrwt>
<pdfrwt beam="1">  1        2 0.38300350E-01 0.16536360E+03</pdfrwt>
<pdfrwt beam="2">  1       -2 0.15839062E-01 0.16536360E+03</pdfrwt>
<totfact> 0.40689710E+03</totfact>
</mgrwt>
</event>
<event>
 8    3  0.7944584E-004  0.1317494E+03  0.7818608E-02  0.1238997E+00
          2   -1    0    0  501    0  0.00000000000E+00  0.00000000000E+00  0.80100579053E+03  0.80100579053E+03  0.25500000000E-02 0.  1.
         -2   -1    0    0    0  501 -0.00000000000E+00 -0.00000000000E+00 -0.23842250015E+02  0.23842250151E+02  0.25500000000E-02 0. -1.
         25    2    1    2    0    0  0.41181577955E+02  0.59229195433E+01  0.65391253697E+03  0.66705284908E+03  0.12500757625E+03 0.  0.
         23    2    1    2    0    0 -0.41181577955E+02 -0.59229195433E+01  0.12325100354E+03  0.15779519160E+03  0.89316903662E+02 0.  0.
        -13    1    4    4    0    0 -0.27274257969E+02 -0.33904773959E+02  0.11843895138E+03  0.12617929788E+03  0.10566000000E+00 0.  1.
         13    1    4    4    0    0 -0.13907319986E+02  0.27981854416E+02  0.48120521580E+01  0.31615893720E+02  0.10566000000E+00 0. -1.
    9000005    1    3    3    0    0 -0.34821624459E+02  0.33459931938E+02  0.18386816844E+03  0.19010685401E+03  0.10000000000E+01 0.  0.
    9000005    1    3    3    0    0  0.76003202413E+02 -0.27537012395E+02  0.47004436853E+03  0.47694599508E+03  0.10000000000E+01 0.  0.
<mgrwt>
<rscale>  0 0.12251958E+03</rscale>
<asrwt>0</asrwt>
<pdfrwt beam="1">  1        2 0.12323166E+00 0.13174937E+03</pdfrwt>
<pdfrwt beam="2">  1       -2 0.36680385E-02 0.13174937E+03</pdfrwt>
<totfact> 0.10619764E+04</totfact>
</mgrwt>
</event>
<event>
 8    3  0.7944584E-004  0.1443211E+03  0.7818608E-02  0.1216897E+00
          2   -1    0    0  501    0  0.00000000000E+00  0.00000000000E+00  0.18451718350E+04  0.18451718350E+04  0.25500000000E-02 0. -1.
         -2   -1    0    0    0  501 -0.00000000000E+00 -0.00000000000E+00 -0.21775421840E+02  0.21775421989E+02  0.25500000000E-02 0.  1.
         25    2    1    2    0    0  0.48823563790E+02  0.53096947135E+02  0.24677201451E+03  0.28587586858E+03  0.12500223565E+03 0.  0.
         23    2    1    2    0    0 -0.48823563790E+02 -0.53096947135E+02  0.15766243987E+04  0.15810713884E+04  0.94017097617E+02 0.  0.
        -13    1    4    4    0    0 -0.24310282763E+02 -0.34608229941E+02  0.14555527010E+04  0.14561670220E+04  0.10566000000E+00 0.  1.
         13    1    4    4    0    0 -0.24513281028E+02 -0.18488717194E+02  0.12107169769E+03  0.12490436644E+03  0.10566000000E+00 0. -1.
    9000005    1    3    3    0    0  0.34461771602E+02  0.49623427352E+02  0.25944229102E+03  0.26638581159E+03  0.10000000000E+01 0.  0.
    9000005    1    3    3    0    0  0.14361792189E+02  0.34735197829E+01 -0.12670276517E+02  0.19490056992E+02  0.10000000000E+01 0.  0.
<mgrwt>
<rscale>  0 0.13738109E+03</rscale>
<asrwt>0</asrwt>
<pdfrwt beam="1">  1        2 0.28387270E+00 0.14432112E+03</pdfrwt>
<pdfrwt beam="2">  1       -2 0.33500636E-02 0.14432112E+03</pdfrwt>
<totfact> 0.32138213E+03</totfact>
</mgrwt>
</event>
<event>
 8    3  0.7944584E-004  0.2503840E+03  0.7818608E-02  0.1116616E+00
          2   -1    0    0  501    0  0.00000000000E+00  0.00000000000E+00  0.15194392363E+04  0.15194392363E+04  0.25500000000E-02 0.  1.
         -2   -1    0    0    0  501 -0.00000000000E+00 -0.00000000000E+00 -0.39438441809E+02  0.39438441891E+02  0.25500000000E-02 0. -1.
         25    2    1    2    0    0 -0.19264028682E+03 -0.99791992742E+02  0.61287530263E+03  0.66204856624E+03  0.12499378212E+03 0.  0.
         23    2    1    2    0    0  0.19264028682E+03  0.99791992742E+02  0.86712549184E+03  0.89682911193E+03  0.72987091225E+02 0.  0.
        -13    1    4    4    0    0  0.82202099427E+02  0.38001625769E+01  0.33395088217E+03  0.34394015359E+03  0.10566000000E+00 0.  1.
         13    1    4    4    0    0  0.11043818739E+03  0.95991830165E+02  0.53317460967E+03  0.55288895834E+03  0.10566000000E+00 0. -1.
    9000005    1    3    3    0    0 -0.28623423046E+02  0.29384242576E+02  0.11819091876E+03  0.12511125983E+03  0.10000000000E+01 0.  0.
    9000005    1    3    3    0    0 -0.16401686377E+03 -0.12917623532E+03  0.49468438387E+03  0.53693730642E+03  0.10000000000E+01 0.  0.
<mgrwt>
<rscale>  0 0.24483138E+03</rscale>
<asrwt>0</asrwt>
<pdfrwt beam="1">  1        2 0.23375985E+00 0.25038404E+03</pdfrwt>
<pdfrwt beam="2">  1       -2 0.60674535E-02 0.25038404E+03</pdfrwt>
<totfact> 0.19393662E+03</totfact>
</mgrwt>
</event>
<event>
 8    3  0.7944584E-004  0.1618975E+03  0.7818608E-02  0.1194015E+00
         -2   -1    0    0    0  501 -0.00000000000E+00  0.00000000000E+00  0.91624236078E+01  0.91624239626E+01  0.25500000000E-02 0.  1.
          2   -1    0    0  501    0  0.00000000000E+00 -0.00000000000E+00 -0.32301526349E+04  0.32301526349E+04  0.25500000000E-02 0. -1.
         25    2    1    2    0    0 -0.10299301380E+02  0.10236895676E+03 -0.91313589480E+03  0.92737693188E+03  0.12500132998E+03 0.  0.
         23    2    1    2    0    0  0.10299301380E+02 -0.10236895676E+03 -0.23078543165E+04  0.23119381270E+04  0.90999329249E+02 0.  0.
        -13    1    4    4    0    0  0.47936717356E+02 -0.36804616866E+02 -0.86890228841E+03  0.87100155376E+03  0.10566000000E+00 0.  1.
         13    1    4    4    0    0 -0.37637415975E+02 -0.65564339898E+02 -0.14389520281E+04  0.14409365733E+04  0.10566000000E+00 0. -1.
    9000005    1    3    3    0    0 -0.47475803844E+02  0.55040370994E+02 -0.74957985102E+03  0.75309650606E+03  0.10000000000E+01 0.  0.
    9000005    1    3    3    0    0  0.37176502463E+02  0.47328585771E+02 -0.16355604378E+03  0.17428042582E+03  0.10000000000E+01 0.  0.
<mgrwt>
<rscale>  0 0.15537859E+03</rscale>
<asrwt>0</asrwt>
<pdfrwt beam="2">  1        2 0.49694565E+00 0.16189753E+03</pdfrwt>
<pdfrwt beam="1">  1       -2 0.14096062E-02 0.16189753E+03</pdfrwt>
<totfact> 0.19894379E+03</totfact>
</mgrwt>
</event>
<event>
 8    3  0.7944584E-004  0.1600079E+03  0.7818608E-02  0.1196163E+00
          2   -1    0    0  501    0  0.00000000000E+00  0.00000000000E+00  0.29902579795E+04  0.29902579795E+04  0.25500000000E-02 0. -1.
         -2   -1    0    0    0  501 -0.00000000000E+00 -0.00000000000E+00 -0.82610727533E+01  0.82610731469E+01  0.25500000000E-02 0.  1.
         25    2    1    2    0    0  0.48083887531E+01 -0.99769158230E+02  0.10928377248E+04  0.11044893891E+04  0.12500204941E+03 0.  0.
         23    2    1    2    0    0 -0.48083887531E+01  0.99769158230E+02  0.18891591819E+04  0.18940296635E+04  0.91918149036E+02 0.  0.
        -13    1    4    4    0    0 -0.12886983270E+02  0.11884195303E+02  0.10675564789E+04  0.10677004052E+04  0.10566000000E+00 0. -1.
         13    1    4    4    0    0  0.80785945164E+01  0.87884962927E+02  0.82160270295E+03  0.82632925826E+03  0.10566000000E+00 0.  1.
    9000005    1    3    3    0    0 -0.40174293638E+01 -0.44117293880E+02  0.94857754872E+03  0.94961194248E+03  0.10000000000E+01 0.  0.
    9000005    1    3    3    0    0  0.88258181168E+01 -0.55651864350E+02  0.14426017610E+03  0.15487744664E+03  0.10000000000E+01 0.  0.
<mgrwt>
<rscale>  0 0.15356235E+03</rscale>
<asrwt>0</asrwt>
<pdfrwt beam="1">  1        2 0.46004033E+00 0.16000787E+03</pdfrwt>
<pdfrwt beam="2">  1       -2 0.12709325E-02 0.16000787E+03</pdfrwt>
<totfact> 0.32107488E+03</totfact>
</mgrwt>
</event>
<event>
 8    3  0.7944584E-004  0.1751446E+03  0.7818608E-02  0.1178257E+00
          2   -1    0    0  501    0  0.00000000000E+00  0.00000000000E+00  0.11326741320E+03  0.11326741322E+03  0.25500000000E-02 0.  1.
         -2   -1    0    0    0  501 -0.00000000000E+00 -0.00000000000E+00 -0.28502766584E+03  0.28502766585E+03  0.25500000000E-02 0. -1.
         25    2    1    2    0    0 -0.12242211709E+03 -0.79305324361E+01 -0.17025863022E+03  0.24426140830E+03  0.12500226527E+03 0.  0.
         23    2    1    2    0    0  0.12242211709E+03  0.79305324361E+01 -0.15016224170E+01  0.15403367077E+03  0.93134573406E+02 0.  0.
        -13    1    4    4    0    0  0.95505056107E+02 -0.15925168721E+02  0.34841667897E+02  0.10290179652E+03  0.10566000000E+00 0.  1.
         13    1    4    4    0    0  0.26917060982E+02  0.23855701157E+02 -0.36343290314E+02  0.51131874251E+02  0.10566000000E+00 0. -1.
    9000005    1    3    3    0    0 -0.10108121498E+03  0.46684218825E+02 -0.13803871210E+03  0.17734856737E+03  0.10000000000E+01 0.  0.
    9000005    1    3    3    0    0 -0.21340902113E+02 -0.54614751261E+02 -0.32219918120E+02  0.66912840935E+02  0.10000000000E+01 0.  0.
<mgrwt>
<rscale>  0 0.16960800E+03</rscale>
<asrwt>0</asrwt>
<pdfrwt beam="1">  1        2 0.17425756E-01 0.17514461E+03</pdfrwt>
<pdfrwt beam="2">  1       -2 0.43850410E-01 0.17514461E+03</pdfrwt>
<totfact> 0.15990824E+03</totfact>
</mgrwt>
</event>
<event>
 8    3  0.7944584E-004  0.1296627E+03  0.7818608E-02  0.1242250E+00
          2   -1    0    0  501    0  0.00000000000E+00  0.00000000000E+00  0.13231972984E+04  0.13231972984E+04  0.25500000000E-02 0. -1.
         -2   -1    0    0    0  501 -0.00000000000E+00 -0.00000000000E+00 -0.10539063537E+02  0.10539063846E+02  0.25500000000E-02 0.  1.
         25    2    1    2    0    0  0.15782808159E+02 -0.30630393005E+02  0.55616854622E+03  0.57108306489E+03  0.12500038877E+03 0.  0.
         23    2    1    2    0    0 -0.15782808159E+02  0.30630393005E+02  0.75648968864E+03  0.76265329735E+03  0.90421706125E+02 0.  0.
        -13    1    4    4    0    0 -0.41927648037E+02  0.49151184325E+02  0.52322360807E+03  0.52719704266E+03  0.10566000000E+00 0. -1.
         13    1    4    4    0    0  0.26144839878E+02 -0.18520791320E+02  0.23326608057E+03  0.23545625469E+03  0.10566000000E+00 0.  1.
    9000005    1    3    3    0    0  0.17934661860E+02  0.40688502690E+02  0.35209901868E+03  0.35489706296E+03  0.10000000000E+01 0.  0.
    9000005    1    3    3    0    0 -0.21518537007E+01 -0.71318895695E+02  0.20406952754E+03  0.21618600193E+03  0.10000000000E+01 0.  0.
<mgrwt>
<rscale>  0 0.12051483E+03</rscale>
<asrwt>0</asrwt>
<pdfrwt beam="1">  1        2 0.20356885E+00 0.12966270E+03</pdfrwt>
<pdfrwt beam="2">  1       -2 0.16213941E-02 0.12966270E+03</pdfrwt>
<totfact> 0.17221462E+04</totfact>
</mgrwt>
</event>
<event>
 8    3  0.7944584E-004  0.2430352E+03  0.7818608E-02  0.1120402E+00
          2   -1    0    0  501    0  0.00000000000E+00  0.00000000000E+00  0.41598166089E+03  0.41598166090E+03  0.25500000000E-02 0. -1.
         -2   -1    0    0    0  501 -0.00000000000E+00 -0.00000000000E+00 -0.22502212505E+03  0.22502212506E+03  0.25500000000E-02 0.  1.
         25    2    1    2    0    0 -0.16512304955E+03  0.12718304426E+03  0.30207270774E+03  0.38770352128E+03  0.12499980565E+03 0.  0.
         23    2    1    2    0    0  0.16512304955E+03 -0.12718304426E+03 -0.11111317189E+03  0.25330026468E+03  0.91508135581E+02 0.  0.
        -13    1    4    4    0    0  0.72169191632E+02 -0.11023372699E+03 -0.50834138170E+02  0.14122318349E+03  0.10566000000E+00 0. -1.
         13    1    4    4    0    0  0.92953857922E+02 -0.16949317276E+02 -0.60279033722E+02  0.11207708120E+03  0.10566000000E+00 0.  1.
    9000005    1    3    3    0    0 -0.20849161816E+01  0.32761380855E+01 -0.12064503678E+02  0.12713465509E+02  0.10000000000E+01 0.  0.
    9000005    1    3    3    0    0 -0.16303813337E+03  0.12390690618E+03  0.31413721141E+03  0.37499005577E+03  0.10000000000E+01 0.  0.
<mgrwt>
<rscale>  0 0.23908850E+03</rscale>
<asrwt>0</asrwt>
<pdfrwt beam="1">  1        2 0.63997178E-01 0.24303518E+03</pdfrwt>
<pdfrwt beam="2">  1       -2 0.34618789E-01 0.24303518E+03</pdfrwt>
<totfact> 0.60211706E+02</totfact>
</mgrwt>
</event>
<event>
 8    3  0.7944584E-004  0.1353092E+03  0.7818608E-02  0.1228684E+00
          2   -1    0    0  501    0  0.00000000000E+00  0.00000000000E+00  0.12157035500E+04  0.12157035500E+04  0.25500000000E-02 0. -1.
         -2   -1    0    0    0  501 -0.00000000000E+00 -0.00000000000E+00 -0.13213750882E+02  0.13213751128E+02  0.25500000000E-02 0.  1.
         25    2    1    2    0    0 -0.46177899492E+02  0.23487658453E+02  0.52437842578E+03  0.54155454433E+03  0.12499809021E+03 0.  0.
         23    2    1    2    0    0  0.46177899492E+02 -0.23487658453E+02  0.67811137338E+03  0.68736275685E+03  0.99741948494E+02 0.  0.
        -13    1    4    4    0    0  0.12741714807E+02 -0.35411944286E+02  0.82321867676E+02  0.90516618121E+02  0.10566000000E+00 0.  1.
         13    1    4    4    0    0  0.33436184686E+02  0.11924285833E+02  0.59578950571E+03  0.59684613873E+03  0.10566000000E+00 0. -1.
    9000005    1    3    3    0    0  0.20655262845E+02  0.55953444682E+02  0.19616446061E+03  0.20503395685E+03  0.10000000000E+01 0.  0.
    9000005    1    3    3    0    0 -0.66833162337E+02 -0.32465786229E+02  0.32821396517E+03  0.33652058748E+03  0.10000000000E+01 0.  0.
<mgrwt>
<rscale>  0 0.12917601E+03</rscale>
<asrwt>0</asrwt>
<pdfrwt beam="1">  1        2 0.18703131E+00 0.13530924E+03</pdfrwt>
<pdfrwt beam="2">  1       -2 0.20328848E-02 0.13530924E+03</pdfrwt>
<totfact> 0.14234814E+04</totfact>
</mgrwt>
</event>
<event>
 8    3  0.7944584E-004  0.1555641E+03  0.7818608E-02  0.1201896E+00
         -2   -1    0    0    0  501 -0.00000000000E+00  0.00000000000E+00  0.45745415904E+02  0.45745415975E+02  0.25500000000E-02 0.  1.
          2   -1    0    0  501    0  0.00000000000E+00 -0.00000000000E+00 -0.45415325746E+03  0.45415325747E+03  0.25500000000E-02 0. -1.
         25    2    1    2    0    0 -0.15392219317E+02 -0.91313183425E+02 -0.19037077888E+03  0.24584798830E+03  0.12500072807E+03 0.  0.
         23    2    1    2    0    0  0.15392219317E+02  0.91313183425E+02 -0.21803706268E+03  0.25405068514E+03  0.91796361788E+02 0.  0.
        -13    1    4    4    0    0  0.48841869786E+02  0.80153873498E+02 -0.17330912055E+03  0.19709448017E+03  0.10566000000E+00 0.  1.
         13    1    4    4    0    0 -0.33449650469E+02  0.11159309927E+02 -0.44727942124E+02  0.56956204976E+02  0.10566000000E+00 0. -1.
    9000005    1    3    3    0    0  0.13905712526E+01  0.31166824782E+02 -0.29387653784E+02  0.42871189047E+02  0.10000000000E+01 0.  0.
    9000005    1    3    3    0    0 -0.16782790570E+02 -0.12248000821E+03 -0.16098312509E+03  0.20297679925E+03  0.10000000000E+01 0.  0.
<mgrwt>
<rscale>  0 0.14884810E+03</rscale>
<asrwt>0</asrwt>
<pdfrwt beam="2">  1        2 0.69869729E-01 0.15556413E+03</pdfrwt>
<pdfrwt beam="1">  1       -2 0.70377566E-02 0.15556413E+03</pdfrwt>
<totfact> 0.77230884E+03</totfact>
</mgrwt>
</event>
<event>
 8    3  0.7944584E-004  0.1375064E+03  0.7818608E-02  0.1228342E+00
         -2   -1    0    0    0  501 -0.00000000000E+00  0.00000000000E+00  0.16916338722E+02  0.16916338914E+02  0.25500000000E-02 0.  1.
          2   -1    0    0  501    0  0.00000000000E+00 -0.00000000000E+00 -0.10430989487E+04  0.10430989487E+04  0.25500000000E-02 0. -1.
         25    2    1    2    0    0 -0.51188398228E+02 -0.25753347226E+02 -0.36399491335E+03  0.38910190738E+03  0.12499804149E+03 0.  0.
         23    2    1    2    0    0  0.51188398228E+02  0.25753347226E+02 -0.66218769665E+03  0.67091338026E+03  0.91371391629E+02 0.  0.
        -13    1    4    4    0    0  0.69547444264E+02  0.42171287766E+02 -0.44895120080E+03  0.45625919868E+03  0.10566000000E+00 0.  1.
         13    1    4    4    0    0 -0.18359046036E+02 -0.16417940540E+02 -0.21323649585E+03  0.21465418158E+03  0.10566000000E+00 0. -1.
    9000005    1    3    3    0    0 -0.18997500970E+02 -0.52389242201E+02 -0.33152410485E+03  0.33617669437E+03  0.10000000000E+01 0.  0.
    9000005    1    3    3    0    0 -0.32190897258E+02  0.26635894976E+02 -0.32470808497E+02  0.52925213007E+02  0.10000000000E+01 0.  0.
<mgrwt>
<rscale>  0 0.12940465E+03</rscale>
<asrwt>0</asrwt>
<pdfrwt beam="2">  1        2 0.16047671E+00 0.13750635E+03</pdfrwt>
<pdfrwt beam="1">  1       -2 0.26025145E-02 0.13750635E+03</pdfrwt>
<totfact> 0.12452414E+04</totfact>
</mgrwt>
</event>
<event>
 8    3  0.7944584E-004  0.1269616E+03  0.7818608E-02  0.1254025E+00
          2   -1    0    0  501    0  0.00000000000E+00  0.00000000000E+00  0.33426170996E+02  0.33426171093E+02  0.25500000000E-02 0. -1.
         -2   -1    0    0    0  501 -0.00000000000E+00 -0.00000000000E+00 -0.33594323732E+03  0.33594323733E+03  0.25500000000E-02 0.  1.
         25    2    1    2    0    0 -0.18700373157E+02 -0.12006391555E+02 -0.15027092847E+03  0.19672469386E+03  0.12500158334E+03 0.  0.
         23    2    1    2    0    0  0.18700373157E+02  0.12006391555E+02 -0.15224613786E+03  0.17264471457E+03  0.78316368534E+02 0.  0.
        -13    1    4    4    0    0  0.50634828571E+01  0.24138456144E+01  0.89638342226E+01  0.10574828476E+02  0.10566000000E+00 0. -1.
         13    1    4    4    0    0  0.13636890300E+02  0.95925459403E+01 -0.16120997208E+03  0.16206988609E+03  0.10566000000E+00 0.  1.
    9000005    1    3    3    0    0  0.48979804397E+02 -0.26273000840E+02 -0.49122535658E+02  0.74184333396E+02  0.10000000000E+01 0.  0.
    9000005    1    3    3    0    0 -0.67680177554E+02  0.14266609286E+02 -0.10114839281E+03  0.12254036046E+03  0.10000000000E+01 0.  0.
<mgrwt>
<rscale>  0 0.11361130E+03</rscale>
<asrwt>0</asrwt>
<pdfrwt beam="1">  1        2 0.51424881E-02 0.12696162E+03</pdfrwt>
<pdfrwt beam="2">  1       -2 0.51683573E-01 0.12696162E+03</pdfrwt>
<totfact> 0.51301675E+03</totfact>
</mgrwt>
</event>
<event>
 8    3  0.7944584E-004  0.2561444E+03  0.7818608E-02  0.1111978E+00
         -2   -1    0    0    0  501 -0.00000000000E+00  0.00000000000E+00  0.34897815343E+02  0.34897815436E+02  0.25500000000E-02 0.  1.
          2   -1    0    0  501    0  0.00000000000E+00 -0.00000000000E+00 -0.17751087715E+04  0.17751087715E+04  0.25500000000E-02 0. -1.
         25    2    1    2    0    0  0.26164286096E+02  0.22203673207E+03 -0.96172273250E+03  0.99524900408E+03  0.12500034266E+03 0.  0.
         23    2    1    2    0    0 -0.26164286096E+02 -0.22203673207E+03 -0.77848822365E+03  0.81475758285E+03  0.88323972897E+02 0.  0.
        -13    1    4    4    0    0 -0.28433562071E+02 -0.94633513794E+02 -0.20891381677E+03  0.23110379354E+03  0.10566000000E+00 0.  1.
         13    1    4    4    0    0  0.22692759743E+01 -0.12740321828E+03 -0.56957440688E+03  0.58365378931E+03  0.10566000000E+00 0. -1.
    9000005    1    3    3    0    0 -0.65065539009E+01 -0.13808596613E+02 -0.31218981643E+02  0.34765462731E+02  0.10000000000E+01 0.  0.
    9000005    1    3    3    0    0  0.32670839997E+02  0.23584532869E+03 -0.93050375085E+03  0.96048354135E+03  0.10000000000E+01 0.  0.
<mgrwt>
<rscale>  0 0.25211084E+03</rscale>
<asrwt>0</asrwt>
<pdfrwt beam="2">  1        2 0.27309359E+00 0.25614442E+03</pdfrwt>
<pdfrwt beam="1">  1       -2 0.53688961E-02 0.25614442E+03</pdfrwt>
<totfact> 0.17141298E+03</totfact>
</mgrwt>
</event>
<event>
 8    3  0.7944584E-004  0.1263652E+03  0.7818608E-02  0.1248550E+00
          2   -1    0    0  501    0  0.00000000000E+00  0.00000000000E+00  0.19473490573E+03  0.19473490575E+03  0.25500000000E-02 0. -1.
         -2   -1    0    0    0  501 -0.00000000000E+00 -0.00000000000E+00 -0.61466676486E+02  0.61466676539E+02  0.25500000000E-02 0.  1.
         25    2    1    2    0    0  0.58777408384E+01 -0.17594780711E+02  0.84287423876E+02  0.15189643563E+03  0.12499613269E+03 0.  0.
         23    2    1    2    0    0 -0.58777408384E+01  0.17594780711E+02  0.48980805371E+02  0.10430514666E+03  0.90201553090E+02 0.  0.
        -13    1    4    4    0    0  0.35020035893E+01 -0.24239650220E+01  0.72153032837E+02  0.72278703275E+02  0.10566000000E+00 0. -1.
         13    1    4    4    0    0 -0.93797444277E+01  0.20018745733E+02 -0.23172227466E+02  0.32026443387E+02  0.10566000000E+00 0.  1.
    9000005    1    3    3    0    0  0.39009985994E+02 -0.35263011852E+02  0.98558958298E+02  0.11171448999E+03  0.10000000000E+01 0.  0.
    9000005    1    3    3    0    0 -0.33132245156E+02  0.17668231141E+02 -0.14271534421E+02  0.40181945640E+02  0.10000000000E+01 0.  0.
<mgrwt>
<rscale>  0 0.11675430E+03</rscale>
<asrwt>0</asrwt>
<pdfrwt beam="1">  1        2 0.29959216E-01 0.12636517E+03</pdfrwt>
<pdfrwt beam="2">  1       -2 0.94564118E-02 0.12636517E+03</pdfrwt>
<totfact> 0.11902601E+04</totfact>
</mgrwt>
</event>
<event>
 8    3  0.7944584E-004  0.1738736E+03  0.7818608E-02  0.1180003E+00
         -2   -1    0    0    0  501 -0.00000000000E+00  0.00000000000E+00  0.19129410578E+02  0.19129410748E+02  0.25500000000E-02 0.  1.
          2   -1    0    0  501    0  0.00000000000E+00 -0.00000000000E+00 -0.13970974726E+04  0.13970974726E+04  0.25500000000E-02 0. -1.
         25    2    1    2    0    0  0.72925856452E+02  0.96381258993E+02 -0.66369462421E+03  0.68609225384E+03  0.12499799577E+03 0.  0.
         23    2    1    2    0    0 -0.72925856452E+02 -0.96381258993E+02 -0.71427343778E+03  0.73013462949E+03  0.91118086162E+02 0.  0.
        -13    1    4    4    0    0 -0.80744899319E+02 -0.63459462458E+02 -0.36337908719E+03  0.37761251875E+03  0.10566000000E+00 0.  1.
         13    1    4    4    0    0  0.78190428670E+01 -0.32921796535E+02 -0.35089435059E+03  0.35252211074E+03  0.10566000000E+00 0. -1.
    9000005    1    3    3    0    0  0.12311328964E+02 -0.80464613078E+01 -0.37759342401E+01  0.15217491246E+02  0.10000000000E+01 0.  0.
    9000005    1    3    3    0    0  0.60614527488E+02  0.10442772030E+03 -0.65991868997E+03  0.67087476259E+03  0.10000000000E+01 0.  0.
<mgrwt>
<rscale>  0 0.16794939E+03</rscale>
<asrwt>0</asrwt>
<pdfrwt beam="2">  1        2 0.21493799E+00 0.17387359E+03</pdfrwt>
<pdfrwt beam="1">  1       -2 0.29429874E-02 0.17387359E+03</pdfrwt>
<totfact> 0.66761653E+03</totfact>
</mgrwt>
</event>
<event>
 8    3  0.7944584E-004  0.1814647E+03  0.7818608E-02  0.1172112E+00
         -2   -1    0    0    0  501 -0.00000000000E+00  0.00000000000E+00  0.24484621419E+02  0.24484621552E+02  0.25500000000E-02 0.  1.
          2   -1    0    0  501    0  0.00000000000E+00 -0.00000000000E+00 -0.12055678738E+04  0.12055678738E+04  0.25500000000E-02 0. -1.
         25    2    1    2    0    0 -0.23554740130E+02  0.12941797064E+03 -0.70891563362E+03  0.73177238009E+03  0.12500241500E+03 0.  0.
         23    2    1    2    0    0  0.23554740130E+02 -0.12941797064E+03 -0.47216761876E+03  0.49828011527E+03  0.89649183839E+02 0.  0.
        -13    1    4    4    0    0  0.19599557173E+02 -0.71373771316E+02 -0.39370043000E+03  0.40059755069E+03  0.10566000000E+00 0. -1.
         13    1    4    4    0    0  0.39551829560E+01 -0.58044199322E+02 -0.78467188760E+02  0.97682564581E+02  0.10566000000E+00 0.  1.
    9000005    1    3    3    0    0 -0.33939574512E+02  0.62732366548E+02 -0.59575848533E+03  0.60001368099E+03  0.10000000000E+01 0.  0.
    9000005    1    3    3    0    0  0.10384834383E+02  0.66685604090E+02 -0.11315714829E+03  0.13175869910E+03  0.10000000000E+01 0.  0.
<mgrwt>
<rscale>  0 0.17561908E+03</rscale>
<asrwt>0</asrwt>
<pdfrwt beam="2">  1        2 0.18547193E+00 0.18146471E+03</pdfrwt>
<pdfrwt beam="1">  1       -2 0.37668658E-02 0.18146471E+03</pdfrwt>
<totfact> 0.58946679E+03</totfact>
</mgrwt>
</event>
<event>
 8    3  0.7944584E-004  0.1328218E+03  0.7818608E-02  0.1235973E+00
         -2   -1    0    0    0  501 -0.00000000000E+00  0.00000000000E+00  0.14518612472E+02  0.14518612696E+02  0.25500000000E-02 0. -1.
          2   -1    0    0  501    0  0.00000000000E+00 -0.00000000000E+00 -0.11957144058E+04  0.11957144058E+04  0.25500000000E-02 0.  1.
         25    2    1    2    0    0  0.35122274454E+02 -0.27977313607E+02 -0.92313265699E+03  0.93263902157E+03  0.12500135170E+03 0.  0.
         23    2    1    2    0    0 -0.35122274454E+02  0.27977313607E+02 -0.25806313631E+03  0.27759399689E+03  0.91899622144E+02 0.  0.
        -13    1    4    4    0    0 -0.46703074962E+02 -0.10395008065E+02 -0.20815537202E+03  0.21358348126E+03  0.10566000000E+00 0. -1.
         13    1    4    4    0    0  0.11580800508E+02  0.38372321672E+02 -0.49907764287E+02  0.64010515629E+02  0.10566000000E+00 0.  1.
    9000005    1    3    3    0    0  0.62782771154E+02 -0.52978709888E+02 -0.79366643352E+03  0.79790715484E+03  0.10000000000E+01 0.  0.
    9000005    1    3    3    0    0 -0.27660496699E+02  0.25001396281E+02 -0.12946622347E+03  0.13473186673E+03  0.10000000000E+01 0.  0.
<mgrwt>
<rscale>  0 0.12442371E+03</rscale>
<asrwt>0</asrwt>
<pdfrwt beam="2">  1        2 0.18395599E+00 0.13282184E+03</pdfrwt>
<pdfrwt beam="1">  1       -2 0.22336336E-02 0.13282184E+03</pdfrwt>
<totfact> 0.12719356E+04</totfact>
</mgrwt>
</event>
<event>
 8    3  0.7944584E-004  0.1298482E+03  0.7818608E-02  0.1237999E+00
         -2   -1    0    0    0  501 -0.00000000000E+00  0.00000000000E+00  0.31812569260E+02  0.31812569363E+02  0.25500000000E-02 0.  1.
          2   -1    0    0  501    0  0.00000000000E+00 -0.00000000000E+00 -0.71665984174E+03  0.71665984175E+03  0.25500000000E-02 0. -1.
         25    2    1    2    0    0  0.15166200973E+02 -0.31700334423E+02 -0.12989111304E+03  0.18366341400E+03  0.12500249414E+03 0.  0.
         23    2    1    2    0    0 -0.15166200973E+02  0.31700334423E+02 -0.55495615944E+03  0.56480899711E+03  0.98984541507E+02 0.  0.
        -13    1    4    4    0    0 -0.51027829814E+02  0.14128590929E+02 -0.17702369970E+03  0.18477244902E+03  0.10566000000E+00 0.  1.
         13    1    4    4    0    0  0.35861628842E+02  0.17571743494E+02 -0.37793245974E+03  0.38003654809E+03  0.10566000000E+00 0. -1.
    9000005    1    3    3    0    0  0.92933010732E+01  0.34312958978E+02  0.24545007221E+01  0.35647849479E+02  0.10000000000E+01 0.  0.
    9000005    1    3    3    0    0  0.58728998994E+01 -0.66013293401E+02 -0.13234561376E+03  0.14801556452E+03  0.10000000000E+01 0.  0.
<mgrwt>
<rscale>  0 0.12314390E+03</rscale>
<asrwt>0</asrwt>
<pdfrwt beam="2">  1        2 0.11025535E+00 0.12984817E+03</pdfrwt>
<pdfrwt beam="1">  1       -2 0.48942420E-02 0.12984817E+03</pdfrwt>
<totfact> 0.79088493E+03</totfact>
</mgrwt>
</event>
<event>
 8    3  0.7944584E-004  0.1563616E+03  0.7818608E-02  0.1201678E+00
         -2   -1    0    0    0  501 -0.00000000000E+00  0.00000000000E+00  0.45637273387E+02  0.45637273458E+02  0.25500000000E-02 0.  1.
          2   -1    0    0  501    0  0.00000000000E+00 -0.00000000000E+00 -0.45809548174E+03  0.45809548175E+03  0.25500000000E-02 0. -1.
         25    2    1    2    0    0  0.21322912046E+02  0.91484275107E+02 -0.18492351516E+03  0.24216866919E+03  0.12499967483E+03 0.  0.
         23    2    1    2    0    0 -0.21322912046E+02 -0.91484275107E+02 -0.22753469319E+03  0.26156408602E+03  0.88429041143E+02 0.  0.
        -13    1    4    4    0    0 -0.36991301811E+02 -0.74205169422E+01 -0.10944098102E+03  0.11576165156E+03  0.10566000000E+00 0. -1.
         13    1    4    4    0    0  0.15668389765E+02 -0.84063758165E+02 -0.11809371217E+03  0.14580243446E+03  0.10566000000E+00 0.  1.
    9000005    1    3    3    0    0 -0.50553647155E+02  0.32598792382E+02 -0.97607768737E+02  0.11465875031E+03  0.10000000000E+01 0.  0.
    9000005    1    3    3    0    0  0.71876559201E+02  0.58885482726E+02 -0.87315746425E+02  0.12750991888E+03  0.10000000000E+01 0.  0.
<mgrwt>
<rscale>  0 0.14902323E+03</rscale>
<asrwt>0</asrwt>
<pdfrwt beam="2">  1        2 0.70476225E-01 0.15636163E+03</pdfrwt>
<pdfrwt beam="1">  1       -2 0.70211193E-02 0.15636163E+03</pdfrwt>
<totfact> 0.76810090E+03</totfact>
</mgrwt>
</event>
<event>
 8    3  0.7944584E-004  0.1505957E+03  0.7818608E-02  0.1208420E+00
         -2   -1    0    0    0  501 -0.00000000000E+00  0.00000000000E+00  0.12271578469E+02  0.12271578734E+02  0.25500000000E-02 0.  1.
          2   -1    0    0  501    0  0.00000000000E+00 -0.00000000000E+00 -0.20061453461E+04  0.20061453461E+04  0.25500000000E-02 0. -1.
         25    2    1    2    0    0 -0.69340277158E+02 -0.47342799524E+02 -0.58697442871E+03  0.60598518280E+03  0.12501858707E+03 0.  0.
         23    2    1    2    0    0  0.69340277158E+02  0.47342799524E+02 -0.14068993389E+04  0.14124317420E+04  0.92456807999E+02 0.  0.
        -13    1    4    4    0    0  0.64544240653E+02  0.40093080955E+02 -0.52310154149E+03  0.52859119177E+03  0.10566000000E+00 0.  1.
         13    1    4    4    0    0  0.47960365044E+01  0.72497185694E+01 -0.88379779743E+03  0.88384055026E+03  0.10566000000E+00 0. -1.
    9000005    1    3    3    0    0 -0.27232799668E+02 -0.65307435391E+02 -0.14194957909E+03  0.15861074838E+03  0.10000000000E+01 0.  0.
    9000005    1    3    3    0    0 -0.42107477489E+02  0.17964635867E+02 -0.44502484961E+03  0.44737443442E+03  0.10000000000E+01 0.  0.
<mgrwt>
<rscale>  0 0.14371162E+03</rscale>
<asrwt>0</asrwt>
<pdfrwt beam="2">  1        2 0.30863748E+00 0.15059569E+03</pdfrwt>
<pdfrwt beam="1">  1       -2 0.18879368E-02 0.15059569E+03</pdfrwt>
<totfact> 0.61588739E+03</totfact>
</mgrwt>
</event>
<event>
 8    3  0.7944584E-004  0.1364518E+03  0.7818608E-02  0.1228149E+00
          2   -1    0    0  501    0  0.00000000000E+00  0.00000000000E+00  0.19544458905E+04  0.19544458905E+04  0.25500000000E-02 0. -1.
         -2   -1    0    0    0  501 -0.00000000000E+00 -0.00000000000E+00 -0.78623041099E+01  0.78623045234E+01  0.25500000000E-02 0.  1.
         25    2    1    2    0    0 -0.15606972833E+02 -0.52460885377E+02  0.11446309971E+04  0.11527355303E+04  0.12499344443E+03 0.  0.
         23    2    1    2    0    0  0.15606972833E+02  0.52460885377E+02  0.80195258928E+03  0.80957266474E+03  0.96354667446E+02 0.  0.
        -13    1    4    4    0    0 -0.61236159151E+01  0.62644463281E+02  0.27656091972E+03  0.28363318023E+03  0.10566000000E+00 0.  1.
         13    1    4    4    0    0  0.21730588748E+02 -0.10183577903E+02  0.52539166957E+03  0.52593948450E+03  0.10566000000E+00 0. -1.
    9000005    1    3    3    0    0  0.22839281857E+02  0.40634165367E+01  0.42032922015E+02  0.48019898821E+02  0.10000000000E+01 0.  0.
    9000005    1    3    3    0    0 -0.38446254690E+02 -0.56524301914E+02  0.11025980751E+04  0.11047156315E+04  0.10000000000E+01 0.  0.
<mgrwt>
<rscale>  0 0.12953404E+03</rscale>
<asrwt>0</asrwt>
<pdfrwt beam="1">  1        2 0.30068424E+00 0.13645176E+03</pdfrwt>
<pdfrwt beam="2">  1       -2 0.12095842E-02 0.13645176E+03</pdfrwt>
<totfact> 0.12418935E+04</totfact>
</mgrwt>
</event>
<event>
 8    3  0.7944584E-004  0.1878179E+03  0.7818608E-02  0.1165339E+00
          2   -1    0    0  501    0  0.00000000000E+00  0.00000000000E+00  0.16454594519E+03  0.16454594521E+03  0.25500000000E-02 0. -1.
         -2   -1    0    0    0  501 -0.00000000000E+00 -0.00000000000E+00 -0.20243852766E+03  0.20243852768E+03  0.25500000000E-02 0.  1.
         25    2    1    2    0    0  0.69119322127E+02 -0.12195663875E+03 -0.61524534302E+02  0.19763814000E+03  0.12499865453E+03 0.  0.
         23    2    1    2    0    0 -0.69119322127E+02  0.12195663875E+03  0.23631951832E+02  0.16934633288E+03  0.92026131538E+02 0.  0.
        -13    1    4    4    0    0 -0.76066717269E+02  0.49149381338E+02  0.31270325831E+02  0.95810498400E+02  0.10566000000E+00 0.  1.
         13    1    4    4    0    0  0.69473951414E+01  0.72807257416E+02 -0.76383739992E+01  0.73535834483E+02  0.10566000000E+00 0. -1.
    9000005    1    3    3    0    0  0.65523428733E+02 -0.16000085125E+02 -0.61991585962E+02  0.91614841413E+02  0.10000000000E+01 0.  0.
    9000005    1    3    3    0    0  0.35958933943E+01 -0.10595655363E+03  0.46705165992E+00  0.10602329859E+03  0.10000000000E+01 0.  0.
<mgrwt>
<rscale>  0 0.18256987E+03</rscale>
<asrwt>0</asrwt>
<pdfrwt beam="1">  1        2 0.25314761E-01 0.18781791E+03</pdfrwt>
<pdfrwt beam="2">  1       -2 0.31144389E-01 0.18781791E+03</pdfrwt>
<totfact> 0.19947714E+03</totfact>
</mgrwt>
</event>
<event>
 8    3  0.7944584E-004  0.1464408E+03  0.7818608E-02  0.1214589E+00
          2   -1    0    0  501    0  0.00000000000E+00  0.00000000000E+00  0.11082685779E+04  0.11082685779E+04  0.25500000000E-02 0. -1.
         -2   -1    0    0    0  501 -0.00000000000E+00 -0.00000000000E+00 -0.17362614420E+02  0.17362614607E+02  0.25500000000E-02 0.  1.
         25    2    1    2    0    0  0.76238312924E+02  0.27432218545E+01  0.43468690547E+03  0.45869120956E+03  0.12500045728E+03 0.  0.
         23    2    1    2    0    0 -0.76238312924E+02 -0.27432218545E+01  0.65621905804E+03  0.66693998297E+03  0.91464108459E+02 0.  0.
        -13    1    4    4    0    0 -0.58566336801E+02  0.15579796966E+02  0.17780923054E+03  0.18785334575E+03  0.10566000000E+00 0.  1.
         13    1    4    4    0    0 -0.17671976122E+02 -0.18323018821E+02  0.47840982749E+03  0.47908663722E+03  0.10566000000E+00 0. -1.
    9000005    1    3    3    0    0  0.10327310716E+03 -0.78409027258E+01  0.40122698579E+03  0.41438014980E+03  0.10000000000E+01 0.  0.
    9000005    1    3    3    0    0 -0.27034794238E+02  0.10584124580E+02  0.33459919675E+02  0.44311059762E+02  0.10000000000E+01 0.  0.
<mgrwt>
<rscale>  0 0.13906800E+03</rscale>
<asrwt>0</asrwt>
<pdfrwt beam="1">  1        2 0.17050292E+00 0.14644084E+03</pdfrwt>
<pdfrwt beam="2">  1       -2 0.26711706E-02 0.14644084E+03</pdfrwt>
<totfact> 0.11027522E+04</totfact>
</mgrwt>
</event>
<event>
 8    3  0.7944584E-004  0.1537785E+03  0.7818608E-02  0.1204226E+00
          2   -1    0    0  501    0  0.00000000000E+00  0.00000000000E+00  0.16141492824E+04  0.16141492824E+04  0.25500000000E-02 0. -1.
         -2   -1    0    0    0  501 -0.00000000000E+00 -0.00000000000E+00 -0.12901204844E+02  0.12901205096E+02  0.25500000000E-02 0.  1.
         25    2    1    2    0    0 -0.75738520444E+02 -0.47808703205E+02  0.10403081296E+04  0.10516124916E+04  0.12500333000E+03 0.  0.
         23    2    1    2    0    0  0.75738520444E+02  0.47808703205E+02  0.56093994802E+03  0.57543799590E+03  0.91941645982E+02 0.  0.
        -13    1    4    4    0    0 -0.15337509707E+02  0.28139212026E+02  0.94609062860E+02  0.99889641088E+02  0.10566000000E+00 0. -1.
         13    1    4    4    0    0  0.91076030151E+02  0.19669491179E+02  0.46633088516E+03  0.47554835481E+03  0.10566000000E+00 0.  1.
    9000005    1    3    3    0    0 -0.66032220645E+02 -0.71512591966E+02  0.43484037154E+03  0.44560234929E+03  0.10000000000E+01 0.  0.
    9000005    1    3    3    0    0 -0.97062997992E+01  0.23703888761E+02  0.60546775801E+03  0.60601014232E+03  0.10000000000E+01 0.  0.
<mgrwt>
<rscale>  0 0.14698593E+03</rscale>
<asrwt>0</asrwt>
<pdfrwt beam="1">  1        2 0.24833071E+00 0.15377850E+03</pdfrwt>
<pdfrwt beam="2">  1       -2 0.19848003E-02 0.15377850E+03</pdfrwt>
<totfact> 0.91132917E+03</totfact>
</mgrwt>
</event>
<event>
 8    3  0.7944584E-004  0.1303850E+03  0.7818608E-02  0.1240865E+00
          2   -1    0    0  501    0  0.00000000000E+00  0.00000000000E+00  0.10700048322E+04  0.10700048322E+04  0.25500000000E-02 0. -1.
         -2   -1    0    0    0  501 -0.00000000000E+00 -0.00000000000E+00 -0.13363533855E+02  0.13363534098E+02  0.25500000000E-02 0.  1.
         25    2    1    2    0    0 -0.40003495934E+01  0.36884243948E+02  0.75702353759E+03  0.76816983376E+03  0.12499522704E+03 0.  0.
         23    2    1    2    0    0  0.40003495934E+01 -0.36884243948E+02  0.29961776077E+03  0.31519853256E+03  0.90569653357E+02 0.  0.
        -13    1    4    4    0    0  0.90110649229E+01 -0.61145947891E+02  0.26798065169E+03  0.27501575788E+03  0.10566000000E+00 0. -1.
         13    1    4    4    0    0 -0.50107153295E+01  0.24261703943E+02  0.31637109078E+02  0.40182774683E+02  0.10566000000E+00 0.  1.
    9000005    1    3    3    0    0  0.14678424479E-01  0.95965281768E+01  0.72819756064E+03  0.72826147838E+03  0.10000000000E+01 0.  0.
    9000005    1    3    3    0    0 -0.40150280178E+01  0.27287715771E+02  0.28825976951E+02  0.39908355380E+02  0.10000000000E+01 0.  0.
<mgrwt>
<rscale>  0 0.12136336E+03</rscale>
<asrwt>0</asrwt>
<pdfrwt beam="1">  1        2 0.16461614E+00 0.13038503E+03</pdfrwt>
<pdfrwt beam="2">  1       -2 0.20559282E-02 0.13038503E+03</pdfrwt>
<totfact> 0.16878375E+04</totfact>
</mgrwt>
</event>
<event>
 8    3  0.7944584E-004  0.2033527E+03  0.7818608E-02  0.1150906E+00
         -2   -1    0    0    0  501 -0.00000000000E+00  0.00000000000E+00  0.11641540709E+04  0.11641540709E+04  0.25500000000E-02 0.  1.
          2   -1    0    0  501    0  0.00000000000E+00 -0.00000000000E+00 -0.36699172642E+02  0.36699172731E+02  0.25500000000E-02 0. -1.
         25    2    1    2    0    0  0.90917000768E+02  0.13211883980E+03  0.79240492545E+03  0.81808183733E+03  0.12502414902E+03 0.  0.
         23    2    1    2    0    0 -0.90917000768E+02 -0.13211883980E+03  0.33504997282E+03  0.38277140631E+03  0.92380605889E+02 0.  0.
        -13    1    4    4    0    0 -0.51049559571E+02 -0.27513138079E+02  0.50154738401E+02  0.76671632613E+02  0.10566000000E+00 0. -1.
         13    1    4    4    0    0 -0.39867441197E+02 -0.10460570172E+03  0.28489523442E+03  0.30609977370E+03  0.10566000000E+00 0.  1.
    9000005    1    3    3    0    0 -0.27713550047E+02  0.54559590707E+01  0.80080271597E+02  0.84921482821E+02  0.10000000000E+01 0.  0.
    9000005    1    3    3    0    0  0.11863055082E+03  0.12666288073E+03  0.71232465385E+03  0.73316035451E+03  0.10000000000E+01 0.  0.
<mgrwt>
<rscale>  0 0.19862262E+03</rscale>
<asrwt>0</asrwt>
<pdfrwt beam="2">  1        2 0.56460268E-02 0.20335271E+03</pdfrwt>
<pdfrwt beam="1">  1       -2 0.17910062E+00 0.20335271E+03</pdfrwt>
<totfact> 0.26311086E+02</totfact>
</mgrwt>
</event>
<event>
 8    3  0.7944584E-004  0.1292806E+03  0.7818608E-02  0.1241983E+00
          2   -1    0    0  501    0  0.00000000000E+00  0.00000000000E+00  0.15285534550E+03  0.15285534552E+03  0.25500000000E-02 0.  1.
         -2   -1    0    0    0  501 -0.00000000000E+00 -0.00000000000E+00 -0.11069968424E+03  0.11069968427E+03  0.25500000000E-02 0. -1.
         25    2    1    2    0    0  0.22636566871E+02  0.23994139706E+02 -0.40243126224E+02  0.13539934117E+03  0.12500135792E+03 0.  0.
         23    2    1    2    0    0 -0.22636566871E+02 -0.23994139706E+02  0.82398787487E+02  0.12815568863E+03  0.92445591824E+02 0.  0.
        -13    1    4    4    0    0  0.28328283136E+02 -0.36374502321E+01  0.64317347344E+02  0.70373681181E+02  0.10566000000E+00 0.  1.
         13    1    4    4    0    0 -0.50964850007E+02 -0.20356689474E+02  0.18081440143E+02  0.57782007444E+02  0.10566000000E+00 0. -1.
    9000005    1    3    3    0    0 -0.33730229989E+02 -0.31254567036E+02  0.16733412011E+01  0.46025823692E+02  0.10000000000E+01 0.  0.
    9000005    1    3    3    0    0  0.56366796861E+02  0.55248706742E+02 -0.41916467425E+02  0.89373517478E+02  0.10000000000E+01 0.  0.
<mgrwt>
<rscale>  0 0.12067787E+03</rscale>
<asrwt>0</asrwt>
<pdfrwt beam="1">  1        2 0.23516207E-01 0.12928060E+03</pdfrwt>
<pdfrwt beam="2">  1       -2 0.17030721E-01 0.12928060E+03</pdfrwt>
<totfact> 0.60451018E+03</totfact>
</mgrwt>
</event>
<event>
 8    3  0.7944584E-004  0.1468965E+03  0.7818608E-02  0.1213734E+00
          2   -1    0    0  501    0  0.00000000000E+00  0.00000000000E+00  0.65413033305E+02  0.65413033354E+02  0.25500000000E-02 0.  1.
         -2   -1    0    0    0  501 -0.00000000000E+00 -0.00000000000E+00 -0.36876114767E+03  0.36876114768E+03  0.25500000000E-02 0. -1.
         25    2    1    2    0    0  0.75348730117E+02  0.16610387838E+02 -0.27336427080E+03  0.31033303400E+03  0.12500092531E+03 0.  0.
         23    2    1    2    0    0 -0.75348730117E+02 -0.16610387838E+02 -0.29983843561E+02  0.12384114703E+03  0.92110057581E+02 0.  0.
        -13    1    4    4    0    0 -0.27685018641E+01  0.88204214017E+01  0.26730462932E+02  0.28284151903E+02  0.10566000000E+00 0.  1.
         13    1    4    4    0    0 -0.72580228253E+02 -0.25430809240E+02 -0.56714306493E+02  0.95556995123E+02  0.10566000000E+00 0. -1.
    9000005    1    3    3    0    0  0.36476074271E+02 -0.42499712940E+02 -0.46848007482E+02  0.73023731754E+02  0.10000000000E+01 0.  0.
    9000005    1    3    3    0    0  0.38872655846E+02  0.59110100778E+02 -0.22651626332E+03  0.23730930225E+03  0.10000000000E+01 0.  0.
<mgrwt>
<rscale>  0 0.13969966E+03</rscale>
<asrwt>0</asrwt>
<pdfrwt beam="1">  1        2 0.10063544E-01 0.14689645E+03</pdfrwt>
<pdfrwt beam="2">  1       -2 0.56732483E-01 0.14689645E+03</pdfrwt>
<totfact> 0.18340742E+03</totfact>
</mgrwt>
</event>
<event>
 8    3  0.7944584E-004  0.1571893E+03  0.7818608E-02  0.1200073E+00
          2   -1    0    0  501    0  0.00000000000E+00  0.00000000000E+00  0.18447538811E+04  0.18447538811E+04  0.25500000000E-02 0. -1.
         -2   -1    0    0    0  501 -0.00000000000E+00 -0.00000000000E+00 -0.11889039098E+02  0.11889039371E+02  0.25500000000E-02 0.  1.
         25    2    1    2    0    0  0.42520020398E+01  0.95214570864E+02  0.12010311595E+04  0.12112738459E+04  0.12499835824E+03 0.  0.
         23    2    1    2    0    0 -0.42520020398E+01 -0.95214570864E+02  0.63183368245E+03  0.64536907456E+03  0.90573429260E+02 0.  0.
        -13    1    4    4    0    0 -0.12119208430E+02 -0.60137386600E+02  0.14811882731E+03  0.16032023780E+03  0.10566000000E+00 0.  1.
         13    1    4    4    0    0  0.78672063905E+01 -0.35077184264E+02  0.48371485514E+03  0.48504883676E+03  0.10566000000E+00 0. -1.
    9000005    1    3    3    0    0 -0.41733343143E+02 -0.66644653930E+01  0.44820761342E+03  0.45019679226E+03  0.10000000000E+01 0.  0.
    9000005    1    3    3    0    0  0.45985345183E+02  0.10187903626E+03  0.75282354609E+03  0.76107705362E+03  0.10000000000E+01 0.  0.
<mgrwt>
<rscale>  0 0.15032583E+03</rscale>
<asrwt>0</asrwt>
<pdfrwt beam="1">  1        2 0.28380851E+00 0.15718932E+03</pdfrwt>
<pdfrwt beam="2">  1       -2 0.18290815E-02 0.15718932E+03</pdfrwt>
<totfact> 0.78126752E+03</totfact>
</mgrwt>
</event>
<event>
 8    3  0.7944584E-004  0.1498597E+03  0.7818608E-02  0.1208896E+00
         -2   -1    0    0    0  501 -0.00000000000E+00  0.00000000000E+00  0.13198580724E+02  0.13198580970E+02  0.25500000000E-02 0.  1.
          2   -1    0    0  501    0  0.00000000000E+00 -0.00000000000E+00 -0.23311997212E+04  0.23311997212E+04  0.25500000000E-02 0. -1.
         25    2    1    2    0    0 -0.78514343821E+02 -0.25850504763E+02 -0.19470175896E+04  0.19527763353E+04  0.12500068207E+03 0.  0.
         23    2    1    2    0    0  0.78514343821E+02  0.25850504763E+02 -0.37098355079E+03  0.39162196684E+03  0.94372767097E+02 0.  0.
        -13    1    4    4    0    0  0.66503159345E+02 -0.24920333124E+02 -0.17624593684E+03  0.19001666933E+03  0.10566000000E+00 0. -1.
         13    1    4    4    0    0  0.12011184476E+02  0.50770837887E+02 -0.19473761395E+03  0.20160529750E+03  0.10566000000E+00 0.  1.
    9000005    1    3    3    0    0 -0.23590601162E+02 -0.45424690555E+02 -0.16054703154E+04  0.16062863545E+04  0.10000000000E+01 0.  0.
    9000005    1    3    3    0    0 -0.54923742659E+02  0.19574185793E+02 -0.34154727426E+03  0.34648998083E+03  0.10000000000E+01 0.  0.
<mgrwt>
<rscale>  0 0.14334601E+03</rscale>
<asrwt>0</asrwt>
<pdfrwt beam="2">  1        2 0.35864578E+00 0.14985967E+03</pdfrwt>
<pdfrwt beam="1">  1       -2 0.20305528E-02 0.14985967E+03</pdfrwt>
<totfact> 0.37557990E+03</totfact>
</mgrwt>
</event>
<event>
 8    3  0.7944584E-004  0.1842137E+03  0.7818608E-02  0.1169007E+00
          2   -1    0    0  501    0  0.00000000000E+00  0.00000000000E+00  0.78806420433E+03  0.78806420434E+03  0.25500000000E-02 0. -1.
         -2   -1    0    0    0  501 -0.00000000000E+00 -0.00000000000E+00 -0.45231036719E+02  0.45231036791E+02  0.25500000000E-02 0.  1.
         25    2    1    2    0    0 -0.12997002676E+03 -0.37643453050E+02  0.22772236194E+03  0.29290300951E+03  0.12500184576E+03 0.  0.
         23    2    1    2    0    0  0.12997002676E+03  0.37643453050E+02  0.51511080568E+03  0.54039223162E+03  0.91517126548E+02 0.  0.
        -13    1    4    4    0    0  0.15330637724E+02 -0.12601486050E+02  0.15055688658E+02  0.24910054771E+02  0.10566000000E+00 0.  1.
         13    1    4    4    0    0  0.11463938903E+03  0.50244939099E+02  0.50005511702E+03  0.51548217685E+03  0.10566000000E+00 0. -1.
    9000005    1    3    3    0    0  0.11764935710E+02 -0.14743871643E+02  0.96706318296E+02  0.98533788427E+02  0.10000000000E+01 0.  0.
    9000005    1    3    3    0    0 -0.14173496247E+03 -0.22899581407E+02  0.13101604364E+03  0.19436922109E+03  0.10000000000E+01 0.  0.
<mgrwt>
<rscale>  0 0.17876156E+03</rscale>
<asrwt>0</asrwt>
<pdfrwt beam="1">  1        2 0.12124064E+00 0.18421373E+03</pdfrwt>
<pdfrwt beam="2">  1       -2 0.69586212E-02 0.18421373E+03</pdfrwt>
<totfact> 0.41916636E+03</totfact>
</mgrwt>
</event>
<event>
 8    3  0.7944584E-004  0.1678107E+03  0.7818608E-02  0.1186963E+00
         -2   -1    0    0    0  501 -0.00000000000E+00  0.00000000000E+00  0.41449153255E+02  0.41449153334E+02  0.25500000000E-02 0. -1.
          2   -1    0    0  501    0  0.00000000000E+00 -0.00000000000E+00 -0.58956920338E+03  0.58956920339E+03  0.25500000000E-02 0.  1.
         25    2    1    2    0    0  0.10599335052E+03  0.36066632580E+02 -0.31609477634E+03  0.35787755166E+03  0.12500016806E+03 0.  0.
         23    2    1    2    0    0 -0.10599335052E+03 -0.36066632580E+02 -0.23202527378E+03  0.27314080506E+03  0.90745685146E+02 0.  0.
        -13    1    4    4    0    0 -0.68965966330E+02 -0.50319993765E+02 -0.21231950760E+03  0.22884053564E+03  0.10566000000E+00 0.  1.
         13    1    4    4    0    0 -0.37027384188E+02  0.14253361185E+02 -0.19705766189E+02  0.44300269412E+02  0.10566000000E+00 0. -1.
    9000005    1    3    3    0    0  0.25058564951E+02 -0.46006309602E+02 -0.10570716256E+03  0.11798100023E+03  0.10000000000E+01 0.  0.
    9000005    1    3    3    0    0  0.80934785568E+02  0.82072942182E+02 -0.21038761379E+03  0.23989655143E+03  0.10000000000E+01 0.  0.
<mgrwt>
<rscale>  0 0.16154546E+03</rscale>
<asrwt>0</asrwt>
<pdfrwt beam="2">  1        2 0.90702949E-01 0.16781071E+03</pdfrwt>
<pdfrwt beam="1">  1       -2 0.63767932E-02 0.16781071E+03</pdfrwt>
<totfact> 0.67479675E+03</totfact>
</mgrwt>
</event>
<event>
 8    3  0.7944584E-004  0.2196216E+03  0.7818608E-02  0.1137625E+00
          2   -1    0    0  501    0  0.00000000000E+00  0.00000000000E+00  0.44813814973E+03  0.44813814974E+03  0.25500000000E-02 0. -1.
         -2   -1    0    0    0  501 -0.00000000000E+00 -0.00000000000E+00 -0.11936678622E+03  0.11936678625E+03  0.25500000000E-02 0.  1.
         25    2    1    2    0    0  0.10174550816E+03  0.14918443028E+03  0.53367569245E+02  0.22601266195E+03  0.12500193297E+03 0.  0.
         23    2    1    2    0    0 -0.10174550816E+03 -0.14918443028E+03  0.27540379427E+03  0.34149227404E+03  0.90341466998E+02 0.  0.
        -13    1    4    4    0    0  0.75479279189E+01 -0.54398807467E+02  0.54054163721E+02  0.77058842771E+02  0.10566000000E+00 0.  1.
         13    1    4    4    0    0 -0.10929343608E+03 -0.94785622815E+02  0.22134963055E+03  0.26443343127E+03  0.10566000000E+00 0. -1.
    9000005    1    3    3    0    0  0.44063949158E+02  0.93053066698E+02 -0.32835540584E+02  0.10807255694E+03  0.10000000000E+01 0.  0.
    9000005    1    3    3    0    0  0.57681559006E+02  0.56131363584E+02  0.86203109829E+02  0.11794010502E+03  0.10000000000E+01 0.  0.
<mgrwt>
<rscale>  0 0.21505445E+03</rscale>
<asrwt>0</asrwt>
<pdfrwt beam="1">  1        2 0.68944330E-01 0.21962155E+03</pdfrwt>
<pdfrwt beam="2">  1       -2 0.18364121E-01 0.21962155E+03</pdfrwt>
<totfact> 0.17045402E+03</totfact>
</mgrwt>
</event>
<event>
 8    3  0.7944584E-004  0.1350343E+03  0.7818608E-02  0.1232148E+00
          2   -1    0    0  501    0  0.00000000000E+00  0.00000000000E+00  0.78826657157E+03  0.78826657158E+03  0.25500000000E-02 0. -1.
         -2   -1    0    0    0  501 -0.00000000000E+00 -0.00000000000E+00 -0.20882711252E+02  0.20882711408E+02  0.25500000000E-02 0.  1.
         25    2    1    2    0    0 -0.13116539594E+02  0.49407230676E+02  0.28447326876E+03  0.31489572147E+03  0.12498462587E+03 0.  0.
         23    2    1    2    0    0  0.13116539594E+02 -0.49407230676E+02  0.48291059156E+03  0.49425356152E+03  0.92037088067E+02 0.  0.
        -13    1    4    4    0    0  0.34293733135E+02 -0.51515661533E+02  0.17521998713E+03  0.18582781969E+03  0.10566000000E+00 0.  1.
         13    1    4    4    0    0 -0.21177193541E+02  0.21084308567E+01  0.30769060442E+03  0.30842574183E+03  0.10566000000E+00 0. -1.
    9000005    1    3    3    0    0 -0.59343998962E+02  0.35895900124E+02  0.85109175762E+02  0.10979434256E+03  0.10000000000E+01 0.  0.
    9000005    1    3    3    0    0  0.46227459368E+02  0.13511330552E+02  0.19936409300E+03  0.20510137891E+03  0.10000000000E+01 0.  0.
<mgrwt>
<rscale>  0 0.12688783E+03</rscale>
<asrwt>0</asrwt>
<pdfrwt beam="1">  1        2 0.12127176E+00 0.13503435E+03</pdfrwt>
<pdfrwt beam="2">  1       -2 0.32127255E-02 0.13503435E+03</pdfrwt>
<totfact> 0.13195212E+04</totfact>
</mgrwt>
</event>
<event>
 8    3  0.7944584E-004  0.1526586E+03  0.7818608E-02  0.1205725E+00
         -2   -1    0    0    0  501 -0.00000000000E+00  0.00000000000E+00  0.43539477450E+02  0.43539477524E+02  0.25500000000E-02 0.  1.
          2   -1    0    0  501    0  0.00000000000E+00 -0.00000000000E+00 -0.46958607264E+03  0.46958607265E+03  0.25500000000E-02 0. -1.
         25    2    1    2    0    0  0.43637233935E+02 -0.75999578485E+02 -0.17842689465E+03  0.23482076805E+03  0.12499796901E+03 0.  0.
         23    2    1    2    0    0 -0.43637233935E+02  0.75999578485E+02 -0.24761970054E+03  0.27830478212E+03  0.91966795861E+02 0.  0.
        -13    1    4    4    0    0 -0.44222062998E+02  0.92595210532E+02 -0.16710813786E+03  0.19609845683E+03  0.10566000000E+00 0.  1.
         13    1    4    4    0    0  0.58482906367E+00 -0.16595632047E+02 -0.80511562685E+02  0.82206325293E+02  0.10566000000E+00 0. -1.
    9000005    1    3    3    0    0 -0.32460824731E+02 -0.48354966781E+02 -0.12473836385E+03  0.13766832378E+03  0.10000000000E+01 0.  0.
    9000005    1    3    3    0    0  0.76098058666E+02 -0.27644611704E+02 -0.53688530794E+02  0.97152444271E+02  0.10000000000E+01 0.  0.
<mgrwt>
<rscale>  0 0.14580493E+03</rscale>
<asrwt>0</asrwt>
<pdfrwt beam="2">  1        2 0.72244008E-01 0.15265856E+03</pdfrwt>
<pdfrwt beam="1">  1       -2 0.66983815E-02 0.15265856E+03</pdfrwt>
<totfact> 0.80237231E+03</totfact>
</mgrwt>
</event>
<event>
 8    3  0.7944584E-004  0.1478244E+03  0.7818608E-02  0.1212638E+00
          2   -1    0    0  501    0  0.00000000000E+00  0.00000000000E+00  0.38822771808E+03  0.38822771809E+03  0.25500000000E-02 0. -1.
         -2   -1    0    0    0  501 -0.00000000000E+00 -0.00000000000E+00 -0.49821521480E+02  0.49821521545E+02  0.25500000000E-02 0.  1.
         25    2    1    2    0    0 -0.17879263552E+02  0.76862035276E+02  0.12824058681E+03  0.19569799268E+03  0.12499846279E+03 0.  0.
         23    2    1    2    0    0  0.17879263552E+02 -0.76862035276E+02  0.21016560979E+03  0.24235124695E+03  0.91307736967E+02 0.  0.
        -13    1    4    4    0    0  0.22667198323E+02 -0.56413852516E+02  0.44458576940E+02  0.75318662117E+02  0.10566000000E+00 0.  1.
         13    1    4    4    0    0 -0.47879347714E+01 -0.20448182761E+02  0.16570703285E+03  0.16703258484E+03  0.10566000000E+00 0. -1.
    9000005    1    3    3    0    0 -0.95428031865E+01  0.13113903457E+02  0.13035566779E+03  0.13136452977E+03  0.10000000000E+01 0.  0.
    9000005    1    3    3    0    0 -0.83364603653E+01  0.63748131819E+02 -0.21150809836E+01  0.64333462906E+02  0.10000000000E+01 0.  0.
<mgrwt>
<rscale>  0 0.14051469E+03</rscale>
<asrwt>0</asrwt>
<pdfrwt beam="1">  1        2 0.59727340E-01 0.14782441E+03</pdfrwt>
<pdfrwt beam="2">  1       -2 0.76648496E-02 0.14782441E+03</pdfrwt>
<totfact> 0.79939514E+03</totfact>
</mgrwt>
</event>
<event>
 8    3  0.7944584E-004  0.1335072E+03  0.7818608E-02  0.1235156E+00
         -2   -1    0    0    0  501 -0.00000000000E+00  0.00000000000E+00  0.17766003121E+02  0.17766003304E+02  0.25500000000E-02 0.  1.
          2   -1    0    0  501    0  0.00000000000E+00 -0.00000000000E+00 -0.84724379151E+03  0.84724379151E+03  0.25500000000E-02 0. -1.
         25    2    1    2    0    0  0.24269954223E+02 -0.40148514466E+02 -0.58321229979E+03  0.59829822051E+03  0.12499296035E+03 0.  0.
         23    2    1    2    0    0 -0.24269954223E+02  0.40148514466E+02 -0.24626548860E+03  0.26671157431E+03  0.91035372834E+02 0.  0.
        -13    1    4    4    0    0  0.12802166595E+02  0.35434060958E+02 -0.21414410257E+03  0.21743315289E+03  0.10566000000E+00 0. -1.
         13    1    4    4    0    0 -0.37072120818E+02  0.47144535075E+01 -0.32121386026E+02  0.49278421424E+02  0.10566000000E+00 0.  1.
    9000005    1    3    3    0    0  0.10210418800E+02 -0.46288836430E+02 -0.58080438356E+03  0.58273633917E+03  0.10000000000E+01 0.  0.
    9000005    1    3    3    0    0  0.14059535422E+02  0.61403219640E+01 -0.24079162372E+01  0.15561881336E+02  0.10000000000E+01 0.  0.
<mgrwt>
<rscale>  0 0.12494447E+03</rscale>
<asrwt>0</asrwt>
<pdfrwt beam="2">  1        2 0.13034517E+00 0.13350721E+03</pdfrwt>
<pdfrwt beam="1">  1       -2 0.27332319E-02 0.13350721E+03</pdfrwt>
<totfact> 0.15271889E+04</totfact>
</mgrwt>
</event>
<event>
 8    3  0.7944584E-004  0.1731151E+03  0.7818608E-02  0.1180532E+00
          2   -1    0    0  501    0  0.00000000000E+00  0.00000000000E+00  0.13034230198E+03  0.13034230200E+03  0.25500000000E-02 0.  1.
         -2   -1    0    0    0  501 -0.00000000000E+00 -0.00000000000E+00 -0.20985688194E+03  0.20985688195E+03  0.25500000000E-02 0. -1.
         25    2    1    2    0    0 -0.11764762833E+03  0.22421503704E+02 -0.98218597828E+01  0.17339345383E+03  0.12500053047E+03 0.  0.
         23    2    1    2    0    0  0.11764762833E+03 -0.22421503704E+02 -0.69692720174E+02  0.16680573013E+03  0.92862199404E+02 0.  0.
        -13    1    4    4    0    0  0.99340275780E+02  0.20158526539E+02 -0.29804535236E+02  0.10565594195E+03  0.10566000000E+00 0.  1.
         13    1    4    4    0    0  0.18307352554E+02 -0.42580030244E+02 -0.39888184938E+02  0.61149788183E+02  0.10566000000E+00 0. -1.
    9000005    1    3    3    0    0 -0.54868029580E+02  0.73127602391E+02  0.39860596177E+01  0.91515220443E+02  0.10000000000E+01 0.  0.
    9000005    1    3    3    0    0 -0.62779598754E+02 -0.50706098686E+02 -0.13807919400E+02  0.81878233382E+02  0.10000000000E+01 0.  0.
<mgrwt>
<rscale>  0 0.16745161E+03</rscale>
<asrwt>0</asrwt>
<pdfrwt beam="1">  1        2 0.20052662E-01 0.17311505E+03</pdfrwt>
<pdfrwt beam="2">  1       -2 0.32285674E-01 0.17311505E+03</pdfrwt>
<totfact> 0.24197070E+03</totfact>
</mgrwt>
</event>
<event>
 8    3  0.7944584E-004  0.1285877E+03  0.7818608E-02  0.1246569E+00
          2   -1    0    0  501    0  0.00000000000E+00  0.00000000000E+00  0.26729924948E+02  0.26729925070E+02  0.25500000000E-02 0. -1.
         -2   -1    0    0    0  501 -0.00000000000E+00 -0.00000000000E+00 -0.45551656522E+03  0.45551656523E+03  0.25500000000E-02 0.  1.
         25    2    1    2    0    0 -0.29936217895E+02 -0.36090075073E+01 -0.22641366891E+03  0.26038037324E+03  0.12500234887E+03 0.  0.
         23    2    1    2    0    0  0.29936217895E+02  0.36090075073E+01 -0.20237297137E+03  0.22186611706E+03  0.85793661082E+02 0.  0.
        -13    1    4    4    0    0  0.45824173401E+02  0.29599714572E+02 -0.88272021166E+02  0.10376877592E+03  0.10566000000E+00 0.  1.
         13    1    4    4    0    0 -0.15887955506E+02 -0.25990707065E+02 -0.11410095020E+03  0.11809734114E+03  0.10566000000E+00 0. -1.
    9000005    1    3    3    0    0  0.28707187030E+02 -0.45576822978E+02 -0.71712366811E+02  0.89693996085E+02  0.10000000000E+01 0.  0.
    9000005    1    3    3    0    0 -0.58643404925E+02  0.41967815471E+02 -0.15470130209E+03  0.17068637716E+03  0.10000000000E+01 0.  0.
<mgrwt>
<rscale>  0 0.11791962E+03</rscale>
<asrwt>0</asrwt>
<pdfrwt beam="1">  1        2 0.41122965E-02 0.12858767E+03</pdfrwt>
<pdfrwt beam="2">  1       -2 0.70079466E-01 0.12858767E+03</pdfrwt>
<totfact> 0.36830956E+03</totfact>
</mgrwt>
</event>
<event>
 8    3  0.7944584E-004  0.1255360E+03  0.7818608E-02  0.1249979E+00
         -2   -1    0    0    0  501 -0.00000000000E+00  0.00000000000E+00  0.20166028243E+02  0.20166028404E+02  0.25500000000E-02 0.  1.
          2   -1    0    0  501    0  0.00000000000E+00 -0.00000000000E+00 -0.59326514850E+03  0.59326514850E+03  0.25500000000E-02 0. -1.
         25    2    1    2    0    0 -0.11135241694E+02  0.31874135276E+01 -0.29073023696E+03  0.31667547115E+03  0.12500052053E+03 0.  0.
         23    2    1    2    0    0  0.11135241694E+02 -0.31874135276E+01 -0.28236888330E+03  0.29675570576E+03  0.90540650724E+02 0.  0.
        -13    1    4    4    0    0 -0.14864546154E+02 -0.40739653869E+02 -0.17033991615E+03  0.17577363946E+03  0.10566000000E+00 0. -1.
         13    1    4    4    0    0  0.25999787848E+02  0.37552240341E+02 -0.11202896714E+03  0.12098206630E+03  0.10566000000E+00 0.  1.
    9000005    1    3    3    0    0 -0.17984665286E+02 -0.11392599369E+02 -0.29815078635E+03  0.29891157707E+03  0.10000000000E+01 0.  0.
    9000005    1    3    3    0    0  0.68494235922E+01  0.14580012897E+02  0.74205493897E+01  0.17763894080E+02  0.10000000000E+01 0.  0.
<mgrwt>
<rscale>  0 0.11592265E+03</rscale>
<asrwt>0</asrwt>
<pdfrwt beam="2">  1        2 0.91271548E-01 0.12553598E+03</pdfrwt>
<pdfrwt beam="1">  1       -2 0.31024663E-02 0.12553598E+03</pdfrwt>
<totfact> 0.19310950E+04</totfact>
</mgrwt>
</event>
<event>
 8    3  0.7944584E-004  0.1286023E+03  0.7818608E-02  0.1244196E+00
          2   -1    0    0  501    0  0.00000000000E+00  0.00000000000E+00  0.20131309554E+04  0.20131309554E+04  0.25500000000E-02 0. -1.
         -2   -1    0    0    0  501 -0.00000000000E+00 -0.00000000000E+00 -0.81327006042E+01  0.81327010040E+01  0.25500000000E-02 0.  1.
         25    2    1    2    0    0  0.29310454347E+02  0.74030925773E+01  0.16013283891E+04  0.16064840967E+04  0.12499853848E+03 0.  0.
         23    2    1    2    0    0 -0.29310454347E+02 -0.74030925773E+01  0.40366986574E+03  0.41477955977E+03  0.90436796636E+02 0.  0.
        -13    1    4    4    0    0 -0.52545484231E+02 -0.31516422226E+02  0.28244475973E+03  0.28901447411E+03  0.10566000000E+00 0.  1.
         13    1    4    4    0    0  0.23235029884E+02  0.24113329648E+02  0.12122510601E+03  0.12576508566E+03  0.10566000000E+00 0. -1.
    9000005    1    3    3    0    0  0.57519566768E+00 -0.21740649801E+02  0.49034507376E+02  0.53650439116E+02  0.10000000000E+01 0.  0.
    9000005    1    3    3    0    0  0.28735258679E+02  0.29143742378E+02  0.15522938817E+04  0.15528336576E+04  0.10000000000E+01 0.  0.
<mgrwt>
<rscale>  0 0.11933648E+03</rscale>
<asrwt>0</asrwt>
<pdfrwt beam="1">  1        2 0.30971215E+00 0.12860227E+03</pdfrwt>
<pdfrwt beam="2">  1       -2 0.12511860E-02 0.12860227E+03</pdfrwt>
<totfact> 0.11017660E+04</totfact>
</mgrwt>
</event>
<event>
 8    3  0.7944584E-004  0.1929033E+03  0.7818608E-02  0.1160783E+00
          2   -1    0    0  501    0  0.00000000000E+00  0.00000000000E+00  0.74729032304E+03  0.74729032305E+03  0.25500000000E-02 0. -1.
         -2   -1    0    0    0  501 -0.00000000000E+00 -0.00000000000E+00 -0.54433696139E+02  0.54433696199E+02  0.25500000000E-02 0.  1.
         25    2    1    2    0    0  0.11548261992E+03 -0.90827494319E+02  0.19203545702E+03  0.27219347192E+03  0.12500320064E+03 0.  0.
         23    2    1    2    0    0 -0.11548261992E+03  0.90827494319E+02  0.50082116988E+03  0.52953054733E+03  0.89414132697E+02 0.  0.
        -13    1    4    4    0    0 -0.75235448163E+02  0.82458670433E+02  0.23054547582E+03  0.25614650607E+03  0.10566000000E+00 0.  1.
         13    1    4    4    0    0 -0.40247171761E+02  0.83688238862E+01  0.27027569407E+03  0.27338404126E+03  0.10566000000E+00 0. -1.
    9000005    1    3    3    0    0 -0.24533421729E+02 -0.33286936756E+02  0.45831314407E+02  0.61736685371E+02  0.10000000000E+01 0.  0.
    9000005    1    3    3    0    0  0.14001604165E+03 -0.57540557563E+02  0.14620414262E+03  0.21045678655E+03  0.10000000000E+01 0.  0.
<mgrwt>
<rscale>  0 0.18744801E+03</rscale>
<asrwt>0</asrwt>
<pdfrwt beam="1">  1        2 0.11496774E+00 0.19290326E+03</pdfrwt>
<pdfrwt beam="2">  1       -2 0.83744149E-02 0.19290326E+03</pdfrwt>
<totfact> 0.33640003E+03</totfact>
</mgrwt>
</event>
<event>
 8    3  0.7944584E-004  0.1871950E+03  0.7818608E-02  0.1165939E+00
          2   -1    0    0  501    0  0.00000000000E+00  0.00000000000E+00  0.98916354969E+02  0.98916355001E+02  0.25500000000E-02 0. -1.
         -2   -1    0    0    0  501 -0.00000000000E+00 -0.00000000000E+00 -0.31780141770E+03  0.31780141771E+03  0.25500000000E-02 0.  1.
         25    2    1    2    0    0 -0.79333793127E+02 -0.11458867217E+03 -0.12508907632E+03  0.22514275300E+03  0.12497026724E+03 0.  0.
         23    2    1    2    0    0  0.79333793127E+02  0.11458867217E+03 -0.93795986413E+02  0.19157501971E+03  0.92080869834E+02 0.  0.
        -13    1    4    4    0    0  0.40205756148E+02  0.31947481466E+01 -0.53123646571E+02  0.66699641920E+02  0.10566000000E+00 0.  1.
         13    1    4    4    0    0  0.39128036978E+02  0.11139392402E+03 -0.40672339842E+02  0.12487537779E+03  0.10566000000E+00 0. -1.
    9000005    1    3    3    0    0 -0.50403101653E+02 -0.13366417941E+02 -0.10601368318E+03  0.11814835930E+03  0.10000000000E+01 0.  0.
    9000005    1    3    3    0    0 -0.28930691474E+02 -0.10122225423E+03 -0.19075393141E+02  0.10699439370E+03  0.10000000000E+01 0.  0.
<mgrwt>
<rscale>  0 0.18193979E+03</rscale>
<asrwt>0</asrwt>
<pdfrwt beam="1">  1        2 0.15217901E-01 0.18719504E+03</pdfrwt>
<pdfrwt beam="2">  1       -2 0.48892525E-01 0.18719504E+03</pdfrwt>
<totfact> 0.15175464E+03</totfact>
</mgrwt>
</event>
<event>
 8    3  0.7944584E-004  0.2096785E+03  0.7818608E-02  0.1145595E+00
         -2   -1    0    0    0  501 -0.00000000000E+00  0.00000000000E+00  0.46415669075E+03  0.46415669076E+03  0.25500000000E-02 0.  1.
          2   -1    0    0  501    0  0.00000000000E+00 -0.00000000000E+00 -0.93867884584E+02  0.93867884618E+02  0.25500000000E-02 0. -1.
         25    2    1    2    0    0 -0.14828255962E+03  0.79707807287E+02  0.11588603686E+03  0.23957177825E+03  0.12499604540E+03 0.  0.
         23    2    1    2    0    0  0.14828255962E+03 -0.79707807287E+02  0.25440276931E+03  0.31845279712E+03  0.91380320275E+02 0.  0.
        -13    1    4    4    0    0  0.82793045615E+02 -0.79986348904E+02  0.20950587529E+03  0.23905067948E+03  0.10566000000E+00 0.  1.
         13    1    4    4    0    0  0.65489514008E+02  0.27854161631E+00  0.44896894019E+02  0.79402117648E+02  0.10566000000E+00 0. -1.
    9000005    1    3    3    0    0 -0.94970164655E+02  0.14242802496E+02  0.12159433392E+03  0.15494635084E+03  0.10000000000E+01 0.  0.
    9000005    1    3    3    0    0 -0.53312394967E+02  0.65465004792E+02 -0.57082970595E+01  0.84625427413E+02  0.10000000000E+01 0.  0.
<mgrwt>
<rscale>  0 0.20499154E+03</rscale>
<asrwt>0</asrwt>
<pdfrwt beam="2">  1        2 0.14441213E-01 0.20967848E+03</pdfrwt>
<pdfrwt beam="1">  1       -2 0.71408723E-01 0.20967848E+03</pdfrwt>
<totfact> 0.74163920E+02</totfact>
</mgrwt>
</event>
<event>
 8    3  0.7944584E-004  0.3079378E+03  0.7818608E-02  0.1082787E+00
          2   -1    0    0  501    0  0.00000000000E+00  0.00000000000E+00  0.20825911983E+04  0.20825911983E+04  0.25500000000E-02 0. -1.
         -2   -1    0    0    0  501 -0.00000000000E+00 -0.00000000000E+00 -0.44015841117E+02  0.44015841190E+02  0.25500000000E-02 0.  1.
         25    2    1    2    0    0  0.15364117846E+02  0.28100670963E+03  0.96684225616E+03  0.10146968294E+04  0.12499952107E+03 0.  0.
         23    2    1    2    0    0 -0.15364117846E+02 -0.28100670963E+03  0.10717331010E+04  0.11119102101E+04  0.92366923514E+02 0.  0.
        -13    1    4    4    0    0 -0.23381867802E+01 -0.17416558634E+03  0.81718288780E+03  0.83553994630E+03  0.10566000000E+00 0.  1.
         13    1    4    4    0    0 -0.13025931066E+02 -0.10684112329E+03  0.25455021318E+03  0.27637026378E+03  0.10566000000E+00 0. -1.
    9000005    1    3    3    0    0 -0.16743847083E+02  0.27430237918E+03  0.87696273966E+03  0.91901403602E+03  0.10000000000E+01 0.  0.
    9000005    1    3    3    0    0  0.32107964930E+02  0.67043304547E+01  0.89879516498E+02  0.95682793358E+02  0.10000000000E+01 0.  0.
<mgrwt>
<rscale>  0 0.30495962E+03</rscale>
<asrwt>0</asrwt>
<pdfrwt beam="1">  1        2 0.32039867E+00 0.30793783E+03</pdfrwt>
<pdfrwt beam="2">  1       -2 0.67716673E-02 0.30793783E+03</pdfrwt>
<totfact> 0.82093618E+02</totfact>
</mgrwt>
</event>
<event>
 8    3  0.7944584E-004  0.1431515E+03  0.7818608E-02  0.1219354E+00
          2   -1    0    0  501    0  0.00000000000E+00  0.00000000000E+00  0.12772681899E+04  0.12772681899E+04  0.25500000000E-02 0. -1.
         -2   -1    0    0    0  501 -0.00000000000E+00 -0.00000000000E+00 -0.13434703988E+02  0.13434704230E+02  0.25500000000E-02 0.  1.
         25    2    1    2    0    0  0.67978537994E+02  0.15702851497E+02  0.59311766819E+03  0.61014828241E+03  0.12499878812E+03 0.  0.
         23    2    1    2    0    0 -0.67978537994E+02 -0.15702851497E+02  0.67071581768E+03  0.68055461168E+03  0.91799837815E+02 0.  0.
        -13    1    4    4    0    0 -0.45983524865E+01  0.25588572519E+02  0.63068758950E+02  0.68217295524E+02  0.10566000000E+00 0.  1.
         13    1    4    4    0    0 -0.63380185508E+02 -0.41291424015E+02  0.60764705873E+03  0.61233731616E+03  0.10566000000E+00 0. -1.
    9000005    1    3    3    0    0 -0.28052219637E+02 -0.22549597608E+02  0.22205847839E+03  0.22495861665E+03  0.10000000000E+01 0.  0.
    9000005    1    3    3    0    0  0.96030757631E+02  0.38252449104E+02  0.37105918980E+03  0.38518966576E+03  0.10000000000E+01 0.  0.
<mgrwt>
<rscale>  0 0.13561493E+03</rscale>
<asrwt>0</asrwt>
<pdfrwt beam="1">  1        2 0.19650282E+00 0.14315152E+03</pdfrwt>
<pdfrwt beam="2">  1       -2 0.20668773E-02 0.14315152E+03</pdfrwt>
<totfact> 0.12899505E+04</totfact>
</mgrwt>
</event>
<event>
 8    3  0.7944584E-004  0.1352774E+03  0.7818608E-02  0.1232266E+00
          2   -1    0    0  501    0  0.00000000000E+00  0.00000000000E+00  0.15462838275E+02  0.15462838486E+02  0.25500000000E-02 0. -1.
         -2   -1    0    0    0  501 -0.00000000000E+00 -0.00000000000E+00 -0.92928070092E+03  0.92928070092E+03  0.25500000000E-02 0.  1.
         25    2    1    2    0    0 -0.51151496381E+02 -0.76495708263E+01 -0.51930823766E+03  0.53663862760E+03  0.12499991766E+03 0.  0.
         23    2    1    2    0    0  0.51151496381E+02  0.76495708263E+01 -0.39450962499E+03  0.40810491181E+03  0.90756726043E+02 0.  0.
        -13    1    4    4    0    0  0.24179381657E+02  0.42991020278E+02 -0.29527758430E+03  0.29936889163E+03  0.10566000000E+00 0.  1.
         13    1    4    4    0    0  0.26972114724E+02 -0.35341449452E+02 -0.99232040685E+02  0.10873602018E+03  0.10566000000E+00 0. -1.
    9000005    1    3    3    0    0  0.15793194100E+02 -0.93592844821E+01 -0.65382464506E+01  0.19513324999E+02  0.10000000000E+01 0.  0.
    9000005    1    3    3    0    0 -0.66944690480E+02  0.17097136558E+01 -0.51276999120E+03  0.51712530260E+03  0.10000000000E+01 0.  0.
<mgrwt>
<rscale>  0 0.12681068E+03</rscale>
<asrwt>0</asrwt>
<pdfrwt beam="1">  1        2 0.23788989E-02 0.13527739E+03</pdfrwt>
<pdfrwt beam="2">  1       -2 0.14296622E+00 0.13527739E+03</pdfrwt>
<totfact> 0.14864198E+03</totfact>
</mgrwt>
</event>
<event>
 8    3  0.7944584E-004  0.1526301E+03  0.7818608E-02  0.1206217E+00
         -2   -1    0    0    0  501 -0.00000000000E+00  0.00000000000E+00  0.42137840126E+02  0.42137840203E+02  0.25500000000E-02 0.  1.
          2   -1    0    0  501    0  0.00000000000E+00 -0.00000000000E+00 -0.46300617571E+03  0.46300617572E+03  0.25500000000E-02 0. -1.
         25    2    1    2    0    0 -0.80159619662E+02 -0.35293698407E+02 -0.20979300261E+03  0.25943988652E+03  0.12499896399E+03 0.  0.
         23    2    1    2    0    0  0.80159619662E+02  0.35293698407E+02 -0.21107533297E+03  0.24570412940E+03  0.90258037009E+02 0.  0.
        -13    1    4    4    0    0  0.21966931331E+02  0.16395857743E+02 -0.15798515676E+01  0.27456826441E+02  0.10566000000E+00 0.  1.
         13    1    4    4    0    0  0.58192688331E+02  0.18897840664E+02 -0.20949548140E+03  0.21824730296E+03  0.10566000000E+00 0. -1.
    9000005    1    3    3    0    0 -0.85536255986E+02 -0.21898545671E+01 -0.56552487351E+02  0.10256914924E+03  0.10000000000E+01 0.  0.
    9000005    1    3    3    0    0  0.53766363241E+01 -0.33103843840E+02 -0.15324051526E+03  0.15687073727E+03  0.10000000000E+01 0.  0.
<mgrwt>
<rscale>  0 0.14541967E+03</rscale>
<asrwt>0</asrwt>
<pdfrwt beam="2">  1        2 0.71231716E-01 0.15263011E+03</pdfrwt>
<pdfrwt beam="1">  1       -2 0.64827450E-02 0.15263011E+03</pdfrwt>
<totfact> 0.85662758E+03</totfact>
</mgrwt>
</event>
<event>
 8    3  0.7944584E-004  0.1778752E+03  0.7818608E-02  0.1175713E+00
          2   -1    0    0  501    0  0.00000000000E+00  0.00000000000E+00  0.20147605691E+03  0.20147605692E+03  0.25500000000E-02 0. -1.
         -2   -1    0    0    0  501 -0.00000000000E+00 -0.00000000000E+00 -0.20798182773E+03  0.20798182774E+03  0.25500000000E-02 0.  1.
         25    2    1    2    0    0 -0.90634947761E+02  0.88319978930E+02  0.11509771341E+03  0.21186571201E+03  0.12499793542E+03 0.  0.
         23    2    1    2    0    0  0.90634947761E+02 -0.88319978930E+02 -0.12160348423E+03  0.19759217265E+03  0.90775254790E+02 0.  0.
        -13    1    4    4    0    0  0.63237426415E+01 -0.60463846200E+02 -0.77350766278E+02  0.98382003568E+02  0.10566000000E+00 0.  1.
         13    1    4    4    0    0  0.84311205119E+02 -0.27856132730E+02 -0.44252717956E+02  0.99210169085E+02  0.10566000000E+00 0. -1.
    9000005    1    3    3    0    0 -0.98826057965E+02  0.10258317553E+02  0.65733589816E+02  0.11913743174E+03  0.10000000000E+01 0.  0.
    9000005    1    3    3    0    0  0.81911102037E+01  0.78061661376E+02  0.49364123598E+02  0.92728280270E+02  0.10000000000E+01 0.  0.
<mgrwt>
<rscale>  0 0.17206294E+03</rscale>
<asrwt>0</asrwt>
<pdfrwt beam="1">  1        2 0.30996316E-01 0.17787523E+03</pdfrwt>
<pdfrwt beam="2">  1       -2 0.31997204E-01 0.17787523E+03</pdfrwt>
<totfact> 0.15169660E+03</totfact>
</mgrwt>
</event>
<event>
 8    3  0.7944584E-004  0.2162555E+03  0.7818608E-02  0.1140025E+00
         -2   -1    0    0    0  501 -0.00000000000E+00  0.00000000000E+00  0.62713268416E+02  0.62713268468E+02  0.25500000000E-02 0.  1.
          2   -1    0    0  501    0  0.00000000000E+00 -0.00000000000E+00 -0.72688529520E+03  0.72688529520E+03  0.25500000000E-02 0. -1.
         25    2    1    2    0    0 -0.63066926948E+02  0.16481730029E+03 -0.43443649362E+03  0.48528495971E+03  0.12499698152E+03 0.  0.
         23    2    1    2    0    0  0.63066926948E+02 -0.16481730029E+03 -0.22973553316E+03  0.30431360396E+03  0.93199649182E+02 0.  0.
        -13    1    4    4    0    0 -0.35945079300E+01 -0.13337058679E+02 -0.79830029846E+02  0.81016309782E+02  0.10566000000E+00 0. -1.
         13    1    4    4    0    0  0.66661434878E+02 -0.15148024161E+03 -0.14990550332E+03  0.22329729418E+03  0.10566000000E+00 0.  1.
    9000005    1    3    3    0    0  0.10684877998E+02  0.13647021512E+03 -0.28847007537E+03  0.31930278830E+03  0.10000000000E+01 0.  0.
    9000005    1    3    3    0    0 -0.73751804947E+02  0.28347085163E+02 -0.14596641825E+03  0.16598217142E+03  0.10000000000E+01 0.  0.
<mgrwt>
<rscale>  0 0.21195778E+03</rscale>
<asrwt>0</asrwt>
<pdfrwt beam="2">  1        2 0.11182850E+00 0.21625546E+03</pdfrwt>
<pdfrwt beam="1">  1       -2 0.96481957E-02 0.21625546E+03</pdfrwt>
<totfact> 0.27933931E+03</totfact>
</mgrwt>
</event>
<event>
 8    3  0.7944584E-004  0.1267847E+03  0.7818608E-02  0.1246950E+00
         -2   -1    0    0    0  501 -0.00000000000E+00  0.00000000000E+00  0.21244068101E+03  0.21244068103E+03  0.25500000000E-02 0. -1.
          2   -1    0    0  501    0  0.00000000000E+00 -0.00000000000E+00 -0.63472765441E+02  0.63472765492E+02  0.25500000000E-02 0.  1.
         25    2    1    2    0    0 -0.19927244319E+02 -0.72986463533E+01  0.42337656139E+02  0.13366684265E+03  0.12499592950E+03 0.  0.
         23    2    1    2    0    0  0.19927244319E+02  0.72986463533E+01  0.10663025943E+03  0.14224660387E+03  0.91726325459E+02 0.  0.
        -13    1    4    4    0    0 -0.26373322930E+02  0.24936069491E+02  0.17552915238E+02  0.40317188908E+02  0.10566000000E+00 0.  1.
         13    1    4    4    0    0  0.46300567249E+02 -0.17637423137E+02  0.89077344192E+02  0.10192941496E+03  0.10566000000E+00 0. -1.
    9000005    1    3    3    0    0 -0.31172115672E+02 -0.62052090176E+02  0.13450667346E+02  0.70739544406E+02  0.10000000000E+01 0.  0.
    9000005    1    3    3    0    0  0.11244871353E+02  0.54753443823E+02  0.28886988793E+02  0.62927298240E+02  0.10000000000E+01 0.  0.
<mgrwt>
<rscale>  0 0.11769398E+03</rscale>
<asrwt>0</asrwt>
<pdfrwt beam="2">  1        2 0.97650409E-02 0.12678465E+03</pdfrwt>
<pdfrwt beam="1">  1       -2 0.32683182E-01 0.12678465E+03</pdfrwt>
<totfact> 0.54443982E+03</totfact>
</mgrwt>
</event>
<event>
 8    3  0.7944584E-004  0.1359588E+03  0.7818608E-02  0.1231751E+00
         -2   -1    0    0    0  501 -0.00000000000E+00  0.00000000000E+00  0.75924565011E+03  0.75924565011E+03  0.25500000000E-02 0.  1.
          2   -1    0    0  501    0  0.00000000000E+00 -0.00000000000E+00 -0.20126674686E+02  0.20126674847E+02  0.25500000000E-02 0. -1.
         25    2    1    2    0    0  0.42152749028E+02  0.32912200856E+02  0.32285101351E+03  0.35031067097E+03  0.12499888820E+03 0.  0.
         23    2    1    2    0    0 -0.42152749028E+02 -0.32912200856E+02  0.41626796191E+03  0.42906165399E+03  0.89189795373E+02 0.  0.
        -13    1    4    4    0    0  0.11008585834E+02 -0.23354268798E+02  0.29714928805E+03  0.29826887432E+03  0.10566000000E+00 0.  1.
         13    1    4    4    0    0 -0.53161334861E+02 -0.95579320579E+01  0.11911867386E+03  0.13079277968E+03  0.10566000000E+00 0. -1.
    9000005    1    3    3    0    0  0.74141991418E+02 -0.12503343581E+02  0.23133793438E+03  0.24325214978E+03  0.10000000000E+01 0.  0.
    9000005    1    3    3    0    0 -0.31989242391E+02  0.45415544437E+02  0.91513079136E+02  0.10705852118E+03  0.10000000000E+01 0.  0.
<mgrwt>
<rscale>  0 0.12714761E+03</rscale>
<asrwt>0</asrwt>
<pdfrwt beam="2">  1        2 0.30964120E-02 0.13595878E+03</pdfrwt>
<pdfrwt beam="1">  1       -2 0.11680700E+00 0.13595878E+03</pdfrwt>
<totfact> 0.17093308E+03</totfact>
</mgrwt>
</event>
<event>
 8    3  0.7944584E-004  0.1688634E+03  0.7818608E-02  0.1185431E+00
          2   -1    0    0  501    0  0.00000000000E+00  0.00000000000E+00  0.17430189174E+03  0.17430189176E+03  0.25500000000E-02 0. -1.
         -2   -1    0    0    0  501 -0.00000000000E+00 -0.00000000000E+00 -0.47131951950E+03  0.47131951950E+03  0.25500000000E-02 0.  1.
         25    2    1    2    0    0 -0.94760761263E+02  0.62522231331E+02  0.11770372664E+03  0.20583733696E+03  0.12500484285E+03 0.  0.
         23    2    1    2    0    0  0.94760761263E+02 -0.62522231331E+02 -0.41472135439E+03  0.43978407431E+03  0.92344999523E+02 0.  0.
        -13    1    4    4    0    0  0.51938871460E+00 -0.50992539583E+02 -0.12969523318E+03  0.13936058816E+03  0.10566000000E+00 0.  1.
         13    1    4    4    0    0  0.94241372549E+02 -0.11529691748E+02 -0.28502612121E+03  0.30042348615E+03  0.10566000000E+00 0. -1.
    9000005    1    3    3    0    0  0.26108746967E+01  0.67340857775E+02  0.26782599383E+02  0.72525274369E+02  0.10000000000E+01 0.  0.
    9000005    1    3    3    0    0 -0.97371635960E+02 -0.48186264449E+01  0.90921127258E+02  0.13331206259E+03  0.10000000000E+01 0.  0.
<mgrwt>
<rscale>  0 0.16292754E+03</rscale>
<asrwt>0</asrwt>
<pdfrwt beam="1">  1        2 0.26815676E-01 0.16886338E+03</pdfrwt>
<pdfrwt beam="2">  1       -2 0.72510695E-01 0.16886338E+03</pdfrwt>
<totfact> 0.35239645E+02</totfact>
</mgrwt>
</event>
<event>
 8    3  0.7944584E-004  0.1265839E+03  0.7818608E-02  0.1248356E+00
         -2   -1    0    0    0  501 -0.00000000000E+00  0.00000000000E+00  0.32745919669E+02  0.32745919768E+02  0.25500000000E-02 0.  1.
          2   -1    0    0  501    0  0.00000000000E+00 -0.00000000000E+00 -0.39739794628E+03  0.39739794629E+03  0.25500000000E-02 0. -1.
         25    2    1    2    0    0  0.16798203147E+02 -0.10792098684E+02 -0.14781512575E+03  0.19460936901E+03  0.12499938433E+03 0.  0.
         23    2    1    2    0    0 -0.16798203147E+02  0.10792098684E+02 -0.21683690087E+03  0.23553449705E+03  0.89775323457E+02 0.  0.
        -13    1    4    4    0    0  0.42702833431E+01 -0.28143801539E+02 -0.22686008008E+02  0.36400206156E+02  0.10566000000E+00 0.  1.
         13    1    4    4    0    0 -0.21068486490E+02  0.38935900222E+02 -0.19415089286E+03  0.19913429090E+03  0.10566000000E+00 0. -1.
    9000005    1    3    3    0    0 -0.33440151380E+02  0.19160803928E+02 -0.12666900564E+03  0.13240625786E+03  0.10000000000E+01 0.  0.
    9000005    1    3    3    0    0  0.50238354527E+02 -0.29952902611E+02 -0.21146120108E+02  0.62203111144E+02  0.10000000000E+01 0.  0.
<mgrwt>
<rscale>  0 0.11686759E+03</rscale>
<asrwt>0</asrwt>
<pdfrwt beam="2">  1        2 0.61138142E-01 0.12658394E+03</pdfrwt>
<pdfrwt beam="1">  1       -2 0.50378341E-02 0.12658394E+03</pdfrwt>
<totfact> 0.14589472E+04</totfact>
</mgrwt>
</event>
<event>
 8    3  0.7944584E-004  0.2562759E+03  0.7818608E-02  0.1111727E+00
          2   -1    0    0  501    0  0.00000000000E+00  0.00000000000E+00  0.25876301815E+04  0.25876301815E+04  0.25500000000E-02 0. -1.
         -2   -1    0    0    0  501 -0.00000000000E+00 -0.00000000000E+00 -0.24832988044E+02  0.24832988175E+02  0.25500000000E-02 0.  1.
         25    2    1    2    0    0  0.21181210040E+03 -0.72018701328E+02  0.10708796844E+04  0.11011178914E+04  0.12500501254E+03 0.  0.
         23    2    1    2    0    0 -0.21181210040E+03  0.72018701328E+02  0.14919175091E+04  0.15113452783E+04  0.91080387685E+02 0.  0.
        -13    1    4    4    0    0 -0.17602023162E+03  0.61622913965E+02  0.94907887057E+03  0.96722862819E+03  0.10566000000E+00 0.  1.
         13    1    4    4    0    0 -0.35791868779E+02  0.10395787364E+02  0.54283863852E+03  0.54411665009E+03  0.10566000000E+00 0. -1.
    9000005    1    3    3    0    0  0.67063359735E+02 -0.95463896115E+01  0.61553556744E+03  0.61925250307E+03  0.10000000000E+01 0.  0.
    9000005    1    3    3    0    0  0.14474874066E+03 -0.62472311717E+02  0.45534411697E+03  0.48186538838E+03  0.10000000000E+01 0.  0.
<mgrwt>
<rscale>  0 0.25251245E+03</rscale>
<asrwt>0</asrwt>
<pdfrwt beam="1">  1        2 0.39809700E+00 0.25627585E+03</pdfrwt>
<pdfrwt beam="2">  1       -2 0.38204592E-02 0.25627585E+03</pdfrwt>
<totfact> 0.10592847E+03</totfact>
</mgrwt>
</event>
<event>
 8    3  0.7944584E-004  0.2001751E+03  0.7818608E-02  0.1153702E+00
         -2   -1    0    0    0  501 -0.00000000000E+00  0.00000000000E+00  0.48016093927E+02  0.48016093995E+02  0.25500000000E-02 0.  1.
          2   -1    0    0  501    0  0.00000000000E+00 -0.00000000000E+00 -0.86255825410E+03  0.86255825410E+03  0.25500000000E-02 0. -1.
         25    2    1    2    0    0  0.75717826035E+02 -0.13679114222E+03 -0.58219688445E+03  0.61564867848E+03  0.12500030914E+03 0.  0.
         23    2    1    2    0    0 -0.75717826035E+02  0.13679114222E+03 -0.23234527572E+03  0.29492566961E+03  0.92476038385E+02 0.  0.
        -13    1    4    4    0    0 -0.22947761244E+02  0.10113160247E+03 -0.83891063334E+02  0.13338636525E+03  0.10566000000E+00 0.  1.
         13    1    4    4    0    0 -0.52770064791E+02  0.35659539758E+02 -0.14845421238E+03  0.16153930436E+03  0.10566000000E+00 0. -1.
    9000005    1    3    3    0    0 -0.80259916882E+01 -0.90058586380E+02 -0.39613462240E+03  0.40632327596E+03  0.10000000000E+01 0.  0.
    9000005    1    3    3    0    0  0.83743817723E+02 -0.46732555845E+02 -0.18606226205E+03  0.20932540252E+03  0.10000000000E+01 0.  0.
<mgrwt>
<rscale>  0 0.19537393E+03</rscale>
<asrwt>0</asrwt>
<pdfrwt beam="2">  1        2 0.13270126E+00 0.20017513E+03</pdfrwt>
<pdfrwt beam="1">  1       -2 0.73870920E-02 0.20017513E+03</pdfrwt>
<totfact> 0.34136473E+03</totfact>
</mgrwt>
</event>
<event>
 8    3  0.7944584E-004  0.1459325E+03  0.7818608E-02  0.1214994E+00
          2   -1    0    0  501    0  0.00000000000E+00  0.00000000000E+00  0.84375098406E+03  0.84375098406E+03  0.25500000000E-02 0. -1.
         -2   -1    0    0    0  501 -0.00000000000E+00 -0.00000000000E+00 -0.33142042295E+02  0.33142042393E+02  0.25500000000E-02 0.  1.
         25    2    1    2    0    0  0.74103886600E+02 -0.13406685531E+02  0.16468350254E+03  0.22003853427E+03  0.12500070131E+03 0.  0.
         23    2    1    2    0    0 -0.74103886600E+02  0.13406685531E+02  0.64592543923E+03  0.65685449219E+03  0.92558228395E+02 0.  0.
        -13    1    4    4    0    0 -0.67875137185E+01  0.96064701992E+01  0.56689109159E+01  0.13057653969E+02  0.10566000000E+00 0.  1.
         13    1    4    4    0    0 -0.67316372881E+02  0.38002153321E+01  0.64025652831E+03  0.64379683822E+03  0.10566000000E+00 0. -1.
    9000005    1    3    3    0    0 -0.33983239476E+02  0.28222816742E+01  0.58076111346E+02  0.67354736643E+02  0.10000000000E+01 0.  0.
    9000005    1    3    3    0    0  0.10808712608E+03 -0.16228967206E+02  0.10660739119E+03  0.15268379762E+03  0.10000000000E+01 0.  0.
<mgrwt>
<rscale>  0 0.13877006E+03</rscale>
<asrwt>0</asrwt>
<pdfrwt beam="1">  1        2 0.12980786E+00 0.14593252E+03</pdfrwt>
<pdfrwt beam="2">  1       -2 0.50987751E-02 0.14593252E+03</pdfrwt>
<totfact> 0.61185638E+03</totfact>
</mgrwt>
</event>
<event>
 8    3  0.7944584E-004  0.1321582E+03  0.7818608E-02  0.1237643E+00
          2   -1    0    0  501    0  0.00000000000E+00  0.00000000000E+00  0.34991658598E+02  0.34991658691E+02  0.25500000000E-02 0.  1.
         -2   -1    0    0    0  501 -0.00000000000E+00 -0.00000000000E+00 -0.38624597453E+03  0.38624597454E+03  0.25500000000E-02 0. -1.
         25    2    1    2    0    0 -0.10434603421E+02 -0.41638327820E+02 -0.19848515887E+03  0.23845787188E+03  0.12499266809E+03 0.  0.
         23    2    1    2    0    0  0.10434603421E+02  0.41638327820E+02 -0.15276915706E+03  0.18277976135E+03  0.90704986182E+02 0.  0.
        -13    1    4    4    0    0 -0.77519113668E+01 -0.75794716891E+01 -0.12090852620E+03  0.12139367114E+03  0.10566000000E+00 0. -1.
         13    1    4    4    0    0  0.18186514788E+02  0.49217799509E+02 -0.31860630863E+02  0.61386090213E+02  0.10566000000E+00 0.  1.
    9000005    1    3    3    0    0 -0.10730407708E+02  0.23215904964E+02  0.39381076969E+01  0.25896497545E+02  0.10000000000E+01 0.  0.
    9000005    1    3    3    0    0  0.29580428746E+00 -0.64854232784E+02 -0.20242326657E+03  0.21256137434E+03  0.10000000000E+01 0.  0.
<mgrwt>
<rscale>  0 0.12336714E+03</rscale>
<asrwt>0</asrwt>
<pdfrwt beam="1">  1        2 0.53833324E-02 0.13215823E+03</pdfrwt>
<pdfrwt beam="2">  1       -2 0.59422455E-01 0.13215823E+03</pdfrwt>
<totfact> 0.36589458E+03</totfact>
</mgrwt>
</event>
<event>
 8    3  0.7944584E-004  0.1436346E+03  0.7818608E-02  0.1223412E+00
          2   -1    0    0  501    0  0.00000000000E+00  0.00000000000E+00  0.33674068725E+03  0.33674068726E+03  0.25500000000E-02 0. -1.
         -2   -1    0    0    0  501 -0.00000000000E+00 -0.00000000000E+00 -0.46486555577E+02  0.46486555647E+02  0.25500000000E-02 0.  1.
         25    2    1    2    0    0 -0.10546515373E+02  0.69957733296E+02  0.14509655063E+03  0.20416638844E+03  0.12500236689E+03 0.  0.
         23    2    1    2    0    0  0.10546515373E+02 -0.69957733296E+02  0.14515758104E+03  0.17906085447E+03  0.77374109593E+02 0.  0.
        -13    1    4    4    0    0  0.42958540026E+02 -0.51138916216E+02  0.10175303971E+03  0.12171407958E+03  0.10566000000E+00 0.  1.
         13    1    4    4    0    0 -0.32412024653E+02 -0.18818817080E+02  0.43404541324E+02  0.57346774887E+02  0.10566000000E+00 0. -1.
    9000005    1    3    3    0    0 -0.57408166142E+02  0.25163409701E+02  0.24616130336E+02  0.67348708973E+02  0.10000000000E+01 0.  0.
    9000005    1    3    3    0    0  0.46861650769E+02  0.44794323595E+02  0.12048042030E+03  0.13681767946E+03  0.10000000000E+01 0.  0.
<mgrwt>
<rscale>  0 0.13276368E+03</rscale>
<asrwt>0</asrwt>
<pdfrwt beam="1">  1        2 0.51806258E-01 0.14363462E+03</pdfrwt>
<pdfrwt beam="2">  1       -2 0.71517779E-02 0.14363462E+03</pdfrwt>
<totfact> 0.10329765E+04</totfact>
</mgrwt>
</event>
<event>
 8    3  0.7944584E-004  0.1334818E+03  0.7818608E-02  0.1236535E+00
         -2   -1    0    0    0  501 -0.00000000000E+00  0.00000000000E+00  0.22425161275E+02  0.22425161420E+02  0.25500000000E-02 0.  1.
          2   -1    0    0  501    0  0.00000000000E+00 -0.00000000000E+00 -0.64839241831E+03  0.64839241831E+03  0.25500000000E-02 0. -1.
         25    2    1    2    0    0  0.46318600914E+02 -0.68421482094E+01 -0.44060521621E+03  0.46038066649E+03  0.12500069499E+03 0.  0.
         23    2    1    2    0    0 -0.46318600914E+02  0.68421482094E+01 -0.18536204083E+03  0.21043691324E+03  0.87933955287E+02 0.  0.
        -13    1    4    4    0    0 -0.35669248597E+02  0.56106216505E+01 -0.19358624960E+03  0.19692491353E+03  0.10566000000E+00 0. -1.
         13    1    4    4    0    0 -0.10649352316E+02  0.12315265589E+01  0.82242087681E+01  0.13511999716E+02  0.10566000000E+00 0.  1.
    9000005    1    3    3    0    0 -0.24147716256E+02 -0.34059964061E+02 -0.65052312320E+02  0.77304570954E+02  0.10000000000E+01 0.  0.
    9000005    1    3    3    0    0  0.70466317170E+02  0.27217815851E+02 -0.37555290389E+03  0.38307609554E+03  0.10000000000E+01 0.  0.
<mgrwt>
<rscale>  0 0.12406687E+03</rscale>
<asrwt>0</asrwt>
<pdfrwt beam="2">  1        2 0.99752665E-01 0.13348184E+03</pdfrwt>
<pdfrwt beam="1">  1       -2 0.34500253E-02 0.13348184E+03</pdfrwt>
<totfact> 0.14992137E+04</totfact>
</mgrwt>
</event>
<event>
 8    3  0.7944584E-004  0.1306127E+03  0.7818608E-02  0.1239881E+00
          2   -1    0    0  501    0  0.00000000000E+00  0.00000000000E+00  0.43342099448E+02  0.43342099523E+02  0.25500000000E-02 0. -1.
         -2   -1    0    0    0  501 -0.00000000000E+00 -0.00000000000E+00 -0.46747668524E+03  0.46747668525E+03  0.25500000000E-02 0.  1.
         25    2    1    2    0    0 -0.79561612081E+01 -0.37042008911E+02 -0.81213967811E+02  0.15380307096E+03  0.12499706054E+03 0.  0.
         23    2    1    2    0    0  0.79561612081E+01  0.37042008911E+02 -0.34292061798E+03  0.35701571381E+03  0.91816440500E+02 0.  0.
        -13    1    4    4    0    0  0.16938016350E+02  0.62792506409E+02 -0.29299943758E+03  0.30013076624E+03  0.10566000000E+00 0.  1.
         13    1    4    4    0    0 -0.89818551415E+01 -0.25750497498E+02 -0.49921180401E+02  0.56884947568E+02  0.10566000000E+00 0. -1.
    9000005    1    3    3    0    0 -0.47490801613E+02 -0.63689807547E+02 -0.67305471691E+02  0.10412873927E+03  0.10000000000E+01 0.  0.
    9000005    1    3    3    0    0  0.39534640405E+02  0.26647798636E+02 -0.13908496120E+02  0.49674331686E+02  0.10000000000E+01 0.  0.
<mgrwt>
<rscale>  0 0.12197052E+03</rscale>
<asrwt>0</asrwt>
<pdfrwt beam="1">  1        2 0.66680156E-02 0.13061269E+03</pdfrwt>
<pdfrwt beam="2">  1       -2 0.71919486E-01 0.13061269E+03</pdfrwt>
<totfact> 0.18625010E+03</totfact>
</mgrwt>
</event>
<event>
 8    3  0.7944584E-004  0.2623574E+03  0.7818608E-02  0.1107998E+00
          2   -1    0    0  501    0  0.00000000000E+00  0.00000000000E+00  0.21792662460E+04  0.21792662460E+04  0.25500000000E-02 0. -1.
         -2   -1    0    0    0  501 -0.00000000000E+00 -0.00000000000E+00 -0.30948502319E+02  0.30948502424E+02  0.25500000000E-02 0.  1.
         25    2    1    2    0    0  0.21408396160E+03  0.85859548081E+02  0.13140842805E+04  0.13400182457E+04  0.12501039150E+03 0.  0.
         23    2    1    2    0    0 -0.21408396160E+03 -0.85859548081E+02  0.83423346319E+03  0.87019650272E+03  0.89959310941E+02 0.  0.
        -13    1    4    4    0    0 -0.17719675144E+03 -0.10133424481E+03  0.74399185719E+03  0.77148636580E+03  0.10566000000E+00 0. -1.
         13    1    4    4    0    0 -0.36887210158E+02  0.15474696726E+02  0.90241605997E+02  0.98710136911E+02  0.10566000000E+00 0.  1.
    9000005    1    3    3    0    0  0.82073421796E+02  0.50620564841E+02  0.87158515690E+03  0.87690374266E+03  0.10000000000E+01 0.  0.
    9000005    1    3    3    0    0  0.13201053980E+03  0.35238983241E+02  0.44249912355E+03  0.46311450302E+03  0.10000000000E+01 0.  0.
<mgrwt>
<rscale>  0 0.25858268E+03</rscale>
<asrwt>0</asrwt>
<pdfrwt beam="1">  1        2 0.33527156E+00 0.26235739E+03</pdfrwt>
<pdfrwt beam="2">  1       -2 0.47613104E-02 0.26235739E+03</pdfrwt>
<totfact> 0.12611011E+03</totfact>
</mgrwt>
</event>
<event>
 8    3  0.7944584E-004  0.1250712E+03  0.7818608E-02  0.1250804E+00
         -2   -1    0    0    0  501 -0.00000000000E+00  0.00000000000E+00  0.56306449206E+02  0.56306449264E+02  0.25500000000E-02 0.  1.
          2   -1    0    0  501    0  0.00000000000E+00 -0.00000000000E+00 -0.20971680731E+03  0.20971680732E+03  0.25500000000E-02 0. -1.
         25    2    1    2    0    0  0.36551248278E+01  0.20799939057E+01 -0.10397229226E+03  0.16264391158E+03  0.12500047242E+03 0.  0.
         23    2    1    2    0    0 -0.36551248278E+01 -0.20799939057E+01 -0.49438065846E+02  0.10337934500E+03  0.90694433715E+02 0.  0.
        -13    1    4    4    0    0 -0.96217976128E+01 -0.15866533924E+02  0.22913281679E+02  0.29484835584E+02  0.10566000000E+00 0.  1.
         13    1    4    4    0    0  0.59666727850E+01  0.13786540018E+02 -0.72351347525E+02  0.73894509421E+02  0.10566000000E+00 0. -1.
    9000005    1    3    3    0    0  0.50864270398E+02  0.27755986400E+02 -0.16985580608E+02  0.60391048448E+02  0.10000000000E+01 0.  0.
    9000005    1    3    3    0    0 -0.47209145570E+02 -0.25675992494E+02 -0.86986711649E+02  0.10225286314E+03  0.10000000000E+01 0.  0.
<mgrwt>
<rscale>  0 0.11544623E+03</rscale>
<asrwt>0</asrwt>
<pdfrwt beam="2">  1        2 0.32264124E-01 0.12507120E+03</pdfrwt>
<pdfrwt beam="1">  1       -2 0.86625307E-02 0.12507120E+03</pdfrwt>
<totfact> 0.12584111E+04</totfact>
</mgrwt>
</event>
<event>
 8    3  0.7944584E-004  0.1511143E+03  0.7818608E-02  0.1208186E+00
         -2   -1    0    0    0  501 -0.00000000000E+00  0.00000000000E+00  0.10772707602E+03  0.10772707605E+03  0.25500000000E-02 0.  1.
          2   -1    0    0  501    0  0.00000000000E+00 -0.00000000000E+00 -0.17697773704E+03  0.17697773706E+03  0.25500000000E-02 0. -1.
         25    2    1    2    0    0 -0.42844511542E+02  0.73303747041E+02 -0.48817456838E+02  0.15880385948E+03  0.12500572065E+03 0.  0.
         23    2    1    2    0    0  0.42844511542E+02 -0.73303747041E+02 -0.20433204177E+02  0.12590095363E+03  0.90688713696E+02 0.  0.
        -13    1    4    4    0    0  0.65244465540E+00 -0.26810599979E+02  0.33653503872E+02  0.43032585817E+02  0.10566000000E+00 0.  1.
         13    1    4    4    0    0  0.42192066887E+02 -0.46493147062E+02 -0.54086708049E+02  0.82868367810E+02  0.10566000000E+00 0. -1.
    9000005    1    3    3    0    0  0.29314715158E+02 -0.10883536090E+02  0.10562285943E+02  0.33020686955E+02  0.10000000000E+01 0.  0.
    9000005    1    3    3    0    0 -0.72159226701E+02  0.84187283131E+02 -0.59379742780E+02  0.12578317253E+03  0.10000000000E+01 0.  0.
<mgrwt>
<rscale>  0 0.14389221E+03</rscale>
<asrwt>0</asrwt>
<pdfrwt beam="2">  1        2 0.27227344E-01 0.15111427E+03</pdfrwt>
<pdfrwt beam="1">  1       -2 0.16573396E-01 0.15111427E+03</pdfrwt>
<totfact> 0.54348940E+03</totfact>
</mgrwt>
</event>
<event>
 8    3  0.7944584E-004  0.2030615E+03  0.7818608E-02  0.1151256E+00
         -2   -1    0    0    0  501 -0.00000000000E+00  0.00000000000E+00  0.13816387133E+03  0.13816387136E+03  0.25500000000E-02 0.  1.
          2   -1    0    0  501    0  0.00000000000E+00 -0.00000000000E+00 -0.28302969369E+03  0.28302969370E+03  0.25500000000E-02 0. -1.
         25    2    1    2    0    0  0.19212092704E+02 -0.15886999398E+03 -0.11811654702E+03  0.23491590464E+03  0.12500073631E+03 0.  0.
         23    2    1    2    0    0 -0.19212092704E+02  0.15886999398E+03 -0.26749275331E+02  0.18627766042E+03  0.91515373287E+02 0.  0.
        -13    1    4    4    0    0 -0.15675032891E+02  0.35527041577E+02  0.31334065293E+02  0.49897015453E+02  0.10566000000E+00 0.  1.
         13    1    4    4    0    0 -0.35370598132E+01  0.12334295240E+03 -0.58083340624E+02  0.13638064497E+03  0.10566000000E+00 0. -1.
    9000005    1    3    3    0    0  0.38488780476E+02 -0.11485718719E+03 -0.13736112693E+03  0.18314649563E+03  0.10000000000E+01 0.  0.
    9000005    1    3    3    0    0 -0.19276687772E+02 -0.44012806789E+02  0.19244579904E+02  0.51769409004E+02  0.10000000000E+01 0.  0.
<mgrwt>
<rscale>  0 0.19821190E+03</rscale>
<asrwt>0</asrwt>
<pdfrwt beam="2">  1        2 0.43543030E-01 0.20306148E+03</pdfrwt>
<pdfrwt beam="1">  1       -2 0.21255980E-01 0.20306148E+03</pdfrwt>
<totfact> 0.21782463E+03</totfact>
</mgrwt>
</event>
<event>
 8    3  0.7944584E-004  0.1264541E+03  0.7818608E-02  0.1247918E+00
         -2   -1    0    0    0  501 -0.00000000000E+00  0.00000000000E+00  0.22187537060E+03  0.22187537061E+03  0.25500000000E-02 0.  1.
          2   -1    0    0  501    0  0.00000000000E+00 -0.00000000000E+00 -0.54713882917E+02  0.54713882976E+02  0.25500000000E-02 0. -1.
         25    2    1    2    0    0 -0.12425780229E+02  0.14552563910E+02  0.10812604865E+03  0.16637870163E+03  0.12499781130E+03 0.  0.
         23    2    1    2    0    0  0.12425780229E+02 -0.14552563910E+02  0.59035439034E+02  0.11021055196E+03  0.91076921175E+02 0.  0.
        -13    1    4    4    0    0 -0.15469898920E+02 -0.53705164942E+01 -0.20026947945E+02  0.25869867182E+02  0.10566000000E+00 0. -1.
         13    1    4    4    0    0  0.27895679149E+02 -0.91820474157E+01  0.79062386979E+02  0.84340684778E+02  0.10566000000E+00 0.  1.
    9000005    1    3    3    0    0  0.12486011040E+02  0.66600902141E+02  0.48057532047E+02  0.83078920456E+02  0.10000000000E+01 0.  0.
    9000005    1    3    3    0    0 -0.24911791269E+02 -0.52048338231E+02  0.60068516599E+02  0.83299781172E+02  0.10000000000E+01 0.  0.
<mgrwt>
<rscale>  0 0.11712423E+03</rscale>
<asrwt>0</asrwt>
<pdfrwt beam="2">  1        2 0.84175205E-02 0.12645406E+03</pdfrwt>
<pdfrwt beam="1">  1       -2 0.34134672E-01 0.12645406E+03</pdfrwt>
<totfact> 0.60412662E+03</totfact>
</mgrwt>
</event>
<event>
 8    3  0.7944584E-004  0.1585538E+03  0.7818608E-02  0.1198371E+00
          2   -1    0    0  501    0  0.00000000000E+00  0.00000000000E+00  0.28045139029E+04  0.28045139030E+04  0.25500000000E-02 0. -1.
         -2   -1    0    0    0  501 -0.00000000000E+00 -0.00000000000E+00 -0.89296427704E+01  0.89296431345E+01  0.25500000000E-02 0.  1.
         25    2    1    2    0    0  0.97047418103E+02  0.97860693648E+01  0.95577529042E+03  0.96883729887E+03  0.12500134952E+03 0.  0.
         23    2    1    2    0    0 -0.97047418103E+02 -0.97860693648E+01  0.18398089698E+04  0.18446062472E+04  0.90339324563E+02 0.  0.
        -13    1    4    4    0    0 -0.26248652777E+01 -0.29412161509E+02  0.73603221198E+03  0.73662432311E+03  0.10566000000E+00 0. -1.
         13    1    4    4    0    0 -0.94422552825E+02  0.19626092144E+02  0.11037767578E+04  0.11079819241E+04  0.10566000000E+00 0.  1.
    9000005    1    3    3    0    0  0.11773173878E+03 -0.16872815197E+02  0.61511208119E+03  0.62650564772E+03  0.10000000000E+01 0.  0.
    9000005    1    3    3    0    0 -0.20684320676E+02  0.26658884562E+02  0.34066320923E+03  0.34233165114E+03  0.10000000000E+01 0.  0.
<mgrwt>
<rscale>  0 0.15172352E+03</rscale>
<asrwt>0</asrwt>
<pdfrwt beam="1">  1        2 0.43146357E+00 0.15855379E+03</pdfrwt>
<pdfrwt beam="2">  1       -2 0.13737916E-02 0.15855379E+03</pdfrwt>
<totfact> 0.36639664E+03</totfact>
</mgrwt>
</event>
<event>
 8    3  0.7944584E-004  0.1690021E+03  0.7818608E-02  0.1185165E+00
          2   -1    0    0  501    0  0.00000000000E+00  0.00000000000E+00  0.12858625663E+04  0.12858625663E+04  0.25500000000E-02 0. -1.
         -2   -1    0    0    0  501 -0.00000000000E+00 -0.00000000000E+00 -0.27291348432E+02  0.27291348551E+02  0.25500000000E-02 0.  1.
         25    2    1    2    0    0 -0.10550971397E+03  0.42401248509E+02  0.10131843913E+04  0.10271827150E+04  0.12502621144E+03 0.  0.
         23    2    1    2    0    0  0.10550971397E+03 -0.42401248509E+02  0.24538682660E+03  0.28597119991E+03  0.92922908346E+02 0.  0.
        -13    1    4    4    0    0  0.24882552458E+01  0.23597163174E+02  0.51583021796E+02  0.56778841355E+02  0.10566000000E+00 0.  1.
         13    1    4    4    0    0  0.10302145872E+03 -0.65998411683E+02  0.19380380480E+03  0.22919235856E+03  0.10566000000E+00 0. -1.
    9000005    1    3    3    0    0  0.14464131898E+02 -0.23005339728E+02  0.28448165650E+03  0.28577835757E+03  0.10000000000E+01 0.  0.
    9000005    1    3    3    0    0 -0.11997384586E+03  0.65406588237E+02  0.72870273480E+03  0.74140435740E+03  0.10000000000E+01 0.  0.
<mgrwt>
<rscale>  0 0.16316890E+03</rscale>
<asrwt>0</asrwt>
<pdfrwt beam="1">  1        2 0.19782504E+00 0.16900213E+03</pdfrwt>
<pdfrwt beam="2">  1       -2 0.41986684E-02 0.16900213E+03</pdfrwt>
<totfact> 0.45162384E+03</totfact>
</mgrwt>
</event>
<event>
 8    3  0.7944584E-004  0.1357229E+03  0.7818608E-02  0.1231579E+00
          2   -1    0    0  501    0  0.00000000000E+00  0.00000000000E+00  0.43322616339E+03  0.43322616339E+03  0.25500000000E-02 0. -1.
         -2   -1    0    0    0  501 -0.00000000000E+00 -0.00000000000E+00 -0.35470447990E+02  0.35470448082E+02  0.25500000000E-02 0.  1.
         25    2    1    2    0    0 -0.34927510926E+02  0.39685778970E+02  0.16687650171E+03  0.21510104995E+03  0.12500321113E+03 0.  0.
         23    2    1    2    0    0  0.34927510926E+02 -0.39685778970E+02  0.23087921368E+03  0.25359556153E+03  0.90612391229E+02 0.  0.
        -13    1    4    4    0    0  0.27495215823E+02 -0.67820662406E+01  0.98145024322E+01  0.29971969199E+02  0.10566000000E+00 0.  1.
         13    1    4    4    0    0  0.74322951025E+01 -0.32903712729E+02  0.22106471125E+03  0.22362359233E+03  0.10566000000E+00 0. -1.
    9000005    1    3    3    0    0  0.39396131343E+02  0.44997152193E+02  0.59237281638E+02  0.84183456843E+02  0.10000000000E+01 0.  0.
    9000005    1    3    3    0    0 -0.74323642269E+02 -0.53113732229E+01  0.10763922008E+03  0.13091759310E+03  0.10000000000E+01 0.  0.
<mgrwt>
<rscale>  0 0.12725972E+03</rscale>
<asrwt>0</asrwt>
<pdfrwt beam="1">  1        2 0.66650182E-01 0.13572286E+03</pdfrwt>
<pdfrwt beam="2">  1       -2 0.54569917E-02 0.13572286E+03</pdfrwt>
<totfact> 0.11860455E+04</totfact>
</mgrwt>
</event>
<event>
 8    3  0.7944584E-004  0.1260717E+03  0.7818608E-02  0.1247486E+00
          2   -1    0    0  501    0  0.00000000000E+00  0.00000000000E+00  0.20577009398E+04  0.20577009398E+04  0.25500000000E-02 0. -1.
         -2   -1    0    0    0  501 -0.00000000000E+00 -0.00000000000E+00 -0.20565109002E+02  0.20565109160E+02  0.25500000000E-02 0.  1.
         25    2    1    2    0    0 -0.15375718914E+02  0.59069444467E+01  0.19344647603E+04  0.19385685364E+04  0.12499102695E+03 0.  0.
         23    2    1    2    0    0  0.15375718914E+02 -0.59069444467E+01  0.10267107051E+03  0.13969751256E+03  0.93288485730E+02 0.  0.
        -13    1    4    4    0    0 -0.17900392803E+02  0.22637794867E+02  0.88800178085E+00  0.28873751577E+02  0.10566000000E+00 0.  1.
         13    1    4    4    0    0  0.33276111717E+02 -0.28544739314E+02  0.10178306873E+03  0.11082376098E+03  0.10566000000E+00 0. -1.
    9000005    1    3    3    0    0  0.17429802912E+02 -0.59768308757E+01  0.43131353481E+02  0.46913049250E+02  0.10000000000E+01 0.  0.
    9000005    1    3    3    0    0 -0.32805521826E+02  0.11883775322E+02  0.18913334068E+04  0.18916554871E+04  0.10000000000E+01 0.  0.
<mgrwt>
<rscale>  0 0.11737798E+03</rscale>
<asrwt>0</asrwt>
<pdfrwt beam="1">  1        2 0.31656929E+00 0.12607165E+03</pdfrwt>
<pdfrwt beam="2">  1       -2 0.31638638E-02 0.12607165E+03</pdfrwt>
<totfact> 0.27220565E+03</totfact>
</mgrwt>
</event>
<event>
 8    3  0.7944584E-004  0.1560349E+03  0.7818608E-02  0.1201372E+00
         -2   -1    0    0    0  501 -0.00000000000E+00  0.00000000000E+00  0.33393003469E+02  0.33393003566E+02  0.25500000000E-02 0.  1.
          2   -1    0    0  501    0  0.00000000000E+00 -0.00000000000E+00 -0.61738793385E+03  0.61738793386E+03  0.25500000000E-02 0. -1.
         25    2    1    2    0    0 -0.92920169371E+02  0.93607632171E+01 -0.29966125800E+03  0.33785165981E+03  0.12500037090E+03 0.  0.
         23    2    1    2    0    0  0.92920169371E+02 -0.93607632171E+01 -0.28433367239E+03  0.31292927762E+03  0.91418344840E+02 0.  0.
        -13    1    4    4    0    0  0.39799752275E+02  0.31185917810E+01 -0.23805844688E+03  0.24138264476E+03  0.10566000000E+00 0. -1.
         13    1    4    4    0    0  0.53120417096E+02 -0.12479354998E+02 -0.46275225506E+02  0.71546632858E+02  0.10566000000E+00 0.  1.
    9000005    1    3    3    0    0 -0.57303183451E+02  0.21184091827E+02 -0.34747103752E+02  0.70290694970E+02  0.10000000000E+01 0.  0.
    9000005    1    3    3    0    0 -0.35616985920E+02 -0.11823328610E+02 -0.26491415425E+03  0.26756096484E+03  0.10000000000E+01 0.  0.
<mgrwt>
<rscale>  0 0.14927061E+03</rscale>
<asrwt>0</asrwt>
<pdfrwt beam="2">  1        2 0.94982751E-01 0.15603485E+03</pdfrwt>
<pdfrwt beam="1">  1       -2 0.51373856E-02 0.15603485E+03</pdfrwt>
<totfact> 0.88515053E+03</totfact>
</mgrwt>
</event>
<event>
 8    3  0.7944584E-004  0.3576812E+03  0.7818608E-02  0.1060561E+00
          2   -1    0    0  501    0  0.00000000000E+00  0.00000000000E+00  0.20836120480E+04  0.20836120480E+04  0.25500000000E-02 0. -1.
         -2   -1    0    0    0  501 -0.00000000000E+00 -0.00000000000E+00 -0.69385960741E+02  0.69385960788E+02  0.25500000000E-02 0.  1.
         25    2    1    2    0    0 -0.31766002657E+03  0.10678378879E+03  0.14235533969E+04  0.14678011164E+04  0.12500069385E+03 0.  0.
         23    2    1    2    0    0  0.31766002657E+03 -0.10678378879E+03  0.59067269040E+03  0.68519689242E+03  0.91048801043E+02 0.  0.
        -13    1    4    4    0    0  0.25336295037E+03 -0.67784948755E+02  0.51803418237E+03  0.58064361632E+03  0.10566000000E+00 0.  1.
         13    1    4    4    0    0  0.64297076200E+02 -0.38998840035E+02  0.72638508025E+02  0.10455327610E+03  0.10566000000E+00 0. -1.
    9000005    1    3    3    0    0 -0.13879169454E+03  0.10998875257E+03  0.63695777863E+03  0.66111789563E+03  0.10000000000E+01 0.  0.
    9000005    1    3    3    0    0 -0.17886833203E+03 -0.32049637825E+01  0.78659561823E+03  0.80668322074E+03  0.10000000000E+01 0.  0.
<mgrwt>
<rscale>  0 0.35505101E+03</rscale>
<asrwt>0</asrwt>
<pdfrwt beam="1">  1        2 0.32055575E+00 0.35768120E+03</pdfrwt>
<pdfrwt beam="2">  1       -2 0.10674762E-01 0.35768120E+03</pdfrwt>
<totfact> 0.39593454E+02</totfact>
</mgrwt>
</event>
<event>
 8    3  0.7944584E-004  0.1334534E+03  0.7818608E-02  0.1234224E+00
         -2   -1    0    0    0  501 -0.00000000000E+00  0.00000000000E+00  0.20752428480E+02  0.20752428637E+02  0.25500000000E-02 0.  1.
          2   -1    0    0  501    0  0.00000000000E+00 -0.00000000000E+00 -0.78494260349E+03  0.78494260349E+03  0.25500000000E-02 0. -1.
         25    2    1    2    0    0 -0.25542930822E+02  0.39143878672E+02 -0.27766364577E+03  0.30806963814E+03  0.12500046884E+03 0.  0.
         23    2    1    2    0    0  0.25542930822E+02 -0.39143878672E+02 -0.48652652924E+03  0.49762539399E+03  0.93478791904E+02 0.  0.
        -13    1    4    4    0    0  0.15593658697E+02 -0.38331693094E+02 -0.72503525516E+02  0.83482053540E+02  0.10566000000E+00 0.  1.
         13    1    4    4    0    0  0.99492721256E+01 -0.81218557784E+00 -0.41402300373E+03  0.41414334045E+03  0.10566000000E+00 0. -1.
    9000005    1    3    3    0    0 -0.47113977300E+02 -0.30561800688E+02 -0.83381311695E+02  0.10053453963E+03  0.10000000000E+01 0.  0.
    9000005    1    3    3    0    0  0.21571046478E+02  0.69705679360E+02 -0.19428233407E+03  0.20753509851E+03  0.10000000000E+01 0.  0.
<mgrwt>
<rscale>  0 0.12554220E+03</rscale>
<asrwt>0</asrwt>
<pdfrwt beam="2">  1        2 0.12076038E+00 0.13345337E+03</pdfrwt>
<pdfrwt beam="1">  1       -2 0.31926819E-02 0.13345337E+03</pdfrwt>
<totfact> 0.13376467E+04</totfact>
</mgrwt>
</event>
<event>
 8    3  0.7944584E-004  0.1370864E+03  0.7818608E-02  0.1236502E+00
          2   -1    0    0  501    0  0.00000000000E+00  0.00000000000E+00  0.10261427177E+03  0.10261427180E+03  0.25500000000E-02 0. -1.
         -2   -1    0    0    0  501 -0.00000000000E+00 -0.00000000000E+00 -0.25736561414E+03  0.25736561415E+03  0.25500000000E-02 0.  1.
         25    2    1    2    0    0  0.56268437087E+02  0.12162611632E+01  0.41492484052E+02  0.14322816738E+03  0.12500026158E+03 0.  0.
         23    2    1    2    0    0 -0.56268437087E+02 -0.12162611632E+01 -0.19624382642E+03  0.21675171857E+03  0.72815189297E+02 0.  0.
        -13    1    4    4    0    0 -0.51154517930E+02 -0.16269149349E+02 -0.19325934960E+03  0.20057581433E+03  0.10566000000E+00 0.  1.
         13    1    4    4    0    0 -0.51139191572E+01  0.15052888186E+02 -0.29844768201E+01  0.16175904235E+02  0.10566000000E+00 0. -1.
    9000005    1    3    3    0    0  0.21103062771E+02 -0.45300861022E+02  0.63569388904E+02  0.80867635512E+02  0.10000000000E+01 0.  0.
    9000005    1    3    3    0    0  0.35165374316E+02  0.46517122185E+02 -0.22076904852E+02  0.62360531869E+02  0.10000000000E+01 0.  0.
<mgrwt>
<rscale>  0 0.12408780E+03</rscale>
<asrwt>0</asrwt>
<pdfrwt beam="1">  1        2 0.15786811E-01 0.13708640E+03</pdfrwt>
<pdfrwt beam="2">  1       -2 0.39594710E-01 0.13708640E+03</pdfrwt>
<totfact> 0.21576883E+03</totfact>
</mgrwt>
</event>
<event>
 8    3  0.7944584E-004  0.1723063E+03  0.7818608E-02  0.1181765E+00
         -2   -1    0    0    0  501 -0.00000000000E+00  0.00000000000E+00  0.37863947979E+02  0.37863948065E+02  0.25500000000E-02 0.  1.
          2   -1    0    0  501    0  0.00000000000E+00 -0.00000000000E+00 -0.69570031311E+03  0.69570031312E+03  0.25500000000E-02 0. -1.
         25    2    1    2    0    0 -0.10439047385E+03  0.56280723612E+02 -0.39975950424E+03  0.43531267086E+03  0.12499827721E+03 0.  0.
         23    2    1    2    0    0  0.10439047385E+03 -0.56280723612E+02 -0.25807686090E+03  0.29825159032E+03  0.91024469881E+02 0.  0.
        -13    1    4    4    0    0  0.93251151408E+02 -0.18600067565E+01 -0.14768636905E+03  0.17467258409E+03  0.10566000000E+00 0.  1.
         13    1    4    4    0    0  0.11139322442E+02 -0.54420716856E+02 -0.11039049185E+03  0.12357900623E+03  0.10566000000E+00 0. -1.
    9000005    1    3    3    0    0 -0.77899381004E+02  0.68691675766E+02 -0.14218760603E+03  0.17608286455E+03  0.10000000000E+01 0.  0.
    9000005    1    3    3    0    0 -0.26491092846E+02 -0.12410952153E+02 -0.25757189821E+03  0.25922980631E+03  0.10000000000E+01 0.  0.
<mgrwt>
<rscale>  0 0.16629776E+03</rscale>
<asrwt>0</asrwt>
<pdfrwt beam="2">  1        2 0.10703081E+00 0.17230630E+03</pdfrwt>
<pdfrwt beam="1">  1       -2 0.58252233E-02 0.17230630E+03</pdfrwt>
<totfact> 0.63932036E+03</totfact>
</mgrwt>
</event>
<event>
 8    3  0.7944584E-004  0.1352072E+03  0.7818608E-02  0.1232874E+00
          2   -1    0    0  501    0  0.00000000000E+00  0.00000000000E+00  0.24758681624E+03  0.24758681626E+03  0.25500000000E-02 0. -1.
         -2   -1    0    0    0  501 -0.00000000000E+00 -0.00000000000E+00 -0.57451954124E+02  0.57451954181E+02  0.25500000000E-02 0.  1.
         25    2    1    2    0    0  0.49617196004E+02 -0.13903277679E+02  0.10727259597E+03  0.17259314174E+03  0.12500326180E+03 0.  0.
         23    2    1    2    0    0 -0.49617196004E+02  0.13903277679E+02  0.82862266151E+02  0.13244562870E+03  0.89557367871E+02 0.  0.
        -13    1    4    4    0    0 -0.56545412888E+02  0.43878477289E+02  0.49260109173E+02  0.86886558268E+02  0.10566000000E+00 0. -1.
         13    1    4    4    0    0  0.69282168840E+01 -0.29975199610E+02  0.33602156978E+02  0.45559070430E+02  0.10566000000E+00 0.  1.
    9000005    1    3    3    0    0 -0.26335423853E+02  0.32413276539E+02  0.14922088757E+02  0.44360385238E+02  0.10000000000E+01 0.  0.
    9000005    1    3    3    0    0  0.75952619857E+02 -0.46316554219E+02  0.92350507210E+02  0.12823275650E+03  0.10000000000E+01 0.  0.
<mgrwt>
<rscale>  0 0.12641521E+03</rscale>
<asrwt>0</asrwt>
<pdfrwt beam="1">  1        2 0.38090279E-01 0.13520718E+03</pdfrwt>
<pdfrwt beam="2">  1       -2 0.88387622E-02 0.13520718E+03</pdfrwt>
<totfact> 0.10277395E+04</totfact>
</mgrwt>
</event>
<event>
 8    3  0.7944584E-004  0.1269575E+03  0.7818608E-02  0.1247713E+00
         -2   -1    0    0    0  501 -0.00000000000E+00  0.00000000000E+00  0.21381402650E+02  0.21381402802E+02  0.25500000000E-02 0.  1.
          2   -1    0    0  501    0  0.00000000000E+00 -0.00000000000E+00 -0.56326535743E+03  0.56326535743E+03  0.25500000000E-02 0. -1.
         25    2    1    2    0    0  0.78968712842E+01 -0.20756354856E+02 -0.32551430343E+03  0.34939630541E+03  0.12500011861E+03 0.  0.
         23    2    1    2    0    0 -0.78968712842E+01  0.20756354856E+02 -0.21636965135E+03  0.23525045482E+03  0.89631264794E+02 0.  0.
        -13    1    4    4    0    0  0.14846349351E+02 -0.34751565170E+01  0.10703067844E+01  0.15285533112E+02  0.10566000000E+00 0.  1.
         13    1    4    4    0    0 -0.22743220635E+02  0.24231511373E+02 -0.21743995813E+03  0.21996492171E+03  0.10566000000E+00 0. -1.
    9000005    1    3    3    0    0  0.36874143042E+02 -0.64372090434E+02 -0.17713417692E+03  0.19204422690E+03  0.10000000000E+01 0.  0.
    9000005    1    3    3    0    0 -0.28977271757E+02  0.43615735578E+02 -0.14838012651E+03  0.15735207851E+03  0.10000000000E+01 0.  0.
<mgrwt>
<rscale>  0 0.11724466E+03</rscale>
<asrwt>0</asrwt>
<pdfrwt beam="2">  1        2 0.86656198E-01 0.12695754E+03</pdfrwt>
<pdfrwt beam="1">  1       -2 0.32894470E-02 0.12695754E+03</pdfrwt>
<totfact> 0.18802010E+04</totfact>
</mgrwt>
</event>
<event>
 8    3  0.7944584E-004  0.1315280E+03  0.7818608E-02  0.1237443E+00
         -2   -1    0    0    0  501 -0.00000000000E+00  0.00000000000E+00  0.93785531846E+01  0.93785535313E+01  0.25500000000E-02 0. -1.
          2   -1    0    0  501    0  0.00000000000E+00 -0.00000000000E+00 -0.16064383829E+04  0.16064383829E+04  0.25500000000E-02 0.  1.
         25    2    1    2    0    0 -0.34547386376E+02 -0.21941430993E+02 -0.11344363467E+04  0.11420356544E+04  0.12499865137E+03 0.  0.
         23    2    1    2    0    0  0.34547386376E+02  0.21941430993E+02 -0.46262348300E+03  0.47378128205E+03  0.93665724225E+02 0.  0.
        -13    1    4    4    0    0  0.49503681153E+01  0.75952932816E+01 -0.41924610014E+03  0.41934412870E+03  0.10566000000E+00 0.  1.
         13    1    4    4    0    0  0.29597018260E+02  0.14346137711E+02 -0.43377382862E+02  0.54437153353E+02  0.10566000000E+00 0. -1.
    9000005    1    3    3    0    0 -0.32646498871E+02 -0.62080688661E+02 -0.97817314397E+03  0.98068522237E+03  0.10000000000E+01 0.  0.
    9000005    1    3    3    0    0 -0.19008875044E+01  0.40139257668E+02 -0.15626320273E+03  0.16135043201E+03  0.10000000000E+01 0.  0.
<mgrwt>
<rscale>  0 0.12349344E+03</rscale>
<asrwt>0</asrwt>
<pdfrwt beam="2">  1        2 0.24714415E+00 0.13152799E+03</pdfrwt>
<pdfrwt beam="1">  1       -2 0.14428556E-02 0.13152799E+03</pdfrwt>
<totfact> 0.14496149E+04</totfact>
</mgrwt>
</event>
<event>
 8    3  0.7944584E-004  0.1577920E+03  0.7818608E-02  0.1198850E+00
         -2   -1    0    0    0  501 -0.00000000000E+00  0.00000000000E+00  0.34143396131E+02  0.34143396226E+02  0.25500000000E-02 0.  1.
          2   -1    0    0  501    0  0.00000000000E+00 -0.00000000000E+00 -0.68727010888E+03  0.68727010889E+03  0.25500000000E-02 0. -1.
         25    2    1    2    0    0  0.87054167593E+02 -0.41134090650E+02 -0.46266987743E+03  0.48883711018E+03  0.12501145267E+03 0.  0.
         23    2    1    2    0    0 -0.87054167593E+02  0.41134090650E+02 -0.19045683532E+03  0.23257639493E+03  0.92452862861E+02 0.  0.
        -13    1    4    4    0    0 -0.35810876734E+02 -0.28523990258E+02 -0.81434810964E+02  0.93422034411E+02  0.10566000000E+00 0. -1.
         13    1    4    4    0    0 -0.51243290858E+02  0.69658080907E+02 -0.10902202435E+03  0.13915436052E+03  0.10566000000E+00 0.  1.
    9000005    1    3    3    0    0  0.11785344159E+03 -0.20921094773E+02 -0.32582866522E+03  0.34712021690E+03  0.10000000000E+01 0.  0.
    9000005    1    3    3    0    0 -0.30799274000E+02 -0.20212995877E+02 -0.13684121221E+03  0.14171689328E+03  0.10000000000E+01 0.  0.
<mgrwt>
<rscale>  0 0.15132858E+03</rscale>
<asrwt>0</asrwt>
<pdfrwt beam="2">  1        2 0.10573385E+00 0.15779197E+03</pdfrwt>
<pdfrwt beam="1">  1       -2 0.52528307E-02 0.15779197E+03</pdfrwt>
<totfact> 0.75554680E+03</totfact>
</mgrwt>
</event>
<event>
 8    3  0.7944584E-004  0.1371552E+03  0.7818608E-02  0.1229338E+00
          2   -1    0    0  501    0  0.00000000000E+00  0.00000000000E+00  0.21729666704E+02  0.21729666854E+02  0.25500000000E-02 0. -1.
         -2   -1    0    0    0  501 -0.00000000000E+00 -0.00000000000E+00 -0.71597081819E+03  0.71597081820E+03  0.25500000000E-02 0.  1.
         25    2    1    2    0    0 -0.52262165619E+02  0.21339135821E+02 -0.46756946159E+03  0.48727071727E+03  0.12499943130E+03 0.  0.
         23    2    1    2    0    0  0.52262165619E+02 -0.21339135821E+02 -0.22667168990E+03  0.25042976778E+03  0.90268050364E+02 0.  0.
        -13    1    4    4    0    0 -0.11792541911E+01 -0.15760362790E+02 -0.17556331104E+03  0.17627327371E+03  0.10566000000E+00 0.  1.
         13    1    4    4    0    0  0.53441419810E+02 -0.55787730315E+01 -0.51108378858E+02  0.74156494074E+02  0.10566000000E+00 0. -1.
    9000005    1    3    3    0    0 -0.67424336225E+02  0.59786841587E+02 -0.37840705245E+03  0.38899023752E+03  0.10000000000E+01 0.  0.
    9000005    1    3    3    0    0  0.15162170606E+02 -0.38447705766E+02 -0.89162409145E+02  0.98280479754E+02  0.10000000000E+01 0.  0.
<mgrwt>
<rscale>  0 0.12873955E+03</rscale>
<asrwt>0</asrwt>
<pdfrwt beam="1">  1        2 0.33430262E-02 0.13715521E+03</pdfrwt>
<pdfrwt beam="2">  1       -2 0.11014934E+00 0.13715521E+03</pdfrwt>
<totfact> 0.17732370E+03</totfact>
</mgrwt>
</event>
<event>
 8    3  0.7944584E-004  0.1326930E+03  0.7818608E-02  0.1236063E+00
         -2   -1    0    0    0  501 -0.00000000000E+00  0.00000000000E+00  0.19777095643E+02  0.19777095807E+02  0.25500000000E-02 0.  1.
          2   -1    0    0  501    0  0.00000000000E+00 -0.00000000000E+00 -0.77308538142E+03  0.77308538143E+03  0.25500000000E-02 0. -1.
         25    2    1    2    0    0  0.43994656706E+02 -0.69198786049E+01 -0.29839884992E+03  0.32657206141E+03  0.12499609243E+03 0.  0.
         23    2    1    2    0    0 -0.43994656706E+02  0.69198786049E+01 -0.45490943586E+03  0.46629041582E+03  0.92199471335E+02 0.  0.
        -13    1    4    4    0    0  0.65776047396E+01  0.23241267789E+02 -0.32193940830E+02  0.40247762705E+02  0.10566000000E+00 0.  1.
         13    1    4    4    0    0 -0.50572261446E+02 -0.16321389184E+02 -0.42271549503E+03  0.42604265312E+03  0.10566000000E+00 0. -1.
    9000005    1    3    3    0    0  0.47239196573E+01  0.57249953405E+02 -0.12962721951E+03  0.14178888751E+03  0.10000000000E+01 0.  0.
    9000005    1    3    3    0    0  0.39270737049E+02 -0.64169832010E+02 -0.16877163041E+03  0.18478317391E+03  0.10000000000E+01 0.  0.
<mgrwt>
<rscale>  0 0.12436631E+03</rscale>
<asrwt>0</asrwt>
<pdfrwt beam="2">  1        2 0.11893619E+00 0.13269302E+03</pdfrwt>
<pdfrwt beam="1">  1       -2 0.30426307E-02 0.13269302E+03</pdfrwt>
<totfact> 0.14623672E+04</totfact>
</mgrwt>
</event>
<event>
 8    3  0.7944584E-004  0.1398419E+03  0.7818608E-02  0.1225048E+00
          2   -1    0    0  501    0  0.00000000000E+00  0.00000000000E+00  0.24888570802E+02  0.24888570932E+02  0.25500000000E-02 0. -1.
         -2   -1    0    0    0  501 -0.00000000000E+00 -0.00000000000E+00 -0.62795367153E+03  0.62795367153E+03  0.25500000000E-02 0.  1.
         25    2    1    2    0    0  0.31450749650E+02  0.54223782834E+02 -0.31958322119E+03  0.34883978800E+03  0.12500557646E+03 0.  0.
         23    2    1    2    0    0 -0.31450749650E+02 -0.54223782834E+02 -0.28348187954E+03  0.30400245447E+03  0.90145149718E+02 0.  0.
        -13    1    4    4    0    0 -0.59279356267E+02 -0.54866814495E+02 -0.22887297117E+03  0.24270817355E+03  0.10566000000E+00 0.  1.
         13    1    4    4    0    0  0.27828606617E+02  0.64303166124E+00 -0.54608908370E+02  0.61294280919E+02  0.10566000000E+00 0. -1.
    9000005    1    3    3    0    0 -0.21405604589E+02 -0.24876418744E+02 -0.31685249137E+02  0.45628840991E+02  0.10000000000E+01 0.  0.
    9000005    1    3    3    0    0  0.52856354239E+02  0.79100201578E+02 -0.28789797205E+03  0.30321094700E+03  0.10000000000E+01 0.  0.
<mgrwt>
<rscale>  0 0.13163648E+03</rscale>
<asrwt>0</asrwt>
<pdfrwt beam="1">  1        2 0.38290114E-02 0.13984192E+03</pdfrwt>
<pdfrwt beam="2">  1       -2 0.96608245E-01 0.13984192E+03</pdfrwt>
<totfact> 0.20089478E+03</totfact>
</mgrwt>
</event>
<event>
 8    3  0.7944584E-004  0.2306091E+03  0.7818608E-02  0.1129435E+00
         -2   -1    0    0    0  501 -0.00000000000E+00  0.00000000000E+00  0.59634106845E+02  0.59634106900E+02  0.25500000000E-02 0.  1.
          2   -1    0    0  501    0  0.00000000000E+00 -0.00000000000E+00 -0.83636873525E+03  0.83636873525E+03  0.25500000000E-02 0. -1.
         25    2    1    2    0    0 -0.18321943546E+03  0.63136223635E+02 -0.45586918886E+03  0.51087893667E+03  0.12500010527E+03 0.  0.
         23    2    1    2    0    0  0.18321943546E+03 -0.63136223635E+02 -0.32086543954E+03  0.38512390548E+03  0.88375607584E+02 0.  0.
        -13    1    4    4    0    0  0.14912322130E+03 -0.45456712973E+02 -0.30695469404E+03  0.34427495297E+03  0.10566000000E+00 0. -1.
         13    1    4    4    0    0  0.34096214152E+02 -0.17679510662E+02 -0.13910745506E+02  0.40848952512E+02  0.10566000000E+00 0.  1.
    9000005    1    3    3    0    0 -0.98283483614E+02  0.82724035604E+02 -0.35517412391E+03  0.37769374831E+03  0.10000000000E+01 0.  0.
    9000005    1    3    3    0    0 -0.84935951843E+02 -0.19587811969E+02 -0.10069506495E+03  0.13318518836E+03  0.10000000000E+01 0.  0.
<mgrwt>
<rscale>  0 0.22607286E+03</rscale>
<asrwt>0</asrwt>
<pdfrwt beam="2">  1        2 0.12867210E+00 0.23060913E+03</pdfrwt>
<pdfrwt beam="1">  1       -2 0.91744786E-02 0.23060913E+03</pdfrwt>
<totfact> 0.25389587E+03</totfact>
</mgrwt>
</event>
<event>
 8    3  0.7944584E-004  0.1307937E+03  0.7818608E-02  0.1239577E+00
          2   -1    0    0  501    0  0.00000000000E+00  0.00000000000E+00  0.71470304385E+03  0.71470304386E+03  0.25500000000E-02 0. -1.
         -2   -1    0    0    0  501 -0.00000000000E+00 -0.00000000000E+00 -0.19449468605E+02  0.19449468772E+02  0.25500000000E-02 0.  1.
         25    2    1    2    0    0  0.44421037672E+01  0.38242378499E+02  0.31466877241E+03  0.34076886105E+03  0.12499907413E+03 0.  0.
         23    2    1    2    0    0 -0.44421037672E+01 -0.38242378499E+02  0.38058480284E+03  0.39338365158E+03  0.91780680860E+02 0.  0.
        -13    1    4    4    0    0 -0.14093823264E+02  0.25252358845E+02  0.62314726821E+02  0.68698281087E+02  0.10566000000E+00 0.  1.
         13    1    4    4    0    0  0.96517194971E+01 -0.63494737344E+02  0.31827007602E+03  0.32468537049E+03  0.10566000000E+00 0. -1.
    9000005    1    3    3    0    0 -0.16969940888E+00 -0.46000431737E+02  0.98487138142E+02  0.10870503621E+03  0.10000000000E+01 0.  0.
    9000005    1    3    3    0    0  0.46118031761E+01  0.84242810236E+02  0.21618163426E+03  0.23206382484E+03  0.10000000000E+01 0.  0.
<mgrwt>
<rscale>  0 0.12215937E+03</rscale>
<asrwt>0</asrwt>
<pdfrwt beam="1">  1        2 0.10995429E+00 0.13079366E+03</pdfrwt>
<pdfrwt beam="2">  1       -2 0.29922266E-02 0.13079366E+03</pdfrwt>
<totfact> 0.16462171E+04</totfact>
</mgrwt>
</event>
<event>
 8    3  0.7944584E-004  0.1367115E+03  0.7818608E-02  0.1230782E+00
          2   -1    0    0  501    0  0.00000000000E+00  0.00000000000E+00  0.63443130935E+03  0.63443130936E+03  0.25500000000E-02 0. -1.
         -2   -1    0    0    0  501 -0.00000000000E+00 -0.00000000000E+00 -0.26972134593E+02  0.26972134714E+02  0.25500000000E-02 0.  1.
         25    2    1    2    0    0  0.39947502663E+02  0.38329280316E+02  0.46587913385E+03  0.48552384381E+03  0.12500039543E+03 0.  0.
         23    2    1    2    0    0 -0.39947502663E+02 -0.38329280316E+02  0.14158004091E+03  0.17587960026E+03  0.88452185409E+02 0.  0.
        -13    1    4    4    0    0  0.64654420035E+01 -0.53903662239E+02  0.61637351972E+02  0.82137574016E+02  0.10566000000E+00 0. -1.
         13    1    4    4    0    0 -0.46412944667E+02  0.15574381923E+02  0.79942688942E+02  0.93742026244E+02  0.10566000000E+00 0.  1.
    9000005    1    3    3    0    0 -0.20730188686E+02  0.49758445180E+02  0.35083884498E+03  0.35495709422E+03  0.10000000000E+01 0.  0.
    9000005    1    3    3    0    0  0.60677691349E+02 -0.11429164864E+02  0.11504028887E+03  0.13056674960E+03  0.10000000000E+01 0.  0.
<mgrwt>
<rscale>  0 0.12778384E+03</rscale>
<asrwt>0</asrwt>
<pdfrwt beam="1">  1        2 0.97604800E-01 0.13671150E+03</pdfrwt>
<pdfrwt beam="2">  1       -2 0.41495599E-02 0.13671150E+03</pdfrwt>
<totfact> 0.11713325E+04</totfact>
</mgrwt>
</event>
<event>
 8    3  0.7944584E-004  0.1625704E+03  0.7818608E-02  0.1193369E+00
          2   -1    0    0  501    0  0.00000000000E+00  0.00000000000E+00  0.21591841708E+04  0.21591841708E+04  0.25500000000E-02 0. -1.
         -2   -1    0    0    0  501 -0.00000000000E+00 -0.00000000000E+00 -0.11376944937E+02  0.11376945222E+02  0.25500000000E-02 0.  1.
         25    2    1    2    0    0 -0.88763250183E+02  0.54128084429E+02  0.84408389286E+03  0.85959685578E+03  0.12498148736E+03 0.  0.
         23    2    1    2    0    0  0.88763250183E+02 -0.54128084429E+02  0.13037233330E+04  0.13109642602E+04  0.90133226384E+02 0.  0.
        -13    1    4    4    0    0  0.14394083101E+02  0.21251512955E+02  0.44450733810E+03  0.44524779755E+03  0.10566000000E+00 0. -1.
         13    1    4    4    0    0  0.74369167082E+02 -0.75379597384E+02  0.85921599489E+03  0.86571646268E+03  0.10566000000E+00 0.  1.
    9000005    1    3    3    0    0 -0.12043189506E+03  0.40703581184E+02  0.62151755295E+03  0.63438607448E+03  0.10000000000E+01 0.  0.
    9000005    1    3    3    0    0  0.31668644874E+02  0.13424503244E+02  0.22256633991E+03  0.22521078130E+03  0.10000000000E+01 0.  0.
<mgrwt>
<rscale>  0 0.15593114E+03</rscale>
<asrwt>0</asrwt>
<pdfrwt beam="1">  1        2 0.33218174E+00 0.16257040E+03</pdfrwt>
<pdfrwt beam="2">  1       -2 0.17503016E-02 0.16257040E+03</pdfrwt>
<totfact> 0.57360004E+03</totfact>
</mgrwt>
</event>
<event>
 8    3  0.7944584E-004  0.1485909E+03  0.7818608E-02  0.1211285E+00
          2   -1    0    0  501    0  0.00000000000E+00  0.00000000000E+00  0.27524359699E+04  0.27524359699E+04  0.25500000000E-02 0. -1.
         -2   -1    0    0    0  501 -0.00000000000E+00 -0.00000000000E+00 -0.69612330707E+01  0.69612335378E+01  0.25500000000E-02 0.  1.
         25    2    1    2    0    0 -0.79212197694E+02 -0.13858575447E+02  0.12169834173E+04  0.12260211627E+04  0.12495047439E+03 0.  0.
         23    2    1    2    0    0  0.79212197694E+02  0.13858575447E+02  0.15284913195E+04  0.15333760407E+04  0.92139763569E+02 0.  0.
        -13    1    4    4    0    0  0.39335711982E+02  0.40605753745E+02  0.12065436934E+04  0.12078674682E+04  0.10566000000E+00 0. -1.
         13    1    4    4    0    0  0.39876485712E+02 -0.26747178298E+02  0.32194762610E+03  0.32550857250E+03  0.10566000000E+00 0.  1.
    9000005    1    3    3    0    0  0.30970202797E+02 -0.20211017493E+02  0.24216383982E+03  0.24497339448E+03  0.10000000000E+01 0.  0.
    9000005    1    3    3    0    0 -0.11018240049E+03  0.63524420455E+01  0.97481957747E+03  0.98104776821E+03  0.10000000000E+01 0.  0.
<mgrwt>
<rscale>  0 0.14152964E+03</rscale>
<asrwt>0</asrwt>
<pdfrwt beam="1">  1        2 0.42345151E+00 0.14859089E+03</pdfrwt>
<pdfrwt beam="2">  1       -2 0.10709594E-02 0.14859089E+03</pdfrwt>
<totfact> 0.56101634E+03</totfact>
</mgrwt>
</event>
<event>
 8    3  0.7944584E-004  0.1547053E+03  0.7818608E-02  0.1203256E+00
         -2   -1    0    0    0  501 -0.00000000000E+00  0.00000000000E+00  0.11542480810E+03  0.11542480813E+03  0.25500000000E-02 0.  1.
          2   -1    0    0  501    0  0.00000000000E+00 -0.00000000000E+00 -0.34608495041E+03  0.34608495042E+03  0.25500000000E-02 0. -1.
         25    2    1    2    0    0 -0.19741638512E+02 -0.88987752418E+02 -0.28301630232E+03  0.32253987506E+03  0.12500076502E+03 0.  0.
         23    2    1    2    0    0  0.19741638512E+02  0.88987752418E+02  0.52356160011E+02  0.13896988349E+03  0.90900542648E+02 0.  0.
        -13    1    4    4    0    0  0.35854927252E+02  0.52680937874E+02 -0.10530006527E+02  0.64589079766E+02  0.10566000000E+00 0. -1.
         13    1    4    4    0    0 -0.16113288739E+02  0.36306814544E+02  0.62886166538E+02  0.74380803721E+02  0.10566000000E+00 0.  1.
    9000005    1    3    3    0    0 -0.16039857786E+02 -0.11464743267E+03 -0.26943973205E+03  0.29325770248E+03  0.10000000000E+01 0.  0.
    9000005    1    3    3    0    0 -0.37017807267E+01  0.25659680251E+02 -0.13576570270E+02  0.29282172587E+02  0.10000000000E+01 0.  0.
<mgrwt>
<rscale>  0 0.14775735E+03</rscale>
<asrwt>0</asrwt>
<pdfrwt beam="2">  1        2 0.53243838E-01 0.15470534E+03</pdfrwt>
<pdfrwt beam="1">  1       -2 0.17757663E-01 0.15470534E+03</pdfrwt>
<totfact> 0.23614476E+03</totfact>
</mgrwt>
</event>
<event>
 8    3  0.7944584E-004  0.1776633E+03  0.7818608E-02  0.1176179E+00
          2   -1    0    0  501    0  0.00000000000E+00  0.00000000000E+00  0.40237965608E+03  0.40237965609E+03  0.25500000000E-02 0.  1.
         -2   -1    0    0    0  501 -0.00000000000E+00 -0.00000000000E+00 -0.83339631678E+02  0.83339631717E+02  0.25500000000E-02 0. -1.
         25    2    1    2    0    0 -0.17563164177E+02  0.12502435540E+03  0.27048726545E+03  0.32361646684E+03  0.12499881063E+03 0.  0.
         23    2    1    2    0    0  0.17563164177E+02 -0.12502435540E+03  0.48552758960E+02  0.16210282097E+03  0.89333084499E+02 0.  0.
        -13    1    4    4    0    0 -0.63254259828E+01 -0.57174817019E+02 -0.21771482175E+02  0.61505929106E+02  0.10566000000E+00 0. -1.
         13    1    4    4    0    0  0.23888590160E+02 -0.67849538379E+02  0.70324241135E+02  0.10059689187E+03  0.10566000000E+00 0.  1.
    9000005    1    3    3    0    0  0.54637994266E+01  0.49258962892E+02  0.22882436960E+03  0.23413220763E+03  0.10000000000E+01 0.  0.
    9000005    1    3    3    0    0 -0.23026963604E+02  0.75765392507E+02  0.41662895850E+02  0.89484259203E+02  0.10000000000E+01 0.  0.
<mgrwt>
<rscale>  0 0.17161031E+03</rscale>
<asrwt>0</asrwt>
<pdfrwt beam="1">  1        2 0.61904562E-01 0.17766332E+03</pdfrwt>
<pdfrwt beam="2">  1       -2 0.12821482E-01 0.17766332E+03</pdfrwt>
<totfact> 0.34488993E+03</totfact>
</mgrwt>
</event>
<event>
 8    3  0.7944584E-004  0.1393107E+03  0.7818608E-02  0.1225026E+00
         -2   -1    0    0    0  501 -0.00000000000E+00  0.00000000000E+00  0.70002060034E+01  0.70002064679E+01  0.25500000000E-02 0.  1.
          2   -1    0    0  501    0  0.00000000000E+00 -0.00000000000E+00 -0.26355834608E+04  0.26355834608E+04  0.25500000000E-02 0. -1.
         25    2    1    2    0    0 -0.14660120956E+02  0.59723368387E+02 -0.93066226013E+03  0.94103119676E+03  0.12500268381E+03 0.  0.
         23    2    1    2    0    0  0.14660120956E+02 -0.59723368387E+02 -0.16979209946E+04  0.17015524705E+04  0.92538132142E+02 0.  0.
        -13    1    4    4    0    0  0.47513213381E+01 -0.80994267474E+02 -0.15090241368E+04  0.15112036604E+04  0.10566000000E+00 0. -1.
         13    1    4    4    0    0  0.99087996181E+01  0.21270899087E+02 -0.18889685780E+03  0.19034881011E+03  0.10566000000E+00 0.  1.
    9000005    1    3    3    0    0 -0.51767585246E+02  0.75130270718E+02 -0.48110891718E+03  0.48968482788E+03  0.10000000000E+01 0.  0.
    9000005    1    3    3    0    0  0.37107464290E+02 -0.15406902331E+02 -0.44955334295E+03  0.45134636888E+03  0.10000000000E+01 0.  0.
<mgrwt>
<rscale>  0 0.13165132E+03</rscale>
<asrwt>0</asrwt>
<pdfrwt beam="2">  1        2 0.40547359E+00 0.13931070E+03</pdfrwt>
<pdfrwt beam="1">  1       -2 0.10769569E-02 0.13931070E+03</pdfrwt>
<totfact> 0.64510833E+03</totfact>
</mgrwt>
</event>
<event>
 8    3  0.7944584E-004  0.1813681E+03  0.7818608E-02  0.1171567E+00
         -2   -1    0    0    0  501 -0.00000000000E+00  0.00000000000E+00  0.52217288520E+02  0.52217288582E+02  0.25500000000E-02 0.  1.
          2   -1    0    0  501    0  0.00000000000E+00 -0.00000000000E+00 -0.57030673982E+03  0.57030673983E+03  0.25500000000E-02 0. -1.
         25    2    1    2    0    0  0.10058500752E+03 -0.84569293845E+02 -0.30998935603E+03  0.35914868740E+03  0.12500027843E+03 0.  0.
         23    2    1    2    0    0 -0.10058500752E+03  0.84569293845E+02 -0.20810009527E+03  0.26337534101E+03  0.93763593155E+02 0.  0.
        -13    1    4    4    0    0 -0.34877552809E+02  0.47482396679E+01 -0.51037412569E+01  0.35567524636E+02  0.10566000000E+00 0.  1.
         13    1    4    4    0    0 -0.65707454715E+02  0.79821054177E+02 -0.20299635401E+03  0.22780781637E+03  0.10566000000E+00 0. -1.
    9000005    1    3    3    0    0  0.10892077093E+03 -0.76146088099E+02 -0.31810438070E+03  0.34475115386E+03  0.10000000000E+01 0.  0.
    9000005    1    3    3    0    0 -0.83357634063E+01 -0.84232057456E+01  0.81150246637E+01  0.14397533535E+02  0.10000000000E+01 0.  0.
<mgrwt>
<rscale>  0 0.17616489E+03</rscale>
<asrwt>0</asrwt>
<pdfrwt beam="2">  1        2 0.87739494E-01 0.18136808E+03</pdfrwt>
<pdfrwt beam="1">  1       -2 0.80334295E-02 0.18136808E+03</pdfrwt>
<totfact> 0.49263271E+03</totfact>
</mgrwt>
</event>
<event>
 8    3  0.7944584E-004  0.1300759E+03  0.7818608E-02  0.1243169E+00
          2   -1    0    0  501    0  0.00000000000E+00  0.00000000000E+00  0.23436211694E+04  0.23436211694E+04  0.25500000000E-02 0. -1.
         -2   -1    0    0    0  501 -0.00000000000E+00 -0.00000000000E+00 -0.53647137702E+01  0.53647143763E+01  0.25500000000E-02 0.  1.
         25    2    1    2    0    0 -0.33266251283E+02 -0.13777420785E+02  0.13913460521E+04  0.13974131722E+04  0.12499310509E+03 0.  0.
         23    2    1    2    0    0  0.33266251283E+02  0.13777420785E+02  0.94691040349E+03  0.95157271155E+03  0.86918653497E+02 0.  0.
        -13    1    4    4    0    0  0.25018984536E+02 -0.26627038222E+02  0.18651938844E+03  0.19006431064E+03  0.10566000000E+00 0.  1.
         13    1    4    4    0    0  0.82472667467E+01  0.40404459007E+02  0.76039101506E+03  0.76150840091E+03  0.10566000000E+00 0. -1.
    9000005    1    3    3    0    0  0.20880706301E+02 -0.42500045815E+02  0.25156366723E+03  0.25598346912E+03  0.10000000000E+01 0.  0.
    9000005    1    3    3    0    0 -0.54146957584E+02  0.28722625030E+02  0.11397823849E+04  0.11414297031E+04  0.10000000000E+01 0.  0.
<mgrwt>
<rscale>  0 0.11995644E+03</rscale>
<asrwt>0</asrwt>
<pdfrwt beam="1">  1        2 0.36055780E+00 0.13007589E+03</pdfrwt>
<pdfrwt beam="2">  1       -2 0.82533903E-03 0.13007589E+03</pdfrwt>
<totfact> 0.13485463E+04</totfact>
</mgrwt>
</event>
<event>
 8    3  0.7944584E-004  0.1269162E+03  0.7818608E-02  0.1246594E+00
         -2   -1    0    0    0  501 -0.00000000000E+00  0.00000000000E+00  0.45231631780E+01  0.45231638968E+01  0.25500000000E-02 0.  1.
          2   -1    0    0  501    0  0.00000000000E+00 -0.00000000000E+00 -0.27165746489E+04  0.27165746489E+04  0.25500000000E-02 0. -1.
         25    2    1    2    0    0 -0.21912573889E+02  0.17003295547E+01 -0.16179903300E+04  0.16229603907E+04  0.12499867991E+03 0.  0.
         23    2    1    2    0    0  0.21912573889E+02 -0.17003295547E+01 -0.10940611557E+04  0.10981374220E+04  0.91939834735E+02 0.  0.
        -13    1    4    4    0    0 -0.53544102889E+01  0.63076859045E+01 -0.99617518334E+03  0.99620954808E+03  0.10566000000E+00 0. -1.
         13    1    4    4    0    0  0.27266984178E+02 -0.80080154592E+01 -0.97885972382E+02  0.10192787396E+03  0.10566000000E+00 0.  1.
    9000005    1    3    3    0    0 -0.64025398554E+02 -0.32807279884E+02 -0.84782369608E+03  0.85087107655E+03  0.10000000000E+01 0.  0.
    9000005    1    3    3    0    0  0.42112824665E+02  0.34507609439E+02 -0.77016663391E+03  0.77208931420E+03  0.10000000000E+01 0.  0.
<mgrwt>
<rscale>  0 0.11790456E+03</rscale>
<asrwt>0</asrwt>
<pdfrwt beam="2">  1        2 0.41793326E+00 0.12691620E+03</pdfrwt>
<pdfrwt beam="1">  1       -2 0.69587348E-03 0.12691620E+03</pdfrwt>
<totfact> 0.10848210E+04</totfact>
</mgrwt>
</event>
<event>
 8    3  0.7944584E-004  0.1281614E+03  0.7818608E-02  0.1245052E+00
          2   -1    0    0  501    0  0.00000000000E+00  0.00000000000E+00  0.42518839554E+03  0.42518839554E+03  0.25500000000E-02 0. -1.
         -2   -1    0    0    0  501 -0.00000000000E+00 -0.00000000000E+00 -0.29810136174E+02  0.29810136283E+02  0.25500000000E-02 0.  1.
         25    2    1    2    0    0  0.88891197873E+01  0.26618105409E+02  0.19462782860E+03  0.23303507295E+03  0.12505124380E+03 0.  0.
         23    2    1    2    0    0 -0.88891197873E+01 -0.26618105409E+02  0.20075043077E+03  0.22196345887E+03  0.90440597278E+02 0.  0.
        -13    1    4    4    0    0  0.21979597568E+01 -0.32486803659E+02  0.15104271182E+02  0.35893921645E+02  0.10566000000E+00 0.  1.
         13    1    4    4    0    0 -0.11087079544E+02  0.58686982502E+01  0.18564615958E+03  0.18606953723E+03  0.10566000000E+00 0. -1.
    9000005    1    3    3    0    0  0.57037362123E+02 -0.12677891370E+02  0.55229457413E+02  0.80406980876E+02  0.10000000000E+01 0.  0.
    9000005    1    3    3    0    0 -0.48148242335E+02  0.39295996779E+02  0.13939837118E+03  0.15262809208E+03  0.10000000000E+01 0.  0.
<mgrwt>
<rscale>  0 0.11882263E+03</rscale>
<asrwt>0</asrwt>
<pdfrwt beam="1">  1        2 0.65413597E-01 0.12816144E+03</pdfrwt>
<pdfrwt beam="2">  1       -2 0.45861750E-02 0.12816144E+03</pdfrwt>
<totfact> 0.15636900E+04</totfact>
</mgrwt>
</event>
<event>
 8    3  0.7944584E-004  0.1294158E+03  0.7818608E-02  0.1241569E+00
          2   -1    0    0  501    0  0.00000000000E+00  0.00000000000E+00  0.21169941962E+03  0.21169941963E+03  0.25500000000E-02 0. -1.
         -2   -1    0    0    0  501 -0.00000000000E+00 -0.00000000000E+00 -0.90115615591E+02  0.90115615627E+02  0.25500000000E-02 0.  1.
         25    2    1    2    0    0 -0.33118203593E+02 -0.51870017034E+01  0.15098337470E+03  0.19885783856E+03  0.12499896050E+03 0.  0.
         23    2    1    2    0    0  0.33118203593E+02  0.51870017034E+01 -0.29399570669E+02  0.10295719670E+03  0.92801558185E+02 0.  0.
        -13    1    4    4    0    0  0.35950006354E+01 -0.42135803504E+02 -0.70672077424E+01  0.42875477325E+02  0.10566000000E+00 0. -1.
         13    1    4    4    0    0  0.29523202957E+02  0.47322805208E+02 -0.22332362926E+02  0.60081719379E+02  0.10566000000E+00 0.  1.
    9000005    1    3    3    0    0  0.17395927401E+02 -0.41163465431E+02  0.12289201794E+03  0.13076886958E+03  0.10000000000E+01 0.  0.
    9000005    1    3    3    0    0 -0.50514130993E+02  0.35976463728E+02  0.28091356752E+02  0.68088968978E+02  0.10000000000E+01 0.  0.
<mgrwt>
<rscale>  0 0.12093091E+03</rscale>
<asrwt>0</asrwt>
<pdfrwt beam="1">  1        2 0.32569141E-01 0.12941584E+03</pdfrwt>
<pdfrwt beam="2">  1       -2 0.13863941E-01 0.12941584E+03</pdfrwt>
<totfact> 0.59352083E+03</totfact>
</mgrwt>
</event>
<event>
 8    3  0.7944584E-004  0.1278708E+03  0.7818608E-02  0.1245495E+00
          2   -1    0    0  501    0  0.00000000000E+00  0.00000000000E+00  0.12423276790E+04  0.12423276790E+04  0.25500000000E-02 0. -1.
         -2   -1    0    0    0  501 -0.00000000000E+00 -0.00000000000E+00 -0.10482707308E+02  0.10482707619E+02  0.25500000000E-02 0.  1.
         25    2    1    2    0    0 -0.22282877861E+02 -0.15161819013E+02  0.56404201039E+03  0.57835485804E+03  0.12499817971E+03 0.  0.
         23    2    1    2    0    0  0.22282877861E+02  0.15161819013E+02  0.66780296129E+03  0.67445552857E+03  0.90570732077E+02 0.  0.
        -13    1    4    4    0    0 -0.17594228868E+02  0.22295348246E+02  0.53154144540E+03  0.53229968888E+03  0.10566000000E+00 0. -1.
         13    1    4    4    0    0  0.39877106730E+02 -0.71335292323E+01  0.13626151589E+03  0.14215583969E+03  0.10566000000E+00 0.  1.
    9000005    1    3    3    0    0  0.11323667622E+02 -0.20579298696E+02  0.52888864870E+03  0.52941093274E+03  0.10000000000E+01 0.  0.
    9000005    1    3    3    0    0 -0.33606545484E+02  0.54174796832E+01  0.35153361692E+02  0.48943925299E+02  0.10000000000E+01 0.  0.
<mgrwt>
<rscale>  0 0.11855826E+03</rscale>
<asrwt>0</asrwt>
<pdfrwt beam="1">  1        2 0.19112723E+00 0.12787084E+03</pdfrwt>
<pdfrwt beam="2">  1       -2 0.16127251E-02 0.12787084E+03</pdfrwt>
<totfact> 0.19174065E+04</totfact>
</mgrwt>
</event>
<event>
 8    3  0.7944584E-004  0.1358303E+03  0.7818608E-02  0.1231361E+00
         -2   -1    0    0    0  501 -0.00000000000E+00  0.00000000000E+00  0.43622298774E+02  0.43622298849E+02  0.25500000000E-02 0.  1.
          2   -1    0    0  501    0  0.00000000000E+00 -0.00000000000E+00 -0.42610618166E+03  0.42610618166E+03  0.25500000000E-02 0. -1.
         25    2    1    2    0    0 -0.47861226544E+02 -0.23042343580E+02 -0.10103631912E+03  0.16928735470E+03  0.12501289563E+03 0.  0.
         23    2    1    2    0    0  0.47861226544E+02  0.23042343580E+02 -0.28144756376E+03  0.30044112582E+03  0.90722060886E+02 0.  0.
        -13    1    4    4    0    0 -0.73151940104E+01 -0.87712020122E+00 -0.19496626586E+03  0.19510545198E+03  0.10566000000E+00 0. -1.
         13    1    4    4    0    0  0.55176420555E+02  0.23919463781E+02 -0.86481297898E+02  0.10533567384E+03  0.10566000000E+00 0.  1.
    9000005    1    3    3    0    0 -0.17705802836E+01  0.43129794561E+02 -0.43724921730E+01  0.43398534782E+02  0.10000000000E+01 0.  0.
    9000005    1    3    3    0    0 -0.46090646261E+02 -0.66172138141E+02 -0.96663826948E+02  0.12588881991E+03  0.10000000000E+01 0.  0.
<mgrwt>
<rscale>  0 0.12740260E+03</rscale>
<asrwt>0</asrwt>
<pdfrwt beam="2">  1        2 0.65554794E-01 0.13583030E+03</pdfrwt>
<pdfrwt beam="1">  1       -2 0.67111232E-02 0.13583030E+03</pdfrwt>
<totfact> 0.88220635E+03</totfact>
</mgrwt>
</event>
<event>
 8    3  0.7944584E-004  0.1597410E+03  0.7818608E-02  0.1197735E+00
         -2   -1    0    0    0  501 -0.00000000000E+00  0.00000000000E+00  0.90789214018E+01  0.90789217599E+01  0.25500000000E-02 0.  1.
          2   -1    0    0  501    0  0.00000000000E+00 -0.00000000000E+00 -0.23800753640E+04  0.23800753640E+04  0.25500000000E-02 0. -1.
         25    2    1    2    0    0  0.91745603712E+02 -0.38477009570E+02 -0.14498801785E+04  0.14586533919E+04  0.12497779725E+03 0.  0.
         23    2    1    2    0    0 -0.91745603712E+02  0.38477009570E+02 -0.92111626417E+03  0.93050089387E+03  0.86481242547E+02 0.  0.
        -13    1    4    4    0    0 -0.22300563337E+02  0.43260113564E+02 -0.59770088672E+03  0.59967917564E+03  0.10566000000E+00 0. -1.
         13    1    4    4    0    0 -0.69445040375E+02 -0.47831039945E+01 -0.32341537745E+03  0.33082171823E+03  0.10566000000E+00 0.  1.
    9000005    1    3    3    0    0 -0.19511463543E+02  0.15298441939E+02 -0.96359479932E+02  0.99503210541E+02  0.10000000000E+01 0.  0.
    9000005    1    3    3    0    0  0.11125706725E+03 -0.53775451509E+02 -0.13535206985E+04  0.13591501814E+04  0.10000000000E+01 0.  0.
<mgrwt>
<rscale>  0 0.15225036E+03</rscale>
<asrwt>0</asrwt>
<pdfrwt beam="2">  1        2 0.36616494E+00 0.15974100E+03</pdfrwt>
<pdfrwt beam="1">  1       -2 0.13967591E-02 0.15974100E+03</pdfrwt>
<totfact> 0.60906898E+03</totfact>
</mgrwt>
</event>
<event>
 8    3  0.7944584E-004  0.1282608E+03  0.7818608E-02  0.1242257E+00
         -2   -1    0    0    0  501 -0.00000000000E+00  0.00000000000E+00  0.20796528492E+02  0.20796528648E+02  0.25500000000E-02 0.  1.
          2   -1    0    0  501    0  0.00000000000E+00 -0.00000000000E+00 -0.63426152330E+03  0.63426152330E+03  0.25500000000E-02 0. -1.
         25    2    1    2    0    0 -0.92231781701E+01 -0.27386489681E+02 -0.30744525133E+03  0.33312672793E+03  0.12496298436E+03 0.  0.
         23    2    1    2    0    0  0.92231781701E+01  0.27386489681E+02 -0.30601974347E+03  0.32193132402E+03  0.95690162291E+02 0.  0.
        -13    1    4    4    0    0  0.12576837689E+02  0.11938642082E+01  0.19918285513E+01  0.12789867200E+02  0.10566000000E+00 0.  1.
         13    1    4    4    0    0 -0.33536595185E+01  0.26192625473E+02 -0.30801157202E+03  0.30914145682E+03  0.10566000000E+00 0. -1.
    9000005    1    3    3    0    0  0.51813904332E+02  0.11411603155E+02 -0.96539970531E+02  0.11016293060E+03  0.10000000000E+01 0.  0.
    9000005    1    3    3    0    0 -0.61037082502E+02 -0.38798092836E+02 -0.21090528080E+03  0.22296379733E+03  0.10000000000E+01 0.  0.
<mgrwt>
<rscale>  0 0.12051063E+03</rscale>
<asrwt>0</asrwt>
<pdfrwt beam="2">  1        2 0.97578681E-01 0.12826081E+03</pdfrwt>
<pdfrwt beam="1">  1       -2 0.31994664E-02 0.12826081E+03</pdfrwt>
<totfact> 0.17132421E+04</totfact>
</mgrwt>
</event>
<event>
 8    3  0.7944584E-004  0.1313188E+03  0.7818608E-02  0.1239176E+00
          2   -1    0    0  501    0  0.00000000000E+00  0.00000000000E+00  0.59573258340E+03  0.59573258340E+03  0.25500000000E-02 0. -1.
         -2   -1    0    0    0  501 -0.00000000000E+00 -0.00000000000E+00 -0.22565056434E+02  0.22565056579E+02  0.25500000000E-02 0.  1.
         25    2    1    2    0    0  0.16460976452E+00 -0.40236719408E+02  0.35996954692E+03  0.38317449672E+03  0.12500239816E+03 0.  0.
         23    2    1    2    0    0 -0.16460976452E+00  0.40236719408E+02  0.21319798005E+03  0.23512314326E+03  0.90611771392E+02 0.  0.
        -13    1    4    4    0    0 -0.21991963678E+02  0.58764971435E+02  0.97575032245E+02  0.11600804462E+03  0.10566000000E+00 0.  1.
         13    1    4    4    0    0  0.21827353914E+02 -0.18528252027E+02  0.11562294780E+03  0.11911509864E+03  0.10566000000E+00 0. -1.
    9000005    1    3    3    0    0 -0.51229237159E+02 -0.55925332605E+02  0.24039601561E+03  0.25207800754E+03  0.10000000000E+01 0.  0.
    9000005    1    3    3    0    0  0.51393846924E+02  0.15688613197E+02  0.11957353131E+03  0.13109648918E+03  0.10000000000E+01 0.  0.
<mgrwt>
<rscale>  0 0.12240851E+03</rscale>
<asrwt>0</asrwt>
<pdfrwt beam="1">  1        2 0.91651163E-01 0.13131877E+03</pdfrwt>
<pdfrwt beam="2">  1       -2 0.34715473E-02 0.13131877E+03</pdfrwt>
<totfact> 0.16349915E+04</totfact>
</mgrwt>
</event>
<event>
 8    3  0.7944584E-004  0.1567264E+03  0.7818608E-02  0.1199891E+00
          2   -1    0    0  501    0  0.00000000000E+00  0.00000000000E+00  0.67027499950E+02  0.67027499998E+02  0.25500000000E-02 0. -1.
         -2   -1    0    0    0  501 -0.00000000000E+00 -0.00000000000E+00 -0.45712262890E+03  0.45712262890E+03  0.25500000000E-02 0.  1.
         25    2    1    2    0    0  0.51491785422E+02  0.79289649260E+02 -0.59329409404E+02  0.16758021309E+03  0.12499958622E+03 0.  0.
         23    2    1    2    0    0 -0.51491785422E+02 -0.79289649260E+02 -0.33076571954E+03  0.35656991581E+03  0.93797074519E+02 0.  0.
        -13    1    4    4    0    0 -0.62907784531E+02 -0.31065265573E+02 -0.11121891700E+03  0.13149942487E+03  0.10566000000E+00 0. -1.
         13    1    4    4    0    0  0.11415999109E+02 -0.48224383688E+02 -0.21954680255E+03  0.22507049094E+03  0.10566000000E+00 0.  1.
    9000005    1    3    3    0    0  0.30837349728E+01  0.99262662957E+02 -0.58363868753E+02  0.11519516854E+03  0.10000000000E+01 0.  0.
    9000005    1    3    3    0    0  0.48408050449E+02 -0.19973013696E+02 -0.96554065032E+00  0.52385044556E+02  0.10000000000E+01 0.  0.
<mgrwt>
<rscale>  0 0.15047485E+03</rscale>
<asrwt>0</asrwt>
<pdfrwt beam="1">  1        2 0.10311923E-01 0.15672635E+03</pdfrwt>
<pdfrwt beam="2">  1       -2 0.70326556E-01 0.15672635E+03</pdfrwt>
<totfact> 0.11415810E+03</totfact>
</mgrwt>
</event>
<event>
 8    3  0.7944584E-004  0.1488850E+03  0.7818608E-02  0.1210306E+00
          2   -1    0    0  501    0  0.00000000000E+00  0.00000000000E+00  0.40546538936E+03  0.40546538936E+03  0.25500000000E-02 0. -1.
         -2   -1    0    0    0  501 -0.00000000000E+00 -0.00000000000E+00 -0.48006969514E+02  0.48006969582E+02  0.25500000000E-02 0.  1.
         25    2    1    2    0    0 -0.23418420401E+02  0.77423279536E+02  0.14761585963E+03  0.20965968865E+03  0.12499582553E+03 0.  0.
         23    2    1    2    0    0  0.23418420401E+02 -0.77423279536E+02  0.20984256021E+03  0.24381267030E+03  0.94169695201E+02 0.  0.
        -13    1    4    4    0    0 -0.16925279264E+02 -0.15782030118E+02  0.19162244926E+01  0.23221124718E+02  0.10566000000E+00 0.  1.
         13    1    4    4    0    0  0.40343699665E+02 -0.61641249418E+02  0.20792633572E+03  0.22059154558E+03  0.10566000000E+00 0. -1.
    9000005    1    3    3    0    0 -0.55445207513E+02  0.11853601782E+02  0.15598591645E+02  0.58813221070E+02  0.10000000000E+01 0.  0.
    9000005    1    3    3    0    0  0.32026787113E+02  0.65569677755E+02  0.13201726799E+03  0.15084646758E+03  0.10000000000E+01 0.  0.
<mgrwt>
<rscale>  0 0.14227090E+03</rscale>
<asrwt>0</asrwt>
<pdfrwt beam="1">  1        2 0.62379288E-01 0.14888500E+03</pdfrwt>
<pdfrwt beam="2">  1       -2 0.73856880E-02 0.14888500E+03</pdfrwt>
<totfact> 0.80831057E+03</totfact>
</mgrwt>
</event>
<event>
 8    3  0.7944584E-004  0.3295067E+03  0.7818608E-02  0.1072598E+00
         -2   -1    0    0    0  501 -0.00000000000E+00  0.00000000000E+00  0.11002469831E+03  0.11002469834E+03  0.25500000000E-02 0. -1.
          2   -1    0    0  501    0  0.00000000000E+00 -0.00000000000E+00 -0.95940194824E+03  0.95940194824E+03  0.25500000000E-02 0.  1.
         25    2    1    2    0    0  0.22184449672E+03  0.20912783773E+03 -0.47150087694E+03  0.57522840906E+03  0.12500084956E+03 0.  0.
         23    2    1    2    0    0 -0.22184449672E+03 -0.20912783773E+03 -0.37787637299E+03  0.49419823753E+03  0.92151567938E+02 0.  0.
        -13    1    4    4    0    0 -0.18918126355E+03 -0.19382354208E+03 -0.27852465516E+03  0.38850110764E+03  0.10566000000E+00 0. -1.
         13    1    4    4    0    0 -0.32663233173E+02 -0.15304295650E+02 -0.99351717831E+02  0.10569712989E+03  0.10566000000E+00 0.  1.
    9000005    1    3    3    0    0  0.96034174614E+02  0.12584176853E+03 -0.14131651042E+03  0.21220289705E+03  0.10000000000E+01 0.  0.
    9000005    1    3    3    0    0  0.12581032210E+03  0.83286069208E+02 -0.33018436653E+03  0.36302551201E+03  0.10000000000E+01 0.  0.
<mgrwt>
<rscale>  0 0.32671948E+03</rscale>
<asrwt>0</asrwt>
<pdfrwt beam="2">  1        2 0.14760029E+00 0.32950667E+03</pdfrwt>
<pdfrwt beam="1">  1       -2 0.16926877E-01 0.32950667E+03</pdfrwt>
<totfact> 0.77799422E+02</totfact>
</mgrwt>
</event>
<event>
 8    3  0.7944584E-004  0.1253109E+03  0.7818608E-02  0.1250488E+00
         -2   -1    0    0    0  501 -0.00000000000E+00  0.00000000000E+00  0.14631906164E+02  0.14631906386E+02  0.25500000000E-02 0.  1.
          2   -1    0    0  501    0  0.00000000000E+00 -0.00000000000E+00 -0.84861492293E+03  0.84861492293E+03  0.25500000000E-02 0. -1.
         25    2    1    2    0    0  0.14796244840E+01 -0.88384430546E+01 -0.58337169843E+03  0.59667860112E+03  0.12499002816E+03 0.  0.
         23    2    1    2    0    0 -0.14796244840E+01  0.88384430546E+01 -0.25061131833E+03  0.26656822819E+03  0.90400663958E+02 0.  0.
        -13    1    4    4    0    0 -0.37770489545E+02 -0.11145167042E+02 -0.61917835202E+02  0.73380202432E+02  0.10566000000E+00 0.  1.
         13    1    4    4    0    0  0.36290865061E+02  0.19983610097E+02 -0.18869348313E+03  0.19318802576E+03  0.10566000000E+00 0. -1.
    9000005    1    3    3    0    0 -0.43068157702E+02 -0.48568845854E+02 -0.27253542596E+03  0.28016130604E+03  0.10000000000E+01 0.  0.
    9000005    1    3    3    0    0  0.44547782186E+02  0.39730402800E+02 -0.31083627247E+03  0.31651729508E+03  0.10000000000E+01 0.  0.
<mgrwt>
<rscale>  0 0.11562862E+03</rscale>
<asrwt>0</asrwt>
<pdfrwt beam="2">  1        2 0.13055610E+00 0.12531087E+03</pdfrwt>
<pdfrwt beam="1">  1       -2 0.22510632E-02 0.12531087E+03</pdfrwt>
<totfact> 0.20132280E+04</totfact>
</mgrwt>
</event>
<event>
 8    3  0.7944584E-004  0.1423873E+03  0.7818608E-02  0.1221077E+00
          2   -1    0    0  501    0  0.00000000000E+00  0.00000000000E+00  0.14085911668E+04  0.14085911668E+04  0.25500000000E-02 0. -1.
         -2   -1    0    0    0  501 -0.00000000000E+00 -0.00000000000E+00 -0.12389918098E+02  0.12389918361E+02  0.25500000000E-02 0.  1.
         25    2    1    2    0    0 -0.33071583667E+02  0.59633058337E+02  0.95404419497E+03  0.96461105002E+03  0.12499728222E+03 0.  0.
         23    2    1    2    0    0  0.33071583667E+02 -0.59633058337E+02  0.44215705370E+03  0.45637003511E+03  0.90116133530E+02 0.  0.
        -13    1    4    4    0    0 -0.18002538001E+02  0.97397329123E+01  0.16143183620E+03  0.16272431494E+03  0.10566000000E+00 0. -1.
         13    1    4    4    0    0  0.51074121669E+02 -0.69372791249E+02  0.28072521750E+03  0.29364572017E+03  0.10566000000E+00 0.  1.
    9000005    1    3    3    0    0 -0.61690351009E+02  0.42655300860E+02  0.88270846619E+03  0.88588961524E+03  0.10000000000E+01 0.  0.
    9000005    1    3    3    0    0  0.28618767342E+02  0.16977757477E+02  0.71335728783E+02  0.78721434782E+02  0.10000000000E+01 0.  0.
<mgrwt>
<rscale>  0 0.13439421E+03</rscale>
<asrwt>0</asrwt>
<pdfrwt beam="1">  1        2 0.21670629E+00 0.14238733E+03</pdfrwt>
<pdfrwt beam="2">  1       -2 0.19061416E-02 0.14238733E+03</pdfrwt>
<totfact> 0.12337211E+04</totfact>
</mgrwt>
</event>
<event>
 8    3  0.7944584E-004  0.1319841E+03  0.7818608E-02  0.1237636E+00
          2   -1    0    0  501    0  0.00000000000E+00  0.00000000000E+00  0.44626692888E+03  0.44626692889E+03  0.25500000000E-02 0. -1.
         -2   -1    0    0    0  501 -0.00000000000E+00 -0.00000000000E+00 -0.30797284551E+02  0.30797284657E+02  0.25500000000E-02 0.  1.
         25    2    1    2    0    0  0.27843435065E+02  0.31928174052E+02  0.20659933476E+03  0.24515931565E+03  0.12500055901E+03 0.  0.
         23    2    1    2    0    0 -0.27843435065E+02 -0.31928174052E+02  0.20887030957E+03  0.23190489789E+03  0.91424341799E+02 0.  0.
        -13    1    4    4    0    0  0.28268100410E+02  0.10180571093E+02  0.74317802829E+02  0.80161565041E+02  0.10566000000E+00 0. -1.
         13    1    4    4    0    0 -0.56111535476E+02 -0.42108745145E+02  0.13455250674E+03  0.15174333285E+03  0.10566000000E+00 0.  1.
    9000005    1    3    3    0    0 -0.11706395126E+02  0.54616980628E+02  0.31326253459E+02  0.64049890051E+02  0.10000000000E+01 0.  0.
    9000005    1    3    3    0    0  0.39549830191E+02 -0.22688806576E+02  0.17527308130E+03  0.18110942560E+03  0.10000000000E+01 0.  0.
<mgrwt>
<rscale>  0 0.12337181E+03</rscale>
<asrwt>0</asrwt>
<pdfrwt beam="1">  1        2 0.68656444E-01 0.13198411E+03</pdfrwt>
<pdfrwt beam="2">  1       -2 0.47380442E-02 0.13198411E+03</pdfrwt>
<totfact> 0.14172783E+04</totfact>
</mgrwt>
</event>
<event>
 8    3  0.7944584E-004  0.1258198E+03  0.7818608E-02  0.1249562E+00
         -2   -1    0    0    0  501 -0.00000000000E+00  0.00000000000E+00  0.82363203515E+02  0.82363203554E+02  0.25500000000E-02 0.  1.
          2   -1    0    0  501    0  0.00000000000E+00 -0.00000000000E+00 -0.16909066512E+03  0.16909066514E+03  0.25500000000E-02 0. -1.
         25    2    1    2    0    0 -0.46350094562E+01 -0.13990376739E+02 -0.97805797678E+02  0.15936307968E+03  0.12495360400E+03 0.  0.
         23    2    1    2    0    0  0.46350094562E+01  0.13990376739E+02  0.11078336074E+02  0.92090789010E+02  0.90226215350E+02 0.  0.
        -13    1    4    4    0    0  0.92824286992E+01 -0.90512561425E+01 -0.36656751564E+02  0.38882095103E+02  0.10566000000E+00 0. -1.
         13    1    4    4    0    0 -0.46474192431E+01  0.23041632882E+02  0.47735087638E+02  0.53208693907E+02  0.10566000000E+00 0.  1.
    9000005    1    3    3    0    0  0.53403519945E+02  0.28414480983E+01 -0.80222216446E+02  0.96418949285E+02  0.10000000000E+01 0.  0.
    9000005    1    3    3    0    0 -0.58038529401E+02 -0.16831824837E+02 -0.17583581232E+02  0.62944130396E+02  0.10000000000E+01 0.  0.
<mgrwt>
<rscale>  0 0.11616476E+03</rscale>
<asrwt>0</asrwt>
<pdfrwt beam="2">  1        2 0.26013948E-01 0.12581978E+03</pdfrwt>
<pdfrwt beam="1">  1       -2 0.12671262E-01 0.12581978E+03</pdfrwt>
<totfact> 0.87354524E+03</totfact>
</mgrwt>
</event>
<event>
 8    3  0.7944584E-004  0.2580251E+03  0.7818608E-02  0.1110528E+00
         -2   -1    0    0    0  501 -0.00000000000E+00  0.00000000000E+00  0.17971034416E+02  0.17971034597E+02  0.25500000000E-02 0.  1.
          2   -1    0    0  501    0  0.00000000000E+00 -0.00000000000E+00 -0.36150065548E+04  0.36150065548E+04  0.25500000000E-02 0. -1.
         25    2    1    2    0    0 -0.17729305925E+03 -0.13971237691E+03 -0.21626191870E+04  0.21779574587E+04  0.12499826767E+03 0.  0.
         23    2    1    2    0    0  0.17729305925E+03  0.13971237691E+03 -0.14344163333E+04  0.14550201306E+04  0.92633611943E+02 0.  0.
        -13    1    4    4    0    0  0.15039563077E+03  0.12908910516E+03 -0.13718494120E+04  0.13860929489E+04  0.10566000000E+00 0. -1.
         13    1    4    4    0    0  0.26897428478E+02  0.10623271749E+02 -0.62566921387E+02  0.68927181701E+02  0.10566000000E+00 0.  1.
    9000005    1    3    3    0    0 -0.54973961333E+02  0.14088600333E+02 -0.33155075272E+03  0.33637408746E+03  0.10000000000E+01 0.  0.
    9000005    1    3    3    0    0 -0.12231909792E+03 -0.15380097724E+03 -0.18310684343E+04  0.18415833713E+04  0.10000000000E+01 0.  0.
<mgrwt>
<rscale>  0 0.25444358E+03</rscale>
<asrwt>0</asrwt>
<pdfrwt beam="2">  1        2 0.55615428E+00 0.25802508E+03</pdfrwt>
<pdfrwt beam="1">  1       -2 0.27647774E-02 0.25802508E+03</pdfrwt>
<totfact> 0.40761656E+02</totfact>
</mgrwt>
</event>
<event>
 8    3  0.7944584E-004  0.1709922E+03  0.7818608E-02  0.1182996E+00
          2   -1    0    0  501    0  0.00000000000E+00  0.00000000000E+00  0.83313681884E+03  0.83313681885E+03  0.25500000000E-02 0. -1.
         -2   -1    0    0    0  501 -0.00000000000E+00 -0.00000000000E+00 -0.41951790934E+02  0.41951791012E+02  0.25500000000E-02 0.  1.
         25    2    1    2    0    0  0.10529489162E+03 -0.50289281684E+02  0.64195887163E+03  0.66434143408E+03  0.12498928799E+03 0.  0.
         23    2    1    2    0    0 -0.10529489162E+03  0.50289281684E+02  0.14922615628E+03  0.21074717578E+03  0.92357459518E+02 0.  0.
        -13    1    4    4    0    0  0.22394378177E+01 -0.19622020728E+02  0.13019363010E+02  0.23654888636E+02  0.10566000000E+00 0.  1.
         13    1    4    4    0    0 -0.10753432944E+03  0.69911302412E+02  0.13620679327E+03  0.18709228715E+03  0.10566000000E+00 0. -1.
    9000005    1    3    3    0    0  0.18095780786E+02 -0.31804643111E+02  0.34253248505E+02  0.50132600559E+02  0.10000000000E+01 0.  0.
    9000005    1    3    3    0    0  0.87199110835E+02 -0.18484638574E+02  0.60770562313E+03  0.61420883352E+03  0.10000000000E+01 0.  0.
<mgrwt>
<rscale>  0 0.16515588E+03</rscale>
<asrwt>0</asrwt>
<pdfrwt beam="1">  1        2 0.12817489E+00 0.17099225E+03</pdfrwt>
<pdfrwt beam="2">  1       -2 0.64541220E-02 0.17099225E+03</pdfrwt>
<totfact> 0.43749891E+03</totfact>
</mgrwt>
</event>
<event>
 8    3  0.7944584E-004  0.1306760E+03  0.7818608E-02  0.1240064E+00
          2   -1    0    0  501    0  0.00000000000E+00  0.00000000000E+00  0.10122109560E+04  0.10122109560E+04  0.25500000000E-02 0. -1.
         -2   -1    0    0    0  501 -0.00000000000E+00 -0.00000000000E+00 -0.13102942775E+02  0.13102943023E+02  0.25500000000E-02 0.  1.
         25    2    1    2    0    0 -0.15781870308E+02  0.34663164016E+02  0.52511665136E+03  0.54113187487E+03  0.12500242438E+03 0.  0.
         23    2    1    2    0    0  0.15781870308E+02 -0.34663164016E+02  0.47399136187E+03  0.48418202415E+03  0.91180145965E+02 0.  0.
        -13    1    4    4    0    0  0.33589419243E+02 -0.48090138213E+02  0.43749984972E+03  0.44141481641E+03  0.10566000000E+00 0. -1.
         13    1    4    4    0    0 -0.17807548935E+02  0.13426974197E+02  0.36491512147E+02  0.42767207741E+02  0.10566000000E+00 0.  1.
    9000005    1    3    3    0    0 -0.14702653454E+02  0.80485156630E+02  0.27770136425E+03  0.28950488107E+03  0.10000000000E+01 0.  0.
    9000005    1    3    3    0    0 -0.10792168538E+01 -0.45821992614E+02  0.24741528711E+03  0.25162699381E+03  0.10000000000E+01 0.  0.
<mgrwt>
<rscale>  0 0.12185760E+03</rscale>
<asrwt>0</asrwt>
<pdfrwt beam="1">  1        2 0.15572470E+00 0.13067597E+03</pdfrwt>
<pdfrwt beam="2">  1       -2 0.20158381E-02 0.13067597E+03</pdfrwt>
<totfact> 0.18777383E+04</totfact>
</mgrwt>
</event>
<event>
 8    3  0.7944584E-004  0.1260032E+03  0.7818608E-02  0.1248894E+00
          2   -1    0    0  501    0  0.00000000000E+00  0.00000000000E+00  0.27259341834E+04  0.27259341834E+04  0.25500000000E-02 0. -1.
         -2   -1    0    0    0  501 -0.00000000000E+00 -0.00000000000E+00 -0.58221536501E+01  0.58221542085E+01  0.25500000000E-02 0.  1.
         25    2    1    2    0    0 -0.15497118879E+02  0.33502843992E+01  0.21942291420E+04  0.21978440180E+04  0.12500166021E+03 0.  0.
         23    2    1    2    0    0  0.15497118879E+02 -0.33502843992E+01  0.52588288780E+03  0.53391231959E+03  0.90874464136E+02 0.  0.
        -13    1    4    4    0    0  0.17948257478E+02  0.46804531708E+01  0.52515632945E+03  0.52548380386E+03  0.10566000000E+00 0. -1.
         13    1    4    4    0    0 -0.24511385997E+01 -0.80307375700E+01  0.72655834327E+00  0.84285157302E+01  0.10566000000E+00 0.  1.
    9000005    1    3    3    0    0  0.12275553814E+02  0.86988285365E+01  0.31430494702E+02  0.34860218539E+02  0.10000000000E+01 0.  0.
    9000005    1    3    3    0    0 -0.27772672692E+02 -0.53485441373E+01  0.21627986473E+04  0.21629837995E+04  0.10000000000E+01 0.  0.
<mgrwt>
<rscale>  0 0.11655327E+03</rscale>
<asrwt>0</asrwt>
<pdfrwt beam="1">  1        2 0.41937394E+00 0.12600318E+03</pdfrwt>
<pdfrwt beam="2">  1       -2 0.89571716E-03 0.12600318E+03</pdfrwt>
<totfact> 0.74850891E+03</totfact>
</mgrwt>
</event>
<event>
 8    3  0.7944584E-004  0.1498195E+03  0.7818608E-02  0.1209627E+00
         -2   -1    0    0    0  501 -0.00000000000E+00  0.00000000000E+00  0.22063027079E+02  0.22063027226E+02  0.25500000000E-02 0.  1.
          2   -1    0    0  501    0  0.00000000000E+00 -0.00000000000E+00 -0.86802392596E+03  0.86802392597E+03  0.25500000000E-02 0. -1.
         25    2    1    2    0    0 -0.82511129133E+02 -0.36911407496E+01 -0.39385705364E+03  0.42138966272E+03  0.12499663273E+03 0.  0.
         23    2    1    2    0    0  0.82511129133E+02  0.36911407496E+01 -0.45210384524E+03  0.46869729047E+03  0.91964951273E+02 0.  0.
        -13    1    4    4    0    0  0.71945763592E+02  0.38756267759E+01 -0.14998088418E+03  0.16638957349E+03  0.10566000000E+00 0.  1.
         13    1    4    4    0    0  0.10565365542E+02 -0.18448602629E+00 -0.30212296106E+03  0.30230771698E+03  0.10566000000E+00 0. -1.
    9000005    1    3    3    0    0 -0.80746745174E+02  0.46776137159E+02 -0.19443778706E+03  0.21567358879E+03  0.10000000000E+01 0.  0.
    9000005    1    3    3    0    0 -0.17643839592E+01 -0.50467277909E+02 -0.19941926658E+03  0.20571607393E+03  0.10000000000E+01 0.  0.
<mgrwt>
<rscale>  0 0.14278710E+03</rscale>
<asrwt>0</asrwt>
<pdfrwt beam="2">  1        2 0.13354212E+00 0.14981946E+03</pdfrwt>
<pdfrwt beam="1">  1       -2 0.33943125E-02 0.14981946E+03</pdfrwt>
<totfact> 0.10842356E+04</totfact>
</mgrwt>
</event>
<event>
 8    3  0.7944584E-004  0.1761587E+03  0.7818608E-02  0.1177190E+00
         -2   -1    0    0    0  501 -0.00000000000E+00  0.00000000000E+00  0.15429657402E+02  0.15429657613E+02  0.25500000000E-02 0.  1.
          2   -1    0    0  501    0  0.00000000000E+00 -0.00000000000E+00 -0.20007147543E+04  0.20007147543E+04  0.25500000000E-02 0. -1.
         25    2    1    2    0    0  0.70136378953E+02 -0.10237454169E+03 -0.71279609326E+03  0.73424121032E+03  0.12502890038E+03 0.  0.
         23    2    1    2    0    0 -0.70136378953E+02  0.10237454169E+03 -0.12724890036E+04  0.12819032016E+04  0.92994061289E+02 0.  0.
        -13    1    4    4    0    0 -0.27812233473E+02  0.82441969175E+02 -0.10916143124E+04  0.10950762607E+04  0.10566000000E+00 0. -1.
         13    1    4    4    0    0 -0.42324145481E+02  0.19932572516E+02 -0.18087469122E+03  0.18682694085E+03  0.10566000000E+00 0.  1.
    9000005    1    3    3    0    0  0.29686500496E+02  0.23021312545E+02 -0.87758239349E+02  0.95466107686E+02  0.10000000000E+01 0.  0.
    9000005    1    3    3    0    0  0.40449878457E+02 -0.12539585424E+03 -0.62503785391E+03  0.63877510264E+03  0.10000000000E+01 0.  0.
<mgrwt>
<rscale>  0 0.17063256E+03</rscale>
<asrwt>0</asrwt>
<pdfrwt beam="2">  1        2 0.30780206E+00 0.17615869E+03</pdfrwt>
<pdfrwt beam="1">  1       -2 0.23737950E-02 0.17615869E+03</pdfrwt>
<totfact> 0.44444796E+03</totfact>
</mgrwt>
</event>
<event>
 8    3  0.7944584E-004  0.1662481E+03  0.7818608E-02  0.1190202E+00
         -2   -1    0    0    0  501 -0.00000000000E+00  0.00000000000E+00  0.36231304842E+02  0.36231304932E+02  0.25500000000E-02 0.  1.
          2   -1    0    0  501    0  0.00000000000E+00 -0.00000000000E+00 -0.77092084533E+03  0.77092084533E+03  0.25500000000E-02 0. -1.
         25    2    1    2    0    0 -0.84831283472E+02  0.69396962879E+02 -0.56227152087E+03  0.58633410825E+03  0.12500455272E+03 0.  0.
         23    2    1    2    0    0  0.84831283472E+02 -0.69396962879E+02 -0.17241801961E+03  0.22081804201E+03  0.83787523407E+02 0.  0.
        -13    1    4    4    0    0  0.22899831388E+02 -0.39974697990E+02 -0.13513455981E+03  0.14277163295E+03  0.10566000000E+00 0. -1.
         13    1    4    4    0    0  0.61931452084E+02 -0.29422264889E+02 -0.37283459806E+02  0.78046409063E+02  0.10566000000E+00 0.  1.
    9000005    1    3    3    0    0 -0.74418982148E+02  0.37365541230E+02 -0.53897001072E+03  0.54536596981E+03  0.10000000000E+01 0.  0.
    9000005    1    3    3    0    0 -0.10412301324E+02  0.32031421649E+02 -0.23301510156E+02  0.40968138440E+02  0.10000000000E+01 0.  0.
<mgrwt>
<rscale>  0 0.15867366E+03</rscale>
<asrwt>0</asrwt>
<pdfrwt beam="2">  1        2 0.11860319E+00 0.16624808E+03</pdfrwt>
<pdfrwt beam="1">  1       -2 0.55740475E-02 0.16624808E+03</pdfrwt>
<totfact> 0.60241399E+03</totfact>
</mgrwt>
</event>
<event>
 8    3  0.7944584E-004  0.1825652E+03  0.7818608E-02  0.1170718E+00
          2   -1    0    0  501    0  0.00000000000E+00  0.00000000000E+00  0.25338702719E+03  0.25338702720E+03  0.25500000000E-02 0.  1.
         -2   -1    0    0    0  501 -0.00000000000E+00 -0.00000000000E+00 -0.11719385419E+03  0.11719385422E+03  0.25500000000E-02 0. -1.
         25    2    1    2    0    0  0.38971212518E+01 -0.13300327008E+03  0.84097063974E+02  0.20100343614E+03  0.12500003105E+03 0.  0.
         23    2    1    2    0    0 -0.38971212518E+01  0.13300327008E+03  0.52096109019E+02  0.16957744528E+03  0.91309626913E+02 0.  0.
        -13    1    4    4    0    0 -0.23613276399E+02  0.40658790757E+02  0.58359902538E+02  0.74944068987E+02  0.10566000000E+00 0.  1.
         13    1    4    4    0    0  0.19716155148E+02  0.92344479328E+02 -0.62637935189E+01  0.94633376297E+02  0.10566000000E+00 0. -1.
    9000005    1    3    3    0    0  0.30446629965E+02 -0.10625781599E+02 -0.20170974303E+02  0.38049608607E+02  0.10000000000E+01 0.  0.
    9000005    1    3    3    0    0 -0.26549508713E+02 -0.12237748849E+03  0.10426803828E+03  0.16295382753E+03  0.10000000000E+01 0.  0.
<mgrwt>
<rscale>  0 0.17702064E+03</rscale>
<asrwt>0</asrwt>
<pdfrwt beam="1">  1        2 0.38982619E-01 0.18256524E+03</pdfrwt>
<pdfrwt beam="2">  1       -2 0.18029824E-01 0.18256524E+03</pdfrwt>
<totfact> 0.32324487E+03</totfact>
</mgrwt>
</event>
<event>
 8    3  0.7944584E-004  0.2043717E+03  0.7818608E-02  0.1150011E+00
         -2   -1    0    0    0  501 -0.00000000000E+00  0.00000000000E+00  0.80464347253E+02  0.80464347293E+02  0.25500000000E-02 0.  1.
          2   -1    0    0  501    0  0.00000000000E+00 -0.00000000000E+00 -0.47413494659E+03  0.47413494660E+03  0.25500000000E-02 0. -1.
         25    2    1    2    0    0  0.12982267600E+03 -0.96377009500E+02 -0.20198411082E+03  0.28734188358E+03  0.12500128747E+03 0.  0.
         23    2    1    2    0    0 -0.12982267600E+03  0.96377009500E+02 -0.19168648852E+03  0.26725741032E+03  0.92414059135E+02 0.  0.
        -13    1    4    4    0    0 -0.13756461319E+03  0.77588244101E+02 -0.13756726208E+03  0.20944861228E+03  0.10566000000E+00 0.  1.
         13    1    4    4    0    0  0.77419371917E+01  0.18788765399E+02 -0.54119226436E+02  0.57808798039E+02  0.10566000000E+00 0. -1.
    9000005    1    3    3    0    0  0.61312656164E+02  0.14567647359E+02 -0.11328212840E+03  0.12963525281E+03  0.10000000000E+01 0.  0.
    9000005    1    3    3    0    0  0.68510019831E+02 -0.11094465686E+03 -0.88701982421E+02  0.15770663077E+03  0.10000000000E+01 0.  0.
<mgrwt>
<rscale>  0 0.19967781E+03</rscale>
<asrwt>0</asrwt>
<pdfrwt beam="2">  1        2 0.72943837E-01 0.20437166E+03</pdfrwt>
<pdfrwt beam="1">  1       -2 0.12379131E-01 0.20437166E+03</pdfrwt>
<totfact> 0.30674418E+03</totfact>
</mgrwt>
</event>
<event>
 8    3  0.7944584E-004  0.1262232E+03  0.7818608E-02  0.1250612E+00
          2   -1    0    0  501    0  0.00000000000E+00  0.00000000000E+00  0.57640650348E+03  0.57640650349E+03  0.25500000000E-02 0. -1.
         -2   -1    0    0    0  501 -0.00000000000E+00 -0.00000000000E+00 -0.20186421193E+02  0.20186421354E+02  0.25500000000E-02 0.  1.
         25    2    1    2    0    0 -0.46566633355E+01 -0.16923229879E+02  0.30034553020E+03  0.32579092987E+03  0.12499684896E+03 0.  0.
         23    2    1    2    0    0  0.46566633355E+01  0.16923229879E+02  0.25587455209E+03  0.27080199498E+03  0.86912909580E+02 0.  0.
        -13    1    4    4    0    0 -0.13080304566E+02  0.35260334942E+02  0.46158774160E+02  0.59540147663E+02  0.10566000000E+00 0.  1.
         13    1    4    4    0    0  0.17736967902E+02 -0.18337105063E+02  0.20971577793E+03  0.21126184731E+03  0.10566000000E+00 0. -1.
    9000005    1    3    3    0    0 -0.36948198173E+02  0.21148462959E+02  0.25439111937E+03  0.25793074351E+03  0.10000000000E+01 0.  0.
    9000005    1    3    3    0    0  0.32291534837E+02 -0.38071692839E+02  0.45954410830E+02  0.67860186357E+02  0.10000000000E+01 0.  0.
<mgrwt>
<rscale>  0 0.11555681E+03</rscale>
<asrwt>0</asrwt>
<pdfrwt beam="1">  1        2 0.88677924E-01 0.12622319E+03</pdfrwt>
<pdfrwt beam="2">  1       -2 0.31056032E-02 0.12622319E+03</pdfrwt>
<totfact> 0.19928827E+04</totfact>
</mgrwt>
</event>
<event>
 8    3  0.7944584E-004  0.1779497E+03  0.7818608E-02  0.1175430E+00
         -2   -1    0    0    0  501 -0.00000000000E+00  0.00000000000E+00  0.29279062995E+03  0.29279062996E+03  0.25500000000E-02 0. -1.
          2   -1    0    0  501    0  0.00000000000E+00 -0.00000000000E+00 -0.97228132966E+02  0.97228133000E+02  0.25500000000E-02 0.  1.
         25    2    1    2    0    0 -0.12472547421E+03 -0.22020608665E+02  0.78258616617E+02  0.19439778916E+03  0.12499895292E+03 0.  0.
         23    2    1    2    0    0  0.12472547421E+03  0.22020608665E+02  0.11730388037E+03  0.19562097381E+03  0.92010944570E+02 0.  0.
        -13    1    4    4    0    0  0.21494498546E+02 -0.31057139018E+02  0.14154348202E+02  0.40335047896E+02  0.10566000000E+00 0.  1.
         13    1    4    4    0    0  0.10323097567E+03  0.53077747683E+02  0.10314953217E+03  0.15528592591E+03  0.10566000000E+00 0. -1.
    9000005    1    3    3    0    0 -0.84909131441E+02 -0.32985501861E+02 -0.15070273566E+02  0.92334809690E+02  0.10000000000E+01 0.  0.
    9000005    1    3    3    0    0 -0.39816342770E+02  0.10964893195E+02  0.93328890184E+02  0.10206297947E+03  0.10000000000E+01 0.  0.
<mgrwt>
<rscale>  0 0.17233956E+03</rscale>
<asrwt>0</asrwt>
<pdfrwt beam="2">  1        2 0.14958175E-01 0.17794968E+03</pdfrwt>
<pdfrwt beam="1">  1       -2 0.45044712E-01 0.17794968E+03</pdfrwt>
<totfact> 0.18155496E+03</totfact>
</mgrwt>
</event>
<event>
 8    3  0.7944584E-004  0.1481414E+03  0.7818608E-02  0.1210988E+00
          2   -1    0    0  501    0  0.00000000000E+00  0.00000000000E+00  0.28566038526E+03  0.28566038527E+03  0.25500000000E-02 0.  1.
         -2   -1    0    0    0  501 -0.00000000000E+00 -0.00000000000E+00 -0.65401768620E+02  0.65401768670E+02  0.25500000000E-02 0. -1.
         25    2    1    2    0    0  0.79250089414E+02 -0.63385099977E+01  0.13491272970E+03  0.20036795706E+03  0.12500048080E+03 0.  0.
         23    2    1    2    0    0 -0.79250089414E+02  0.63385099977E+01  0.85345886946E+02  0.15069419688E+03  0.95415235550E+02 0.  0.
        -13    1    4    4    0    0 -0.78435607606E+01  0.42494876391E+02  0.38977234481E+02  0.58194260341E+02  0.10566000000E+00 0.  1.
         13    1    4    4    0    0 -0.71406528653E+02 -0.36156366393E+02  0.46368652466E+02  0.92499936544E+02  0.10566000000E+00 0. -1.
    9000005    1    3    3    0    0 -0.22620693321E+01 -0.53660950782E+02  0.44468970761E+02  0.69735958852E+02  0.10000000000E+01 0.  0.
    9000005    1    3    3    0    0  0.81512158746E+02  0.47322440784E+02  0.90443758934E+02  0.13063199821E+03  0.10000000000E+01 0.  0.
<mgrwt>
<rscale>  0 0.14175384E+03</rscale>
<asrwt>0</asrwt>
<pdfrwt beam="1">  1        2 0.43947751E-01 0.14814140E+03</pdfrwt>
<pdfrwt beam="2">  1       -2 0.10061811E-01 0.14814140E+03</pdfrwt>
<totfact> 0.72525787E+03</totfact>
</mgrwt>
</event>
<event>
 8    3  0.7944584E-004  0.2558804E+03  0.7818608E-02  0.1110824E+00
          2   -1    0    0  501    0  0.00000000000E+00  0.00000000000E+00  0.38715656617E+03  0.38715656618E+03  0.25500000000E-02 0. -1.
         -2   -1    0    0    0  501 -0.00000000000E+00 -0.00000000000E+00 -0.20757471554E+03  0.20757471555E+03  0.25500000000E-02 0.  1.
         25    2    1    2    0    0  0.10110066670E+03 -0.19907138114E+03 -0.45145561514E+02  0.25983241982E+03  0.12499602022E+03 0.  0.
         23    2    1    2    0    0 -0.10110066670E+03  0.19907138114E+03  0.22472741215E+03  0.33489886191E+03  0.10864657539E+03 0.  0.
        -13    1    4    4    0    0 -0.10037663624E+03  0.21198566070E+03  0.20618757616E+03  0.31229267870E+03  0.10566000000E+00 0.  1.
         13    1    4    4    0    0 -0.72403045484E+00 -0.12914279560E+02  0.18539835993E+02  0.22606183210E+02  0.10566000000E+00 0. -1.
    9000005    1    3    3    0    0 -0.33910765816E+01 -0.26915815582E+02  0.33949825229E+02  0.43468967803E+02  0.10000000000E+01 0.  0.
    9000005    1    3    3    0    0  0.10449174328E+03 -0.17215556555E+03 -0.79095386743E+02  0.21636345202E+03  0.10000000000E+01 0.  0.
<mgrwt>
<rscale>  0 0.25396486E+03</rscale>
<asrwt>0</asrwt>
<pdfrwt beam="1">  1        2 0.59562548E-01 0.25588037E+03</pdfrwt>
<pdfrwt beam="2">  1       -2 0.31934572E-01 0.25588037E+03</pdfrwt>
<totfact> 0.75623764E+02</totfact>
</mgrwt>
</event>
<event>
 8    3  0.7944584E-004  0.1438541E+03  0.7818608E-02  0.1218252E+00
          2   -1    0    0  501    0  0.00000000000E+00  0.00000000000E+00  0.13559052782E+03  0.13559052784E+03  0.25500000000E-02 0. -1.
         -2   -1    0    0    0  501 -0.00000000000E+00 -0.00000000000E+00 -0.13351773806E+03  0.13351773809E+03  0.25500000000E-02 0.  1.
         25    2    1    2    0    0 -0.65668915096E+02  0.27556239540E+02  0.35386553782E+02  0.14814256927E+03  0.12498903910E+03 0.  0.
         23    2    1    2    0    0  0.65668915096E+02 -0.27556239540E+02 -0.33313764030E+02  0.12096569665E+03  0.91930082921E+02 0.  0.
        -13    1    4    4    0    0  0.26075997257E+02  0.33107336108E+02 -0.24216381975E+01  0.42212898890E+02  0.10566000000E+00 0. -1.
         13    1    4    4    0    0  0.39592917839E+02 -0.60663575648E+02 -0.30892125832E+02  0.78752797765E+02  0.10566000000E+00 0.  1.
    9000005    1    3    3    0    0  0.10871569047E+02 -0.39720328367E+02  0.17117390227E+02  0.44608301327E+02  0.10000000000E+01 0.  0.
    9000005    1    3    3    0    0 -0.76540484143E+02  0.67276567907E+02  0.18269163555E+02  0.10353426795E+03  0.10000000000E+01 0.  0.
<mgrwt>
<rscale>  0 0.13640349E+03</rscale>
<asrwt>0</asrwt>
<pdfrwt beam="1">  1        2 0.20860081E-01 0.14385414E+03</pdfrwt>
<pdfrwt beam="2">  1       -2 0.20541190E-01 0.14385414E+03</pdfrwt>
<totfact> 0.50823513E+03</totfact>
</mgrwt>
</event>
<event>
 8    3  0.7944584E-004  0.1264863E+03  0.7818608E-02  0.1247908E+00
         -2   -1    0    0    0  501 -0.00000000000E+00  0.00000000000E+00  0.79641938331E+03  0.79641938332E+03  0.25500000000E-02 0.  1.
          2   -1    0    0  501    0  0.00000000000E+00 -0.00000000000E+00 -0.21412882661E+02  0.21412882812E+02  0.25500000000E-02 0. -1.
         25    2    1    2    0    0  0.11066927004E+02 -0.15953112486E+02  0.64902262160E+03  0.66123304709E+03  0.12498720152E+03 0.  0.
         23    2    1    2    0    0 -0.11066927004E+02  0.15953112486E+02  0.12598387906E+03  0.15659921904E+03  0.90963723273E+02 0.  0.
        -13    1    4    4    0    0  0.11423979681E+01  0.87826882658E+01 -0.13637653718E+02  0.16261532808E+02  0.10566000000E+00 0. -1.
         13    1    4    4    0    0 -0.12209324972E+02  0.71704242205E+01  0.13962153277E+03  0.14033768623E+03  0.10566000000E+00 0.  1.
    9000005    1    3    3    0    0  0.24520671401E+01  0.43908708975E+02  0.10477375941E+03  0.11363330505E+03  0.10000000000E+01 0.  0.
    9000005    1    3    3    0    0  0.86148598637E+01 -0.59861821462E+02  0.54424886219E+03  0.54759974204E+03  0.10000000000E+01 0.  0.
<mgrwt>
<rscale>  0 0.11713002E+03</rscale>
<asrwt>0</asrwt>
<pdfrwt beam="2">  1        2 0.32942902E-02 0.12648628E+03</pdfrwt>
<pdfrwt beam="1">  1       -2 0.12252604E+00 0.12648628E+03</pdfrwt>
<totfact> 0.13961697E+03</totfact>
</mgrwt>
</event>
<event>
 8    3  0.7944584E-004  0.1277954E+03  0.7818608E-02  0.1245556E+00
         -2   -1    0    0    0  501 -0.00000000000E+00  0.00000000000E+00  0.17317144197E+03  0.17317144199E+03  0.25500000000E-02 0.  1.
          2   -1    0    0  501    0  0.00000000000E+00 -0.00000000000E+00 -0.71369537719E+02  0.71369537764E+02  0.25500000000E-02 0. -1.
         25    2    1    2    0    0  0.24608740144E+02  0.97667806379E+01  0.58036051025E+02  0.14035618088E+03  0.12502277471E+03 0.  0.
         23    2    1    2    0    0 -0.24608740144E+02 -0.97667806379E+01  0.43765853226E+02  0.10418479888E+03  0.90763661851E+02 0.  0.
        -13    1    4    4    0    0  0.23182265442E+02 -0.10643149990E+01  0.50083318203E+02  0.55198732990E+02  0.10566000000E+00 0.  1.
         13    1    4    4    0    0 -0.47791005586E+02 -0.87024656389E+01 -0.63174649773E+01  0.48986065885E+02  0.10566000000E+00 0. -1.
    9000005    1    3    3    0    0 -0.15613282624E+02 -0.24851596260E+02 -0.27145805622E+02  0.39990888886E+02  0.10000000000E+01 0.  0.
    9000005    1    3    3    0    0  0.40222022769E+02  0.34618376898E+02  0.85181856647E+02  0.10036529199E+03  0.10000000000E+01 0.  0.
<mgrwt>
<rscale>  0 0.11852167E+03</rscale>
<asrwt>0</asrwt>
<pdfrwt beam="2">  1        2 0.10979929E-01 0.12779544E+03</pdfrwt>
<pdfrwt beam="1">  1       -2 0.26641760E-01 0.12779544E+03</pdfrwt>
<totfact> 0.68087718E+03</totfact>
</mgrwt>
</event>
<event>
 8    3  0.7944584E-004  0.1328858E+03  0.7818608E-02  0.1236280E+00
         -2   -1    0    0    0  501 -0.00000000000E+00  0.00000000000E+00  0.16891227043E+02  0.16891227236E+02  0.25500000000E-02 0. -1.
          2   -1    0    0  501    0  0.00000000000E+00 -0.00000000000E+00 -0.81859672683E+03  0.81859672683E+03  0.25500000000E-02 0.  1.
         25    2    1    2    0    0  0.44479737228E+02  0.74129866249E+01 -0.48822419873E+03  0.50598568347E+03  0.12500097701E+03 0.  0.
         23    2    1    2    0    0 -0.44479737228E+02 -0.74129866249E+01 -0.31348130106E+03  0.32950227060E+03  0.90927558114E+02 0.  0.
        -13    1    4    4    0    0 -0.42754654777E+02  0.33026482860E+02 -0.11666371113E+03  0.12856570979E+03  0.10566000000E+00 0. -1.
         13    1    4    4    0    0 -0.17250824506E+01 -0.40439469485E+02 -0.19681758993E+03  0.20093656082E+03  0.10566000000E+00 0.  1.
    9000005    1    3    3    0    0  0.77917312319E+02  0.38754426198E+02 -0.32355150531E+03  0.33505162243E+03  0.10000000000E+01 0.  0.
    9000005    1    3    3    0    0 -0.33437575092E+02 -0.31341439573E+02 -0.16467269342E+03  0.17093406103E+03  0.10000000000E+01 0.  0.
<mgrwt>
<rscale>  0 0.12422817E+03</rscale>
<asrwt>0</asrwt>
<pdfrwt beam="2">  1        2 0.12593793E+00 0.13288583E+03</pdfrwt>
<pdfrwt beam="1">  1       -2 0.25986510E-02 0.13288583E+03</pdfrwt>
<totfact> 0.17167050E+04</totfact>
</mgrwt>
</event>
<event>
 8    3  0.7944584E-004  0.1260226E+03  0.7818608E-02  0.1245746E+00
         -2   -1    0    0    0  501 -0.00000000000E+00  0.00000000000E+00  0.67517727168E+01  0.67517731984E+01  0.25500000000E-02 0.  1.
          2   -1    0    0  501    0  0.00000000000E+00 -0.00000000000E+00 -0.19937255044E+04  0.19937255044E+04  0.25500000000E-02 0. -1.
         25    2    1    2    0    0  0.78924610783E+01  0.13934454149E+02 -0.13639349046E+04  0.13697445438E+04  0.12500092551E+03 0.  0.
         23    2    1    2    0    0 -0.78924610783E+01 -0.13934454149E+02 -0.62303882706E+03  0.63073273376E+03  0.96901710284E+02 0.  0.
        -13    1    4    4    0    0  0.17051121975E+02  0.49215950577E+01 -0.19433228272E+02  0.26317757952E+02  0.10566000000E+00 0.  1.
         13    1    4    4    0    0 -0.24943583053E+02 -0.18856049206E+02 -0.60360559879E+03  0.60441497581E+03  0.10566000000E+00 0. -1.
    9000005    1    3    3    0    0 -0.55048571403E+02  0.11957324320E+02 -0.86800567790E+03  0.86983227100E+03  0.10000000000E+01 0.  0.
    9000005    1    3    3    0    0  0.62941032481E+02  0.19771298290E+01 -0.49592922669E+03  0.49991227280E+03  0.10000000000E+01 0.  0.
<mgrwt>
<rscale>  0 0.11840825E+03</rscale>
<asrwt>0</asrwt>
<pdfrwt beam="2">  1        2 0.30672653E+00 0.12602258E+03</pdfrwt>
<pdfrwt beam="1">  1       -2 0.10387359E-02 0.12602258E+03</pdfrwt>
<totfact> 0.14701418E+04</totfact>
</mgrwt>
</event>
<event>
 8    3  0.7944584E-004  0.1316705E+03  0.7818608E-02  0.1238911E+00
          2   -1    0    0  501    0  0.00000000000E+00  0.00000000000E+00  0.44563655757E+03  0.44563655757E+03  0.25500000000E-02 0.  1.
         -2   -1    0    0    0  501 -0.00000000000E+00 -0.00000000000E+00 -0.29826588112E+02  0.29826588221E+02  0.25500000000E-02 0. -1.
         25    2    1    2    0    0 -0.37185862708E+02  0.18140888316E+02  0.24104784189E+03  0.27466558482E+03  0.12500096475E+03 0.  0.
         23    2    1    2    0    0  0.37185862708E+02 -0.18140888316E+02  0.17476212756E+03  0.20079756098E+03  0.89810795843E+02 0.  0.
        -13    1    4    4    0    0  0.41853329507E+02 -0.35597318555E+01  0.17982977226E+03  0.18467033069E+03  0.10566000000E+00 0.  1.
         13    1    4    4    0    0 -0.46674667991E+01 -0.14581156461E+02 -0.50676446950E+01  0.16127230290E+02  0.10566000000E+00 0. -1.
    9000005    1    3    3    0    0 -0.67387974126E+02  0.48567539400E+02  0.11760053447E+03  0.14398204974E+03  0.10000000000E+01 0.  0.
    9000005    1    3    3    0    0  0.30202111418E+02 -0.30426651084E+02  0.12344730742E+03  0.13068353508E+03  0.10000000000E+01 0.  0.
<mgrwt>
<rscale>  0 0.12257357E+03</rscale>
<asrwt>0</asrwt>
<pdfrwt beam="1">  1        2 0.68559464E-01 0.13167050E+03</pdfrwt>
<pdfrwt beam="2">  1       -2 0.45887063E-02 0.13167050E+03</pdfrwt>
<totfact> 0.14887816E+04</totfact>
</mgrwt>
</event>
<event>
 8    3  0.7944584E-004  0.1296639E+03  0.7818608E-02  0.1243256E+00
          2   -1    0    0  501    0  0.00000000000E+00  0.00000000000E+00  0.14866581824E+03  0.14866581827E+03  0.25500000000E-02 0. -1.
         -2   -1    0    0    0  501 -0.00000000000E+00 -0.00000000000E+00 -0.84787674809E+02  0.84787674847E+02  0.25500000000E-02 0.  1.
         25    2    1    2    0    0 -0.17423082476E+02 -0.29771886869E+02  0.34087309405E+02  0.13406964992E+03  0.12499118896E+03 0.  0.
         23    2    1    2    0    0  0.17423082476E+02  0.29771886869E+02  0.29790834029E+02  0.99383843188E+02  0.88316054282E+02 0.  0.
        -13    1    4    4    0    0  0.97816582468E+01  0.53203889166E+02 -0.75729545876E+01  0.54623213615E+02  0.10566000000E+00 0.  1.
         13    1    4    4    0    0  0.76414242297E+01 -0.23432002297E+02  0.37363788617E+02  0.44760629573E+02  0.10566000000E+00 0. -1.
    9000005    1    3    3    0    0 -0.51033914143E+02  0.31136960816E+02  0.11226936439E+02  0.60835966528E+02  0.10000000000E+01 0.  0.
    9000005    1    3    3    0    0  0.33610831666E+02 -0.60908847685E+02  0.22860372966E+02  0.73233683396E+02  0.10000000000E+01 0.  0.
<mgrwt>
<rscale>  0 0.11990359E+03</rscale>
<asrwt>0</asrwt>
<pdfrwt beam="1">  1        2 0.22871664E-01 0.12966390E+03</pdfrwt>
<pdfrwt beam="2">  1       -2 0.13044258E-01 0.12966390E+03</pdfrwt>
<totfact> 0.96345355E+03</totfact>
</mgrwt>
</event>
<event>
 8    3  0.7944584E-004  0.1340764E+03  0.7818608E-02  0.1233319E+00
         -2   -1    0    0    0  501 -0.00000000000E+00  0.00000000000E+00  0.12541111301E+02  0.12541111560E+02  0.25500000000E-02 0.  1.
          2   -1    0    0  501    0  0.00000000000E+00 -0.00000000000E+00 -0.12470652764E+04  0.12470652764E+04  0.25500000000E-02 0. -1.
         25    2    1    2    0    0  0.21346216207E+02 -0.43537723933E+02 -0.86970058418E+03  0.87997476638E+03  0.12500115597E+03 0.  0.
         23    2    1    2    0    0 -0.21346216207E+02  0.43537723933E+02 -0.36482358089E+03  0.37963162155E+03  0.93127485510E+02 0.  0.
        -13    1    4    4    0    0 -0.38491850912E+02  0.10718240525E+02 -0.31516368641E+03  0.31768642348E+03  0.10566000000E+00 0. -1.
         13    1    4    4    0    0  0.17145634705E+02  0.32819483408E+02 -0.49659894476E+02  0.61945198071E+02  0.10566000000E+00 0.  1.
    9000005    1    3    3    0    0 -0.30018131664E+02 -0.52521415089E+02 -0.21949874397E+03  0.22768461932E+03  0.10000000000E+01 0.  0.
    9000005    1    3    3    0    0  0.51364347870E+02  0.89836911554E+01 -0.65020184021E+03  0.65229014706E+03  0.10000000000E+01 0.  0.
<mgrwt>
<rscale>  0 0.12612649E+03</rscale>
<asrwt>0</asrwt>
<pdfrwt beam="2">  1        2 0.19185610E+00 0.13407641E+03</pdfrwt>
<pdfrwt beam="1">  1       -2 0.19294028E-02 0.13407641E+03</pdfrwt>
<totfact> 0.14751914E+04</totfact>
</mgrwt>
</event>
<event>
 8    3  0.7944584E-004  0.1362786E+03  0.7818608E-02  0.1229914E+00
         -2   -1    0    0    0  501 -0.00000000000E+00  0.00000000000E+00  0.27364181098E+02  0.27364181217E+02  0.25500000000E-02 0.  1.
          2   -1    0    0  501    0  0.00000000000E+00 -0.00000000000E+00 -0.55210278469E+03  0.55210278469E+03  0.25500000000E-02 0. -1.
         25    2    1    2    0    0  0.52755215869E+02 -0.12751027045E+02 -0.25379526869E+03  0.28806927168E+03  0.12500466144E+03 0.  0.
         23    2    1    2    0    0 -0.52755215869E+02  0.12751027045E+02 -0.27094333490E+03  0.29139769423E+03  0.92502021530E+02 0.  0.
        -13    1    4    4    0    0 -0.25309476852E+02 -0.40776951687E+01 -0.25347760641E+03  0.25477069166E+03  0.10566000000E+00 0. -1.
         13    1    4    4    0    0 -0.27445739017E+02  0.16828722214E+02 -0.17465728489E+02  0.36627002569E+02  0.10566000000E+00 0.  1.
    9000005    1    3    3    0    0  0.35306954159E+02 -0.29065721315E+02 -0.15086767012E+02  0.48166458313E+02  0.10000000000E+01 0.  0.
    9000005    1    3    3    0    0  0.17448261710E+02  0.16314694270E+02 -0.23870850168E+03  0.23990281337E+03  0.10000000000E+01 0.  0.
<mgrwt>
<rscale>  0 0.12835685E+03</rscale>
<asrwt>0</asrwt>
<pdfrwt beam="2">  1        2 0.84938881E-01 0.13627864E+03</pdfrwt>
<pdfrwt beam="1">  1       -2 0.42098745E-02 0.13627864E+03</pdfrwt>
<totfact> 0.13420204E+04</totfact>
</mgrwt>
</event>
<event>
 8    3  0.7944584E-004  0.1447860E+03  0.7818608E-02  0.1217352E+00
         -2   -1    0    0    0  501 -0.00000000000E+00  0.00000000000E+00  0.28325312474E+03  0.28325312475E+03  0.25500000000E-02 0.  1.
          2   -1    0    0  501    0  0.00000000000E+00 -0.00000000000E+00 -0.60147506733E+02  0.60147506787E+02  0.25500000000E-02 0. -1.
         25    2    1    2    0    0 -0.45689289955E+02  0.57022724616E+02  0.12140105791E+03  0.18894764626E+03  0.12499557522E+03 0.  0.
         23    2    1    2    0    0  0.45689289955E+02 -0.57022724616E+02  0.10170456010E+03  0.15445298528E+03  0.90403566181E+02 0.  0.
        -13    1    4    4    0    0  0.22159183033E+01 -0.70633812869E+02  0.63151285683E+02  0.94774162417E+02  0.10566000000E+00 0.  1.
         13    1    4    4    0    0  0.43473371652E+02  0.13611088254E+02  0.38553274418E+02  0.59678822866E+02  0.10566000000E+00 0. -1.
    9000005    1    3    3    0    0  0.18870382892E+02  0.73881088621E+02  0.49849015045E+02  0.91106700672E+02  0.10000000000E+01 0.  0.
    9000005    1    3    3    0    0 -0.64559672848E+02 -0.16858364006E+02  0.71552042861E+02  0.97840945584E+02  0.10000000000E+01 0.  0.
<mgrwt>
<rscale>  0 0.13705175E+03</rscale>
<asrwt>0</asrwt>
<pdfrwt beam="2">  1        2 0.92534626E-02 0.14478604E+03</pdfrwt>
<pdfrwt beam="1">  1       -2 0.43577404E-01 0.14478604E+03</pdfrwt>
<totfact> 0.34255836E+03</totfact>
</mgrwt>
</event>
<event>
 8    3  0.7944584E-004  0.1488512E+03  0.7818608E-02  0.1211406E+00
          2   -1    0    0  501    0  0.00000000000E+00  0.00000000000E+00  0.70597011399E+03  0.70597011400E+03  0.25500000000E-02 0. -1.
         -2   -1    0    0    0  501 -0.00000000000E+00 -0.00000000000E+00 -0.59582889895E+02  0.59582889949E+02  0.25500000000E-02 0.  1.
         25    2    1    2    0    0 -0.26390404202E+02 -0.76402821920E+02  0.62482392843E+03  0.64230960028E+03  0.12499134544E+03 0.  0.
         23    2    1    2    0    0  0.26390404202E+02  0.76402821920E+02  0.21563295663E+02  0.12324340367E+03  0.90499260752E+02 0.  0.
        -13    1    4    4    0    0 -0.14577296535E+02  0.75641860802E+02  0.20060623078E+00  0.77034019022E+02  0.10566000000E+00 0. -1.
         13    1    4    4    0    0  0.40967700737E+02  0.76096111768E+00  0.21362689433E+02  0.46209384646E+02  0.10566000000E+00 0.  1.
    9000005    1    3    3    0    0 -0.41706801430E+02 -0.29366400302E+02  0.55149470315E+03  0.55384948348E+03  0.10000000000E+01 0.  0.
    9000005    1    3    3    0    0  0.15316397228E+02 -0.47036421617E+02  0.73329225286E+02  0.88460116796E+02  0.10000000000E+01 0.  0.
<mgrwt>
<rscale>  0 0.14143840E+03</rscale>
<asrwt>0</asrwt>
<pdfrwt beam="1">  1        2 0.10861078E+00 0.14885120E+03</pdfrwt>
<pdfrwt beam="2">  1       -2 0.91665993E-02 0.14885120E+03</pdfrwt>
<totfact> 0.31048353E+03</totfact>
</mgrwt>
</event>
<event>
 8    3  0.7944584E-004  0.1449855E+03  0.7818608E-02  0.1215862E+00
          2   -1    0    0  501    0  0.00000000000E+00  0.00000000000E+00  0.30157876656E+04  0.30157876656E+04  0.25500000000E-02 0. -1.
         -2   -1    0    0    0  501 -0.00000000000E+00 -0.00000000000E+00 -0.77321831551E+01  0.77321835756E+01  0.25500000000E-02 0.  1.
         25    2    1    2    0    0 -0.23927085040E+02  0.69456327588E+02  0.23664682765E+04  0.23709055044E+04  0.12499648088E+03 0.  0.
         23    2    1    2    0    0  0.23927085040E+02 -0.69456327588E+02  0.64158720596E+03  0.65261434480E+03  0.94205378545E+02 0.  0.
        -13    1    4    4    0    0 -0.11223718516E+02  0.76911458122E+01  0.14739280496E+02  0.20059489894E+02  0.10566000000E+00 0.  1.
         13    1    4    4    0    0  0.35150803556E+02 -0.77147473400E+02  0.62684792547E+03  0.63255485491E+03  0.10566000000E+00 0. -1.
    9000005    1    3    3    0    0 -0.62875994066E+02  0.44463380048E+01  0.74322650798E+03  0.74589530278E+03  0.10000000000E+01 0.  0.
    9000005    1    3    3    0    0  0.38948909026E+02  0.65009989583E+02  0.16232417685E+04  0.16250102016E+04  0.10000000000E+01 0.  0.
<mgrwt>
<rscale>  0 0.13813433E+03</rscale>
<asrwt>0</asrwt>
<pdfrwt beam="1">  1        2 0.46396741E+00 0.14498554E+03</pdfrwt>
<pdfrwt beam="2">  1       -2 0.11895665E-02 0.14498554E+03</pdfrwt>
<totfact> 0.34192431E+03</totfact>
</mgrwt>
</event>
<event>
 8    3  0.7944584E-004  0.1320679E+03  0.7818608E-02  0.1238571E+00
          2   -1    0    0  501    0  0.00000000000E+00  0.00000000000E+00  0.22427860672E+03  0.22427860673E+03  0.25500000000E-02 0. -1.
         -2   -1    0    0    0  501 -0.00000000000E+00 -0.00000000000E+00 -0.61238992774E+02  0.61238992827E+02  0.25500000000E-02 0.  1.
         25    2    1    2    0    0 -0.17241748267E+02  0.38981689554E+02  0.11778652789E+03  0.17696215049E+03  0.12500034619E+03 0.  0.
         23    2    1    2    0    0  0.17241748267E+02 -0.38981689554E+02  0.45253086053E+02  0.10855544907E+03  0.88992099214E+02 0.  0.
        -13    1    4    4    0    0 -0.10252816111E+02  0.45955685284E+01 -0.21482226390E+02  0.24243281605E+02  0.10566000000E+00 0.  1.
         13    1    4    4    0    0  0.27494564378E+02 -0.43577258082E+02  0.66735312443E+02  0.84312167468E+02  0.10566000000E+00 0. -1.
    9000005    1    3    3    0    0  0.20154624252E+02  0.12472093097E+02  0.12784017240E+03  0.13002258136E+03  0.10000000000E+01 0.  0.
    9000005    1    3    3    0    0 -0.37396372519E+02  0.26509596457E+02 -0.10053644506E+02  0.46939569126E+02  0.10000000000E+01 0.  0.
<mgrwt>
<rscale>  0 0.12278578E+03</rscale>
<asrwt>0</asrwt>
<pdfrwt beam="1">  1        2 0.34504401E-01 0.13206792E+03</pdfrwt>
<pdfrwt beam="2">  1       -2 0.94213835E-02 0.13206792E+03</pdfrwt>
<totfact> 0.10321904E+04</totfact>
</mgrwt>
</event>
<event>
 8    3  0.7944584E-004  0.1388154E+03  0.7818608E-02  0.1226998E+00
          2   -1    0    0  501    0  0.00000000000E+00  0.00000000000E+00  0.58765993439E+03  0.58765993440E+03  0.25500000000E-02 0.  1.
         -2   -1    0    0    0  501 -0.00000000000E+00 -0.00000000000E+00 -0.29245411222E+02  0.29245411333E+02  0.25500000000E-02 0. -1.
         25    2    1    2    0    0  0.46111926258E+02  0.38966267508E+02  0.41430766250E+03  0.43694456294E+03  0.12500012854E+03 0.  0.
         23    2    1    2    0    0 -0.46111926258E+02 -0.38966267508E+02  0.14410686068E+03  0.17996078279E+03  0.89299587355E+02 0.  0.
        -13    1    4    4    0    0 -0.46951753606E+02 -0.75157455407E+01  0.14045764570E+03  0.14828794623E+03  0.10566000000E+00 0.  1.
         13    1    4    4    0    0  0.83982734843E+00 -0.31450521967E+02  0.36492149806E+01  0.31672836564E+02  0.10566000000E+00 0. -1.
    9000005    1    3    3    0    0 -0.27249994531E+02  0.53834432553E+02  0.13683838267E+03  0.14955417514E+03  0.10000000000E+01 0.  0.
    9000005    1    3    3    0    0  0.73361920789E+02 -0.14868165045E+02  0.27746927983E+03  0.28739038780E+03  0.10000000000E+01 0.  0.
<mgrwt>
<rscale>  0 0.13030910E+03</rscale>
<asrwt>0</asrwt>
<pdfrwt beam="1">  1        2 0.90409207E-01 0.13881539E+03</pdfrwt>
<pdfrwt beam="2">  1       -2 0.44992947E-02 0.13881539E+03</pdfrwt>
<totfact> 0.11343407E+04</totfact>
</mgrwt>
</event>
<event>
 8    3  0.7944584E-004  0.1458503E+03  0.7818608E-02  0.1214423E+00
         -2   -1    0    0    0  501 -0.00000000000E+00  0.00000000000E+00  0.26917077409E+03  0.26917077411E+03  0.25500000000E-02 0. -1.
          2   -1    0    0  501    0  0.00000000000E+00 -0.00000000000E+00 -0.74035056128E+02  0.74035056172E+02  0.25500000000E-02 0.  1.
         25    2    1    2    0    0 -0.58531412337E+02  0.47131669954E+02  0.16155914967E+03  0.21765495590E+03  0.12500000177E+03 0.  0.
         23    2    1    2    0    0  0.58531412337E+02 -0.47131669954E+02  0.33576568293E+02  0.12555087438E+03  0.94806727483E+02 0.  0.
        -13    1    4    4    0    0 -0.20141291260E+02 -0.94832276140E+01 -0.13903643793E+02  0.26247394049E+02  0.10566000000E+00 0.  1.
         13    1    4    4    0    0  0.78672703597E+02 -0.37648442340E+02  0.47480212085E+02  0.99303480330E+02  0.10566000000E+00 0. -1.
    9000005    1    3    3    0    0  0.30921304526E+02  0.45060603525E+02  0.45586794202E+02  0.71174018217E+02  0.10000000000E+01 0.  0.
    9000005    1    3    3    0    0 -0.89452716863E+02  0.20710664296E+01  0.11597235547E+03  0.14648093768E+03  0.10000000000E+01 0.  0.
<mgrwt>
<rscale>  0 0.13918968E+03</rscale>
<asrwt>0</asrwt>
<pdfrwt beam="2">  1        2 0.11390009E-01 0.14585034E+03</pdfrwt>
<pdfrwt beam="1">  1       -2 0.41410888E-01 0.14585034E+03</pdfrwt>
<totfact> 0.29295460E+03</totfact>
</mgrwt>
</event>
<event>
 8    3  0.7944584E-004  0.1547816E+03  0.7818608E-02  0.1203333E+00
         -2   -1    0    0    0  501 -0.00000000000E+00  0.00000000000E+00  0.24138100993E+02  0.24138101128E+02  0.25500000000E-02 0.  1.
          2   -1    0    0  501    0  0.00000000000E+00 -0.00000000000E+00 -0.83918653418E+03  0.83918653419E+03  0.25500000000E-02 0. -1.
         25    2    1    2    0    0  0.41054200990E+02 -0.81540354188E+02 -0.48985633374E+03  0.51372811959E+03  0.12499230525E+03 0.  0.
         23    2    1    2    0    0 -0.41054200990E+02  0.81540354188E+02 -0.32519209945E+03  0.34959651572E+03  0.90186171237E+02 0.  0.
        -13    1    4    4    0    0 -0.98663746400E+01  0.93697147463E+02 -0.22383830813E+03  0.24285818936E+03  0.10566000000E+00 0. -1.
         13    1    4    4    0    0 -0.31187826350E+02 -0.12156793275E+02 -0.10135379132E+03  0.10673832636E+03  0.10566000000E+00 0.  1.
    9000005    1    3    3    0    0  0.11156595845E+02 -0.10589423023E+03 -0.42615715414E+03  0.43925957889E+03  0.10000000000E+01 0.  0.
    9000005    1    3    3    0    0  0.29897605144E+02  0.24353876039E+02 -0.63699179606E+02  0.74468540700E+02  0.10000000000E+01 0.  0.
<mgrwt>
<rscale>  0 0.14769612E+03</rscale>
<asrwt>0</asrwt>
<pdfrwt beam="2">  1        2 0.12910560E+00 0.15478163E+03</pdfrwt>
<pdfrwt beam="1">  1       -2 0.37135547E-02 0.15478163E+03</pdfrwt>
<totfact> 0.99281136E+03</totfact>
</mgrwt>
</event>
<event>
 8    3  0.7944584E-004  0.1508459E+03  0.7818608E-02  0.1211327E+00
          2   -1    0    0  501    0  0.00000000000E+00  0.00000000000E+00  0.12069575860E+04  0.12069575860E+04  0.25500000000E-02 0. -1.
         -2   -1    0    0    0  501 -0.00000000000E+00 -0.00000000000E+00 -0.17439671753E+02  0.17439671940E+02  0.25500000000E-02 0.  1.
         25    2    1    2    0    0  0.53796600629E+02  0.65079106912E+02  0.89403486731E+03  0.90667129774E+03  0.12500053512E+03 0.  0.
         23    2    1    2    0    0 -0.53796600629E+02 -0.65079106912E+02  0.29548304697E+03  0.31772596024E+03  0.80685750703E+02 0.  0.
        -13    1    4    4    0    0 -0.38493476382E+02  0.74904884006E+01  0.68471014963E+02  0.78905932569E+02  0.10566000000E+00 0.  1.
         13    1    4    4    0    0 -0.15303124247E+02 -0.72569595313E+02  0.22701203201E+03  0.23882002767E+03  0.10566000000E+00 0. -1.
    9000005    1    3    3    0    0 -0.22628667936E+02  0.28641836680E+01  0.33672487818E+02  0.40682878419E+02  0.10000000000E+01 0.  0.
    9000005    1    3    3    0    0  0.76425268565E+02  0.62214923244E+02  0.86036237949E+03  0.86598841932E+03  0.10000000000E+01 0.  0.
<mgrwt>
<rscale>  0 0.14149798E+03</rscale>
<asrwt>0</asrwt>
<pdfrwt beam="1">  1        2 0.18568583E+00 0.15084594E+03</pdfrwt>
<pdfrwt beam="2">  1       -2 0.26830258E-02 0.15084594E+03</pdfrwt>
<totfact> 0.96539951E+03</totfact>
</mgrwt>
</event>
<event>
 8    3  0.7944584E-004  0.1256077E+03  0.7818608E-02  0.1249084E+00
          2   -1    0    0  501    0  0.00000000000E+00  0.00000000000E+00  0.15554319370E+04  0.15554319370E+04  0.25500000000E-02 0. -1.
         -2   -1    0    0    0  501 -0.00000000000E+00 -0.00000000000E+00 -0.95642417827E+01  0.95642421226E+01  0.25500000000E-02 0.  1.
         25    2    1    2    0    0  0.26628516916E+01 -0.12110030794E+02  0.12116349747E+04  0.12181283189E+04  0.12499418303E+03 0.  0.
         23    2    1    2    0    0 -0.26628516916E+01  0.12110030794E+02  0.33423272054E+03  0.34686786024E+03  0.91935071438E+02 0.  0.
        -13    1    4    4    0    0 -0.32507733119E+02 -0.16532526818E+02  0.65489789776E+02  0.74959995227E+02  0.10566000000E+00 0.  1.
         13    1    4    4    0    0  0.29844881427E+02  0.28642557612E+02  0.26874293077E+03  0.27190786501E+03  0.10566000000E+00 0. -1.
    9000005    1    3    3    0    0  0.31300560241E+02  0.47908114295E+01  0.80579258672E+02  0.86583450345E+02  0.10000000000E+01 0.  0.
    9000005    1    3    3    0    0 -0.28637708549E+02 -0.16900842223E+02  0.11310557160E+04  0.11315448685E+04  0.10000000000E+01 0.  0.
<mgrwt>
<rscale>  0 0.11644238E+03</rscale>
<asrwt>0</asrwt>
<pdfrwt beam="1">  1        2 0.23929731E+00 0.12560768E+03</pdfrwt>
<pdfrwt beam="2">  1       -2 0.14714213E-02 0.12560768E+03</pdfrwt>
<totfact> 0.14936227E+04</totfact>
</mgrwt>
</event>
<event>
 8    3  0.7944584E-004  0.1453497E+03  0.7818608E-02  0.1216750E+00
          2   -1    0    0  501    0  0.00000000000E+00  0.00000000000E+00  0.10962506384E+04  0.10962506384E+04  0.25500000000E-02 0. -1.
         -2   -1    0    0    0  501 -0.00000000000E+00 -0.00000000000E+00 -0.17254214532E+02  0.17254214720E+02  0.25500000000E-02 0.  1.
         25    2    1    2    0    0 -0.16846517748E+02 -0.72246033793E+02  0.42320084401E+03  0.44746563529E+03  0.12499298314E+03 0.  0.
         23    2    1    2    0    0  0.16846517748E+02  0.72246033793E+02  0.65579557987E+03  0.66603921785E+03  0.89649888862E+02 0.  0.
        -13    1    4    4    0    0  0.24487702066E+02  0.65713399731E+02  0.23785266272E+03  0.24797539955E+03  0.10566000000E+00 0.  1.
         13    1    4    4    0    0 -0.76411843179E+01  0.65326340629E+01  0.41794291715E+03  0.41806381830E+03  0.10566000000E+00 0. -1.
    9000005    1    3    3    0    0  0.19189629542E+02 -0.51996057309E+02  0.59115621477E+02  0.81040042943E+02  0.10000000000E+01 0.  0.
    9000005    1    3    3    0    0 -0.36036147290E+02 -0.20249976485E+02  0.36408522254E+03  0.36642559235E+03  0.10000000000E+01 0.  0.
<mgrwt>
<rscale>  0 0.13748793E+03</rscale>
<asrwt>0</asrwt>
<pdfrwt beam="1">  1        2 0.16865403E+00 0.14534972E+03</pdfrwt>
<pdfrwt beam="2">  1       -2 0.26544932E-02 0.14534972E+03</pdfrwt>
<totfact> 0.11302842E+04</totfact>
</mgrwt>
</event>
<event>
 8    3  0.7944584E-004  0.1574218E+03  0.7818608E-02  0.1200730E+00
          2   -1    0    0  501    0  0.00000000000E+00  0.00000000000E+00  0.31251590478E+04  0.31251590478E+04  0.25500000000E-02 0. -1.
         -2   -1    0    0    0  501 -0.00000000000E+00 -0.00000000000E+00 -0.67903291866E+01  0.67903296654E+01  0.25500000000E-02 0.  1.
         25    2    1    2    0    0 -0.29106593817E+02  0.91141536697E+02  0.14244562805E+04  0.14331285119E+04  0.12501065186E+03 0.  0.
         23    2    1    2    0    0  0.29106593817E+02 -0.91141536697E+02  0.16939124382E+04  0.16988208656E+04  0.86596834460E+02 0.  0.
        -13    1    4    4    0    0  0.45182358742E+02 -0.26490617286E+02  0.10873985505E+04  0.10886591832E+04  0.10566000000E+00 0. -1.
         13    1    4    4    0    0 -0.16075764924E+02 -0.64650919412E+02  0.60651388764E+03  0.61016168240E+03  0.10566000000E+00 0.  1.
    9000005    1    3    3    0    0  0.13774047704E+02  0.47880636473E+02  0.11849016446E+04  0.11859490660E+04  0.10000000000E+01 0.  0.
    9000005    1    3    3    0    0 -0.42880641521E+02  0.43260900225E+02  0.23955463587E+03  0.24717944590E+03  0.10000000000E+01 0.  0.
<mgrwt>
<rscale>  0 0.14979084E+03</rscale>
<asrwt>0</asrwt>
<pdfrwt beam="1">  1        2 0.48079533E+00 0.15742184E+03</pdfrwt>
<pdfrwt beam="2">  1       -2 0.10446625E-02 0.15742184E+03</pdfrwt>
<totfact> 0.35477843E+03</totfact>
</mgrwt>
</event>
<event>
 8    3  0.7944584E-004  0.1419774E+03  0.7818608E-02  0.1221820E+00
         -2   -1    0    0    0  501 -0.00000000000E+00  0.00000000000E+00  0.15826530233E+04  0.15826530233E+04  0.25500000000E-02 0. -1.
          2   -1    0    0  501    0  0.00000000000E+00 -0.00000000000E+00 -0.12190865322E+02  0.12190865589E+02  0.25500000000E-02 0.  1.
         25    2    1    2    0    0  0.32985826660E+01 -0.67249737586E+02  0.54239737468E+03  0.56067147496E+03  0.12499673163E+03 0.  0.
         23    2    1    2    0    0 -0.32985826660E+01  0.67249737586E+02  0.10280647833E+04  0.10341724140E+04  0.89788502799E+02 0.  0.
        -13    1    4    4    0    0 -0.42757915703E+02  0.33972423966E+02  0.36026066236E+03  0.36437634522E+03  0.10566000000E+00 0.  1.
         13    1    4    4    0    0  0.39459333037E+02  0.33277313620E+02  0.66780412097E+03  0.66979606875E+03  0.10566000000E+00 0. -1.
    9000005    1    3    3    0    0  0.39994768731E+02 -0.88519414582E+02  0.32647149059E+03  0.34061694387E+03  0.10000000000E+01 0.  0.
    9000005    1    3    3    0    0 -0.36696186065E+02  0.21269676996E+02  0.21592588409E+03  0.22005453109E+03  0.10000000000E+01 0.  0.
<mgrwt>
<rscale>  0 0.13387236E+03</rscale>
<asrwt>0</asrwt>
<pdfrwt beam="2">  1        2 0.18755185E-02 0.14197743E+03</pdfrwt>
<pdfrwt beam="1">  1       -2 0.24348499E+00 0.14197743E+03</pdfrwt>
<totfact> 0.46148546E+02</totfact>
</mgrwt>
</event>
<event>
 8    3  0.7944584E-004  0.3053609E+03  0.7818608E-02  0.1083833E+00
          2   -1    0    0  501    0  0.00000000000E+00  0.00000000000E+00  0.65636315741E+03  0.65636315741E+03  0.25500000000E-02 0.  1.
         -2   -1    0    0    0  501 -0.00000000000E+00 -0.00000000000E+00 -0.16158609984E+03  0.16158609986E+03  0.25500000000E-02 0. -1.
         25    2    1    2    0    0 -0.23780306070E+03  0.14515599785E+03  0.40891117811E+03  0.51034655719E+03  0.12499878983E+03 0.  0.
         23    2    1    2    0    0  0.23780306070E+03 -0.14515599785E+03  0.85865879462E+02  0.30760270009E+03  0.98111734540E+02 0.  0.
        -13    1    4    4    0    0  0.14168608053E+03 -0.10286843178E+03  0.51662606837E+01  0.17516723748E+03  0.10566000000E+00 0. -1.
         13    1    4    4    0    0  0.96116980166E+02 -0.42287566078E+02  0.80699618778E+02  0.13243546261E+03  0.10566000000E+00 0.  1.
    9000005    1    3    3    0    0 -0.31310787374E+02 -0.12740326779E+02  0.11990214838E+02  0.35881005898E+02  0.10000000000E+01 0.  0.
    9000005    1    3    3    0    0 -0.20649227333E+03  0.15789632463E+03  0.39692096327E+03  0.47446555129E+03  0.10000000000E+01 0.  0.
<mgrwt>
<rscale>  0 0.30283322E+03</rscale>
<asrwt>0</asrwt>
<pdfrwt beam="1">  1        2 0.10097895E+00 0.30536086E+03</pdfrwt>
<pdfrwt beam="2">  1       -2 0.24859400E-01 0.30536086E+03</pdfrwt>
<totfact> 0.65316662E+02</totfact>
</mgrwt>
</event>
<event>
 8    3  0.7944584E-004  0.2225974E+03  0.7818608E-02  0.1136138E+00
         -2   -1    0    0    0  501 -0.00000000000E+00  0.00000000000E+00  0.11827674340E+03  0.11827674343E+03  0.25500000000E-02 0.  1.
          2   -1    0    0  501    0  0.00000000000E+00 -0.00000000000E+00 -0.50977119635E+03  0.50977119636E+03  0.25500000000E-02 0. -1.
         25    2    1    2    0    0  0.15598640052E+03  0.97945683746E+02 -0.36183706013E+03  0.42482425654E+03  0.12499790698E+03 0.  0.
         23    2    1    2    0    0 -0.15598640052E+03 -0.97945683746E+02 -0.29657392823E+02  0.20322368325E+03  0.80592743932E+02 0.  0.
        -13    1    4    4    0    0 -0.10526860852E+03 -0.99335272651E+02 -0.56702408560E+00  0.14473876127E+03  0.10566000000E+00 0.  1.
         13    1    4    4    0    0 -0.50717791995E+02  0.13895889048E+01 -0.29090368738E+02  0.58484921985E+02  0.10566000000E+00 0. -1.
    9000005    1    3    3    0    0  0.77693228914E+02  0.73197404423E+02 -0.30963361513E+03  0.32751805057E+03  0.10000000000E+01 0.  0.
    9000005    1    3    3    0    0  0.78293171604E+02  0.24748279323E+02 -0.52203444997E+02  0.97306205962E+02  0.10000000000E+01 0.  0.
<mgrwt>
<rscale>  0 0.21700262E+03</rscale>
<asrwt>0</asrwt>
<pdfrwt beam="2">  1        2 0.78426336E-01 0.22259737E+03</pdfrwt>
<pdfrwt beam="1">  1       -2 0.18196422E-01 0.22259737E+03</pdfrwt>
<totfact> 0.15008014E+03</totfact>
</mgrwt>
</event>
<event>
 8    3  0.7944584E-004  0.1430770E+03  0.7818608E-02  0.1219625E+00
          2   -1    0    0  501    0  0.00000000000E+00  0.00000000000E+00  0.13430477180E+04  0.13430477180E+04  0.25500000000E-02 0. -1.
         -2   -1    0    0    0  501 -0.00000000000E+00 -0.00000000000E+00 -0.17512143436E+02  0.17512143621E+02  0.25500000000E-02 0.  1.
         25    2    1    2    0    0  0.45503395622E+02 -0.52642389927E+02  0.10807497739E+04  0.10901793849E+04  0.12501694771E+03 0.  0.
         23    2    1    2    0    0 -0.45503395622E+02  0.52642389927E+02  0.24478580067E+03  0.27038047674E+03  0.91344040659E+02 0.  0.
        -13    1    4    4    0    0 -0.13857114909E+02  0.60522020470E+02  0.74409110982E+02  0.96910585369E+02  0.10566000000E+00 0.  1.
         13    1    4    4    0    0 -0.31646280713E+02 -0.78796305433E+01  0.17037668968E+03  0.17346989137E+03  0.10566000000E+00 0. -1.
    9000005    1    3    3    0    0  0.88672834161E+02 -0.44050256489E+02  0.73724194887E+03  0.74386153805E+03  0.10000000000E+01 0.  0.
    9000005    1    3    3    0    0 -0.43169438539E+02 -0.85921334379E+01  0.34350782503E+03  0.34631784684E+03  0.10000000000E+01 0.  0.
<mgrwt>
<rscale>  0 0.13542206E+03</rscale>
<asrwt>0</asrwt>
<pdfrwt beam="1">  1        2 0.20662266E+00 0.14307696E+03</pdfrwt>
<pdfrwt beam="2">  1       -2 0.26941768E-02 0.14307696E+03</pdfrwt>
<totfact> 0.80716922E+03</totfact>
</mgrwt>
</event>
<event>
 8    3  0.7944584E-004  0.2102884E+03  0.7818608E-02  0.1145078E+00
         -2   -1    0    0    0  501 -0.00000000000E+00  0.00000000000E+00  0.70673375968E+02  0.70673376014E+02  0.25500000000E-02 0.  1.
          2   -1    0    0  501    0  0.00000000000E+00 -0.00000000000E+00 -0.10424037247E+04  0.10424037247E+04  0.25500000000E-02 0. -1.
         25    2    1    2    0    0 -0.25466333835E+02  0.16717732563E+03 -0.87102456196E+03  0.89604967367E+03  0.12499775113E+03 0.  0.
         23    2    1    2    0    0  0.25466333835E+02 -0.16717732563E+03 -0.10070578680E+03  0.21702742707E+03  0.91446466534E+02 0.  0.
        -13    1    4    4    0    0  0.23599499901E+02 -0.26670787263E+02  0.11265559263E+02  0.37352259348E+02  0.10566000000E+00 0.  1.
         13    1    4    4    0    0  0.18668339337E+01 -0.14050653837E+03 -0.11197134606E+03  0.17967516772E+03  0.10566000000E+00 0. -1.
    9000005    1    3    3    0    0  0.17831307794E+02  0.16461604125E+03 -0.72780922270E+03  0.74640716852E+03  0.10000000000E+01 0.  0.
    9000005    1    3    3    0    0 -0.43297641629E+02  0.25612843784E+01 -0.14321533926E+03  0.14964250515E+03  0.10000000000E+01 0.  0.
<mgrwt>
<rscale>  0 0.20562549E+03</rscale>
<asrwt>0</asrwt>
<pdfrwt beam="2">  1        2 0.16036979E+00 0.21028845E+03</pdfrwt>
<pdfrwt beam="1">  1       -2 0.10872828E-01 0.21028845E+03</pdfrwt>
<totfact> 0.14359060E+03</totfact>
</mgrwt>
</event>
<event>
 8    3  0.7944584E-004  0.1273855E+03  0.7818608E-02  0.1244726E+00
         -2   -1    0    0    0  501 -0.00000000000E+00  0.00000000000E+00  0.11700439395E+02  0.11700439673E+02  0.25500000000E-02 0.  1.
          2   -1    0    0  501    0  0.00000000000E+00 -0.00000000000E+00 -0.11500255378E+04  0.11500255378E+04  0.25500000000E-02 0. -1.
         25    2    1    2    0    0 -0.16062890399E+02 -0.18603601665E+02 -0.78675913846E+03  0.79700501618E+03  0.12499177340E+03 0.  0.
         23    2    1    2    0    0  0.16062890399E+02  0.18603601665E+02 -0.35156595993E+03  0.36472096128E+03  0.93907640669E+02 0.  0.
        -13    1    4    4    0    0  0.13049991032E+02  0.49132923659E+02 -0.30329835727E+03  0.30752926875E+03  0.10566000000E+00 0. -1.
         13    1    4    4    0    0  0.30128993669E+01 -0.30529321995E+02 -0.48267602662E+02  0.57191692534E+02  0.10566000000E+00 0.  1.
    9000005    1    3    3    0    0 -0.64831728119E+02  0.99234642081E+01 -0.53355547816E+03  0.53757239177E+03  0.10000000000E+01 0.  0.
    9000005    1    3    3    0    0  0.48768837720E+02 -0.28527065873E+02 -0.25320366030E+03  0.25943262441E+03  0.10000000000E+01 0.  0.
<mgrwt>
<rscale>  0 0.11901786E+03</rscale>
<asrwt>0</asrwt>
<pdfrwt beam="2">  1        2 0.17692692E+00 0.12738545E+03</pdfrwt>
<pdfrwt beam="1">  1       -2 0.18000685E-02 0.12738545E+03</pdfrwt>
<totfact> 0.18395188E+04</totfact>
</mgrwt>
</event>
<event>
 8    3  0.7944584E-004  0.1371289E+03  0.7818608E-02  0.1229315E+00
          2   -1    0    0  501    0  0.00000000000E+00  0.00000000000E+00  0.53876508384E+03  0.53876508385E+03  0.25500000000E-02 0.  1.
         -2   -1    0    0    0  501 -0.00000000000E+00 -0.00000000000E+00 -0.33005546315E+02  0.33005546414E+02  0.25500000000E-02 0. -1.
         25    2    1    2    0    0  0.54560028640E+02 -0.14224996064E+02  0.16399043401E+03  0.21376901371E+03  0.12500072614E+03 0.  0.
         23    2    1    2    0    0 -0.54560028640E+02  0.14224996064E+02  0.34176910351E+03  0.35800161655E+03  0.90442744880E+02 0.  0.
        -13    1    4    4    0    0 -0.17650832036E+01  0.44598747789E+02  0.16965133155E+03  0.17542448313E+03  0.10566000000E+00 0.  1.
         13    1    4    4    0    0 -0.52794945437E+02 -0.30373751725E+02  0.17211777197E+03  0.18257713342E+03  0.10566000000E+00 0. -1.
    9000005    1    3    3    0    0 -0.30121580047E+01 -0.16701667415E+02 -0.16868356845E+02  0.23949117999E+02  0.10000000000E+01 0.  0.
    9000005    1    3    3    0    0  0.57572186645E+02  0.24766713504E+01  0.18085879086E+03  0.18981989571E+03  0.10000000000E+01 0.  0.
<mgrwt>
<rscale>  0 0.12875508E+03</rscale>
<asrwt>0</asrwt>
<pdfrwt beam="1">  1        2 0.82886928E-01 0.13712888E+03</pdfrwt>
<pdfrwt beam="2">  1       -2 0.50777769E-02 0.13712888E+03</pdfrwt>
<totfact> 0.10423023E+04</totfact>
</mgrwt>
</event>
<event>
 8    3  0.7944584E-004  0.1319199E+03  0.7818608E-02  0.1237503E+00
         -2   -1    0    0    0  501 -0.00000000000E+00  0.00000000000E+00  0.10523597313E+03  0.10523597316E+03  0.25500000000E-02 0. -1.
          2   -1    0    0  501    0  0.00000000000E+00 -0.00000000000E+00 -0.23585521350E+03  0.23585521351E+03  0.25500000000E-02 0.  1.
         25    2    1    2    0    0 -0.41740920198E+02  0.58595929437E+01 -0.18422375996E+03  0.22658609321E+03  0.12500489852E+03 0.  0.
         23    2    1    2    0    0  0.41740920198E+02 -0.58595929437E+01  0.53604519595E+02  0.11450509347E+03  0.91985502445E+02 0.  0.
        -13    1    4    4    0    0  0.21417254021E+02  0.10615435331E+01 -0.25048883158E+02  0.32973979983E+02  0.10566000000E+00 0.  1.
         13    1    4    4    0    0  0.20323666178E+02 -0.69211364768E+01  0.78653402753E+02  0.81531113482E+02  0.10566000000E+00 0. -1.
    9000005    1    3    3    0    0 -0.58764058825E+02  0.22774374600E+02 -0.28767572843E+02  0.69285351953E+02  0.10000000000E+01 0.  0.
    9000005    1    3    3    0    0  0.17023138626E+02 -0.16914781656E+02 -0.15545618711E+03  0.15730074126E+03  0.10000000000E+01 0.  0.
<mgrwt>
<rscale>  0 0.12345524E+03</rscale>
<asrwt>0</asrwt>
<pdfrwt beam="2">  1        2 0.36285417E-01 0.13191991E+03</pdfrwt>
<pdfrwt beam="1">  1       -2 0.16190150E-01 0.13191991E+03</pdfrwt>
<totfact> 0.41089551E+03</totfact>
</mgrwt>
</event>
<event>
 8    3  0.7944584E-004  0.1425529E+03  0.7818608E-02  0.1221346E+00
         -2   -1    0    0    0  501 -0.00000000000E+00  0.00000000000E+00  0.21327679419E+03  0.21327679421E+03  0.25500000000E-02 0.  1.
          2   -1    0    0  501    0  0.00000000000E+00 -0.00000000000E+00 -0.11924506204E+03  0.11924506207E+03  0.25500000000E-02 0. -1.
         25    2    1    2    0    0 -0.67236575222E+02  0.13296857425E+02  0.15033969136E+03  0.20717951903E+03  0.12499506728E+03 0.  0.
         23    2    1    2    0    0  0.67236575222E+02 -0.13296857425E+02 -0.56307959208E+02  0.12534233724E+03  0.88558182962E+02 0.  0.
        -13    1    4    4    0    0  0.13597428193E+02 -0.41194055691E+02 -0.98604633869E+00  0.43391516788E+02  0.10566000000E+00 0. -1.
         13    1    4    4    0    0  0.53639147029E+02  0.27897198267E+02 -0.55321912870E+02  0.81950820452E+02  0.10566000000E+00 0.  1.
    9000005    1    3    3    0    0 -0.56854348263E+02 -0.77039495560E+01  0.24420185038E+01  0.57434582000E+02  0.10000000000E+01 0.  0.
    9000005    1    3    3    0    0 -0.10382226960E+02  0.21000806981E+02  0.14789767286E+03  0.14974493703E+03  0.10000000000E+01 0.  0.
<mgrwt>
<rscale>  0 0.13420532E+03</rscale>
<asrwt>0</asrwt>
<pdfrwt beam="2">  1        2 0.18345394E-01 0.14255290E+03</pdfrwt>
<pdfrwt beam="1">  1       -2 0.32811814E-01 0.14255290E+03</pdfrwt>
<totfact> 0.25769555E+03</totfact>
</mgrwt>
</event>
<event>
 8    3  0.7944584E-004  0.2169860E+03  0.7818608E-02  0.1139473E+00
         -2   -1    0    0    0  501 -0.00000000000E+00  0.00000000000E+00  0.15914883170E+03  0.15914883172E+03  0.25500000000E-02 0.  1.
          2   -1    0    0  501    0  0.00000000000E+00 -0.00000000000E+00 -0.27343237255E+03  0.27343237257E+03  0.25500000000E-02 0. -1.
         25    2    1    2    0    0 -0.13608956774E+03  0.11374288547E+03 -0.61403549827E+02  0.22550676228E+03  0.12500035783E+03 0.  0.
         23    2    1    2    0    0  0.13608956774E+03 -0.11374288547E+03 -0.52879991030E+02  0.20707444200E+03  0.92874736270E+02 0.  0.
        -13    1    4    4    0    0  0.63668443469E+02 -0.10840351836E+03 -0.47010209371E+02  0.13421983623E+03  0.10566000000E+00 0. -1.
         13    1    4    4    0    0  0.72421124276E+02 -0.53393671020E+01 -0.58697816596E+01  0.72854605779E+02  0.10566000000E+00 0.  1.
    9000005    1    3    3    0    0 -0.13371677689E+03  0.91696049466E+02 -0.20655262629E+01  0.16215303978E+03  0.10000000000E+01 0.  0.
    9000005    1    3    3    0    0 -0.23727908500E+01  0.22046836000E+02 -0.59338023564E+02  0.63353722499E+02  0.10000000000E+01 0.  0.
<mgrwt>
<rscale>  0 0.21266424E+03</rscale>
<asrwt>0</asrwt>
<pdfrwt beam="2">  1        2 0.42066519E-01 0.21698595E+03</pdfrwt>
<pdfrwt beam="1">  1       -2 0.24484436E-01 0.21698595E+03</pdfrwt>
<totfact> 0.17710161E+03</totfact>
</mgrwt>
</event>
<event>
 8    3  0.7944584E-004  0.1431930E+03  0.7818608E-02  0.1219492E+00
          2   -1    0    0  501    0  0.00000000000E+00  0.00000000000E+00  0.11262642643E+03  0.11262642646E+03  0.25500000000E-02 0. -1.
         -2   -1    0    0    0  501 -0.00000000000E+00 -0.00000000000E+00 -0.14868701969E+03  0.14868701971E+03  0.25500000000E-02 0.  1.
         25    2    1    2    0    0  0.30263036947E+02 -0.62952625676E+02 -0.29871752512E+02  0.14627559818E+03  0.12500137815E+03 0.  0.
         23    2    1    2    0    0 -0.30263036947E+02  0.62952625676E+02 -0.61888407424E+01  0.11503784799E+03  0.91194957288E+02 0.  0.
        -13    1    4    4    0    0 -0.16949996399E+02  0.85245303170E+02  0.43313194507E+01  0.87022040787E+02  0.10566000000E+00 0. -1.
         13    1    4    4    0    0 -0.13313040549E+02 -0.22292677494E+02 -0.10520160193E+02  0.28015807199E+02  0.10566000000E+00 0.  1.
    9000005    1    3    3    0    0 -0.42505408437E+02 -0.50711557219E+02 -0.29556492960E+02  0.72477293396E+02  0.10000000000E+01 0.  0.
    9000005    1    3    3    0    0  0.72768445384E+02 -0.12241068457E+02 -0.31525955255E+00  0.73798304785E+02  0.10000000000E+01 0.  0.
<mgrwt>
<rscale>  0 0.13551711E+03</rscale>
<asrwt>0</asrwt>
<pdfrwt beam="1">  1        2 0.17327143E-01 0.14319298E+03</pdfrwt>
<pdfrwt beam="2">  1       -2 0.22874926E-01 0.14319298E+03</pdfrwt>
<totfact> 0.52205091E+03</totfact>
</mgrwt>
</event>
<event>
 8    3  0.7944584E-004  0.1688978E+03  0.7818608E-02  0.1185266E+00
          2   -1    0    0  501    0  0.00000000000E+00  0.00000000000E+00  0.45319074623E+02  0.45319074694E+02  0.25500000000E-02 0. -1.
         -2   -1    0    0    0  501 -0.00000000000E+00 -0.00000000000E+00 -0.54988290794E+03  0.54988290794E+03  0.25500000000E-02 0.  1.
         25    2    1    2    0    0 -0.85318246933E+02  0.74989117942E+02 -0.26562633898E+03  0.31477581931E+03  0.12499557350E+03 0.  0.
         23    2    1    2    0    0  0.85318246933E+02 -0.74989117942E+02 -0.23893749433E+03  0.28042616332E+03  0.92979222457E+02 0.  0.
        -13    1    4    4    0    0  0.58309050301E+02 -0.93532532045E+02 -0.15391314664E+03  0.18930807635E+03  0.10566000000E+00 0. -1.
         13    1    4    4    0    0  0.27009196632E+02  0.18543414104E+02 -0.85024347698E+02  0.91118086980E+02  0.10566000000E+00 0.  1.
    9000005    1    3    3    0    0 -0.99286728917E+02  0.91147995629E+02 -0.25968946737E+03  0.29258405819E+03  0.10000000000E+01 0.  0.
    9000005    1    3    3    0    0  0.13968481985E+02 -0.16158877687E+02 -0.59368716105E+01  0.22191761120E+02  0.10000000000E+01 0.  0.
<mgrwt>
<rscale>  0 0.16307715E+03</rscale>
<asrwt>0</asrwt>
<pdfrwt beam="1">  1        2 0.69721657E-02 0.16889779E+03</pdfrwt>
<pdfrwt beam="2">  1       -2 0.84597366E-01 0.16889779E+03</pdfrwt>
<totfact> 0.12511507E+03</totfact>
</mgrwt>
</event>
<event>
 8    3  0.7944584E-004  0.1359409E+03  0.7818608E-02  0.1231495E+00
         -2   -1    0    0    0  501 -0.00000000000E+00  0.00000000000E+00  0.43577220436E+02  0.43577220510E+02  0.25500000000E-02 0.  1.
          2   -1    0    0  501    0  0.00000000000E+00 -0.00000000000E+00 -0.37634377084E+03  0.37634377085E+03  0.25500000000E-02 0. -1.
         25    2    1    2    0    0  0.47641685337E+02 -0.24164723180E+02 -0.25712633955E+03  0.29085028823E+03  0.12500508648E+03 0.  0.
         23    2    1    2    0    0 -0.47641685337E+02  0.24164723180E+02 -0.75640210857E+02  0.12907070313E+03  0.89911850609E+02 0.  0.
        -13    1    4    4    0    0 -0.28305689261E+02  0.22029104078E+01  0.16195546264E+02  0.32685956336E+02  0.10566000000E+00 0.  1.
         13    1    4    4    0    0 -0.19335996076E+02  0.21961812772E+02 -0.91835757121E+02  0.96384746794E+02  0.10566000000E+00 0. -1.
    9000005    1    3    3    0    0  0.35954814960E+02 -0.66330228100E+02 -0.22279384923E+03  0.23522446117E+03  0.10000000000E+01 0.  0.
    9000005    1    3    3    0    0  0.11686870377E+02  0.42165504920E+02 -0.34332490318E+02  0.55625827057E+02  0.10000000000E+01 0.  0.
<mgrwt>
<rscale>  0 0.12731481E+03</rscale>
<asrwt>0</asrwt>
<pdfrwt beam="2">  1        2 0.57899039E-01 0.13594093E+03</pdfrwt>
<pdfrwt beam="1">  1       -2 0.67041880E-02 0.13594093E+03</pdfrwt>
<totfact> 0.10091207E+04</totfact>
</mgrwt>
</event>
<event>
 8    3  0.7944584E-004  0.2538239E+03  0.7818608E-02  0.1113347E+00
         -2   -1    0    0    0  501 -0.00000000000E+00  0.00000000000E+00  0.85229009033E+02  0.85229009071E+02  0.25500000000E-02 0.  1.
          2   -1    0    0  501    0  0.00000000000E+00 -0.00000000000E+00 -0.15931954901E+04  0.15931954901E+04  0.25500000000E-02 0. -1.
         25    2    1    2    0    0  0.18363728744E+02  0.22015313565E+03 -0.13886171775E+04  0.14116246758E+04  0.12498771990E+03 0.  0.
         23    2    1    2    0    0 -0.18363728744E+02 -0.22015313565E+03 -0.11934930356E+03  0.26679982332E+03  0.90184587339E+02 0.  0.
        -13    1    4    4    0    0 -0.52848579635E+02 -0.14233322353E+03 -0.91368532843E+02  0.17720027891E+03  0.10566000000E+00 0. -1.
         13    1    4    4    0    0  0.34484850892E+02 -0.77819912125E+02 -0.27980770712E+02  0.89599544407E+02  0.10566000000E+00 0.  1.
    9000005    1    3    3    0    0 -0.11979784545E+02  0.45353423751E+02 -0.66202579124E+03  0.66368636911E+03  0.10000000000E+01 0.  0.
    9000005    1    3    3    0    0  0.30343513289E+02  0.17479971190E+03 -0.72659138623E+03  0.74793830670E+03  0.10000000000E+01 0.  0.
<mgrwt>
<rscale>  0 0.24993353E+03</rscale>
<asrwt>0</asrwt>
<pdfrwt beam="2">  1        2 0.24510698E+00 0.25382388E+03</pdfrwt>
<pdfrwt beam="1">  1       -2 0.13112156E-01 0.25382388E+03</pdfrwt>
<totfact> 0.52355814E+02</totfact>
</mgrwt>
</event>
<event>
 8    3  0.7944584E-004  0.1383608E+03  0.7818608E-02  0.1227221E+00
          2   -1    0    0  501    0  0.00000000000E+00  0.00000000000E+00  0.41518031747E+03  0.41518031748E+03  0.25500000000E-02 0. -1.
         -2   -1    0    0    0  501 -0.00000000000E+00 -0.00000000000E+00 -0.36675990537E+02  0.36675990625E+02  0.25500000000E-02 0.  1.
         25    2    1    2    0    0  0.59149928839E+02  0.44655621307E+01  0.20651041263E+03  0.24857644940E+03  0.12500018137E+03 0.  0.
         23    2    1    2    0    0 -0.59149928839E+02 -0.44655621307E+01  0.17199391430E+03  0.20327985870E+03  0.90676011558E+02 0.  0.
        -13    1    4    4    0    0 -0.29834608269E+02 -0.12978470327E+02  0.42862452841E+01  0.32816575161E+02  0.10566000000E+00 0.  1.
         13    1    4    4    0    0 -0.29315320570E+02  0.85129081963E+01  0.16770766901E+03  0.17046328354E+03  0.10566000000E+00 0. -1.
    9000005    1    3    3    0    0  0.13741461730E+02  0.62716347431E+02  0.10399964747E+03  0.12222558930E+03  0.10000000000E+01 0.  0.
    9000005    1    3    3    0    0  0.45408467109E+02 -0.58250785301E+02  0.10251076517E+03  0.12635086010E+03  0.10000000000E+01 0.  0.
<mgrwt>
<rscale>  0 0.13015831E+03</rscale>
<asrwt>0</asrwt>
<pdfrwt beam="1">  1        2 0.63873894E-01 0.13836076E+03</pdfrwt>
<pdfrwt beam="2">  1       -2 0.56424601E-02 0.13836076E+03</pdfrwt>
<totfact> 0.11821289E+04</totfact>
</mgrwt>
</event>
<event>
 8    3  0.7944584E-004  0.1447347E+03  0.7818608E-02  0.1218497E+00
         -2   -1    0    0    0  501 -0.00000000000E+00  0.00000000000E+00  0.13285544190E+03  0.13285544192E+03  0.25500000000E-02 0.  1.
          2   -1    0    0  501    0  0.00000000000E+00 -0.00000000000E+00 -0.26865056064E+03  0.26865056065E+03  0.25500000000E-02 0. -1.
         25    2    1    2    0    0 -0.18354790127E+02 -0.70614391501E+02  0.74283324100E+02  0.16268418464E+03  0.12499936434E+03 0.  0.
         23    2    1    2    0    0  0.18354790127E+02  0.70614391501E+02 -0.21007844285E+03  0.23882181793E+03  0.87061001397E+02 0.  0.
        -13    1    4    4    0    0 -0.21219368465E+02  0.52837453857E+02 -0.17171445407E+03  0.18090860408E+03  0.10566000000E+00 0. -1.
         13    1    4    4    0    0  0.39574158592E+02  0.17776937643E+02 -0.38363988775E+02  0.57913213855E+02  0.10566000000E+00 0.  1.
    9000005    1    3    3    0    0 -0.64011880680E+02 -0.30677150920E+02  0.58496441091E+01  0.71230799469E+02  0.10000000000E+01 0.  0.
    9000005    1    3    3    0    0  0.45657090553E+02 -0.39937240581E+02  0.68433679991E+02  0.91453385176E+02  0.10000000000E+01 0.  0.
<mgrwt>
<rscale>  0 0.13622770E+03</rscale>
<asrwt>0</asrwt>
<pdfrwt beam="2">  1        2 0.41330856E-01 0.14473469E+03</pdfrwt>
<pdfrwt beam="1">  1       -2 0.20439299E-01 0.14473469E+03</pdfrwt>
<totfact> 0.24328409E+03</totfact>
</mgrwt>
</event>
<event>
 8    3  0.7944584E-004  0.1486634E+03  0.7818608E-02  0.1212226E+00
         -2   -1    0    0    0  501 -0.00000000000E+00  0.00000000000E+00  0.17157523713E+02  0.17157523902E+02  0.25500000000E-02 0.  1.
          2   -1    0    0  501    0  0.00000000000E+00 -0.00000000000E+00 -0.10662191122E+04  0.10662191122E+04  0.25500000000E-02 0. -1.
         25    2    1    2    0    0  0.11271650243E+02  0.79672020772E+02 -0.51251233917E+03  0.53363818934E+03  0.12500455321E+03 0.  0.
         23    2    1    2    0    0 -0.11271650243E+02 -0.79672020772E+02 -0.53654924935E+03  0.54973844680E+03  0.88614795159E+02 0.  0.
        -13    1    4    4    0    0  0.38950395830E+01 -0.17478986481E+02 -0.38248209168E+03  0.38290109417E+03  0.10566000000E+00 0. -1.
         13    1    4    4    0    0 -0.15166689826E+02 -0.62193034291E+02 -0.15406715767E+03  0.16683735263E+03  0.10566000000E+00 0.  1.
    9000005    1    3    3    0    0  0.20615814884E+01  0.15821255527E+01 -0.37664118657E+03  0.37665147903E+03  0.10000000000E+01 0.  0.
    9000005    1    3    3    0    0  0.92100687544E+01  0.78089895219E+02 -0.13587115260E+03  0.15698671030E+03  0.10000000000E+01 0.  0.
<mgrwt>
<rscale>  0 0.14082298E+03</rscale>
<asrwt>0</asrwt>
<pdfrwt beam="2">  1        2 0.16403366E+00 0.14866344E+03</pdfrwt>
<pdfrwt beam="1">  1       -2 0.26396199E-02 0.14866344E+03</pdfrwt>
<totfact> 0.11876291E+04</totfact>
</mgrwt>
</event>
<event>
 8    3  0.7944584E-004  0.1449082E+03  0.7818608E-02  0.1217297E+00
         -2   -1    0    0    0  501 -0.00000000000E+00  0.00000000000E+00  0.37891615471E+03  0.37891615471E+03  0.25500000000E-02 0.  1.
          2   -1    0    0  501    0  0.00000000000E+00 -0.00000000000E+00 -0.56934080992E+02  0.56934081050E+02  0.25500000000E-02 0. -1.
         25    2    1    2    0    0 -0.36893410802E+02  0.63341499655E+02  0.75489501603E+02  0.16339228300E+03  0.12500041581E+03 0.  0.
         23    2    1    2    0    0  0.36893410802E+02 -0.63341499655E+02  0.24649257211E+03  0.27245795277E+03  0.90008213963E+02 0.  0.
        -13    1    4    4    0    0 -0.11824559982E+02 -0.45312942071E+02  0.19011102275E+03  0.19579401184E+03  0.10566000000E+00 0.  1.
         13    1    4    4    0    0  0.48717970784E+02 -0.18028557584E+02  0.56381549362E+02  0.76663940926E+02  0.10566000000E+00 0. -1.
    9000005    1    3    3    0    0  0.42239252911E+02 -0.17737515709E+01  0.25296926240E+02  0.49277126116E+02  0.10000000000E+01 0.  0.
    9000005    1    3    3    0    0 -0.79132663713E+02  0.65115251226E+02  0.50192575363E+02  0.11411515688E+03  0.10000000000E+01 0.  0.
<mgrwt>
<rscale>  0 0.13709124E+03</rscale>
<asrwt>0</asrwt>
<pdfrwt beam="2">  1        2 0.87590899E-02 0.14490815E+03</pdfrwt>
<pdfrwt beam="1">  1       -2 0.58294790E-01 0.14490815E+03</pdfrwt>
<totfact> 0.20591396E+03</totfact>
</mgrwt>
</event>
<event>
 8    3  0.7944584E-004  0.2151002E+03  0.7818608E-02  0.1140994E+00
         -2   -1    0    0    0  501 -0.00000000000E+00  0.00000000000E+00  0.35746802527E+02  0.35746802618E+02  0.25500000000E-02 0.  1.
          2   -1    0    0  501    0  0.00000000000E+00 -0.00000000000E+00 -0.13615816665E+04  0.13615816665E+04  0.25500000000E-02 0. -1.
         25    2    1    2    0    0 -0.11734057037E+03 -0.12990114176E+03 -0.44201723770E+03  0.49157638357E+03  0.12499994551E+03 0.  0.
         23    2    1    2    0    0  0.11734057037E+03  0.12990114176E+03 -0.88381762630E+03  0.90575208558E+03  0.92790774773E+02 0.  0.
        -13    1    4    4    0    0 -0.90390676216E+01 -0.40158642720E+01 -0.10491948808E+03  0.10538473349E+03  0.10566000000E+00 0.  1.
         13    1    4    4    0    0  0.12637963799E+03  0.13391700603E+03 -0.77889813823E+03  0.80036735209E+03  0.10566000000E+00 0. -1.
    9000005    1    3    3    0    0 -0.45652476403E+02 -0.13423349827E+03 -0.26511727950E+03  0.30065088150E+03  0.10000000000E+01 0.  0.
    9000005    1    3    3    0    0 -0.71688093965E+02  0.43323565092E+01 -0.17689995820E+03  0.19092550207E+03  0.10000000000E+01 0.  0.
<mgrwt>
<rscale>  0 0.21072452E+03</rscale>
<asrwt>0</asrwt>
<pdfrwt beam="2">  1        2 0.20947406E+00 0.21510021E+03</pdfrwt>
<pdfrwt beam="1">  1       -2 0.54995091E-02 0.21510021E+03</pdfrwt>
<totfact> 0.27413787E+03</totfact>
</mgrwt>
</event>
<event>
 8    3  0.7944584E-004  0.1360490E+03  0.7818608E-02  0.1231065E+00
         -2   -1    0    0    0  501 -0.00000000000E+00  0.00000000000E+00  0.40320409060E+02  0.40320409140E+02  0.25500000000E-02 0.  1.
          2   -1    0    0  501    0  0.00000000000E+00 -0.00000000000E+00 -0.43567118319E+03  0.43567118320E+03  0.25500000000E-02 0. -1.
         25    2    1    2    0    0  0.38602727849E+01 -0.53567085778E+02 -0.31639979431E+03  0.34440987439E+03  0.12499998940E+03 0.  0.
         23    2    1    2    0    0 -0.38602727849E+01  0.53567085778E+02 -0.78950979820E+02  0.13158171795E+03  0.90532628927E+02 0.  0.
        -13    1    4    4    0    0  0.40077922903E+02  0.27345804627E+02 -0.17409413206E+02  0.51547374008E+02  0.10566000000E+00 0.  1.
         13    1    4    4    0    0 -0.43938195687E+02  0.26221281150E+02 -0.61541566614E+02  0.80034343945E+02  0.10566000000E+00 0. -1.
    9000005    1    3    3    0    0 -0.48672889563E+02  0.13805443770E+02 -0.11595568066E+03  0.12651624533E+03  0.10000000000E+01 0.  0.
    9000005    1    3    3    0    0  0.52533162348E+02 -0.67372529548E+02 -0.20044411365E+03  0.21789362905E+03  0.10000000000E+01 0.  0.
<mgrwt>
<rscale>  0 0.12759728E+03</rscale>
<asrwt>0</asrwt>
<pdfrwt beam="2">  1        2 0.67026333E-01 0.13604900E+03</pdfrwt>
<pdfrwt beam="1">  1       -2 0.62031402E-02 0.13604900E+03</pdfrwt>
<totfact> 0.97118045E+03</totfact>
</mgrwt>
</event>
<event>
 8    3  0.7944584E-004  0.1317058E+03  0.7818608E-02  0.1238229E+00
          2   -1    0    0  501    0  0.00000000000E+00  0.00000000000E+00  0.21861943237E+04  0.21861943237E+04  0.25500000000E-02 0.  1.
         -2   -1    0    0    0  501 -0.00000000000E+00 -0.00000000000E+00 -0.88701224220E+01  0.88701227886E+01  0.25500000000E-02 0. -1.
         25    2    1    2    0    0 -0.10835992659E+02  0.40048680560E+02  0.17952096071E+04  0.18000344277E+04  0.12500036682E+03 0.  0.
         23    2    1    2    0    0  0.10835992659E+02 -0.40048680560E+02  0.38211459409E+03  0.39503001877E+03  0.91191212061E+02 0.  0.
        -13    1    4    4    0    0 -0.42965856782E+01 -0.68092317369E+02  0.25246756859E+03  0.26152420287E+03  0.10566000000E+00 0.  1.
         13    1    4    4    0    0  0.15132578337E+02  0.28043636809E+02  0.12964702550E+03  0.13350581589E+03  0.10566000000E+00 0. -1.
    9000005    1    3    3    0    0 -0.49134855160E+02 -0.25647505401E+02  0.80864662255E+03  0.81054450136E+03  0.10000000000E+01 0.  0.
    9000005    1    3    3    0    0  0.38298862502E+02  0.65696185961E+02  0.98656298460E+03  0.98948992633E+03  0.10000000000E+01 0.  0.
<mgrwt>
<rscale>  0 0.12299994E+03</rscale>
<asrwt>0</asrwt>
<pdfrwt beam="1">  1        2 0.33633767E+00 0.13170576E+03</pdfrwt>
<pdfrwt beam="2">  1       -2 0.13646339E-02 0.13170576E+03</pdfrwt>
<totfact> 0.79317713E+03</totfact>
</mgrwt>
</event>
<event>
 8    3  0.7944584E-004  0.1693729E+03  0.7818608E-02  0.1185078E+00
          2   -1    0    0  501    0  0.00000000000E+00  0.00000000000E+00  0.10326254687E+04  0.10326254687E+04  0.25500000000E-02 0. -1.
         -2   -1    0    0    0  501 -0.00000000000E+00 -0.00000000000E+00 -0.24106137699E+02  0.24106137834E+02  0.25500000000E-02 0.  1.
         25    2    1    2    0    0  0.95039014210E+02  0.63477841522E+02  0.54448330819E+03  0.57021860492E+03  0.12500133565E+03 0.  0.
         23    2    1    2    0    0 -0.95039014210E+02 -0.63477841522E+02  0.46403602276E+03  0.48651300157E+03  0.91124199239E+02 0.  0.
        -13    1    4    4    0    0 -0.17714892835E+02 -0.46957183872E+02  0.80134559074E+02  0.94553441330E+02  0.10566000000E+00 0.  1.
         13    1    4    4    0    0 -0.77324121375E+02 -0.16520657651E+02  0.38390146369E+03  0.39195956024E+03  0.10566000000E+00 0. -1.
    9000005    1    3    3    0    0  0.67877141478E+02  0.10156618684E+03  0.37518416702E+03  0.39457211740E+03  0.10000000000E+01 0.  0.
    9000005    1    3    3    0    0  0.27161872732E+02 -0.38088345313E+02  0.16929914117E+03  0.17564648753E+03  0.10000000000E+01 0.  0.
<mgrwt>
<rscale>  0 0.16324768E+03</rscale>
<asrwt>0</asrwt>
<pdfrwt beam="1">  1        2 0.15886546E+00 0.16937292E+03</pdfrwt>
<pdfrwt beam="2">  1       -2 0.37086365E-02 0.16937292E+03</pdfrwt>
<totfact> 0.75679393E+03</totfact>
</mgrwt>
</event>
<event>
 8    3  0.7944584E-004  0.3144701E+03  0.7818608E-02  0.1079938E+00
          2   -1    0    0  501    0  0.00000000000E+00  0.00000000000E+00  0.18363826844E+04  0.18363826844E+04  0.25500000000E-02 0.  1.
         -2   -1    0    0    0  501 -0.00000000000E+00 -0.00000000000E+00 -0.54598464213E+02  0.54598464273E+02  0.25500000000E-02 0. -1.
         25    2    1    2    0    0 -0.13676744380E+03 -0.25408620268E+03  0.11375778564E+04  0.11802435401E+04  0.12500520977E+03 0.  0.
         23    2    1    2    0    0  0.13676744380E+03  0.25408620268E+03  0.64420636377E+03  0.71073760857E+03  0.82951654849E+02 0.  0.
        -13    1    4    4    0    0  0.70422916534E+02  0.56219062856E+02  0.22742112478E+03  0.24462287171E+03  0.10566000000E+00 0.  1.
         13    1    4    4    0    0  0.66344527263E+02  0.19786713982E+03  0.41678523899E+03  0.46611473686E+03  0.10566000000E+00 0. -1.
    9000005    1    3    3    0    0 -0.61380925462E+02 -0.10336223796E+03  0.25757416073E+03  0.28424781182E+03  0.10000000000E+01 0.  0.
    9000005    1    3    3    0    0 -0.75386518335E+02 -0.15072396472E+03  0.88000369566E+03  0.89599572826E+03  0.10000000000E+01 0.  0.
<mgrwt>
<rscale>  0 0.31085144E+03</rscale>
<asrwt>0</asrwt>
<pdfrwt beam="1">  1        2 0.28252047E+00 0.31447009E+03</pdfrwt>
<pdfrwt beam="2">  1       -2 0.83997620E-02 0.31447009E+03</pdfrwt>
<totfact> 0.78979863E+02</totfact>
</mgrwt>
</event>
<event>
 8    3  0.7944584E-004  0.1347821E+03  0.7818608E-02  0.1234491E+00
          2   -1    0    0  501    0  0.00000000000E+00  0.00000000000E+00  0.84542502923E+03  0.84542502924E+03  0.25500000000E-02 0. -1.
         -2   -1    0    0    0  501 -0.00000000000E+00 -0.00000000000E+00 -0.21237572937E+02  0.21237573090E+02  0.25500000000E-02 0.  1.
         25    2    1    2    0    0  0.57917452353E+01 -0.50081172515E+02  0.25329959597E+03  0.28692664036E+03  0.12499817390E+03 0.  0.
         23    2    1    2    0    0 -0.57917452353E+01  0.50081172515E+02  0.57088786033E+03  0.57973596197E+03  0.87402336211E+02 0.  0.
        -13    1    4    4    0    0 -0.13081901499E+02 -0.41206149965E+00  0.98443240256E+01  0.16377662259E+02  0.10566000000E+00 0.  1.
         13    1    4    4    0    0  0.72901562639E+01  0.50493234015E+02  0.56104353630E+03  0.56335829971E+03  0.10566000000E+00 0. -1.
    9000005    1    3    3    0    0  0.21928581929E+02  0.38110817488E+02  0.10160343316E+03  0.11071384171E+03  0.10000000000E+01 0.  0.
    9000005    1    3    3    0    0 -0.16136836694E+02 -0.88191990003E+02  0.15169616281E+03  0.17621279865E+03  0.10000000000E+01 0.  0.
<mgrwt>
<rscale>  0 0.12537099E+03</rscale>
<asrwt>0</asrwt>
<pdfrwt beam="1">  1        2 0.13006537E+00 0.13478209E+03</pdfrwt>
<pdfrwt beam="2">  1       -2 0.32673194E-02 0.13478209E+03</pdfrwt>
<totfact> 0.11788890E+04</totfact>
</mgrwt>
</event>
<event>
 8    3  0.7944584E-004  0.1958731E+03  0.7818608E-02  0.1157755E+00
         -2   -1    0    0    0  501 -0.00000000000E+00  0.00000000000E+00  0.23284252483E+02  0.23284252623E+02  0.25500000000E-02 0.  1.
          2   -1    0    0  501    0  0.00000000000E+00 -0.00000000000E+00 -0.15164079674E+04  0.15164079674E+04  0.25500000000E-02 0. -1.
         25    2    1    2    0    0  0.14199524658E+03 -0.50821322702E+02 -0.67838393469E+03  0.70609561369E+03  0.12498318260E+03 0.  0.
         23    2    1    2    0    0 -0.14199524658E+03  0.50821322702E+02 -0.81473978025E+03  0.83359660636E+03  0.91306821854E+02 0.  0.
        -13    1    4    4    0    0 -0.20042295704E+02  0.50257652576E+02 -0.23070596809E+03  0.23696577840E+03  0.10566000000E+00 0.  1.
         13    1    4    4    0    0 -0.12195295088E+03  0.56367012611E+00 -0.58403381216E+03  0.59663082795E+03  0.10566000000E+00 0. -1.
    9000005    1    3    3    0    0  0.49053626874E+02  0.39524230697E+02 -0.28596657178E+03  0.29282469721E+03  0.10000000000E+01 0.  0.
    9000005    1    3    3    0    0  0.92941619708E+02 -0.90345553399E+02 -0.39241736291E+03  0.41327091648E+03  0.10000000000E+01 0.  0.
<mgrwt>
<rscale>  0 0.19078548E+03</rscale>
<asrwt>0</asrwt>
<pdfrwt beam="2">  1        2 0.23329346E+00 0.19587305E+03</pdfrwt>
<pdfrwt beam="1">  1       -2 0.35821939E-02 0.19587305E+03</pdfrwt>
<totfact> 0.43205213E+03</totfact>
</mgrwt>
</event>
<event>
 8    3  0.7944584E-004  0.1349320E+03  0.7818608E-02  0.1232562E+00
         -2   -1    0    0    0  501 -0.00000000000E+00  0.00000000000E+00  0.36004757986E+02  0.36004758076E+02  0.25500000000E-02 0.  1.
          2   -1    0    0  501    0  0.00000000000E+00 -0.00000000000E+00 -0.40408895794E+03  0.40408895794E+03  0.25500000000E-02 0. -1.
         25    2    1    2    0    0  0.27341237584E+02  0.42829346963E+02 -0.18126137311E+03  0.22596974456E+03  0.12499897536E+03 0.  0.
         23    2    1    2    0    0 -0.27341237584E+02 -0.42829346963E+02 -0.18682282684E+03  0.21412397146E+03  0.91457150031E+02 0.  0.
        -13    1    4    4    0    0 -0.19092614681E+02 -0.50967159937E+02 -0.41764817620E+02  0.68603866381E+02  0.10566000000E+00 0.  1.
         13    1    4    4    0    0 -0.82486229023E+01  0.81378129747E+01 -0.14505800922E+03  0.14552010508E+03  0.10566000000E+00 0. -1.
    9000005    1    3    3    0    0  0.47225874336E+02  0.71384389766E+02 -0.73830055433E+02  0.11303933561E+03  0.10000000000E+01 0.  0.
    9000005    1    3    3    0    0 -0.19884636753E+02 -0.28555042803E+02 -0.10743131768E+03  0.11293040895E+03  0.10000000000E+01 0.  0.
<mgrwt>
<rscale>  0 0.12661776E+03</rscale>
<asrwt>0</asrwt>
<pdfrwt beam="2">  1        2 0.62167529E-01 0.13493198E+03</pdfrwt>
<pdfrwt beam="1">  1       -2 0.55391938E-02 0.13493198E+03</pdfrwt>
<totfact> 0.12489968E+04</totfact>
</mgrwt>
</event>
<event>
 8    3  0.7944584E-004  0.1337380E+03  0.7818608E-02  0.1234781E+00
         -2   -1    0    0    0  501 -0.00000000000E+00  0.00000000000E+00  0.35737100316E+03  0.35737100317E+03  0.25500000000E-02 0.  1.
          2   -1    0    0  501    0  0.00000000000E+00 -0.00000000000E+00 -0.42994016540E+02  0.42994016615E+02  0.25500000000E-02 0. -1.
         25    2    1    2    0    0 -0.15281227771E+01 -0.47525541754E+02  0.11618089046E+03  0.17715485462E+03  0.12499932372E+03 0.  0.
         23    2    1    2    0    0  0.15281227771E+01  0.47525541754E+02  0.19819609616E+03  0.22321016516E+03  0.90994906556E+02 0.  0.
        -13    1    4    4    0    0  0.22139468795E+02 -0.10763350597E+02  0.12737238266E+02  0.27717398819E+02  0.10566000000E+00 0. -1.
         13    1    4    4    0    0 -0.20611346018E+02  0.58288892351E+02  0.18545885789E+03  0.19549276634E+03  0.10566000000E+00 0.  1.
    9000005    1    3    3    0    0  0.58843451885E+02 -0.42247214910E+01  0.44389919333E+02  0.73836745864E+02  0.10000000000E+01 0.  0.
    9000005    1    3    3    0    0 -0.60371574662E+02 -0.43300820263E+02  0.71790971127E+02  0.10331810876E+03  0.10000000000E+01 0.  0.
<mgrwt>
<rscale>  0 0.12518483E+03</rscale>
<asrwt>0</asrwt>
<pdfrwt beam="2">  1        2 0.66144643E-02 0.13373796E+03</pdfrwt>
<pdfrwt beam="1">  1       -2 0.54980153E-01 0.13373796E+03</pdfrwt>
<totfact> 0.32896625E+03</totfact>
</mgrwt>
</event>
<event>
 8    3  0.7944584E-004  0.1416333E+03  0.7818608E-02  0.1222102E+00
          2   -1    0    0  501    0  0.00000000000E+00  0.00000000000E+00  0.19890360149E+04  0.19890360149E+04  0.25500000000E-02 0. -1.
         -2   -1    0    0    0  501 -0.00000000000E+00 -0.00000000000E+00 -0.92697252262E+01  0.92697255769E+01  0.25500000000E-02 0.  1.
         25    2    1    2    0    0 -0.57261241800E+02  0.34001597252E+02  0.73826815971E+03  0.75173125469E+03  0.12500018079E+03 0.  0.
         23    2    1    2    0    0  0.57261241800E+02 -0.34001597252E+02  0.12414981299E+04  0.12465744858E+04  0.90528357450E+02 0.  0.
        -13    1    4    4    0    0 -0.19867234233E+02  0.10616163307E+02  0.19738698646E+03  0.19866817436E+03  0.10566000000E+00 0.  1.
         13    1    4    4    0    0  0.77128476033E+02 -0.44617760559E+02  0.10441111435E+04  0.10479063114E+04  0.10566000000E+00 0. -1.
    9000005    1    3    3    0    0 -0.48472156132E+02 -0.38964891397E+02  0.23361132631E+03  0.24175000406E+03  0.10000000000E+01 0.  0.
    9000005    1    3    3    0    0 -0.87890856674E+01  0.72966488649E+02  0.50465683340E+03  0.50998125063E+03  0.10000000000E+01 0.  0.
<mgrwt>
<rscale>  0 0.13367525E+03</rscale>
<asrwt>0</asrwt>
<pdfrwt beam="1">  1        2 0.30600587E+00 0.14163334E+03</pdfrwt>
<pdfrwt beam="2">  1       -2 0.14261101E-02 0.14163334E+03</pdfrwt>
<totfact> 0.94195484E+03</totfact>
</mgrwt>
</event>
<event>
 8    3  0.7944584E-004  0.1343567E+03  0.7818608E-02  0.1233794E+00
          2   -1    0    0  501    0  0.00000000000E+00  0.00000000000E+00  0.51150519270E+03  0.51150519270E+03  0.25500000000E-02 0. -1.
         -2   -1    0    0    0  501 -0.00000000000E+00 -0.00000000000E+00 -0.27887359765E+02  0.27887359881E+02  0.25500000000E-02 0.  1.
         25    2    1    2    0    0 -0.46099186150E+02 -0.17369171356E+02  0.29966412098E+03  0.32840571938E+03  0.12499963217E+03 0.  0.
         23    2    1    2    0    0  0.46099186150E+02  0.17369171356E+02  0.18395371195E+03  0.21098683320E+03  0.90827598047E+02 0.  0.
        -13    1    4    4    0    0  0.79197358203E+01  0.37567554233E+02  0.23939574180E+02  0.45245527099E+02  0.10566000000E+00 0.  1.
         13    1    4    4    0    0  0.38179450329E+02 -0.20198382877E+02  0.16001413777E+03  0.16574130610E+03  0.10566000000E+00 0. -1.
    9000005    1    3    3    0    0  0.32912581125E+02 -0.13555709363E+01  0.18690304495E+03  0.18978625815E+03  0.10000000000E+01 0.  0.
    9000005    1    3    3    0    0 -0.79011767274E+02 -0.16013600420E+02  0.11276107603E+03  0.13861946124E+03  0.10000000000E+01 0.  0.
<mgrwt>
<rscale>  0 0.12581953E+03</rscale>
<asrwt>0</asrwt>
<pdfrwt beam="1">  1        2 0.78693104E-01 0.13435673E+03</pdfrwt>
<pdfrwt beam="2">  1       -2 0.42903632E-02 0.13435673E+03</pdfrwt>
<totfact> 0.14185412E+04</totfact>
</mgrwt>
</event>
<event>
 8    3  0.7944584E-004  0.1320817E+03  0.7818608E-02  0.1237413E+00
          2   -1    0    0  501    0  0.00000000000E+00  0.00000000000E+00  0.21319708631E+03  0.21319708633E+03  0.25500000000E-02 0.  1.
         -2   -1    0    0    0  501 -0.00000000000E+00 -0.00000000000E+00 -0.63711338629E+02  0.63711338680E+02  0.25500000000E-02 0. -1.
         25    2    1    2    0    0  0.77438121417E+01 -0.41989603679E+02  0.83245325793E+02  0.15612613966E+03  0.12498997470E+03 0.  0.
         23    2    1    2    0    0 -0.77438121417E+01  0.41989603679E+02  0.66240421892E+02  0.12078228535E+03  0.91528539368E+02 0.  0.
        -13    1    4    4    0    0 -0.38798364145E+02 -0.76089650626E+01  0.12865498501E+02  0.41578138792E+02  0.10566000000E+00 0.  1.
         13    1    4    4    0    0  0.31054552004E+02  0.49598568741E+02  0.53374923390E+02  0.79204146560E+02  0.10566000000E+00 0. -1.
    9000005    1    3    3    0    0 -0.36076931668E+02 -0.62862335871E+02  0.17799460757E+02  0.74639393573E+02  0.10000000000E+01 0.  0.
    9000005    1    3    3    0    0  0.43820743809E+02  0.20872732192E+02  0.65445865036E+02  0.81486746085E+02  0.10000000000E+01 0.  0.
<mgrwt>
<rscale>  0 0.12351228E+03</rscale>
<asrwt>0</asrwt>
<pdfrwt beam="1">  1        2 0.32799552E-01 0.13208174E+03</pdfrwt>
<pdfrwt beam="2">  1       -2 0.98017442E-02 0.13208174E+03</pdfrwt>
<totfact> 0.10244060E+04</totfact>
</mgrwt>
</event>
<event>
 8    3  0.7944584E-004  0.1302977E+03  0.7818608E-02  0.1240204E+00
         -2   -1    0    0    0  501 -0.00000000000E+00  0.00000000000E+00  0.45626213320E+02  0.45626213391E+02  0.25500000000E-02 0. -1.
          2   -1    0    0  501    0  0.00000000000E+00 -0.00000000000E+00 -0.32717945697E+03  0.32717945698E+03  0.25500000000E-02 0.  1.
         25    2    1    2    0    0 -0.19506559364E+02 -0.31180696215E+02 -0.94412555594E+02  0.16090752801E+03  0.12499904097E+03 0.  0.
         23    2    1    2    0    0  0.19506559364E+02  0.31180696215E+02 -0.18714068805E+03  0.21189814236E+03  0.92338745576E+02 0.  0.
        -13    1    4    4    0    0 -0.31869281157E+02  0.34916890051E+02 -0.77912954583E+02  0.91133308665E+02  0.10566000000E+00 0. -1.
         13    1    4    4    0    0  0.51375840521E+02 -0.37361938353E+01 -0.10922773347E+03  0.12076483369E+03  0.10566000000E+00 0.  1.
    9000005    1    3    3    0    0 -0.45533574726E+02  0.77889064857E+01  0.92660970639E+01  0.47125725951E+02  0.10000000000E+01 0.  0.
    9000005    1    3    3    0    0  0.26027015362E+02 -0.38969602701E+02 -0.10367865266E+03  0.11378180206E+03  0.10000000000E+01 0.  0.
<mgrwt>
<rscale>  0 0.12177070E+03</rscale>
<asrwt>0</asrwt>
<pdfrwt beam="2">  1        2 0.50335300E-01 0.13029774E+03</pdfrwt>
<pdfrwt beam="1">  1       -2 0.70194176E-02 0.13029774E+03</pdfrwt>
<totfact> 0.10880430E+04</totfact>
</mgrwt>
</event>
<event>
 8    3  0.7944584E-004  0.1700305E+03  0.7818608E-02  0.1184115E+00
          2   -1    0    0  501    0  0.00000000000E+00  0.00000000000E+00  0.60560236813E+03  0.60560236813E+03  0.25500000000E-02 0. -1.
         -2   -1    0    0    0  501 -0.00000000000E+00 -0.00000000000E+00 -0.51768416643E+02  0.51768416705E+02  0.25500000000E-02 0.  1.
         25    2    1    2    0    0 -0.27814594124E+02 -0.11186114637E+03  0.43764367706E+03  0.46951289734E+03  0.12499521984E+03 0.  0.
         23    2    1    2    0    0  0.27814594124E+02  0.11186114637E+03  0.11619027442E+03  0.18785788750E+03  0.92216258395E+02 0.  0.
        -13    1    4    4    0    0  0.68655809861E+01  0.10002747273E+03  0.39980482073E+02  0.10794017609E+03  0.10566000000E+00 0.  1.
         13    1    4    4    0    0  0.20949013138E+02  0.11833673635E+02  0.76209792347E+02  0.79917711409E+02  0.10566000000E+00 0. -1.
    9000005    1    3    3    0    0 -0.31868739885E+02 -0.27581078528E+02  0.33026630312E+03  0.33294618702E+03  0.10000000000E+01 0.  0.
    9000005    1    3    3    0    0  0.40541457603E+01 -0.84280067839E+02  0.10737737395E+03  0.13656671032E+03  0.10000000000E+01 0.  0.
<mgrwt>
<rscale>  0 0.16412635E+03</rscale>
<asrwt>0</asrwt>
<pdfrwt beam="1">  1        2 0.93169593E-01 0.17003051E+03</pdfrwt>
<pdfrwt beam="2">  1       -2 0.79643720E-02 0.17003051E+03</pdfrwt>
<totfact> 0.46486203E+03</totfact>
</mgrwt>
</event>
<event>
 8    3  0.7944584E-004  0.2307958E+03  0.7818608E-02  0.1129076E+00
         -2   -1    0    0    0  501 -0.00000000000E+00  0.00000000000E+00  0.16318545351E+03  0.16318545353E+03  0.25500000000E-02 0.  1.
          2   -1    0    0  501    0  0.00000000000E+00 -0.00000000000E+00 -0.12871521467E+04  0.12871521467E+04  0.25500000000E-02 0. -1.
         25    2    1    2    0    0 -0.68905690698E+02  0.18136656495E+03  0.66928623789E+02  0.24030430557E+03  0.12499957401E+03 0.  0.
         23    2    1    2    0    0  0.68905690698E+02 -0.18136656495E+03 -0.11908953170E+04  0.12100332947E+04  0.91143256019E+02 0.  0.
        -13    1    4    4    0    0  0.63492489566E+02 -0.59342157654E+02 -0.63194290333E+03  0.63789076819E+03  0.10566000000E+00 0.  1.
         13    1    4    4    0    0  0.54132011320E+01 -0.12202440729E+03 -0.55895241364E+03  0.57214252648E+03  0.10566000000E+00 0. -1.
    9000005    1    3    3    0    0  0.23631838563E+02  0.41430609219E+02  0.53974939148E+02  0.72036471528E+02  0.10000000000E+01 0.  0.
    9000005    1    3    3    0    0 -0.92537529261E+02  0.13993595573E+03  0.12953684641E+02  0.16826783404E+03  0.10000000000E+01 0.  0.
<mgrwt>
<rscale>  0 0.22657156E+03</rscale>
<asrwt>0</asrwt>
<pdfrwt beam="2">  1        2 0.19802340E+00 0.23079584E+03</pdfrwt>
<pdfrwt beam="1">  1       -2 0.25105455E-01 0.23079584E+03</pdfrwt>
<totfact> 0.25562174E+02</totfact>
</mgrwt>
</event>
<event>
 8    3  0.7944584E-004  0.1265531E+03  0.7818608E-02  0.1267418E+00
          2   -1    0    0  501    0  0.00000000000E+00  0.00000000000E+00  0.12578909876E+04  0.12578909876E+04  0.25500000000E-02 0. -1.
         -2   -1    0    0    0  501 -0.00000000000E+00 -0.00000000000E+00 -0.91585861713E+01  0.91585865263E+01  0.25500000000E-02 0.  1.
         25    2    1    2    0    0  0.19093159165E+02  0.51009453819E+01  0.50418530652E+03  0.51982545191E+03  0.12500043509E+03 0.  0.
         23    2    1    2    0    0 -0.19093159165E+02 -0.51009453819E+01  0.74454709490E+03  0.74722412221E+03  0.60024527625E+02 0.  0.
        -13    1    4    4    0    0  0.21255896467E+02  0.32759484130E+01  0.30064325928E+03  0.30141155500E+03  0.10566000000E+00 0.  1.
         13    1    4    4    0    0 -0.40349055632E+02 -0.83768937948E+01  0.44390383562E+03  0.44581256721E+03  0.10566000000E+00 0. -1.
    9000005    1    3    3    0    0  0.33715003605E+02  0.38747646627E+02  0.87044916200E+02  0.10107373063E+03  0.10000000000E+01 0.  0.
    9000005    1    3    3    0    0 -0.14621844440E+02 -0.33646701245E+02  0.41714039032E+03  0.41875172128E+03  0.10000000000E+01 0.  0.
<mgrwt>
<rscale>  0 0.10638340E+03</rscale>
<asrwt>0</asrwt>
<pdfrwt beam="1">  1        2 0.19352179E+00 0.12655306E+03</pdfrwt>
<pdfrwt beam="2">  1       -2 0.14090126E-02 0.12655306E+03</pdfrwt>
<totfact> 0.22822542E+04</totfact>
</mgrwt>
</event>
<event>
 8    3  0.7944584E-004  0.1823842E+03  0.7818608E-02  0.1170797E+00
          2   -1    0    0  501    0  0.00000000000E+00  0.00000000000E+00  0.95161737680E+03  0.95161737680E+03  0.25500000000E-02 0.  1.
         -2   -1    0    0    0  501 -0.00000000000E+00 -0.00000000000E+00 -0.34488922270E+02  0.34488922365E+02  0.25500000000E-02 0. -1.
         25    2    1    2    0    0  0.13108059261E+03  0.21356044208E+02  0.32880581149E+03  0.37600167190E+03  0.12500317282E+03 0.  0.
         23    2    1    2    0    0 -0.13108059261E+03 -0.21356044208E+02  0.58832264304E+03  0.61010462727E+03  0.92010442462E+02 0.  0.
        -13    1    4    4    0    0 -0.99833632015E+02 -0.52093260007E+02  0.48440470660E+03  0.49732121688E+03  0.10566000000E+00 0. -1.
         13    1    4    4    0    0 -0.31246960596E+02  0.30737215798E+02  0.10391793644E+03  0.11278341039E+03  0.10566000000E+00 0.  1.
    9000005    1    3    3    0    0  0.15301225762E+03  0.29227019079E+02  0.25725776358E+03  0.30074827771E+03  0.10000000000E+01 0.  0.
    9000005    1    3    3    0    0 -0.21931665014E+02 -0.78709748712E+01  0.71548047914E+02  0.75253394183E+02  0.10000000000E+01 0.  0.
<mgrwt>
<rscale>  0 0.17694123E+03</rscale>
<asrwt>0</asrwt>
<pdfrwt beam="1">  1        2 0.14640268E+00 0.18238420E+03</pdfrwt>
<pdfrwt beam="2">  1       -2 0.53059879E-02 0.18238420E+03</pdfrwt>
<totfact> 0.49611261E+03</totfact>
</mgrwt>
</event>
<event>
 8    3  0.7944584E-004  0.1660624E+03  0.7818608E-02  0.1190369E+00
         -2   -1    0    0    0  501 -0.00000000000E+00  0.00000000000E+00  0.78266108643E+02  0.78266108684E+02  0.25500000000E-02 0.  1.
          2   -1    0    0  501    0  0.00000000000E+00 -0.00000000000E+00 -0.32295443460E+03  0.32295443461E+03  0.25500000000E-02 0. -1.
         25    2    1    2    0    0 -0.24025727177E+02  0.10665104422E+03 -0.19132732215E+03  0.25334337843E+03  0.12500016957E+03 0.  0.
         23    2    1    2    0    0  0.24025727177E+02 -0.10665104422E+03 -0.53361003805E+02  0.14787716487E+03  0.84074837869E+02 0.  0.
        -13    1    4    4    0    0  0.27935961634E+01 -0.34087721532E+01  0.19338223862E+02  0.19834363445E+02  0.10566000000E+00 0.  1.
         13    1    4    4    0    0  0.21232131013E+02 -0.10324227206E+03 -0.72699227667E+02  0.12804280142E+03  0.10566000000E+00 0. -1.
    9000005    1    3    3    0    0 -0.44540464811E+02  0.91975959834E+02 -0.20165182263E+03  0.22607053714E+03  0.10000000000E+01 0.  0.
    9000005    1    3    3    0    0  0.20514737635E+02  0.14675084383E+02  0.10324500477E+02  0.27272841289E+02  0.10000000000E+01 0.  0.
<mgrwt>
<rscale>  0 0.15852784E+03</rscale>
<asrwt>0</asrwt>
<pdfrwt beam="2">  1        2 0.49685297E-01 0.16606241E+03</pdfrwt>
<pdfrwt beam="1">  1       -2 0.12040940E-01 0.16606241E+03</pdfrwt>
<totfact> 0.48159247E+03</totfact>
</mgrwt>
</event>
<event>
 8    3  0.7944584E-004  0.1421177E+03  0.7818608E-02  0.1224349E+00
          2   -1    0    0  501    0  0.00000000000E+00  0.00000000000E+00  0.18824596740E+04  0.18824596740E+04  0.25500000000E-02 0. -1.
         -2   -1    0    0    0  501 -0.00000000000E+00 -0.00000000000E+00 -0.16109616239E+02  0.16109616441E+02  0.25500000000E-02 0.  1.
         25    2    1    2    0    0  0.15554079212E+02 -0.65823800124E+02  0.16641210526E+04  0.16701785267E+04  0.12499092428E+03 0.  0.
         23    2    1    2    0    0 -0.15554079212E+02  0.65823800124E+02  0.20222900518E+03  0.22839076381E+03  0.81798951172E+02 0.  0.
        -13    1    4    4    0    0  0.14842708266E+02  0.14361968561E+02  0.36013790269E+01  0.20965524667E+02  0.10566000000E+00 0.  1.
         13    1    4    4    0    0 -0.30396787478E+02  0.51461831563E+02  0.19862762615E+03  0.20742523914E+03  0.10566000000E+00 0. -1.
    9000005    1    3    3    0    0  0.12728638166E+02  0.31359053320E+02  0.20111741665E+03  0.20394760046E+03  0.10000000000E+01 0.  0.
    9000005    1    3    3    0    0  0.28254410457E+01 -0.97182853445E+02  0.14630036360E+04  0.14662309262E+04  0.10000000000E+01 0.  0.
<mgrwt>
<rscale>  0 0.13211623E+03</rscale>
<asrwt>0</asrwt>
<pdfrwt beam="1">  1        2 0.28960921E+00 0.14211767E+03</pdfrwt>
<pdfrwt beam="2">  1       -2 0.24784023E-02 0.14211767E+03</pdfrwt>
<totfact> 0.47890450E+03</totfact>
</mgrwt>
</event>
<event>
 8    3  0.7944584E-004  0.2934463E+03  0.7818608E-02  0.1090264E+00
          2   -1    0    0  501    0  0.00000000000E+00  0.00000000000E+00  0.11236067151E+03  0.11236067154E+03  0.25500000000E-02 0. -1.
         -2   -1    0    0    0  501 -0.00000000000E+00 -0.00000000000E+00 -0.73302308837E+03  0.73302308838E+03  0.25500000000E-02 0.  1.
         25    2    1    2    0    0  0.53823391379E+02 -0.25997882067E+03 -0.31723040373E+03  0.43214098843E+03  0.12499904070E+03 0.  0.
         23    2    1    2    0    0 -0.53823391379E+02  0.25997882067E+03 -0.30343201313E+03  0.41324277149E+03  0.90623710708E+02 0.  0.
        -13    1    4    4    0    0 -0.52017771136E+01  0.77710861256E+02 -0.15404196278E+03  0.17261220671E+03  0.10566000000E+00 0.  1.
         13    1    4    4    0    0 -0.48621614266E+02  0.18226795941E+03 -0.14939005035E+03  0.24063056479E+03  0.10566000000E+00 0. -1.
    9000005    1    3    3    0    0  0.18958463717E+02 -0.19468386148E+03 -0.29659838281E+03  0.35529259766E+03  0.10000000000E+01 0.  0.
    9000005    1    3    3    0    0  0.34864927662E+02 -0.65294959190E+02 -0.20632020916E+02  0.76848390768E+02  0.10000000000E+01 0.  0.
<mgrwt>
<rscale>  0 0.29016318E+03</rscale>
<asrwt>0</asrwt>
<pdfrwt beam="1">  1        2 0.17286258E-01 0.29344626E+03</pdfrwt>
<pdfrwt beam="2">  1       -2 0.11277278E+00 0.29344626E+03</pdfrwt>
<totfact> 0.21301106E+02</totfact>
</mgrwt>
</event>
<event>
 8    3  0.7944584E-004  0.1566917E+03  0.7818608E-02  0.1203930E+00
         -2   -1    0    0    0  501 -0.00000000000E+00  0.00000000000E+00  0.57514668437E+01  0.57514674090E+01  0.25500000000E-02 0.  1.
          2   -1    0    0  501    0  0.00000000000E+00 -0.00000000000E+00 -0.35324369109E+04  0.35324369109E+04  0.25500000000E-02 0. -1.
         25    2    1    2    0    0 -0.82292623018E+02 -0.46424030107E+02 -0.16061572740E+04  0.16137823508E+04  0.12500008249E+03 0.  0.
         23    2    1    2    0    0  0.82292623018E+02  0.46424030107E+02 -0.19205281701E+04  0.19244060275E+04  0.77348822105E+02 0.  0.
        -13    1    4    4    0    0  0.55063870184E+02  0.17019917394E+02 -0.49968899220E+03  0.50300179669E+03  0.10566000000E+00 0.  1.
         13    1    4    4    0    0  0.27228752833E+02  0.29404112713E+02 -0.14208391779E+04  0.14214042308E+04  0.10566000000E+00 0. -1.
    9000005    1    3    3    0    0 -0.61598440858E+02  0.31438650375E+02 -0.98430690342E+03  0.98673392400E+03  0.10000000000E+01 0.  0.
    9000005    1    3    3    0    0 -0.20694182160E+02 -0.77862680482E+02 -0.62185037056E+03  0.62704842680E+03  0.10000000000E+01 0.  0.
<mgrwt>
<rscale>  0 0.14722094E+03</rscale>
<asrwt>0</asrwt>
<pdfrwt beam="2">  1        2 0.54345010E+00 0.15669169E+03</pdfrwt>
<pdfrwt beam="1">  1       -2 0.88484392E-03 0.15669169E+03</pdfrwt>
<totfact> 0.25068056E+03</totfact>
</mgrwt>
</event>
<event>
 8    3  0.7944584E-004  0.2298213E+03  0.7818608E-02  0.1129751E+00
          2   -1    0    0  501    0  0.00000000000E+00  0.00000000000E+00  0.24517295312E+04  0.24517295312E+04  0.25500000000E-02 0.  1.
         -2   -1    0    0    0  501 -0.00000000000E+00 -0.00000000000E+00 -0.20082536109E+02  0.20082536271E+02  0.25500000000E-02 0. -1.
         25    2    1    2    0    0  0.14230356212E+03 -0.13016742523E+03  0.12054102663E+04  0.12271233561E+04  0.12499583391E+03 0.  0.
         23    2    1    2    0    0 -0.14230356212E+03  0.13016742523E+03  0.12262367288E+04  0.12446887114E+04  0.91649391212E+02 0.  0.
        -13    1    4    4    0    0 -0.30578142799E+02  0.27553137850E+02  0.55497827239E+03  0.55650255364E+03  0.10566000000E+00 0.  1.
         13    1    4    4    0    0 -0.11172541932E+03  0.10261428738E+03  0.67125845637E+03  0.68818615775E+03  0.10566000000E+00 0. -1.
    9000005    1    3    3    0    0  0.67345024635E+02 -0.46433946488E+02  0.20973071565E+03  0.22512093820E+03  0.10000000000E+01 0.  0.
    9000005    1    3    3    0    0  0.74958537484E+02 -0.83733478745E+02  0.99567955070E+03  0.10020024179E+04  0.10000000000E+01 0.  0.
<mgrwt>
<rscale>  0 0.22563450E+03</rscale>
<asrwt>0</asrwt>
<pdfrwt beam="1">  1        2 0.37718923E+00 0.22982128E+03</pdfrwt>
<pdfrwt beam="2">  1       -2 0.30896204E-02 0.22982128E+03</pdfrwt>
<totfact> 0.17343507E+03</totfact>
</mgrwt>
</event>
<event>
 8    3  0.7944584E-004  0.2907265E+03  0.7818608E-02  0.1091673E+00
          2   -1    0    0  501    0  0.00000000000E+00  0.00000000000E+00  0.27802006806E+03  0.27802006807E+03  0.25500000000E-02 0. -1.
         -2   -1    0    0    0  501 -0.00000000000E+00 -0.00000000000E+00 -0.36358824649E+03  0.36358824650E+03  0.25500000000E-02 0.  1.
         25    2    1    2    0    0  0.34557755204E+02  0.26021221456E+03  0.99955774745E+02  0.30742979978E+03  0.12496915556E+03 0.  0.
         23    2    1    2    0    0 -0.34557755204E+02 -0.26021221456E+03 -0.18552395317E+03  0.33417851478E+03  0.91386582673E+02 0.  0.
        -13    1    4    4    0    0 -0.32492928674E+02 -0.21165079178E+02 -0.29288694440E+02  0.48596190966E+02  0.10566000000E+00 0.  1.
         13    1    4    4    0    0 -0.20648265303E+01 -0.23904713538E+03 -0.15623525873E+03  0.28558232382E+03  0.10566000000E+00 0. -1.
    9000005    1    3    3    0    0  0.21915889499E+02  0.12761578762E+03 -0.16454053732E+02  0.13052904407E+03  0.10000000000E+01 0.  0.
    9000005    1    3    3    0    0  0.12641865704E+02  0.13259642694E+03  0.11640982848E+03  0.17690075571E+03  0.10000000000E+01 0.  0.
<mgrwt>
<rscale>  0 0.28747835E+03</rscale>
<asrwt>0</asrwt>
<pdfrwt beam="1">  1        2 0.42772318E-01 0.29072655E+03</pdfrwt>
<pdfrwt beam="2">  1       -2 0.55936653E-01 0.29072655E+03</pdfrwt>
<totfact> 0.36497480E+02</totfact>
</mgrwt>
</event>
<event>
 8    3  0.7944584E-004  0.1676559E+03  0.7818608E-02  0.1186969E+00
         -2   -1    0    0    0  501 -0.00000000000E+00  0.00000000000E+00  0.56117979937E+02  0.56117979995E+02  0.25500000000E-02 0.  1.
          2   -1    0    0  501    0  0.00000000000E+00 -0.00000000000E+00 -0.43408399160E+03  0.43408399160E+03  0.25500000000E-02 0. -1.
         25    2    1    2    0    0 -0.37536566343E+02 -0.10524919430E+03 -0.20305618121E+03  0.26332550986E+03  0.12498849827E+03 0.  0.
         23    2    1    2    0    0  0.37536566343E+02  0.10524919430E+03 -0.17490983045E+03  0.22687646174E+03  0.91613827501E+02 0.  0.
        -13    1    4    4    0    0 -0.41964742709E+01  0.48437373441E+02 -0.13061543656E+02  0.50342870685E+02  0.10566000000E+00 0.  1.
         13    1    4    4    0    0  0.41733040613E+02  0.56811820864E+02 -0.16184828679E+03  0.17653359106E+03  0.10566000000E+00 0. -1.
    9000005    1    3    3    0    0 -0.71395243376E+02 -0.11124910692E+03 -0.14834527115E+03  0.19869817322E+03  0.10000000000E+01 0.  0.
    9000005    1    3    3    0    0  0.33858677033E+02  0.59999126142E+01 -0.54710910058E+02  0.64627336640E+02  0.10000000000E+01 0.  0.
<mgrwt>
<rscale>  0 0.16153966E+03</rscale>
<asrwt>0</asrwt>
<pdfrwt beam="2">  1        2 0.66782150E-01 0.16765593E+03</pdfrwt>
<pdfrwt beam="1">  1       -2 0.86335357E-02 0.16765593E+03</pdfrwt>
<totfact> 0.59367896E+03</totfact>
</mgrwt>
</event>
<event>
 8    3  0.7944584E-004  0.3691309E+03  0.7818608E-02  0.1056354E+00
         -2   -1    0    0    0  501 -0.00000000000E+00  0.00000000000E+00  0.14132920594E+03  0.14132920596E+03  0.25500000000E-02 0.  1.
          2   -1    0    0  501    0  0.00000000000E+00 -0.00000000000E+00 -0.12181446119E+04  0.12181446119E+04  0.25500000000E-02 0. -1.
         25    2    1    2    0    0  0.41068168339E+01 -0.34729798272E+03 -0.21496654530E+03  0.42716297636E+03  0.12499935211E+03 0.  0.
         23    2    1    2    0    0 -0.41068168339E+01  0.34729798272E+03 -0.86184886065E+03  0.93231084149E+03  0.76074251920E+02 0.  0.
        -13    1    4    4    0    0  0.25373367468E+02  0.18077899325E+03 -0.51581236742E+03  0.54716292064E+03  0.10566000000E+00 0. -1.
         13    1    4    4    0    0 -0.29480184302E+02  0.16651898948E+03 -0.34603649323E+03  0.38514792084E+03  0.10566000000E+00 0.  1.
    9000005    1    3    3    0    0 -0.66298076062E+01 -0.19693377193E+03 -0.49194537519E+02  0.20309595613E+03  0.10000000000E+01 0.  0.
    9000005    1    3    3    0    0  0.10736624440E+02 -0.15036421079E+03 -0.16577200778E+03  0.22406702023E+03  0.10000000000E+01 0.  0.
<mgrwt>
<rscale>  0 0.36568931E+03</rscale>
<asrwt>0</asrwt>
<pdfrwt beam="2">  1        2 0.18740686E+00 0.36913086E+03</pdfrwt>
<pdfrwt beam="1">  1       -2 0.21742956E-01 0.36913086E+03</pdfrwt>
<totfact> 0.35302786E+02</totfact>
</mgrwt>
</event>
<event>
 8    3  0.7944584E-004  0.1747642E+03  0.7818608E-02  0.1178930E+00
         -2   -1    0    0    0  501 -0.00000000000E+00  0.00000000000E+00  0.39405490271E+02  0.39405490353E+02  0.25500000000E-02 0.  1.
          2   -1    0    0  501    0  0.00000000000E+00 -0.00000000000E+00 -0.77185150229E+03  0.77185150229E+03  0.25500000000E-02 0. -1.
         25    2    1    2    0    0 -0.99504276318E+02 -0.70826023672E+02 -0.52737621680E+03  0.55557916140E+03  0.12500041558E+03 0.  0.
         23    2    1    2    0    0  0.99504276318E+02  0.70826023672E+02 -0.20506979521E+03  0.25567783124E+03  0.91652091342E+02 0.  0.
        -13    1    4    4    0    0  0.39844311576E+02 -0.12310994876E+02 -0.10310965346E+03  0.11122383540E+03  0.10566000000E+00 0.  1.
         13    1    4    4    0    0  0.59659964742E+02  0.83137018548E+02 -0.10196014175E+03  0.14445399584E+03  0.10566000000E+00 0. -1.
    9000005    1    3    3    0    0 -0.10730184052E+03 -0.40716994879E+01 -0.31249741392E+03  0.33043289398E+03  0.10000000000E+01 0.  0.
    9000005    1    3    3    0    0  0.77975642035E+01 -0.66754324184E+02 -0.21487880289E+03  0.22514626742E+03  0.10000000000E+01 0.  0.
<mgrwt>
<rscale>  0 0.16896615E+03</rscale>
<asrwt>0</asrwt>
<pdfrwt beam="2">  1        2 0.11874637E+00 0.17476421E+03</pdfrwt>
<pdfrwt beam="1">  1       -2 0.60623837E-02 0.17476421E+03</pdfrwt>
<totfact> 0.53045098E+03</totfact>
</mgrwt>
</event>
<event>
 8    3  0.7944584E-004  0.1476938E+03  0.7818608E-02  0.1212935E+00
          2   -1    0    0  501    0  0.00000000000E+00  0.00000000000E+00  0.25618848408E+03  0.25618848409E+03  0.25500000000E-02 0. -1.
         -2   -1    0    0    0  501 -0.00000000000E+00 -0.00000000000E+00 -0.73896752193E+02  0.73896752237E+02  0.25500000000E-02 0.  1.
         25    2    1    2    0    0  0.75006624187E+02 -0.23676893449E+02  0.13743884424E+03  0.20174955438E+03  0.12500743110E+03 0.  0.
         23    2    1    2    0    0 -0.75006624187E+02  0.23676893449E+02  0.44852887642E+02  0.12833568195E+03  0.90948759072E+02 0.  0.
        -13    1    4    4    0    0 -0.21812763428E+02  0.42188979692E+02  0.53291181717E+02  0.71383946855E+02  0.10566000000E+00 0. -1.
         13    1    4    4    0    0 -0.53193860759E+02 -0.18512086243E+02 -0.84382940750E+01  0.56951735096E+02  0.10566000000E+00 0.  1.
    9000005    1    3    3    0    0  0.22356307541E+02 -0.36269836955E+02 -0.10771876333E+02  0.43958376668E+02  0.10000000000E+01 0.  0.
    9000005    1    3    3    0    0  0.52650316646E+02  0.12592943505E+02  0.14821072058E+03  0.15779117771E+03  0.10000000000E+01 0.  0.
<mgrwt>
<rscale>  0 0.14029304E+03</rscale>
<asrwt>0</asrwt>
<pdfrwt beam="1">  1        2 0.39413613E-01 0.14769376E+03</pdfrwt>
<pdfrwt beam="2">  1       -2 0.11368731E-01 0.14769376E+03</pdfrwt>
<totfact> 0.67102524E+03</totfact>
</mgrwt>
</event>
<event>
 8    3  0.7944584E-004  0.1749153E+03  0.7818608E-02  0.1178679E+00
          2   -1    0    0  501    0  0.00000000000E+00  0.00000000000E+00  0.13888099200E+04  0.13888099200E+04  0.25500000000E-02 0. -1.
         -2   -1    0    0    0  501 -0.00000000000E+00 -0.00000000000E+00 -0.20293756818E+02  0.20293756979E+02  0.25500000000E-02 0.  1.
         25    2    1    2    0    0  0.64422935210E+02  0.10402083139E+03  0.87703875280E+03  0.89431109690E+03  0.12499886473E+03 0.  0.
         23    2    1    2    0    0 -0.64422935210E+02 -0.10402083139E+03  0.49147741039E+03  0.51479258008E+03  0.92145035925E+02 0.  0.
        -13    1    4    4    0    0 -0.32550578530E+02 -0.50021559326E+02  0.87113004371E+02  0.10559537516E+03  0.10566000000E+00 0.  1.
         13    1    4    4    0    0 -0.31872356679E+02 -0.53999272065E+02  0.40436440601E+03  0.40919720493E+03  0.10566000000E+00 0. -1.
    9000005    1    3    3    0    0  0.72857653858E+02  0.11847317543E+03  0.56665382374E+03  0.58347381002E+03  0.10000000000E+01 0.  0.
    9000005    1    3    3    0    0 -0.84347186480E+01 -0.14452344040E+02  0.31038492906E+03  0.31083728688E+03  0.10000000000E+01 0.  0.
<mgrwt>
<rscale>  0 0.16920570E+03</rscale>
<asrwt>0</asrwt>
<pdfrwt beam="1">  1        2 0.21366307E+00 0.17491531E+03</pdfrwt>
<pdfrwt beam="2">  1       -2 0.31221164E-02 0.17491531E+03</pdfrwt>
<totfact> 0.61811663E+03</totfact>
</mgrwt>
</event>
<event>
 8    3  0.7944584E-004  0.1404744E+03  0.7818608E-02  0.1223408E+00
          2   -1    0    0  501    0  0.00000000000E+00  0.00000000000E+00  0.36692623942E+04  0.36692623942E+04  0.25500000000E-02 0. -1.
         -2   -1    0    0    0  501 -0.00000000000E+00 -0.00000000000E+00 -0.45186769213E+01  0.45186776409E+01  0.25500000000E-02 0.  1.
         25    2    1    2    0    0 -0.59431952046E+02 -0.24042803486E+02  0.16736700767E+04  0.16795548780E+04  0.12499139576E+03 0.  0.
         23    2    1    2    0    0  0.59431952046E+02  0.24042803486E+02  0.19910736406E+04  0.19942261939E+04  0.91943770608E+02 0.  0.
        -13    1    4    4    0    0  0.14996879006E+02 -0.79657322660E+01  0.15020125737E+04  0.15021085653E+04  0.10566000000E+00 0. -1.
         13    1    4    4    0    0  0.44435073040E+02  0.32008535752E+02  0.48906106689E+03  0.49211762861E+03  0.10566000000E+00 0.  1.
    9000005    1    3    3    0    0 -0.56091231404E+02  0.44302618118E+02  0.92956799291E+03  0.93231250215E+03  0.10000000000E+01 0.  0.
    9000005    1    3    3    0    0 -0.33407206417E+01 -0.68345421604E+02  0.74410208382E+03  0.74724237582E+03  0.10000000000E+01 0.  0.
<mgrwt>
<rscale>  0 0.13276646E+03</rscale>
<asrwt>0</asrwt>
<pdfrwt beam="1">  1        2 0.56450362E+00 0.14047442E+03</pdfrwt>
<pdfrwt beam="2">  1       -2 0.69517901E-03 0.14047442E+03</pdfrwt>
<totfact> 0.28773506E+03</totfact>
</mgrwt>
</event>
<event>
 8    3  0.7944584E-004  0.1278631E+03  0.7818608E-02  0.1254013E+00
         -2   -1    0    0    0  501 -0.00000000000E+00  0.00000000000E+00  0.62964889185E+01  0.62964894349E+01  0.25500000000E-02 0.  1.
          2   -1    0    0  501    0  0.00000000000E+00 -0.00000000000E+00 -0.18414255666E+04  0.18414255666E+04  0.25500000000E-02 0. -1.
         25    2    1    2    0    0 -0.24161146939E+02  0.11951485138E+02 -0.87550433130E+03  0.88479195640E+03  0.12498949140E+03 0.  0.
         23    2    1    2    0    0  0.24161146939E+02 -0.11951485138E+02 -0.95962474634E+03  0.96293009960E+03  0.75020823159E+02 0.  0.
        -13    1    4    4    0    0 -0.24797563761E+02 -0.16839065655E+02 -0.31059217640E+03  0.31203522959E+03  0.10566000000E+00 0. -1.
         13    1    4    4    0    0  0.48958710700E+02  0.48875805169E+01 -0.64903256994E+03  0.65089487001E+03  0.10566000000E+00 0.  1.
    9000005    1    3    3    0    0  0.32033754260E+02  0.17048572090E+02 -0.68853288284E+03  0.68948919207E+03  0.10000000000E+01 0.  0.
    9000005    1    3    3    0    0 -0.56194901199E+02 -0.50970869518E+01 -0.18697144846E+03  0.19530276433E+03  0.10000000000E+01 0.  0.
<mgrwt>
<rscale>  0 0.11361770E+03</rscale>
<asrwt>0</asrwt>
<pdfrwt beam="2">  1        2 0.28329581E+00 0.12786310E+03</pdfrwt>
<pdfrwt beam="1">  1       -2 0.96869211E-03 0.12786310E+03</pdfrwt>
<totfact> 0.19433190E+04</totfact>
</mgrwt>
</event>
<event>
 8    3  0.7944584E-004  0.1329203E+03  0.7818608E-02  0.1236427E+00
          2   -1    0    0  501    0  0.00000000000E+00  0.00000000000E+00  0.14810416648E+04  0.14810416648E+04  0.25500000000E-02 0.  1.
         -2   -1    0    0    0  501 -0.00000000000E+00 -0.00000000000E+00 -0.98921474158E+01  0.98921477445E+01  0.25500000000E-02 0. -1.
         25    2    1    2    0    0  0.42244263328E+02  0.16077330904E+02  0.64005383864E+03  0.65370996271E+03  0.12499896256E+03 0.  0.
         23    2    1    2    0    0 -0.42244263328E+02 -0.16077330904E+02  0.83109567875E+03  0.83722384983E+03  0.90447162184E+02 0.  0.
        -13    1    4    4    0    0 -0.67057826325E+02 -0.71361426465E+01  0.71483345356E+03  0.71800734961E+03  0.10566000000E+00 0.  1.
         13    1    4    4    0    0  0.24813562997E+02 -0.89411882579E+01  0.11626222519E+03  0.11921650022E+03  0.10566000000E+00 0. -1.
    9000005    1    3    3    0    0 -0.12355126010E+02  0.83619910930E+01  0.42859386466E+01  0.15554462506E+02  0.10000000000E+01 0.  0.
    9000005    1    3    3    0    0  0.54599389338E+02  0.77153398114E+01  0.63576789999E+03  0.63815550021E+03  0.10000000000E+01 0.  0.
<mgrwt>
<rscale>  0 0.12413512E+03</rscale>
<asrwt>0</asrwt>
<pdfrwt beam="1">  1        2 0.22785245E+00 0.13292027E+03</pdfrwt>
<pdfrwt beam="2">  1       -2 0.15218696E-02 0.13292027E+03</pdfrwt>
<totfact> 0.15597819E+04</totfact>
</mgrwt>
</event>
<event>
 8    3  0.7944584E-004  0.3499321E+03  0.7818608E-02  0.1063731E+00
         -2   -1    0    0    0  501 -0.00000000000E+00  0.00000000000E+00  0.58164727578E+02  0.58164727634E+02  0.25500000000E-02 0.  1.
          2   -1    0    0  501    0  0.00000000000E+00 -0.00000000000E+00 -0.25829820633E+04  0.25829820633E+04  0.25500000000E-02 0. -1.
         25    2    1    2    0    0 -0.12411516642E+03 -0.30235942386E+03 -0.18812930205E+04  0.19135610442E+04  0.12500658088E+03 0.  0.
         23    2    1    2    0    0  0.12411516642E+03  0.30235942386E+03 -0.64352431524E+03  0.72758574673E+03  0.91824173313E+02 0.  0.
        -13    1    4    4    0    0  0.12707437644E+03  0.28002080217E+03 -0.53798132210E+03  0.61966399031E+03  0.10566000000E+00 0.  1.
         13    1    4    4    0    0 -0.29592100233E+01  0.22338621692E+02 -0.10554299315E+03  0.10792175643E+03  0.10566000000E+00 0. -1.
    9000005    1    3    3    0    0 -0.29109721699E+02 -0.67839386021E+01 -0.74349916708E+02  0.80139302685E+02  0.10000000000E+01 0.  0.
    9000005    1    3    3    0    0 -0.95005444722E+02 -0.29557548526E+03 -0.18069431038E+04  0.18334217415E+04  0.10000000000E+01 0.  0.
<mgrwt>
<rscale>  0 0.34729332E+03</rscale>
<asrwt>0</asrwt>
<pdfrwt beam="2">  1        2 0.39738177E+00 0.34993205E+03</pdfrwt>
<pdfrwt beam="1">  1       -2 0.89484216E-02 0.34993205E+03</pdfrwt>
<totfact> 0.28127075E+02</totfact>
</mgrwt>
</event>
<event>
 8    3  0.7944584E-004  0.1539718E+03  0.7818608E-02  0.1201651E+00
         -2   -1    0    0    0  501 -0.00000000000E+00  0.00000000000E+00  0.28682376798E+03  0.28682376799E+03  0.25500000000E-02 0.  1.
          2   -1    0    0  501    0  0.00000000000E+00 -0.00000000000E+00 -0.76813385955E+02  0.76813385997E+02  0.25500000000E-02 0. -1.
         25    2    1    2    0    0 -0.58520735435E+02  0.68246413447E+02  0.70420272217E+02  0.16931132849E+03  0.12500024717E+03 0.  0.
         23    2    1    2    0    0  0.58520735435E+02 -0.68246413447E+02  0.13959010981E+03  0.19432582550E+03  0.10096968988E+03 0.  0.
        -13    1    4    4    0    0  0.54181298018E+02 -0.64340532488E+02  0.37545063214E+02  0.92113843213E+02  0.10566000000E+00 0. -1.
         13    1    4    4    0    0  0.43394374172E+01 -0.39058809586E+01  0.10204504660E+03  0.10221198228E+03  0.10566000000E+00 0.  1.
    9000005    1    3    3    0    0  0.10967189350E+02  0.73179985993E+02  0.66562313139E+02  0.99534572499E+02  0.10000000000E+01 0.  0.
    9000005    1    3    3    0    0 -0.69487924785E+02 -0.49335725460E+01  0.38579590777E+01  0.69776755996E+02  0.10000000000E+01 0.  0.
<mgrwt>
<rscale>  0 0.14904567E+03</rscale>
<asrwt>0</asrwt>
<pdfrwt beam="2">  1        2 0.11817444E-01 0.15397179E+03</pdfrwt>
<pdfrwt beam="1">  1       -2 0.44126734E-01 0.15397179E+03</pdfrwt>
<totfact> 0.24873547E+03</totfact>
</mgrwt>
</event>
<event>
 8    3  0.7944584E-004  0.1346864E+03  0.7818608E-02  0.1233089E+00
          2   -1    0    0  501    0  0.00000000000E+00  0.00000000000E+00  0.15452252767E+04  0.15452252767E+04  0.25500000000E-02 0. -1.
         -2   -1    0    0    0  501 -0.00000000000E+00 -0.00000000000E+00 -0.10144110988E+02  0.10144111309E+02  0.25500000000E-02 0.  1.
         25    2    1    2    0    0 -0.57310730915E+01 -0.49812646651E+02  0.10896945366E+04  0.10979866159E+04  0.12500512226E+03 0.  0.
         23    2    1    2    0    0  0.57310730915E+01  0.49812646651E+02  0.44538662906E+03  0.45738277207E+03  0.91189943983E+02 0.  0.
        -13    1    4    4    0    0 -0.33446179518E+02  0.45115488918E+02  0.34461910889E+03  0.34916528413E+03  0.10566000000E+00 0.  1.
         13    1    4    4    0    0  0.39177252610E+02  0.46971577329E+01  0.10076752016E+03  0.10821748794E+03  0.10566000000E+00 0. -1.
    9000005    1    3    3    0    0  0.42965098518E+02  0.44097578673E+01  0.71287059739E+03  0.71417850309E+03  0.10000000000E+01 0.  0.
    9000005    1    3    3    0    0 -0.48696171609E+02 -0.54222404518E+02  0.37682393923E+03  0.38380811281E+03  0.10000000000E+01 0.  0.
<mgrwt>
<rscale>  0 0.12627579E+03</rscale>
<asrwt>0</asrwt>
<pdfrwt beam="1">  1        2 0.23772694E+00 0.13468640E+03</pdfrwt>
<pdfrwt beam="2">  1       -2 0.15606327E-02 0.13468640E+03</pdfrwt>
<totfact> 0.13939758E+04</totfact>
</mgrwt>
</event>
<event>
 8    3  0.7944584E-004  0.1287322E+03  0.7818608E-02  0.1244480E+00
         -2   -1    0    0    0  501 -0.00000000000E+00  0.00000000000E+00  0.53600723001E+02  0.53600723061E+02  0.25500000000E-02 0. -1.
          2   -1    0    0  501    0  0.00000000000E+00 -0.00000000000E+00 -0.29055047634E+03  0.29055047635E+03  0.25500000000E-02 0.  1.
         25    2    1    2    0    0 -0.22620096305E+02 -0.20866105615E+02 -0.56793601257E+02  0.14070352728E+03  0.12499962530E+03 0.  0.
         23    2    1    2    0    0  0.22620096305E+02  0.20866105615E+02 -0.18015615208E+03  0.20344767213E+03  0.89373670855E+02 0.  0.
        -13    1    4    4    0    0 -0.74733329871E+01  0.10451751949E+02 -0.16932437918E+03  0.16981120803E+03  0.10566000000E+00 0.  1.
         13    1    4    4    0    0  0.30093429292E+02  0.10414353666E+02 -0.10831772902E+02  0.33636464099E+02  0.10566000000E+00 0. -1.
    9000005    1    3    3    0    0 -0.13779739473E+02 -0.46283954559E+02 -0.87447423286E+02  0.99900638181E+02  0.10000000000E+01 0.  0.
    9000005    1    3    3    0    0 -0.88403568322E+01  0.25417848945E+02  0.30653822029E+02  0.40802889100E+02  0.10000000000E+01 0.  0.
<mgrwt>
<rscale>  0 0.11916546E+03</rscale>
<asrwt>0</asrwt>
<pdfrwt beam="2">  1        2 0.44700072E-01 0.12873216E+03</pdfrwt>
<pdfrwt beam="1">  1       -2 0.82462653E-02 0.12873216E+03</pdfrwt>
<totfact> 0.96216951E+03</totfact>
</mgrwt>
</event>
<event>
 8    3  0.7944584E-004  0.1518094E+03  0.7818608E-02  0.1206737E+00
          2   -1    0    0  501    0  0.00000000000E+00  0.00000000000E+00  0.34913630592E+04  0.34913630592E+04  0.25500000000E-02 0. -1.
         -2   -1    0    0    0  501 -0.00000000000E+00 -0.00000000000E+00 -0.57926055382E+01  0.57926060995E+01  0.25500000000E-02 0.  1.
         25    2    1    2    0    0 -0.50322477362E+02 -0.69940213772E+02  0.15329950004E+04  0.15404933495E+04  0.12498841281E+03 0.  0.
         23    2    1    2    0    0  0.50322477362E+02  0.69940213772E+02  0.19525754532E+04  0.19566623157E+04  0.92479901641E+02 0.  0.
        -13    1    4    4    0    0  0.26104819653E+02  0.53466457654E+02  0.18163219529E+04  0.18172962255E+04  0.10566000000E+00 0. -1.
         13    1    4    4    0    0  0.24217657709E+02  0.16473756118E+02  0.13625350032E+03  0.13936609020E+03  0.10566000000E+00 0.  1.
    9000005    1    3    3    0    0 -0.17784572953E+02 -0.10351870308E+03  0.10638729840E+04  0.10690459012E+04  0.10000000000E+01 0.  0.
    9000005    1    3    3    0    0 -0.32537904408E+02  0.33578489305E+02  0.46912201645E+03  0.47144744828E+03  0.10000000000E+01 0.  0.
<mgrwt>
<rscale>  0 0.14501376E+03</rscale>
<asrwt>0</asrwt>
<pdfrwt beam="1">  1        2 0.53713295E+00 0.15180938E+03</pdfrwt>
<pdfrwt beam="2">  1       -2 0.89116984E-03 0.15180938E+03</pdfrwt>
<totfact> 0.26419883E+03</totfact>
</mgrwt>
</event>
<event>
 8    3  0.7944584E-004  0.1262611E+03  0.7818608E-02  0.1247886E+00
         -2   -1    0    0    0  501 -0.00000000000E+00  0.00000000000E+00  0.80934365334E+01  0.80934369351E+01  0.25500000000E-02 0.  1.
          2   -1    0    0  501    0  0.00000000000E+00 -0.00000000000E+00 -0.15310031098E+04  0.15310031098E+04  0.25500000000E-02 0. -1.
         25    2    1    2    0    0  0.10815500677E+02  0.14132915211E+02 -0.99259410528E+03  0.10005922838E+04  0.12500058518E+03 0.  0.
         23    2    1    2    0    0 -0.10815500677E+02 -0.14132915211E+02 -0.53031556800E+03  0.53850426291E+03  0.91845115073E+02 0.  0.
        -13    1    4    4    0    0 -0.50413615342E+02  0.25191472885E+01 -0.27287267433E+03  0.27750204734E+03  0.10566000000E+00 0. -1.
         13    1    4    4    0    0  0.39598114665E+02 -0.16652062499E+02 -0.25744289367E+03  0.26100221558E+03  0.10566000000E+00 0.  1.
    9000005    1    3    3    0    0  0.65561827478E+02 -0.10159385281E+02 -0.52691677952E+03  0.53107801581E+03  0.10000000000E+01 0.  0.
    9000005    1    3    3    0    0 -0.54746326801E+02  0.24292300492E+02 -0.46567732576E+03  0.46951426803E+03  0.10000000000E+01 0.  0.
<mgrwt>
<rscale>  0 0.11714318E+03</rscale>
<asrwt>0</asrwt>
<pdfrwt beam="2">  1        2 0.23553871E+00 0.12626108E+03</pdfrwt>
<pdfrwt beam="1">  1       -2 0.12451453E-02 0.12626108E+03</pdfrwt>
<totfact> 0.19548840E+04</totfact>
</mgrwt>
</event>
<event>
 8    3  0.7944584E-004  0.1404038E+03  0.7818608E-02  0.1219036E+00
          2   -1    0    0  501    0  0.00000000000E+00  0.00000000000E+00  0.15492845617E+03  0.15492845619E+03  0.25500000000E-02 0. -1.
         -2   -1    0    0    0  501 -0.00000000000E+00 -0.00000000000E+00 -0.12162710426E+03  0.12162710429E+03  0.25500000000E-02 0.  1.
         25    2    1    2    0    0 -0.60725349442E+02 -0.20003905020E+02 -0.21202838921E+02  0.14199573296E+03  0.12500201406E+03 0.  0.
         23    2    1    2    0    0  0.60725349442E+02  0.20003905020E+02  0.54504190825E+02  0.13455982752E+03  0.10510906757E+03 0.  0.
        -13    1    4    4    0    0  0.57345692008E+02  0.18649595645E+02  0.84795081851E+02  0.10405072263E+03  0.10566000000E+00 0. -1.
         13    1    4    4    0    0  0.33796574335E+01  0.13543093747E+01 -0.30290891027E+02  0.30509104895E+02  0.10566000000E+00 0.  1.
    9000005    1    3    3    0    0 -0.16680485015E+02  0.28511453320E+02 -0.58061389673E+02  0.66807683103E+02  0.10000000000E+01 0.  0.
    9000005    1    3    3    0    0 -0.44044864427E+02 -0.48515358340E+02  0.36858550752E+02  0.75188049854E+02  0.10000000000E+01 0.  0.
<mgrwt>
<rscale>  0 0.13584206E+03</rscale>
<asrwt>0</asrwt>
<pdfrwt beam="1">  1        2 0.23835147E-01 0.14040380E+03</pdfrwt>
<pdfrwt beam="2">  1       -2 0.18711862E-01 0.14040380E+03</pdfrwt>
<totfact> 0.51180655E+03</totfact>
</mgrwt>
</event>
<event>
 8    3  0.7944584E-004  0.2985891E+03  0.7818608E-02  0.1087626E+00
          2   -1    0    0  501    0  0.00000000000E+00  0.00000000000E+00  0.44332981609E+03  0.44332981610E+03  0.25500000000E-02 0. -1.
         -2   -1    0    0    0  501 -0.00000000000E+00 -0.00000000000E+00 -0.22089612876E+03  0.22089612877E+03  0.25500000000E-02 0.  1.
         25    2    1    2    0    0 -0.10795074784E+03  0.24874878051E+03 -0.58344672378E+01  0.29864612389E+03  0.12500458609E+03 0.  0.
         23    2    1    2    0    0  0.10795074784E+03 -0.24874878051E+03  0.22826815457E+03  0.36557982098E+03  0.89515000742E+02 0.  0.
        -13    1    4    4    0    0  0.56632769077E+02 -0.19700565540E+03  0.20288230957E+03  0.28840898303E+03  0.10566000000E+00 0.  1.
         13    1    4    4    0    0  0.51317978759E+02 -0.51743125104E+02  0.25385844998E+02  0.77170837949E+02  0.10566000000E+00 0. -1.
    9000005    1    3    3    0    0 -0.51702677094E+01  0.81356734953E+02 -0.52214704369E+02  0.96814386032E+02  0.10000000000E+01 0.  0.
    9000005    1    3    3    0    0 -0.10278048013E+03  0.16739204555E+03  0.46380237131E+02  0.20183173786E+03  0.10000000000E+01 0.  0.
<mgrwt>
<rscale>  0 0.29527612E+03</rscale>
<asrwt>0</asrwt>
<pdfrwt beam="1">  1        2 0.68204586E-01 0.29858913E+03</pdfrwt>
<pdfrwt beam="2">  1       -2 0.33984020E-01 0.29858913E+03</pdfrwt>
<totfact> 0.58066686E+02</totfact>
</mgrwt>
</event>
<event>
 8    3  0.7944584E-004  0.1279369E+03  0.7818608E-02  0.1244790E+00
         -2   -1    0    0    0  501 -0.00000000000E+00  0.00000000000E+00  0.18771418294E+03  0.18771418296E+03  0.25500000000E-02 0.  1.
          2   -1    0    0  501    0  0.00000000000E+00 -0.00000000000E+00 -0.70928645139E+02  0.70928645185E+02  0.25500000000E-02 0. -1.
         25    2    1    2    0    0 -0.10807076443E+02  0.25012585767E+02  0.97904624720E+02  0.16109982630E+03  0.12500166457E+03 0.  0.
         23    2    1    2    0    0  0.10807076443E+02 -0.25012585767E+02  0.18880913081E+02  0.97543001839E+02  0.91737266043E+02 0.  0.
        -13    1    4    4    0    0  0.36002158854E+02 -0.41333658685E+02 -0.10190650522E+02  0.55753809776E+02  0.10566000000E+00 0. -1.
         13    1    4    4    0    0 -0.25195082411E+02  0.16321072918E+02  0.29071563603E+02  0.41789192063E+02  0.10566000000E+00 0.  1.
    9000005    1    3    3    0    0 -0.39235803662E+02  0.51266386178E+02  0.10350018473E+03  0.12198761773E+03  0.10000000000E+01 0.  0.
    9000005    1    3    3    0    0  0.28428727219E+02 -0.26253800411E+02 -0.55955600134E+01  0.39112208569E+02  0.10000000000E+01 0.  0.
<mgrwt>
<rscale>  0 0.11897966E+03</rscale>
<asrwt>0</asrwt>
<pdfrwt beam="2">  1        2 0.10912099E-01 0.12793685E+03</pdfrwt>
<pdfrwt beam="1">  1       -2 0.28879105E-01 0.12793685E+03</pdfrwt>
<totfact> 0.59467665E+03</totfact>
</mgrwt>
</event>
<event>
 8    3  0.7944584E-004  0.2100348E+03  0.7818608E-02  0.1146132E+00
          2   -1    0    0  501    0  0.00000000000E+00  0.00000000000E+00  0.24584544505E+03  0.24584544506E+03  0.25500000000E-02 0.  1.
         -2   -1    0    0    0  501 -0.00000000000E+00 -0.00000000000E+00 -0.16147704998E+03  0.16147705000E+03  0.25500000000E-02 0. -1.
         25    2    1    2    0    0 -0.82902997421E+02 -0.14702473912E+03  0.36514977107E+02  0.21318527421E+03  0.12500174676E+03 0.  0.
         23    2    1    2    0    0  0.82902997421E+02  0.14702473912E+03  0.47853417959E+02  0.19413722086E+03  0.83127191805E+02 0.  0.
        -13    1    4    4    0    0  0.91198743978E+02  0.83640307904E+02  0.24968617207E+02  0.12623927685E+03  0.10566000000E+00 0.  1.
         13    1    4    4    0    0 -0.82957465575E+01  0.63384431214E+02  0.22884800752E+02  0.67897944010E+02  0.10566000000E+00 0. -1.
    9000005    1    3    3    0    0  0.43223598089E+01  0.12875004594E+02 -0.18445627895E+02  0.22927924591E+02  0.10000000000E+01 0.  0.
    9000005    1    3    3    0    0 -0.87225357230E+02 -0.15989974371E+03  0.54960605002E+02  0.19025734962E+03  0.10000000000E+01 0.  0.
<mgrwt>
<rscale>  0 0.20433502E+03</rscale>
<asrwt>0</asrwt>
<pdfrwt beam="1">  1        2 0.37822376E-01 0.21003480E+03</pdfrwt>
<pdfrwt beam="2">  1       -2 0.24842623E-01 0.21003480E+03</pdfrwt>
<totfact> 0.19342899E+03</totfact>
</mgrwt>
</event>
<event>
 8    3  0.7944584E-004  0.1459275E+03  0.7818608E-02  0.1215589E+00
         -2   -1    0    0    0  501 -0.00000000000E+00  0.00000000000E+00  0.10625726331E+03  0.10625726334E+03  0.25500000000E-02 0.  1.
          2   -1    0    0  501    0  0.00000000000E+00 -0.00000000000E+00 -0.16776305887E+03  0.16776305889E+03  0.25500000000E-02 0. -1.
         25    2    1    2    0    0  0.71781024229E+02 -0.22740269704E+02 -0.55171633524E+02  0.15600879833E+03  0.12500080282E+03 0.  0.
         23    2    1    2    0    0 -0.71781024229E+02  0.22740269704E+02 -0.63341620341E+01  0.11801152389E+03  0.90647464707E+02 0.  0.
        -13    1    4    4    0    0 -0.71831628048E+02 -0.19776063706E+02 -0.10711311901E+02  0.75270305237E+02  0.10566000000E+00 0. -1.
         13    1    4    4    0    0  0.50603819139E-01  0.42516333410E+02  0.43771498672E+01  0.42741218658E+02  0.10566000000E+00 0.  1.
    9000005    1    3    3    0    0 -0.34528267880E+02  0.70768393155E+01 -0.17324028035E+02  0.39286192038E+02  0.10000000000E+01 0.  0.
    9000005    1    3    3    0    0  0.10630929211E+03 -0.29817109019E+02 -0.37847605489E+02  0.11672260629E+03  0.10000000000E+01 0.  0.
<mgrwt>
<rscale>  0 0.13833349E+03</rscale>
<asrwt>0</asrwt>
<pdfrwt beam="2">  1        2 0.25809701E-01 0.14592750E+03</pdfrwt>
<pdfrwt beam="1">  1       -2 0.16347271E-01 0.14592750E+03</pdfrwt>
<totfact> 0.58835191E+03</totfact>
</mgrwt>
</event>
<event>
 8    3  0.7944584E-004  0.1263198E+03  0.7818608E-02  0.1244875E+00
         -2   -1    0    0    0  501 -0.00000000000E+00  0.00000000000E+00  0.33770096421E+02  0.33770096517E+02  0.25500000000E-02 0. -1.
          2   -1    0    0  501    0  0.00000000000E+00 -0.00000000000E+00 -0.41753082646E+03  0.41753082646E+03  0.25500000000E-02 0.  1.
         25    2    1    2    0    0  0.17786052987E+02  0.41330104818E+01 -0.28277496144E+03  0.30970690282E+03  0.12499304533E+03 0.  0.
         23    2    1    2    0    0 -0.17786052987E+02 -0.41330104818E+01 -0.10098576859E+03  0.14159402016E+03  0.97556730314E+02 0.  0.
        -13    1    4    4    0    0 -0.46809158953E+02 -0.16047471051E+02 -0.98365840421E+02  0.11011116390E+03  0.10566000000E+00 0.  1.
         13    1    4    4    0    0  0.29023105966E+02  0.11914460569E+02 -0.26199281697E+01  0.31482856259E+02  0.10566000000E+00 0. -1.
    9000005    1    3    3    0    0 -0.16809465779E+02  0.31512059076E+02 -0.25515873154E+03  0.25764810554E+03  0.10000000000E+01 0.  0.
    9000005    1    3    3    0    0  0.34595518766E+02 -0.27379048594E+02 -0.27616229902E+02  0.52058797283E+02  0.10000000000E+01 0.  0.
<mgrwt>
<rscale>  0 0.11892883E+03</rscale>
<asrwt>0</asrwt>
<pdfrwt beam="2">  1        2 0.64235508E-01 0.12631978E+03</pdfrwt>
<pdfrwt beam="1">  1       -2 0.51953998E-02 0.12631978E+03</pdfrwt>
<totfact> 0.13212337E+04</totfact>
</mgrwt>
</event>
<event>
 8    3  0.7944584E-004  0.1673781E+03  0.7818608E-02  0.1187025E+00
          2   -1    0    0  501    0  0.00000000000E+00  0.00000000000E+00  0.96297748407E+02  0.96297748441E+02  0.25500000000E-02 0. -1.
         -2   -1    0    0    0  501 -0.00000000000E+00 -0.00000000000E+00 -0.34464882766E+03  0.34464882767E+03  0.25500000000E-02 0.  1.
         25    2    1    2    0    0 -0.98157888334E+02  0.52483787112E+02 -0.17467132057E+02  0.16828702912E+03  0.12500361801E+03 0.  0.
         23    2    1    2    0    0  0.98157888334E+02 -0.52483787112E+02 -0.23088394719E+03  0.27265954699E+03  0.92985550164E+02 0.  0.
        -13    1    4    4    0    0  0.99266390971E+02 -0.21986324946E+02 -0.21594226186E+03  0.23868030183E+03  0.10566000000E+00 0.  1.
         13    1    4    4    0    0 -0.11085026366E+01 -0.30497462166E+02 -0.14941685334E+02  0.33979245156E+02  0.10566000000E+00 0. -1.
    9000005    1    3    3    0    0 -0.47099384936E+02  0.50943861357E+02  0.48639975844E+02  0.84737691268E+02  0.10000000000E+01 0.  0.
    9000005    1    3    3    0    0 -0.51058503398E+02  0.15399257556E+01 -0.66107107901E+02  0.83549337853E+02  0.10000000000E+01 0.  0.
<mgrwt>
<rscale>  0 0.16148936E+03</rscale>
<asrwt>0</asrwt>
<pdfrwt beam="1">  1        2 0.14815038E-01 0.16737809E+03</pdfrwt>
<pdfrwt beam="2">  1       -2 0.53022896E-01 0.16737809E+03</pdfrwt>
<totfact> 0.13270476E+03</totfact>
</mgrwt>
</event>
<event>
 8    3  0.7944584E-004  0.1837672E+03  0.7818608E-02  0.1169625E+00
          2   -1    0    0  501    0  0.00000000000E+00  0.00000000000E+00  0.84975922102E+03  0.84975922102E+03  0.25500000000E-02 0.  1.
         -2   -1    0    0    0  501 -0.00000000000E+00 -0.00000000000E+00 -0.53014671106E+02  0.53014671167E+02  0.25500000000E-02 0. -1.
         25    2    1    2    0    0  0.71925381046E+01 -0.13451116956E+03  0.15367134880E+03  0.23955224213E+03  0.12500162369E+03 0.  0.
         23    2    1    2    0    0 -0.71925381046E+01  0.13451116956E+03  0.64307320111E+03  0.66322165006E+03  0.90414754231E+02 0.  0.
        -13    1    4    4    0    0  0.25458619004E+02  0.45873574216E+02  0.38198655727E+03  0.38557264840E+03  0.10566000000E+00 0.  1.
         13    1    4    4    0    0 -0.32651157109E+02  0.88637595346E+02  0.26108664384E+03  0.27764900166E+03  0.10566000000E+00 0. -1.
    9000005    1    3    3    0    0 -0.41372747986E+02 -0.10004298444E+03  0.48383154573E+02  0.11858428504E+03  0.10000000000E+01 0.  0.
    9000005    1    3    3    0    0  0.48565286091E+02 -0.34468185123E+02  0.10528819423E+03  0.12096795709E+03  0.10000000000E+01 0.  0.
<mgrwt>
<rscale>  0 0.17812973E+03</rscale>
<asrwt>0</asrwt>
<pdfrwt beam="1">  1        2 0.13073219E+00 0.18376723E+03</pdfrwt>
<pdfrwt beam="2">  1       -2 0.81561033E-02 0.18376723E+03</pdfrwt>
<totfact> 0.29778610E+03</totfact>
</mgrwt>
</event>
<event>
 8    3  0.7944584E-004  0.1813720E+03  0.7818608E-02  0.1172132E+00
          2   -1    0    0  501    0  0.00000000000E+00  0.00000000000E+00  0.11058160330E+03  0.11058160333E+03  0.25500000000E-02 0. -1.
         -2   -1    0    0    0  501 -0.00000000000E+00 -0.00000000000E+00 -0.26499427277E+03  0.26499427279E+03  0.25500000000E-02 0.  1.
         25    2    1    2    0    0  0.94326820958E+02  0.91504696023E+02 -0.10044427190E+03  0.20732789369E+03  0.12500058079E+03 0.  0.
         23    2    1    2    0    0 -0.94326820958E+02 -0.91504696023E+02 -0.53968397573E+02  0.16824798242E+03  0.90133995281E+02 0.  0.
        -13    1    4    4    0    0 -0.24666732845E+02 -0.40600412508E+02 -0.65806253273E+02  0.81162277808E+02  0.10566000000E+00 0.  1.
         13    1    4    4    0    0 -0.69660088113E+02 -0.50904283516E+02  0.11837855700E+02  0.87085704612E+02  0.10566000000E+00 0. -1.
    9000005    1    3    3    0    0  0.46976302322E+02  0.84793393644E+02 -0.96594837091E+00  0.96946509178E+02  0.10000000000E+01 0.  0.
    9000005    1    3    3    0    0  0.47350518636E+02  0.67113023794E+01 -0.99478323533E+02  0.11038138452E+03  0.10000000000E+01 0.  0.
<mgrwt>
<rscale>  0 0.17559849E+03</rscale>
<asrwt>0</asrwt>
<pdfrwt beam="1">  1        2 0.17012554E-01 0.18137200E+03</pdfrwt>
<pdfrwt beam="2">  1       -2 0.40768350E-01 0.18137200E+03</pdfrwt>
<totfact> 0.18940928E+03</totfact>
</mgrwt>
</event>
<event>
 8    3  0.7944584E-004  0.1551972E+03  0.7818608E-02  0.1202492E+00
          2   -1    0    0  501    0  0.00000000000E+00  0.00000000000E+00  0.13687071252E+04  0.13687071252E+04  0.25500000000E-02 0. -1.
         -2   -1    0    0    0  501 -0.00000000000E+00 -0.00000000000E+00 -0.16228927156E+02  0.16228927356E+02  0.25500000000E-02 0.  1.
         25    2    1    2    0    0  0.22139783674E+02  0.89290712717E+02  0.93504951152E+03  0.94784162472E+03  0.12499262040E+03 0.  0.
         23    2    1    2    0    0 -0.22139783674E+02 -0.89290712717E+02  0.41742868652E+03  0.43709442784E+03  0.91333614393E+02 0.  0.
        -13    1    4    4    0    0 -0.48048666022E+02 -0.76419490250E+02  0.37520091962E+03  0.38590718320E+03  0.10566000000E+00 0. -1.
         13    1    4    4    0    0  0.25908882348E+02 -0.12871222467E+02  0.42227766901E+02  0.51187244639E+02  0.10566000000E+00 0.  1.
    9000005    1    3    3    0    0  0.36657343441E+02  0.34125305029E+01  0.76700491811E+02  0.85084497040E+02  0.10000000000E+01 0.  0.
    9000005    1    3    3    0    0 -0.14517559767E+02  0.85878182214E+02  0.85834901971E+03  0.86275712768E+03  0.10000000000E+01 0.  0.
<mgrwt>
<rscale>  0 0.14836863E+03</rscale>
<asrwt>0</asrwt>
<pdfrwt beam="1">  1        2 0.21057038E+00 0.15519715E+03</pdfrwt>
<pdfrwt beam="2">  1       -2 0.24967575E-02 0.15519715E+03</pdfrwt>
<totfact> 0.87718569E+03</totfact>
</mgrwt>
</event>
<event>
 8    3  0.7944584E-004  0.2248937E+03  0.7818608E-02  0.1133540E+00
          2   -1    0    0  501    0  0.00000000000E+00  0.00000000000E+00  0.51905288200E+03  0.51905288200E+03  0.25500000000E-02 0. -1.
         -2   -1    0    0    0  501 -0.00000000000E+00 -0.00000000000E+00 -0.91245128822E+02  0.91245128858E+02  0.25500000000E-02 0.  1.
         25    2    1    2    0    0  0.94128749642E+02  0.16153011835E+03  0.18853917451E+03  0.29346923754E+03  0.12499988964E+03 0.  0.
         23    2    1    2    0    0 -0.94128749642E+02 -0.16153011835E+03  0.23926857866E+03  0.31682877332E+03  0.90436818977E+02 0.  0.
        -13    1    4    4    0    0 -0.46228116194E+01 -0.74419347402E+02  0.13459456822E+03  0.15386786088E+03  0.10566000000E+00 0.  1.
         13    1    4    4    0    0 -0.89505938022E+02 -0.87110770951E+02  0.10467401044E+03  0.16296091244E+03  0.10566000000E+00 0. -1.
    9000005    1    3    3    0    0  0.71853453096E+02  0.14147995677E+03  0.20501686540E+03  0.25925356697E+03  0.10000000000E+01 0.  0.
    9000005    1    3    3    0    0  0.22275296546E+02  0.20050161585E+02 -0.16477690881E+02  0.34215670570E+02  0.10000000000E+01 0.  0.
<mgrwt>
<rscale>  0 0.22046095E+03</rscale>
<asrwt>0</asrwt>
<pdfrwt beam="1">  1        2 0.79854291E-01 0.22489369E+03</pdfrwt>
<pdfrwt beam="2">  1       -2 0.14037712E-01 0.22489369E+03</pdfrwt>
<totfact> 0.22655385E+03</totfact>
</mgrwt>
</event>
<event>
 8    3  0.7944584E-004  0.1267469E+03  0.7818608E-02  0.1249377E+00
          2   -1    0    0  501    0  0.00000000000E+00  0.00000000000E+00  0.11210969779E+04  0.11210969779E+04  0.25500000000E-02 0.  1.
         -2   -1    0    0    0  501 -0.00000000000E+00 -0.00000000000E+00 -0.10780131736E+02  0.10780132037E+02  0.25500000000E-02 0. -1.
         25    2    1    2    0    0  0.20319252214E+02 -0.53109715645E+01  0.74428920651E+03  0.75500410894E+03  0.12499481252E+03 0.  0.
         23    2    1    2    0    0 -0.20319252214E+02  0.53109715645E+01  0.36602763965E+03  0.37687300099E+03  0.87269395917E+02 0.  0.
        -13    1    4    4    0    0  0.21143120219E+02  0.24410956378E+02  0.66955658205E+02  0.74337054378E+02  0.10566000000E+00 0. -1.
         13    1    4    4    0    0 -0.41462372434E+02 -0.19099984813E+02  0.29907198144E+03  0.30253594662E+03  0.10566000000E+00 0.  1.
    9000005    1    3    3    0    0  0.19678179993E+01 -0.87683110690E+01 -0.13398137798E+01  0.91406065250E+01  0.10000000000E+01 0.  0.
    9000005    1    3    3    0    0  0.18351434215E+02  0.34573395045E+01  0.74562902029E+03  0.74586350241E+03  0.10000000000E+01 0.  0.
<mgrwt>
<rscale>  0 0.11627194E+03</rscale>
<asrwt>0</asrwt>
<pdfrwt beam="1">  1        2 0.17247640E+00 0.12674692E+03</pdfrwt>
<pdfrwt beam="2">  1       -2 0.16584824E-02 0.12674692E+03</pdfrwt>
<totfact> 0.21489239E+04</totfact>
</mgrwt>
</event>
<event>
 8    3  0.7944584E-004  0.1292899E+03  0.7818608E-02  0.1242421E+00
         -2   -1    0    0    0  501 -0.00000000000E+00  0.00000000000E+00  0.13302494833E+02  0.13302495077E+02  0.25500000000E-02 0.  1.
          2   -1    0    0  501    0  0.00000000000E+00 -0.00000000000E+00 -0.12179542561E+04  0.12179542561E+04  0.25500000000E-02 0. -1.
         25    2    1    2    0    0 -0.32727232957E+02  0.44390648499E+01 -0.39122360273E+03  0.41203372366E+03  0.12500042007E+03 0.  0.
         23    2    1    2    0    0  0.32727232957E+02 -0.44390648499E+01 -0.81342815857E+03  0.81922302756E+03  0.91488920968E+02 0.  0.
        -13    1    4    4    0    0 -0.28648293632E+02 -0.46774878864E+01 -0.13845974563E+03  0.14146984112E+03  0.10566000000E+00 0.  1.
         13    1    4    4    0    0  0.61375526589E+02  0.23842303648E+00 -0.67496841293E+03  0.67775318644E+03  0.10566000000E+00 0. -1.
    9000005    1    3    3    0    0 -0.49914780972E+01 -0.59222315585E+02 -0.19668394483E+03  0.20546963686E+03  0.10000000000E+01 0.  0.
    9000005    1    3    3    0    0 -0.27735754860E+02  0.63661380435E+02 -0.19453965790E+03  0.20656408680E+03  0.10000000000E+01 0.  0.
<mgrwt>
<rscale>  0 0.12041085E+03</rscale>
<asrwt>0</asrwt>
<pdfrwt beam="2">  1        2 0.18737749E+00 0.12928991E+03</pdfrwt>
<pdfrwt beam="1">  1       -2 0.20465386E-02 0.12928991E+03</pdfrwt>
<totfact> 0.14019320E+04</totfact>
</mgrwt>
</event>
<event>
 8    3  0.7944584E-004  0.1686079E+03  0.7818608E-02  0.1185968E+00
          2   -1    0    0  501    0  0.00000000000E+00  0.00000000000E+00  0.22135333281E+04  0.22135333281E+04  0.25500000000E-02 0.  1.
         -2   -1    0    0    0  501 -0.00000000000E+00 -0.00000000000E+00 -0.11450956631E+02  0.11450956914E+02  0.25500000000E-02 0. -1.
         25    2    1    2    0    0  0.56980887274E+02  0.97747319033E+02  0.13674638535E+04  0.13778192931E+04  0.12500901500E+03 0.  0.
         23    2    1    2    0    0 -0.56980887274E+02 -0.97747319033E+02  0.83461851794E+03  0.84716499192E+03  0.91099358671E+02 0.  0.
        -13    1    4    4    0    0  0.20025581782E+02 -0.49572675742E+02  0.26365276836E+03  0.26901908396E+03  0.10566000000E+00 0.  1.
         13    1    4    4    0    0 -0.77006469057E+02 -0.48174643291E+02  0.57096574958E+03  0.57814590796E+03  0.10566000000E+00 0. -1.
    9000005    1    3    3    0    0  0.56254011764E+01 -0.28359545948E+02  0.36586385273E+03  0.36700581429E+03  0.10000000000E+01 0.  0.
    9000005    1    3    3    0    0  0.51355486098E+02  0.12610686498E+03  0.10016000008E+04  0.10108134788E+04  0.10000000000E+01 0.  0.
<mgrwt>
<rscale>  0 0.16244070E+03</rscale>
<asrwt>0</asrwt>
<pdfrwt beam="1">  1        2 0.34054361E+00 0.16860787E+03</pdfrwt>
<pdfrwt beam="2">  1       -2 0.17616856E-02 0.16860787E+03</pdfrwt>
<totfact> 0.53250300E+03</totfact>
</mgrwt>
</event>
<event>
 8    3  0.7944584E-004  0.1255888E+03  0.7818608E-02  0.1251156E+00
          2   -1    0    0  501    0  0.00000000000E+00  0.00000000000E+00  0.40982868610E+04  0.40982868610E+04  0.25500000000E-02 0. -1.
         -2   -1    0    0    0  501 -0.00000000000E+00 -0.00000000000E+00 -0.29999529426E+01  0.29999540264E+01  0.25500000000E-02 0.  1.
         25    2    1    2    0    0 -0.63419478007E+00  0.12206965179E+02  0.28828660247E+04  0.28856002946E+04  0.12499252581E+03 0.  0.
         23    2    1    2    0    0  0.63419478007E+00 -0.12206965179E+02  0.12124208834E+04  0.12156865205E+04  0.88203771994E+02 0.  0.
        -13    1    4    4    0    0 -0.52810088738E+01  0.18411681838E+02  0.63112195474E+02  0.65954828969E+02  0.10566000000E+00 0.  1.
         13    1    4    4    0    0  0.59152036538E+01 -0.30618647017E+02  0.11493086879E+04  0.11497316915E+04  0.10566000000E+00 0. -1.
    9000005    1    3    3    0    0 -0.19297463995E+02 -0.53602693653E+02  0.12299150167E+04  0.12312341732E+04  0.10000000000E+01 0.  0.
    9000005    1    3    3    0    0  0.18663269215E+02  0.65809658832E+02  0.16529510080E+04  0.16543661214E+04  0.10000000000E+01 0.  0.
<mgrwt>
<rscale>  0 0.11524382E+03</rscale>
<asrwt>0</asrwt>
<pdfrwt beam="1">  1        2 0.63050611E+00 0.12558879E+03</pdfrwt>
<pdfrwt beam="2">  1       -2 0.46153098E-03 0.12558879E+03</pdfrwt>
<totfact> 0.25269014E+03</totfact>
</mgrwt>
</event>
<event>
 8    3  0.7944584E-004  0.1678374E+03  0.7818608E-02  0.1186826E+00
          2   -1    0    0  501    0  0.00000000000E+00  0.00000000000E+00  0.21447307970E+03  0.21447307972E+03  0.25500000000E-02 0. -1.
         -2   -1    0    0    0  501 -0.00000000000E+00 -0.00000000000E+00 -0.15699234368E+03  0.15699234371E+03  0.25500000000E-02 0.  1.
         25    2    1    2    0    0 -0.13266275307E+02 -0.11119692503E+03 -0.67032901729E+02  0.18072849125E+03  0.12501450892E+03 0.  0.
         23    2    1    2    0    0  0.13266275307E+02  0.11119692503E+03  0.12451363775E+03  0.19073693217E+03  0.91302689511E+02 0.  0.
        -13    1    4    4    0    0  0.36325670209E+02  0.13847717085E+02  0.60675029964E+02  0.72060974250E+02  0.10566000000E+00 0. -1.
         13    1    4    4    0    0 -0.23059394902E+02  0.97349207941E+02  0.63838607781E+02  0.11867595792E+03  0.10566000000E+00 0.  1.
    9000005    1    3    3    0    0  0.25424244028E+02  0.19158991981E+02 -0.12096640508E+02  0.34070337094E+02  0.10000000000E+01 0.  0.
    9000005    1    3    3    0    0 -0.38690519335E+02 -0.13035591701E+03 -0.54936261221E+02  0.14665815416E+03  0.10000000000E+01 0.  0.
<mgrwt>
<rscale>  0 0.16166827E+03</rscale>
<asrwt>0</asrwt>
<pdfrwt beam="1">  1        2 0.32995858E-01 0.16783735E+03</pdfrwt>
<pdfrwt beam="2">  1       -2 0.24152668E-01 0.16783735E+03</pdfrwt>
<totfact> 0.23373937E+03</totfact>
</mgrwt>
</event>
<event>
 8    3  0.7944584E-004  0.1597408E+03  0.7818608E-02  0.1196483E+00
          2   -1    0    0  501    0  0.00000000000E+00  0.00000000000E+00  0.21023440183E+04  0.21023440183E+04  0.25500000000E-02 0. -1.
         -2   -1    0    0    0  501 -0.00000000000E+00 -0.00000000000E+00 -0.12347319388E+02  0.12347319651E+02  0.25500000000E-02 0.  1.
         25    2    1    2    0    0 -0.85301010461E+02 -0.51144890576E+02  0.69448626420E+03  0.71262072858E+03  0.12500027772E+03 0.  0.
         23    2    1    2    0    0  0.85301010461E+02  0.51144890576E+02  0.13955104347E+04  0.14020706094E+04  0.91981291785E+02 0.  0.
        -13    1    4    4    0    0  0.96580175706E+02  0.16165221994E+02  0.94331270439E+03  0.94838173441E+03  0.10566000000E+00 0. -1.
         13    1    4    4    0    0 -0.11279165245E+02  0.34979668582E+02  0.45219773033E+03  0.45368887496E+03  0.10566000000E+00 0.  1.
    9000005    1    3    3    0    0 -0.34687580630E+01  0.37972103453E+02  0.19429947635E+03  0.19800807921E+03  0.10000000000E+01 0.  0.
    9000005    1    3    3    0    0 -0.81832252398E+02 -0.89116994029E+02  0.50018678785E+03  0.51461264938E+03  0.10000000000E+01 0.  0.
<mgrwt>
<rscale>  0 0.15329366E+03</rscale>
<asrwt>0</asrwt>
<pdfrwt beam="1">  1        2 0.32343704E+00 0.15974083E+03</pdfrwt>
<pdfrwt beam="2">  1       -2 0.18995905E-02 0.15974083E+03</pdfrwt>
<totfact> 0.54489720E+03</totfact>
</mgrwt>
</event>
<event>
 8    3  0.7944584E-004  0.1663726E+03  0.7818608E-02  0.1189596E+00
         -2   -1    0    0    0  501 -0.00000000000E+00  0.00000000000E+00  0.39053492427E+02  0.39053492510E+02  0.25500000000E-02 0.  1.
          2   -1    0    0  501    0  0.00000000000E+00 -0.00000000000E+00 -0.61132871222E+03  0.61132871222E+03  0.25500000000E-02 0. -1.
         25    2    1    2    0    0  0.74941717883E+02 -0.80234195627E+02 -0.26462409300E+03  0.31257918961E+03  0.12500420776E+03 0.  0.
         23    2    1    2    0    0 -0.74941717883E+02  0.80234195627E+02 -0.30765112679E+03  0.33780301512E+03  0.86069007083E+02 0.  0.
        -13    1    4    4    0    0 -0.91150446151E+02  0.61984284423E+02 -0.28002026025E+03  0.30093489771E+03  0.10566000000E+00 0. -1.
         13    1    4    4    0    0  0.16208728268E+02  0.18249911205E+02 -0.27630866547E+02  0.36868117409E+02  0.10566000000E+00 0.  1.
    9000005    1    3    3    0    0  0.42619131958E+01  0.16322407809E+02  0.49744300398E+01  0.17616181624E+02  0.10000000000E+01 0.  0.
    9000005    1    3    3    0    0  0.70679804687E+02 -0.96556603436E+02 -0.26959852304E+03  0.29496300799E+03  0.10000000000E+01 0.  0.
<mgrwt>
<rscale>  0 0.15920578E+03</rscale>
<asrwt>0</asrwt>
<pdfrwt beam="2">  1        2 0.94050564E-01 0.16637259E+03</pdfrwt>
<pdfrwt beam="1">  1       -2 0.60082301E-02 0.16637259E+03</pdfrwt>
<totfact> 0.70859394E+03</totfact>
</mgrwt>
</event>
<event>
 8    3  0.7944584E-004  0.1304201E+03  0.7818608E-02  0.1242381E+00
         -2   -1    0    0    0  501 -0.00000000000E+00  0.00000000000E+00  0.23247720786E+02  0.23247720925E+02  0.25500000000E-02 0.  1.
          2   -1    0    0  501    0  0.00000000000E+00 -0.00000000000E+00 -0.62673622316E+03  0.62673622317E+03  0.25500000000E-02 0. -1.
         25    2    1    2    0    0 -0.17545034157E+02  0.32808570611E+02 -0.45885867173E+03  0.47703319708E+03  0.12500063987E+03 0.  0.
         23    2    1    2    0    0  0.17545034157E+02 -0.32808570611E+02 -0.14462983065E+03  0.17295074701E+03  0.87234984090E+02 0.  0.
        -13    1    4    4    0    0  0.42893742576E+02  0.79765199422E+01 -0.46871065661E+02  0.64034412489E+02  0.10566000000E+00 0.  1.
         13    1    4    4    0    0 -0.25348708419E+02 -0.40785090553E+02 -0.97758764984E+02  0.10891633452E+03  0.10566000000E+00 0. -1.
    9000005    1    3    3    0    0 -0.66323452524E+02 -0.77324481028E+01 -0.24868918382E+03  0.25749932283E+03  0.10000000000E+01 0.  0.
    9000005    1    3    3    0    0  0.48778418367E+02  0.40541018713E+02 -0.21016948791E+03  0.21953387425E+03  0.10000000000E+01 0.  0.
<mgrwt>
<rscale>  0 0.12043520E+03</rscale>
<asrwt>0</asrwt>
<pdfrwt beam="2">  1        2 0.96420945E-01 0.13042005E+03</pdfrwt>
<pdfrwt beam="1">  1       -2 0.35765729E-02 0.13042005E+03</pdfrwt>
<totfact> 0.14757508E+04</totfact>
</mgrwt>
</event>
<event>
 8    3  0.7944584E-004  0.1278404E+03  0.7818608E-02  0.1245344E+00
          2   -1    0    0  501    0  0.00000000000E+00  0.00000000000E+00  0.14726657908E+03  0.14726657910E+03  0.25500000000E-02 0. -1.
         -2   -1    0    0    0  501 -0.00000000000E+00 -0.00000000000E+00 -0.88134511627E+02  0.88134511664E+02  0.25500000000E-02 0.  1.
         25    2    1    2    0    0 -0.26201987364E+02  0.59038571994E+01  0.91004419809E+01  0.12816394851E+03  0.12498711927E+03 0.  0.
         23    2    1    2    0    0  0.26201987364E+02 -0.59038571994E+01  0.50031625472E+02  0.10723714225E+03  0.90968354167E+02 0.  0.
        -13    1    4    4    0    0  0.42603988740E+02  0.31616883212E+02  0.21087671880E+02  0.57091402417E+02  0.10566000000E+00 0.  1.
         13    1    4    4    0    0 -0.16402001376E+02 -0.37520740412E+02  0.28943953592E+02  0.50145739837E+02  0.10566000000E+00 0. -1.
    9000005    1    3    3    0    0 -0.30618551666E+02  0.52042964425E+02  0.40012197050E+02  0.72442679168E+02  0.10000000000E+01 0.  0.
    9000005    1    3    3    0    0  0.44165643026E+01 -0.46139107226E+02 -0.30911755069E+02  0.55721269344E+02  0.10000000000E+01 0.  0.
<mgrwt>
<rscale>  0 0.11864823E+03</rscale>
<asrwt>0</asrwt>
<pdfrwt beam="1">  1        2 0.22656397E-01 0.12784045E+03</pdfrwt>
<pdfrwt beam="2">  1       -2 0.13559156E-01 0.12784045E+03</pdfrwt>
<totfact> 0.91371280E+03</totfact>
</mgrwt>
</event>
<event>
 8    3  0.7944584E-004  0.1261445E+03  0.7818608E-02  0.1248960E+00
          2   -1    0    0  501    0  0.00000000000E+00  0.00000000000E+00  0.16741238852E+04  0.16741238853E+04  0.25500000000E-02 0. -1.
         -2   -1    0    0    0  501 -0.00000000000E+00 -0.00000000000E+00 -0.84627423299E+01  0.84627427141E+01  0.25500000000E-02 0.  1.
         25    2    1    2    0    0  0.13612643851E+02 -0.10214825106E+02  0.60802062259E+03  0.62096820839E+03  0.12499116617E+03 0.  0.
         23    2    1    2    0    0 -0.13612643851E+02  0.10214825106E+02  0.10576405203E+04  0.10616184196E+04  0.90225006514E+02 0.  0.
        -13    1    4    4    0    0 -0.26322966582E+01 -0.26350013971E+02  0.85516809698E+03  0.85557801367E+03  0.10566000000E+00 0. -1.
         13    1    4    4    0    0 -0.10980347193E+02  0.36564839077E+02  0.20247242335E+03  0.20604040590E+03  0.10566000000E+00 0.  1.
    9000005    1    3    3    0    0  0.48418650623E+02 -0.50271105152E+02  0.27371109444E+03  0.28247179144E+03  0.10000000000E+01 0.  0.
    9000005    1    3    3    0    0 -0.34806006772E+02  0.40056280047E+02  0.33430952815E+03  0.33849641695E+03  0.10000000000E+01 0.  0.
<mgrwt>
<rscale>  0 0.11651477E+03</rscale>
<asrwt>0</asrwt>
<pdfrwt beam="1">  1        2 0.25755756E+00 0.12614451E+03</pdfrwt>
<pdfrwt beam="2">  1       -2 0.13019602E-02 0.12614451E+03</pdfrwt>
<totfact> 0.15479498E+04</totfact>
</mgrwt>
</event>
<event>
 8    3  0.7944584E-004  0.1352476E+03  0.7818608E-02  0.1233239E+00
         -2   -1    0    0    0  501 -0.00000000000E+00  0.00000000000E+00  0.16970003075E+02  0.16970003266E+02  0.25500000000E-02 0.  1.
          2   -1    0    0  501    0  0.00000000000E+00 -0.00000000000E+00 -0.10546219465E+04  0.10546219465E+04  0.25500000000E-02 0. -1.
         25    2    1    2    0    0 -0.50305963757E+02  0.11687022020E+02 -0.81939276192E+03  0.83047962030E+03  0.12499849990E+03 0.  0.
         23    2    1    2    0    0  0.50305963757E+02 -0.11687022020E+02 -0.21825918156E+03  0.24111232952E+03  0.88491856341E+02 0.  0.
        -13    1    4    4    0    0  0.63216993648E+01 -0.25294416528E+02 -0.17815847365E+03  0.18005616981E+03  0.10566000000E+00 0. -1.
         13    1    4    4    0    0  0.43984264392E+02  0.13607394508E+02 -0.40100707909E+02  0.61056159708E+02  0.10566000000E+00 0.  1.
    9000005    1    3    3    0    0 -0.61155485680E+02 -0.29188907505E+02 -0.23553261797E+03  0.24508896319E+03  0.10000000000E+01 0.  0.
    9000005    1    3    3    0    0  0.10849521923E+02  0.40875929526E+02 -0.58386014394E+03  0.58539065710E+03  0.10000000000E+01 0.  0.
<mgrwt>
<rscale>  0 0.12617864E+03</rscale>
<asrwt>0</asrwt>
<pdfrwt beam="2">  1        2 0.16224948E+00 0.13524756E+03</pdfrwt>
<pdfrwt beam="1">  1       -2 0.26107705E-02 0.13524756E+03</pdfrwt>
<totfact> 0.12192315E+04</totfact>
</mgrwt>
</event>
<event>
 8    3  0.7944584E-004  0.1630723E+03  0.7818608E-02  0.1192439E+00
         -2   -1    0    0    0  501 -0.00000000000E+00  0.00000000000E+00  0.46592200660E+03  0.46592200660E+03  0.25500000000E-02 0.  1.
          2   -1    0    0  501    0  0.00000000000E+00 -0.00000000000E+00 -0.55477338501E+02  0.55477338559E+02  0.25500000000E-02 0. -1.
         25    2    1    2    0    0 -0.10107785074E+03 -0.27470043010E+02  0.13079277064E+03  0.20904387103E+03  0.12498502307E+03 0.  0.
         23    2    1    2    0    0  0.10107785074E+03  0.27470043010E+02  0.27965189746E+03  0.31235547413E+03  0.91593795067E+02 0.  0.
        -13    1    4    4    0    0  0.72766445455E+02  0.17818087176E+02  0.27107745274E+03  0.28123910887E+03  0.10566000000E+00 0.  1.
         13    1    4    4    0    0  0.28311405281E+02  0.96519558336E+01  0.85744447229E+01  0.31116365256E+02  0.10566000000E+00 0. -1.
    9000005    1    3    3    0    0 -0.79142058739E+02 -0.45501582835E+02  0.14939549074E+03  0.17508247244E+03  0.10000000000E+01 0.  0.
    9000005    1    3    3    0    0 -0.21935791997E+02  0.18031539825E+02 -0.18602720104E+02  0.33961398591E+02  0.10000000000E+01 0.  0.
<mgrwt>
<rscale>  0 0.15672943E+03</rscale>
<asrwt>0</asrwt>
<pdfrwt beam="2">  1        2 0.85349751E-02 0.16307235E+03</pdfrwt>
<pdfrwt beam="1">  1       -2 0.71680309E-01 0.16307235E+03</pdfrwt>
<totfact> 0.13881670E+03</totfact>
</mgrwt>
</event>
<event>
 8    3  0.7944584E-004  0.1392467E+03  0.7818608E-02  0.1226798E+00
          2   -1    0    0  501    0  0.00000000000E+00  0.00000000000E+00  0.12688850329E+04  0.12688850329E+04  0.25500000000E-02 0. -1.
         -2   -1    0    0    0  501 -0.00000000000E+00 -0.00000000000E+00 -0.11971267944E+02  0.11971268216E+02  0.25500000000E-02 0.  1.
         25    2    1    2    0    0 -0.36098263459E+02  0.49612234900E+02  0.70346773287E+03  0.71711679432E+03  0.12500074815E+03 0.  0.
         23    2    1    2    0    0  0.36098263459E+02 -0.49612234900E+02  0.55344603204E+03  0.56373950675E+03  0.87950341720E+02 0.  0.
        -13    1    4    4    0    0  0.13834349105E+02  0.18799186979E+02  0.50008714374E+02  0.55187691777E+02  0.10566000000E+00 0.  1.
         13    1    4    4    0    0  0.22263914354E+02 -0.68411421879E+02  0.50343731767E+03  0.50855181497E+03  0.10566000000E+00 0. -1.
    9000005    1    3    3    0    0 -0.70034799818E+01 -0.21222487109E+02  0.48677953686E+03  0.48729329997E+03  0.10000000000E+01 0.  0.
    9000005    1    3    3    0    0 -0.29094783477E+02  0.70834722009E+02  0.21668819601E+03  0.22982349436E+03  0.10000000000E+01 0.  0.
<mgrwt>
<rscale>  0 0.13044415E+03</rscale>
<asrwt>0</asrwt>
<pdfrwt beam="1">  1        2 0.19521300E+00 0.13924671E+03</pdfrwt>
<pdfrwt beam="2">  1       -2 0.18417343E-02 0.13924671E+03</pdfrwt>
<totfact> 0.15388731E+04</totfact>
</mgrwt>
</event>
<event>
 8    3  0.7944584E-004  0.1264643E+03  0.7818608E-02  0.1248401E+00
          2   -1    0    0  501    0  0.00000000000E+00  0.00000000000E+00  0.15252448375E+02  0.15252448588E+02  0.25500000000E-02 0. -1.
         -2   -1    0    0    0  501 -0.00000000000E+00 -0.00000000000E+00 -0.89041428086E+03  0.89041428086E+03  0.25500000000E-02 0.  1.
         25    2    1    2    0    0  0.18298341658E+02 -0.57505811793E+01 -0.65333644819E+03  0.66546355747E+03  0.12500133318E+03 0.  0.
         23    2    1    2    0    0 -0.18298341658E+02  0.57505811793E+01 -0.22182538430E+03  0.24020317198E+03  0.90128598240E+02 0.  0.
        -13    1    4    4    0    0 -0.46606788859E+02  0.10492385952E+01 -0.19642076853E+03  0.20187724771E+03  0.10566000000E+00 0.  1.
         13    1    4    4    0    0  0.28308447201E+02  0.47013425840E+01 -0.25404615768E+02  0.38325924273E+02  0.10566000000E+00 0. -1.
    9000005    1    3    3    0    0 -0.22127824483E+02 -0.56061331546E+02 -0.26243901588E+03  0.26927263242E+03  0.10000000000E+01 0.  0.
    9000005    1    3    3    0    0  0.40426166141E+02  0.50310750366E+02 -0.39089743231E+03  0.39619092505E+03  0.10000000000E+01 0.  0.
<mgrwt>
<rscale>  0 0.11684129E+03</rscale>
<asrwt>0</asrwt>
<pdfrwt beam="1">  1        2 0.23465312E-02 0.12646435E+03</pdfrwt>
<pdfrwt beam="2">  1       -2 0.13698677E+00 0.12646435E+03</pdfrwt>
<totfact> 0.16775768E+03</totfact>
</mgrwt>
</event>
<event>
 8    3  0.7944584E-004  0.1798461E+03  0.7818608E-02  0.1173474E+00
         -2   -1    0    0    0  501 -0.00000000000E+00  0.00000000000E+00  0.55456114765E+02  0.55456114824E+02  0.25500000000E-02 0.  1.
          2   -1    0    0  501    0  0.00000000000E+00 -0.00000000000E+00 -0.57361931667E+03  0.57361931668E+03  0.25500000000E-02 0. -1.
         25    2    1    2    0    0 -0.12855227023E+03  0.13914604113E+02 -0.37312937960E+03  0.41421027937E+03  0.12500127692E+03 0.  0.
         23    2    1    2    0    0  0.12855227023E+03 -0.13914604113E+02 -0.14503382231E+03  0.21486515213E+03  0.91721979898E+02 0.  0.
        -13    1    4    4    0    0  0.50584135092E+02 -0.18824048361E+02 -0.12201868526E+03  0.13342289997E+03  0.10566000000E+00 0. -1.
         13    1    4    4    0    0  0.77968135136E+02  0.49094442472E+01 -0.23015137054E+02  0.81442252161E+02  0.10566000000E+00 0.  1.
    9000005    1    3    3    0    0 -0.37791295904E+02  0.45600244082E+02 -0.51403743820E+02  0.78427732246E+02  0.10000000000E+01 0.  0.
    9000005    1    3    3    0    0 -0.90760974325E+02 -0.31685639969E+02 -0.32172563578E+03  0.33578254713E+03  0.10000000000E+01 0.  0.
<mgrwt>
<rscale>  0 0.17426278E+03</rscale>
<asrwt>0</asrwt>
<pdfrwt beam="2">  1        2 0.88249121E-01 0.17984611E+03</pdfrwt>
<pdfrwt beam="1">  1       -2 0.85317104E-02 0.17984611E+03</pdfrwt>
<totfact> 0.44541893E+03</totfact>
</mgrwt>
</event>
<event>
 8    3  0.7944584E-004  0.1333824E+03  0.7818608E-02  0.1235972E+00
          2   -1    0    0  501    0  0.00000000000E+00  0.00000000000E+00  0.16467401635E+03  0.16467401636E+03  0.25500000000E-02 0. -1.
         -2   -1    0    0    0  501 -0.00000000000E+00 -0.00000000000E+00 -0.10117024375E+03  0.10117024378E+03  0.25500000000E-02 0.  1.
         25    2    1    2    0    0  0.46461141395E+02  0.27269240228E+01 -0.19900187661E+02  0.13485876753E+03  0.12499918375E+03 0.  0.
         23    2    1    2    0    0 -0.46461141395E+02 -0.27269240228E+01  0.83403960259E+02  0.13098549261E+03  0.89637631123E+02 0.  0.
        -13    1    4    4    0    0  0.19221642053E+02 -0.17627371330E+02  0.32366271415E+01  0.26280842119E+02  0.10566000000E+00 0.  1.
         13    1    4    4    0    0 -0.65682783448E+02  0.14900447307E+02  0.80167333117E+02  0.10470465049E+03  0.10566000000E+00 0. -1.
    9000005    1    3    3    0    0  0.89682991265E+02  0.54417733553E+01 -0.98685143925E+01  0.90393801755E+02  0.10000000000E+01 0.  0.
    9000005    1    3    3    0    0 -0.43221849869E+02 -0.27148493326E+01 -0.10031673268E+02  0.44464965778E+02  0.10000000000E+01 0.  0.
<mgrwt>
<rscale>  0 0.12442400E+03</rscale>
<asrwt>0</asrwt>
<pdfrwt beam="1">  1        2 0.25334464E-01 0.13338242E+03</pdfrwt>
<pdfrwt beam="2">  1       -2 0.15564653E-01 0.13338242E+03</pdfrwt>
<totfact> 0.64719129E+03</totfact>
</mgrwt>
</event>
<event>
 8    3  0.7944584E-004  0.1449967E+03  0.7818608E-02  0.1218974E+00
          2   -1    0    0  501    0  0.00000000000E+00  0.00000000000E+00  0.15375142982E+03  0.15375142985E+03  0.25500000000E-02 0.  1.
         -2   -1    0    0    0  501 -0.00000000000E+00 -0.00000000000E+00 -0.12832876519E+03  0.12832876522E+03  0.25500000000E-02 0. -1.
         25    2    1    2    0    0  0.17943632173E+02  0.71261974730E+02 -0.42658707011E+02  0.15114169794E+03  0.12499521829E+03 0.  0.
         23    2    1    2    0    0 -0.17943632173E+02 -0.71261974730E+02  0.68081371646E+02  0.13093849712E+03  0.84318289150E+02 0.  0.
        -13    1    4    4    0    0  0.72500179222E+01 -0.21944092257E+02  0.71805494910E+02  0.75433057794E+02  0.10566000000E+00 0.  1.
         13    1    4    4    0    0 -0.25193650095E+02 -0.49317882473E+02 -0.37241232641E+01  0.55505439327E+02  0.10566000000E+00 0. -1.
    9000005    1    3    3    0    0  0.65112628520E+02  0.10111487717E+02 -0.76523619371E+01  0.66343464033E+02  0.10000000000E+01 0.  0.
    9000005    1    3    3    0    0 -0.47168996347E+02  0.61150487013E+02 -0.35006345074E+02  0.84798233907E+02  0.10000000000E+01 0.  0.
<mgrwt>
<rscale>  0 0.13588609E+03</rscale>
<asrwt>0</asrwt>
<pdfrwt beam="1">  1        2 0.23654066E-01 0.14499672E+03</pdfrwt>
<pdfrwt beam="2">  1       -2 0.19742887E-01 0.14499672E+03</pdfrwt>
<totfact> 0.47247344E+03</totfact>
</mgrwt>
</event>
<event>
 8    3  0.7944584E-004  0.1599614E+03  0.7818608E-02  0.1198087E+00
         -2   -1    0    0    0  501 -0.00000000000E+00  0.00000000000E+00  0.25047655381E+02  0.25047655511E+02  0.25500000000E-02 0.  1.
          2   -1    0    0  501    0  0.00000000000E+00 -0.00000000000E+00 -0.84289464731E+03  0.84289464732E+03  0.25500000000E-02 0. -1.
         25    2    1    2    0    0  0.95605541392E+02 -0.28673603070E+02 -0.47236004237E+03  0.49870998555E+03  0.12500018001E+03 0.  0.
         23    2    1    2    0    0 -0.95605541392E+02  0.28673603070E+02 -0.34548694956E+03  0.36923231728E+03  0.83717840073E+02 0.  0.
        -13    1    4    4    0    0 -0.53256573576E+01  0.60012923636E+01 -0.17338351494E+03  0.17356910023E+03  0.10566000000E+00 0. -1.
         13    1    4    4    0    0 -0.90279884035E+02  0.22672310706E+02 -0.17210343462E+03  0.19566321705E+03  0.10566000000E+00 0.  1.
    9000005    1    3    3    0    0  0.93507426485E+02  0.19346295044E+02 -0.40403093949E+03  0.41516251999E+03  0.10000000000E+01 0.  0.
    9000005    1    3    3    0    0  0.20981149076E+01 -0.48019898114E+02 -0.68329102879E+02  0.83547465559E+02  0.10000000000E+01 0.  0.
<mgrwt>
<rscale>  0 0.15195872E+03</rscale>
<asrwt>0</asrwt>
<pdfrwt beam="2">  1        2 0.12967608E+00 0.15996137E+03</pdfrwt>
<pdfrwt beam="1">  1       -2 0.38534861E-02 0.15996137E+03</pdfrwt>
<totfact> 0.93608667E+03</totfact>
</mgrwt>
</event>
<event>
 8    3  0.7944584E-004  0.2200704E+03  0.7818608E-02  0.1137224E+00
         -2   -1    0    0    0  501 -0.00000000000E+00  0.00000000000E+00  0.40960616959E+02  0.40960617039E+02  0.25500000000E-02 0.  1.
          2   -1    0    0  501    0  0.00000000000E+00 -0.00000000000E+00 -0.10911170782E+04  0.10911170782E+04  0.25500000000E-02 0. -1.
         25    2    1    2    0    0 -0.83859427976E+02  0.16053913018E+03 -0.55908494974E+03  0.60083854814E+03  0.12500305568E+03 0.  0.
         23    2    1    2    0    0  0.83859427976E+02 -0.16053913018E+03 -0.49107151150E+03  0.53123914709E+03  0.90876762840E+02 0.  0.
        -13    1    4    4    0    0  0.48870866714E+02 -0.15522265314E+02 -0.94115346937E+02  0.10717747910E+03  0.10566000000E+00 0. -1.
         13    1    4    4    0    0  0.34988561261E+02 -0.14501686486E+03 -0.39695616456E+03  0.42406166799E+03  0.10566000000E+00 0.  1.
    9000005    1    3    3    0    0 -0.75617093488E+02  0.81141305961E+02 -0.16544726699E+03  0.19918748584E+03  0.10000000000E+01 0.  0.
    9000005    1    3    3    0    0 -0.82423344880E+01  0.79397824216E+02 -0.39363768275E+03  0.40165106230E+03  0.10000000000E+01 0.  0.
<mgrwt>
<rscale>  0 0.21557759E+03</rscale>
<asrwt>0</asrwt>
<pdfrwt beam="2">  1        2 0.16786414E+00 0.22007040E+03</pdfrwt>
<pdfrwt beam="1">  1       -2 0.63016342E-02 0.22007040E+03</pdfrwt>
<totfact> 0.31586504E+03</totfact>
</mgrwt>
</event>
<event>
 8    3  0.7944584E-004  0.1460535E+03  0.7818608E-02  0.1216677E+00
          2   -1    0    0  501    0  0.00000000000E+00  0.00000000000E+00  0.36095909561E+02  0.36095909651E+02  0.25500000000E-02 0.  1.
         -2   -1    0    0    0  501 -0.00000000000E+00 -0.00000000000E+00 -0.50806501425E+03  0.50806501426E+03  0.25500000000E-02 0. -1.
         25    2    1    2    0    0 -0.19951441092E+02 -0.72850874801E+02 -0.33466079403E+03  0.36514307865E+03  0.12500524333E+03 0.  0.
         23    2    1    2    0    0  0.19951441092E+02  0.72850874801E+02 -0.13730831066E+03  0.17901784526E+03  0.86536158831E+02 0.  0.
        -13    1    4    4    0    0  0.23395390708E+01  0.28309179272E+02  0.50201988100E+01  0.28846085250E+02  0.10566000000E+00 0.  1.
         13    1    4    4    0    0  0.17611902021E+02  0.44541695529E+02 -0.14232850947E+03  0.15017176001E+03  0.10566000000E+00 0. -1.
    9000005    1    3    3    0    0 -0.62994100115E+01 -0.99112007751E+02 -0.31320052478E+03  0.32857029898E+03  0.10000000000E+01 0.  0.
    9000005    1    3    3    0    0 -0.13652031080E+02  0.26261132950E+02 -0.21460269250E+02  0.36572779669E+02  0.10000000000E+01 0.  0.
<mgrwt>
<rscale>  0 0.13754039E+03</rscale>
<asrwt>0</asrwt>
<pdfrwt beam="1">  1        2 0.55532172E-02 0.14605349E+03</pdfrwt>
<pdfrwt beam="2">  1       -2 0.78163843E-01 0.14605349E+03</pdfrwt>
<totfact> 0.19819422E+03</totfact>
</mgrwt>
</event>
<event>
 8    3  0.7944584E-004  0.1285622E+03  0.7818608E-02  0.1243326E+00
         -2   -1    0    0    0  501 -0.00000000000E+00  0.00000000000E+00  0.10227883907E+02  0.10227884224E+02  0.25500000000E-02 0.  1.
          2   -1    0    0  501    0  0.00000000000E+00 -0.00000000000E+00 -0.12636634122E+04  0.12636634122E+04  0.25500000000E-02 0. -1.
         25    2    1    2    0    0 -0.36921697396E+01  0.29821496778E+02 -0.78913563100E+03  0.79953942687E+03  0.12500118881E+03 0.  0.
         23    2    1    2    0    0  0.36921697396E+01 -0.29821496778E+02 -0.46429989733E+03  0.47435186960E+03  0.92370708276E+02 0.  0.
        -13    1    4    4    0    0 -0.37024330544E+02 -0.25868650744E+02 -0.35097973190E+03  0.35387394862E+03  0.10566000000E+00 0. -1.
         13    1    4    4    0    0  0.40716500284E+02 -0.39528460349E+01 -0.11332016543E+03  0.12047792098E+03  0.10566000000E+00 0.  1.
    9000005    1    3    3    0    0 -0.27263430423E+02  0.72281757975E+02 -0.56059820058E+03  0.56589688960E+03  0.10000000000E+01 0.  0.
    9000005    1    3    3    0    0  0.23571260684E+02 -0.42460261196E+02 -0.22853743043E+03  0.23364253726E+03  0.10000000000E+01 0.  0.
<mgrwt>
<rscale>  0 0.11986146E+03</rscale>
<asrwt>0</asrwt>
<pdfrwt beam="2">  1        2 0.19440963E+00 0.12856225E+03</pdfrwt>
<pdfrwt beam="1">  1       -2 0.15735216E-02 0.12856225E+03</pdfrwt>
<totfact> 0.19349751E+04</totfact>
</mgrwt>
</event>
<event>
 8    3  0.7944584E-004  0.2479492E+03  0.7818608E-02  0.1116981E+00
         -2   -1    0    0    0  501 -0.00000000000E+00  0.00000000000E+00  0.10544074771E+03  0.10544074774E+03  0.25500000000E-02 0.  1.
          2   -1    0    0  501    0  0.00000000000E+00 -0.00000000000E+00 -0.86734682281E+03  0.86734682282E+03  0.25500000000E-02 0. -1.
         25    2    1    2    0    0  0.74505316633E+01  0.21400569798E+03 -0.68243758351E+03  0.72608529866E+03  0.12499942541E+03 0.  0.
         23    2    1    2    0    0 -0.74505316633E+01 -0.21400569798E+03 -0.79468491593E+02  0.24670227190E+03  0.93235297036E+02 0.  0.
        -13    1    4    4    0    0  0.28694818587E+02 -0.68680476158E+02  0.52993290075E+01  0.74622345655E+02  0.10566000000E+00 0.  1.
         13    1    4    4    0    0 -0.36145350251E+02 -0.14532522182E+03 -0.84767820601E+02  0.17207992624E+03  0.10566000000E+00 0. -1.
    9000005    1    3    3    0    0 -0.31857605139E+02  0.17239879534E+03 -0.38293826269E+03  0.42116382166E+03  0.10000000000E+01 0.  0.
    9000005    1    3    3    0    0  0.39308136802E+02  0.41606902640E+02 -0.29949932082E+03  0.30492147700E+03  0.10000000000E+01 0.  0.
<mgrwt>
<rscale>  0 0.24426889E+03</rscale>
<asrwt>0</asrwt>
<pdfrwt beam="2">  1        2 0.13343797E+00 0.24794920E+03</pdfrwt>
<pdfrwt beam="1">  1       -2 0.16221654E-01 0.24794920E+03</pdfrwt>
<totfact> 0.96105875E+02</totfact>
</mgrwt>
</event>
<event>
 8    3  0.7944584E-004  0.1412755E+03  0.7818608E-02  0.1222638E+00
          2   -1    0    0  501    0  0.00000000000E+00  0.00000000000E+00  0.25562479828E+03  0.25562479829E+03  0.25500000000E-02 0.  1.
         -2   -1    0    0    0  501 -0.00000000000E+00 -0.00000000000E+00 -0.74947782588E+02  0.74947782631E+02  0.25500000000E-02 0. -1.
         25    2    1    2    0    0  0.25106242533E+02 -0.60958444210E+02  0.32714310272E+02  0.14501377707E+03  0.12495004646E+03 0.  0.
         23    2    1    2    0    0 -0.25106242533E+02  0.60958444210E+02  0.14796270542E+03  0.18555880385E+03  0.90514375410E+02 0.  0.
        -13    1    4    4    0    0  0.31236691002E+02  0.35798708216E+01  0.37794869981E+02  0.49163092872E+02  0.10566000000E+00 0. -1.
         13    1    4    4    0    0 -0.56342933535E+02  0.57378573389E+02  0.11016783544E+03  0.13639571098E+03  0.10566000000E+00 0.  1.
    9000005    1    3    3    0    0  0.63668434382E+02  0.58581850042E+01  0.18450935470E+02  0.66553924662E+02  0.10000000000E+01 0.  0.
    9000005    1    3    3    0    0 -0.38562191849E+02 -0.66816629215E+02  0.14263374801E+02  0.78459852412E+02  0.10000000000E+01 0.  0.
<mgrwt>
<rscale>  0 0.13330102E+03</rscale>
<asrwt>0</asrwt>
<pdfrwt beam="1">  1        2 0.39326892E-01 0.14127551E+03</pdfrwt>
<pdfrwt beam="2">  1       -2 0.11530428E-01 0.14127551E+03</pdfrwt>
<totfact> 0.65577749E+03</totfact>
</mgrwt>
</event>
<event>
 8    3  0.7944584E-004  0.1411299E+03  0.7818608E-02  0.1222253E+00
         -2   -1    0    0    0  501 -0.00000000000E+00  0.00000000000E+00  0.18753346321E+04  0.18753346321E+04  0.25500000000E-02 0.  1.
          2   -1    0    0  501    0  0.00000000000E+00 -0.00000000000E+00 -0.15373880442E+02  0.15373880654E+02  0.25500000000E-02 0. -1.
         25    2    1    2    0    0  0.53679828504E+02 -0.37562460829E+02  0.36297701334E+03  0.38944827349E+03  0.12500073224E+03 0.  0.
         23    2    1    2    0    0 -0.53679828504E+02  0.37562460829E+02  0.14969837383E+04  0.15012602392E+04  0.92355458689E+02 0.  0.
        -13    1    4    4    0    0 -0.74531170137E+02  0.87316515442E+01  0.85305447168E+03  0.85634869059E+03  0.10566000000E+00 0. -1.
         13    1    4    4    0    0  0.20851341633E+02  0.28830809285E+02  0.64392926661E+03  0.64491154865E+03  0.10566000000E+00 0.  1.
    9000005    1    3    3    0    0 -0.20521289803E+02  0.30050497370E+02  0.59037393115E+02  0.69358269249E+02  0.10000000000E+01 0.  0.
    9000005    1    3    3    0    0  0.74201118307E+02 -0.67612958199E+02  0.30393962022E+03  0.32009000424E+03  0.10000000000E+01 0.  0.
<mgrwt>
<rscale>  0 0.13356993E+03</rscale>
<asrwt>0</asrwt>
<pdfrwt beam="2">  1        2 0.23652135E-02 0.14112989E+03</pdfrwt>
<pdfrwt beam="1">  1       -2 0.28851288E+00 0.14112989E+03</pdfrwt>
<totfact> 0.18549477E+02</totfact>
</mgrwt>
</event>
<event>
 8    3  0.7944584E-004  0.1296969E+03  0.7818608E-02  0.1242490E+00
         -2   -1    0    0    0  501 -0.00000000000E+00  0.00000000000E+00  0.38731330436E+03  0.38731330436E+03  0.25500000000E-02 0.  1.
          2   -1    0    0  501    0  0.00000000000E+00 -0.00000000000E+00 -0.33054738842E+02  0.33054738941E+02  0.25500000000E-02 0. -1.
         25    2    1    2    0    0  0.34397171080E+02  0.33328005579E+01  0.21532002659E+03  0.25136429440E+03  0.12500808658E+03 0.  0.
         23    2    1    2    0    0 -0.34397171080E+02 -0.33328005579E+01  0.13893853893E+03  0.16900374891E+03  0.89800203831E+02 0.  0.
        -13    1    4    4    0    0 -0.27413298090E+02  0.10154061596E+02  0.14830557810E+03  0.15115935148E+03  0.10566000000E+00 0.  1.
         13    1    4    4    0    0 -0.69838729908E+01 -0.13486862154E+02 -0.93670391749E+01  0.17844397431E+02  0.10566000000E+00 0. -1.
    9000005    1    3    3    0    0  0.12333851274E+02  0.53583317666E+02  0.40967897655E+02  0.68575975805E+02  0.10000000000E+01 0.  0.
    9000005    1    3    3    0    0  0.22063319806E+02 -0.50250517108E+02  0.17435212893E+03  0.18278831859E+03  0.10000000000E+01 0.  0.
<mgrwt>
<rscale>  0 0.12036881E+03</rscale>
<asrwt>0</asrwt>
<pdfrwt beam="2">  1        2 0.50853445E-02 0.12969693E+03</pdfrwt>
<pdfrwt beam="1">  1       -2 0.59586662E-01 0.12969693E+03</pdfrwt>
<totfact> 0.39123078E+03</totfact>
</mgrwt>
</event>
<event>
 8    3  0.7944584E-004  0.2460428E+03  0.7818608E-02  0.1118375E+00
          2   -1    0    0  501    0  0.00000000000E+00  0.00000000000E+00  0.69654926378E+03  0.69654926379E+03  0.25500000000E-02 0.  1.
         -2   -1    0    0    0  501 -0.00000000000E+00 -0.00000000000E+00 -0.81770254100E+02  0.81770254140E+02  0.25500000000E-02 0. -1.
         25    2    1    2    0    0 -0.10848694672E+03  0.18205089699E+03  0.29995260804E+03  0.38795440122E+03  0.12500041463E+03 0.  0.
         23    2    1    2    0    0  0.10848694672E+03 -0.18205089699E+03  0.31482640165E+03  0.39036511671E+03  0.91418348609E+02 0.  0.
        -13    1    4    4    0    0  0.37164182698E+02 -0.90855810664E+02  0.73253706538E+02  0.12248294368E+03  0.10566000000E+00 0.  1.
         13    1    4    4    0    0  0.71322764023E+02 -0.91195086325E+02  0.24157269511E+03  0.26788217303E+03  0.10566000000E+00 0. -1.
    9000005    1    3    3    0    0 -0.18586490563E+02  0.44114365622E+01  0.11377659235E+03  0.11537344310E+03  0.10000000000E+01 0.  0.
    9000005    1    3    3    0    0 -0.89900456158E+02  0.17763946043E+03  0.18617601568E+03  0.27258095813E+03  0.10000000000E+01 0.  0.
<mgrwt>
<rscale>  0 0.24214057E+03</rscale>
<asrwt>0</asrwt>
<pdfrwt beam="1">  1        2 0.10716143E+00 0.24604278E+03</pdfrwt>
<pdfrwt beam="2">  1       -2 0.12580038E-01 0.24604278E+03</pdfrwt>
<totfact> 0.19269140E+03</totfact>
</mgrwt>
</event>
<event>
 8    3  0.7944584E-004  0.2648176E+03  0.7818608E-02  0.1106373E+00
         -2   -1    0    0    0  501 -0.00000000000E+00  0.00000000000E+00  0.51258525358E+03  0.51258525359E+03  0.25500000000E-02 0. -1.
          2   -1    0    0  501    0  0.00000000000E+00 -0.00000000000E+00 -0.19253548948E+03  0.19253548950E+03  0.25500000000E-02 0.  1.
         25    2    1    2    0    0  0.16277436433E+03 -0.16735651942E+03 -0.38355255269E+02  0.26758082074E+03  0.12499868698E+03 0.  0.
         23    2    1    2    0    0 -0.16277436433E+03  0.16735651942E+03  0.35840501937E+03  0.43753992235E+03  0.92104980654E+02 0.  0.
        -13    1    4    4    0    0 -0.43382552172E+02  0.83290528764E+02  0.20641164009E+03  0.22677110562E+03  0.10566000000E+00 0. -1.
         13    1    4    4    0    0 -0.11939181216E+03  0.84065990655E+02  0.15199337928E+03  0.21076881673E+03  0.10566000000E+00 0.  1.
    9000005    1    3    3    0    0  0.16699545605E+03 -0.16462969619E+03 -0.62669856454E+02  0.24273221895E+03  0.10000000000E+01 0.  0.
    9000005    1    3    3    0    0 -0.42210917174E+01 -0.27268232315E+01  0.24314601185E+02  0.24848601792E+02  0.10000000000E+01 0.  0.
<mgrwt>
<rscale>  0 0.26128624E+03</rscale>
<asrwt>0</asrwt>
<pdfrwt beam="2">  1        2 0.29620845E-01 0.26481762E+03</pdfrwt>
<pdfrwt beam="1">  1       -2 0.78859269E-01 0.26481762E+03</pdfrwt>
<totfact> 0.26290401E+02</totfact>
</mgrwt>
</event>
<event>
 8    3  0.7944584E-004  0.1742522E+03  0.7818608E-02  0.1179737E+00
          2   -1    0    0  501    0  0.00000000000E+00  0.00000000000E+00  0.56404858527E+03  0.56404858528E+03  0.25500000000E-02 0.  1.
         -2   -1    0    0    0  501 -0.00000000000E+00 -0.00000000000E+00 -0.47040995640E+02  0.47040995709E+02  0.25500000000E-02 0. -1.
         25    2    1    2    0    0 -0.30597169281E+02  0.11748417830E+03  0.28863719752E+03  0.33715763210E+03  0.12500047270E+03 0.  0.
         23    2    1    2    0    0  0.30597169281E+02 -0.11748417830E+03  0.22837039211E+03  0.27393194888E+03  0.90260499131E+02 0.  0.
        -13    1    4    4    0    0  0.58416826580E+02 -0.45547842344E+02  0.11623727031E+03  0.13783412402E+03  0.10566000000E+00 0.  1.
         13    1    4    4    0    0 -0.27819657299E+02 -0.71936335960E+02  0.11213312180E+03  0.13609782486E+03  0.10566000000E+00 0. -1.
    9000005    1    3    3    0    0 -0.58633843213E+01  0.72689159361E+01 -0.12439739778E+02  0.15587287780E+02  0.10000000000E+01 0.  0.
    9000005    1    3    3    0    0 -0.24733784960E+02  0.11021526237E+03  0.30107693730E+03  0.32157034432E+03  0.10000000000E+01 0.  0.
<mgrwt>
<rscale>  0 0.16820125E+03</rscale>
<asrwt>0</asrwt>
<pdfrwt beam="1">  1        2 0.86776702E-01 0.17425222E+03</pdfrwt>
<pdfrwt beam="2">  1       -2 0.72370766E-02 0.17425222E+03</pdfrwt>
<totfact> 0.58533881E+03</totfact>
</mgrwt>
</event>
<event>
 8    3  0.7944584E-004  0.1700586E+03  0.7818608E-02  0.1184392E+00
         -2   -1    0    0    0  501 -0.00000000000E+00  0.00000000000E+00  0.23920828176E+02  0.23920828312E+02  0.25500000000E-02 0.  1.
          2   -1    0    0  501    0  0.00000000000E+00 -0.00000000000E+00 -0.14787438927E+04  0.14787438927E+04  0.25500000000E-02 0. -1.
         25    2    1    2    0    0 -0.51458938836E+02  0.10318372350E+03 -0.11701757005E+04  0.11824682169E+04  0.12500004230E+03 0.  0.
         23    2    1    2    0    0  0.51458938836E+02 -0.10318372350E+03 -0.28464736399E+03  0.32019650416E+03  0.90591259341E+02 0.  0.
        -13    1    4    4    0    0  0.34474109430E+02 -0.52956666769E+02 -0.24754574156E+03  0.25548342041E+03  0.10566000000E+00 0.  1.
         13    1    4    4    0    0  0.16984829405E+02 -0.50227056727E+02 -0.37101622432E+02  0.64713083750E+02  0.10566000000E+00 0. -1.
    9000005    1    3    3    0    0 -0.30376808595E+02  0.13078260056E+03 -0.87228501038E+03  0.88255820116E+03  0.10000000000E+01 0.  0.
    9000005    1    3    3    0    0 -0.21082130241E+02 -0.27598877069E+02 -0.29789069016E+03  0.29991001570E+03  0.10000000000E+01 0.  0.
<mgrwt>
<rscale>  0 0.16387319E+03</rscale>
<asrwt>0</asrwt>
<pdfrwt beam="2">  1        2 0.22749899E+00 0.17005856E+03</pdfrwt>
<pdfrwt beam="1">  1       -2 0.36801286E-02 0.17005856E+03</pdfrwt>
<totfact> 0.43345910E+03</totfact>
</mgrwt>
</event>
<event>
 8    3  0.7944584E-004  0.1381801E+03  0.7818608E-02  0.1226661E+00
          2   -1    0    0  501    0  0.00000000000E+00  0.00000000000E+00  0.28026004631E+04  0.28026004631E+04  0.25500000000E-02 0. -1.
         -2   -1    0    0    0  501 -0.00000000000E+00 -0.00000000000E+00 -0.59466133553E+01  0.59466139021E+01  0.25500000000E-02 0.  1.
         25    2    1    2    0    0 -0.23378082734E+02 -0.54074805702E+02  0.19288103351E+04  0.19337536180E+04  0.12499250757E+03 0.  0.
         23    2    1    2    0    0  0.23378082734E+02  0.54074805702E+02  0.86784351473E+03  0.87479345910E+03  0.92954885043E+02 0.  0.
        -13    1    4    4    0    0  0.44779904727E+02  0.64146053801E+02  0.48955134857E+03  0.49576253402E+03  0.10566000000E+00 0.  1.
         13    1    4    4    0    0 -0.21401821992E+02 -0.10071248098E+02  0.37829216616E+03  0.37903092508E+03  0.10566000000E+00 0. -1.
    9000005    1    3    3    0    0 -0.44454569385E+02  0.21675315494E+02  0.11300152618E+04  0.11310974847E+04  0.10000000000E+01 0.  0.
    9000005    1    3    3    0    0  0.21076486651E+02 -0.75750121196E+02  0.79879507329E+03  0.80265613326E+03  0.10000000000E+01 0.  0.
<mgrwt>
<rscale>  0 0.13053672E+03</rscale>
<asrwt>0</asrwt>
<pdfrwt beam="1">  1        2 0.43117026E+00 0.13818012E+03</pdfrwt>
<pdfrwt beam="2">  1       -2 0.91486160E-03 0.13818012E+03</pdfrwt>
<totfact> 0.65905105E+03</totfact>
</mgrwt>
</event>
<event>
 8    3  0.7944584E-004  0.1338916E+03  0.7818608E-02  0.1234848E+00
          2   -1    0    0  501    0  0.00000000000E+00  0.00000000000E+00  0.14009250637E+04  0.14009250637E+04  0.25500000000E-02 0. -1.
         -2   -1    0    0    0  501 -0.00000000000E+00 -0.00000000000E+00 -0.10068263611E+02  0.10068263934E+02  0.25500000000E-02 0.  1.
         25    2    1    2    0    0 -0.37475081132E+00 -0.47976781503E+02  0.71029785801E+03  0.72280703715E+03  0.12500021540E+03 0.  0.
         23    2    1    2    0    0  0.37475081132E+00  0.47976781503E+02  0.68055894204E+03  0.68818629045E+03  0.90210779706E+02 0.  0.
        -13    1    4    4    0    0  0.13077622002E+02  0.44748178220E+02  0.66925844925E+03  0.67088024766E+03  0.10566000000E+00 0. -1.
         13    1    4    4    0    0 -0.12702871191E+02  0.32286032828E+01  0.11300492791E+02  0.17306042789E+02  0.10566000000E+00 0.  1.
    9000005    1    3    3    0    0 -0.54518219834E+02 -0.10895299367E+02  0.48400587862E+03  0.48718952614E+03  0.10000000000E+01 0.  0.
    9000005    1    3    3    0    0  0.54143469022E+02 -0.37081482135E+02  0.22629197939E+03  0.23561751101E+03  0.10000000000E+01 0.  0.
<mgrwt>
<rscale>  0 0.12514171E+03</rscale>
<asrwt>0</asrwt>
<pdfrwt beam="1">  1        2 0.21552695E+00 0.13389162E+03</pdfrwt>
<pdfrwt beam="2">  1       -2 0.15489635E-02 0.13389162E+03</pdfrwt>
<totfact> 0.16758223E+04</totfact>
</mgrwt>
</event>
<event>
 8    3  0.7944584E-004  0.1433828E+03  0.7818608E-02  0.1218578E+00
          2   -1    0    0  501    0  0.00000000000E+00  0.00000000000E+00  0.18000817335E+04  0.18000817335E+04  0.25500000000E-02 0. -1.
         -2   -1    0    0    0  501 -0.00000000000E+00 -0.00000000000E+00 -0.95296238597E+01  0.95296242008E+01  0.25500000000E-02 0.  1.
         25    2    1    2    0    0  0.62439619035E+02  0.32200223449E+02  0.10950943140E+04  0.11044411206E+04  0.12499228761E+03 0.  0.
         23    2    1    2    0    0 -0.62439619035E+02 -0.32200223449E+02  0.69545779559E+03  0.70517023703E+03  0.93101865306E+02 0.  0.
        -13    1    4    4    0    0 -0.37695561209E+01  0.15918217904E+00 -0.21556212735E+01  0.43465801989E+01  0.10566000000E+00 0.  1.
         13    1    4    4    0    0 -0.58670062914E+02 -0.32359405629E+02  0.69761341686E+03  0.70082365683E+03  0.10566000000E+00 0. -1.
    9000005    1    3    3    0    0  0.22761674460E+02  0.28622092522E+02  0.73800529102E+02  0.82370116549E+02  0.10000000000E+01 0.  0.
    9000005    1    3    3    0    0  0.39677944575E+02  0.35781309277E+01  0.10212937849E+04  0.10220710041E+04  0.10000000000E+01 0.  0.
<mgrwt>
<rscale>  0 0.13616931E+03</rscale>
<asrwt>0</asrwt>
<pdfrwt beam="1">  1        2 0.27693557E+00 0.14338282E+03</pdfrwt>
<pdfrwt beam="2">  1       -2 0.14660964E-02 0.14338282E+03</pdfrwt>
<totfact> 0.11313905E+04</totfact>
</mgrwt>
</event>
<event>
 8    3  0.7944584E-004  0.1812417E+03  0.7818608E-02  0.1171967E+00
         -2   -1    0    0    0  501 -0.00000000000E+00  0.00000000000E+00  0.55264075695E+02  0.55264075754E+02  0.25500000000E-02 0.  1.
          2   -1    0    0  501    0  0.00000000000E+00 -0.00000000000E+00 -0.57620882352E+03  0.57620882352E+03  0.25500000000E-02 0. -1.
         25    2    1    2    0    0  0.12929385209E+03 -0.22519422595E+02 -0.18365417424E+03  0.25802600842E+03  0.12499816289E+03 0.  0.
         23    2    1    2    0    0 -0.12929385209E+03  0.22519422595E+02 -0.33729057358E+03  0.37344689085E+03  0.92052293170E+02 0.  0.
        -13    1    4    4    0    0 -0.36025535997E+02  0.17780344244E+02 -0.21940382995E+03  0.22305163448E+03  0.10566000000E+00 0. -1.
         13    1    4    4    0    0 -0.93268316088E+02  0.47390783506E+01 -0.11788674363E+03  0.15039525637E+03  0.10566000000E+00 0.  1.
    9000005    1    3    3    0    0  0.10026032520E+03 -0.44895837762E+02 -0.19126983527E+03  0.22057406679E+03  0.10000000000E+01 0.  0.
    9000005    1    3    3    0    0  0.29033526888E+02  0.22376415167E+02  0.76156610284E+01  0.37451941634E+02  0.10000000000E+01 0.  0.
<mgrwt>
<rscale>  0 0.17576416E+03</rscale>
<asrwt>0</asrwt>
<pdfrwt beam="2">  1        2 0.88647507E-01 0.18124173E+03</pdfrwt>
<pdfrwt beam="1">  1       -2 0.85021659E-02 0.18124173E+03</pdfrwt>
<totfact> 0.44568851E+03</totfact>
</mgrwt>
</event>
<event>
 8    3  0.7944584E-004  0.1544331E+03  0.7818608E-02  0.1202928E+00
         -2   -1    0    0    0  501 -0.00000000000E+00  0.00000000000E+00  0.96997869358E+02  0.96997869391E+02  0.25500000000E-02 0.  1.
          2   -1    0    0  501    0  0.00000000000E+00 -0.00000000000E+00 -0.33246249924E+03  0.33246249925E+03  0.25500000000E-02 0. -1.
         25    2    1    2    0    0 -0.13526940058E+02  0.89674287240E+02  0.65610532611E+01  0.15457240838E+03  0.12500050446E+03 0.  0.
         23    2    1    2    0    0  0.13526940058E+02 -0.89674287240E+02 -0.24202568315E+03  0.27488796026E+03  0.93608244797E+02 0.  0.
        -13    1    4    4    0    0  0.49283498889E+02 -0.24539602439E+02 -0.11987074959E+03  0.13190929885E+03  0.10566000000E+00 0. -1.
         13    1    4    4    0    0 -0.35756558831E+02 -0.65134684802E+02 -0.12215493356E+03  0.14297866141E+03  0.10566000000E+00 0.  1.
    9000005    1    3    3    0    0  0.42117850911E+02  0.44516373551E+02  0.42314792901E+02  0.74479276163E+02  0.10000000000E+01 0.  0.
    9000005    1    3    3    0    0 -0.55644790969E+02  0.45157913690E+02 -0.35753739640E+02  0.80093132221E+02  0.10000000000E+01 0.  0.
<mgrwt>
<rscale>  0 0.14801978E+03</rscale>
<asrwt>0</asrwt>
<pdfrwt beam="2">  1        2 0.51148076E-01 0.15443310E+03</pdfrwt>
<pdfrwt beam="1">  1       -2 0.14922749E-01 0.15443310E+03</pdfrwt>
<totfact> 0.32861193E+03</totfact>
</mgrwt>
</event>
<event>
 8    3  0.7944584E-004  0.1305147E+03  0.7818608E-02  0.1244453E+00
         -2   -1    0    0    0  501 -0.00000000000E+00  0.00000000000E+00  0.54327297250E+02  0.54327297310E+02  0.25500000000E-02 0.  1.
          2   -1    0    0  501    0  0.00000000000E+00 -0.00000000000E+00 -0.34347659237E+03  0.34347659238E+03  0.25500000000E-02 0. -1.
         25    2    1    2    0    0  0.14732866007E+02  0.34511529351E+02 -0.27704377582E+03  0.30624717243E+03  0.12500389554E+03 0.  0.
         23    2    1    2    0    0 -0.14732866007E+02 -0.34511529351E+02 -0.12105519303E+02  0.91556717264E+02  0.82631627599E+02 0.  0.
        -13    1    4    4    0    0  0.70365528494E+01 -0.15337330129E+02 -0.44785003363E+02  0.47858692645E+02  0.10566000000E+00 0. -1.
         13    1    4    4    0    0 -0.21769418857E+02 -0.19174199222E+02  0.32679484059E+02  0.43698024619E+02  0.10566000000E+00 0.  1.
    9000005    1    3    3    0    0  0.11446522044E+02 -0.47110777980E+02 -0.92872719614E+02  0.10477017857E+03  0.10000000000E+01 0.  0.
    9000005    1    3    3    0    0  0.32863439627E+01  0.81622307331E+02 -0.18417105620E+03  0.20147699386E+03  0.10000000000E+01 0.  0.
<mgrwt>
<rscale>  0 0.11918171E+03</rscale>
<asrwt>0</asrwt>
<pdfrwt beam="2">  1        2 0.52842551E-01 0.13051466E+03</pdfrwt>
<pdfrwt beam="1">  1       -2 0.83580459E-02 0.13051466E+03</pdfrwt>
<totfact> 0.79018990E+03</totfact>
</mgrwt>
</event>
<event>
 8    3  0.7944584E-004  0.1375789E+03  0.7818608E-02  0.1227123E+00
         -2   -1    0    0    0  501 -0.00000000000E+00  0.00000000000E+00  0.20578300775E+02  0.20578300933E+02  0.25500000000E-02 0.  1.
          2   -1    0    0  501    0  0.00000000000E+00 -0.00000000000E+00 -0.75157504542E+03  0.75157504543E+03  0.25500000000E-02 0. -1.
         25    2    1    2    0    0  0.51722251237E+02 -0.25122256444E+02 -0.43421879038E+03  0.45549304736E+03  0.12498655620E+03 0.  0.
         23    2    1    2    0    0 -0.51722251237E+02  0.25122256444E+02 -0.29677795427E+03  0.31666029900E+03  0.94288237770E+02 0.  0.
        -13    1    4    4    0    0 -0.74997497800E+02  0.37743046918E+02 -0.22639507531E+03  0.24146201266E+03  0.10566000000E+00 0. -1.
         13    1    4    4    0    0  0.23275246564E+02 -0.12620790474E+02 -0.70382878960E+02  0.75198286347E+02  0.10566000000E+00 0.  1.
    9000005    1    3    3    0    0  0.15579215903E+02 -0.46425975646E+01 -0.40347221739E+03  0.40380081214E+03  0.10000000000E+01 0.  0.
    9000005    1    3    3    0    0  0.36143035334E+02 -0.20479658879E+02 -0.30746572984E+02  0.51692235212E+02  0.10000000000E+01 0.  0.
<mgrwt>
<rscale>  0 0.13022481E+03</rscale>
<asrwt>0</asrwt>
<pdfrwt beam="2">  1        2 0.11562691E+00 0.13757892E+03</pdfrwt>
<pdfrwt beam="1">  1       -2 0.31658930E-02 0.13757892E+03</pdfrwt>
<totfact> 0.14313561E+04</totfact>
</mgrwt>
</event>
<event>
 8    3  0.7944584E-004  0.2912737E+03  0.7818608E-02  0.1091242E+00
          2   -1    0    0  501    0  0.00000000000E+00  0.00000000000E+00  0.35974864277E+03  0.35974864277E+03  0.25500000000E-02 0.  1.
         -2   -1    0    0    0  501 -0.00000000000E+00 -0.00000000000E+00 -0.29160508577E+03  0.29160508578E+03  0.25500000000E-02 0. -1.
         25    2    1    2    0    0 -0.88399392733E+02 -0.24779157168E+03 -0.11932333584E+03  0.31476730341E+03  0.12500112475E+03 0.  0.
         23    2    1    2    0    0  0.88399392733E+02  0.24779157168E+03  0.18746689284E+03  0.33658642515E+03  0.94506455074E+02 0.  0.
        -13    1    4    4    0    0  0.63913270881E+01  0.21853566351E+02  0.60732871377E+02  0.64860775928E+02  0.10566000000E+00 0.  1.
         13    1    4    4    0    0  0.82008065645E+02  0.22593800533E+03  0.12673402146E+03  0.27172564922E+03  0.10566000000E+00 0. -1.
    9000005    1    3    3    0    0 -0.98390042704E+02 -0.25729549510E+03 -0.12094119151E+03  0.30084770916E+03  0.10000000000E+01 0.  0.
    9000005    1    3    3    0    0  0.99906499712E+01  0.95039234211E+01  0.16178556615E+01  0.13919594254E+02  0.10000000000E+01 0.  0.
<mgrwt>
<rscale>  0 0.28829676E+03</rscale>
<asrwt>0</asrwt>
<pdfrwt beam="1">  1        2 0.55345945E-01 0.29127375E+03</pdfrwt>
<pdfrwt beam="2">  1       -2 0.44862321E-01 0.29127375E+03</pdfrwt>
<totfact> 0.42946816E+02</totfact>
</mgrwt>
</event>
<event>
 8    3  0.7944584E-004  0.2044020E+03  0.7818608E-02  0.1150149E+00
          2   -1    0    0  501    0  0.00000000000E+00  0.00000000000E+00  0.20710630247E+03  0.20710630249E+03  0.25500000000E-02 0. -1.
         -2   -1    0    0    0  501 -0.00000000000E+00 -0.00000000000E+00 -0.18643261140E+03  0.18643261142E+03  0.25500000000E-02 0.  1.
         25    2    1    2    0    0  0.16155555401E+03 -0.74855040266E+01 -0.13609085846E+02  0.20485450509E+03  0.12499572488E+03 0.  0.
         23    2    1    2    0    0 -0.16155555401E+03  0.74855040266E+01  0.34282776920E+02  0.18868440881E+03  0.90941011276E+02 0.  0.
        -13    1    4    4    0    0 -0.91909354760E+02  0.48454421479E+02  0.10360953783E+02  0.10441513770E+03  0.10566000000E+00 0.  1.
         13    1    4    4    0    0 -0.69646199251E+02 -0.40968917452E+02  0.23921823137E+02  0.84269271111E+02  0.10566000000E+00 0. -1.
    9000005    1    3    3    0    0  0.62566289786E+01 -0.43598083879E+02  0.49465110073E+01  0.44332903077E+02  0.10000000000E+01 0.  0.
    9000005    1    3    3    0    0  0.15529892503E+03  0.36112579852E+02 -0.18555596854E+02  0.16052160202E+03  0.10000000000E+01 0.  0.
<mgrwt>
<rscale>  0 0.19951493E+03</rscale>
<asrwt>0</asrwt>
<pdfrwt beam="1">  1        2 0.31862508E-01 0.20440196E+03</pdfrwt>
<pdfrwt beam="2">  1       -2 0.28681940E-01 0.20440196E+03</pdfrwt>
<totfact> 0.18026556E+03</totfact>
</mgrwt>
</event>
<event>
 8    3  0.7944584E-004  0.1335866E+03  0.7818608E-02  0.1234946E+00
         -2   -1    0    0    0  501 -0.00000000000E+00  0.00000000000E+00  0.12535616708E+02  0.12535616967E+02  0.25500000000E-02 0.  1.
          2   -1    0    0  501    0  0.00000000000E+00 -0.00000000000E+00 -0.11283807531E+04  0.11283807531E+04  0.25500000000E-02 0. -1.
         25    2    1    2    0    0 -0.37828565597E+02  0.28138969326E+02 -0.56428340171E+03  0.57988028716E+03  0.12499035171E+03 0.  0.
         23    2    1    2    0    0  0.37828565597E+02 -0.28138969326E+02 -0.55156173466E+03  0.56103608289E+03  0.91204918686E+02 0.  0.
        -13    1    4    4    0    0  0.14458380315E+02 -0.25339762926E+02 -0.43193784555E+02  0.52123531487E+02  0.10566000000E+00 0.  1.
         13    1    4    4    0    0  0.23370185283E+02 -0.27992064000E+01 -0.50836795010E+03  0.50891255140E+03  0.10566000000E+00 0. -1.
    9000005    1    3    3    0    0 -0.66106086697E+02  0.60448956251E+02 -0.34577089327E+03  0.35718706814E+03  0.10000000000E+01 0.  0.
    9000005    1    3    3    0    0  0.28277521099E+02 -0.32309986925E+02 -0.21851250844E+03  0.22269321903E+03  0.10000000000E+01 0.  0.
<mgrwt>
<rscale>  0 0.12507866E+03</rscale>
<asrwt>0</asrwt>
<pdfrwt beam="2">  1        2 0.17359696E+00 0.13358664E+03</pdfrwt>
<pdfrwt beam="1">  1       -2 0.19285573E-02 0.13358664E+03</pdfrwt>
<totfact> 0.17176827E+04</totfact>
</mgrwt>
</event>
<event>
 8    3  0.7944584E-004  0.3124911E+03  0.7818608E-02  0.1080534E+00
          2   -1    0    0  501    0  0.00000000000E+00  0.00000000000E+00  0.12977017657E+04  0.12977017657E+04  0.25500000000E-02 0. -1.
         -2   -1    0    0    0  501 -0.00000000000E+00 -0.00000000000E+00 -0.87858043292E+02  0.87858043329E+02  0.25500000000E-02 0.  1.
         25    2    1    2    0    0 -0.48557889607E+01 -0.28635888440E+03  0.32490268019E+03  0.45079088151E+03  0.12500271155E+03 0.  0.
         23    2    1    2    0    0  0.48557889607E+01  0.28635888440E+03  0.88494104218E+03  0.93476892749E+03  0.92990915186E+02 0.  0.
        -13    1    4    4    0    0 -0.38134274642E+02  0.12007017109E+03  0.30692112769E+03  0.33177049096E+03  0.10566000000E+00 0.  1.
         13    1    4    4    0    0  0.42990063603E+02  0.16628871331E+03  0.57801991449E+03  0.60299843653E+03  0.10566000000E+00 0. -1.
    9000005    1    3    3    0    0 -0.52196587254E+02 -0.54052614651E+02  0.86206095884E+02  0.11436196850E+03  0.10000000000E+01 0.  0.
    9000005    1    3    3    0    0  0.47340798294E+02 -0.23230626975E+03  0.23869658431E+03  0.33642891301E+03  0.10000000000E+01 0.  0.
<mgrwt>
<rscale>  0 0.30960826E+03</rscale>
<asrwt>0</asrwt>
<pdfrwt beam="1">  1        2 0.19964642E+00 0.31249107E+03</pdfrwt>
<pdfrwt beam="2">  1       -2 0.13516623E-01 0.31249107E+03</pdfrwt>
<totfact> 0.71568222E+02</totfact>
</mgrwt>
</event>
<event>
 8    3  0.7944584E-004  0.1521774E+03  0.7818608E-02  0.1208465E+00
         -2   -1    0    0    0  501 -0.00000000000E+00  0.00000000000E+00  0.63182699667E+02  0.63182699719E+02  0.25500000000E-02 0.  1.
          2   -1    0    0  501    0  0.00000000000E+00 -0.00000000000E+00 -0.30240207236E+03  0.30240207237E+03  0.25500000000E-02 0. -1.
         25    2    1    2    0    0 -0.86371122895E+02 -0.85426628111E+01 -0.16117859369E+03  0.22166751517E+03  0.12500000104E+03 0.  0.
         23    2    1    2    0    0  0.86371122895E+02  0.85426628111E+01 -0.78040779001E+02  0.14391725692E+03  0.84195401856E+02 0.  0.
        -13    1    4    4    0    0  0.55673733428E+02 -0.36035028304E+02 -0.49295986166E+02  0.82632882527E+02  0.10566000000E+00 0.  1.
         13    1    4    4    0    0  0.30697389468E+02  0.44577691115E+02 -0.28744792836E+02  0.61284374391E+02  0.10566000000E+00 0. -1.
    9000005    1    3    3    0    0 -0.16558402234E+02  0.24299577801E+02 -0.13800177314E+03  0.14110329392E+03  0.10000000000E+01 0.  0.
    9000005    1    3    3    0    0 -0.69812720661E+02 -0.32842240612E+02 -0.23176820550E+02  0.80564221248E+02  0.10000000000E+01 0.  0.
<mgrwt>
<rscale>  0 0.14367714E+03</rscale>
<asrwt>0</asrwt>
<pdfrwt beam="2">  1        2 0.46523395E-01 0.15217736E+03</pdfrwt>
<pdfrwt beam="1">  1       -2 0.97204155E-02 0.15217736E+03</pdfrwt>
<totfact> 0.72201973E+03</totfact>
</mgrwt>
</event>
<event>
 8    3  0.7944584E-004  0.1386189E+03  0.7818608E-02  0.1227472E+00
         -2   -1    0    0    0  501 -0.00000000000E+00  0.00000000000E+00  0.51855701855E+01  0.51855708125E+01  0.25500000000E-02 0.  1.
          2   -1    0    0  501    0  0.00000000000E+00 -0.00000000000E+00 -0.31374457660E+04  0.31374457660E+04  0.25500000000E-02 0. -1.
         25    2    1    2    0    0  0.55020894451E+02  0.23719305362E+02 -0.13349777511E+04  0.13421552772E+04  0.12500115183E+03 0.  0.
         23    2    1    2    0    0 -0.55020894451E+02 -0.23719305362E+02 -0.17972824447E+04  0.18004760596E+04  0.88881667545E+02 0.  0.
        -13    1    4    4    0    0  0.74889956862E+01 -0.19201129664E+02 -0.11459383906E+04  0.11461237170E+04  0.10566000000E+00 0. -1.
         13    1    4    4    0    0 -0.62509890137E+02 -0.45181756985E+01 -0.65134405411E+03  0.65435234259E+03  0.10566000000E+00 0.  1.
    9000005    1    3    3    0    0 -0.22091107526E+02  0.44958868710E+02 -0.75869789025E+03  0.76035044918E+03  0.10000000000E+01 0.  0.
    9000005    1    3    3    0    0  0.77112001977E+02 -0.21239563348E+02 -0.57627986088E+03  0.58180482806E+03  0.10000000000E+01 0.  0.
<mgrwt>
<rscale>  0 0.12998885E+03</rscale>
<asrwt>0</asrwt>
<pdfrwt beam="2">  1        2 0.48268245E+00 0.13861887E+03</pdfrwt>
<pdfrwt beam="1">  1       -2 0.79778258E-03 0.13861887E+03</pdfrwt>
<totfact> 0.51400092E+03</totfact>
</mgrwt>
</event>
<event>
 8    3  0.7944584E-004  0.1789243E+03  0.7818608E-02  0.1174454E+00
          2   -1    0    0  501    0  0.00000000000E+00  0.00000000000E+00  0.10005051259E+04  0.10005051259E+04  0.25500000000E-02 0. -1.
         -2   -1    0    0    0  501 -0.00000000000E+00 -0.00000000000E+00 -0.60204348276E+02  0.60204348330E+02  0.25500000000E-02 0.  1.
         25    2    1    2    0    0  0.53241380553E+02 -0.11642244153E+03  0.87011965723E+03  0.88832545896E+03  0.12500029456E+03 0.  0.
         23    2    1    2    0    0 -0.53241380553E+02  0.11642244153E+03  0.70181120398E+02  0.17238401528E+03  0.91662585429E+02 0.  0.
        -13    1    4    4    0    0  0.13097140689E+02  0.39334003355E+02 -0.10267364259E+02  0.42709821435E+02  0.10566000000E+00 0.  1.
         13    1    4    4    0    0 -0.66338521242E+02  0.77088438178E+02  0.80448484657E+02  0.12967419384E+03  0.10566000000E+00 0. -1.
    9000005    1    3    3    0    0  0.12945244291E+02 -0.39252400096E+02  0.65432213416E+03  0.65562701707E+03  0.10000000000E+01 0.  0.
    9000005    1    3    3    0    0  0.40296136262E+02 -0.77170041437E+02  0.21579752307E+03  0.23269844188E+03  0.10000000000E+01 0.  0.
<mgrwt>
<rscale>  0 0.17329596E+03</rscale>
<asrwt>0</asrwt>
<pdfrwt beam="1">  1        2 0.15392386E+00 0.17892429E+03</pdfrwt>
<pdfrwt beam="2">  1       -2 0.92622075E-02 0.17892429E+03</pdfrwt>
<totfact> 0.19602811E+03</totfact>
</mgrwt>
</event>
<event>
 8    3  0.7944584E-004  0.1284094E+03  0.7818608E-02  0.1244497E+00
         -2   -1    0    0    0  501 -0.00000000000E+00  0.00000000000E+00  0.23847643098E+02  0.23847643235E+02  0.25500000000E-02 0.  1.
          2   -1    0    0  501    0  0.00000000000E+00 -0.00000000000E+00 -0.56676191471E+03  0.56676191472E+03  0.25500000000E-02 0. -1.
         25    2    1    2    0    0  0.28472174386E+02 -0.73042658248E+01 -0.22864469173E+03  0.26223533698E+03  0.12499983956E+03 0.  0.
         23    2    1    2    0    0 -0.28472174386E+02  0.73042658248E+01 -0.31426957988E+03  0.32837422097E+03  0.90555193925E+02 0.  0.
        -13    1    4    4    0    0 -0.56364193303E+02 -0.13566105234E+02 -0.15885273332E+03  0.16910104537E+03  0.10566000000E+00 0.  1.
         13    1    4    4    0    0  0.27892018917E+02  0.20870371058E+02 -0.15541684656E+03  0.15927317560E+03  0.10566000000E+00 0. -1.
    9000005    1    3    3    0    0  0.21521916790E+02  0.18109450705E+02 -0.23370036701E+03  0.23538905379E+03  0.10000000000E+01 0.  0.
    9000005    1    3    3    0    0  0.69502575956E+01 -0.25413716530E+02  0.50556752729E+01  0.26846283187E+02  0.10000000000E+01 0.  0.
<mgrwt>
<rscale>  0 0.11915553E+03</rscale>
<asrwt>0</asrwt>
<pdfrwt beam="2">  1        2 0.87194131E-01 0.12840941E+03</pdfrwt>
<pdfrwt beam="1">  1       -2 0.36688686E-02 0.12840941E+03</pdfrwt>
<totfact> 0.15909798E+04</totfact>
</mgrwt>
</event>
<event>
 8    3  0.7944584E-004  0.1284436E+03  0.7818608E-02  0.1243431E+00
          2   -1    0    0  501    0  0.00000000000E+00  0.00000000000E+00  0.96747397630E+03  0.96747397631E+03  0.25500000000E-02 0. -1.
         -2   -1    0    0    0  501 -0.00000000000E+00 -0.00000000000E+00 -0.13676879597E+02  0.13676879834E+02  0.25500000000E-02 0.  1.
         25    2    1    2    0    0 -0.14676446526E+02  0.25624502804E+02  0.63523789300E+03  0.64809331122E+03  0.12500298445E+03 0.  0.
         23    2    1    2    0    0  0.14676446526E+02 -0.25624502804E+02  0.31855920371E+03  0.33305754492E+03  0.92603178861E+02 0.  0.
        -13    1    4    4    0    0  0.35421123325E+02  0.12657676400E+02  0.24264075118E+03  0.24553903569E+03  0.10566000000E+00 0. -1.
         13    1    4    4    0    0 -0.20744676799E+02 -0.38282179204E+02  0.75918452531E+02  0.87518509236E+02  0.10566000000E+00 0.  1.
    9000005    1    3    3    0    0 -0.21399109896E+02  0.67342015812E+02  0.22882833007E+03  0.23949169848E+03  0.10000000000E+01 0.  0.
    9000005    1    3    3    0    0  0.67226633701E+01 -0.41717513008E+02  0.40640956292E+03  0.40860161273E+03  0.10000000000E+01 0.  0.
<mgrwt>
<rscale>  0 0.11979762E+03</rscale>
<asrwt>0</asrwt>
<pdfrwt beam="1">  1        2 0.14884213E+00 0.12844360E+03</pdfrwt>
<pdfrwt beam="2">  1       -2 0.21041356E-02 0.12844360E+03</pdfrwt>
<totfact> 0.18744243E+04</totfact>
</mgrwt>
</event>
<event>
 8    3  0.7944584E-004  0.1837074E+03  0.7818608E-02  0.1169447E+00
         -2   -1    0    0    0  501 -0.00000000000E+00  0.00000000000E+00  0.66576913161E+02  0.66576913210E+02  0.25500000000E-02 0.  1.
          2   -1    0    0  501    0  0.00000000000E+00 -0.00000000000E+00 -0.47102434212E+03  0.47102434213E+03  0.25500000000E-02 0. -1.
         25    2    1    2    0    0 -0.13163973092E+03  0.28131197432E+02 -0.15917440076E+03  0.24307388150E+03  0.12501215534E+03 0.  0.
         23    2    1    2    0    0  0.13163973092E+03 -0.28131197432E+02 -0.24527302820E+03  0.29452737384E+03  0.92017023160E+02 0.  0.
        -13    1    4    4    0    0  0.16651453541E+02 -0.33418992820E+02 -0.22024073045E+02  0.43349405344E+02  0.10566000000E+00 0.  1.
         13    1    4    4    0    0  0.11498827738E+03  0.52877953870E+01 -0.22324895516E+03  0.25117796850E+03  0.10566000000E+00 0. -1.
    9000005    1    3    3    0    0 -0.46916718808E+02  0.73403484007E+02 -0.66596799882E+02  0.10966031061E+03  0.10000000000E+01 0.  0.
    9000005    1    3    3    0    0 -0.84723012115E+02 -0.45272286575E+02 -0.92577600876E+02  0.13341357089E+03  0.10000000000E+01 0.  0.
<mgrwt>
<rscale>  0 0.17831167E+03</rscale>
<asrwt>0</asrwt>
<pdfrwt beam="2">  1        2 0.72465281E-01 0.18370744E+03</pdfrwt>
<pdfrwt beam="1">  1       -2 0.10242602E-01 0.18370744E+03</pdfrwt>
<totfact> 0.41679031E+03</totfact>
</mgrwt>
</event>
<event>
 8    3  0.7944584E-004  0.1775853E+03  0.7818608E-02  0.1175788E+00
          2   -1    0    0  501    0  0.00000000000E+00  0.00000000000E+00  0.41556013063E+03  0.41556013064E+03  0.25500000000E-02 0. -1.
         -2   -1    0    0    0  501 -0.00000000000E+00 -0.00000000000E+00 -0.11002477272E+03  0.11002477275E+03  0.25500000000E-02 0.  1.
         25    2    1    2    0    0 -0.82185180581E+02  0.95689259942E+02  0.32276944290E+03  0.36839742699E+03  0.12500285022E+03 0.  0.
         23    2    1    2    0    0  0.82185180581E+02 -0.95689259942E+02 -0.17234084989E+02  0.15718747641E+03  0.92195719418E+02 0.  0.
        -13    1    4    4    0    0  0.24773348586E+00 -0.61836250966E+02  0.13615386716E+02  0.63318032383E+02  0.10566000000E+00 0.  1.
         13    1    4    4    0    0  0.81937447095E+02 -0.33853008976E+02 -0.30849471705E+02  0.93869444026E+02  0.10566000000E+00 0. -1.
    9000005    1    3    3    0    0 -0.85033643692E+02  0.46880598265E+02  0.96487770658E+02  0.13689193161E+03  0.10000000000E+01 0.  0.
    9000005    1    3    3    0    0  0.28484631109E+01  0.48808661678E+02  0.22628167224E+03  0.23150549538E+03  0.10000000000E+01 0.  0.
<mgrwt>
<rscale>  0 0.17199003E+03</rscale>
<asrwt>0</asrwt>
<pdfrwt beam="1">  1        2 0.63932328E-01 0.17758533E+03</pdfrwt>
<pdfrwt beam="2">  1       -2 0.16926888E-01 0.17758533E+03</pdfrwt>
<totfact> 0.21112604E+03</totfact>
</mgrwt>
</event>
<event>
 8    3  0.7944584E-004  0.1443349E+03  0.7818608E-02  0.1217619E+00
          2   -1    0    0  501    0  0.00000000000E+00  0.00000000000E+00  0.36777074848E+02  0.36777074936E+02  0.25500000000E-02 0.  1.
         -2   -1    0    0    0  501 -0.00000000000E+00 -0.00000000000E+00 -0.62115055947E+03  0.62115055948E+03  0.25500000000E-02 0. -1.
         25    2    1    2    0    0 -0.69799474745E+02 -0.18218214277E+02 -0.15002998559E+03  0.20818635561E+03  0.12501476745E+03 0.  0.
         23    2    1    2    0    0  0.69799474745E+02  0.18218214277E+02 -0.43434349904E+03  0.44974127881E+03  0.91700996180E+02 0.  0.
        -13    1    4    4    0    0  0.42229305304E+02 -0.28562389742E+02 -0.11472061266E+03  0.12553865726E+03  0.10566000000E+00 0.  1.
         13    1    4    4    0    0  0.27570169440E+02  0.46780604020E+02 -0.31962288638E+03  0.32420262155E+03  0.10566000000E+00 0. -1.
    9000005    1    3    3    0    0  0.64023295731E+01  0.30411561272E+02 -0.10029870250E+03  0.10500801210E+03  0.10000000000E+01 0.  0.
    9000005    1    3    3    0    0 -0.76201804318E+02 -0.48629775550E+02 -0.49731283096E+02  0.10317834351E+03  0.10000000000E+01 0.  0.
<mgrwt>
<rscale>  0 0.13685873E+03</rscale>
<asrwt>0</asrwt>
<pdfrwt beam="1">  1        2 0.56580119E-02 0.14433490E+03</pdfrwt>
<pdfrwt beam="2">  1       -2 0.95561617E-01 0.14433490E+03</pdfrwt>
<totfact> 0.12355533E+03</totfact>
</mgrwt>
</event>
<event>
 8    3  0.7944584E-004  0.1274079E+03  0.7818608E-02  0.1247180E+00
         -2   -1    0    0    0  501 -0.00000000000E+00  0.00000000000E+00  0.90692493246E+02  0.90692493282E+02  0.25500000000E-02 0.  1.
          2   -1    0    0  501    0  0.00000000000E+00 -0.00000000000E+00 -0.13924083452E+03  0.13924083454E+03  0.25500000000E-02 0. -1.
         25    2    1    2    0    0 -0.10762691364E+02 -0.22192152614E+02 -0.41713230265E+01  0.12747621360E+03  0.12499783172E+03 0.  0.
         23    2    1    2    0    0  0.10762691364E+02  0.22192152614E+02 -0.44377018249E+02  0.10245711423E+03  0.88993333145E+02 0.  0.
        -13    1    4    4    0    0 -0.15565515775E+02  0.12388643792E+02  0.22431106826E+02  0.29982152922E+02  0.10566000000E+00 0.  1.
         13    1    4    4    0    0  0.26328207138E+02  0.98035088219E+01 -0.66808125075E+02  0.72474961307E+02  0.10566000000E+00 0. -1.
    9000005    1    3    3    0    0 -0.15000522130E+02 -0.72696403072E+02  0.98397339350E+01  0.74883930503E+02  0.10000000000E+01 0.  0.
    9000005    1    3    3    0    0  0.42378307657E+01  0.50504250458E+02 -0.14011056962E+02  0.52592283094E+02  0.10000000000E+01 0.  0.
<mgrwt>
<rscale>  0 0.11755854E+03</rscale>
<asrwt>0</asrwt>
<pdfrwt beam="2">  1        2 0.21421667E-01 0.12740795E+03</pdfrwt>
<pdfrwt beam="1">  1       -2 0.13952691E-01 0.12740795E+03</pdfrwt>
<totfact> 0.92847119E+03</totfact>
</mgrwt>
</event>
<event>
 8    3  0.7944584E-004  0.1355120E+03  0.7818608E-02  0.1233119E+00
         -2   -1    0    0    0  501 -0.00000000000E+00  0.00000000000E+00  0.13535287434E+02  0.13535287674E+02  0.25500000000E-02 0.  1.
          2   -1    0    0  501    0  0.00000000000E+00 -0.00000000000E+00 -0.11580756680E+04  0.11580756680E+04  0.25500000000E-02 0. -1.
         25    2    1    2    0    0 -0.22690516793E+02 -0.47148591802E+02 -0.82777697136E+03  0.83879569175E+03  0.12500259562E+03 0.  0.
         23    2    1    2    0    0  0.22690516793E+02  0.47148591802E+02 -0.31676340921E+03  0.33281526394E+03  0.87687474788E+02 0.  0.
        -13    1    4    4    0    0 -0.11210816294E+01  0.32262110531E+02 -0.28128109728E+02  0.42817079780E+02  0.10566000000E+00 0.  1.
         13    1    4    4    0    0  0.23811598422E+02  0.14886481271E+02 -0.28863529948E+03  0.28999818416E+03  0.10566000000E+00 0. -1.
    9000005    1    3    3    0    0 -0.66608200543E+02 -0.53524425046E+02 -0.41968529830E+03  0.42829693679E+03  0.10000000000E+01 0.  0.
    9000005    1    3    3    0    0  0.43917683751E+02  0.63758332432E+01 -0.40809167307E+03  0.41049875496E+03  0.10000000000E+01 0.  0.
<mgrwt>
<rscale>  0 0.12625626E+03</rscale>
<asrwt>0</asrwt>
<pdfrwt beam="2">  1        2 0.17816541E+00 0.13551199E+03</pdfrwt>
<pdfrwt beam="1">  1       -2 0.20823528E-02 0.13551199E+03</pdfrwt>
<totfact> 0.14799234E+04</totfact>
</mgrwt>
</event>
<event>
 8    3  0.7944584E-004  0.1340567E+03  0.7818608E-02  0.1234133E+00
          2   -1    0    0  501    0  0.00000000000E+00  0.00000000000E+00  0.23301014050E+04  0.23301014050E+04  0.25500000000E-02 0. -1.
         -2   -1    0    0    0  501 -0.00000000000E+00 -0.00000000000E+00 -0.67531408742E+01  0.67531413556E+01  0.25500000000E-02 0.  1.
         25    2    1    2    0    0  0.26239162756E+02 -0.40711729389E+02  0.16720069385E+04  0.16773724667E+04  0.12500100364E+03 0.  0.
         23    2    1    2    0    0 -0.26239162756E+02  0.40711729389E+02  0.65134132562E+03  0.65948207970E+03  0.91242273180E+02 0.  0.
        -13    1    4    4    0    0  0.24446405584E+02  0.40498432484E+02  0.21125742955E+03  0.21648894310E+03  0.10566000000E+00 0.  1.
         13    1    4    4    0    0 -0.50685568340E+02  0.21329690455E+00  0.44008389607E+03  0.44299313660E+03  0.10566000000E+00 0. -1.
    9000005    1    3    3    0    0 -0.28782086765E+02  0.31387976377E+02  0.45463228035E+03  0.45662361296E+03  0.10000000000E+01 0.  0.
    9000005    1    3    3    0    0  0.55021249521E+02 -0.72099705766E+02  0.12173746582E+04  0.12207488537E+04  0.10000000000E+01 0.  0.
<mgrwt>
<rscale>  0 0.12560080E+03</rscale>
<asrwt>0</asrwt>
<pdfrwt beam="1">  1        2 0.35847633E+00 0.13405667E+03</pdfrwt>
<pdfrwt beam="2">  1       -2 0.10389471E-02 0.13405667E+03</pdfrwt>
<totfact> 0.98764168E+03</totfact>
</mgrwt>
</event>
<event>
 8    3  0.7944584E-004  0.1380916E+03  0.7818608E-02  0.1226662E+00
          2   -1    0    0  501    0  0.00000000000E+00  0.00000000000E+00  0.16074076047E+04  0.16074076048E+04  0.25500000000E-02 0. -1.
         -2   -1    0    0    0  501 -0.00000000000E+00 -0.00000000000E+00 -0.96298469627E+01  0.96298473003E+01  0.25500000000E-02 0.  1.
         25    2    1    2    0    0 -0.41813786968E+02  0.41186365852E+02  0.93780825634E+03  0.94792068445E+03  0.12499835531E+03 0.  0.
         23    2    1    2    0    0  0.41813786968E+02 -0.41186365852E+02  0.65996950145E+03  0.66911676761E+03  0.93342360892E+02 0.  0.
        -13    1    4    4    0    0  0.28906355669E+02 -0.17053400573E+02  0.61862478041E+03  0.61953452363E+03  0.10566000000E+00 0. -1.
         13    1    4    4    0    0  0.12907431299E+02 -0.24132965279E+02  0.41344721042E+02  0.49582243979E+02  0.10566000000E+00 0.  1.
    9000005    1    3    3    0    0 -0.10671482311E+02 -0.16504479808E+02  0.21033631536E+02  0.28804375432E+02  0.10000000000E+01 0.  0.
    9000005    1    3    3    0    0 -0.31142304657E+02  0.57690845661E+02  0.91677462480E+03  0.91911630901E+03  0.10000000000E+01 0.  0.
<mgrwt>
<rscale>  0 0.13053623E+03</rscale>
<asrwt>0</asrwt>
<pdfrwt beam="1">  1        2 0.24729343E+00 0.13809163E+03</pdfrwt>
<pdfrwt beam="2">  1       -2 0.14815152E-02 0.13809163E+03</pdfrwt>
<totfact> 0.13971714E+04</totfact>
</mgrwt>
</event>
<event>
 8    3  0.7944584E-004  0.1321147E+03  0.7818608E-02  0.1236466E+00
          2   -1    0    0  501    0  0.00000000000E+00  0.00000000000E+00  0.26858615862E+04  0.26858615862E+04  0.25500000000E-02 0. -1.
         -2   -1    0    0    0  501 -0.00000000000E+00 -0.00000000000E+00 -0.60340509978E+01  0.60340515366E+01  0.25500000000E-02 0.  1.
         25    2    1    2    0    0 -0.50981305668E+01  0.42469504349E+02  0.19963618094E+04  0.20007285600E+04  0.12499858818E+03 0.  0.
         23    2    1    2    0    0  0.50981305668E+01 -0.42469504349E+02  0.68346572585E+03  0.69116707778E+03  0.93578209341E+02 0.  0.
        -13    1    4    4    0    0  0.49219928362E+02 -0.21755778065E+02  0.38634669303E+03  0.39007652276E+03  0.10566000000E+00 0. -1.
         13    1    4    4    0    0 -0.44121797795E+02 -0.20713726283E+02  0.29711903282E+03  0.30109055502E+03  0.10566000000E+00 0.  1.
    9000005    1    3    3    0    0  0.28674683590E+02  0.42096124127E+02  0.18423248614E+04  0.18430290872E+04  0.10000000000E+01 0.  0.
    9000005    1    3    3    0    0 -0.33772814156E+02  0.37338022105E+00  0.15403694793E+03  0.15769947278E+03  0.10000000000E+01 0.  0.
<mgrwt>
<rscale>  0 0.12411023E+03</rscale>
<asrwt>0</asrwt>
<pdfrwt beam="1">  1        2 0.41321068E+00 0.13211471E+03</pdfrwt>
<pdfrwt beam="2">  1       -2 0.92831288E-03 0.13211471E+03</pdfrwt>
<totfact> 0.74854647E+03</totfact>
</mgrwt>
</event>
<event>
 8    3  0.7944584E-004  0.1871479E+03  0.7818608E-02  0.1166427E+00
          2   -1    0    0  501    0  0.00000000000E+00  0.00000000000E+00  0.11722591553E+04  0.11722591553E+04  0.25500000000E-02 0. -1.
         -2   -1    0    0    0  501 -0.00000000000E+00 -0.00000000000E+00 -0.29984049642E+02  0.29984049750E+02  0.25500000000E-02 0.  1.
         25    2    1    2    0    0  0.13838358984E+03  0.15790725815E+02  0.80723453376E+03  0.82864463222E+03  0.12499987619E+03 0.  0.
         23    2    1    2    0    0 -0.13838358984E+03 -0.15790725815E+02  0.33504057185E+03  0.37359857279E+03  0.89018783670E+02 0.  0.
        -13    1    4    4    0    0 -0.61625524101E+02  0.86520645693E+01  0.24501172630E+03  0.25279106122E+03  0.10566000000E+00 0. -1.
         13    1    4    4    0    0 -0.76758065736E+02 -0.24442790384E+02  0.90028845551E+02  0.12080751157E+03  0.10566000000E+00 0.  1.
    9000005    1    3    3    0    0  0.76275191052E+02  0.59760586487E+02  0.28807206750E+03  0.30393378973E+03  0.10000000000E+01 0.  0.
    9000005    1    3    3    0    0  0.62108398785E+02 -0.43969860672E+02  0.51916246627E+03  0.52471084249E+03  0.10000000000E+01 0.  0.
<mgrwt>
<rscale>  0 0.18142877E+03</rscale>
<asrwt>0</asrwt>
<pdfrwt beam="1">  1        2 0.18034753E+00 0.18714789E+03</pdfrwt>
<pdfrwt beam="2">  1       -2 0.46129315E-02 0.18714789E+03</pdfrwt>
<totfact> 0.45455249E+03</totfact>
</mgrwt>
</event>
<event>
 8    3  0.7944584E-004  0.1489770E+03  0.7818608E-02  0.1210847E+00
         -2   -1    0    0    0  501 -0.00000000000E+00  0.00000000000E+00  0.89436192698E+01  0.89436196333E+01  0.25500000000E-02 0.  1.
          2   -1    0    0  501    0  0.00000000000E+00 -0.00000000000E+00 -0.21424689998E+04  0.21424689998E+04  0.25500000000E-02 0. -1.
         25    2    1    2    0    0  0.79267784822E+02 -0.16906368325E+02 -0.13770350259E+04  0.13850702503E+04  0.12499971484E+03 0.  0.
         23    2    1    2    0    0 -0.79267784822E+02  0.16906368325E+02 -0.75649035455E+03  0.76634236906E+03  0.91835521893E+02 0.  0.
        -13    1    4    4    0    0 -0.27793649647E+02  0.52365584507E+02 -0.40914423005E+03  0.41341704555E+03  0.10566000000E+00 0.  1.
         13    1    4    4    0    0 -0.51474135175E+02 -0.35459216182E+02 -0.34734612450E+03  0.35292532351E+03  0.10566000000E+00 0. -1.
    9000005    1    3    3    0    0  0.22963687131E+01 -0.51458628045E+02 -0.82677499483E+03  0.82837863069E+03  0.10000000000E+01 0.  0.
    9000005    1    3    3    0    0  0.76971416109E+02  0.34552259720E+02 -0.55026003111E+03  0.55669161965E+03  0.10000000000E+01 0.  0.
<mgrwt>
<rscale>  0 0.14186050E+03</rscale>
<asrwt>0</asrwt>
<pdfrwt beam="2">  1        2 0.32961021E+00 0.14897696E+03</pdfrwt>
<pdfrwt beam="1">  1       -2 0.13759432E-02 0.14897696E+03</pdfrwt>
<totfact> 0.82796918E+03</totfact>
</mgrwt>
</event>
<event>
 8    3  0.7944584E-004  0.1977665E+03  0.7818608E-02  0.1156574E+00
          2   -1    0    0  501    0  0.00000000000E+00  0.00000000000E+00  0.73131638170E+02  0.73131638215E+02  0.25500000000E-02 0. -1.
         -2   -1    0    0    0  501 -0.00000000000E+00 -0.00000000000E+00 -0.51436203960E+03  0.51436203960E+03  0.25500000000E-02 0.  1.
         25    2    1    2    0    0 -0.75508721288E+02  0.13335680294E+03 -0.15428739749E+03  0.25083097150E+03  0.12500388538E+03 0.  0.
         23    2    1    2    0    0  0.75508721288E+02 -0.13335680294E+03 -0.28694300394E+03  0.33666270632E+03  0.86717278773E+02 0.  0.
        -13    1    4    4    0    0  0.44578099009E+02 -0.13763090426E+03 -0.24176675717E+03  0.28174571648E+03  0.10566000000E+00 0.  1.
         13    1    4    4    0    0  0.30930622279E+02  0.42741013279E+01 -0.45176246768E+02  0.54916989838E+02  0.10566000000E+00 0. -1.
    9000005    1    3    3    0    0 -0.25108966256E+02  0.10216041157E+02 -0.10578456046E+03  0.10920714682E+03  0.10000000000E+01 0.  0.
    9000005    1    3    3    0    0 -0.50399755032E+02  0.12314076178E+03 -0.48502837030E+02  0.14162382469E+03  0.10000000000E+01 0.  0.
<mgrwt>
<rscale>  0 0.19210750E+03</rscale>
<asrwt>0</asrwt>
<pdfrwt beam="1">  1        2 0.11251022E-01 0.19776647E+03</pdfrwt>
<pdfrwt beam="2">  1       -2 0.79132619E-01 0.19776647E+03</pdfrwt>
<totfact> 0.80078634E+02</totfact>
</mgrwt>
</event>
<event>
 8    3  0.7944584E-004  0.3299148E+03  0.7818608E-02  0.1072416E+00
         -2   -1    0    0    0  501 -0.00000000000E+00  0.00000000000E+00  0.53312681073E+02  0.53312681134E+02  0.25500000000E-02 0.  1.
          2   -1    0    0  501    0  0.00000000000E+00 -0.00000000000E+00 -0.21139186839E+04  0.21139186839E+04  0.25500000000E-02 0. -1.
         25    2    1    2    0    0 -0.21991999345E+03  0.21178780002E+03 -0.13253875665E+04  0.13658316085E+04  0.12499962262E+03 0.  0.
         23    2    1    2    0    0  0.21991999345E+03 -0.21178780002E+03 -0.73521843625E+03  0.80139975644E+03  0.92068153329E+02 0.  0.
        -13    1    4    4    0    0  0.16478078543E+02 -0.67175987299E+02 -0.15035262873E+03  0.16549943949E+03  0.10566000000E+00 0. -1.
         13    1    4    4    0    0  0.20344191491E+03 -0.14461181272E+03 -0.58486580752E+03  0.63590031695E+03  0.10566000000E+00 0.  1.
    9000005    1    3    3    0    0 -0.57635180684E+02  0.26574101947E+02 -0.51382160965E+03  0.51772738337E+03  0.10000000000E+01 0.  0.
    9000005    1    3    3    0    0 -0.16228481277E+03  0.18521369807E+03 -0.81156595687E+03  0.84810422518E+03  0.10000000000E+01 0.  0.
<mgrwt>
<rscale>  0 0.32712522E+03</rscale>
<asrwt>0</asrwt>
<pdfrwt beam="2">  1        2 0.32521819E+00 0.32991481E+03</pdfrwt>
<pdfrwt beam="1">  1       -2 0.82019526E-02 0.32991481E+03</pdfrwt>
<totfact> 0.58331375E+02</totfact>
</mgrwt>
</event>
<event>
 8    3  0.7944584E-004  0.1837944E+03  0.7818608E-02  0.1169124E+00
          2   -1    0    0  501    0  0.00000000000E+00  0.00000000000E+00  0.19379676099E+03  0.19379676100E+03  0.25500000000E-02 0. -1.
         -2   -1    0    0    0  501 -0.00000000000E+00 -0.00000000000E+00 -0.15739289926E+03  0.15739289928E+03  0.25500000000E-02 0.  1.
         25    2    1    2    0    0  0.75806868181E+02 -0.11138724362E+03  0.31639052563E+01  0.18382162474E+03  0.12500632033E+03 0.  0.
         23    2    1    2    0    0 -0.75806868181E+02  0.11138724362E+03  0.33239956471E+02  0.16736803554E+03  0.93559421277E+02 0.  0.
        -13    1    4    4    0    0 -0.90025685834E+02  0.82368517904E+02  0.48904074659E+02  0.13145651956E+03  0.10566000000E+00 0. -1.
         13    1    4    4    0    0  0.14218817653E+02  0.29018725715E+02 -0.15664118188E+02  0.35911515983E+02  0.10566000000E+00 0.  1.
    9000005    1    3    3    0    0  0.29950313256E+02 -0.90154987104E+02 -0.52572436104E+02  0.10858086388E+03  0.10000000000E+01 0.  0.
    9000005    1    3    3    0    0  0.45856554924E+02 -0.21232256515E+02  0.55736341360E+02  0.75240760858E+02  0.10000000000E+01 0.  0.
<mgrwt>
<rscale>  0 0.17864164E+03</rscale>
<asrwt>0</asrwt>
<pdfrwt beam="1">  1        2 0.29814886E-01 0.18379439E+03</pdfrwt>
<pdfrwt beam="2">  1       -2 0.24214292E-01 0.18379439E+03</pdfrwt>
<totfact> 0.26076504E+03</totfact>
</mgrwt>
</event>
<event>
 8    3  0.7944584E-004  0.1264877E+03  0.7818608E-02  0.1247743E+00
          2   -1    0    0  501    0  0.00000000000E+00  0.00000000000E+00  0.57078438953E+02  0.57078439010E+02  0.25500000000E-02 0. -1.
         -2   -1    0    0    0  501 -0.00000000000E+00 -0.00000000000E+00 -0.29642772658E+03  0.29642772660E+03  0.25500000000E-02 0.  1.
         25    2    1    2    0    0  0.11522691123E+02 -0.15518462086E+02 -0.22634091920E+03  0.25928620927E+03  0.12500212614E+03 0.  0.
         23    2    1    2    0    0 -0.11522691123E+02  0.15518462086E+02 -0.13008368433E+02  0.94219956332E+02  0.91293961715E+02 0.  0.
        -13    1    4    4    0    0 -0.33805402046E+02 -0.76115463241E+01  0.26268653028E+02  0.43483262767E+02  0.10566000000E+00 0. -1.
         13    1    4    4    0    0  0.22282710922E+02  0.23130008410E+02 -0.39277021460E+02  0.50736693565E+02  0.10566000000E+00 0.  1.
    9000005    1    3    3    0    0  0.41673421085E+01  0.55095776620E+02 -0.10673145374E+03  0.12018949438E+03  0.10000000000E+01 0.  0.
    9000005    1    3    3    0    0  0.73553490147E+01 -0.70614238705E+02 -0.11960946546E+03  0.13909671489E+03  0.10000000000E+01 0.  0.
<mgrwt>
<rscale>  0 0.11722684E+03</rscale>
<asrwt>0</asrwt>
<pdfrwt beam="1">  1        2 0.87812985E-02 0.12648765E+03</pdfrwt>
<pdfrwt beam="2">  1       -2 0.45604265E-01 0.12648765E+03</pdfrwt>
<totfact> 0.33195142E+03</totfact>
</mgrwt>
</event>
<event>
 8    3  0.7944584E-004  0.1438552E+03  0.7818608E-02  0.1220276E+00
          2   -1    0    0  501    0  0.00000000000E+00  0.00000000000E+00  0.16604752161E+03  0.16604752163E+03  0.25500000000E-02 0.  1.
         -2   -1    0    0    0  501 -0.00000000000E+00 -0.00000000000E+00 -0.98351495070E+02  0.98351495103E+02  0.25500000000E-02 0. -1.
         25    2    1    2    0    0  0.56562644063E+02 -0.43250469667E+02  0.31897406197E+02  0.14734911450E+03  0.12499752474E+03 0.  0.
         23    2    1    2    0    0 -0.56562644063E+02  0.43250469667E+02  0.35798620348E+02  0.11704990224E+03  0.85727490137E+02 0.  0.
        -13    1    4    4    0    0 -0.78481440550E+02  0.42172144322E+02  0.24686535532E+02  0.92451405983E+02  0.10566000000E+00 0.  1.
         13    1    4    4    0    0  0.21918796488E+02  0.10783253449E+01  0.11112084816E+02  0.24598496255E+02  0.10566000000E+00 0. -1.
    9000005    1    3    3    0    0 -0.23964327177E+02  0.24944575114E+02  0.22775556278E+02  0.41427608770E+02  0.10000000000E+01 0.  0.
    9000005    1    3    3    0    0  0.80526971240E+02 -0.68195044782E+02  0.91218499194E+01  0.10592150573E+03  0.10000000000E+01 0.  0.
<mgrwt>
<rscale>  0 0.13496016E+03</rscale>
<asrwt>0</asrwt>
<pdfrwt beam="1">  1        2 0.25545772E-01 0.14385519E+03</pdfrwt>
<pdfrwt beam="2">  1       -2 0.15130999E-01 0.14385519E+03</pdfrwt>
<totfact> 0.67512351E+03</totfact>
</mgrwt>
</event>
<event>
 8    3  0.7944584E-004  0.1371986E+03  0.7818608E-02  0.1227692E+00
          2   -1    0    0  501    0  0.00000000000E+00  0.00000000000E+00  0.17897367605E+04  0.17897367605E+04  0.25500000000E-02 0.  1.
         -2   -1    0    0    0  501 -0.00000000000E+00 -0.00000000000E+00 -0.85565893365E+01  0.85565897164E+01  0.25500000000E-02 0. -1.
         25    2    1    2    0    0 -0.52325917449E+02 -0.21482704770E+02  0.94800539570E+03  0.95788187894E+03  0.12499582188E+03 0.  0.
         23    2    1    2    0    0  0.52325917449E+02  0.21482704770E+02  0.83317477544E+03  0.84041147125E+03  0.94401940360E+02 0.  0.
        -13    1    4    4    0    0  0.38355372643E+02  0.18415522621E+02  0.12407385432E+03  0.13116630121E+03  0.10566000000E+00 0. -1.
         13    1    4    4    0    0  0.13970544806E+02  0.30671821496E+01  0.70910092112E+03  0.70924517004E+03  0.10566000000E+00 0.  1.
    9000005    1    3    3    0    0 -0.41865311471E+02  0.42547029175E+02  0.25727653905E+03  0.26411204353E+03  0.10000000000E+01 0.  0.
    9000005    1    3    3    0    0 -0.10460605978E+02 -0.64029733945E+02  0.69072885665E+03  0.69376983541E+03  0.10000000000E+01 0.  0.
<mgrwt>
<rscale>  0 0.12984071E+03</rscale>
<asrwt>0</asrwt>
<pdfrwt beam="1">  1        2 0.27534396E+00 0.13719863E+03</pdfrwt>
<pdfrwt beam="2">  1       -2 0.13163992E-02 0.13719863E+03</pdfrwt>
<totfact> 0.13351156E+04</totfact>
</mgrwt>
</event>
<event>
 8    3  0.7944584E-004  0.1898137E+03  0.7818608E-02  0.1163273E+00
          2   -1    0    0  501    0  0.00000000000E+00  0.00000000000E+00  0.20172569870E+03  0.20172569872E+03  0.25500000000E-02 0. -1.
         -2   -1    0    0    0  501 -0.00000000000E+00 -0.00000000000E+00 -0.16550380114E+03  0.16550380116E+03  0.25500000000E-02 0.  1.
         25    2    1    2    0    0 -0.11521094701E+03 -0.84443855056E+02  0.49969825936E+02  0.19628102320E+03  0.12499971839E+03 0.  0.
         23    2    1    2    0    0  0.11521094701E+03  0.84443855056E+02 -0.13747928377E+02  0.17094847667E+03  0.92898057961E+02 0.  0.
        -13    1    4    4    0    0  0.42179046943E+02  0.64975271237E+02  0.30629833356E+02  0.83300994765E+02  0.10566000000E+00 0.  1.
         13    1    4    4    0    0  0.73031900072E+02  0.19468583819E+02 -0.44377761734E+02  0.87647481907E+02  0.10566000000E+00 0. -1.
    9000005    1    3    3    0    0 -0.85705961792E+01 -0.81915950619E+02  0.30554386582E+02  0.87853563525E+02  0.10000000000E+01 0.  0.
    9000005    1    3    3    0    0 -0.10664035084E+03 -0.25279044369E+01  0.19415439354E+02  0.10842745968E+03  0.10000000000E+01 0.  0.
<mgrwt>
<rscale>  0 0.18476079E+03</rscale>
<asrwt>0</asrwt>
<pdfrwt beam="1">  1        2 0.31034723E-01 0.18981374E+03</pdfrwt>
<pdfrwt beam="2">  1       -2 0.25462123E-01 0.18981374E+03</pdfrwt>
<totfact> 0.22879924E+03</totfact>
</mgrwt>
</event>
<event>
 8    3  0.7944584E-004  0.1473393E+03  0.7818608E-02  0.1213377E+00
         -2   -1    0    0    0  501 -0.00000000000E+00  0.00000000000E+00  0.13067900518E+02  0.13067900767E+02  0.25500000000E-02 0.  1.
          2   -1    0    0  501    0  0.00000000000E+00 -0.00000000000E+00 -0.13671331673E+04  0.13671331673E+04  0.25500000000E-02 0. -1.
         25    2    1    2    0    0 -0.14923015879E+02  0.76555716178E+02 -0.74925308306E+03  0.76360267657E+03  0.12500156439E+03 0.  0.
         23    2    1    2    0    0  0.14923015879E+02 -0.76555716178E+02 -0.60481218375E+03  0.61659839153E+03  0.91171951530E+02 0.  0.
        -13    1    4    4    0    0 -0.25485320854E+02 -0.23334186937E+02 -0.74863117332E+02  0.82452916017E+02  0.10566000000E+00 0.  1.
         13    1    4    4    0    0  0.40408336733E+02 -0.53221529241E+02 -0.52994906642E+03  0.53414547551E+03  0.10566000000E+00 0. -1.
    9000005    1    3    3    0    0  0.26107107594E+02 -0.19130235753E+02 -0.80093912405E+02  0.86392023887E+02  0.10000000000E+01 0.  0.
    9000005    1    3    3    0    0 -0.41030123473E+02  0.95685951931E+02 -0.66915917066E+03  0.67721065268E+03  0.10000000000E+01 0.  0.
<mgrwt>
<rscale>  0 0.13996466E+03</rscale>
<asrwt>0</asrwt>
<pdfrwt beam="2">  1        2 0.21032807E+00 0.14733929E+03</pdfrwt>
<pdfrwt beam="1">  1       -2 0.20104473E-02 0.14733929E+03</pdfrwt>
<totfact> 0.12031964E+04</totfact>
</mgrwt>
</event>
<event>
 8    3  0.7944584E-004  0.1645900E+03  0.7818608E-02  0.1190406E+00
         -2   -1    0    0    0  501 -0.00000000000E+00  0.00000000000E+00  0.16945900866E+02  0.16945901058E+02  0.25500000000E-02 0.  1.
          2   -1    0    0  501    0  0.00000000000E+00 -0.00000000000E+00 -0.25395744165E+04  0.25395744165E+04  0.25500000000E-02 0. -1.
         25    2    1    2    0    0 -0.10566959353E+03 -0.17289064089E+02 -0.45154951987E+03  0.48061091353E+03  0.12499962630E+03 0.  0.
         23    2    1    2    0    0  0.10566959353E+03  0.17289064089E+02 -0.20710789957E+04  0.20759094040E+04  0.92556319679E+02 0.  0.
        -13    1    4    4    0    0 -0.79782740378E+01  0.25884133627E+02 -0.33490872294E+03  0.33600223972E+03  0.10566000000E+00 0.  1.
         13    1    4    4    0    0  0.11364786757E+03 -0.85950695373E+01 -0.17361702728E+04  0.17399071643E+04  0.10566000000E+00 0. -1.
    9000005    1    3    3    0    0 -0.12934216345E+03 -0.36056970899E+02 -0.36240949045E+03  0.38648562608E+03  0.10000000000E+01 0.  0.
    9000005    1    3    3    0    0  0.23672569923E+02  0.18767906810E+02 -0.89140029418E+02  0.94125287450E+02  0.10000000000E+01 0.  0.
<mgrwt>
<rscale>  0 0.15849561E+03</rscale>
<asrwt>0</asrwt>
<pdfrwt beam="2">  1        2 0.39070346E+00 0.16459004E+03</pdfrwt>
<pdfrwt beam="1">  1       -2 0.26070637E-02 0.16459004E+03</pdfrwt>
<totfact> 0.20153455E+03</totfact>
</mgrwt>
</event>
<event>
 8    3  0.7944584E-004  0.1407681E+03  0.7818608E-02  0.1226104E+00
         -2   -1    0    0    0  501 -0.00000000000E+00  0.00000000000E+00  0.11685374171E+02  0.11685374449E+02  0.25500000000E-02 0.  1.
          2   -1    0    0  501    0  0.00000000000E+00 -0.00000000000E+00 -0.25733414533E+04  0.25733414533E+04  0.25500000000E-02 0. -1.
         25    2    1    2    0    0  0.57613905682E+02 -0.29479949303E+02 -0.46771017207E+03  0.48843469440E+03  0.12500886408E+03 0.  0.
         23    2    1    2    0    0 -0.57613905682E+02  0.29479949303E+02 -0.20939459070E+04  0.20965921333E+04  0.83070346041E+02 0.  0.
        -13    1    4    4    0    0 -0.46281875801E+01 -0.58128047366E+01 -0.15683972433E+02  0.17355315453E+02  0.10566000000E+00 0.  1.
         13    1    4    4    0    0 -0.52985718102E+02  0.35292754040E+02 -0.20782619346E+04  0.20792368179E+04  0.10566000000E+00 0. -1.
    9000005    1    3    3    0    0 -0.13257755090E+02  0.26179600756E+02 -0.31703892803E+02  0.43211993528E+02  0.10000000000E+01 0.  0.
    9000005    1    3    3    0    0  0.70871660773E+02 -0.55659550059E+02 -0.43600627927E+03  0.44522270087E+03  0.10000000000E+01 0.  0.
<mgrwt>
<rscale>  0 0.13091523E+03</rscale>
<asrwt>0</asrwt>
<pdfrwt beam="2">  1        2 0.39589823E+00 0.14076806E+03</pdfrwt>
<pdfrwt beam="1">  1       -2 0.17977519E-02 0.14076806E+03</pdfrwt>
<totfact> 0.33321538E+03</totfact>
</mgrwt>
</event>
<event>
 8    3  0.7944584E-004  0.1609179E+03  0.7818608E-02  0.1195439E+00
         -2   -1    0    0    0  501 -0.00000000000E+00  0.00000000000E+00  0.24335283237E+02  0.24335283371E+02  0.25500000000E-02 0.  1.
          2   -1    0    0  501    0  0.00000000000E+00 -0.00000000000E+00 -0.10671497768E+04  0.10671497768E+04  0.25500000000E-02 0. -1.
         25    2    1    2    0    0  0.10001647864E+03  0.16011882077E+02 -0.34582658129E+03  0.38143227589E+03  0.12503951535E+03 0.  0.
         23    2    1    2    0    0 -0.10001647864E+03 -0.16011882077E+02 -0.69698791228E+03  0.71005278429E+03  0.90128409748E+02 0.  0.
        -13    1    4    4    0    0 -0.65189080015E+02 -0.25350226033E+02 -0.20225904487E+03  0.21401164106E+03  0.10566000000E+00 0.  1.
         13    1    4    4    0    0 -0.34827398624E+02  0.93383439559E+01 -0.49472886742E+03  0.49604114323E+03  0.10566000000E+00 0. -1.
    9000005    1    3    3    0    0  0.32353610509E+02 -0.48422968082E+02 -0.75137215040E+02  0.95069138183E+02  0.10000000000E+01 0.  0.
    9000005    1    3    3    0    0  0.67662868130E+02  0.64434850159E+02 -0.27068936625E+03  0.28636313771E+03  0.10000000000E+01 0.  0.
<mgrwt>
<rscale>  0 0.15417170E+03</rscale>
<asrwt>0</asrwt>
<pdfrwt beam="2">  1        2 0.16417685E+00 0.16091786E+03</pdfrwt>
<pdfrwt beam="1">  1       -2 0.37438906E-02 0.16091786E+03</pdfrwt>
<totfact> 0.71056378E+03</totfact>
</mgrwt>
</event>
<event>
 8    3  0.7944584E-004  0.1493764E+03  0.7818608E-02  0.1210850E+00
          2   -1    0    0  501    0  0.00000000000E+00  0.00000000000E+00  0.56104294211E+03  0.56104294211E+03  0.25500000000E-02 0.  1.
         -2   -1    0    0    0  501 -0.00000000000E+00 -0.00000000000E+00 -0.33861536230E+02  0.33861536326E+02  0.25500000000E-02 0. -1.
         25    2    1    2    0    0  0.44255521797E+01  0.81660920752E+02  0.34470678814E+03  0.37568081365E+03  0.12500084986E+03 0.  0.
         23    2    1    2    0    0 -0.44255521797E+01 -0.81660920752E+02  0.18247461774E+03  0.21922366479E+03  0.89855092205E+02 0.  0.
        -13    1    4    4    0    0  0.34917817224E+02 -0.65754618385E+02  0.85511672153E+02  0.11338069076E+03  0.10566000000E+00 0. -1.
         13    1    4    4    0    0 -0.39343369403E+02 -0.15906302366E+02  0.96962945586E+02  0.10584297403E+03  0.10566000000E+00 0.  1.
    9000005    1    3    3    0    0 -0.50640776494E+02  0.74763718938E+02  0.17187641948E+03  0.19415613687E+03  0.10000000000E+01 0.  0.
    9000005    1    3    3    0    0  0.55066328674E+02  0.68972018135E+01  0.17283036866E+03  0.18152467677E+03  0.10000000000E+01 0.  0.
<mgrwt>
<rscale>  0 0.14185829E+03</rscale>
<asrwt>0</asrwt>
<pdfrwt beam="1">  1        2 0.86314299E-01 0.14937638E+03</pdfrwt>
<pdfrwt beam="2">  1       -2 0.52094671E-02 0.14937638E+03</pdfrwt>
<totfact> 0.96386920E+03</totfact>
</mgrwt>
</event>
<event>
 8    3  0.7944584E-004  0.1928393E+03  0.7818608E-02  0.1160751E+00
         -2   -1    0    0    0  501 -0.00000000000E+00  0.00000000000E+00  0.10623443705E+03  0.10623443708E+03  0.25500000000E-02 0.  1.
          2   -1    0    0  501    0  0.00000000000E+00 -0.00000000000E+00 -0.32673909989E+03  0.32673909990E+03  0.25500000000E-02 0. -1.
         25    2    1    2    0    0 -0.87777267285E+02 -0.11771739381E+03 -0.15932624765E+03  0.25014368583E+03  0.12499910764E+03 0.  0.
         23    2    1    2    0    0  0.87777267285E+02  0.11771739381E+03 -0.61178415191E+02  0.18282985115E+03  0.90120599923E+02 0.  0.
        -13    1    4    4    0    0 -0.86228504481E+01  0.42919541117E+02 -0.39379005809E+02  0.58882576558E+02  0.10566000000E+00 0. -1.
         13    1    4    4    0    0  0.96400117733E+02  0.74797852692E+02 -0.21799409382E+02  0.12394727460E+03  0.10566000000E+00 0.  1.
    9000005    1    3    3    0    0 -0.50007933612E+02 -0.12890484957E+03 -0.75549147712E+02  0.15756245551E+03  0.10000000000E+01 0.  0.
    9000005    1    3    3    0    0 -0.37769333673E+02  0.11187455760E+02 -0.83777099941E+02  0.92581230317E+02  0.10000000000E+01 0.  0.
<mgrwt>
<rscale>  0 0.18748302E+03</rscale>
<asrwt>0</asrwt>
<pdfrwt beam="2">  1        2 0.50267553E-01 0.19283934E+03</pdfrwt>
<pdfrwt beam="1">  1       -2 0.16343760E-01 0.19283934E+03</pdfrwt>
<totfact> 0.29071897E+03</totfact>
</mgrwt>
</event>
<event>
 8    3  0.7944584E-004  0.1719327E+03  0.7818608E-02  0.1183210E+00
          2   -1    0    0  501    0  0.00000000000E+00  0.00000000000E+00  0.31663703777E+04  0.31663703777E+04  0.25500000000E-02 0. -1.
         -2   -1    0    0    0  501 -0.00000000000E+00 -0.00000000000E+00 -0.88313380034E+01  0.88313383716E+01  0.25500000000E-02 0.  1.
         25    2    1    2    0    0 -0.26520964820E+02  0.11503239170E+03  0.12007518723E+04  0.12129987274E+04  0.12500016479E+03 0.  0.
         23    2    1    2    0    0  0.26520964820E+02 -0.11503239170E+03  0.19567871674E+04  0.19622029886E+04  0.85374102831E+02 0.  0.
        -13    1    4    4    0    0  0.89202273977E+01 -0.10486596802E+03  0.10657352417E+04  0.10709192585E+04  0.10566000000E+00 0.  1.
         13    1    4    4    0    0  0.17600737422E+02 -0.10166423683E+02  0.89105192566E+03  0.89128373009E+03  0.10566000000E+00 0. -1.
    9000005    1    3    3    0    0  0.14571686977E+02  0.11734899613E+03  0.64697021939E+03  0.65768882135E+03  0.10000000000E+01 0.  0.
    9000005    1    3    3    0    0 -0.41092651798E+02 -0.23166044304E+01  0.55378165289E+03  0.55530990605E+03  0.10000000000E+01 0.  0.
<mgrwt>
<rscale>  0 0.16495811E+03</rscale>
<asrwt>0</asrwt>
<pdfrwt beam="1">  1        2 0.48713444E+00 0.17193270E+03</pdfrwt>
<pdfrwt beam="2">  1       -2 0.13586659E-02 0.17193270E+03</pdfrwt>
<totfact> 0.22897031E+03</totfact>
</mgrwt>
</event>
<event>
 8    3  0.7944584E-004  0.1430414E+03  0.7818608E-02  0.1219435E+00
          2   -1    0    0  501    0  0.00000000000E+00  0.00000000000E+00  0.55022116248E+02  0.55022116307E+02  0.25500000000E-02 0. -1.
         -2   -1    0    0    0  501 -0.00000000000E+00 -0.00000000000E+00 -0.30512911533E+03  0.30512911534E+03  0.25500000000E-02 0.  1.
         25    2    1    2    0    0  0.62235062805E+02  0.31002058932E+02 -0.12495568991E+03  0.18993355820E+03  0.12500600541E+03 0.  0.
         23    2    1    2    0    0 -0.62235062805E+02 -0.31002058932E+02 -0.12515130918E+03  0.17021767345E+03  0.92069948774E+02 0.  0.
        -13    1    4    4    0    0 -0.10633517623E+02  0.26365499003E+02 -0.69476597771E+02  0.75068102658E+02  0.10566000000E+00 0.  1.
         13    1    4    4    0    0 -0.51601545183E+02 -0.57367557935E+02 -0.55674711405E+02  0.95149570797E+02  0.10566000000E+00 0. -1.
    9000005    1    3    3    0    0 -0.35982516188E+01  0.59637001930E+02 -0.20481213282E+02  0.63166442922E+02  0.10000000000E+01 0.  0.
    9000005    1    3    3    0    0  0.65833314424E+02 -0.28634942998E+02 -0.10447447662E+03  0.12676711527E+03  0.10000000000E+01 0.  0.
<mgrwt>
<rscale>  0 0.13555746E+03</rscale>
<asrwt>0</asrwt>
<pdfrwt beam="1">  1        2 0.84649412E-02 0.14304136E+03</pdfrwt>
<pdfrwt beam="2">  1       -2 0.46942940E-01 0.14304136E+03</pdfrwt>
<totfact> 0.33103081E+03</totfact>
</mgrwt>
</event>
<event>
 8    3  0.7944584E-004  0.2166307E+03  0.7818608E-02  0.1140135E+00
          2   -1    0    0  501    0  0.00000000000E+00  0.00000000000E+00  0.29549343257E+04  0.29549343257E+04  0.25500000000E-02 0.  1.
         -2   -1    0    0    0  501 -0.00000000000E+00 -0.00000000000E+00 -0.14583710269E+02  0.14583710492E+02  0.25500000000E-02 0. -1.
         25    2    1    2    0    0  0.17376378034E+03 -0.33330514440E+02  0.16116096365E+04  0.16261040800E+04  0.12499633645E+03 0.  0.
         23    2    1    2    0    0 -0.17376378034E+03  0.33330514440E+02  0.13287409790E+04  0.13434139562E+04  0.88902721733E+02 0.  0.
        -13    1    4    4    0    0 -0.27202905034E+02  0.36776646607E+02  0.47294156187E+03  0.47514866293E+03  0.10566000000E+00 0.  1.
         13    1    4    4    0    0 -0.14656087531E+03 -0.34461321675E+01  0.85579941713E+03  0.86826529328E+03  0.10566000000E+00 0. -1.
    9000005    1    3    3    0    0  0.52804627400E+02 -0.22245851188E+02  0.10474061846E+04  0.10489727938E+04  0.10000000000E+01 0.  0.
    9000005    1    3    3    0    0  0.12095915294E+03 -0.11084663251E+02  0.56420345190E+03  0.57713128626E+03  0.10000000000E+01 0.  0.
<mgrwt>
<rscale>  0 0.21181781E+03</rscale>
<asrwt>0</asrwt>
<pdfrwt beam="1">  1        2 0.45460505E+00 0.21663070E+03</pdfrwt>
<pdfrwt beam="2">  1       -2 0.22436489E-02 0.21663070E+03</pdfrwt>
<totfact> 0.14578361E+03</totfact>
</mgrwt>
</event>
<event>
 8    3  0.7944584E-004  0.1287605E+03  0.7818608E-02  0.1243225E+00
         -2   -1    0    0    0  501 -0.00000000000E+00  0.00000000000E+00  0.96409052640E+01  0.96409056012E+01  0.25500000000E-02 0.  1.
          2   -1    0    0  501    0  0.00000000000E+00 -0.00000000000E+00 -0.15877821947E+04  0.15877821947E+04  0.25500000000E-02 0. -1.
         25    2    1    2    0    0 -0.12140502048E+02 -0.28395727669E+02 -0.55666647534E+03  0.57136400442E+03  0.12500220656E+03 0.  0.
         23    2    1    2    0    0  0.12140502048E+02  0.28395727669E+02 -0.10214748141E+04  0.10260590958E+04  0.91830078193E+02 0.  0.
        -13    1    4    4    0    0  0.83833973409E+00 -0.15687107087E+02 -0.33118544525E+02  0.36655658468E+02  0.10566000000E+00 0.  1.
         13    1    4    4    0    0  0.11302162314E+02  0.44082834756E+02 -0.98835626953E+03  0.98940343737E+03  0.10566000000E+00 0. -1.
    9000005    1    3    3    0    0 -0.44961185436E+02 -0.46816571010E+01 -0.72081148915E+02  0.85088883750E+02  0.10000000000E+01 0.  0.
    9000005    1    3    3    0    0  0.32820683388E+02 -0.23714070568E+02 -0.48458532642E+03  0.48627512067E+03  0.10000000000E+01 0.  0.
<mgrwt>
<rscale>  0 0.11992224E+03</rscale>
<asrwt>0</asrwt>
<pdfrwt beam="2">  1        2 0.24427398E+00 0.12876048E+03</pdfrwt>
<pdfrwt beam="1">  1       -2 0.14832175E-02 0.12876048E+03</pdfrwt>
<totfact> 0.14227907E+04</totfact>
</mgrwt>
</event>
<event>
 8    3  0.7944584E-004  0.1296710E+03  0.7818608E-02  0.1241338E+00
         -2   -1    0    0    0  501 -0.00000000000E+00  0.00000000000E+00  0.22762806464E+03  0.22762806466E+03  0.25500000000E-02 0.  1.
          2   -1    0    0  501    0  0.00000000000E+00 -0.00000000000E+00 -0.59049385320E+02  0.59049385375E+02  0.25500000000E-02 0. -1.
         25    2    1    2    0    0  0.11036075805E+02 -0.32687621613E+02  0.70309830878E+02  0.14750602657E+03  0.12499711989E+03 0.  0.
         23    2    1    2    0    0 -0.11036075805E+02  0.32687621613E+02  0.98268848444E+02  0.13917142346E+03  0.92312745369E+02 0.  0.
        -13    1    4    4    0    0  0.10419007639E+02  0.38639932263E+02  0.10777187790E+03  0.11496255441E+03  0.10566000000E+00 0.  1.
         13    1    4    4    0    0 -0.21455083444E+02 -0.59523106505E+01 -0.95030294609E+01  0.24208869049E+02  0.10566000000E+00 0. -1.
    9000005    1    3    3    0    0  0.59787669989E+02 -0.27345185600E+02  0.51604414695E+01  0.65954187239E+02  0.10000000000E+01 0.  0.
    9000005    1    3    3    0    0 -0.48751594184E+02 -0.53424360125E+01  0.65149389409E+02  0.81551839332E+02  0.10000000000E+01 0.  0.
<mgrwt>
<rscale>  0 0.12107240E+03</rscale>
<asrwt>0</asrwt>
<pdfrwt beam="2">  1        2 0.90845209E-02 0.12967095E+03</pdfrwt>
<pdfrwt beam="1">  1       -2 0.35019702E-01 0.12967095E+03</pdfrwt>
<totfact> 0.52526383E+03</totfact>
</mgrwt>
</event>
<event>
 8    3  0.7944584E-004  0.1267452E+03  0.7818608E-02  0.1246597E+00
         -2   -1    0    0    0  501 -0.00000000000E+00  0.00000000000E+00  0.16106711881E+02  0.16106712082E+02  0.25500000000E-02 0.  1.
          2   -1    0    0  501    0  0.00000000000E+00 -0.00000000000E+00 -0.84966625873E+03  0.84966625873E+03  0.25500000000E-02 0. -1.
         25    2    1    2    0    0 -0.14012579378E+02  0.15605364564E+02 -0.60781165307E+03  0.62088594324E+03  0.12499787647E+03 0.  0.
         23    2    1    2    0    0  0.14012579378E+02 -0.15605364564E+02 -0.22574789377E+03  0.24488702757E+03  0.92561681841E+02 0.  0.
        -13    1    4    4    0    0 -0.22177574019E+02 -0.15324303306E+02 -0.19653930099E+03  0.19837940180E+03  0.10566000000E+00 0. -1.
         13    1    4    4    0    0  0.36190153397E+02 -0.28106125811E+00 -0.29208592783E+02  0.46507625769E+02  0.10566000000E+00 0.  1.
    9000005    1    3    3    0    0  0.47707181880E+02  0.23112704935E+02 -0.15484093802E+03  0.16366700467E+03  0.10000000000E+01 0.  0.
    9000005    1    3    3    0    0 -0.61719761258E+02 -0.75073403713E+01 -0.45297071506E+03  0.45721893857E+03  0.10000000000E+01 0.  0.
<mgrwt>
<rscale>  0 0.11790290E+03</rscale>
<asrwt>0</asrwt>
<pdfrwt beam="2">  1        2 0.13071785E+00 0.12674521E+03</pdfrwt>
<pdfrwt beam="1">  1       -2 0.24779563E-02 0.12674521E+03</pdfrwt>
<totfact> 0.17493653E+04</totfact>
</mgrwt>
</event>
<event>
 8    3  0.7944584E-004  0.1298394E+03  0.7818608E-02  0.1241083E+00
         -2   -1    0    0    0  501 -0.00000000000E+00  0.00000000000E+00  0.46228944263E+03  0.46228944263E+03  0.25500000000E-02 0. -1.
          2   -1    0    0  501    0  0.00000000000E+00 -0.00000000000E+00 -0.28241026648E+02  0.28241026764E+02  0.25500000000E-02 0.  1.
         25    2    1    2    0    0  0.33700869744E+02 -0.95903220582E+01  0.24844130989E+03  0.28032364461E+03  0.12502215151E+03 0.  0.
         23    2    1    2    0    0 -0.33700869744E+02  0.95903220582E+01  0.18560710609E+03  0.21020682479E+03  0.92245262523E+02 0.  0.
        -13    1    4    4    0    0 -0.21134372299E+02  0.42199621575E+02  0.16018010274E+03  0.16698846137E+03  0.10566000000E+00 0. -1.
         13    1    4    4    0    0 -0.12566497445E+02 -0.32609299517E+02  0.25427003349E+02  0.43218363416E+02  0.10566000000E+00 0.  1.
    9000005    1    3    3    0    0 -0.43775388196E+02  0.76244477791E+01  0.51720866304E+02  0.68194316676E+02  0.10000000000E+01 0.  0.
    9000005    1    3    3    0    0  0.77476257941E+02 -0.17214769837E+02  0.19672044359E+03  0.21212932793E+03  0.10000000000E+01 0.  0.
<mgrwt>
<rscale>  0 0.12122926E+03</rscale>
<asrwt>0</asrwt>
<pdfrwt beam="2">  1        2 0.43447735E-02 0.12983937E+03</pdfrwt>
<pdfrwt beam="1">  1       -2 0.71121450E-01 0.12983937E+03</pdfrwt>
<totfact> 0.33222430E+03</totfact>
</mgrwt>
</event>
<event>
 8    3  0.7944584E-004  0.2175127E+03  0.7818608E-02  0.1139196E+00
         -2   -1    0    0    0  501 -0.00000000000E+00  0.00000000000E+00  0.49756197117E+03  0.49756197118E+03  0.25500000000E-02 0.  1.
          2   -1    0    0  501    0  0.00000000000E+00 -0.00000000000E+00 -0.10664525830E+03  0.10664525833E+03  0.25500000000E-02 0. -1.
         25    2    1    2    0    0  0.16372961492E+03  0.69854238548E+02  0.74663868762E+02  0.22997060779E+03  0.12499914281E+03 0.  0.
         23    2    1    2    0    0 -0.16372961492E+03 -0.69854238548E+02  0.31625284411E+03  0.37423662172E+03  0.91379353167E+02 0.  0.
        -13    1    4    4    0    0 -0.11949064787E+03 -0.41204187026E+02  0.13268243764E+03  0.18324966679E+03  0.10566000000E+00 0. -1.
         13    1    4    4    0    0 -0.44238967047E+02 -0.28650051522E+02  0.18357040647E+03  0.19098695492E+03  0.10566000000E+00 0.  1.
    9000005    1    3    3    0    0  0.89587853853E+02 -0.12708284239E+02  0.77235509975E+02  0.11896977787E+03  0.10000000000E+01 0.  0.
    9000005    1    3    3    0    0  0.74141761069E+02  0.82562522786E+02 -0.25716412133E+01  0.11100082991E+03  0.10000000000E+01 0.  0.
<mgrwt>
<rscale>  0 0.21302053E+03</rscale>
<asrwt>0</asrwt>
<pdfrwt beam="2">  1        2 0.16406963E-01 0.21751273E+03</pdfrwt>
<pdfrwt beam="1">  1       -2 0.76547996E-01 0.21751273E+03</pdfrwt>
<totfact> 0.54900945E+02</totfact>
</mgrwt>
</event>
<event>
 8    3  0.7944584E-004  0.1458214E+03  0.7818608E-02  0.1215620E+00
         -2   -1    0    0    0  501 -0.00000000000E+00  0.00000000000E+00  0.83640616095E+01  0.83640619982E+01  0.25500000000E-02 0.  1.
          2   -1    0    0  501    0  0.00000000000E+00 -0.00000000000E+00 -0.24166632850E+04  0.24166632850E+04  0.25500000000E-02 0. -1.
         25    2    1    2    0    0  0.62469292776E+02  0.41681059810E+02 -0.17633071785E+04  0.17693264490E+04  0.12499661549E+03 0.  0.
         23    2    1    2    0    0 -0.62469292776E+02 -0.41681059810E+02 -0.64499204484E+03  0.65570089801E+03  0.91045079249E+02 0.  0.
        -13    1    4    4    0    0 -0.43195599859E+02 -0.65478309639E+02 -0.55777368126E+03  0.56326260266E+03  0.10566000000E+00 0. -1.
         13    1    4    4    0    0 -0.19273692917E+02  0.23797249829E+02 -0.87218363583E+02  0.92438295355E+02  0.10566000000E+00 0.  1.
    9000005    1    3    3    0    0  0.50019606846E+02  0.15595527857E+02 -0.16855566268E+04  0.16863710516E+04  0.10000000000E+01 0.  0.
    9000005    1    3    3    0    0  0.12449685930E+02  0.26085531953E+02 -0.77750551736E+02  0.82955397367E+02  0.10000000000E+01 0.  0.
<mgrwt>
<rscale>  0 0.13831066E+03</rscale>
<asrwt>0</asrwt>
<pdfrwt beam="2">  1        2 0.37179379E+00 0.14582139E+03</pdfrwt>
<pdfrwt beam="1">  1       -2 0.12867807E-02 0.14582139E+03</pdfrwt>
<totfact> 0.65509673E+03</totfact>
</mgrwt>
</event>
<event>
 8    3  0.7944584E-004  0.1641580E+03  0.7818608E-02  0.1192261E+00
         -2   -1    0    0    0  501 -0.00000000000E+00  0.00000000000E+00  0.17386891173E+03  0.17386891175E+03  0.25500000000E-02 0.  1.
          2   -1    0    0  501    0  0.00000000000E+00 -0.00000000000E+00 -0.14572385770E+03  0.14572385773E+03  0.25500000000E-02 0. -1.
         25    2    1    2    0    0  0.49346259187E+02 -0.94288052374E+02 -0.36496908202E+02  0.16816623649E+03  0.12499027431E+03 0.  0.
         23    2    1    2    0    0 -0.49346259187E+02  0.94288052374E+02  0.64641962227E+02  0.15142653298E+03  0.86174947027E+02 0.  0.
        -13    1    4    4    0    0 -0.23192905273E+02  0.84074160043E+02  0.72263973547E+01  0.87513468818E+02  0.10566000000E+00 0. -1.
         13    1    4    4    0    0 -0.26153353914E+02  0.10213892331E+02  0.57415564872E+02  0.63913064167E+02  0.10566000000E+00 0.  1.
    9000005    1    3    3    0    0 -0.21755845367E+02 -0.80153775508E+02  0.74386265991E+01  0.83392312004E+02  0.10000000000E+01 0.  0.
    9000005    1    3    3    0    0  0.71102104554E+02 -0.14134276866E+02 -0.43935534801E+02  0.84773924486E+02  0.10000000000E+01 0.  0.
<mgrwt>
<rscale>  0 0.15688299E+03</rscale>
<asrwt>0</asrwt>
<pdfrwt beam="2">  1        2 0.22419055E-01 0.16415803E+03</pdfrwt>
<pdfrwt beam="1">  1       -2 0.26749063E-01 0.16415803E+03</pdfrwt>
<totfact> 0.29859388E+03</totfact>
</mgrwt>
</event>
<event>
 8    3  0.7944584E-004  0.1640146E+03  0.7818608E-02  0.1191043E+00
         -2   -1    0    0    0  501 -0.00000000000E+00  0.00000000000E+00  0.99818696259E+02  0.99818696292E+02  0.25500000000E-02 0.  1.
          2   -1    0    0  501    0  0.00000000000E+00 -0.00000000000E+00 -0.24220764017E+03  0.24220764019E+03  0.25500000000E-02 0. -1.
         25    2    1    2    0    0 -0.11566206034E+02 -0.10555030802E+03 -0.10950586573E+03  0.19721133996E+03  0.12500453325E+03 0.  0.
         23    2    1    2    0    0  0.11566206034E+02  0.10555030802E+03 -0.32883078182E+02  0.14481499652E+03  0.92819403898E+02 0.  0.
        -13    1    4    4    0    0 -0.36522810331E+02  0.70900239933E+02 -0.67566359093E+01  0.80040133620E+02  0.10566000000E+00 0. -1.
         13    1    4    4    0    0  0.48089016365E+02  0.34650068091E+02 -0.26126442273E+02  0.64774862898E+02  0.10566000000E+00 0.  1.
    9000005    1    3    3    0    0 -0.34199899538E+02 -0.17305451609E+02 -0.98182547525E+02  0.10540362623E+03  0.10000000000E+01 0.  0.
    9000005    1    3    3    0    0  0.22633693504E+02 -0.88244856415E+02 -0.11323318207E+02  0.91807713731E+02  0.10000000000E+01 0.  0.
<mgrwt>
<rscale>  0 0.15793973E+03</rscale>
<asrwt>0</asrwt>
<pdfrwt beam="2">  1        2 0.37262714E-01 0.16401457E+03</pdfrwt>
<pdfrwt beam="1">  1       -2 0.15356723E-01 0.16401457E+03</pdfrwt>
<totfact> 0.44080428E+03</totfact>
</mgrwt>
</event>
<event>
 8    3  0.7944584E-004  0.1263642E+03  0.7818608E-02  0.1247051E+00
         -2   -1    0    0    0  501 -0.00000000000E+00  0.00000000000E+00  0.76163831744E+02  0.76163831787E+02  0.25500000000E-02 0.  1.
          2   -1    0    0  501    0  0.00000000000E+00 -0.00000000000E+00 -0.16368422002E+03  0.16368422004E+03  0.25500000000E-02 0. -1.
         25    2    1    2    0    0  0.15974831612E+02  0.93113430879E+01 -0.33838915779E+02  0.13081659591E+03  0.12500405269E+03 0.  0.
         23    2    1    2    0    0 -0.15974831612E+02 -0.93113430879E+01 -0.53681472494E+02  0.10903145592E+03  0.93082015101E+02 0.  0.
        -13    1    4    4    0    0 -0.16748174271E+02 -0.31195506319E+02 -0.72159975086E+02  0.80378691979E+02  0.10566000000E+00 0. -1.
         13    1    4    4    0    0  0.77334265916E+00  0.21884163231E+02  0.18478502592E+02  0.28652763938E+02  0.10566000000E+00 0.  1.
    9000005    1    3    3    0    0 -0.51842565003E+02  0.21433656137E+02 -0.57137992164E+01  0.56397700866E+02  0.10000000000E+01 0.  0.
    9000005    1    3    3    0    0  0.67817396615E+02 -0.12122313049E+02 -0.28125116562E+02  0.74418895040E+02  0.10000000000E+01 0.  0.
<mgrwt>
<rscale>  0 0.11763471E+03</rscale>
<asrwt>0</asrwt>
<pdfrwt beam="2">  1        2 0.25182188E-01 0.12636419E+03</pdfrwt>
<pdfrwt beam="1">  1       -2 0.11717513E-01 0.12636419E+03</pdfrwt>
<totfact> 0.10260666E+04</totfact>
</mgrwt>
</event>
<event>
 8    3  0.7944584E-004  0.1272760E+03  0.7818608E-02  0.1245824E+00
         -2   -1    0    0    0  501 -0.00000000000E+00  0.00000000000E+00  0.54481144751E+02  0.54481144811E+02  0.25500000000E-02 0.  1.
          2   -1    0    0  501    0  0.00000000000E+00 -0.00000000000E+00 -0.23040267676E+03  0.23040267677E+03  0.25500000000E-02 0. -1.
         25    2    1    2    0    0 -0.10313488661E+02 -0.21636690469E+02 -0.11731429979E+03  0.17309486872E+03  0.12499869687E+03 0.  0.
         23    2    1    2    0    0  0.10313488661E+02  0.21636690469E+02 -0.58607232215E+02  0.11178895286E+03  0.92127346053E+02 0.  0.
        -13    1    4    4    0    0 -0.23780737465E+02 -0.15207700382E+02  0.70937377918E+01  0.29105496133E+02  0.10566000000E+00 0. -1.
         13    1    4    4    0    0  0.34094226126E+02  0.36844390850E+02 -0.65700970007E+02  0.82683456726E+02  0.10566000000E+00 0.  1.
    9000005    1    3    3    0    0  0.20974811830E+02  0.38465829968E+02 -0.81028660201E+01  0.44567019691E+02  0.10000000000E+01 0.  0.
    9000005    1    3    3    0    0 -0.31288300491E+02 -0.60102520437E+02 -0.10921143377E+03  0.12852784903E+03  0.10000000000E+01 0.  0.
<mgrwt>
<rscale>  0 0.11836213E+03</rscale>
<asrwt>0</asrwt>
<pdfrwt beam="2">  1        2 0.35446565E-01 0.12727603E+03</pdfrwt>
<pdfrwt beam="1">  1       -2 0.83817147E-02 0.12727603E+03</pdfrwt>
<totfact> 0.11991510E+04</totfact>
</mgrwt>
</event>
<event>
 8    3  0.7944584E-004  0.1397336E+03  0.7818608E-02  0.1224833E+00
         -2   -1    0    0    0  501 -0.00000000000E+00  0.00000000000E+00  0.70797409938E+03  0.70797409939E+03  0.25500000000E-02 0.  1.
          2   -1    0    0  501    0  0.00000000000E+00 -0.00000000000E+00 -0.77385706797E+02  0.77385706839E+02  0.25500000000E-02 0. -1.
         25    2    1    2    0    0  0.48248528561E+02  0.39667459225E+02  0.65700671203E+03  0.67170178684E+03  0.12499617175E+03 0.  0.
         23    2    1    2    0    0 -0.48248528561E+02 -0.39667459225E+02 -0.26418319446E+02  0.11365801939E+03  0.91207400687E+02 0.  0.
        -13    1    4    4    0    0 -0.87229110982E+01 -0.47082214825E+02  0.20305289219E+02  0.52010961010E+02  0.10566000000E+00 0.  1.
         13    1    4    4    0    0 -0.39525617462E+02  0.74147555998E+01 -0.46723608666E+02  0.61647058382E+02  0.10566000000E+00 0. -1.
    9000005    1    3    3    0    0  0.32530917380E+02  0.19567176553E+02  0.43828116468E+02  0.57991713003E+02  0.10000000000E+01 0.  0.
    9000005    1    3    3    0    0  0.15717611181E+02  0.20100282672E+02  0.61317859557E+03  0.61371007383E+03  0.10000000000E+01 0.  0.
<mgrwt>
<rscale>  0 0.13178332E+03</rscale>
<asrwt>0</asrwt>
<pdfrwt beam="2">  1        2 0.11905494E-01 0.13973357E+03</pdfrwt>
<pdfrwt beam="1">  1       -2 0.10891909E+00 0.13973357E+03</pdfrwt>
<totfact> 0.35901349E+02</totfact>
</mgrwt>
</event>
<event>
 8    3  0.7944584E-004  0.1451210E+03  0.7818608E-02  0.1216919E+00
         -2   -1    0    0    0  501 -0.00000000000E+00  0.00000000000E+00  0.17083632212E+02  0.17083632403E+02  0.25500000000E-02 0.  1.
          2   -1    0    0  501    0  0.00000000000E+00 -0.00000000000E+00 -0.10419024302E+04  0.10419024302E+04  0.25500000000E-02 0. -1.
         25    2    1    2    0    0 -0.43076199909E+02 -0.59831742121E+02 -0.46276237675E+03  0.48498362703E+03  0.12499881915E+03 0.  0.
         23    2    1    2    0    0  0.43076199909E+02  0.59831742121E+02 -0.56205642125E+03  0.57400243559E+03  0.90199662010E+02 0.  0.
        -13    1    4    4    0    0 -0.19491090557E+02 -0.42659281393E+01 -0.44724568567E+02  0.48973451497E+02  0.10566000000E+00 0.  1.
         13    1    4    4    0    0  0.62567290467E+02  0.64097670260E+02 -0.51733185268E+03  0.52502898409E+03  0.10566000000E+00 0. -1.
    9000005    1    3    3    0    0 -0.38835928229E+02  0.36337345354E+01 -0.34687655586E+02  0.52207918922E+02  0.10000000000E+01 0.  0.
    9000005    1    3    3    0    0 -0.42402716807E+01 -0.63465476656E+02 -0.42807472116E+03  0.43277570811E+03  0.10000000000E+01 0.  0.
<mgrwt>
<rscale>  0 0.13736486E+03</rscale>
<asrwt>0</asrwt>
<pdfrwt beam="2">  1        2 0.16029263E+00 0.14512099E+03</pdfrwt>
<pdfrwt beam="1">  1       -2 0.26282519E-02 0.14512099E+03</pdfrwt>
<totfact> 0.12332773E+04</totfact>
</mgrwt>
</event>
<event>
 8    3  0.7944584E-004  0.1382085E+03  0.7818608E-02  0.1227182E+00
         -2   -1    0    0    0  501 -0.00000000000E+00  0.00000000000E+00  0.46122102818E+03  0.46122102819E+03  0.25500000000E-02 0.  1.
          2   -1    0    0  501    0  0.00000000000E+00 -0.00000000000E+00 -0.49350324456E+02  0.49350324522E+02  0.25500000000E-02 0. -1.
         25    2    1    2    0    0 -0.52223848794E+02  0.27453220288E+02  0.76445199713E+02  0.15794132161E+03  0.12498233006E+03 0.  0.
         23    2    1    2    0    0  0.52223848794E+02 -0.27453220288E+02  0.33542550401E+03  0.35263003110E+03  0.91414771246E+02 0.  0.
        -13    1    4    4    0    0  0.68537861735E+02  0.33734362355E+01  0.16550081010E+03  0.17916290875E+03  0.10566000000E+00 0. -1.
         13    1    4    4    0    0 -0.16314012940E+02 -0.30826656523E+02  0.16992469391E+03  0.17346712235E+03  0.10566000000E+00 0.  1.
    9000005    1    3    3    0    0 -0.24399220911E+02  0.52990870290E+02 -0.13930255432E+02  0.59986717959E+02  0.10000000000E+01 0.  0.
    9000005    1    3    3    0    0 -0.27824627883E+02 -0.25537650002E+02  0.90375455145E+02  0.97954603655E+02  0.10000000000E+01 0.  0.
<mgrwt>
<rscale>  0 0.13018453E+03</rscale>
<asrwt>0</asrwt>
<pdfrwt beam="2">  1        2 0.75923576E-02 0.13820851E+03</pdfrwt>
<pdfrwt beam="1">  1       -2 0.70957082E-01 0.13820851E+03</pdfrwt>
<totfact> 0.16306962E+03</totfact>
</mgrwt>
</event>
<event>
 8    3  0.7944584E-004  0.1808584E+03  0.7818608E-02  0.1172307E+00
         -2   -1    0    0    0  501 -0.00000000000E+00  0.00000000000E+00  0.17878097185E+02  0.17878097367E+02  0.25500000000E-02 0.  1.
          2   -1    0    0  501    0  0.00000000000E+00 -0.00000000000E+00 -0.17156486734E+04  0.17156486734E+04  0.25500000000E-02 0. -1.
         25    2    1    2    0    0 -0.57578792369E+02 -0.11734763497E+03 -0.69950677265E+03  0.72250916539E+03  0.12499593725E+03 0.  0.
         23    2    1    2    0    0  0.57578792369E+02  0.11734763497E+03 -0.99826380353E+03  0.10110176053E+04  0.92413159823E+02 0.  0.
        -13    1    4    4    0    0  0.38515011658E+02  0.98431506904E+02 -0.94935003771E+03  0.95521603469E+03  0.10566000000E+00 0. -1.
         13    1    4    4    0    0  0.19063780711E+02  0.18916128062E+02 -0.48913765821E+02  0.55801570647E+02  0.10566000000E+00 0.  1.
    9000005    1    3    3    0    0 -0.14703596257E+02 -0.44326622152E+02 -0.53700687568E+02  0.71174496975E+02  0.10000000000E+01 0.  0.
    9000005    1    3    3    0    0 -0.42875196111E+02 -0.73021012813E+02 -0.64580608508E+03  0.65133466841E+03  0.10000000000E+01 0.  0.
<mgrwt>
<rscale>  0 0.17542404E+03</rscale>
<asrwt>0</asrwt>
<pdfrwt beam="2">  1        2 0.26394582E+00 0.18085842E+03</pdfrwt>
<pdfrwt beam="1">  1       -2 0.27504778E-02 0.18085842E+03</pdfrwt>
<totfact> 0.50254817E+03</totfact>
</mgrwt>
</event>
<event>
 8    3  0.7944584E-004  0.3044450E+03  0.7818608E-02  0.1083492E+00
          2   -1    0    0  501    0  0.00000000000E+00  0.00000000000E+00  0.14542325145E+04  0.14542325145E+04  0.25500000000E-02 0.  1.
         -2   -1    0    0    0  501 -0.00000000000E+00 -0.00000000000E+00 -0.97463968433E+02  0.97463968467E+02  0.25500000000E-02 0. -1.
         25    2    1    2    0    0 -0.25522487555E+03  0.10918758820E+03  0.11425831678E+04  0.11824478957E+04  0.12500025656E+03 0.  0.
         23    2    1    2    0    0  0.25522487555E+03 -0.10918758820E+03  0.21418537823E+03  0.36924858726E+03  0.11579065775E+03 0.  0.
        -13    1    4    4    0    0  0.20261763752E+03 -0.13072986642E+03  0.15222296388E+03  0.28515968667E+03  0.10566000000E+00 0. -1.
         13    1    4    4    0    0  0.52607238031E+02  0.21542278214E+02  0.61962414357E+02  0.84088900581E+02  0.10566000000E+00 0.  1.
    9000005    1    3    3    0    0 -0.13780442616E+03  0.93798600928E+02  0.45151510132E+03  0.48130564523E+03  0.10000000000E+01 0.  0.
    9000005    1    3    3    0    0 -0.11742044939E+03  0.15388987275E+02  0.69106806648E+03  0.70114225046E+03  0.10000000000E+01 0.  0.
<mgrwt>
<rscale>  0 0.30352477E+03</rscale>
<asrwt>0</asrwt>
<pdfrwt beam="1">  1        2 0.22372807E+00 0.30444496E+03</pdfrwt>
<pdfrwt beam="2">  1       -2 0.14994457E-01 0.30444496E+03</pdfrwt>
<totfact> 0.49482086E+02</totfact>
</mgrwt>
</event>
<event>
 8    3  0.7944584E-004  0.1255895E+03  0.7818608E-02  0.1248169E+00
         -2   -1    0    0    0  501 -0.00000000000E+00  0.00000000000E+00  0.16034934725E+02  0.16034934928E+02  0.25500000000E-02 0.  1.
          2   -1    0    0  501    0  0.00000000000E+00 -0.00000000000E+00 -0.78001447139E+03  0.78001447139E+03  0.25500000000E-02 0. -1.
         25    2    1    2    0    0  0.23146601175E+01 -0.11915450087E+02 -0.50425532267E+03  0.51965966219E+03  0.12500159384E+03 0.  0.
         23    2    1    2    0    0 -0.23146601175E+01  0.11915450087E+02 -0.25972421399E+03  0.27638974413E+03  0.93740534053E+02 0.  0.
        -13    1    4    4    0    0  0.19982231056E+02  0.48043359245E+02 -0.14677332549E+03  0.15572371099E+03  0.10566000000E+00 0.  1.
         13    1    4    4    0    0 -0.22296891174E+02 -0.36127909158E+02 -0.11295088850E+03  0.12066603314E+03  0.10566000000E+00 0. -1.
    9000005    1    3    3    0    0  0.60013709440E+02 -0.25598440613E+02 -0.23080848162E+03  0.23985512434E+03  0.10000000000E+01 0.  0.
    9000005    1    3    3    0    0 -0.57699049323E+02  0.13682990526E+02 -0.27344684105E+03  0.27980453785E+03  0.10000000000E+01 0.  0.
<mgrwt>
<rscale>  0 0.11697678E+03</rscale>
<asrwt>0</asrwt>
<pdfrwt beam="2">  1        2 0.12000220E+00 0.12558955E+03</pdfrwt>
<pdfrwt beam="1">  1       -2 0.24669137E-02 0.12558955E+03</pdfrwt>
<totfact> 0.19578198E+04</totfact>
</mgrwt>
</event>
<event>
 8    3  0.7944584E-004  0.1533350E+03  0.7818608E-02  0.1204937E+00
         -2   -1    0    0    0  501 -0.00000000000E+00  0.00000000000E+00  0.57469194452E+02  0.57469194509E+02  0.25500000000E-02 0.  1.
          2   -1    0    0  501    0  0.00000000000E+00 -0.00000000000E+00 -0.34316825977E+03  0.34316825978E+03  0.25500000000E-02 0. -1.
         25    2    1    2    0    0 -0.38773991497E+02  0.79888876830E+02 -0.15327397340E+03  0.21680529516E+03  0.12500388006E+03 0.  0.
         23    2    1    2    0    0  0.38773991497E+02 -0.79888876830E+02 -0.13242509192E+03  0.18383215913E+03  0.91499741543E+02 0.  0.
        -13    1    4    4    0    0  0.31341562171E+02  0.80928659591E+01 -0.12035439184E+02  0.34534778979E+02  0.10566000000E+00 0.  1.
         13    1    4    4    0    0  0.74324293261E+01 -0.87981742789E+02 -0.12038965274E+03  0.14929738015E+03  0.10566000000E+00 0. -1.
    9000005    1    3    3    0    0 -0.15845168184E+02  0.10328819614E+03 -0.66045996067E+02  0.12362279083E+03  0.10000000000E+01 0.  0.
    9000005    1    3    3    0    0 -0.22928823314E+02 -0.23399319313E+02 -0.87227977330E+02  0.93182504324E+02  0.10000000000E+01 0.  0.
<mgrwt>
<rscale>  0 0.14642455E+03</rscale>
<asrwt>0</asrwt>
<pdfrwt beam="2">  1        2 0.52795116E-01 0.15333501E+03</pdfrwt>
<pdfrwt beam="1">  1       -2 0.88414148E-02 0.15333501E+03</pdfrwt>
<totfact> 0.73244372E+03</totfact>
</mgrwt>
</event>
<event>
 8    3  0.7944584E-004  0.1371996E+03  0.7818608E-02  0.1229030E+00
          2   -1    0    0  501    0  0.00000000000E+00  0.00000000000E+00  0.94536768490E+03  0.94536768490E+03  0.25500000000E-02 0. -1.
         -2   -1    0    0    0  501 -0.00000000000E+00 -0.00000000000E+00 -0.15913589518E+02  0.15913589722E+02  0.25500000000E-02 0.  1.
         25    2    1    2    0    0 -0.32622738286E+02 -0.46198897503E+02  0.47714020864E+03  0.49647407189E+03  0.12500057669E+03 0.  0.
         23    2    1    2    0    0  0.32622738286E+02  0.46198897503E+02  0.45231388674E+03  0.46480720274E+03  0.90880704180E+02 0.  0.
        -13    1    4    4    0    0  0.31967578070E+01 -0.24411298973E+02  0.18931608017E+03  0.19091024109E+03  0.10566000000E+00 0. -1.
         13    1    4    4    0    0  0.29425980479E+02  0.70610196476E+02  0.26299780658E+03  0.27389696165E+03  0.10566000000E+00 0.  1.
    9000005    1    3    3    0    0  0.14441168503E+02 -0.27008073560E+02  0.41526415662E+03  0.41639320739E+03  0.10000000000E+01 0.  0.
    9000005    1    3    3    0    0 -0.47063906789E+02 -0.19190823943E+02  0.61876052019E+02  0.80080864502E+02  0.10000000000E+01 0.  0.
<mgrwt>
<rscale>  0 0.12894445E+03</rscale>
<asrwt>0</asrwt>
<pdfrwt beam="1">  1        2 0.14544121E+00 0.13719958E+03</pdfrwt>
<pdfrwt beam="2">  1       -2 0.24482440E-02 0.13719958E+03</pdfrwt>
<totfact> 0.15580865E+04</totfact>
</mgrwt>
</event>
<event>
 8    3  0.7944584E-004  0.3276691E+03  0.7818608E-02  0.1073466E+00
         -2   -1    0    0    0  501 -0.00000000000E+00  0.00000000000E+00  0.52409396505E+02  0.52409396567E+02  0.25500000000E-02 0. -1.
          2   -1    0    0  501    0  0.00000000000E+00 -0.00000000000E+00 -0.20063752491E+04  0.20063752491E+04  0.25500000000E-02 0.  1.
         25    2    1    2    0    0 -0.69869613154E+02  0.29472038246E+03 -0.11159955588E+04  0.11631049418E+04  0.12500060761E+03 0.  0.
         23    2    1    2    0    0  0.69869613154E+02 -0.29472038246E+03 -0.83797029379E+03  0.89567970378E+03  0.91137543313E+02 0.  0.
        -13    1    4    4    0    0  0.79994494238E+02 -0.21434527126E+03 -0.53080295172E+03  0.57800934174E+03  0.10566000000E+00 0. -1.
         13    1    4    4    0    0 -0.10124881084E+02 -0.80375111198E+02 -0.30716734207E+03  0.31767036204E+03  0.10566000000E+00 0.  1.
    9000005    1    3    3    0    0 -0.26023054577E+02  0.76125265473E+02 -0.53106139818E+03  0.53712146117E+03  0.10000000000E+01 0.  0.
    9000005    1    3    3    0    0 -0.43846558577E+02  0.21859511698E+03 -0.58493416057E+03  0.62598348067E+03  0.10000000000E+01 0.  0.
<mgrwt>
<rscale>  0 0.32478996E+03</rscale>
<asrwt>0</asrwt>
<pdfrwt beam="2">  1        2 0.30867306E+00 0.32766907E+03</pdfrwt>
<pdfrwt beam="1">  1       -2 0.80629856E-02 0.32766907E+03</pdfrwt>
<totfact> 0.68378621E+02</totfact>
</mgrwt>
</event>
<event>
 8    3  0.7944584E-004  0.1253548E+03  0.7818608E-02  0.1250484E+00
          2   -1    0    0  501    0  0.00000000000E+00  0.00000000000E+00  0.15994164102E+04  0.15994164102E+04  0.25500000000E-02 0. -1.
         -2   -1    0    0    0  501 -0.00000000000E+00 -0.00000000000E+00 -0.74821138384E+01  0.74821142729E+01  0.25500000000E-02 0.  1.
         25    2    1    2    0    0 -0.93959877534E+01 -0.69631254798E+00  0.79656540199E+03  0.80636856906E+03  0.12500024033E+03 0.  0.
         23    2    1    2    0    0  0.93959877534E+01  0.69631254798E+00  0.79536889434E+03  0.80052995538E+03  0.90264954144E+02 0.  0.
        -13    1    4    4    0    0 -0.37985114398E+01  0.16323720549E+02  0.26282686459E+02  0.31171835257E+02  0.10566000000E+00 0.  1.
         13    1    4    4    0    0  0.13194499193E+02 -0.15627408001E+02  0.76908620788E+03  0.76935812012E+03  0.10566000000E+00 0. -1.
    9000005    1    3    3    0    0  0.28161748452E+01 -0.42122604353E+02  0.69122818975E+03  0.69251689867E+03  0.10000000000E+01 0.  0.
    9000005    1    3    3    0    0 -0.12212162599E+02  0.41426291805E+02  0.10533721224E+03  0.11385167039E+03  0.10000000000E+01 0.  0.
<mgrwt>
<rscale>  0 0.11563087E+03</rscale>
<asrwt>0</asrwt>
<pdfrwt beam="1">  1        2 0.24606413E+00 0.12535481E+03</pdfrwt>
<pdfrwt beam="2">  1       -2 0.11510941E-02 0.12535481E+03</pdfrwt>
<totfact> 0.20161937E+04</totfact>
</mgrwt>
</event>
<event>
 8    3  0.7944584E-004  0.1323812E+03  0.7818608E-02  0.1236212E+00
          2   -1    0    0  501    0  0.00000000000E+00  0.00000000000E+00  0.86223013449E+03  0.86223013449E+03  0.25500000000E-02 0.  1.
         -2   -1    0    0    0  501 -0.00000000000E+00 -0.00000000000E+00 -0.16376485228E+02  0.16376485426E+02  0.25500000000E-02 0. -1.
         25    2    1    2    0    0  0.40858215060E+02 -0.15231760380E+02  0.41230339768E+03  0.43303449917E+03  0.12499354170E+03 0.  0.
         23    2    1    2    0    0 -0.40858215060E+02  0.15231760380E+02  0.43355025157E+03  0.44557212075E+03  0.93098302263E+02 0.  0.
        -13    1    4    4    0    0 -0.40865542499E+02 -0.30535191051E+02  0.30223030515E+03  0.30650539795E+03  0.10566000000E+00 0. -1.
         13    1    4    4    0    0  0.73274395203E-02  0.45766951431E+02  0.13131994643E+03  0.13906672280E+03  0.10566000000E+00 0.  1.
    9000005    1    3    3    0    0  0.84453998550E+02 -0.23430250853E+02  0.25827627131E+03  0.27274362843E+03  0.10000000000E+01 0.  0.
    9000005    1    3    3    0    0 -0.43595783490E+02  0.81984904728E+01  0.15402712637E+03  0.16029087074E+03  0.10000000000E+01 0.  0.
<mgrwt>
<rscale>  0 0.12427176E+03</rscale>
<asrwt>0</asrwt>
<pdfrwt beam="1">  1        2 0.13265081E+00 0.13238121E+03</pdfrwt>
<pdfrwt beam="2">  1       -2 0.25194589E-02 0.13238121E+03</pdfrwt>
<totfact> 0.16812661E+04</totfact>
</mgrwt>
</event>
<event>
 8    3  0.7944584E-004  0.1309854E+03  0.7818608E-02  0.1243029E+00
          2   -1    0    0  501    0  0.00000000000E+00  0.00000000000E+00  0.27596175860E+03  0.27596175862E+03  0.25500000000E-02 0. -1.
         -2   -1    0    0    0  501 -0.00000000000E+00 -0.00000000000E+00 -0.46157850697E+02  0.46157850767E+02  0.25500000000E-02 0.  1.
         25    2    1    2    0    0  0.16345875412E+02 -0.35590013435E+02  0.11153724658E+03  0.17203988579E+03  0.12499331273E+03 0.  0.
         23    2    1    2    0    0 -0.16345875412E+02  0.35590013435E+02  0.11826666132E+03  0.15007972359E+03  0.83684428382E+02 0.  0.
        -13    1    4    4    0    0 -0.18441374774E+02 -0.49398987999E+01 -0.54679420971E+01  0.19859417376E+02  0.10566000000E+00 0.  1.
         13    1    4    4    0    0  0.20954993623E+01  0.40529912235E+02  0.12373460342E+03  0.13022030622E+03  0.10566000000E+00 0. -1.
    9000005    1    3    3    0    0 -0.18453387596E+02 -0.75333531569E+02  0.74214096767E+02  0.10735176129E+03  0.10000000000E+01 0.  0.
    9000005    1    3    3    0    0  0.34799263008E+02  0.39743518134E+02  0.37323149817E+02  0.64688124504E+02  0.10000000000E+01 0.  0.
<mgrwt>
<rscale>  0 0.12004103E+03</rscale>
<asrwt>0</asrwt>
<pdfrwt beam="1">  1        2 0.42455655E-01 0.13098536E+03</pdfrwt>
<pdfrwt beam="2">  1       -2 0.71012079E-02 0.13098536E+03</pdfrwt>
<totfact> 0.12805108E+04</totfact>
</mgrwt>
</event>
<event>
 8    3  0.7944584E-004  0.1267464E+03  0.7818608E-02  0.1247726E+00
          2   -1    0    0  501    0  0.00000000000E+00  0.00000000000E+00  0.59041278063E+03  0.59041278064E+03  0.25500000000E-02 0. -1.
         -2   -1    0    0    0  501 -0.00000000000E+00 -0.00000000000E+00 -0.20406387431E+02  0.20406387590E+02  0.25500000000E-02 0.  1.
         25    2    1    2    0    0 -0.57122913392E+01  0.20187973163E+02  0.33036634983E+03  0.35384539609E+03  0.12499781878E+03 0.  0.
         23    2    1    2    0    0  0.57122913392E+01 -0.20187973163E+02  0.23964004337E+03  0.25697377214E+03  0.90376903294E+02 0.  0.
        -13    1    4    4    0    0  0.30476144776E+01 -0.64244961334E+01  0.24255105808E+03  0.24265528851E+03  0.10566000000E+00 0. -1.
         13    1    4    4    0    0  0.26646768616E+01 -0.13763477030E+02 -0.29110147079E+01  0.14318483628E+02  0.10566000000E+00 0.  1.
    9000005    1    3    3    0    0 -0.55626988782E+02  0.36095243734E+02  0.12058130125E+03  0.13761569210E+03  0.10000000000E+01 0.  0.
    9000005    1    3    3    0    0  0.49914697443E+02 -0.15907270570E+02  0.20978504859E+03  0.21622970399E+03  0.10000000000E+01 0.  0.
<mgrwt>
<rscale>  0 0.11723721E+03</rscale>
<asrwt>0</asrwt>
<pdfrwt beam="1">  1        2 0.90832742E-01 0.12674636E+03</pdfrwt>
<pdfrwt beam="2">  1       -2 0.31394440E-02 0.12674636E+03</pdfrwt>
<totfact> 0.19097139E+04</totfact>
</mgrwt>
</event>
<event>
 8    3  0.7944584E-004  0.1267497E+03  0.7818608E-02  0.1247430E+00
          2   -1    0    0  501    0  0.00000000000E+00  0.00000000000E+00  0.25451245649E+04  0.25451245649E+04  0.25500000000E-02 0. -1.
         -2   -1    0    0    0  501 -0.00000000000E+00 -0.00000000000E+00 -0.58656488577E+01  0.58656494120E+01  0.25500000000E-02 0.  1.
         25    2    1    2    0    0  0.15285958557E+02  0.14344852579E+02  0.87682144841E+03  0.88593529568E+03  0.12500424156E+03 0.  0.
         23    2    1    2    0    0 -0.15285958557E+02 -0.14344852579E+02  0.16624374676E+04  0.16650549186E+04  0.90940161452E+02 0.  0.
        -13    1    4    4    0    0 -0.52550700560E+02 -0.17007044476E+02  0.88711613507E+03  0.88883399122E+03  0.10566000000E+00 0. -1.
         13    1    4    4    0    0  0.37264742003E+02  0.26621918971E+01  0.77532133255E+03  0.77622092740E+03  0.10566000000E+00 0.  1.
    9000005    1    3    3    0    0  0.41100926485E+02  0.45942098101E+02  0.75386711649E+03  0.75638389186E+03  0.10000000000E+01 0.  0.
    9000005    1    3    3    0    0 -0.25814967928E+02 -0.31597245521E+02  0.12295433192E+03  0.12955140382E+03  0.10000000000E+01 0.  0.
<mgrwt>
<rscale>  0 0.11741126E+03</rscale>
<asrwt>0</asrwt>
<pdfrwt beam="1">  1        2 0.39155674E+00 0.12674974E+03</pdfrwt>
<pdfrwt beam="2">  1       -2 0.90240960E-03 0.12674974E+03</pdfrwt>
<totfact> 0.92830921E+03</totfact>
</mgrwt>
</event>
<event>
 8    3  0.7944584E-004  0.1479943E+03  0.7818608E-02  0.1216577E+00
          2   -1    0    0  501    0  0.00000000000E+00  0.00000000000E+00  0.91360716011E+03  0.91360716011E+03  0.25500000000E-02 0. -1.
         -2   -1    0    0    0  501 -0.00000000000E+00 -0.00000000000E+00 -0.19390165813E+02  0.19390165981E+02  0.25500000000E-02 0.  1.
         25    2    1    2    0    0 -0.78078639027E+02 -0.13473316865E+02  0.39875149833E+03  0.42532937135E+03  0.12499805026E+03 0.  0.
         23    2    1    2    0    0  0.78078639027E+02  0.13473316865E+02  0.49546549596E+03  0.50766795475E+03  0.77219754247E+02 0.  0.
        -13    1    4    4    0    0  0.62807776401E+02  0.19921577108E+02  0.17856719196E+03  0.19033638438E+03  0.10566000000E+00 0.  1.
         13    1    4    4    0    0  0.15270862626E+02 -0.64482602438E+01  0.31689830401E+03  0.31733157037E+03  0.10566000000E+00 0. -1.
    9000005    1    3    3    0    0 -0.75154506269E+02  0.24714507300E+02  0.36740366812E+03  0.37582637219E+03  0.10000000000E+01 0.  0.
    9000005    1    3    3    0    0 -0.29241327582E+01 -0.38187824165E+02  0.31347830215E+02  0.49502999162E+02  0.10000000000E+01 0.  0.
<mgrwt>
<rscale>  0 0.13761302E+03</rscale>
<asrwt>0</asrwt>
<pdfrwt beam="1">  1        2 0.14055496E+00 0.14799431E+03</pdfrwt>
<pdfrwt beam="2">  1       -2 0.29831023E-02 0.14799431E+03</pdfrwt>
<totfact> 0.12262524E+04</totfact>
</mgrwt>
</event>
<event>
 8    3  0.7944584E-004  0.2824113E+03  0.7818608E-02  0.1096239E+00
         -2   -1    0    0    0  501 -0.00000000000E+00  0.00000000000E+00  0.30389893102E+02  0.30389893209E+02  0.25500000000E-02 0.  1.
          2   -1    0    0  501    0  0.00000000000E+00 -0.00000000000E+00 -0.25254358567E+04  0.25254358567E+04  0.25500000000E-02 0. -1.
         25    2    1    2    0    0  0.22096591429E+03  0.12371565805E+03 -0.14026222002E+04  0.14307708352E+04  0.12499858902E+03 0.  0.
         23    2    1    2    0    0 -0.22096591429E+03 -0.12371565805E+03 -0.10924237634E+04  0.11250549146E+04  0.90704921497E+02 0.  0.
        -13    1    4    4    0    0 -0.13592949441E+03 -0.10271043389E+03 -0.85911804721E+03  0.87584821225E+03  0.10566000000E+00 0. -1.
         13    1    4    4    0    0 -0.85036419881E+02 -0.21005224160E+02 -0.23330571620E+03  0.24920670240E+03  0.10566000000E+00 0.  1.
    9000005    1    3    3    0    0  0.17883289132E+03  0.33447673173E+02 -0.95824887122E+03  0.97536754563E+03  0.10000000000E+01 0.  0.
    9000005    1    3    3    0    0  0.42133022964E+02  0.90267984874E+02 -0.44437332895E+03  0.45540328962E+03  0.10000000000E+01 0.  0.
<mgrwt>
<rscale>  0 0.27899604E+03</rscale>
<asrwt>0</asrwt>
<pdfrwt beam="2">  1        2 0.38852843E+00 0.28241131E+03</pdfrwt>
<pdfrwt beam="1">  1       -2 0.46753702E-02 0.28241131E+03</pdfrwt>
<totfact> 0.84075891E+02</totfact>
</mgrwt>
</event>
<event>
 8    3  0.7944584E-004  0.1290987E+03  0.7818608E-02  0.1243255E+00
          2   -1    0    0  501    0  0.00000000000E+00  0.00000000000E+00  0.39998344743E+03  0.39998344744E+03  0.25500000000E-02 0.  1.
         -2   -1    0    0    0  501 -0.00000000000E+00 -0.00000000000E+00 -0.32629501207E+02  0.32629501306E+02  0.25500000000E-02 0. -1.
         25    2    1    2    0    0 -0.74462623860E+01  0.31403346562E+02  0.24619212266E+03  0.27798745950E+03  0.12499939753E+03 0.  0.
         23    2    1    2    0    0  0.74462623860E+01 -0.31403346562E+02  0.12116182356E+03  0.15462548924E+03  0.90483354463E+02 0.  0.
        -13    1    4    4    0    0  0.98656055221E+01  0.89885536776E+01  0.11244307125E+03  0.11323241455E+03  0.10566000000E+00 0.  1.
         13    1    4    4    0    0 -0.24193431361E+01 -0.40391900240E+02  0.87187523143E+01  0.41393074688E+02  0.10566000000E+00 0. -1.
    9000005    1    3    3    0    0 -0.28769584598E+02  0.62244415011E+02  0.70564272166E+02  0.98399048289E+02  0.10000000000E+01 0.  0.
    9000005    1    3    3    0    0  0.21323322212E+02 -0.30841068449E+02  0.17562785050E+03  0.17958841122E+03  0.10000000000E+01 0.  0.
<mgrwt>
<rscale>  0 0.11990431E+03</rscale>
<asrwt>0</asrwt>
<pdfrwt beam="1">  1        2 0.61535912E-01 0.12909867E+03</pdfrwt>
<pdfrwt beam="2">  1       -2 0.50199235E-02 0.12909867E+03</pdfrwt>
<totfact> 0.14590627E+04</totfact>
</mgrwt>
</event>
<event>
 8    3  0.7944584E-004  0.1456401E+03  0.7818608E-02  0.1216368E+00
         -2   -1    0    0    0  501 -0.00000000000E+00  0.00000000000E+00  0.50506300125E+03  0.50506300126E+03  0.25500000000E-02 0.  1.
          2   -1    0    0  501    0  0.00000000000E+00 -0.00000000000E+00 -0.34081415390E+02  0.34081415485E+02  0.25500000000E-02 0. -1.
         25    2    1    2    0    0 -0.64142464462E+02  0.38354399845E+02  0.25234643981E+03  0.29135848482E+03  0.12500290100E+03 0.  0.
         23    2    1    2    0    0  0.64142464462E+02 -0.38354399845E+02  0.21863514606E+03  0.24778593193E+03  0.89505448076E+02 0.  0.
        -13    1    4    4    0    0  0.72038078050E+01 -0.55186795041E+02  0.85597069197E+02  0.10209968958E+03  0.10566000000E+00 0. -1.
         13    1    4    4    0    0  0.56938656657E+02  0.16832395196E+02  0.13303807686E+03  0.14568624234E+03  0.10566000000E+00 0.  1.
    9000005    1    3    3    0    0 -0.99496249118E+02  0.11173939640E+02  0.15896040630E+03  0.18786636550E+03  0.10000000000E+01 0.  0.
    9000005    1    3    3    0    0  0.35353784656E+02  0.27180460205E+02  0.93386033505E+02  0.10349211931E+03  0.10000000000E+01 0.  0.
<mgrwt>
<rscale>  0 0.13776513E+03</rscale>
<asrwt>0</asrwt>
<pdfrwt beam="2">  1        2 0.52432952E-02 0.14564011E+03</pdfrwt>
<pdfrwt beam="1">  1       -2 0.77701993E-01 0.14564011E+03</pdfrwt>
<totfact> 0.21630643E+03</totfact>
</mgrwt>
</event>
<event>
 8    3  0.7944584E-004  0.1386229E+03  0.7818608E-02  0.1227138E+00
          2   -1    0    0  501    0  0.00000000000E+00  0.00000000000E+00  0.12131527642E+04  0.12131527642E+04  0.25500000000E-02 0. -1.
         -2   -1    0    0    0  501 -0.00000000000E+00 -0.00000000000E+00 -0.12528112166E+02  0.12528112425E+02  0.25500000000E-02 0.  1.
         25    2    1    2    0    0  0.51584971516E+02 -0.30494301185E+02  0.66832200161E+03  0.68254714536E+03  0.12500158440E+03 0.  0.
         23    2    1    2    0    0 -0.51584971516E+02  0.30494301185E+02  0.53230265042E+03  0.54313373127E+03  0.89762056067E+02 0.  0.
        -13    1    4    4    0    0 -0.10118715893E+02  0.32841534860E+02  0.61075547368E+02  0.70079872100E+02  0.10566000000E+00 0.  1.
         13    1    4    4    0    0 -0.41466255622E+02 -0.23472336757E+01  0.47122710305E+03  0.47305385917E+03  0.10566000000E+00 0. -1.
    9000005    1    3    3    0    0  0.78142204567E+02 -0.87873264550E+01  0.23378429809E+03  0.24665668301E+03  0.10000000000E+01 0.  0.
    9000005    1    3    3    0    0 -0.26557233051E+02 -0.21706974730E+02  0.43453770352E+03  0.43589046234E+03  0.10000000000E+01 0.  0.
<mgrwt>
<rscale>  0 0.13021418E+03</rscale>
<asrwt>0</asrwt>
<pdfrwt beam="1">  1        2 0.18663889E+00 0.13862290E+03</pdfrwt>
<pdfrwt beam="2">  1       -2 0.19274019E-02 0.13862290E+03</pdfrwt>
<totfact> 0.15451572E+04</totfact>
</mgrwt>
</event>
<event>
 8    3  0.7944584E-004  0.1328518E+03  0.7818608E-02  0.1235479E+00
          2   -1    0    0  501    0  0.00000000000E+00  0.00000000000E+00  0.71817171998E+03  0.71817171999E+03  0.25500000000E-02 0. -1.
         -2   -1    0    0    0  501 -0.00000000000E+00 -0.00000000000E+00 -0.19455085980E+02  0.19455086147E+02  0.25500000000E-02 0.  1.
         25    2    1    2    0    0  0.33295341314E+02  0.30262101124E+02  0.37451798259E+03  0.39738308320E+03  0.12500088406E+03 0.  0.
         23    2    1    2    0    0 -0.33295341314E+02 -0.30262101124E+02  0.32419865142E+03  0.34024372293E+03  0.92933583259E+02 0.  0.
        -13    1    4    4    0    0 -0.49293119605E+02 -0.12643068207E+02  0.79512143109E+02  0.94402599963E+02  0.10566000000E+00 0.  1.
         13    1    4    4    0    0  0.15997778290E+02 -0.17619032917E+02  0.24468650831E+03  0.24584112297E+03  0.10566000000E+00 0. -1.
    9000005    1    3    3    0    0 -0.37517944477E+02 -0.23025261674E+02  0.13453732908E+03  0.14155935769E+03  0.10000000000E+01 0.  0.
    9000005    1    3    3    0    0  0.70813285791E+02  0.53287362798E+02  0.23998065351E+03  0.25582372551E+03  0.10000000000E+01 0.  0.
<mgrwt>
<rscale>  0 0.12473847E+03</rscale>
<asrwt>0</asrwt>
<pdfrwt beam="1">  1        2 0.11048795E+00 0.13285178E+03</pdfrwt>
<pdfrwt beam="2">  1       -2 0.29930903E-02 0.13285178E+03</pdfrwt>
<totfact> 0.16380002E+04</totfact>
</mgrwt>
</event>
<event>
 8    3  0.7944584E-004  0.1305067E+03  0.7818608E-02  0.1241011E+00
         -2   -1    0    0    0  501 -0.00000000000E+00  0.00000000000E+00  0.41715502772E+02  0.41715502850E+02  0.25500000000E-02 0. -1.
          2   -1    0    0  501    0  0.00000000000E+00 -0.00000000000E+00 -0.32373287266E+03  0.32373287267E+03  0.25500000000E-02 0.  1.
         25    2    1    2    0    0  0.36728743128E+02 -0.76245953280E+01 -0.19655547697E+03  0.23593654408E+03  0.12499944911E+03 0.  0.
         23    2    1    2    0    0 -0.36728743128E+02  0.76245953280E+01 -0.85461892918E+02  0.12951183144E+03  0.89791114912E+02 0.  0.
        -13    1    4    4    0    0 -0.47569581651E+02 -0.19219866464E+02 -0.86467848454E+02  0.10054336550E+03  0.10566000000E+00 0.  1.
         13    1    4    4    0    0  0.10840838522E+02  0.26844461792E+02  0.10059555351E+01  0.28968465947E+02  0.10566000000E+00 0. -1.
    9000005    1    3    3    0    0  0.23753520052E+02  0.55375629736E+02 -0.13044356349E+03  0.14369138228E+03  0.10000000000E+01 0.  0.
    9000005    1    3    3    0    0  0.12975223077E+02 -0.63000225064E+02 -0.66111913475E+02  0.92245161799E+02  0.10000000000E+01 0.  0.
<mgrwt>
<rscale>  0 0.12127350E+03</rscale>
<asrwt>0</asrwt>
<pdfrwt beam="2">  1        2 0.49805056E-01 0.13050669E+03</pdfrwt>
<pdfrwt beam="1">  1       -2 0.64177699E-02 0.13050669E+03</pdfrwt>
<totfact> 0.12615964E+04</totfact>
</mgrwt>
</event>
<event>
 8    3  0.7944584E-004  0.1361421E+03  0.7818608E-02  0.1230378E+00
         -2   -1    0    0    0  501 -0.00000000000E+00  0.00000000000E+00  0.32553570097E+02  0.32553570197E+02  0.25500000000E-02 0.  1.
          2   -1    0    0  501    0  0.00000000000E+00 -0.00000000000E+00 -0.47214576312E+03  0.47214576313E+03  0.25500000000E-02 0. -1.
         25    2    1    2    0    0  0.53721938289E+02 -0.52167212726E+01 -0.29681975802E+03  0.32655268027E+03  0.12498569280E+03 0.  0.
         23    2    1    2    0    0 -0.53721938289E+02  0.52167212726E+01 -0.14277243500E+03  0.17814665306E+03  0.91864035209E+02 0.  0.
        -13    1    4    4    0    0 -0.45294208012E+02  0.39410248577E+02 -0.47447964479E+02  0.76524855240E+02  0.10566000000E+00 0.  1.
         13    1    4    4    0    0 -0.84277302769E+01 -0.34193527304E+02 -0.95324470522E+02  0.10162179782E+03  0.10566000000E+00 0. -1.
    9000005    1    3    3    0    0  0.54302688437E+02 -0.41839589691E+02 -0.74545752552E+02  0.10127883521E+03  0.10000000000E+01 0.  0.
    9000005    1    3    3    0    0 -0.58075014827E+00  0.36622868418E+02 -0.22227400547E+03  0.22527384506E+03  0.10000000000E+01 0.  0.
<mgrwt>
<rscale>  0 0.12805005E+03</rscale>
<asrwt>0</asrwt>
<pdfrwt beam="2">  1        2 0.72637805E-01 0.13614215E+03</pdfrwt>
<pdfrwt beam="1">  1       -2 0.50082419E-02 0.13614215E+03</pdfrwt>
<totfact> 0.12298106E+04</totfact>
</mgrwt>
</event>
<event>
 8    3  0.7944584E-004  0.1311117E+03  0.7818608E-02  0.1238555E+00
         -2   -1    0    0    0  501 -0.00000000000E+00  0.00000000000E+00  0.38255095255E+03  0.38255095256E+03  0.25500000000E-02 0.  1.
          2   -1    0    0  501    0  0.00000000000E+00 -0.00000000000E+00 -0.35413305526E+02  0.35413305618E+02  0.25500000000E-02 0. -1.
         25    2    1    2    0    0  0.12702315919E+02 -0.37464228129E+02  0.17893485599E+03  0.22182868276E+03  0.12500145834E+03 0.  0.
         23    2    1    2    0    0 -0.12702315919E+02  0.37464228129E+02  0.16820279104E+03  0.19613557543E+03  0.92801227443E+02 0.  0.
        -13    1    4    4    0    0 -0.48720048034E+02  0.28121399626E+02  0.62564734537E+02  0.84135684279E+02  0.10566000000E+00 0. -1.
         13    1    4    4    0    0  0.36017732115E+02  0.93428285030E+01  0.10563805650E+03  0.11199989115E+03  0.10566000000E+00 0.  1.
    9000005    1    3    3    0    0 -0.55064485840E+02 -0.15656539035E+02  0.58046858468E+02  0.81533199332E+02  0.10000000000E+01 0.  0.
    9000005    1    3    3    0    0  0.67766801759E+02 -0.21807689094E+02  0.12088799752E+03  0.14029548342E+03  0.10000000000E+01 0.  0.
<mgrwt>
<rscale>  0 0.12279580E+03</rscale>
<asrwt>0</asrwt>
<pdfrwt beam="2">  1        2 0.54482012E-02 0.13111171E+03</pdfrwt>
<pdfrwt beam="1">  1       -2 0.58853989E-01 0.13111171E+03</pdfrwt>
<totfact> 0.36719493E+03</totfact>
</mgrwt>
</event>
<event>
 8    3  0.7944584E-004  0.1578525E+03  0.7818608E-02  0.1199476E+00
         -2   -1    0    0    0  501 -0.00000000000E+00  0.00000000000E+00  0.13296992710E+02  0.13296992954E+02  0.25500000000E-02 0.  1.
          2   -1    0    0  501    0  0.00000000000E+00 -0.00000000000E+00 -0.23693556718E+04  0.23693556718E+04  0.25500000000E-02 0. -1.
         25    2    1    2    0    0  0.41509625869E+02  0.87003108698E+02 -0.19373886574E+04  0.19438086923E+04  0.12499932991E+03 0.  0.
         23    2    1    2    0    0 -0.41509625869E+02 -0.87003108698E+02 -0.41867002177E+03  0.43884397254E+03  0.89481032281E+02 0.  0.
        -13    1    4    4    0    0 -0.58524644067E+02 -0.54915201407E+02 -0.17553730464E+03  0.19301339278E+03  0.10566000000E+00 0.  1.
         13    1    4    4    0    0  0.17015018198E+02 -0.32087907292E+02 -0.24313271714E+03  0.24583057976E+03  0.10566000000E+00 0. -1.
    9000005    1    3    3    0    0 -0.36043506985E+02  0.47044942613E+02 -0.11652156223E+04  0.11667222495E+04  0.10000000000E+01 0.  0.
    9000005    1    3    3    0    0  0.77553132854E+02  0.39958166085E+02 -0.77217303509E+03  0.77708644279E+03  0.10000000000E+01 0.  0.
<mgrwt>
<rscale>  0 0.15081436E+03</rscale>
<asrwt>0</asrwt>
<pdfrwt beam="2">  1        2 0.36451592E+00 0.15785253E+03</pdfrwt>
<pdfrwt beam="1">  1       -2 0.20456931E-02 0.15785253E+03</pdfrwt>
<totfact> 0.35463521E+03</totfact>
</mgrwt>
</event>
<event>
 8    3  0.7944584E-004  0.1380048E+03  0.7818608E-02  0.1228622E+00
         -2   -1    0    0    0  501 -0.00000000000E+00  0.00000000000E+00  0.84840626892E+02  0.84840626930E+02  0.25500000000E-02 0.  1.
          2   -1    0    0  501    0  0.00000000000E+00 -0.00000000000E+00 -0.25211165327E+03  0.25211165328E+03  0.25500000000E-02 0. -1.
         25    2    1    2    0    0  0.58482060845E+02 -0.49223117908E+00  0.10361380341E+01  0.13800873293E+03  0.12499977221E+03 0.  0.
         23    2    1    2    0    0 -0.58482060845E+02  0.49223117908E+00 -0.16830716441E+03  0.19894354728E+03  0.88492031731E+02 0.  0.
        -13    1    4    4    0    0 -0.69454422394E+02 -0.18976947050E+02 -0.79023646592E+02  0.10690551527E+03  0.10566000000E+00 0.  1.
         13    1    4    4    0    0  0.10972361549E+02  0.19469178229E+02 -0.89283517822E+02  0.92038032017E+02  0.10566000000E+00 0. -1.
    9000005    1    3    3    0    0  0.92243314135E+02 -0.12163768372E+02  0.23280319544E+02  0.95915376982E+02  0.10000000000E+01 0.  0.
    9000005    1    3    3    0    0 -0.33761253290E+02  0.11671537193E+02 -0.22244181510E+02  0.42093355951E+02  0.10000000000E+01 0.  0.
<mgrwt>
<rscale>  0 0.12921733E+03</rscale>
<asrwt>0</asrwt>
<pdfrwt beam="2">  1        2 0.38786408E-01 0.13800484E+03</pdfrwt>
<pdfrwt beam="1">  1       -2 0.13052404E-01 0.13800484E+03</pdfrwt>
<totfact> 0.54490210E+03</totfact>
</mgrwt>
</event>
<event>
 8    3  0.7944584E-004  0.1254685E+03  0.7818608E-02  0.1249643E+00
         -2   -1    0    0    0  501 -0.00000000000E+00  0.00000000000E+00  0.20619368398E+02  0.20619368556E+02  0.25500000000E-02 0.  1.
          2   -1    0    0  501    0  0.00000000000E+00 -0.00000000000E+00 -0.58702717723E+03  0.58702717723E+03  0.25500000000E-02 0. -1.
         25    2    1    2    0    0 -0.43103180799E+01  0.99901913280E+01 -0.28035181705E+03  0.30714731570E+03  0.12499579773E+03 0.  0.
         23    2    1    2    0    0  0.43103180799E+01 -0.99901913280E+01 -0.28605599177E+03  0.30049923009E+03  0.91396794742E+02 0.  0.
        -13    1    4    4    0    0  0.38886144219E+02 -0.28499599579E+02 -0.20304161258E+03  0.20868700724E+03  0.10566000000E+00 0. -1.
         13    1    4    4    0    0 -0.34575826139E+02  0.18509408251E+02 -0.83014379191E+02  0.91812222844E+02  0.10566000000E+00 0.  1.
    9000005    1    3    3    0    0 -0.51647555662E+02  0.39126822737E+02 -0.19315138568E+03  0.20373226561E+03  0.10000000000E+01 0.  0.
    9000005    1    3    3    0    0  0.47337237582E+02 -0.29136631409E+02 -0.87200431378E+02  0.10341505009E+03  0.10000000000E+01 0.  0.
<mgrwt>
<rscale>  0 0.11611748E+03</rscale>
<asrwt>0</asrwt>
<pdfrwt beam="2">  1        2 0.90311861E-01 0.12546845E+03</pdfrwt>
<pdfrwt beam="1">  1       -2 0.31722110E-02 0.12546845E+03</pdfrwt>
<totfact> 0.18914110E+04</totfact>
</mgrwt>
</event>
<event>
 8    3  0.7944584E-004  0.1280452E+03  0.7818608E-02  0.1245447E+00
         -2   -1    0    0    0  501 -0.00000000000E+00  0.00000000000E+00  0.64618569778E+01  0.64618574810E+01  0.25500000000E-02 0.  1.
          2   -1    0    0  501    0  0.00000000000E+00 -0.00000000000E+00 -0.22369072830E+04  0.22369072830E+04  0.25500000000E-02 0. -1.
         25    2    1    2    0    0  0.26696088937E+02 -0.75248030720E+01 -0.83639495993E+03  0.84613953194E+03  0.12500509865E+03 0.  0.
         23    2    1    2    0    0 -0.26696088937E+02  0.75248030720E+01 -0.13940504661E+04  0.13972296085E+04  0.90025402819E+02 0.  0.
        -13    1    4    4    0    0  0.20107363590E+02 -0.19117511528E+02 -0.86504906902E+03  0.86549389847E+03  0.10566000000E+00 0. -1.
         13    1    4    4    0    0 -0.46803452527E+02  0.26642314600E+02 -0.52900139708E+03  0.53173571008E+03  0.10566000000E+00 0.  1.
    9000005    1    3    3    0    0  0.36954375011E+02 -0.23708867973E+01 -0.83341355879E+03  0.83423642147E+03  0.10000000000E+01 0.  0.
    9000005    1    3    3    0    0 -0.10258286074E+02 -0.51539162748E+01 -0.29814011473E+01  0.11903110474E+02  0.10000000000E+01 0.  0.
<mgrwt>
<rscale>  0 0.11858690E+03</rscale>
<asrwt>0</asrwt>
<pdfrwt beam="2">  1        2 0.34413896E+00 0.12804522E+03</pdfrwt>
<pdfrwt beam="1">  1       -2 0.99413367E-03 0.12804522E+03</pdfrwt>
<totfact> 0.11747792E+04</totfact>
</mgrwt>
</event>
<event>
 8    3  0.7944584E-004  0.1304511E+03  0.7818608E-02  0.1240554E+00
         -2   -1    0    0    0  501 -0.00000000000E+00  0.00000000000E+00  0.59448615296E+01  0.59448620765E+01  0.25500000000E-02 0.  1.
          2   -1    0    0  501    0  0.00000000000E+00 -0.00000000000E+00 -0.30446127618E+04  0.30446127618E+04  0.25500000000E-02 0. -1.
         25    2    1    2    0    0 -0.30681799213E+02 -0.21245668245E+02 -0.24704832981E+04  0.24739250643E+04  0.12499898692E+03 0.  0.
         23    2    1    2    0    0  0.30681799213E+02  0.21245668245E+02 -0.56818460225E+03  0.57663255958E+03  0.90986896385E+02 0.  0.
        -13    1    4    4    0    0  0.44639955040E+02  0.91939861177E+01 -0.12475601003E+03  0.13282066168E+03  0.10566000000E+00 0.  1.
         13    1    4    4    0    0 -0.13958155827E+02  0.12051682127E+02 -0.44342859222E+03  0.44381189790E+03  0.10566000000E+00 0. -1.
    9000005    1    3    3    0    0 -0.70020519974E+02  0.20277190570E+02 -0.14720196811E+04  0.14738239309E+04  0.10000000000E+01 0.  0.
    9000005    1    3    3    0    0  0.39338720761E+02 -0.41522858814E+02 -0.99846361697E+03  0.10001011335E+04  0.10000000000E+01 0.  0.
<mgrwt>
<rscale>  0 0.12155473E+03</rscale>
<asrwt>0</asrwt>
<pdfrwt beam="2">  1        2 0.46840072E+00 0.13045113E+03</pdfrwt>
<pdfrwt beam="1">  1       -2 0.91459655E-03 0.13045113E+03</pdfrwt>
<totfact> 0.47986173E+03</totfact>
</mgrwt>
</event>
<event>
 8    3  0.7944584E-004  0.1712541E+03  0.7818608E-02  0.1182780E+00
         -2   -1    0    0    0  501 -0.00000000000E+00  0.00000000000E+00  0.46625776295E+02  0.46625776365E+02  0.25500000000E-02 0.  1.
          2   -1    0    0  501    0  0.00000000000E+00 -0.00000000000E+00 -0.54961579912E+03  0.54961579913E+03  0.25500000000E-02 0. -1.
         25    2    1    2    0    0  0.11705065589E+03 -0.13695346695E+01 -0.27488819430E+03  0.32386955010E+03  0.12500093779E+03 0.  0.
         23    2    1    2    0    0 -0.11705065589E+03  0.13695346695E+01 -0.22810182853E+03  0.27237202539E+03  0.91942070729E+02 0.  0.
        -13    1    4    4    0    0 -0.68775546592E+02 -0.15789780226E+02 -0.20379186704E+03  0.21566299916E+03  0.10566000000E+00 0. -1.
         13    1    4    4    0    0 -0.48275109297E+02  0.17159314895E+02 -0.24309961487E+02  0.56709026238E+02  0.10566000000E+00 0.  1.
    9000005    1    3    3    0    0  0.61392149814E+02  0.14265393432E+02 -0.25507379480E+03  0.26274728981E+03  0.10000000000E+01 0.  0.
    9000005    1    3    3    0    0  0.55658506075E+02 -0.15634928102E+02 -0.19814399497E+02  0.61122260288E+02  0.10000000000E+01 0.  0.
<mgrwt>
<rscale>  0 0.16535500E+03</rscale>
<asrwt>0</asrwt>
<pdfrwt beam="2">  1        2 0.84556272E-01 0.17125410E+03</pdfrwt>
<pdfrwt beam="1">  1       -2 0.71731967E-02 0.17125410E+03</pdfrwt>
<totfact> 0.61050990E+03</totfact>
</mgrwt>
</event>
<event>
 8    3  0.7944584E-004  0.1604034E+03  0.7818608E-02  0.1196042E+00
          2   -1    0    0  501    0  0.00000000000E+00  0.00000000000E+00  0.21001826192E+04  0.21001826192E+04  0.25500000000E-02 0. -1.
         -2   -1    0    0    0  501 -0.00000000000E+00 -0.00000000000E+00 -0.11487001341E+02  0.11487001624E+02  0.25500000000E-02 0.  1.
         25    2    1    2    0    0  0.31775405726E+02 -0.95362473115E+02  0.14498482158E+04  0.14586943186E+04  0.12500235471E+03 0.  0.
         23    2    1    2    0    0 -0.31775405726E+02  0.95362473115E+02  0.63884740204E+03  0.65297530217E+03  0.90261090515E+02 0.  0.
        -13    1    4    4    0    0 -0.18001157791E+02  0.84353697058E+02  0.26440567181E+03  0.27811860480E+03  0.10566000000E+00 0.  1.
         13    1    4    4    0    0 -0.13774247935E+02  0.11008776056E+02  0.37444173024E+03  0.37485669737E+03  0.10566000000E+00 0. -1.
    9000005    1    3    3    0    0 -0.29917674116E+02 -0.73954405978E+02  0.10937964690E+04  0.10967023466E+04  0.10000000000E+01 0.  0.
    9000005    1    3    3    0    0  0.61693079841E+02 -0.21408067136E+02  0.35605174678E+03  0.36199197205E+03  0.10000000000E+01 0.  0.
<mgrwt>
<rscale>  0 0.15366337E+03</rscale>
<asrwt>0</asrwt>
<pdfrwt beam="1">  1        2 0.32310483E+00 0.16040345E+03</pdfrwt>
<pdfrwt beam="2">  1       -2 0.17672320E-02 0.16040345E+03</pdfrwt>
<totfact> 0.60684649E+03</totfact>
</mgrwt>
</event>
<event>
 8    3  0.7944584E-004  0.1495821E+03  0.7818608E-02  0.1210235E+00
         -2   -1    0    0    0  501 -0.00000000000E+00  0.00000000000E+00  0.15123993735E+02  0.15123993950E+02  0.25500000000E-02 0.  1.
          2   -1    0    0  501    0  0.00000000000E+00 -0.00000000000E+00 -0.12291278752E+04  0.12291278752E+04  0.25500000000E-02 0. -1.
         25    2    1    2    0    0 -0.47246570676E+01 -0.82018753410E+02 -0.62928582032E+03  0.64681948779E+03  0.12500163134E+03 0.  0.
         23    2    1    2    0    0  0.47246570676E+01  0.82018753410E+02 -0.58471806113E+03  0.59743238134E+03  0.90999126208E+02 0.  0.
        -13    1    4    4    0    0 -0.33372619025E+02  0.35087598866E+01 -0.21167447538E+03  0.21431784290E+03  0.10566000000E+00 0.  1.
         13    1    4    4    0    0  0.38097276093E+02  0.78509993524E+02 -0.37304358575E+03  0.38311453844E+03  0.10566000000E+00 0. -1.
    9000005    1    3    3    0    0 -0.50149505762E+02 -0.67080140323E+01 -0.12388847714E+03  0.13382572678E+03  0.10000000000E+01 0.  0.
    9000005    1    3    3    0    0  0.45424848694E+02 -0.75310739378E+02 -0.50539734318E+03  0.51299376101E+03  0.10000000000E+01 0.  0.
<mgrwt>
<rscale>  0 0.14232476E+03</rscale>
<asrwt>0</asrwt>
<pdfrwt beam="2">  1        2 0.18909652E+00 0.14958210E+03</pdfrwt>
<pdfrwt beam="1">  1       -2 0.23267693E-02 0.14958210E+03</pdfrwt>
<totfact> 0.11558296E+04</totfact>
</mgrwt>
</event>
<event>
 8    3  0.7944584E-004  0.1470073E+03  0.7818608E-02  0.1214192E+00
          2   -1    0    0  501    0  0.00000000000E+00  0.00000000000E+00  0.75509380656E+03  0.75509380657E+03  0.25500000000E-02 0. -1.
         -2   -1    0    0    0  501 -0.00000000000E+00 -0.00000000000E+00 -0.23652045291E+02  0.23652045428E+02  0.25500000000E-02 0.  1.
         25    2    1    2    0    0 -0.72526490708E+01 -0.77028388178E+02  0.44577088914E+03  0.46938560106E+03  0.12500073349E+03 0.  0.
         23    2    1    2    0    0  0.72526490708E+01  0.77028388178E+02  0.28567087213E+03  0.30936025093E+03  0.90055228445E+02 0.  0.
        -13    1    4    4    0    0  0.42435675261E+01  0.14101250465E+02  0.21164081354E+03  0.21215253534E+03  0.10566000000E+00 0. -1.
         13    1    4    4    0    0  0.30090815447E+01  0.62927137713E+02  0.74030058586E+02  0.97207715593E+02  0.10566000000E+00 0.  1.
    9000005    1    3    3    0    0 -0.43631135353E+00 -0.10769425603E+03  0.39712112039E+03  0.41146619231E+03  0.10000000000E+01 0.  0.
    9000005    1    3    3    0    0 -0.68163377173E+01  0.30665867854E+02  0.48649768752E+02  0.57919408756E+02  0.10000000000E+01 0.  0.
<mgrwt>
<rscale>  0 0.13936089E+03</rscale>
<asrwt>0</asrwt>
<pdfrwt beam="1">  1        2 0.11616830E+00 0.14700734E+03</pdfrwt>
<pdfrwt beam="2">  1       -2 0.36387757E-02 0.14700734E+03</pdfrwt>
<totfact> 0.11636798E+04</totfact>
</mgrwt>
</event>
<event>
 8    3  0.7944584E-004  0.1361231E+03  0.7818608E-02  0.1230502E+00
          2   -1    0    0  501    0  0.00000000000E+00  0.00000000000E+00  0.91074586493E+03  0.91074586494E+03  0.25500000000E-02 0.  1.
         -2   -1    0    0    0  501 -0.00000000000E+00 -0.00000000000E+00 -0.16743259334E+02  0.16743259528E+02  0.25500000000E-02 0. -1.
         25    2    1    2    0    0  0.26032713303E+02 -0.47186172126E+02  0.58771039291E+03  0.60326858999E+03  0.12500099491E+03 0.  0.
         23    2    1    2    0    0 -0.26032713303E+02  0.47186172126E+02  0.30629221269E+03  0.32422053448E+03  0.91650414189E+02 0.  0.
        -13    1    4    4    0    0 -0.30824560824E+02  0.68405658466E+01  0.25727127858E+02  0.40728898376E+02  0.10566000000E+00 0. -1.
         13    1    4    4    0    0  0.47918475212E+01  0.40345606280E+02  0.28056508483E+03  0.28349163610E+03  0.10566000000E+00 0.  1.
    9000005    1    3    3    0    0 -0.94583279443E+00 -0.57100098022E+02  0.10357516808E+03  0.11827988517E+03  0.10000000000E+01 0.  0.
    9000005    1    3    3    0    0  0.26978546098E+02  0.99139258957E+01  0.48413522483E+03  0.48498870481E+03  0.10000000000E+01 0.  0.
<mgrwt>
<rscale>  0 0.12796846E+03</rscale>
<asrwt>0</asrwt>
<pdfrwt beam="1">  1        2 0.14011480E+00 0.13612305E+03</pdfrwt>
<pdfrwt beam="2">  1       -2 0.25758851E-02 0.13612305E+03</pdfrwt>
<totfact> 0.15190984E+04</totfact>
</mgrwt>
</event>
<event>
 8    3  0.7944584E-004  0.1263176E+03  0.7818608E-02  0.1249093E+00
          2   -1    0    0  501    0  0.00000000000E+00  0.00000000000E+00  0.17628196742E+03  0.17628196744E+03  0.25500000000E-02 0. -1.
         -2   -1    0    0    0  501 -0.00000000000E+00 -0.00000000000E+00 -0.85533715046E+02  0.85533715084E+02  0.25500000000E-02 0.  1.
         25    2    1    2    0    0  0.16156001861E+01 -0.18133151893E+02 -0.90306943024E+01  0.12663998953E+03  0.12499884859E+03 0.  0.
         23    2    1    2    0    0 -0.16156001861E+01  0.18133151893E+02  0.99778946673E+02  0.13517569299E+03  0.89359993362E+02 0.  0.
        -13    1    4    4    0    0  0.91444250023E+01 -0.13018276245E+02  0.10095136464E+03  0.10219728573E+03  0.10566000000E+00 0. -1.
         13    1    4    4    0    0 -0.10760025188E+02  0.31151428138E+02 -0.11724179645E+01  0.32978407254E+02  0.10566000000E+00 0.  1.
    9000005    1    3    3    0    0 -0.20394482854E+02 -0.46767149966E+02 -0.50394066511E+02  0.71719336209E+02  0.10000000000E+01 0.  0.
    9000005    1    3    3    0    0  0.22010083040E+02  0.28633998073E+02  0.41363372208E+02  0.54920653324E+02  0.10000000000E+01 0.  0.
<mgrwt>
<rscale>  0 0.11643708E+03</rscale>
<asrwt>0</asrwt>
<pdfrwt beam="1">  1        2 0.27120303E-01 0.12631759E+03</pdfrwt>
<pdfrwt beam="2">  1       -2 0.13159033E-01 0.12631759E+03</pdfrwt>
<totfact> 0.78576733E+03</totfact>
</mgrwt>
</event>
<event>
 8    3  0.7944584E-004  0.2227792E+03  0.7818608E-02  0.1134951E+00
          2   -1    0    0  501    0  0.00000000000E+00  0.00000000000E+00  0.21657058385E+03  0.21657058386E+03  0.25500000000E-02 0. -1.
         -2   -1    0    0    0  501 -0.00000000000E+00 -0.00000000000E+00 -0.30369367825E+03  0.30369367826E+03  0.25500000000E-02 0.  1.
         25    2    1    2    0    0 -0.81442338362E+02 -0.16545044930E+03 -0.18707852923E+03  0.29091055957E+03  0.12499548760E+03 0.  0.
         23    2    1    2    0    0  0.81442338362E+02  0.16545044930E+03  0.99955434826E+02  0.22935370255E+03  0.92764897844E+02 0.  0.
        -13    1    4    4    0    0  0.16707131474E+02  0.75830395373E+02 -0.37931939356E+01  0.77741730035E+02  0.10566000000E+00 0.  1.
         13    1    4    4    0    0  0.64735206888E+02  0.89620053923E+02  0.10374862876E+03  0.15161197252E+03  0.10566000000E+00 0. -1.
    9000005    1    3    3    0    0 -0.18562242146E+01 -0.11506844873E+03 -0.15141201788E+03  0.19018620512E+03  0.10000000000E+01 0.  0.
    9000005    1    3    3    0    0 -0.79586114148E+02 -0.50382000570E+02 -0.35666511349E+02  0.10072435444E+03  0.10000000000E+01 0.  0.
<mgrwt>
<rscale>  0 0.21857351E+03</rscale>
<asrwt>0</asrwt>
<pdfrwt beam="1">  1        2 0.33318552E-01 0.22277921E+03</pdfrwt>
<pdfrwt beam="2">  1       -2 0.46722104E-01 0.22277921E+03</pdfrwt>
<totfact> 0.68715167E+02</totfact>
</mgrwt>
</event>
<event>
 8    3  0.7944584E-004  0.1347786E+03  0.7818608E-02  0.1229385E+00
          2   -1    0    0  501    0  0.00000000000E+00  0.00000000000E+00  0.10960563920E+04  0.10960563920E+04  0.25500000000E-02 0. -1.
         -2   -1    0    0    0  501 -0.00000000000E+00 -0.00000000000E+00 -0.19419212690E+02  0.19419212857E+02  0.25500000000E-02 0.  1.
         25    2    1    2    0    0 -0.49841095439E+02  0.74364530409E+01  0.87015459895E+03  0.88053069217E+03  0.12500335258E+03 0.  0.
         23    2    1    2    0    0  0.49841095439E+02 -0.74364530409E+01  0.20648258033E+03  0.23494491265E+03  0.10012302620E+03 0.  0.
        -13    1    4    4    0    0  0.64809209536E+02 -0.76126365308E+01  0.63067824373E+02  0.90751019338E+02  0.10566000000E+00 0.  1.
         13    1    4    4    0    0 -0.14968114098E+02  0.17618348995E+00  0.14341475595E+03  0.14419389332E+03  0.10566000000E+00 0. -1.
    9000005    1    3    3    0    0  0.39645152847E+02  0.96030091894E+01  0.17833349710E+03  0.18294204579E+03  0.10000000000E+01 0.  0.
    9000005    1    3    3    0    0 -0.89486248286E+02 -0.21665561486E+01  0.69182110185E+03  0.69758864638E+03  0.10000000000E+01 0.  0.
<mgrwt>
<rscale>  0 0.12870842E+03</rscale>
<asrwt>0</asrwt>
<pdfrwt beam="1">  1        2 0.16862408E+00 0.13477861E+03</pdfrwt>
<pdfrwt beam="2">  1       -2 0.29875709E-02 0.13477861E+03</pdfrwt>
<totfact> 0.94674690E+03</totfact>
</mgrwt>
</event>
<event>
 8    3  0.7944584E-004  0.1790142E+03  0.7818608E-02  0.1173233E+00
          2   -1    0    0  501    0  0.00000000000E+00  0.00000000000E+00  0.65255628746E+03  0.65255628746E+03  0.25500000000E-02 0. -1.
         -2   -1    0    0    0  501 -0.00000000000E+00 -0.00000000000E+00 -0.45864503559E+02  0.45864503630E+02  0.25500000000E-02 0.  1.
         25    2    1    2    0    0 -0.10453796287E+03 -0.74109293017E+02  0.25723736822E+03  0.31339616489E+03  0.12500287824E+03 0.  0.
         23    2    1    2    0    0  0.10453796287E+03  0.74109293017E+02  0.34945441568E+03  0.38502462620E+03  0.98514979325E+02 0.  0.
        -13    1    4    4    0    0  0.10115342526E+03  0.83303634197E+02  0.22645814358E+03  0.26163870675E+03  0.10566000000E+00 0.  1.
         13    1    4    4    0    0  0.33845376075E+01 -0.91943411796E+01  0.12299627209E+03  0.12338591944E+03  0.10566000000E+00 0. -1.
    9000005    1    3    3    0    0 -0.71685949898E+01  0.15999388376E+02  0.12447303627E+03  0.12570563209E+03  0.10000000000E+01 0.  0.
    9000005    1    3    3    0    0 -0.97369367877E+02 -0.90108681393E+02  0.13276433195E+03  0.18769053280E+03  0.10000000000E+01 0.  0.
<mgrwt>
<rscale>  0 0.17450139E+03</rscale>
<asrwt>0</asrwt>
<pdfrwt beam="1">  1        2 0.10039328E+00 0.17901422E+03</pdfrwt>
<pdfrwt beam="2">  1       -2 0.70560771E-02 0.17901422E+03</pdfrwt>
<totfact> 0.51510645E+03</totfact>
</mgrwt>
</event>
<event>
 8    3  0.7944584E-004  0.1385629E+03  0.7818608E-02  0.1226238E+00
         -2   -1    0    0    0  501 -0.00000000000E+00  0.00000000000E+00  0.19336856740E+02  0.19336856908E+02  0.25500000000E-02 0.  1.
          2   -1    0    0  501    0  0.00000000000E+00 -0.00000000000E+00 -0.81284173136E+03  0.81284173137E+03  0.25500000000E-02 0. -1.
         25    2    1    2    0    0  0.46287239634E+02  0.37841858763E+02 -0.49446244643E+03  0.51351026968E+03  0.12500068524E+03 0.  0.
         23    2    1    2    0    0 -0.46287239634E+02 -0.37841858763E+02 -0.29904242819E+03  0.31866831860E+03  0.92458685850E+02 0.  0.
        -13    1    4    4    0    0 -0.39299093162E+02 -0.18797405874E+02 -0.40977998752E+02  0.59807764853E+02  0.10566000000E+00 0.  1.
         13    1    4    4    0    0 -0.69881464720E+01 -0.19044452890E+02 -0.25806442944E+03  0.25886055374E+03  0.10566000000E+00 0. -1.
    9000005    1    3    3    0    0  0.11868701942E+02 -0.42951022500E+00  0.38658711579E+01  0.12529785498E+02  0.10000000000E+01 0.  0.
    9000005    1    3    3    0    0  0.34418537692E+02  0.38271368988E+02 -0.49832831759E+03  0.50098048418E+03  0.10000000000E+01 0.  0.
<mgrwt>
<rscale>  0 0.13082391E+03</rscale>
<asrwt>0</asrwt>
<pdfrwt beam="2">  1        2 0.12505255E+00 0.13856293E+03</pdfrwt>
<pdfrwt beam="1">  1       -2 0.29749017E-02 0.13856293E+03</pdfrwt>
<totfact> 0.14247395E+04</totfact>
</mgrwt>
</event>
<event>
 8    3  0.7944584E-004  0.2740557E+03  0.7818608E-02  0.1100855E+00
          2   -1    0    0  501    0  0.00000000000E+00  0.00000000000E+00  0.32091469386E+04  0.32091469386E+04  0.25500000000E-02 0. -1.
         -2   -1    0    0    0  501 -0.00000000000E+00 -0.00000000000E+00 -0.22335532639E+02  0.22335532785E+02  0.25500000000E-02 0.  1.
         25    2    1    2    0    0  0.23842389571E+03  0.51346245901E+02  0.16910468622E+04  0.17131100345E+04  0.12499643739E+03 0.  0.
         23    2    1    2    0    0 -0.23842389571E+03 -0.51346245901E+02  0.14957645438E+04  0.15183724368E+04  0.93063932384E+02 0.  0.
        -13    1    4    4    0    0 -0.17236138262E+03 -0.57488133000E+01  0.82574641619E+03  0.84356306823E+03  0.10566000000E+00 0.  1.
         13    1    4    4    0    0 -0.66062513093E+02 -0.45597432601E+02  0.67001812759E+03  0.67480936861E+03  0.10566000000E+00 0. -1.
    9000005    1    3    3    0    0  0.18278177430E+02  0.50418721577E+02  0.30229078686E+03  0.30701279953E+03  0.10000000000E+01 0.  0.
    9000005    1    3    3    0    0  0.22014571828E+03  0.92752432389E+00  0.13887560753E+04  0.14060972350E+04  0.10000000000E+01 0.  0.
<mgrwt>
<rscale>  0 0.27074283E+03</rscale>
<asrwt>0</asrwt>
<pdfrwt beam="1">  1        2 0.49371473E+00 0.27405565E+03</pdfrwt>
<pdfrwt beam="2">  1       -2 0.34362371E-02 0.27405565E+03</pdfrwt>
<totfact> 0.53743167E+02</totfact>
</mgrwt>
</event>
<event>
 8    3  0.7944584E-004  0.1479280E+03  0.7818608E-02  0.1212012E+00
          2   -1    0    0  501    0  0.00000000000E+00  0.00000000000E+00  0.11420688437E+03  0.11420688440E+03  0.25500000000E-02 0. -1.
         -2   -1    0    0    0  501 -0.00000000000E+00 -0.00000000000E+00 -0.23858803778E+03  0.23858803779E+03  0.25500000000E-02 0.  1.
         25    2    1    2    0    0  0.73341514023E+02  0.29620996451E+02  0.35039599311E+02  0.15202128430E+03  0.12500526489E+03 0.  0.
         23    2    1    2    0    0 -0.73341514023E+02 -0.29620996451E+02 -0.15942075272E+03  0.20077363789E+03  0.92944586531E+02 0.  0.
        -13    1    4    4    0    0 -0.39315471977E+01  0.28842726835E+02 -0.23851711504E+02  0.37633432747E+02  0.10566000000E+00 0.  1.
         13    1    4    4    0    0 -0.69409966825E+02 -0.58463723286E+02 -0.13556904121E+03  0.16314020514E+03  0.10566000000E+00 0. -1.
    9000005    1    3    3    0    0 -0.19461417549E+02 -0.16082536632E+02  0.41261516875E+02  0.48382926042E+02  0.10000000000E+01 0.  0.
    9000005    1    3    3    0    0  0.92802931572E+02  0.45703533083E+02 -0.62219175634E+01  0.10363835826E+03  0.10000000000E+01 0.  0.
<mgrwt>
<rscale>  0 0.14098346E+03</rscale>
<asrwt>0</asrwt>
<pdfrwt beam="1">  1        2 0.17570290E-01 0.14792801E+03</pdfrwt>
<pdfrwt beam="2">  1       -2 0.36705852E-01 0.14792801E+03</pdfrwt>
<totfact> 0.22053221E+03</totfact>
</mgrwt>
</event>
<event>
 8    3  0.7944584E-004  0.1900116E+03  0.7818608E-02  0.1163156E+00
          2   -1    0    0  501    0  0.00000000000E+00  0.00000000000E+00  0.55418862052E+03  0.55418862052E+03  0.25500000000E-02 0. -1.
         -2   -1    0    0    0  501 -0.00000000000E+00 -0.00000000000E+00 -0.66723710402E+02  0.66723710451E+02  0.25500000000E-02 0.  1.
         25    2    1    2    0    0 -0.12806657918E+03 -0.63863901738E+02  0.36378545416E+03  0.41041963643E+03  0.12499909862E+03 0.  0.
         23    2    1    2    0    0  0.12806657918E+03  0.63863901738E+02  0.12367945595E+03  0.21049269455E+03  0.92362979521E+02 0.  0.
        -13    1    4    4    0    0  0.11565399990E+03  0.22561360841E+02  0.11840003758E+03  0.16704323619E+03  0.10566000000E+00 0. -1.
         13    1    4    4    0    0  0.12412579281E+02  0.41302540897E+02  0.52794183732E+01  0.43449458355E+02  0.10566000000E+00 0.  1.
    9000005    1    3    3    0    0 -0.81214552935E+02  0.21080331132E+02  0.10740061231E+03  0.13629407725E+03  0.10000000000E+01 0.  0.
    9000005    1    3    3    0    0 -0.46852026243E+02 -0.84944232870E+02  0.25638484185E+03  0.27412555917E+03  0.10000000000E+01 0.  0.
<mgrwt>
<rscale>  0 0.18488627E+03</rscale>
<asrwt>0</asrwt>
<pdfrwt beam="1">  1        2 0.85259790E-01 0.19001163E+03</pdfrwt>
<pdfrwt beam="2">  1       -2 0.10265186E-01 0.19001163E+03</pdfrwt>
<totfact> 0.34689750E+03</totfact>
</mgrwt>
</event>
<event>
 8    3  0.7944584E-004  0.1467699E+03  0.7818608E-02  0.1214786E+00
         -2   -1    0    0    0  501 -0.00000000000E+00  0.00000000000E+00  0.22261126917E+03  0.22261126918E+03  0.25500000000E-02 0.  1.
          2   -1    0    0  501    0  0.00000000000E+00 -0.00000000000E+00 -0.88804172543E+02  0.88804172580E+02  0.25500000000E-02 0. -1.
         25    2    1    2    0    0  0.25569457084E+02 -0.72545323866E+02  0.20923362214E+02  0.14825375619E+03  0.12499907194E+03 0.  0.
         23    2    1    2    0    0 -0.25569457084E+02  0.72545323866E+02  0.11288373441E+03  0.16316168557E+03  0.89232152248E+02 0.  0.
        -13    1    4    4    0    0 -0.19431170830E+02  0.29246813673E+02 -0.67758295056E+01  0.35761285483E+02  0.10566000000E+00 0. -1.
         13    1    4    4    0    0 -0.61382862537E+01  0.43298510193E+02  0.11965956391E+03  0.12740040009E+03  0.10566000000E+00 0.  1.
    9000005    1    3    3    0    0  0.27064970666E+02 -0.94670929438E+02  0.50984094121E+02  0.11088496459E+03  0.10000000000E+01 0.  0.
    9000005    1    3    3    0    0 -0.14955135822E+01  0.22125605572E+02 -0.30060731908E+02  0.37368791600E+02  0.10000000000E+01 0.  0.
<mgrwt>
<rscale>  0 0.13892244E+03</rscale>
<asrwt>0</asrwt>
<pdfrwt beam="2">  1        2 0.13662180E-01 0.14676985E+03</pdfrwt>
<pdfrwt beam="1">  1       -2 0.34247888E-01 0.14676985E+03</pdfrwt>
<totfact> 0.33636585E+03</totfact>
</mgrwt>
</event>
<event>
 8    3  0.7944584E-004  0.1263499E+03  0.7818608E-02  0.1248628E+00
          2   -1    0    0  501    0  0.00000000000E+00  0.00000000000E+00  0.18598022871E+04  0.18598022871E+04  0.25500000000E-02 0. -1.
         -2   -1    0    0    0  501 -0.00000000000E+00 -0.00000000000E+00 -0.11426802811E+02  0.11426803096E+02  0.25500000000E-02 0.  1.
         25    2    1    2    0    0 -0.14424078306E+02  0.11406055978E+02  0.39001040357E+03  0.40996636347E+03  0.12500460845E+03 0.  0.
         23    2    1    2    0    0  0.14424078306E+02 -0.11406055978E+02  0.14583650807E+04  0.14612627267E+04  0.90121560819E+02 0.  0.
        -13    1    4    4    0    0  0.42769408558E+02  0.93101212451E+01  0.41395846422E+03  0.41626616717E+03  0.10566000000E+00 0.  1.
         13    1    4    4    0    0 -0.28345330251E+02 -0.20716177223E+02  0.10444066165E+04  0.10449965595E+04  0.10566000000E+00 0. -1.
    9000005    1    3    3    0    0  0.24905435703E+02  0.54367211014E+02  0.27025929480E+03  0.27679805054E+03  0.10000000000E+01 0.  0.
    9000005    1    3    3    0    0 -0.39329514010E+02 -0.42961155036E+02  0.11975110878E+03  0.13316831293E+03  0.10000000000E+01 0.  0.
<mgrwt>
<rscale>  0 0.11670860E+03</rscale>
<asrwt>0</asrwt>
<pdfrwt beam="1">  1        2 0.28612331E+00 0.12634993E+03</pdfrwt>
<pdfrwt beam="2">  1       -2 0.17579704E-02 0.12634993E+03</pdfrwt>
<totfact> 0.80802087E+03</totfact>
</mgrwt>
</event>
<event>
 8    3  0.7944584E-004  0.1323401E+03  0.7818608E-02  0.1237035E+00
         -2   -1    0    0    0  501 -0.00000000000E+00  0.00000000000E+00  0.64410080783E+01  0.64410085830E+01  0.25500000000E-02 0. -1.
          2   -1    0    0  501    0  0.00000000000E+00 -0.00000000000E+00 -0.21173084711E+04  0.21173084711E+04  0.25500000000E-02 0.  1.
         25    2    1    2    0    0  0.32963181312E+02  0.28333615599E+02 -0.12144025465E+04  0.12215921751E+04  0.12499812923E+03 0.  0.
         23    2    1    2    0    0 -0.32963181312E+02 -0.28333615599E+02 -0.89646491654E+03  0.90215730457E+03  0.91373357722E+02 0.  0.
        -13    1    4    4    0    0 -0.54448192764E+02  0.83991917247E+01 -0.61915744856E+03  0.62160365941E+03  0.10566000000E+00 0.  1.
         13    1    4    4    0    0  0.21485011452E+02 -0.36732807323E+02 -0.27730746798E+03  0.28055364516E+03  0.10566000000E+00 0. -1.
    9000005    1    3    3    0    0 -0.31767345114E+02  0.19371507458E+02 -0.13004429623E+03  0.13526617648E+03  0.10000000000E+01 0.  0.
    9000005    1    3    3    0    0  0.64730526426E+02  0.89621081408E+01 -0.10843582503E+04  0.10863259986E+04  0.10000000000E+01 0.  0.
<mgrwt>
<rscale>  0 0.12375075E+03</rscale>
<asrwt>0</asrwt>
<pdfrwt beam="2">  1        2 0.32573921E+00 0.13234008E+03</pdfrwt>
<pdfrwt beam="1">  1       -2 0.99092605E-03 0.13234008E+03</pdfrwt>
<totfact> 0.13619387E+04</totfact>
</mgrwt>
</event>
<event>
 8    3  0.7944584E-004  0.2097316E+03  0.7818608E-02  0.1145568E+00
          2   -1    0    0  501    0  0.00000000000E+00  0.00000000000E+00  0.68194615811E+03  0.68194615812E+03  0.25500000000E-02 0. -1.
         -2   -1    0    0    0  501 -0.00000000000E+00 -0.00000000000E+00 -0.62377411170E+02  0.62377411222E+02  0.25500000000E-02 0.  1.
         25    2    1    2    0    0 -0.92365840546E+02 -0.14081902829E+03  0.23689684214E+03  0.31639763013E+03  0.12500359717E+03 0.  0.
         23    2    1    2    0    0  0.92365840546E+02  0.14081902829E+03  0.38267190480E+03  0.42792593921E+03  0.91221573657E+02 0.  0.
        -13    1    4    4    0    0  0.69812289617E+02  0.11650382623E+03  0.19679372029E+03  0.23911226823E+03  0.10566000000E+00 0.  1.
         13    1    4    4    0    0  0.22553550928E+02  0.24315202060E+02  0.18587818451E+03  0.18881367098E+03  0.10566000000E+00 0. -1.
    9000005    1    3    3    0    0 -0.86538049830E+02 -0.20635173501E+02  0.11081437322E+03  0.14211076583E+03  0.10000000000E+01 0.  0.
    9000005    1    3    3    0    0 -0.58277907155E+01 -0.12018385478E+03  0.12608246892E+03  0.17428686429E+03  0.10000000000E+01 0.  0.
<mgrwt>
<rscale>  0 0.20502450E+03</rscale>
<asrwt>0</asrwt>
<pdfrwt beam="1">  1        2 0.10491478E+00 0.20973161E+03</pdfrwt>
<pdfrwt beam="2">  1       -2 0.95965256E-02 0.20973161E+03</pdfrwt>
<totfact> 0.30413177E+03</totfact>
</mgrwt>
</event>
<event>
 8    3  0.7944584E-004  0.2813781E+03  0.7818608E-02  0.1096781E+00
         -2   -1    0    0    0  501 -0.00000000000E+00  0.00000000000E+00  0.72154319192E+02  0.72154319237E+02  0.25500000000E-02 0.  1.
          2   -1    0    0  501    0  0.00000000000E+00 -0.00000000000E+00 -0.10475094044E+04  0.10475094044E+04  0.25500000000E-02 0. -1.
         25    2    1    2    0    0  0.23747565569E+03 -0.84605684513E+02 -0.48024592002E+03  0.55660559627E+03  0.12498334773E+03 0.  0.
         23    2    1    2    0    0 -0.23747565569E+03  0.84605684513E+02 -0.49510916523E+03  0.56305812741E+03  0.91370457171E+02 0.  0.
        -13    1    4    4    0    0 -0.13078982981E+03  0.21440651213E+02 -0.17315082652E+03  0.21805251889E+03  0.10566000000E+00 0. -1.
         13    1    4    4    0    0 -0.10668582588E+03  0.63165033300E+02 -0.32195833871E+03  0.34500560852E+03  0.10566000000E+00 0.  1.
    9000005    1    3    3    0    0  0.16523114515E+03 -0.11612484127E+03 -0.36120737916E+03  0.41383339746E+03  0.10000000000E+01 0.  0.
    9000005    1    3    3    0    0  0.72244510542E+02  0.31519156756E+02 -0.11903854085E+03  0.14277219882E+03  0.10000000000E+01 0.  0.
<mgrwt>
<rscale>  0 0.27800966E+03</rscale>
<asrwt>0</asrwt>
<pdfrwt beam="2">  1        2 0.16115528E+00 0.28137812E+03</pdfrwt>
<pdfrwt beam="1">  1       -2 0.11100665E-01 0.28137812E+03</pdfrwt>
<totfact> 0.13782081E+03</totfact>
</mgrwt>
</event>
<event>
 8    3  0.7944584E-004  0.1334928E+03  0.7818608E-02  0.1235307E+00
         -2   -1    0    0    0  501 -0.00000000000E+00  0.00000000000E+00  0.10153686146E+02  0.10153686466E+02  0.25500000000E-02 0.  1.
          2   -1    0    0  501    0  0.00000000000E+00 -0.00000000000E+00 -0.21574460331E+04  0.21574460331E+04  0.25500000000E-02 0. -1.
         25    2    1    2    0    0  0.46501169372E+02 -0.56398931193E+01 -0.51184498174E+03  0.52896656221E+03  0.12500468577E+03 0.  0.
         23    2    1    2    0    0 -0.46501169372E+02  0.56398931193E+01 -0.16354473652E+04  0.16386331574E+04  0.90754464514E+02 0.  0.
        -13    1    4    4    0    0 -0.36913472305E+02  0.35327032837E+02 -0.47014080010E+03  0.47290906818E+03  0.10566000000E+00 0.  1.
         13    1    4    4    0    0 -0.95876970675E+01 -0.29687139718E+02 -0.11653065651E+04  0.11657240892E+04  0.10566000000E+00 0. -1.
    9000005    1    3    3    0    0  0.49589382218E+00  0.18949853725E+01  0.73550782183E+01  0.76768519487E+01  0.10000000000E+01 0.  0.
    9000005    1    3    3    0    0  0.46005275550E+02 -0.75348784917E+01 -0.51920005995E+03  0.52128971026E+03  0.10000000000E+01 0.  0.
<mgrwt>
<rscale>  0 0.12484807E+03</rscale>
<asrwt>0</asrwt>
<pdfrwt beam="2">  1        2 0.33191441E+00 0.13349284E+03</pdfrwt>
<pdfrwt beam="1">  1       -2 0.15621073E-02 0.13349284E+03</pdfrwt>
<totfact> 0.67576681E+03</totfact>
</mgrwt>
</event>
<event>
 8    3  0.7944584E-004  0.1438512E+03  0.7818608E-02  0.1218640E+00
          2   -1    0    0  501    0  0.00000000000E+00  0.00000000000E+00  0.13427150744E+04  0.13427150744E+04  0.25500000000E-02 0. -1.
         -2   -1    0    0    0  501 -0.00000000000E+00 -0.00000000000E+00 -0.13553119234E+02  0.13553119473E+02  0.25500000000E-02 0.  1.
         25    2    1    2    0    0 -0.71175166590E+02 -0.23656260248E+01  0.54486634043E+03  0.56353571579E+03  0.12498669332E+03 0.  0.
         23    2    1    2    0    0  0.71175166590E+02  0.23656260248E+01  0.78429561469E+03  0.79273247804E+03  0.90739572383E+02 0.  0.
        -13    1    4    4    0    0  0.10134062259E+01 -0.35566379710E+02  0.24625837202E+03  0.24881557690E+03  0.10566000000E+00 0. -1.
         13    1    4    4    0    0  0.70161760364E+02  0.37932005735E+02  0.53803724267E+03  0.54391690114E+03  0.10566000000E+00 0.  1.
    9000005    1    3    3    0    0 -0.83357024998E+01  0.93742043453E+01  0.44358121924E+03  0.44375968464E+03  0.10000000000E+01 0.  0.
    9000005    1    3    3    0    0 -0.62839464090E+02 -0.11739830370E+02  0.10128512119E+03  0.11977603115E+03  0.10000000000E+01 0.  0.
<mgrwt>
<rscale>  0 0.13612495E+03</rscale>
<asrwt>0</asrwt>
<pdfrwt beam="1">  1        2 0.20657163E+00 0.14385122E+03</pdfrwt>
<pdfrwt beam="2">  1       -2 0.20850944E-02 0.14385122E+03</pdfrwt>
<totfact> 0.11744584E+04</totfact>
</mgrwt>
</event>
<event>
 8    3  0.7944584E-004  0.1694221E+03  0.7818608E-02  0.1185017E+00
         -2   -1    0    0    0  501 -0.00000000000E+00  0.00000000000E+00  0.10420560270E+03  0.10420560273E+03  0.25500000000E-02 0.  1.
          2   -1    0    0  501    0  0.00000000000E+00 -0.00000000000E+00 -0.24257418727E+03  0.24257418729E+03  0.25500000000E-02 0. -1.
         25    2    1    2    0    0  0.46985405406E+02 -0.10426929698E+03 -0.53365661821E+02  0.17762805998E+03  0.12499647682E+03 0.  0.
         23    2    1    2    0    0 -0.46985405406E+02  0.10426929698E+03 -0.85002922752E+02  0.16915173004E+03  0.91143273401E+02 0.  0.
        -13    1    4    4    0    0 -0.30220489018E+02  0.71931755132E+02 -0.10243933496E+03  0.12876833409E+03  0.10566000000E+00 0. -1.
         13    1    4    4    0    0 -0.16764916389E+02  0.32337541845E+02  0.17436412207E+02  0.40383395954E+02  0.10566000000E+00 0.  1.
    9000005    1    3    3    0    0  0.44917404557E+02 -0.12774602745E+03 -0.20178371330E+02  0.13691160444E+03  0.10000000000E+01 0.  0.
    9000005    1    3    3    0    0  0.20680008489E+01  0.23476730473E+02 -0.33187290490E+02  0.40716455535E+02  0.10000000000E+01 0.  0.
<mgrwt>
<rscale>  0 0.16330358E+03</rscale>
<asrwt>0</asrwt>
<pdfrwt beam="2">  1        2 0.37319106E-01 0.16942206E+03</pdfrwt>
<pdfrwt beam="1">  1       -2 0.16031631E-01 0.16942206E+03</pdfrwt>
<totfact> 0.41061112E+03</totfact>
</mgrwt>
</event>
<event>
 8    3  0.7944584E-004  0.1401149E+03  0.7818608E-02  0.1224724E+00
          2   -1    0    0  501    0  0.00000000000E+00  0.00000000000E+00  0.10208547534E+04  0.10208547534E+04  0.25500000000E-02 0. -1.
         -2   -1    0    0    0  501 -0.00000000000E+00 -0.00000000000E+00 -0.16389994767E+02  0.16389994965E+02  0.25500000000E-02 0.  1.
         25    2    1    2    0    0 -0.51014309819E+01 -0.63098219067E+02  0.42652350203E+03  0.44894818190E+03  0.12499904959E+03 0.  0.
         23    2    1    2    0    0  0.51014309819E+01  0.63098219067E+02  0.57794125664E+03  0.58829656651E+03  0.89829528492E+02 0.  0.
        -13    1    4    4    0    0  0.15207513711E+02  0.34442586891E+02  0.70306462511E+02  0.79753182381E+02  0.10566000000E+00 0.  1.
         13    1    4    4    0    0 -0.10106082729E+02  0.28655632176E+02  0.50763479413E+03  0.50854338413E+03  0.10566000000E+00 0. -1.
    9000005    1    3    3    0    0 -0.57666588156E+02 -0.85174328759E+01  0.25243443759E+03  0.25907938423E+03  0.10000000000E+01 0.  0.
    9000005    1    3    3    0    0  0.52565157174E+02 -0.54580786191E+02  0.17408906444E+03  0.18986879767E+03  0.10000000000E+01 0.  0.
<mgrwt>
<rscale>  0 0.13185813E+03</rscale>
<asrwt>0</asrwt>
<pdfrwt beam="1">  1        2 0.15705461E+00 0.14011485E+03</pdfrwt>
<pdfrwt beam="2">  1       -2 0.25215371E-02 0.14011485E+03</pdfrwt>
<totfact> 0.13456443E+04</totfact>
</mgrwt>
</event>
<event>
 8    3  0.7944584E-004  0.1595165E+03  0.7818608E-02  0.1197171E+00
         -2   -1    0    0    0  501 -0.00000000000E+00  0.00000000000E+00  0.79425090268E+02  0.79425090309E+02  0.25500000000E-02 0. -1.
          2   -1    0    0  501    0  0.00000000000E+00 -0.00000000000E+00 -0.27325619576E+03  0.27325619577E+03  0.25500000000E-02 0.  1.
         25    2    1    2    0    0  0.98273787190E+02  0.12788923360E+02 -0.12050242664E+03  0.19991585506E+03  0.12499688184E+03 0.  0.
         23    2    1    2    0    0 -0.98273787190E+02 -0.12788923360E+02 -0.73328678854E+02  0.15276543102E+03  0.90215785557E+02 0.  0.
        -13    1    4    4    0    0 -0.10712984073E+03  0.10161210438E+02 -0.68877748868E+02  0.12776622569E+03  0.10566000000E+00 0.  1.
         13    1    4    4    0    0  0.88560535416E+01 -0.22950133799E+02 -0.44509299860E+01  0.24999205337E+02  0.10566000000E+00 0. -1.
    9000005    1    3    3    0    0  0.54289587279E+02  0.57634455258E+02 -0.11104376494E+03  0.13638477720E+03  0.10000000000E+01 0.  0.
    9000005    1    3    3    0    0  0.43984199910E+02 -0.44845531898E+02 -0.94586617002E+01  0.63531077860E+02  0.10000000000E+01 0.  0.
<mgrwt>
<rscale>  0 0.15271899E+03</rscale>
<asrwt>0</asrwt>
<pdfrwt beam="2">  1        2 0.42039414E-01 0.15951650E+03</pdfrwt>
<pdfrwt beam="1">  1       -2 0.12219245E-01 0.15951650E+03</pdfrwt>
<totfact> 0.56086470E+03</totfact>
</mgrwt>
</event>
<event>
 8    3  0.7944584E-004  0.1745990E+03  0.7818608E-02  0.1179941E+00
         -2   -1    0    0    0  501 -0.00000000000E+00  0.00000000000E+00  0.60080769490E+02  0.60080769544E+02  0.25500000000E-02 0.  1.
          2   -1    0    0  501    0  0.00000000000E+00 -0.00000000000E+00 -0.15231788283E+04  0.15231788283E+04  0.25500000000E-02 0. -1.
         25    2    1    2    0    0  0.84470729954E+02 -0.87889440767E+02 -0.14154349461E+04  0.14261630012E+04  0.12499984509E+03 0.  0.
         23    2    1    2    0    0 -0.84470729954E+02  0.87889440767E+02 -0.47663112710E+02  0.15709659667E+03  0.86877559556E+02 0.  0.
        -13    1    4    4    0    0 -0.71803209156E+02  0.60777984686E+02 -0.72049118706E+02  0.11849367467E+03  0.10566000000E+00 0. -1.
         13    1    4    4    0    0 -0.12667520798E+02  0.27111456081E+02  0.24386005996E+02  0.38602921994E+02  0.10566000000E+00 0.  1.
    9000005    1    3    3    0    0 -0.75592424188E+01 -0.49569636175E+02 -0.88632760532E+03  0.88774541110E+03  0.10000000000E+01 0.  0.
    9000005    1    3    3    0    0  0.92029972373E+02 -0.38319804592E+02 -0.52910734081E+03  0.53841759010E+03  0.10000000000E+01 0.  0.
<mgrwt>
<rscale>  0 0.16800829E+03</rscale>
<asrwt>0</asrwt>
<pdfrwt beam="2">  1        2 0.23433518E+00 0.17459902E+03</pdfrwt>
<pdfrwt beam="1">  1       -2 0.92431965E-02 0.17459902E+03</pdfrwt>
<totfact> 0.10082913E+03</totfact>
</mgrwt>
</event>
<event>
 8    3  0.7944584E-004  0.2029699E+03  0.7818608E-02  0.1150593E+00
          2   -1    0    0  501    0  0.00000000000E+00  0.00000000000E+00  0.17030165756E+03  0.17030165758E+03  0.25500000000E-02 0. -1.
         -2   -1    0    0    0  501 -0.00000000000E+00 -0.00000000000E+00 -0.31770858921E+03  0.31770858923E+03  0.25500000000E-02 0.  1.
         25    2    1    2    0    0 -0.14596317207E+03 -0.65317445417E+02 -0.20831935100E+03  0.29085000381E+03  0.12500062576E+03 0.  0.
         23    2    1    2    0    0  0.14596317207E+03  0.65317445417E+02  0.60912419341E+02  0.19716024299E+03  0.97929680432E+02 0.  0.
        -13    1    4    4    0    0  0.73546956245E+02 -0.26609511955E+01 -0.11168300649E+02  0.74437742695E+02  0.10566000000E+00 0.  1.
         13    1    4    4    0    0  0.72416215826E+02  0.67978396612E+02  0.72080719991E+02  0.12272250030E+03  0.10566000000E+00 0. -1.
    9000005    1    3    3    0    0 -0.47400014472E+02 -0.74324326662E+02 -0.15526887158E+03  0.17855052335E+03  0.10000000000E+01 0.  0.
    9000005    1    3    3    0    0 -0.98563157599E+02  0.90068812457E+01 -0.53050479413E+02  0.11229948046E+03  0.10000000000E+01 0.  0.
<mgrwt>
<rscale>  0 0.19899064E+03</rscale>
<asrwt>0</asrwt>
<pdfrwt beam="1">  1        2 0.26200255E-01 0.20296988E+03</pdfrwt>
<pdfrwt beam="2">  1       -2 0.48878245E-01 0.20296988E+03</pdfrwt>
<totfact> 0.81756374E+02</totfact>
</mgrwt>
</event>
<event>
 8    3  0.7944584E-004  0.1281943E+03  0.7818608E-02  0.1247528E+00
          2   -1    0    0  501    0  0.00000000000E+00  0.00000000000E+00  0.16481786070E+04  0.16481786070E+04  0.25500000000E-02 0. -1.
         -2   -1    0    0    0  501 -0.00000000000E+00 -0.00000000000E+00 -0.87012945536E+01  0.87012949273E+01  0.25500000000E-02 0.  1.
         25    2    1    2    0    0  0.21900381423E+02 -0.18189984095E+02  0.60167853985E+03  0.61518357692E+03  0.12499306289E+03 0.  0.
         23    2    1    2    0    0 -0.21900381423E+02  0.18189984095E+02  0.10377987726E+04  0.10416963250E+04  0.85407487403E+02 0.  0.
        -13    1    4    4    0    0 -0.40878109084E+02  0.21978996256E+02  0.97207992137E+03  0.97318727939E+03  0.10566000000E+00 0. -1.
         13    1    4    4    0    0  0.18977727661E+02 -0.37890121612E+01  0.65718851204E+02  0.68509045592E+02  0.10566000000E+00 0.  1.
    9000005    1    3    3    0    0 -0.65365035794E+01  0.45241708663E+02  0.11825000318E+03  0.12678170741E+03  0.10000000000E+01 0.  0.
    9000005    1    3    3    0    0  0.28436885002E+02 -0.63431692758E+02  0.48342853667E+03  0.48840186951E+03  0.10000000000E+01 0.  0.
<mgrwt>
<rscale>  0 0.11735326E+03</rscale>
<asrwt>0</asrwt>
<pdfrwt beam="1">  1        2 0.25356578E+00 0.12819426E+03</pdfrwt>
<pdfrwt beam="2">  1       -2 0.13386616E-02 0.12819426E+03</pdfrwt>
<totfact> 0.15348424E+04</totfact>
</mgrwt>
</event>
<event>
 8    3  0.7944584E-004  0.1931206E+03  0.7818608E-02  0.1160597E+00
         -2   -1    0    0    0  501 -0.00000000000E+00  0.00000000000E+00  0.21601304247E+02  0.21601304397E+02  0.25500000000E-02 0.  1.
          2   -1    0    0  501    0  0.00000000000E+00 -0.00000000000E+00 -0.17927892468E+04  0.17927892468E+04  0.25500000000E-02 0. -1.
         25    2    1    2    0    0  0.30103427381E+02 -0.14410258482E+03 -0.12667092468E+04  0.12813461160E+04  0.12499512730E+03 0.  0.
         23    2    1    2    0    0 -0.30103427381E+02  0.14410258482E+03 -0.50447869574E+03  0.53304443515E+03  0.89251577582E+02 0.  0.
        -13    1    4    4    0    0 -0.44272602886E+02  0.79926853209E+02 -0.39434570267E+03  0.40479242780E+03  0.10566000000E+00 0. -1.
         13    1    4    4    0    0  0.14169175505E+02  0.64175731610E+02 -0.11013299307E+03  0.12825200734E+03  0.10566000000E+00 0.  1.
    9000005    1    3    3    0    0  0.85635794391E+01 -0.16248639386E+03 -0.11365218552E+04  0.11481106613E+04  0.10000000000E+01 0.  0.
    9000005    1    3    3    0    0  0.21539847942E+02  0.18383809044E+02 -0.13018739152E+03  0.13323545472E+03  0.10000000000E+01 0.  0.
<mgrwt>
<rscale>  0 0.18765140E+03</rscale>
<asrwt>0</asrwt>
<pdfrwt beam="2">  1        2 0.27581361E+00 0.19312057E+03</pdfrwt>
<pdfrwt beam="1">  1       -2 0.33232790E-02 0.19312057E+03</pdfrwt>
<totfact> 0.34649992E+03</totfact>
</mgrwt>
</event>
<event>
 8    3  0.7944584E-004  0.1264764E+03  0.7818608E-02  0.1247827E+00
         -2   -1    0    0    0  501 -0.00000000000E+00  0.00000000000E+00  0.23476759786E+02  0.23476759924E+02  0.25500000000E-02 0.  1.
          2   -1    0    0  501    0  0.00000000000E+00 -0.00000000000E+00 -0.52197999585E+03  0.52197999586E+03  0.25500000000E-02 0. -1.
         25    2    1    2    0    0  0.19018631479E+02  0.31293484523E+01 -0.25272329042E+03  0.28260455831E+03  0.12499909477E+03 0.  0.
         23    2    1    2    0    0 -0.19018631479E+02 -0.31293484523E+01 -0.24577994565E+03  0.26285219747E+03  0.91170142417E+02 0.  0.
        -13    1    4    4    0    0  0.23512869604E+01 -0.44658579654E+02 -0.94907900248E+02  0.10491633801E+03  0.10566000000E+00 0.  1.
         13    1    4    4    0    0 -0.21369918439E+02  0.41529231201E+02 -0.15087204540E+03  0.15793585947E+03  0.10566000000E+00 0. -1.
    9000005    1    3    3    0    0 -0.25781562548E+02 -0.34373178693E+02 -0.19778328385E+03  0.20239918911E+03  0.10000000000E+01 0.  0.
    9000005    1    3    3    0    0  0.44800194027E+02  0.37502527145E+02 -0.54940006567E+02  0.80205369201E+02  0.10000000000E+01 0.  0.
<mgrwt>
<rscale>  0 0.11717741E+03</rscale>
<asrwt>0</asrwt>
<pdfrwt beam="2">  1        2 0.80304606E-01 0.12647638E+03</pdfrwt>
<pdfrwt beam="1">  1       -2 0.36118096E-02 0.12647638E+03</pdfrwt>
<totfact> 0.17819962E+04</totfact>
</mgrwt>
</event>
<event>
 8    3  0.7944584E-004  0.1272432E+03  0.7818608E-02  0.1245083E+00
         -2   -1    0    0    0  501 -0.00000000000E+00  0.00000000000E+00  0.11761736057E+02  0.11761736333E+02  0.25500000000E-02 0.  1.
          2   -1    0    0  501    0  0.00000000000E+00 -0.00000000000E+00 -0.10686345320E+04  0.10686345320E+04  0.25500000000E-02 0. -1.
         25    2    1    2    0    0 -0.14282741088E+02 -0.19023576310E+02 -0.57355153324E+03  0.58749655529E+03  0.12499979220E+03 0.  0.
         23    2    1    2    0    0  0.14282741088E+02  0.19023576310E+02 -0.48332126267E+03  0.49289971301E+03  0.93727215828E+02 0.  0.
        -13    1    4    4    0    0  0.28173089443E+01  0.11833694514E+02 -0.31879271312E+01  0.12575674891E+02  0.10566000000E+00 0.  1.
         13    1    4    4    0    0  0.11465432144E+02  0.71898817963E+01 -0.48013333554E+03  0.48032403812E+03  0.10566000000E+00 0. -1.
    9000005    1    3    3    0    0 -0.17737083208E+02 -0.69430549386E+02 -0.41324056593E+03  0.41940907315E+03  0.10000000000E+01 0.  0.
    9000005    1    3    3    0    0  0.34543421201E+01  0.50406973076E+02 -0.16031096731E+03  0.16808748214E+03  0.10000000000E+01 0.  0.
<mgrwt>
<rscale>  0 0.11880411E+03</rscale>
<asrwt>0</asrwt>
<pdfrwt beam="2">  1        2 0.16440524E+00 0.12724324E+03</pdfrwt>
<pdfrwt beam="1">  1       -2 0.18094987E-02 0.12724324E+03</pdfrwt>
<totfact> 0.20308997E+04</totfact>
</mgrwt>
</event>
<event>
 8    3  0.7944584E-004  0.1268094E+03  0.7818608E-02  0.1250586E+00
         -2   -1    0    0    0  501 -0.00000000000E+00  0.00000000000E+00  0.11525301646E+02  0.11525301928E+02  0.25500000000E-02 0.  1.
          2   -1    0    0  501    0  0.00000000000E+00 -0.00000000000E+00 -0.13059286609E+04  0.13059286609E+04  0.25500000000E-02 0. -1.
         25    2    1    2    0    0  0.58222169379E+01 -0.20535197113E+02 -0.42110639710E+03  0.43978543429E+03  0.12500015201E+03 0.  0.
         23    2    1    2    0    0 -0.58222169379E+01  0.20535197113E+02 -0.87329696218E+03  0.87766852857E+03  0.84846151100E+02 0.  0.
        -13    1    4    4    0    0 -0.44013926187E+02  0.19448423105E+02 -0.55631772670E+03  0.55839492393E+03  0.10566000000E+00 0. -1.
         13    1    4    4    0    0  0.38191709249E+02  0.10867740078E+01 -0.31697923548E+03  0.31927360464E+03  0.10566000000E+00 0.  1.
    9000005    1    3    3    0    0  0.29939102713E+02 -0.45271604127E+02 -0.78508838727E+02  0.95448969454E+02  0.10000000000E+01 0.  0.
    9000005    1    3    3    0    0 -0.24116885775E+02  0.24736407014E+02 -0.34259755837E+03  0.34433646483E+03  0.10000000000E+01 0.  0.
<mgrwt>
<rscale>  0 0.11557209E+03</rscale>
<asrwt>0</asrwt>
<pdfrwt beam="2">  1        2 0.20091198E+00 0.12680943E+03</pdfrwt>
<pdfrwt beam="1">  1       -2 0.17731244E-02 0.12680943E+03</pdfrwt>
<totfact> 0.15439867E+04</totfact>
</mgrwt>
</event>
<event>
 8    3  0.7944584E-004  0.1315706E+03  0.7818608E-02  0.1237708E+00
         -2   -1    0    0    0  501 -0.00000000000E+00  0.00000000000E+00  0.47967078883E+02  0.47967078951E+02  0.25500000000E-02 0.  1.
          2   -1    0    0  501    0  0.00000000000E+00 -0.00000000000E+00 -0.30250777263E+03  0.30250777264E+03  0.25500000000E-02 0. -1.
         25    2    1    2    0    0 -0.35269740438E+02 -0.21001544416E+02 -0.18644024938E+03  0.22819024167E+03  0.12500320135E+03 0.  0.
         23    2    1    2    0    0  0.35269740438E+02  0.21001544416E+02 -0.68100444371E+02  0.12228460992E+03  0.92902291910E+02 0.  0.
        -13    1    4    4    0    0  0.44948957367E+02 -0.59042155028E+01  0.32162555093E+01  0.45449136325E+02  0.10566000000E+00 0.  1.
         13    1    4    4    0    0 -0.96792169298E+01  0.26905759919E+02 -0.71316699881E+02  0.76835473598E+02  0.10566000000E+00 0. -1.
    9000005    1    3    3    0    0 -0.12812880277E+02  0.37905678338E+02 -0.15025368420E+03  0.15549334380E+03  0.10000000000E+01 0.  0.
    9000005    1    3    3    0    0 -0.22456860160E+02 -0.58907222754E+02 -0.36186565183E+02  0.72696897875E+02  0.10000000000E+01 0.  0.
<mgrwt>
<rscale>  0 0.12332674E+03</rscale>
<asrwt>0</asrwt>
<pdfrwt beam="2">  1        2 0.46539656E-01 0.13157059E+03</pdfrwt>
<pdfrwt beam="1">  1       -2 0.73795508E-02 0.13157059E+03</pdfrwt>
<totfact> 0.10957965E+04</totfact>
</mgrwt>
</event>
<event>
 8    3  0.7944584E-004  0.1984702E+03  0.7818608E-02  0.1155270E+00
         -2   -1    0    0    0  501 -0.00000000000E+00  0.00000000000E+00  0.27482682917E+02  0.27482683036E+02  0.25500000000E-02 0. -1.
          2   -1    0    0  501    0  0.00000000000E+00 -0.00000000000E+00 -0.21395985996E+04  0.21395985996E+04  0.25500000000E-02 0.  1.
         25    2    1    2    0    0 -0.10677768213E+03 -0.11119855179E+03 -0.17661149139E+04  0.17772316458E+04  0.12499536928E+03 0.  0.
         23    2    1    2    0    0  0.10677768213E+03  0.11119855179E+03 -0.34600100274E+03  0.38984963681E+03  0.92192484000E+02 0.  0.
        -13    1    4    4    0    0  0.68941575552E+02  0.94238519253E+02 -0.32065517241E+03  0.34125297084E+03  0.10566000000E+00 0.  1.
         13    1    4    4    0    0  0.37836106576E+02  0.16960032537E+02 -0.25345830329E+02  0.48596665972E+02  0.10566000000E+00 0. -1.
    9000005    1    3    3    0    0 -0.65356856299E+02 -0.26901244813E+02 -0.12902747083E+04  0.12922093555E+04  0.10000000000E+01 0.  0.
    9000005    1    3    3    0    0 -0.41420825829E+02 -0.84297306977E+02 -0.47584020564E+03  0.48502229029E+03  0.10000000000E+01 0.  0.
<mgrwt>
<rscale>  0 0.19358190E+03</rscale>
<asrwt>0</asrwt>
<pdfrwt beam="2">  1        2 0.32916888E+00 0.19847023E+03</pdfrwt>
<pdfrwt beam="1">  1       -2 0.42281068E-02 0.19847023E+03</pdfrwt>
<totfact> 0.15954746E+03</totfact>
</mgrwt>
</event>
<event>
 8    3  0.7944584E-004  0.1368708E+03  0.7818608E-02  0.1229629E+00
         -2   -1    0    0    0  501 -0.00000000000E+00  0.00000000000E+00  0.86895897501E+03  0.86895897502E+03  0.25500000000E-02 0. -1.
          2   -1    0    0  501    0  0.00000000000E+00 -0.00000000000E+00 -0.17489333565E+02  0.17489333751E+02  0.25500000000E-02 0.  1.
         25    2    1    2    0    0 -0.53974412898E+02  0.13991597815E+02  0.54811795036E+03  0.56494859167E+03  0.12499848665E+03 0.  0.
         23    2    1    2    0    0  0.53974412898E+02 -0.13991597815E+02  0.30335169108E+03  0.32149971710E+03  0.90723853268E+02 0.  0.
        -13    1    4    4    0    0  0.71768236464E+02  0.13348818754E+02  0.18976163333E+03  0.20331836950E+03  0.10566000000E+00 0.  1.
         13    1    4    4    0    0 -0.17793823566E+02 -0.27340416569E+02  0.11359005776E+03  0.11818134760E+03  0.10566000000E+00 0. -1.
    9000005    1    3    3    0    0 -0.94853755170E+02  0.95909485622E+01  0.36246988547E+03  0.37479946509E+03  0.10000000000E+01 0.  0.
    9000005    1    3    3    0    0  0.40879342271E+02  0.44006492529E+01  0.18564806490E+03  0.19014912658E+03  0.10000000000E+01 0.  0.
<mgrwt>
<rscale>  0 0.12854611E+03</rscale>
<asrwt>0</asrwt>
<pdfrwt beam="2">  1        2 0.26906668E-02 0.13687083E+03</pdfrwt>
<pdfrwt beam="1">  1       -2 0.13368599E+00 0.13687083E+03</pdfrwt>
<totfact> 0.14886229E+03</totfact>
</mgrwt>
</event>
<event>
 8    3  0.7944584E-004  0.1854357E+03  0.7818608E-02  0.1165384E+00
         -2   -1    0    0    0  501 -0.00000000000E+00  0.00000000000E+00  0.20549515670E+02  0.20549515828E+02  0.25500000000E-02 0.  1.
          2   -1    0    0  501    0  0.00000000000E+00 -0.00000000000E+00 -0.15803872353E+04  0.15803872353E+04  0.25500000000E-02 0. -1.
         25    2    1    2    0    0  0.32864131932E+02  0.13295021270E+03 -0.74694607640E+03  0.76961993727E+03  0.12502238425E+03 0.  0.
         23    2    1    2    0    0 -0.32864131932E+02 -0.13295021270E+03 -0.81289164327E+03  0.83131681391E+03  0.10741978942E+03 0.  0.
        -13    1    4    4    0    0  0.37074376375E+02 -0.59303018098E+02 -0.40340509932E+03  0.40942281649E+03  0.10566000000E+00 0. -1.
         13    1    4    4    0    0 -0.69938508307E+02 -0.73647194600E+02 -0.40948654395E+03  0.42189399742E+03  0.10566000000E+00 0.  1.
    9000005    1    3    3    0    0 -0.24587897345E+02  0.51178762303E+02 -0.99995521107E+02  0.11499536794E+03  0.10000000000E+01 0.  0.
    9000005    1    3    3    0    0  0.57452029277E+02  0.81771450395E+02 -0.64695055529E+03  0.65462456932E+03  0.10000000000E+01 0.  0.
<mgrwt>
<rscale>  0 0.18252237E+03</rscale>
<asrwt>0</asrwt>
<pdfrwt beam="2">  1        2 0.24313640E+00 0.18543572E+03</pdfrwt>
<pdfrwt beam="1">  1       -2 0.31614652E-02 0.18543572E+03</pdfrwt>
<totfact> 0.48114569E+03</totfact>
</mgrwt>
</event>
<event>
 8    3  0.7944584E-004  0.1924739E+03  0.7818608E-02  0.1160925E+00
          2   -1    0    0  501    0  0.00000000000E+00  0.00000000000E+00  0.37958241580E+03  0.37958241581E+03  0.25500000000E-02 0.  1.
         -2   -1    0    0    0  501 -0.00000000000E+00 -0.00000000000E+00 -0.98487423386E+02  0.98487423419E+02  0.25500000000E-02 0. -1.
         25    2    1    2    0    0 -0.16114170152E+02  0.14547011050E+03  0.68616875921E+02  0.20433916831E+03  0.12500000207E+03 0.  0.
         23    2    1    2    0    0  0.16114170152E+02 -0.14547011050E+03  0.21247811649E+03  0.27373067091E+03  0.91434734553E+02 0.  0.
        -13    1    4    4    0    0  0.54074747294E+02 -0.74122215794E+02  0.11396848558E+03  0.14631133941E+03  0.10566000000E+00 0. -1.
         13    1    4    4    0    0 -0.37960577141E+02 -0.71347894702E+02  0.98509630910E+02  0.12741933151E+03  0.10566000000E+00 0.  1.
    9000005    1    3    3    0    0 -0.66144910758E+02  0.44641641480E+02  0.31792341208E+02  0.85905636210E+02  0.10000000000E+01 0.  0.
    9000005    1    3    3    0    0  0.50030740606E+02  0.10082846902E+03  0.36824534713E+02  0.11843353210E+03  0.10000000000E+01 0.  0.
<mgrwt>
<rscale>  0 0.18729334E+03</rscale>
<asrwt>0</asrwt>
<pdfrwt beam="1">  1        2 0.58397296E-01 0.19247395E+03</pdfrwt>
<pdfrwt beam="2">  1       -2 0.15151911E-01 0.19247395E+03</pdfrwt>
<totfact> 0.28047291E+03</totfact>
</mgrwt>
</event>
<event>
 8    3  0.7944584E-004  0.1481175E+03  0.7818608E-02  0.1213072E+00
          2   -1    0    0  501    0  0.00000000000E+00  0.00000000000E+00  0.33762729361E+03  0.33762729362E+03  0.25500000000E-02 0. -1.
         -2   -1    0    0    0  501 -0.00000000000E+00 -0.00000000000E+00 -0.53120701207E+02  0.53120701268E+02  0.25500000000E-02 0.  1.
         25    2    1    2    0    0  0.79045337220E+02 -0.82020884847E+01  0.17327846424E+03  0.22795660813E+03  0.12499339754E+03 0.  0.
         23    2    1    2    0    0 -0.79045337220E+02  0.82020884847E+01  0.11122812816E+03  0.16279138676E+03  0.88396264151E+02 0.  0.
        -13    1    4    4    0    0 -0.82486933649E+01 -0.13915253268E+02 -0.11180744467E+02  0.19664572882E+02  0.10566000000E+00 0.  1.
         13    1    4    4    0    0 -0.70796643855E+02  0.22117341753E+02  0.12240887263E+03  0.14312681388E+03  0.10566000000E+00 0. -1.
    9000005    1    3    3    0    0  0.15400080392E+02 -0.57919108837E+02  0.39821095263E+02  0.71961832053E+02  0.10000000000E+01 0.  0.
    9000005    1    3    3    0    0  0.63645256828E+02  0.49717020352E+02  0.13345736898E+03  0.15599477608E+03  0.10000000000E+01 0.  0.
<mgrwt>
<rscale>  0 0.14019095E+03</rscale>
<asrwt>0</asrwt>
<pdfrwt beam="1">  1        2 0.51942662E-01 0.14811748E+03</pdfrwt>
<pdfrwt beam="2">  1       -2 0.81724154E-02 0.14811748E+03</pdfrwt>
<totfact> 0.84034406E+03</totfact>
</mgrwt>
</event>
<event>
 8    3  0.7944584E-004  0.1448223E+03  0.7818608E-02  0.1217074E+00
         -2   -1    0    0    0  501 -0.00000000000E+00  0.00000000000E+00  0.75399560014E+01  0.75399564326E+01  0.25500000000E-02 0.  1.
          2   -1    0    0  501    0  0.00000000000E+00 -0.00000000000E+00 -0.29129801707E+04  0.29129801707E+04  0.25500000000E-02 0. -1.
         25    2    1    2    0    0  0.54711666887E+02  0.48490178278E+02 -0.22567639502E+04  0.22614059847E+04  0.12501534625E+03 0.  0.
         23    2    1    2    0    0 -0.54711666887E+02 -0.48490178278E+02 -0.64867626451E+03  0.65911414246E+03  0.91136670771E+02 0.  0.
        -13    1    4    4    0    0  0.58433483749E+01 -0.32415287771E+02 -0.44011060473E+03  0.44134142244E+03  0.10566000000E+00 0. -1.
         13    1    4    4    0    0 -0.60555015261E+02 -0.16074890506E+02 -0.20856565978E+03  0.21777272002E+03  0.10566000000E+00 0.  1.
    9000005    1    3    3    0    0  0.58625077141E+02  0.51748799097E+02 -0.22543086859E+04  0.22556647555E+04  0.10000000000E+01 0.  0.
    9000005    1    3    3    0    0 -0.39134102541E+01 -0.32586208199E+01 -0.24552642386E+01  0.57412291320E+01  0.10000000000E+01 0.  0.
<mgrwt>
<rscale>  0 0.13725254E+03</rscale>
<asrwt>0</asrwt>
<pdfrwt beam="2">  1        2 0.44814990E+00 0.14482231E+03</pdfrwt>
<pdfrwt beam="1">  1       -2 0.11599956E-02 0.14482231E+03</pdfrwt>
<totfact> 0.40631410E+03</totfact>
</mgrwt>
</event>
<event>
 8    3  0.7944584E-004  0.1365106E+03  0.7818608E-02  0.1230310E+00
          2   -1    0    0  501    0  0.00000000000E+00  0.00000000000E+00  0.66738842873E+03  0.66738842874E+03  0.25500000000E-02 0.  1.
         -2   -1    0    0    0  501 -0.00000000000E+00 -0.00000000000E+00 -0.29487109906E+02  0.29487110016E+02  0.25500000000E-02 0. -1.
         25    2    1    2    0    0  0.42091359741E+02  0.35179237841E+02  0.52358814251E+03  0.54109120223E+03  0.12500353917E+03 0.  0.
         23    2    1    2    0    0 -0.42091359741E+02 -0.35179237841E+02  0.11431317631E+03  0.15578433653E+03  0.90509645279E+02 0.  0.
        -13    1    4    4    0    0  0.80400751409E+01 -0.36188560000E+02  0.95130773900E+02  0.10209862874E+03  0.10566000000E+00 0.  1.
         13    1    4    4    0    0 -0.50131434882E+02  0.10093221597E+01  0.19182402413E+02  0.53685707790E+02  0.10566000000E+00 0. -1.
    9000005    1    3    3    0    0  0.81768638499E+02  0.28239218053E+01  0.37816548308E+03  0.38691629246E+03  0.10000000000E+01 0.  0.
    9000005    1    3    3    0    0 -0.39677278758E+02  0.32355316035E+02  0.14542265943E+03  0.15417490977E+03  0.10000000000E+01 0.  0.
<mgrwt>
<rscale>  0 0.12809529E+03</rscale>
<asrwt>0</asrwt>
<pdfrwt beam="1">  1        2 0.10267513E+00 0.13651061E+03</pdfrwt>
<pdfrwt beam="2">  1       -2 0.45364788E-02 0.13651061E+03</pdfrwt>
<totfact> 0.96676309E+03</totfact>
</mgrwt>
</event>
<event>
 8    3  0.7944584E-004  0.1761634E+03  0.7818608E-02  0.1177660E+00
          2   -1    0    0  501    0  0.00000000000E+00  0.00000000000E+00  0.30948211837E+03  0.30948211838E+03  0.25500000000E-02 0. -1.
         -2   -1    0    0    0  501 -0.00000000000E+00 -0.00000000000E+00 -0.11994812097E+03  0.11994812100E+03  0.25500000000E-02 0.  1.
         25    2    1    2    0    0  0.12408125547E+03 -0.34492161741E+01 -0.11501817821E+02  0.17653844848E+03  0.12500190769E+03 0.  0.
         23    2    1    2    0    0 -0.12408125547E+03  0.34492161741E+01  0.20103581522E+03  0.25289179091E+03  0.90170970141E+02 0.  0.
        -13    1    4    4    0    0  0.53496793366E+01  0.17980565642E+02  0.50282420765E+02  0.53667986843E+02  0.10566000000E+00 0.  1.
         13    1    4    4    0    0 -0.12943093480E+03 -0.14531349468E+02  0.15075339445E+03  0.19922380406E+03  0.10566000000E+00 0. -1.
    9000005    1    3    3    0    0  0.14174161782E+03 -0.18884631442E+02 -0.30647472316E+02  0.14624494209E+03  0.10000000000E+01 0.  0.
    9000005    1    3    3    0    0 -0.17660362358E+02  0.15435415268E+02  0.19145654495E+02  0.30293506386E+02  0.10000000000E+01 0.  0.
<mgrwt>
<rscale>  0 0.17018053E+03</rscale>
<asrwt>0</asrwt>
<pdfrwt beam="1">  1        2 0.47612633E-01 0.17616337E+03</pdfrwt>
<pdfrwt beam="2">  1       -2 0.18453557E-01 0.17616337E+03</pdfrwt>
<totfact> 0.25061521E+03</totfact>
</mgrwt>
</event>
<event>
 8    3  0.7944584E-004  0.1595584E+03  0.7818608E-02  0.1196942E+00
         -2   -1    0    0    0  501 -0.00000000000E+00  0.00000000000E+00  0.72240033408E+02  0.72240033453E+02  0.25500000000E-02 0.  1.
          2   -1    0    0  501    0  0.00000000000E+00 -0.00000000000E+00 -0.30388304491E+03  0.30388304492E+03  0.25500000000E-02 0. -1.
         25    2    1    2    0    0 -0.89983885665E+02 -0.41667000436E+02 -0.14824097568E+03  0.21779408873E+03  0.12500255841E+03 0.  0.
         23    2    1    2    0    0  0.89983885665E+02  0.41667000436E+02 -0.83402035830E+02  0.15832898965E+03  0.90988629941E+02 0.  0.
        -13    1    4    4    0    0  0.11476199519E+02  0.55865228793E+01  0.19909382877E+02  0.23649674075E+02  0.10566000000E+00 0.  1.
         13    1    4    4    0    0  0.78507686147E+02  0.36080477556E+02 -0.10331141871E+03  0.13467931558E+03  0.10566000000E+00 0. -1.
    9000005    1    3    3    0    0  0.16648423636E+02 -0.46458233914E+02 -0.69064029834E+02  0.84890386528E+02  0.10000000000E+01 0.  0.
    9000005    1    3    3    0    0 -0.10663230930E+03  0.47912334786E+01 -0.79176945842E+02  0.13290370220E+03  0.10000000000E+01 0.  0.
<mgrwt>
<rscale>  0 0.15291005E+03</rscale>
<asrwt>0</asrwt>
<pdfrwt beam="2">  1        2 0.46751237E-01 0.15955838E+03</pdfrwt>
<pdfrwt beam="1">  1       -2 0.11113851E-01 0.15955838E+03</pdfrwt>
<totfact> 0.58282857E+03</totfact>
</mgrwt>
</event>
<event>
 8    3  0.7944584E-004  0.1680052E+03  0.7818608E-02  0.1187599E+00
          2   -1    0    0  501    0  0.00000000000E+00  0.00000000000E+00  0.10931130013E+04  0.10931130013E+04  0.25500000000E-02 0. -1.
         -2   -1    0    0    0  501 -0.00000000000E+00 -0.00000000000E+00 -0.27736960171E+02  0.27736960288E+02  0.25500000000E-02 0.  1.
         25    2    1    2    0    0  0.11184470952E+03  0.96230127002E+01  0.31275505554E+03  0.35502319641E+03  0.12499561513E+03 0.  0.
         23    2    1    2    0    0 -0.11184470952E+03 -0.96230127002E+01  0.75262098556E+03  0.76582676515E+03  0.86315959673E+02 0.  0.
        -13    1    4    4    0    0 -0.10122491183E+03 -0.35281702928E+02  0.48156297613E+03  0.49334996957E+03  0.10566000000E+00 0.  1.
         13    1    4    4    0    0 -0.10619797695E+02  0.25658690228E+02  0.27105800943E+03  0.27247679558E+03  0.10566000000E+00 0. -1.
    9000005    1    3    3    0    0  0.12554368025E+03  0.42230869536E+02  0.24027870992E+03  0.27437113629E+03  0.10000000000E+01 0.  0.
    9000005    1    3    3    0    0 -0.13698970725E+02 -0.32607856835E+02  0.72476345622E+02  0.80652060116E+02  0.10000000000E+01 0.  0.
<mgrwt>
<rscale>  0 0.16097651E+03</rscale>
<asrwt>0</asrwt>
<pdfrwt beam="1">  1        2 0.16817122E+00 0.16800519E+03</pdfrwt>
<pdfrwt beam="2">  1       -2 0.42672249E-02 0.16800519E+03</pdfrwt>
<totfact> 0.56539659E+03</totfact>
</mgrwt>
</event>
<event>
 8    3  0.7944584E-004  0.1599992E+03  0.7818608E-02  0.1196537E+00
          2   -1    0    0  501    0  0.00000000000E+00  0.00000000000E+00  0.11088974274E+04  0.11088974274E+04  0.25500000000E-02 0. -1.
         -2   -1    0    0    0  501 -0.00000000000E+00 -0.00000000000E+00 -0.20531183526E+02  0.20531183684E+02  0.25500000000E-02 0.  1.
         25    2    1    2    0    0  0.56637922916E+02 -0.82271633881E+02  0.71030852571E+03  0.72810573348E+03  0.12499312528E+03 0.  0.
         23    2    1    2    0    0 -0.56637922916E+02  0.82271633881E+02  0.37805771820E+03  0.40132287764E+03  0.90310230759E+02 0.  0.
        -13    1    4    4    0    0 -0.53657682164E+02  0.26626342523E+02  0.91268074542E+02  0.10916950841E+03  0.10566000000E+00 0.  1.
         13    1    4    4    0    0 -0.29802407520E+01  0.55645291358E+02  0.28678964365E+03  0.29215336924E+03  0.10566000000E+00 0. -1.
    9000005    1    3    3    0    0  0.84571162998E+02 -0.82893147029E+02  0.66009103378E+03  0.67063009798E+03  0.10000000000E+01 0.  0.
    9000005    1    3    3    0    0 -0.27933240083E+02  0.62151314811E+00  0.50217491932E+02  0.57475635499E+02  0.10000000000E+01 0.  0.
<mgrwt>
<rscale>  0 0.15324821E+03</rscale>
<asrwt>0</asrwt>
<pdfrwt beam="1">  1        2 0.17059964E+00 0.15999924E+03</pdfrwt>
<pdfrwt beam="2">  1       -2 0.31586430E-02 0.15999924E+03</pdfrwt>
<totfact> 0.86459307E+03</totfact>
</mgrwt>
</event>
<event>
 8    3  0.7944584E-004  0.5692514E+03  0.7818608E-02  0.9974956E-01
          2   -1    0    0  501    0  0.00000000000E+00  0.00000000000E+00  0.20497605910E+04  0.20497605910E+04  0.25500000000E-02 0.  1.
         -2   -1    0    0    0  501 -0.00000000000E+00 -0.00000000000E+00 -0.18804629917E+03  0.18804629919E+03  0.25500000000E-02 0. -1.
         25    2    1    2    0    0 -0.55024014988E+03 -0.75182140858E+02  0.47551149347E+03  0.74172660972E+03  0.12502242320E+03 0.  0.
         23    2    1    2    0    0  0.55024014988E+03  0.75182140858E+02  0.13862027984E+04  0.14960802805E+04  0.91002365956E+02 0.  0.
        -13    1    4    4    0    0  0.39461222352E+03  0.69580956024E+02  0.10921472696E+04  0.11633339959E+04  0.10566000000E+00 0.  1.
         13    1    4    4    0    0  0.15562792635E+03  0.56011848336E+01  0.29405552883E+03  0.33274628462E+03  0.10566000000E+00 0. -1.
    9000005    1    3    3    0    0 -0.14326842369E+03  0.32748864772E+02  0.14500048129E+03  0.20645694211E+03  0.10000000000E+01 0.  0.
    9000005    1    3    3    0    0 -0.40697172619E+03 -0.10793100563E+03  0.33051101219E+03  0.53526966762E+03  0.10000000000E+01 0.  0.
<mgrwt>
<rscale>  0 0.56762140E+03</rscale>
<asrwt>0</asrwt>
<pdfrwt beam="1">  1        2 0.31534779E+00 0.56925142E+03</pdfrwt>
<pdfrwt beam="2">  1       -2 0.28930199E-01 0.56925142E+03</pdfrwt>
<totfact> 0.72425711E+01</totfact>
</mgrwt>
</event>
<event>
 8    3  0.7944584E-004  0.1982371E+03  0.7818608E-02  0.1155790E+00
          2   -1    0    0  501    0  0.00000000000E+00  0.00000000000E+00  0.33849691335E+04  0.33849691335E+04  0.25500000000E-02 0. -1.
         -2   -1    0    0    0  501 -0.00000000000E+00 -0.00000000000E+00 -0.11036688506E+02  0.11036688800E+02  0.25500000000E-02 0.  1.
         25    2    1    2    0    0 -0.72843971682E+02 -0.13552280502E+03  0.13845825771E+04  0.13987018452E+04  0.12500105579E+03 0.  0.
         23    2    1    2    0    0  0.72843971682E+02  0.13552280502E+03  0.19893498679E+04  0.19973039771E+04  0.89652692842E+02 0.  0.
        -13    1    4    4    0    0  0.57775875721E+02  0.10196118304E+03  0.18305836715E+04  0.18343311381E+04  0.10566000000E+00 0. -1.
         13    1    4    4    0    0  0.15068095961E+02  0.33561621975E+02  0.15876619636E+03  0.16297283901E+03  0.10566000000E+00 0.  1.
    9000005    1    3    3    0    0 -0.26348013490E+02 -0.10832492627E+03  0.49107232369E+03  0.50356879824E+03  0.10000000000E+01 0.  0.
    9000005    1    3    3    0    0 -0.46495958192E+02 -0.27197878752E+02  0.89351025344E+03  0.89513304695E+03  0.10000000000E+01 0.  0.
<mgrwt>
<rscale>  0 0.19299172E+03</rscale>
<asrwt>0</asrwt>
<pdfrwt beam="1">  1        2 0.52076472E+00 0.19823708E+03</pdfrwt>
<pdfrwt beam="2">  1       -2 0.16979513E-02 0.19823708E+03</pdfrwt>
<totfact> 0.12052943E+03</totfact>
</mgrwt>
</event>
<event>
 8    3  0.7944584E-004  0.1427596E+03  0.7818608E-02  0.1220195E+00
         -2   -1    0    0    0  501 -0.00000000000E+00  0.00000000000E+00  0.11372631784E+03  0.11372631787E+03  0.25500000000E-02 0.  1.
          2   -1    0    0  501    0  0.00000000000E+00 -0.00000000000E+00 -0.19508612084E+03  0.19508612085E+03  0.25500000000E-02 0. -1.
         25    2    1    2    0    0 -0.68778388983E+02  0.49185324318E+01  0.33703359081E+02  0.14668409497E+03  0.12500259417E+03 0.  0.
         23    2    1    2    0    0  0.68778388983E+02 -0.49185324318E+01 -0.11506316207E+03  0.16212834376E+03  0.91057178915E+02 0.  0.
        -13    1    4    4    0    0  0.63968064427E+02 -0.22531994165E+02 -0.12435089304E+03  0.14164307181E+03  0.10566000000E+00 0. -1.
         13    1    4    4    0    0  0.48103245563E+01  0.17613461733E+02  0.92877309640E+01  0.20485271955E+02  0.10566000000E+00 0.  1.
    9000005    1    3    3    0    0 -0.96238440269E+02  0.91562494549E+01  0.55391724096E+02  0.11142224817E+03  0.10000000000E+01 0.  0.
    9000005    1    3    3    0    0  0.27460051287E+02 -0.42377170230E+01 -0.21688365015E+02  0.35261846793E+02  0.10000000000E+01 0.  0.
<mgrwt>
<rscale>  0 0.13501716E+03</rscale>
<asrwt>0</asrwt>
<pdfrwt beam="2">  1        2 0.30013249E-01 0.14275961E+03</pdfrwt>
<pdfrwt beam="1">  1       -2 0.17496357E-01 0.14275961E+03</pdfrwt>
<totfact> 0.44515397E+03</totfact>
</mgrwt>
</event>
<event>
 8    3  0.7944584E-004  0.1349670E+03  0.7818608E-02  0.1231756E+00
          2   -1    0    0  501    0  0.00000000000E+00  0.00000000000E+00  0.24506999584E+04  0.24506999584E+04  0.25500000000E-02 0. -1.
         -2   -1    0    0    0  501 -0.00000000000E+00 -0.00000000000E+00 -0.60238845936E+01  0.60238851334E+01  0.25500000000E-02 0.  1.
         25    2    1    2    0    0  0.49902470348E+02 -0.10038064010E+02  0.12196442185E+04  0.12270892874E+04  0.12500032038E+03 0.  0.
         23    2    1    2    0    0 -0.49902470348E+02  0.10038064010E+02  0.12250318553E+04  0.12296345562E+04  0.93311714221E+02 0.  0.
        -13    1    4    4    0    0 -0.40675611485E+02 -0.38828203656E+02  0.69816985320E+03  0.70043078876E+03  0.10566000000E+00 0.  1.
         13    1    4    4    0    0 -0.92268588624E+01  0.48866267666E+02  0.52686200210E+03  0.52920376743E+03  0.10566000000E+00 0. -1.
    9000005    1    3    3    0    0 -0.15843511466E+01 -0.47973579016E+02  0.89019206095E+03  0.89148577096E+03  0.10000000000E+01 0.  0.
    9000005    1    3    3    0    0  0.51486821494E+02  0.37935515006E+02  0.32945215758E+03  0.33560351640E+03  0.10000000000E+01 0.  0.
<mgrwt>
<rscale>  0 0.12714416E+03</rscale>
<asrwt>0</asrwt>
<pdfrwt beam="1">  1        2 0.37703151E+00 0.13496703E+03</pdfrwt>
<pdfrwt beam="2">  1       -2 0.92674967E-03 0.13496703E+03</pdfrwt>
<totfact> 0.10048053E+04</totfact>
</mgrwt>
</event>
<event>
 8    3  0.7944584E-004  0.1334961E+03  0.7818608E-02  0.1231231E+00
          2   -1    0    0  501    0  0.00000000000E+00  0.00000000000E+00  0.10969670383E+04  0.10969670383E+04  0.25500000000E-02 0. -1.
         -2   -1    0    0    0  501 -0.00000000000E+00 -0.00000000000E+00 -0.14957147448E+02  0.14957147666E+02  0.25500000000E-02 0.  1.
         25    2    1    2    0    0  0.42030281794E+02  0.20734925753E+02  0.42117024520E+03  0.44182075513E+03  0.12499888994E+03 0.  0.
         23    2    1    2    0    0 -0.42030281794E+02 -0.20734925753E+02  0.66083964566E+03  0.67010343085E+03  0.10066324565E+03 0.  0.
        -13    1    4    4    0    0 -0.37558956068E+02 -0.12758342035E+02  0.80995827202E+02  0.90187502795E+02  0.10566000000E+00 0.  1.
         13    1    4    4    0    0 -0.44713257262E+01 -0.79765837180E+01  0.57984381846E+03  0.57991592806E+03  0.10566000000E+00 0. -1.
    9000005    1    3    3    0    0  0.84260909522E+02  0.29901016771E+02  0.25954562446E+03  0.27451576067E+03  0.10000000000E+01 0.  0.
    9000005    1    3    3    0    0 -0.42230627728E+02 -0.91660910185E+01  0.16162462074E+03  0.16730499446E+03  0.10000000000E+01 0.  0.
<mgrwt>
<rscale>  0 0.12748817E+03</rscale>
<asrwt>0</asrwt>
<pdfrwt beam="1">  1        2 0.16876414E+00 0.13349608E+03</pdfrwt>
<pdfrwt beam="2">  1       -2 0.23010999E-02 0.13349608E+03</pdfrwt>
<totfact> 0.13846369E+04</totfact>
</mgrwt>
</event>
<event>
 8    3  0.7944584E-004  0.2210414E+03  0.7818608E-02  0.1133197E+00
         -2   -1    0    0    0  501 -0.00000000000E+00  0.00000000000E+00  0.29432985693E+02  0.29432985804E+02  0.25500000000E-02 0.  1.
          2   -1    0    0  501    0  0.00000000000E+00 -0.00000000000E+00 -0.18142675090E+04  0.18142675090E+04  0.25500000000E-02 0. -1.
         25    2    1    2    0    0 -0.15954107042E+03 -0.88200879876E+02 -0.62140474488E+03  0.65954767555E+03  0.12500612386E+03 0.  0.
         23    2    1    2    0    0  0.15954107042E+03  0.88200879876E+02 -0.11634297785E+04  0.11841528193E+04  0.12416240036E+03 0.  0.
        -13    1    4    4    0    0  0.13494776396E+03  0.77971638484E+01 -0.65294528213E+03  0.66679025741E+03  0.10566000000E+00 0.  1.
         13    1    4    4    0    0  0.24593306457E+02  0.80403716027E+02 -0.51048449633E+03  0.51736256188E+03  0.10566000000E+00 0. -1.
    9000005    1    3    3    0    0 -0.11808392446E+03 -0.52798953728E+02 -0.22599615589E+03  0.26039739862E+03  0.10000000000E+01 0.  0.
    9000005    1    3    3    0    0 -0.41457145955E+02 -0.35401926147E+02 -0.39540858898E+03  0.39915027692E+03  0.10000000000E+01 0.  0.
<mgrwt>
<rscale>  0 0.22092224E+03</rscale>
<asrwt>0</asrwt>
<pdfrwt beam="2">  1        2 0.27911799E+00 0.22104135E+03</pdfrwt>
<pdfrwt beam="1">  1       -2 0.45281531E-02 0.22104135E+03</pdfrwt>
<totfact> 0.21226155E+03</totfact>
</mgrwt>
</event>
<event>
 8    3  0.7944584E-004  0.1492985E+03  0.7818608E-02  0.1209943E+00
         -2   -1    0    0    0  501 -0.00000000000E+00  0.00000000000E+00  0.37874227919E+02  0.37874228005E+02  0.25500000000E-02 0.  1.
          2   -1    0    0  501    0  0.00000000000E+00 -0.00000000000E+00 -0.54479355571E+03  0.54479355572E+03  0.25500000000E-02 0. -1.
         25    2    1    2    0    0  0.21922267931E+01 -0.81611340669E+02 -0.36388326628E+03  0.39332057288E+03  0.12499929914E+03 0.  0.
         23    2    1    2    0    0 -0.21922267931E+01  0.81611340669E+02 -0.14303606152E+03  0.18934721085E+03  0.93422880378E+02 0.  0.
        -13    1    4    4    0    0 -0.30428419730E+02  0.33206207427E+02 -0.11668516685E+02  0.46526405241E+02  0.10566000000E+00 0.  1.
         13    1    4    4    0    0  0.28236192937E+02  0.48405133243E+02 -0.13136754483E+03  0.14282080561E+03  0.10566000000E+00 0. -1.
    9000005    1    3    3    0    0 -0.16683206339E+02  0.28781174982E+02 -0.50090147933E+02  0.60139074877E+02  0.10000000000E+01 0.  0.
    9000005    1    3    3    0    0  0.18875433132E+02 -0.11039251565E+03 -0.31379311835E+03  0.33318149800E+03  0.10000000000E+01 0.  0.
<mgrwt>
<rscale>  0 0.14254670E+03</rscale>
<asrwt>0</asrwt>
<pdfrwt beam="2">  1        2 0.83814387E-01 0.14929850E+03</pdfrwt>
<pdfrwt beam="1">  1       -2 0.58268047E-02 0.14929850E+03</pdfrwt>
<totfact> 0.84091163E+03</totfact>
</mgrwt>
</event>
<event>
 8    3  0.7944584E-004  0.1435546E+03  0.7818608E-02  0.1217182E+00
          2   -1    0    0  501    0  0.00000000000E+00  0.00000000000E+00  0.48941349073E+03  0.48941349074E+03  0.25500000000E-02 0. -1.
         -2   -1    0    0    0  501 -0.00000000000E+00 -0.00000000000E+00 -0.42689399214E+02  0.42689399290E+02  0.25500000000E-02 0.  1.
         25    2    1    2    0    0  0.51965284617E+02 -0.47769523323E+02  0.34973625680E+03  0.37805206625E+03  0.12500238922E+03 0.  0.
         23    2    1    2    0    0 -0.51965284617E+02  0.47769523323E+02  0.96987834713E+02  0.15405082377E+03  0.96657633217E+02 0.  0.
        -13    1    4    4    0    0 -0.22618531486E+02  0.30059223603E+02 -0.12248847317E+02  0.39562612588E+02  0.10566000000E+00 0.  1.
         13    1    4    4    0    0 -0.29346753131E+02  0.17710299720E+02  0.10923668203E+03  0.11448821119E+03  0.10566000000E+00 0. -1.
    9000005    1    3    3    0    0  0.53988511163E+02 -0.51047532702E+02  0.83459954180E+02  0.11174602402E+03  0.10000000000E+01 0.  0.
    9000005    1    3    3    0    0 -0.20232265463E+01  0.32780093789E+01  0.26627630262E+03  0.26630604223E+03  0.10000000000E+01 0.  0.
<mgrwt>
<rscale>  0 0.13717490E+03</rscale>
<asrwt>0</asrwt>
<pdfrwt beam="1">  1        2 0.75294384E-01 0.14355457E+03</pdfrwt>
<pdfrwt beam="2">  1       -2 0.65675998E-02 0.14355457E+03</pdfrwt>
<totfact> 0.78733065E+03</totfact>
</mgrwt>
</event>
<event>
 8    3  0.7944584E-004  0.1305231E+03  0.7818608E-02  0.1239675E+00
          2   -1    0    0  501    0  0.00000000000E+00  0.00000000000E+00  0.70256458047E+02  0.70256458093E+02  0.25500000000E-02 0. -1.
         -2   -1    0    0    0  501 -0.00000000000E+00 -0.00000000000E+00 -0.19092574878E+03  0.19092574879E+03  0.25500000000E-02 0.  1.
         25    2    1    2    0    0 -0.32235997329E+02 -0.19404379223E+02 -0.55302864880E+02  0.14175577162E+03  0.12498240863E+03 0.  0.
         23    2    1    2    0    0  0.32235997329E+02  0.19404379223E+02 -0.65366425849E+02  0.11942643526E+03  0.92597053706E+02 0.  0.
        -13    1    4    4    0    0  0.12301211159E+02  0.56118049509E+02 -0.44847954376E+02  0.72882820008E+02  0.10566000000E+00 0. -1.
         13    1    4    4    0    0  0.19934786170E+02 -0.36713670286E+02 -0.20518471473E+02  0.46543615257E+02  0.10566000000E+00 0.  1.
    9000005    1    3    3    0    0 -0.30449983761E+02 -0.61767676654E+02  0.38371964031E+01  0.68979500335E+02  0.10000000000E+01 0.  0.
    9000005    1    3    3    0    0 -0.17860135680E+01  0.42363297431E+02 -0.59140061283E+02  0.72776271286E+02  0.10000000000E+01 0.  0.
<mgrwt>
<rscale>  0 0.12209864E+03</rscale>
<asrwt>0</asrwt>
<pdfrwt beam="1">  1        2 0.10808686E-01 0.13052315E+03</pdfrwt>
<pdfrwt beam="2">  1       -2 0.29373192E-01 0.13052315E+03</pdfrwt>
<totfact> 0.58450837E+03</totfact>
</mgrwt>
</event>
<event>
 8    3  0.7944584E-004  0.1288302E+03  0.7818608E-02  0.1243700E+00
         -2   -1    0    0    0  501 -0.00000000000E+00  0.00000000000E+00  0.94711794357E+02  0.94711794392E+02  0.25500000000E-02 0.  1.
          2   -1    0    0  501    0  0.00000000000E+00 -0.00000000000E+00 -0.26801524436E+03  0.26801524437E+03  0.25500000000E-02 0. -1.
         25    2    1    2    0    0 -0.80764142317E+01 -0.30129175371E+02 -0.22092137410E+03  0.25574104244E+03  0.12499692627E+03 0.  0.
         23    2    1    2    0    0  0.80764142317E+01  0.30129175371E+02  0.47617924102E+02  0.10698599632E+03  0.90584441481E+02 0.  0.
        -13    1    4    4    0    0  0.50043576027E+01 -0.10325594384E+02  0.62670420747E+02  0.63712277428E+02  0.10566000000E+00 0.  1.
         13    1    4    4    0    0  0.30720566290E+01  0.40454769755E+02 -0.15052496645E+02  0.43273718897E+02  0.10566000000E+00 0. -1.
    9000005    1    3    3    0    0 -0.18631444332E+02  0.72875258683E+01  0.94230894506E+01  0.22136697268E+02  0.10000000000E+01 0.  0.
    9000005    1    3    3    0    0  0.10555030100E+02 -0.37416701240E+02 -0.23034446356E+03  0.23360434517E+03  0.10000000000E+01 0.  0.
<mgrwt>
<rscale>  0 0.11963548E+03</rscale>
<asrwt>0</asrwt>
<pdfrwt beam="2">  1        2 0.41233114E-01 0.12883023E+03</pdfrwt>
<pdfrwt beam="1">  1       -2 0.14571045E-01 0.12883023E+03</pdfrwt>
<totfact> 0.42558406E+03</totfact>
</mgrwt>
</event>
<event>
 8    3  0.7944584E-004  0.2154706E+03  0.7818608E-02  0.1139823E+00
         -2   -1    0    0    0  501 -0.00000000000E+00  0.00000000000E+00  0.16774746228E+03  0.16774746230E+03  0.25500000000E-02 0.  1.
          2   -1    0    0  501    0  0.00000000000E+00 -0.00000000000E+00 -0.37564650428E+03  0.37564650429E+03  0.25500000000E-02 0. -1.
         25    2    1    2    0    0 -0.57990312210E+02 -0.16564852457E+03  0.44123231852E+02  0.21994194024E+03  0.12500114993E+03 0.  0.
         23    2    1    2    0    0  0.57990312210E+02  0.16564852457E+03 -0.25202227385E+03  0.32345202635E+03  0.10150702847E+03 0.  0.
        -13    1    4    4    0    0  0.76314163949E+02  0.16177549450E+03 -0.24522006679E+03  0.30352603605E+03  0.10566000000E+00 0. -1.
         13    1    4    4    0    0 -0.18323851739E+02  0.38730300738E+01 -0.68022070643E+01  0.19925990301E+02  0.10566000000E+00 0.  1.
    9000005    1    3    3    0    0  0.32140389306E+02 -0.19813706967E+02 -0.11864151128E+02  0.39589716979E+02  0.10000000000E+01 0.  0.
    9000005    1    3    3    0    0 -0.90130701516E+02 -0.14583481760E+03  0.55987382980E+02  0.18035222326E+03  0.10000000000E+01 0.  0.
<mgrwt>
<rscale>  0 0.21221653E+03</rscale>
<asrwt>0</asrwt>
<pdfrwt beam="2">  1        2 0.57791770E-01 0.21547064E+03</pdfrwt>
<pdfrwt beam="1">  1       -2 0.25807302E-01 0.21547064E+03</pdfrwt>
<totfact> 0.11462297E+03</totfact>
</mgrwt>
</event>
<event>
 8    3  0.7944584E-004  0.1381010E+03  0.7818608E-02  0.1235474E+00
         -2   -1    0    0    0  501 -0.00000000000E+00  0.00000000000E+00  0.25091926638E+02  0.25091926767E+02  0.25500000000E-02 0.  1.
          2   -1    0    0  501    0  0.00000000000E+00 -0.00000000000E+00 -0.55296780232E+03  0.55296780232E+03  0.25500000000E-02 0. -1.
         25    2    1    2    0    0 -0.26128584402E+02 -0.52573519041E+02 -0.37563539125E+03  0.40021724898E+03  0.12500088558E+03 0.  0.
         23    2    1    2    0    0  0.26128584402E+02  0.52573519041E+02 -0.15224048443E+03  0.17784248011E+03  0.70739697519E+02 0.  0.
        -13    1    4    4    0    0 -0.24020915489E+02  0.16629904019E+02 -0.37209297823E+02  0.47308573188E+02  0.10566000000E+00 0.  1.
         13    1    4    4    0    0  0.50149499890E+02  0.35943615022E+02 -0.11503118661E+03  0.13053390692E+03  0.10566000000E+00 0. -1.
    9000005    1    3    3    0    0  0.47307841927E+02 -0.13303402310E+02 -0.19827197490E+03  0.20427380755E+03  0.10000000000E+01 0.  0.
    9000005    1    3    3    0    0 -0.73436426328E+02 -0.39270116731E+02 -0.17736341635E+03  0.19594344143E+03  0.10000000000E+01 0.  0.
<mgrwt>
<rscale>  0 0.12474118E+03</rscale>
<asrwt>0</asrwt>
<pdfrwt beam="2">  1        2 0.85071960E-01 0.13810105E+03</pdfrwt>
<pdfrwt beam="1">  1       -2 0.38602968E-02 0.13810105E+03</pdfrwt>
<totfact> 0.15254951E+04</totfact>
</mgrwt>
</event>
<event>
 8    3  0.7944584E-004  0.1619701E+03  0.7818608E-02  0.1194069E+00
         -2   -1    0    0    0  501 -0.00000000000E+00  0.00000000000E+00  0.94603593366E+02  0.94603593400E+02  0.25500000000E-02 0.  1.
          2   -1    0    0  501    0  0.00000000000E+00 -0.00000000000E+00 -0.26295170483E+03  0.26295170484E+03  0.25500000000E-02 0. -1.
         25    2    1    2    0    0  0.99904640283E+02 -0.25051667074E+02 -0.33663908261E+02  0.16543152055E+03  0.12500322436E+03 0.  0.
         23    2    1    2    0    0 -0.99904640283E+02  0.25051667074E+02 -0.13468420320E+03  0.19212377769E+03  0.90350363522E+02 0.  0.
        -13    1    4    4    0    0 -0.34099760834E+02 -0.30744910215E+02 -0.72337145275E+02  0.85677984007E+02  0.10566000000E+00 0. -1.
         13    1    4    4    0    0 -0.65804879449E+02  0.55796577289E+02 -0.62347057924E+02  0.10644579368E+03  0.10566000000E+00 0.  1.
    9000005    1    3    3    0    0  0.53098454413E+02 -0.90500233926E+01 -0.80788937123E+02  0.97104073786E+02  0.10000000000E+01 0.  0.
    9000005    1    3    3    0    0  0.46806185869E+02 -0.16001643682E+02  0.47125028862E+02  0.68327446764E+02  0.10000000000E+01 0.  0.
<mgrwt>
<rscale>  0 0.15533318E+03</rscale>
<asrwt>0</asrwt>
<pdfrwt beam="2">  1        2 0.40454108E-01 0.16197015E+03</pdfrwt>
<pdfrwt beam="1">  1       -2 0.14554399E-01 0.16197015E+03</pdfrwt>
<totfact> 0.44052607E+03</totfact>
</mgrwt>
</event>
<event>
 8    3  0.7944584E-004  0.4425611E+03  0.7818608E-02  0.1030615E+00
         -2   -1    0    0    0  501 -0.00000000000E+00  0.00000000000E+00  0.56768280290E+03  0.56768280291E+03  0.25500000000E-02 0.  1.
          2   -1    0    0  501    0  0.00000000000E+00 -0.00000000000E+00 -0.49964289411E+03  0.49964289411E+03  0.25500000000E-02 0. -1.
         25    2    1    2    0    0  0.12506282932E+03  0.40570158697E+03 -0.26886828261E+03  0.51783251980E+03  0.12500350482E+03 0.  0.
         23    2    1    2    0    0 -0.12506282932E+03 -0.40570158697E+03  0.33690819141E+03  0.54949317722E+03  0.90560109470E+02 0.  0.
        -13    1    4    4    0    0 -0.44210051477E+02 -0.28741794426E+03  0.22342469475E+03  0.36671815980E+03  0.10566000000E+00 0.  1.
         13    1    4    4    0    0 -0.80852777843E+02 -0.11828364271E+03  0.11348349666E+03  0.18277501743E+03  0.10566000000E+00 0. -1.
    9000005    1    3    3    0    0  0.11641929679E+03  0.23276780845E+03 -0.10899881768E+03  0.28216315771E+03  0.10000000000E+01 0.  0.
    9000005    1    3    3    0    0  0.86435325320E+01  0.17293377853E+03 -0.15986946493E+03  0.23566936209E+03  0.10000000000E+01 0.  0.
<mgrwt>
<rscale>  0 0.44042842E+03</rscale>
<asrwt>0</asrwt>
<pdfrwt beam="2">  1        2 0.76868137E-01 0.44256114E+03</pdfrwt>
<pdfrwt beam="1">  1       -2 0.87335816E-01 0.44256114E+03</pdfrwt>
<totfact> 0.72258925E+01</totfact>
</mgrwt>
</event>
<event>
 8    3  0.7944584E-004  0.3152865E+03  0.7818608E-02  0.1079534E+00
         -2   -1    0    0    0  501 -0.00000000000E+00  0.00000000000E+00  0.21365410802E+03  0.21365410804E+03  0.25500000000E-02 0.  1.
          2   -1    0    0  501    0  0.00000000000E+00 -0.00000000000E+00 -0.44581765256E+03  0.44581765257E+03  0.25500000000E-02 0. -1.
         25    2    1    2    0    0 -0.69761868806E+02 -0.28091603045E+03 -0.10212207507E+03  0.33141286849E+03  0.12500014671E+03 0.  0.
         23    2    1    2    0    0  0.69761868806E+02  0.28091603045E+03 -0.13004146947E+03  0.32805889212E+03  0.83254539895E+02 0.  0.
        -13    1    4    4    0    0  0.61495881822E+01  0.26104255892E+02 -0.44299155506E+02  0.51784900821E+02  0.10566000000E+00 0. -1.
         13    1    4    4    0    0  0.63612280623E+02  0.25481177456E+03 -0.85742313967E+02  0.27627399130E+03  0.10566000000E+00 0.  1.
    9000005    1    3    3    0    0 -0.10028950637E+03 -0.16395039010E+03 -0.43475984348E+02  0.19705044206E+03  0.10000000000E+01 0.  0.
    9000005    1    3    3    0    0  0.30527637561E+02 -0.11696564035E+03 -0.58646090721E+02  0.13436242643E+03  0.10000000000E+01 0.  0.
<mgrwt>
<rscale>  0 0.31170016E+03</rscale>
<asrwt>0</asrwt>
<pdfrwt beam="2">  1        2 0.68587331E-01 0.31528649E+03</pdfrwt>
<pdfrwt beam="1">  1       -2 0.32869863E-01 0.31528649E+03</pdfrwt>
<totfact> 0.61384045E+02</totfact>
</mgrwt>
</event>
<event>
 8    3  0.7944584E-004  0.1302268E+03  0.7818608E-02  0.1236877E+00
         -2   -1    0    0    0  501 -0.00000000000E+00  0.00000000000E+00  0.71332035574E+01  0.71332040132E+01  0.25500000000E-02 0.  1.
          2   -1    0    0  501    0  0.00000000000E+00 -0.00000000000E+00 -0.22832011460E+04  0.22832011460E+04  0.25500000000E-02 0. -1.
         25    2    1    2    0    0 -0.36272145946E+02 -0.43187389809E+01 -0.81009410187E+03  0.82049464668E+03  0.12499876508E+03 0.  0.
         23    2    1    2    0    0  0.36272145946E+02  0.43187389809E+01 -0.14659738406E+04  0.14698397033E+04  0.10007563225E+03 0.  0.
        -13    1    4    4    0    0  0.24359580319E+02  0.37812088535E+02 -0.12612912338E+04  0.12620929962E+04  0.10566000000E+00 0. -1.
         13    1    4    4    0    0  0.11912565627E+02 -0.33493349554E+02 -0.20468260671E+03  0.20774670717E+03  0.10566000000E+00 0.  1.
    9000005    1    3    3    0    0 -0.23261805559E+02 -0.26266250334E+02 -0.56815673634E+02  0.66783592857E+02  0.10000000000E+01 0.  0.
    9000005    1    3    3    0    0 -0.13010340387E+02  0.21947511353E+02 -0.75327842823E+03  0.75371105382E+03  0.10000000000E+01 0.  0.
<mgrwt>
<rscale>  0 0.12385030E+03</rscale>
<asrwt>0</asrwt>
<pdfrwt beam="2">  1        2 0.35126113E+00 0.13022677E+03</pdfrwt>
<pdfrwt beam="1">  1       -2 0.10974178E-02 0.13022677E+03</pdfrwt>
<totfact> 0.96546732E+03</totfact>
</mgrwt>
</event>
<event>
 8    3  0.7944584E-004  0.2536344E+03  0.7818608E-02  0.1113335E+00
          2   -1    0    0  501    0  0.00000000000E+00  0.00000000000E+00  0.18944220892E+04  0.18944220892E+04  0.25500000000E-02 0.  1.
         -2   -1    0    0    0  501 -0.00000000000E+00 -0.00000000000E+00 -0.32794640272E+02  0.32794640371E+02  0.25500000000E-02 0. -1.
         25    2    1    2    0    0 -0.26150158742E+02  0.21913780966E+03  0.81284655540E+03  0.85149863183E+03  0.12500074780E+03 0.  0.
         23    2    1    2    0    0  0.26150158742E+02 -0.21913780966E+03  0.10487808935E+04  0.10757180977E+04  0.92319297893E+02 0.  0.
        -13    1    4    4    0    0  0.87814228869E+01 -0.12720680054E+02  0.15545954303E+02  0.21922977630E+02  0.10566000000E+00 0. -1.
         13    1    4    4    0    0  0.17368735855E+02 -0.20641712961E+03  0.10332349392E+04  0.10537951201E+04  0.10566000000E+00 0.  1.
    9000005    1    3    3    0    0 -0.63332269920E+02  0.14357653025E+03  0.39078940361E+03  0.42112059368E+03  0.10000000000E+01 0.  0.
    9000005    1    3    3    0    0  0.37182111178E+02  0.75561279417E+02  0.42205715179E+03  0.43037803814E+03  0.10000000000E+01 0.  0.
<mgrwt>
<rscale>  0 0.24995235E+03</rscale>
<asrwt>0</asrwt>
<pdfrwt beam="1">  1        2 0.29144967E+00 0.25363438E+03</pdfrwt>
<pdfrwt beam="2">  1       -2 0.50453273E-02 0.25363438E+03</pdfrwt>
<totfact> 0.16322867E+03</totfact>
</mgrwt>
</event>
<event>
 8    3  0.7944584E-004  0.1294175E+03  0.7818608E-02  0.1241995E+00
          2   -1    0    0  501    0  0.00000000000E+00  0.00000000000E+00  0.24392483232E+04  0.24392483232E+04  0.25500000000E-02 0. -1.
         -2   -1    0    0    0  501 -0.00000000000E+00 -0.00000000000E+00 -0.55597906293E+01  0.55597912141E+01  0.25500000000E-02 0.  1.
         25    2    1    2    0    0  0.22148670111E+02 -0.25168982018E+02  0.11122384533E+04  0.11197425038E+04  0.12499942656E+03 0.  0.
         23    2    1    2    0    0 -0.22148670111E+02  0.25168982018E+02  0.13214500793E+04  0.13250656106E+04  0.91894064597E+02 0.  0.
        -13    1    4    4    0    0 -0.17735582628E+02  0.12523527453E+02  0.64731814490E+02  0.68275973828E+02  0.10566000000E+00 0.  1.
         13    1    4    4    0    0 -0.44130874832E+01  0.12645454565E+02  0.12567182648E+04  0.12567896368E+04  0.10566000000E+00 0. -1.
    9000005    1    3    3    0    0 -0.39204650460E+02 -0.47040977735E+01  0.79479471179E+03  0.79577557580E+03  0.10000000000E+01 0.  0.
    9000005    1    3    3    0    0  0.61353320571E+02 -0.20464884244E+02  0.31744374153E+03  0.32396692804E+03  0.10000000000E+01 0.  0.
<mgrwt>
<rscale>  0 0.12067038E+03</rscale>
<asrwt>0</asrwt>
<pdfrwt beam="1">  1        2 0.37526868E+00 0.12941753E+03</pdfrwt>
<pdfrwt beam="2">  1       -2 0.85535312E-03 0.12941753E+03</pdfrwt>
<totfact> 0.11412608E+04</totfact>
</mgrwt>
</event>
<event>
 8    3  0.7944584E-004  0.1374857E+03  0.7818608E-02  0.1229989E+00
          2   -1    0    0  501    0  0.00000000000E+00  0.00000000000E+00  0.54454091541E+03  0.54454091542E+03  0.25500000000E-02 0. -1.
         -2   -1    0    0    0  501 -0.00000000000E+00 -0.00000000000E+00 -0.68942210223E+02  0.68942210270E+02  0.25500000000E-02 0.  1.
         25    2    1    2    0    0 -0.57206292998E+02  0.24201080702E+01  0.11673335039E+02  0.13798040611E+03  0.12499563527E+03 0.  0.
         23    2    1    2    0    0  0.57206292998E+02 -0.24201080702E+01  0.46392537015E+03  0.47550271958E+03  0.87164616537E+02 0.  0.
        -13    1    4    4    0    0  0.32632258041E+02  0.36836369996E+02  0.14250863211E+03  0.15076638819E+03  0.10566000000E+00 0.  1.
         13    1    4    4    0    0  0.24574034956E+02 -0.39256478066E+02  0.32141673804E+03  0.32473633138E+03  0.10566000000E+00 0. -1.
    9000005    1    3    3    0    0 -0.37817029133E+02  0.62886421040E+02 -0.11737620102E+00  0.73388305749E+02  0.10000000000E+01 0.  0.
    9000005    1    3    3    0    0 -0.19389263865E+02 -0.60466312970E+02  0.11790711240E+02  0.64592100360E+02  0.10000000000E+01 0.  0.
<mgrwt>
<rscale>  0 0.12830758E+03</rscale>
<asrwt>0</asrwt>
<pdfrwt beam="1">  1        2 0.83775524E-01 0.13748573E+03</pdfrwt>
<pdfrwt beam="2">  1       -2 0.10606494E-01 0.13748573E+03</pdfrwt>
<totfact> 0.33192603E+03</totfact>
</mgrwt>
</event>
<event>
 8    3  0.7944584E-004  0.1362783E+03  0.7818608E-02  0.1229064E+00
         -2   -1    0    0    0  501 -0.00000000000E+00  0.00000000000E+00  0.48925601155E+02  0.48925601221E+02  0.25500000000E-02 0.  1.
          2   -1    0    0  501    0  0.00000000000E+00 -0.00000000000E+00 -0.30990533303E+03  0.30990533304E+03  0.25500000000E-02 0. -1.
         25    2    1    2    0    0  0.53700176972E+02  0.81386031813E+01 -0.13009406217E+03  0.18840443894E+03  0.12498728628E+03 0.  0.
         23    2    1    2    0    0 -0.53700176972E+02 -0.81386031813E+01 -0.13088566971E+03  0.17042649533E+03  0.94679384798E+02 0.  0.
        -13    1    4    4    0    0 -0.20312047636E+02  0.30776063968E+02 -0.86555011590E+01  0.37877094092E+02  0.10566000000E+00 0.  1.
         13    1    4    4    0    0 -0.33388129336E+02 -0.38914667149E+02 -0.12223016855E+03  0.13254940123E+03  0.10566000000E+00 0. -1.
    9000005    1    3    3    0    0  0.57473796439E+02  0.53193668147E+02 -0.11794038984E+03  0.14157591308E+03  0.10000000000E+01 0.  0.
    9000005    1    3    3    0    0 -0.37736194674E+01 -0.45055064966E+02 -0.12153672326E+02  0.46828525857E+02  0.10000000000E+01 0.  0.
<mgrwt>
<rscale>  0 0.12892222E+03</rscale>
<asrwt>0</asrwt>
<pdfrwt beam="2">  1        2 0.47677742E-01 0.13627827E+03</pdfrwt>
<pdfrwt beam="1">  1       -2 0.75270158E-02 0.13627827E+03</pdfrwt>
<totfact> 0.10388934E+04</totfact>
</mgrwt>
</event>
<event>
 8    3  0.7944584E-004  0.1347757E+03  0.7818608E-02  0.1233257E+00
         -2   -1    0    0    0  501 -0.00000000000E+00  0.00000000000E+00  0.25437525131E+02  0.25437525258E+02  0.25500000000E-02 0.  1.
          2   -1    0    0  501    0  0.00000000000E+00 -0.00000000000E+00 -0.59931315695E+03  0.59931315696E+03  0.25500000000E-02 0. -1.
         25    2    1    2    0    0 -0.26766984034E+02  0.42699273638E+02 -0.24064076389E+03  0.27581238663E+03  0.12499918388E+03 0.  0.
         23    2    1    2    0    0  0.26766984034E+02 -0.42699273638E+02 -0.33323486794E+03  0.34893829559E+03  0.90403304779E+02 0.  0.
        -13    1    4    4    0    0  0.51972923513E+02 -0.25015340435E+02 -0.11617910597E+03  0.12970947484E+03  0.10566000000E+00 0. -1.
         13    1    4    4    0    0 -0.25205939479E+02 -0.17683933203E+02 -0.21705576197E+03  0.21922882075E+03  0.10566000000E+00 0.  1.
    9000005    1    3    3    0    0 -0.66032029983E+02 -0.41935639765E+01 -0.16967708409E+03  0.18212393535E+03  0.10000000000E+01 0.  0.
    9000005    1    3    3    0    0  0.39265045949E+02  0.46892837615E+02 -0.70963679797E+02  0.93688451280E+02  0.10000000000E+01 0.  0.
<mgrwt>
<rscale>  0 0.12616674E+03</rscale>
<asrwt>0</asrwt>
<pdfrwt beam="2">  1        2 0.92202014E-01 0.13477572E+03</pdfrwt>
<pdfrwt beam="1">  1       -2 0.39134659E-02 0.13477572E+03</pdfrwt>
<totfact> 0.13626751E+04</totfact>
</mgrwt>
</event>
<event>
 8    3  0.7944584E-004  0.1322898E+03  0.7818608E-02  0.1237241E+00
          2   -1    0    0  501    0  0.00000000000E+00  0.00000000000E+00  0.30247575496E+03  0.30247575498E+03  0.25500000000E-02 0. -1.
         -2   -1    0    0    0  501 -0.00000000000E+00 -0.00000000000E+00 -0.73920207552E+02  0.73920207596E+02  0.25500000000E-02 0.  1.
         25    2    1    2    0    0 -0.16143359311E+01 -0.43280653070E+02  0.24083520508E+03  0.27477659550E+03  0.12499904167E+03 0.  0.
         23    2    1    2    0    0  0.16143359311E+01  0.43280653070E+02 -0.12279657670E+02  0.10161936707E+03  0.91103703330E+02 0.  0.
        -13    1    4    4    0    0 -0.99459050380E+01  0.19110966336E+02  0.38549479796E+02  0.44161336233E+02  0.10566000000E+00 0. -1.
         13    1    4    4    0    0  0.11560240969E+02  0.24169686733E+02 -0.50829137466E+02  0.57458030837E+02  0.10566000000E+00 0.  1.
    9000005    1    3    3    0    0  0.50837528091E+02  0.95720217526E+01  0.60118290539E+02  0.79317631837E+02  0.10000000000E+01 0.  0.
    9000005    1    3    3    0    0 -0.52451864022E+02 -0.52852674822E+02  0.18071691454E+03  0.19545896367E+03  0.10000000000E+01 0.  0.
<mgrwt>
<rscale>  0 0.12362043E+03</rscale>
<asrwt>0</asrwt>
<pdfrwt beam="1">  1        2 0.46534731E-01 0.13228976E+03</pdfrwt>
<pdfrwt beam="2">  1       -2 0.11372340E-01 0.13228976E+03</pdfrwt>
<totfact> 0.55847236E+03</totfact>
</mgrwt>
</event>
<event>
 8    3  0.7944584E-004  0.2484637E+03  0.7818608E-02  0.1116969E+00
          2   -1    0    0  501    0  0.00000000000E+00  0.00000000000E+00  0.17706467930E+04  0.17706467930E+04  0.25500000000E-02 0. -1.
         -2   -1    0    0    0  501 -0.00000000000E+00 -0.00000000000E+00 -0.33632516313E+02  0.33632516410E+02  0.25500000000E-02 0.  1.
         25    2    1    2    0    0 -0.43433760881E+02 -0.21029222276E+03  0.74037964160E+03  0.78095852100E+03  0.12499954912E+03 0.  0.
         23    2    1    2    0    0  0.43433760881E+02  0.21029222276E+03  0.99663463504E+03  0.10233207884E+04  0.88292296412E+02 0.  0.
        -13    1    4    4    0    0  0.41153941170E+02  0.51789530916E+02  0.18808351580E+03  0.19937708611E+03  0.10566000000E+00 0. -1.
         13    1    4    4    0    0  0.22798197116E+01  0.15850269185E+03  0.80855111924E+03  0.82394370226E+03  0.10566000000E+00 0.  1.
    9000005    1    3    3    0    0 -0.27903313073E+02 -0.21591774063E+03  0.72915022034E+03  0.76095999200E+03  0.10000000000E+01 0.  0.
    9000005    1    3    3    0    0 -0.15530447809E+02  0.56255178640E+01  0.11229421265E+02  0.19998529004E+02  0.10000000000E+01 0.  0.
<mgrwt>
<rscale>  0 0.24428716E+03</rscale>
<asrwt>0</asrwt>
<pdfrwt beam="1">  1        2 0.27240723E+00 0.24846368E+03</pdfrwt>
<pdfrwt beam="2">  1       -2 0.51742327E-02 0.24846368E+03</pdfrwt>
<totfact> 0.18242427E+03</totfact>
</mgrwt>
</event>
<event>
 8    3  0.7944584E-004  0.1272461E+03  0.7818608E-02  0.1250864E+00
          2   -1    0    0  501    0  0.00000000000E+00  0.00000000000E+00  0.17743992353E+04  0.17743992353E+04  0.25500000000E-02 0.  1.
         -2   -1    0    0    0  501 -0.00000000000E+00 -0.00000000000E+00 -0.65123431457E+01  0.65123436450E+01  0.25500000000E-02 0. -1.
         25    2    1    2    0    0 -0.14561042907E+02 -0.18814335637E+02  0.11593299718E+04  0.11662922215E+04  0.12500223620E+03 0.  0.
         23    2    1    2    0    0  0.14561042907E+02  0.18814335637E+02  0.60855692029E+03  0.61461935745E+03  0.82761259828E+02 0.  0.
        -13    1    4    4    0    0  0.28538431570E+02  0.38619139055E+02  0.53543861935E+03  0.53758758006E+03  0.10566000000E+00 0.  1.
         13    1    4    4    0    0 -0.13977388662E+02 -0.19804803418E+02  0.73118300932E+02  0.77031777388E+02  0.10566000000E+00 0. -1.
    9000005    1    3    3    0    0  0.52539205612E+01  0.37621723021E+02  0.13582552538E+03  0.14104102619E+03  0.10000000000E+01 0.  0.
    9000005    1    3    3    0    0 -0.19814963469E+02 -0.56436058657E+02  0.10235044465E+04  0.10252511953E+04  0.10000000000E+01 0.  0.
<mgrwt>
<rscale>  0 0.11541183E+03</rscale>
<asrwt>0</asrwt>
<pdfrwt beam="1">  1        2 0.27298457E+00 0.12724607E+03</pdfrwt>
<pdfrwt beam="2">  1       -2 0.10018987E-02 0.12724607E+03</pdfrwt>
<totfact> 0.20029129E+04</totfact>
</mgrwt>
</event>
<event>
 8    3  0.7944584E-004  0.1365294E+03  0.7818608E-02  0.1229987E+00
         -2   -1    0    0    0  501 -0.00000000000E+00  0.00000000000E+00  0.33268436980E+02  0.33268437078E+02  0.25500000000E-02 0. -1.
          2   -1    0    0  501    0  0.00000000000E+00 -0.00000000000E+00 -0.44536738111E+03  0.44536738111E+03  0.25500000000E-02 0.  1.
         25    2    1    2    0    0  0.51593739825E+02  0.18774660289E+02 -0.24533084489E+03  0.28076237206E+03  0.12500353696E+03 0.  0.
         23    2    1    2    0    0 -0.51593739825E+02 -0.18774660289E+02 -0.16676809924E+03  0.19787344614E+03  0.91257327943E+02 0.  0.
        -13    1    4    4    0    0 -0.10234698824E+02 -0.47747942194E+02 -0.46485054255E+02  0.67420223056E+02  0.10566000000E+00 0. -1.
         13    1    4    4    0    0 -0.41359041001E+02  0.28973281906E+02 -0.12028304498E+03  0.13045322308E+03  0.10566000000E+00 0.  1.
    9000005    1    3    3    0    0  0.67059374649E+02  0.39189043548E+02 -0.73198255901E+02  0.10673202673E+03  0.10000000000E+01 0.  0.
    9000005    1    3    3    0    0 -0.15465634825E+02 -0.20414383259E+02 -0.17213258898E+03  0.17403034533E+03  0.10000000000E+01 0.  0.
<mgrwt>
<rscale>  0 0.12830907E+03</rscale>
<asrwt>0</asrwt>
<pdfrwt beam="2">  1        2 0.68518055E-01 0.13652943E+03</pdfrwt>
<pdfrwt beam="1">  1       -2 0.51182214E-02 0.13652943E+03</pdfrwt>
<totfact> 0.12684019E+04</totfact>
</mgrwt>
</event>
<event>
 8    3  0.7944584E-004  0.1281971E+03  0.7818608E-02  0.1242592E+00
          2   -1    0    0  501    0  0.00000000000E+00  0.00000000000E+00  0.11681560146E+03  0.11681560148E+03  0.25500000000E-02 0. -1.
         -2   -1    0    0    0  501 -0.00000000000E+00 -0.00000000000E+00 -0.15229257998E+03  0.15229258000E+03  0.25500000000E-02 0.  1.
         25    2    1    2    0    0 -0.23878763725E+02  0.15483031497E+02 -0.89117815557E+02  0.15612972980E+03  0.12499835142E+03 0.  0.
         23    2    1    2    0    0  0.23878763725E+02 -0.15483031497E+02  0.53640837030E+02  0.11297845169E+03  0.95272616877E+02 0.  0.
        -13    1    4    4    0    0  0.41014323067E+02  0.28699388372E+02  0.38752705760E+02  0.63305710306E+02  0.10566000000E+00 0. -1.
         13    1    4    4    0    0 -0.17135559341E+02 -0.44182419869E+02  0.14888131270E+02  0.49672741380E+02  0.10566000000E+00 0.  1.
    9000005    1    3    3    0    0  0.48415691168E+02 -0.97978030927E+01 -0.21210849732E+02  0.53767799314E+02  0.10000000000E+01 0.  0.
    9000005    1    3    3    0    0 -0.72294454893E+02  0.25280834590E+02 -0.67906965825E+02  0.10236193049E+03  0.10000000000E+01 0.  0.
<mgrwt>
<rscale>  0 0.12030694E+03</rscale>
<asrwt>0</asrwt>
<pdfrwt beam="1">  1        2 0.17971631E-01 0.12819714E+03</pdfrwt>
<pdfrwt beam="2">  1       -2 0.23429628E-01 0.12819714E+03</pdfrwt>
<totfact> 0.47688861E+03</totfact>
</mgrwt>
</event>
<event>
 8    3  0.7944584E-004  0.1456684E+03  0.7818608E-02  0.1215926E+00
         -2   -1    0    0    0  501 -0.00000000000E+00  0.00000000000E+00  0.55067428100E+02  0.55067428159E+02  0.25500000000E-02 0. -1.
          2   -1    0    0  501    0  0.00000000000E+00 -0.00000000000E+00 -0.35330151211E+03  0.35330151212E+03  0.25500000000E-02 0.  1.
         25    2    1    2    0    0  0.71559895381E+02 -0.21702684908E+02 -0.96142482401E+02  0.17453551501E+03  0.12500977529E+03 0.  0.
         23    2    1    2    0    0 -0.71559895381E+02  0.21702684908E+02 -0.20209160161E+03  0.23383342527E+03  0.90803249799E+02 0.  0.
        -13    1    4    4    0    0 -0.17548453407E+02 -0.29017307249E+02 -0.11289136242E+03  0.11787460800E+03  0.10566000000E+00 0.  1.
         13    1    4    4    0    0 -0.54011441974E+02  0.50719992157E+02 -0.89200239185E+02  0.11595881727E+03  0.10566000000E+00 0. -1.
    9000005    1    3    3    0    0  0.28566419330E+02  0.50576073340E+02 -0.21065406988E+02  0.61795880764E+02  0.10000000000E+01 0.  0.
    9000005    1    3    3    0    0  0.42993476051E+02 -0.72278758248E+02 -0.75077075413E+02  0.11273963424E+03  0.10000000000E+01 0.  0.
<mgrwt>
<rscale>  0 0.13808750E+03</rscale>
<asrwt>0</asrwt>
<pdfrwt beam="2">  1        2 0.54354077E-01 0.14566835E+03</pdfrwt>
<pdfrwt beam="1">  1       -2 0.84719123E-02 0.14566835E+03</pdfrwt>
<totfact> 0.75638474E+03</totfact>
</mgrwt>
</event>
<event>
 8    3  0.7944584E-004  0.1427259E+03  0.7818608E-02  0.1220362E+00
          2   -1    0    0  501    0  0.00000000000E+00  0.00000000000E+00  0.11499200814E+03  0.11499200817E+03  0.25500000000E-02 0. -1.
         -2   -1    0    0    0  501 -0.00000000000E+00 -0.00000000000E+00 -0.16823360985E+03  0.16823360987E+03  0.25500000000E-02 0.  1.
         25    2    1    2    0    0  0.35048585109E+02 -0.59305297948E+02  0.25189260812E+02  0.14493160720E+03  0.12500060089E+03 0.  0.
         23    2    1    2    0    0 -0.35048585109E+02  0.59305297948E+02 -0.78430862519E+02  0.13829401084E+03  0.90710041104E+02 0.  0.
        -13    1    4    4    0    0  0.23874488686E+00  0.68263008637E+02 -0.75476829263E+02  0.10176766808E+03  0.10566000000E+00 0.  1.
         13    1    4    4    0    0 -0.35287329996E+02 -0.89577106892E+01 -0.29540332562E+01  0.36526342762E+02  0.10566000000E+00 0. -1.
    9000005    1    3    3    0    0 -0.71213883121E+01 -0.89816371879E+02  0.22131506783E+02  0.92781994059E+02  0.10000000000E+01 0.  0.
    9000005    1    3    3    0    0  0.42169973421E+02  0.30511073932E+02  0.30577540298E+01  0.52149613139E+02  0.10000000000E+01 0.  0.
<mgrwt>
<rscale>  0 0.13489956E+03</rscale>
<asrwt>0</asrwt>
<pdfrwt beam="1">  1        2 0.17691078E-01 0.14272586E+03</pdfrwt>
<pdfrwt beam="2">  1       -2 0.25882094E-01 0.14272586E+03</pdfrwt>
<totfact> 0.41099118E+03</totfact>
</mgrwt>
</event>
<event>
 8    3  0.7944584E-004  0.1287625E+03  0.7818608E-02  0.1242267E+00
          2   -1    0    0  501    0  0.00000000000E+00  0.00000000000E+00  0.82448499813E+02  0.82448499853E+02  0.25500000000E-02 0.  1.
         -2   -1    0    0    0  501 -0.00000000000E+00 -0.00000000000E+00 -0.15717049513E+03  0.15717049515E+03  0.25500000000E-02 0. -1.
         25    2    1    2    0    0 -0.26735953834E+02 -0.15483790320E+02 -0.46349911013E+02  0.13685063017E+03  0.12500088695E+03 0.  0.
         23    2    1    2    0    0  0.26735953834E+02  0.15483790320E+02 -0.28372084304E+02  0.10276836483E+03  0.93817922876E+02 0.  0.
        -13    1    4    4    0    0  0.15522313995E+02 -0.33622393763E+02 -0.36207858104E+02  0.51792159123E+02  0.10566000000E+00 0. -1.
         13    1    4    4    0    0  0.11213639839E+02  0.49106184082E+02  0.78357737997E+01  0.50976205711E+02  0.10566000000E+00 0.  1.
    9000005    1    3    3    0    0 -0.42476019994E+02 -0.61870375677E+02 -0.97288319502E+01  0.75682268941E+02  0.10000000000E+01 0.  0.
    9000005    1    3    3    0    0  0.15740066160E+02  0.46386585357E+02 -0.36621079063E+02  0.61168361230E+02  0.10000000000E+01 0.  0.
<mgrwt>
<rscale>  0 0.12050443E+03</rscale>
<asrwt>0</asrwt>
<pdfrwt beam="1">  1        2 0.12684385E-01 0.12876250E+03</pdfrwt>
<pdfrwt beam="2">  1       -2 0.24180076E-01 0.12876250E+03</pdfrwt>
<totfact> 0.67853360E+03</totfact>
</mgrwt>
</event>
<event>
 8    3  0.7944584E-004  0.1276239E+03  0.7818608E-02  0.1245396E+00
          2   -1    0    0  501    0  0.00000000000E+00  0.00000000000E+00  0.19061525030E+03  0.19061525032E+03  0.25500000000E-02 0. -1.
         -2   -1    0    0    0  501 -0.00000000000E+00 -0.00000000000E+00 -0.69370664383E+02  0.69370664430E+02  0.25500000000E-02 0.  1.
         25    2    1    2    0    0 -0.25367169899E+02  0.44220865484E+01  0.10068459666E+03  0.16255844913E+03  0.12499925288E+03 0.  0.
         23    2    1    2    0    0  0.25367169899E+02 -0.44220865484E+01  0.20559989262E+02  0.97427465620E+02  0.91686148030E+02 0.  0.
        -13    1    4    4    0    0  0.20926295497E+02 -0.30826932233E+02 -0.24797427831E+02  0.44756375917E+02  0.10566000000E+00 0.  1.
         13    1    4    4    0    0  0.44408744014E+01  0.26404845685E+02  0.45357417093E+02  0.52671089703E+02  0.10566000000E+00 0. -1.
    9000005    1    3    3    0    0  0.10147955553E+02  0.59207653566E+02  0.63491999634E+02  0.87411448108E+02  0.10000000000E+01 0.  0.
    9000005    1    3    3    0    0 -0.35515125452E+02 -0.54785567018E+02  0.37192597023E+02  0.75147001022E+02  0.10000000000E+01 0.  0.
<mgrwt>
<rscale>  0 0.11861683E+03</rscale>
<asrwt>0</asrwt>
<pdfrwt beam="1">  1        2 0.29325423E-01 0.12762391E+03</pdfrwt>
<pdfrwt beam="2">  1       -2 0.10672410E-01 0.12762391E+03</pdfrwt>
<totfact> 0.10083249E+04</totfact>
</mgrwt>
</event>
<event>
 8    3  0.7944584E-004  0.1268040E+03  0.7818608E-02  0.1246248E+00
          2   -1    0    0  501    0  0.00000000000E+00  0.00000000000E+00  0.20361586889E+03  0.20361586891E+03  0.25500000000E-02 0. -1.
         -2   -1    0    0    0  501 -0.00000000000E+00 -0.00000000000E+00 -0.60752927669E+02  0.60752927723E+02  0.25500000000E-02 0.  1.
         25    2    1    2    0    0  0.78903246818E+01 -0.19813681456E+02  0.75999793510E+02  0.14783512961E+03  0.12499767092E+03 0.  0.
         23    2    1    2    0    0 -0.78903246818E+01  0.19813681456E+02  0.66863147711E+02  0.11653366702E+03  0.93029972757E+02 0.  0.
        -13    1    4    4    0    0  0.22674454077E+02  0.19011451906E+01 -0.15054496901E+02  0.27283589605E+02  0.10566000000E+00 0.  1.
         13    1    4    4    0    0 -0.30564778759E+02  0.17912536266E+02  0.81917644612E+02  0.89250077417E+02  0.10566000000E+00 0. -1.
    9000005    1    3    3    0    0 -0.28914827193E+02  0.42406964146E+02  0.48072533617E+02  0.70330550460E+02  0.10000000000E+01 0.  0.
    9000005    1    3    3    0    0  0.36805151875E+02 -0.62220645602E+02  0.27927259893E+02  0.77504579147E+02  0.10000000000E+01 0.  0.
<mgrwt>
<rscale>  0 0.11810983E+03</rscale>
<asrwt>0</asrwt>
<pdfrwt beam="1">  1        2 0.31325518E-01 0.12680401E+03</pdfrwt>
<pdfrwt beam="2">  1       -2 0.93466043E-02 0.12680401E+03</pdfrwt>
<totfact> 0.11555565E+04</totfact>
</mgrwt>
</event>
<event>
 8    3  0.7944584E-004  0.1339744E+03  0.7818608E-02  0.1234493E+00
          2   -1    0    0  501    0  0.00000000000E+00  0.00000000000E+00  0.72448981542E+03  0.72448981542E+03  0.25500000000E-02 0. -1.
         -2   -1    0    0    0  501 -0.00000000000E+00 -0.00000000000E+00 -0.20013795601E+02  0.20013795764E+02  0.25500000000E-02 0.  1.
         25    2    1    2    0    0  0.18167992974E+02 -0.44657795000E+02  0.32913680421E+03  0.35535921889E+03  0.12499897576E+03 0.  0.
         23    2    1    2    0    0 -0.18167992974E+02  0.44657795000E+02  0.37533921560E+03  0.38914439229E+03  0.90716242545E+02 0.  0.
        -13    1    4    4    0    0 -0.19401429815E+02  0.70887943017E+02  0.31275549722E+03  0.32127484830E+03  0.10566000000E+00 0.  1.
         13    1    4    4    0    0  0.12334368412E+01 -0.26230148017E+02  0.62583718379E+02  0.67869543992E+02  0.10566000000E+00 0. -1.
    9000005    1    3    3    0    0 -0.50859559477E+02  0.14918702683E+01  0.12948236300E+03  0.13912441481E+03  0.10000000000E+01 0.  0.
    9000005    1    3    3    0    0  0.69027552451E+02 -0.46149665268E+02  0.19965444121E+03  0.21623480408E+03  0.10000000000E+01 0.  0.
<mgrwt>
<rscale>  0 0.12536971E+03</rscale>
<asrwt>0</asrwt>
<pdfrwt beam="1">  1        2 0.11145994E+00 0.13397440E+03</pdfrwt>
<pdfrwt beam="2">  1       -2 0.30790465E-02 0.13397440E+03</pdfrwt>
<totfact> 0.15558053E+04</totfact>
</mgrwt>
</event>
<event>
 8    3  0.7944584E-004  0.1254455E+03  0.7818608E-02  0.1249693E+00
          2   -1    0    0  501    0  0.00000000000E+00  0.00000000000E+00  0.13219816802E+04  0.13219816803E+04  0.25500000000E-02 0. -1.
         -2   -1    0    0    0  501 -0.00000000000E+00 -0.00000000000E+00 -0.10494860984E+02  0.10494861294E+02  0.25500000000E-02 0.  1.
         25    2    1    2    0    0  0.79145380787E+01 -0.70689155357E+01  0.48796628971E+03  0.50383298219E+03  0.12499585821E+03 0.  0.
         23    2    1    2    0    0 -0.79145380787E+01  0.70689155357E+01  0.82352052956E+03  0.82864355936E+03  0.91386412462E+02 0.  0.
        -13    1    4    4    0    0 -0.14540210715E+02  0.21908045221E+02  0.79770737065E+03  0.79814061451E+03  0.10566000000E+00 0. -1.
         13    1    4    4    0    0  0.66256726363E+01 -0.14839129685E+02  0.25813158906E+02  0.30502944849E+02  0.10566000000E+00 0.  1.
    9000005    1    3    3    0    0  0.24497429376E+02 -0.40227476159E+02  0.44321209888E+03  0.44570880458E+03  0.10000000000E+01 0.  0.
    9000005    1    3    3    0    0 -0.16582891298E+02  0.33158560623E+02  0.44754190830E+02  0.58124177613E+02  0.10000000000E+01 0.  0.
<mgrwt>
<rscale>  0 0.11608840E+03</rscale>
<asrwt>0</asrwt>
<pdfrwt beam="1">  1        2 0.20338172E+00 0.12544550E+03</pdfrwt>
<pdfrwt beam="2">  1       -2 0.16145946E-02 0.12544550E+03</pdfrwt>
<totfact> 0.17316233E+04</totfact>
</mgrwt>
</event>
<event>
 8    3  0.7944584E-004  0.1315125E+03  0.7818608E-02  0.1239503E+00
         -2   -1    0    0    0  501 -0.00000000000E+00  0.00000000000E+00  0.94675316306E+01  0.94675319740E+01  0.25500000000E-02 0.  1.
          2   -1    0    0  501    0  0.00000000000E+00 -0.00000000000E+00 -0.14278918973E+04  0.14278918973E+04  0.25500000000E-02 0. -1.
         25    2    1    2    0    0  0.38995809717E+02  0.12226430483E+02 -0.69656971823E+03  0.70887581112E+03  0.12500153781E+03 0.  0.
         23    2    1    2    0    0 -0.38995809717E+02 -0.12226430483E+02 -0.72185464743E+03  0.72848361815E+03  0.89129630974E+02 0.  0.
        -13    1    4    4    0    0 -0.64508003712E+02  0.17986221633E+01 -0.38478025300E+03  0.39015429236E+03  0.10566000000E+00 0. -1.
         13    1    4    4    0    0  0.25512193995E+02 -0.14025052646E+02 -0.33707439444E+03  0.33832932579E+03  0.10566000000E+00 0.  1.
    9000005    1    3    3    0    0  0.39260121762E+02 -0.51992624320E+02 -0.28722439272E+03  0.29452239629E+03  0.10000000000E+01 0.  0.
    9000005    1    3    3    0    0 -0.26431204554E+00  0.64219054802E+02 -0.40934532551E+03  0.41435341483E+03  0.10000000000E+01 0.  0.
<mgrwt>
<rscale>  0 0.12220522E+03</rscale>
<asrwt>0</asrwt>
<pdfrwt beam="2">  1        2 0.21967551E+00 0.13151252E+03</pdfrwt>
<pdfrwt beam="1">  1       -2 0.14565445E-02 0.13151252E+03</pdfrwt>
<totfact> 0.17703908E+04</totfact>
</mgrwt>
</event>
<event>
 8    3  0.7944584E-004  0.1806177E+03  0.7818608E-02  0.1172024E+00
         -2   -1    0    0    0  501 -0.00000000000E+00  0.00000000000E+00  0.34756914325E+02  0.34756914419E+02  0.25500000000E-02 0.  1.
          2   -1    0    0  501    0  0.00000000000E+00 -0.00000000000E+00 -0.84330210354E+03  0.84330210354E+03  0.25500000000E-02 0. -1.
         25    2    1    2    0    0  0.12746423532E+03 -0.27359278810E+02 -0.42084249168E+03  0.45796416226E+03  0.12500843846E+03 0.  0.
         23    2    1    2    0    0 -0.12746423532E+03  0.27359278810E+02 -0.38770269754E+03  0.42009485571E+03  0.95763483071E+02 0.  0.
        -13    1    4    4    0    0 -0.31312930379E+02  0.18752319764E+02 -0.24563735544E+03  0.24833419148E+03  0.10566000000E+00 0. -1.
         13    1    4    4    0    0 -0.96151304946E+02  0.86069590460E+01 -0.14206534209E+03  0.17176066422E+03  0.10566000000E+00 0.  1.
    9000005    1    3    3    0    0  0.12736201643E+02 -0.36625980775E+02 -0.26029763340E+02  0.46714257776E+02  0.10000000000E+01 0.  0.
    9000005    1    3    3    0    0  0.11472803368E+03  0.92667019648E+01 -0.39481272834E+03  0.41124990448E+03  0.10000000000E+01 0.  0.
<mgrwt>
<rscale>  0 0.17570662E+03</rscale>
<asrwt>0</asrwt>
<pdfrwt beam="2">  1        2 0.12973877E+00 0.18061775E+03</pdfrwt>
<pdfrwt beam="1">  1       -2 0.53472182E-02 0.18061775E+03</pdfrwt>
<totfact> 0.57496376E+03</totfact>
</mgrwt>
</event>
<event>
 8    3  0.7944584E-004  0.1376990E+03  0.7818608E-02  0.1229688E+00
         -2   -1    0    0    0  501 -0.00000000000E+00  0.00000000000E+00  0.10331314032E+02  0.10331314346E+02  0.25500000000E-02 0. -1.
          2   -1    0    0  501    0  0.00000000000E+00 -0.00000000000E+00 -0.16014955943E+04  0.16014955943E+04  0.25500000000E-02 0.  1.
         25    2    1    2    0    0  0.52590677657E+02  0.23850240298E+02 -0.11621901263E+04  0.11703191491E+04  0.12500563065E+03 0.  0.
         23    2    1    2    0    0 -0.52590677657E+02 -0.23850240298E+02 -0.42897415393E+03  0.44150775953E+03  0.87038288399E+02 0.  0.
        -13    1    4    4    0    0 -0.16785211632E+01 -0.32319324729E+01 -0.31466417382E+03  0.31468526541E+03  0.10566000000E+00 0.  1.
         13    1    4    4    0    0 -0.50912156494E+02 -0.20618307825E+02 -0.11430998011E+03  0.12682249411E+03  0.10566000000E+00 0. -1.
    9000005    1    3    3    0    0 -0.41438381280E+02  0.72304505171E+01 -0.33238360002E+03  0.33503623150E+03  0.10000000000E+01 0.  0.
    9000005    1    3    3    0    0  0.94029058937E+02  0.16619789781E+02 -0.82980652630E+03  0.83528291760E+03  0.10000000000E+01 0.  0.
<mgrwt>
<rscale>  0 0.12850725E+03</rscale>
<asrwt>0</asrwt>
<pdfrwt beam="2">  1        2 0.24638374E+00 0.13769902E+03</pdfrwt>
<pdfrwt beam="1">  1       -2 0.15894342E-02 0.13769902E+03</pdfrwt>
<totfact> 0.12710718E+04</totfact>
</mgrwt>
</event>
<event>
 8    3  0.7944584E-004  0.1279450E+03  0.7818608E-02  0.1251438E+00
          2   -1    0    0  501    0  0.00000000000E+00  0.00000000000E+00  0.18662198465E+04  0.18662198465E+04  0.25500000000E-02 0. -1.
         -2   -1    0    0    0  501 -0.00000000000E+00 -0.00000000000E+00 -0.62222740543E+01  0.62222745769E+01  0.25500000000E-02 0.  1.
         25    2    1    2    0    0  0.26957802996E+02  0.43140405755E+01  0.12892942157E+04  0.12956270704E+04  0.12499838734E+03 0.  0.
         23    2    1    2    0    0 -0.26957802996E+02 -0.43140405755E+01  0.57070335677E+03  0.57681505070E+03  0.79170368170E+02 0.  0.
        -13    1    4    4    0    0 -0.28841712610E+02  0.24289794636E+02  0.13492834773E+03  0.14009821089E+03  0.10566000000E+00 0.  1.
         13    1    4    4    0    0  0.18839096134E+01 -0.28603835211E+02  0.43577500904E+03  0.43671683981E+03  0.10566000000E+00 0. -1.
    9000005    1    3    3    0    0  0.47422390290E+02 -0.23797834212E+02  0.24178040602E+03  0.24753582518E+03  0.10000000000E+01 0.  0.
    9000005    1    3    3    0    0 -0.20464587293E+02  0.28111874788E+02  0.10475138097E+04  0.10480912452E+04  0.10000000000E+01 0.  0.
<mgrwt>
<rscale>  0 0.11508209E+03</rscale>
<asrwt>0</asrwt>
<pdfrwt beam="1">  1        2 0.28711090E+00 0.12794503E+03</pdfrwt>
<pdfrwt beam="2">  1       -2 0.95727246E-03 0.12794503E+03</pdfrwt>
<totfact> 0.19199264E+04</totfact>
</mgrwt>
</event>
<event>
 8    3  0.7944584E-004  0.1367644E+03  0.7818608E-02  0.1227450E+00
          2   -1    0    0  501    0  0.00000000000E+00  0.00000000000E+00  0.28775746121E+02  0.28775746234E+02  0.25500000000E-02 0. -1.
         -2   -1    0    0    0  501 -0.00000000000E+00 -0.00000000000E+00 -0.55119622188E+03  0.55119622189E+03  0.25500000000E-02 0.  1.
         25    2    1    2    0    0 -0.32921551894E+02  0.44676718892E+02 -0.33451484098E+03  0.36139269940E+03  0.12499866619E+03 0.  0.
         23    2    1    2    0    0  0.32921551894E+02 -0.44676718892E+02 -0.18790563478E+03  0.21857926872E+03  0.96894434024E+02 0.  0.
        -13    1    4    4    0    0  0.31782368883E+02  0.23150423577E+02 -0.41215927025E+02  0.56963364439E+02  0.10566000000E+00 0. -1.
         13    1    4    4    0    0  0.11391830104E+01 -0.67827142469E+02 -0.14668970775E+03  0.16161590429E+03  0.10566000000E+00 0.  1.
    9000005    1    3    3    0    0 -0.10472348857E+02  0.75021579714E+01  0.86114780584E+01  0.15527717770E+02  0.10000000000E+01 0.  0.
    9000005    1    3    3    0    0 -0.22449203037E+02  0.37174560921E+02 -0.34312631904E+03  0.34586498162E+03  0.10000000000E+01 0.  0.
<mgrwt>
<rscale>  0 0.13000380E+03</rscale>
<asrwt>0</asrwt>
<pdfrwt beam="1">  1        2 0.44270383E-02 0.13676441E+03</pdfrwt>
<pdfrwt beam="2">  1       -2 0.84799411E-01 0.13676441E+03</pdfrwt>
<totfact> 0.22196857E+03</totfact>
</mgrwt>
</event>
<event>
 8    3  0.7944584E-004  0.1747024E+03  0.7818608E-02  0.1179087E+00
          2   -1    0    0  501    0  0.00000000000E+00  0.00000000000E+00  0.25024788114E+02  0.25024788244E+02  0.25500000000E-02 0. -1.
         -2   -1    0    0    0  501 -0.00000000000E+00 -0.00000000000E+00 -0.11813761186E+04  0.11813761186E+04  0.25500000000E-02 0.  1.
         25    2    1    2    0    0 -0.11893663740E+03  0.27334417798E+02 -0.42782437426E+03  0.46211970690E+03  0.12501133620E+03 0.  0.
         23    2    1    2    0    0  0.11893663740E+03 -0.27334417798E+02 -0.72852695622E+03  0.74428119995E+03  0.91158568124E+02 0.  0.
        -13    1    4    4    0    0  0.74423130070E+02  0.28331365644E+01 -0.60487625052E+03  0.60944410618E+03  0.10566000000E+00 0. -1.
         13    1    4    4    0    0  0.44513507325E+02 -0.30167554363E+02 -0.12365070570E+03  0.13483709376E+03  0.10566000000E+00 0.  1.
    9000005    1    3    3    0    0 -0.14331226649E+03  0.36426461187E+02 -0.34664032520E+03  0.37686311555E+03  0.10000000000E+01 0.  0.
    9000005    1    3    3    0    0  0.24375629100E+02 -0.90920433889E+01 -0.81184049059E+02  0.85256591350E+02  0.10000000000E+01 0.  0.
<mgrwt>
<rscale>  0 0.16881737E+03</rscale>
<asrwt>0</asrwt>
<pdfrwt beam="1">  1        2 0.38499683E-02 0.17470240E+03</pdfrwt>
<pdfrwt beam="2">  1       -2 0.18175013E+00 0.17470240E+03</pdfrwt>
<totfact> 0.41820283E+02</totfact>
</mgrwt>
</event>
<event>
 8    3  0.7944584E-004  0.2017115E+03  0.7818608E-02  0.1152390E+00
          2   -1    0    0  501    0  0.00000000000E+00  0.00000000000E+00  0.29759012812E+03  0.29759012813E+03  0.25500000000E-02 0.  1.
         -2   -1    0    0    0  501 -0.00000000000E+00 -0.00000000000E+00 -0.12473909283E+03  0.12473909285E+03  0.25500000000E-02 0. -1.
         25    2    1    2    0    0 -0.59488146091E+02 -0.14671016789E+03  0.10153095971E+03  0.22582311809E+03  0.12499932799E+03 0.  0.
         23    2    1    2    0    0  0.59488146091E+02  0.14671016789E+03  0.71320075578E+02  0.19650610289E+03  0.92007512767E+02 0.  0.
        -13    1    4    4    0    0  0.57545707904E+02  0.37549317804E+02  0.50711720568E+02  0.85399938716E+02  0.10566000000E+00 0.  1.
         13    1    4    4    0    0  0.19424381876E+01  0.10916085009E+03  0.20608355009E+02  0.11110616418E+03  0.10566000000E+00 0. -1.
    9000005    1    3    3    0    0 -0.78345347743E+02 -0.31022252093E+02  0.37246572045E+02  0.92134036963E+02  0.10000000000E+01 0.  0.
    9000005    1    3    3    0    0  0.18857201652E+02 -0.11568791580E+03  0.64284387669E+02  0.13368908113E+03  0.10000000000E+01 0.  0.
<mgrwt>
<rscale>  0 0.19689023E+03</rscale>
<asrwt>0</asrwt>
<pdfrwt beam="1">  1        2 0.45783096E-01 0.20171154E+03</pdfrwt>
<pdfrwt beam="2">  1       -2 0.19190630E-01 0.20171154E+03</pdfrwt>
<totfact> 0.24576757E+03</totfact>
</mgrwt>
</event>
<event>
 8    3  0.7944584E-004  0.1484653E+03  0.7818608E-02  0.1210121E+00
          2   -1    0    0  501    0  0.00000000000E+00  0.00000000000E+00  0.52759009946E+03  0.52759009947E+03  0.25500000000E-02 0. -1.
         -2   -1    0    0    0  501 -0.00000000000E+00 -0.00000000000E+00 -0.43565960382E+02  0.43565960457E+02  0.25500000000E-02 0.  1.
         25    2    1    2    0    0  0.15080162069E+02  0.78670562226E+02  0.13679429343E+03  0.20187773139E+03  0.12500188426E+03 0.  0.
         23    2    1    2    0    0 -0.15080162069E+02 -0.78670562226E+02  0.34722984566E+03  0.36927832854E+03  0.96857883336E+02 0.  0.
        -13    1    4    4    0    0 -0.16039008329E+02 -0.13508312687E+02  0.25764539303E+03  0.25849735785E+03  0.10566000000E+00 0. -1.
         13    1    4    4    0    0  0.95884625992E+00 -0.65162249538E+02  0.89584452626E+02  0.11078097069E+03  0.10566000000E+00 0.  1.
    9000005    1    3    3    0    0 -0.30450034945E+02 -0.70860562134E+01  0.87622191167E+02  0.93037977223E+02  0.10000000000E+01 0.  0.
    9000005    1    3    3    0    0  0.45530197015E+02  0.85756618439E+02  0.49172102258E+02  0.10883975417E+03  0.10000000000E+01 0.  0.
<mgrwt>
<rscale>  0 0.14241104E+03</rscale>
<asrwt>0</asrwt>
<pdfrwt beam="1">  1        2 0.81167708E-01 0.14846528E+03</pdfrwt>
<pdfrwt beam="2">  1       -2 0.67024554E-02 0.14846528E+03</pdfrwt>
<totfact> 0.70391143E+03</totfact>
</mgrwt>
</event>
<event>
 8    3  0.7944584E-004  0.1287688E+03  0.7818608E-02  0.1242861E+00
          2   -1    0    0  501    0  0.00000000000E+00  0.00000000000E+00  0.36551395325E+03  0.36551395326E+03  0.25500000000E-02 0. -1.
         -2   -1    0    0    0  501 -0.00000000000E+00 -0.00000000000E+00 -0.35486567636E+02  0.35486567728E+02  0.25500000000E-02 0.  1.
         25    2    1    2    0    0 -0.67554907679E+01  0.30185800619E+02  0.20967421112E+03  0.24605828819E+03  0.12499834864E+03 0.  0.
         23    2    1    2    0    0  0.67554907679E+01 -0.30185800619E+02  0.12035317449E+03  0.15494223280E+03  0.92549390488E+02 0.  0.
        -13    1    4    4    0    0 -0.15583111832E+02  0.59355032358E+01 -0.88917093394E+01  0.18898074824E+02  0.10566000000E+00 0.  1.
         13    1    4    4    0    0  0.22338602600E+02 -0.36121303855E+02  0.12924488383E+03  0.13604415797E+03  0.10566000000E+00 0. -1.
    9000005    1    3    3    0    0 -0.15598053964E+02  0.65563590060E+02  0.19572027940E+03  0.20700075217E+03  0.10000000000E+01 0.  0.
    9000005    1    3    3    0    0  0.88425631965E+01 -0.35377789441E+02  0.13953931722E+02  0.39057536022E+02  0.10000000000E+01 0.  0.
<mgrwt>
<rscale>  0 0.12014348E+03</rscale>
<asrwt>0</asrwt>
<pdfrwt beam="1">  1        2 0.56232920E-01 0.12876881E+03</pdfrwt>
<pdfrwt beam="2">  1       -2 0.54594716E-02 0.12876881E+03</pdfrwt>
<totfact> 0.14152285E+04</totfact>
</mgrwt>
</event>
<event>
 8    3  0.7944584E-004  0.1326682E+03  0.7818608E-02  0.1240706E+00
          2   -1    0    0  501    0  0.00000000000E+00  0.00000000000E+00  0.14021958448E+04  0.14021958448E+04  0.25500000000E-02 0.  1.
         -2   -1    0    0    0  501 -0.00000000000E+00 -0.00000000000E+00 -0.13132632376E+02  0.13132632624E+02  0.25500000000E-02 0. -1.
         25    2    1    2    0    0  0.36153209971E+02 -0.25817233413E+02  0.39042667713E+03  0.41235161424E+03  0.12500911734E+03 0.  0.
         23    2    1    2    0    0 -0.36153209971E+02  0.25817233413E+02  0.99863653528E+03  0.10029768632E+04  0.81939455302E+02 0.  0.
        -13    1    4    4    0    0 -0.44438913483E+02  0.48450336507E+02  0.83375191894E+03  0.83633995817E+03  0.10566000000E+00 0. -1.
         13    1    4    4    0    0  0.82857035122E+01 -0.22633103094E+02  0.16488461634E+03  0.16663690500E+03  0.10566000000E+00 0.  1.
    9000005    1    3    3    0    0  0.67146372963E+02  0.25808867657E+02  0.23025017768E+03  0.24122785365E+03  0.10000000000E+01 0.  0.
    9000005    1    3    3    0    0 -0.30993162992E+02 -0.51626101070E+02  0.16017649945E+03  0.17112376059E+03  0.10000000000E+01 0.  0.
<mgrwt>
<rscale>  0 0.12146134E+03</rscale>
<asrwt>0</asrwt>
<pdfrwt beam="1">  1        2 0.21572250E+00 0.13266825E+03</pdfrwt>
<pdfrwt beam="2">  1       -2 0.20204044E-02 0.13266825E+03</pdfrwt>
<totfact> 0.11386733E+04</totfact>
</mgrwt>
</event>
<event>
 8    3  0.7944584E-004  0.1268245E+03  0.7818608E-02  0.1244337E+00
         -2   -1    0    0    0  501 -0.00000000000E+00  0.00000000000E+00  0.51465091274E+02  0.51465091337E+02  0.25500000000E-02 0.  1.
          2   -1    0    0  501    0  0.00000000000E+00 -0.00000000000E+00 -0.24913413622E+03  0.24913413623E+03  0.25500000000E-02 0. -1.
         25    2    1    2    0    0 -0.21422731658E+02  0.72429697839E+00 -0.12081847784E+03  0.17516148665E+03  0.12499993512E+03 0.  0.
         23    2    1    2    0    0  0.21422731658E+02 -0.72429697839E+00 -0.76850567103E+02  0.12543774092E+03  0.96794416910E+02 0.  0.
        -13    1    4    4    0    0  0.44835587731E+02  0.21283534933E+02 -0.91068269011E+01  0.50459530781E+02  0.10566000000E+00 0.  1.
         13    1    4    4    0    0 -0.23412856073E+02 -0.22007831911E+02 -0.67743740202E+02  0.74978210138E+02  0.10566000000E+00 0. -1.
    9000005    1    3    3    0    0  0.10754712131E+02 -0.55875493185E+02 -0.32832529304E+02  0.65701670848E+02  0.10000000000E+01 0.  0.
    9000005    1    3    3    0    0 -0.32177443789E+02  0.56599790164E+02 -0.87985948536E+02  0.10945981580E+03  0.10000000000E+01 0.  0.
<mgrwt>
<rscale>  0 0.11925149E+03</rscale>
<asrwt>0</asrwt>
<pdfrwt beam="2">  1        2 0.38328328E-01 0.12682445E+03</pdfrwt>
<pdfrwt beam="1">  1       -2 0.79177065E-02 0.12682445E+03</pdfrwt>
<totfact> 0.12043276E+04</totfact>
</mgrwt>
</event>
<event>
 8    3  0.7944584E-004  0.1404351E+03  0.7818608E-02  0.1223781E+00
         -2   -1    0    0    0  501 -0.00000000000E+00  0.00000000000E+00  0.25965604341E+02  0.25965604466E+02  0.25500000000E-02 0.  1.
          2   -1    0    0  501    0  0.00000000000E+00 -0.00000000000E+00 -0.61212142922E+03  0.61212142922E+03  0.25500000000E-02 0. -1.
         25    2    1    2    0    0  0.52685904445E+02 -0.36334199520E+02 -0.34466138924E+03  0.37217398961E+03  0.12500410683E+03 0.  0.
         23    2    1    2    0    0 -0.52685904445E+02  0.36334199520E+02 -0.24149443564E+03  0.26591304408E+03  0.91072531470E+02 0.  0.
        -13    1    4    4    0    0  0.25525681183E+02  0.99749084874E+01 -0.43606579322E+02  0.51503437976E+02  0.10566000000E+00 0.  1.
         13    1    4    4    0    0 -0.78211585628E+02  0.26359291032E+02 -0.19788785632E+03  0.21440960611E+03  0.10566000000E+00 0. -1.
    9000005    1    3    3    0    0  0.93568978792E+01 -0.57387876536E+02 -0.30283667222E+03  0.30836985902E+03  0.10000000000E+01 0.  0.
    9000005    1    3    3    0    0  0.43329006566E+02  0.21053677016E+02 -0.41824717020E+02  0.63804130585E+02  0.10000000000E+01 0.  0.
<mgrwt>
<rscale>  0 0.13250778E+03</rscale>
<asrwt>0</asrwt>
<pdfrwt beam="2">  1        2 0.94172517E-01 0.14043506E+03</pdfrwt>
<pdfrwt beam="1">  1       -2 0.39947088E-02 0.14043506E+03</pdfrwt>
<totfact> 0.12940114E+04</totfact>
</mgrwt>
</event>
<event>
 8    3  0.7944584E-004  0.1319707E+03  0.7818608E-02  0.1239163E+00
          2   -1    0    0  501    0  0.00000000000E+00  0.00000000000E+00  0.27360203701E+04  0.27360203701E+04  0.25500000000E-02 0. -1.
         -2   -1    0    0    0  501 -0.00000000000E+00 -0.00000000000E+00 -0.56484820546E+01  0.56484826302E+01  0.25500000000E-02 0.  1.
         25    2    1    2    0    0  0.24545208374E+02  0.34464719534E+02  0.20589287312E+04  0.20631538447E+04  0.12500393083E+03 0.  0.
         23    2    1    2    0    0 -0.24545208374E+02 -0.34464719534E+02  0.67144315687E+03  0.67851500802E+03  0.88070534575E+02 0.  0.
        -13    1    4    4    0    0 -0.13678076698E+02  0.29456861578E+02  0.19637939012E+03  0.19904691031E+03  0.10566000000E+00 0. -1.
         13    1    4    4    0    0 -0.10867131677E+02 -0.63921581113E+02  0.47506376675E+03  0.47946809772E+03  0.10566000000E+00 0.  1.
    9000005    1    3    3    0    0  0.36007206401E-01  0.78730570696E+02  0.14445756360E+04  0.14467198319E+04  0.10000000000E+01 0.  0.
    9000005    1    3    3    0    0  0.24509201168E+02 -0.44265851161E+02  0.61435309523E+03  0.61643401281E+03  0.10000000000E+01 0.  0.
<mgrwt>
<rscale>  0 0.12241646E+03</rscale>
<asrwt>0</asrwt>
<pdfrwt beam="1">  1        2 0.42092533E+00 0.13197070E+03</pdfrwt>
<pdfrwt beam="2">  1       -2 0.86899909E-03 0.13197070E+03</pdfrwt>
<totfact> 0.77193589E+03</totfact>
</mgrwt>
</event>
<event>
 8    3  0.7944584E-004  0.1308281E+03  0.7818608E-02  0.1239539E+00
          2   -1    0    0  501    0  0.00000000000E+00  0.00000000000E+00  0.83787503228E+02  0.83787503267E+02  0.25500000000E-02 0. -1.
         -2   -1    0    0    0  501 -0.00000000000E+00 -0.00000000000E+00 -0.16769916833E+03  0.16769916835E+03  0.25500000000E-02 0.  1.
         25    2    1    2    0    0  0.19608001683E+02 -0.33292320823E+02 -0.76807182440E+02  0.15170804713E+03  0.12499254352E+03 0.  0.
         23    2    1    2    0    0 -0.19608001683E+02  0.33292320823E+02 -0.71044826603E+01  0.99778624481E+02  0.91719397478E+02 0.  0.
        -13    1    4    4    0    0 -0.20235835068E+02  0.43144295155E+02  0.33331899255E+02  0.58154500233E+02  0.10566000000E+00 0. -1.
         13    1    4    4    0    0  0.62783338488E+00 -0.98519743315E+01 -0.40436381916E+02  0.41624124249E+02  0.10566000000E+00 0.  1.
    9000005    1    3    3    0    0  0.14119856721E+02  0.39574556597E+02  0.46346245294E+01  0.42284697329E+02  0.10000000000E+01 0.  0.
    9000005    1    3    3    0    0  0.54881449622E+01 -0.72866877420E+02 -0.81441806970E+02  0.10942334981E+03  0.10000000000E+01 0.  0.
<mgrwt>
<rscale>  0 0.12218255E+03</rscale>
<asrwt>0</asrwt>
<pdfrwt beam="1">  1        2 0.12890385E-01 0.13082809E+03</pdfrwt>
<pdfrwt beam="2">  1       -2 0.25799872E-01 0.13082809E+03</pdfrwt>
<totfact> 0.59516962E+03</totfact>
</mgrwt>
</event>
<event>
 8    3  0.7944584E-004  0.1374723E+03  0.7818608E-02  0.1228463E+00
          2   -1    0    0  501    0  0.00000000000E+00  0.00000000000E+00  0.87324994777E+02  0.87324994815E+02  0.25500000000E-02 0. -1.
         -2   -1    0    0    0  501 -0.00000000000E+00 -0.00000000000E+00 -0.17338791790E+03  0.17338791792E+03  0.25500000000E-02 0.  1.
         25    2    1    2    0    0  0.55920787368E+02  0.12072511931E+02 -0.59666574471E+02  0.14986238150E+03  0.12500301307E+03 0.  0.
         23    2    1    2    0    0 -0.55920787368E+02 -0.12072511931E+02 -0.26396348653E+02  0.11085053123E+03  0.91204128463E+02 0.  0.
        -13    1    4    4    0    0 -0.57565290315E+02  0.76775134361E+01  0.19172885625E+02  0.61158135753E+02  0.10566000000E+00 0. -1.
         13    1    4    4    0    0  0.16445029467E+01 -0.19750025368E+02 -0.45569234278E+02  0.49692395482E+02  0.10566000000E+00 0.  1.
    9000005    1    3    3    0    0  0.43802870404E+02 -0.34252710436E+02  0.18138790426E+02  0.58497481535E+02  0.10000000000E+01 0.  0.
    9000005    1    3    3    0    0  0.12117916964E+02  0.46325222367E+02 -0.77805364897E+02  0.91364899966E+02  0.10000000000E+01 0.  0.
<mgrwt>
<rscale>  0 0.12932332E+03</rscale>
<asrwt>0</asrwt>
<pdfrwt beam="1">  1        2 0.13434615E-01 0.13747230E+03</pdfrwt>
<pdfrwt beam="2">  1       -2 0.26675064E-01 0.13747230E+03</pdfrwt>
<totfact> 0.53619607E+03</totfact>
</mgrwt>
</event>
<event>
 8    3  0.7944584E-004  0.1717146E+03  0.7818608E-02  0.1182003E+00
          2   -1    0    0  501    0  0.00000000000E+00  0.00000000000E+00  0.10886843889E+04  0.10886843889E+04  0.25500000000E-02 0. -1.
         -2   -1    0    0    0  501 -0.00000000000E+00 -0.00000000000E+00 -0.25024363215E+02  0.25024363345E+02  0.25500000000E-02 0.  1.
         25    2    1    2    0    0 -0.81460975287E+02  0.85003031317E+02  0.68828438226E+03  0.70938091844E+03  0.12499796302E+03 0.  0.
         23    2    1    2    0    0  0.81460975287E+02 -0.85003031317E+02  0.37537564341E+03  0.40432783379E+03  0.93341939582E+02 0.  0.
        -13    1    4    4    0    0  0.60944557682E+02 -0.83637875437E+02  0.17809916458E+03  0.20598266167E+03  0.10566000000E+00 0.  1.
         13    1    4    4    0    0  0.20516417605E+02 -0.13651558803E+01  0.19727647883E+03  0.19834517213E+03  0.10566000000E+00 0. -1.
    9000005    1    3    3    0    0  0.29412982579E+02  0.44630631580E+02  0.19710532555E+03  0.20422665394E+03  0.10000000000E+01 0.  0.
    9000005    1    3    3    0    0 -0.11087395787E+03  0.40372399737E+02  0.49117905670E+03  0.50515426449E+03  0.10000000000E+01 0.  0.
<mgrwt>
<rscale>  0 0.16607595E+03</rscale>
<asrwt>0</asrwt>
<pdfrwt beam="1">  1        2 0.16748995E+00 0.17171458E+03</pdfrwt>
<pdfrwt beam="2">  1       -2 0.38499011E-02 0.17171458E+03</pdfrwt>
<totfact> 0.66387378E+03</totfact>
</mgrwt>
</event>
