<event>
 5    1  0.3259432E-002  0.1250003E+03  0.7818608E-02  0.1235069E+00
         -4   -1    0    0    0  501 -0.00000000000E+00  0.00000000000E+00  0.63242400847E+02  0.63255151291E+02  0.12700000000E+01 0. -1.
          4   -1    0    0  501    0  0.00000000000E+00 -0.00000000000E+00 -0.61741085917E+02  0.61754146340E+02  0.12700000000E+01 0. -1.
         25    2    1    2    0    0  0.00000000000E+00  0.00000000000E+00  0.15013149294E+01  0.12500929763E+03  0.12500028219E+03 0.  0.
    9000005    1    3    3    0    0  0.48267583930E+02  0.33027930056E+02  0.22767326795E+02  0.62769060783E+02  0.10000000000E+01 0.  0.
    9000005    1    3    3    0    0 -0.48267583930E+02 -0.33027930056E+02 -0.21266011866E+02  0.62240236848E+02  0.10000000000E+01 0.  0.
<mgrwt>
<rscale>  0 0.12500028E+03</rscale>
<asrwt>0</asrwt>
<pdfrwt beam="2">  1        4 0.95006141E-02 0.12500028E+03</pdfrwt>
<pdfrwt beam="1">  1       -4 0.97315856E-02 0.12500028E+03</pdfrwt>
<totfact> 0.10452594E+04</totfact>
</mgrwt>
</event>
<event>
 5    1  0.3259432E-002  0.1250012E+03  0.7818608E-02  0.1235067E+00
          4   -1    0    0  501    0  0.00000000000E+00  0.00000000000E+00  0.27255794559E+01  0.30069392030E+01  0.12700000000E+01 0. -1.
         -4   -1    0    0    0  501 -0.00000000000E+00 -0.00000000000E+00 -0.13625830653E+04  0.13625836571E+04  0.12700000000E+01 0. -1.
         25    2    1    2    0    0  0.00000000000E+00  0.00000000000E+00 -0.13598574858E+04  0.13655905963E+04  0.12500118020E+03 0.  0.
    9000005    1    3    3    0    0  0.14526569868E+02  0.59849350576E+02 -0.56412890472E+03  0.56748161833E+03  0.10000000000E+01 0.  0.
    9000005    1    3    3    0    0 -0.14526569868E+02 -0.59849350576E+02 -0.79572858111E+03  0.79810897801E+03  0.10000000000E+01 0.  0.
<mgrwt>
<rscale>  0 0.12500118E+03</rscale>
<asrwt>0</asrwt>
<pdfrwt beam="1">  1        4 0.44100959E-03 0.12500118E+03</pdfrwt>
<pdfrwt beam="2">  1       -4 0.20964934E+00 0.12500118E+03</pdfrwt>
<totfact> 0.20730777E+03</totfact>
</mgrwt>
</event>
<event>
 5    1  0.3259432E-002  0.1249570E+03  0.7818608E-02  0.1235136E+00
          4   -1    0    0  501    0  0.00000000000E+00  0.00000000000E+00  0.12645933641E+03  0.12646571340E+03  0.12700000000E+01 0.  1.
         -4   -1    0    0    0  501 -0.00000000000E+00 -0.00000000000E+00 -0.30847914442E+02  0.30874046146E+02  0.12700000000E+01 0.  1.
         25    2    1    2    0    0  0.00000000000E+00  0.00000000000E+00  0.95611421967E+02  0.15733975954E+03  0.12495701630E+03 0.  0.
    9000005    1    3    3    0    0 -0.19132128551E+02 -0.10039904601E+00 -0.27074252156E+02  0.33167205982E+02  0.10000000000E+01 0.  0.
    9000005    1    3    3    0    0  0.19132128551E+02  0.10039904601E+00  0.12268567412E+03  0.12417255356E+03  0.10000000000E+01 0.  0.
<mgrwt>
<rscale>  0 0.12495702E+03</rscale>
<asrwt>0</asrwt>
<pdfrwt beam="1">  1        4 0.19457783E-01 0.12495702E+03</pdfrwt>
<pdfrwt beam="2">  1       -4 0.47483337E-02 0.12495702E+03</pdfrwt>
<totfact> 0.97952758E+03</totfact>
</mgrwt>
</event>
<event>
 5    1  0.3259432E-002  0.1250009E+03  0.7818608E-02  0.1235068E+00
         -4   -1    0    0    0  501 -0.00000000000E+00  0.00000000000E+00  0.14275849865E+02  0.14332229044E+02  0.12700000000E+01 0. -1.
          4   -1    0    0  501    0  0.00000000000E+00 -0.00000000000E+00 -0.27303347006E+03  0.27303642371E+03  0.12700000000E+01 0. -1.
         25    2    1    2    0    0  0.00000000000E+00  0.00000000000E+00 -0.25875762020E+03  0.28736865276E+03  0.12500094631E+03 0.  0.
    9000005    1    3    3    0    0 -0.50602368504E+02  0.15957236983E+01 -0.45156191447E+02  0.67847090272E+02  0.10000000000E+01 0.  0.
    9000005    1    3    3    0    0  0.50602368504E+02 -0.15957236983E+01 -0.21360142875E+03  0.21952156249E+03  0.10000000000E+01 0.  0.
<mgrwt>
<rscale>  0 0.12500095E+03</rscale>
<asrwt>0</asrwt>
<pdfrwt beam="2">  1        4 0.42009709E-01 0.12500095E+03</pdfrwt>
<pdfrwt beam="1">  1       -4 0.22008489E-02 0.12500095E+03</pdfrwt>
<totfact> 0.77209490E+03</totfact>
</mgrwt>
</event>
<event>
 5    1  0.3259432E-002  0.1249988E+03  0.7818608E-02  0.1235071E+00
         -4   -1    0    0    0  501 -0.00000000000E+00  0.00000000000E+00  0.61958111119E+02  0.61971125804E+02  0.12700000000E+01 0.  1.
          4   -1    0    0  501    0  0.00000000000E+00 -0.00000000000E+00 -0.63019373350E+02  0.63032168910E+02  0.12700000000E+01 0.  1.
         25    2    1    2    0    0  0.00000000000E+00  0.00000000000E+00 -0.10612622314E+01  0.12500329471E+03  0.12499878964E+03 0.  0.
    9000005    1    3    3    0    0 -0.72574164148E+01 -0.54066453209E+02  0.29955265392E+02  0.62242825935E+02  0.10000000000E+01 0.  0.
    9000005    1    3    3    0    0  0.72574164148E+01  0.54066453209E+02 -0.31016527623E+02  0.62760468779E+02  0.10000000000E+01 0.  0.
<mgrwt>
<rscale>  0 0.12499879E+03</rscale>
<asrwt>0</asrwt>
<pdfrwt beam="2">  1        4 0.96972735E-02 0.12499879E+03</pdfrwt>
<pdfrwt beam="1">  1       -4 0.95340026E-02 0.12499879E+03</pdfrwt>
<totfact> 0.10453077E+04</totfact>
</mgrwt>
</event>
<event>
 5    1  0.3259432E-002  0.1249949E+03  0.7818608E-02  0.1235077E+00
         -4   -1    0    0    0  501 -0.00000000000E+00  0.00000000000E+00  0.41038108676E+03  0.41038305188E+03  0.12700000000E+01 0. -1.
          4   -1    0    0  501    0  0.00000000000E+00 -0.00000000000E+00 -0.94734491765E+01  0.95581974922E+01  0.12700000000E+01 0. -1.
         25    2    1    2    0    0  0.00000000000E+00  0.00000000000E+00  0.40090763759E+03  0.41994124938E+03  0.12499487610E+03 0.  0.
    9000005    1    3    3    0    0 -0.11877846442E+02  0.10706861730E+02 -0.24993012597E+01  0.16216245897E+02  0.10000000000E+01 0.  0.
    9000005    1    3    3    0    0  0.11877846442E+02 -0.10706861730E+02  0.40340693885E+03  0.40372500348E+03  0.10000000000E+01 0.  0.
<mgrwt>
<rscale>  0 0.12499488E+03</rscale>
<asrwt>0</asrwt>
<pdfrwt beam="2">  1        4 0.14641240E-02 0.12499488E+03</pdfrwt>
<pdfrwt beam="1">  1       -4 0.63142222E-01 0.12499488E+03</pdfrwt>
<totfact> 0.62665541E+03</totfact>
</mgrwt>
</event>
<event>
 5    1  0.3259432E-002  0.1250009E+03  0.7818608E-02  0.1235068E+00
         -4   -1    0    0    0  501 -0.00000000000E+00  0.00000000000E+00  0.42584722667E+03  0.42584912042E+03  0.12700000000E+01 0. -1.
          4   -1    0    0  501    0  0.00000000000E+00 -0.00000000000E+00 -0.91271365114E+01  0.92150703143E+01  0.12700000000E+01 0. -1.
         25    2    1    2    0    0  0.00000000000E+00  0.00000000000E+00  0.41672009016E+03  0.43506419074E+03  0.12500086607E+03 0.  0.
    9000005    1    3    3    0    0  0.50662878989E+02  0.31494417565E+02  0.14355575441E+03  0.15546022086E+03  0.10000000000E+01 0.  0.
    9000005    1    3    3    0    0 -0.50662878989E+02 -0.31494417565E+02  0.27316433575E+03  0.27960396988E+03  0.10000000000E+01 0.  0.
<mgrwt>
<rscale>  0 0.12500087E+03</rscale>
<asrwt>0</asrwt>
<pdfrwt beam="2">  1        4 0.14110847E-02 0.12500087E+03</pdfrwt>
<pdfrwt beam="1">  1       -4 0.65521867E-01 0.12500087E+03</pdfrwt>
<totfact> 0.61278449E+03</totfact>
</mgrwt>
</event>
<event>
 5    1  0.3259432E-002  0.1250131E+03  0.7818608E-02  0.1235049E+00
          4   -1    0    0  501    0  0.00000000000E+00  0.00000000000E+00  0.32280917939E+03  0.32281167760E+03  0.12700000000E+01 0. -1.
         -4   -1    0    0    0  501 -0.00000000000E+00 -0.00000000000E+00 -0.12067472135E+02  0.12134116521E+02  0.12700000000E+01 0. -1.
         25    2    1    2    0    0  0.00000000000E+00  0.00000000000E+00  0.31074170725E+03  0.33494579412E+03  0.12501310481E+03 0.  0.
    9000005    1    3    3    0    0 -0.49414155297E+02 -0.56570568662E+01  0.53971028753E+02  0.73400497143E+02  0.10000000000E+01 0.  0.
    9000005    1    3    3    0    0  0.49414155297E+02  0.56570568662E+01  0.25677067850E+03  0.26154529698E+03  0.10000000000E+01 0.  0.
<mgrwt>
<rscale>  0 0.12501310E+03</rscale>
<asrwt>0</asrwt>
<pdfrwt beam="1">  1        4 0.49668268E-01 0.12501310E+03</pdfrwt>
<pdfrwt beam="2">  1       -4 0.18618529E-02 0.12501310E+03</pdfrwt>
<totfact> 0.71392361E+03</totfact>
</mgrwt>
</event>
<event>
 5    1  0.3259432E-002  0.1250048E+03  0.7818608E-02  0.1235062E+00
         -4   -1    0    0    0  501 -0.00000000000E+00  0.00000000000E+00  0.95828696607E+02  0.95837111775E+02  0.12700000000E+01 0.  1.
          4   -1    0    0  501    0  0.00000000000E+00 -0.00000000000E+00 -0.40745898365E+02  0.40765685736E+02  0.12700000000E+01 0.  1.
         25    2    1    2    0    0  0.00000000000E+00  0.00000000000E+00  0.55082798242E+02  0.13660279751E+03  0.12500483841E+03 0.  0.
    9000005    1    3    3    0    0  0.53618053999E+02  0.28120068539E+02  0.44467798437E+02  0.75126686784E+02  0.10000000000E+01 0.  0.
    9000005    1    3    3    0    0 -0.53618053999E+02 -0.28120068539E+02  0.10614999805E+02  0.61476110727E+02  0.10000000000E+01 0.  0.
<mgrwt>
<rscale>  0 0.12500484E+03</rscale>
<asrwt>0</asrwt>
<pdfrwt beam="2">  1        4 0.62707692E-02 0.12500484E+03</pdfrwt>
<pdfrwt beam="1">  1       -4 0.14745046E-01 0.12500484E+03</pdfrwt>
<totfact> 0.10203284E+04</totfact>
</mgrwt>
</event>
<event>
 5    1  0.3259432E-002  0.1249905E+03  0.7818608E-02  0.1235084E+00
          4   -1    0    0  501    0  0.00000000000E+00  0.00000000000E+00  0.32656448482E+02  0.32681134121E+02  0.12700000000E+01 0.  1.
         -4   -1    0    0    0  501 -0.00000000000E+00 -0.00000000000E+00 -0.11952501612E+03  0.11953176305E+03  0.12700000000E+01 0.  1.
         25    2    1    2    0    0  0.00000000000E+00  0.00000000000E+00 -0.86868567638E+02  0.15221289717E+03  0.12499047173E+03 0.  0.
    9000005    1    3    3    0    0 -0.22288548851E+02 -0.36059412529E+02 -0.99341518040E+02  0.10801295222E+03  0.10000000000E+01 0.  0.
    9000005    1    3    3    0    0  0.22288548851E+02  0.36059412529E+02  0.12472950402E+02  0.44199944949E+02  0.10000000000E+01 0.  0.
<mgrwt>
<rscale>  0 0.12499047E+03</rscale>
<asrwt>0</asrwt>
<pdfrwt beam="1">  1        4 0.50264869E-02 0.12499047E+03</pdfrwt>
<pdfrwt beam="2">  1       -4 0.18390882E-01 0.12499047E+03</pdfrwt>
<totfact> 0.98885604E+03</totfact>
</mgrwt>
</event>
<event>
 5    1  0.3259432E-002  0.1249984E+03  0.7818608E-02  0.1235072E+00
         -4   -1    0    0    0  501 -0.00000000000E+00  0.00000000000E+00  0.40327521583E+03  0.40327721558E+03  0.12700000000E+01 0. -1.
          4   -1    0    0  501    0  0.00000000000E+00 -0.00000000000E+00 -0.96424054261E+01  0.97256815906E+01  0.12700000000E+01 0. -1.
         25    2    1    2    0    0  0.00000000000E+00  0.00000000000E+00  0.39363281041E+03  0.41300289717E+03  0.12499841456E+03 0.  0.
    9000005    1    3    3    0    0 -0.24255850217E+02 -0.40530205828E+02  0.61627762707E+02  0.77653235544E+02  0.10000000000E+01 0.  0.
    9000005    1    3    3    0    0  0.24255850217E+02  0.40530205828E+02  0.33200504770E+03  0.33534966163E+03  0.10000000000E+01 0.  0.
<mgrwt>
<rscale>  0 0.12499841E+03</rscale>
<asrwt>0</asrwt>
<pdfrwt beam="2">  1        4 0.14900069E-02 0.12499841E+03</pdfrwt>
<pdfrwt beam="1">  1       -4 0.62048889E-01 0.12499841E+03</pdfrwt>
<totfact> 0.63309709E+03</totfact>
</mgrwt>
</event>
<event>
 5    1  0.3259432E-002  0.1249987E+03  0.7818608E-02  0.1235071E+00
          4   -1    0    0  501    0  0.00000000000E+00  0.00000000000E+00  0.42523072668E+03  0.42523262318E+03  0.12700000000E+01 0.  1.
         -4   -1    0    0    0  501 -0.00000000000E+00 -0.00000000000E+00 -0.91401720944E+01  0.92279816815E+01  0.12700000000E+01 0.  1.
         25    2    1    2    0    0  0.00000000000E+00  0.00000000000E+00  0.41609055459E+03  0.43446060486E+03  0.12499867022E+03 0.  0.
    9000005    1    3    3    0    0 -0.13322455608E+02 -0.59293312960E+02  0.15744013982E+03  0.16876487316E+03  0.10000000000E+01 0.  0.
    9000005    1    3    3    0    0  0.13322455608E+02  0.59293312960E+02  0.25865041476E+03  0.26569573170E+03  0.10000000000E+01 0.  0.
<mgrwt>
<rscale>  0 0.12499867E+03</rscale>
<asrwt>0</asrwt>
<pdfrwt beam="1">  1        4 0.65426997E-01 0.12499867E+03</pdfrwt>
<pdfrwt beam="2">  1       -4 0.14130811E-02 0.12499867E+03</pdfrwt>
<totfact> 0.61335541E+03</totfact>
</mgrwt>
</event>
<event>
 5    1  0.3259432E-002  0.1250012E+03  0.7818608E-02  0.1235067E+00
         -4   -1    0    0    0  501 -0.00000000000E+00  0.00000000000E+00  0.11753327168E+02  0.11821742660E+02  0.12700000000E+01 0.  1.
          4   -1    0    0  501    0  0.00000000000E+00 -0.00000000000E+00 -0.33132509086E+03  0.33132752486E+03  0.12700000000E+01 0.  1.
         25    2    1    2    0    0  0.00000000000E+00  0.00000000000E+00 -0.31957176369E+03  0.34314926752E+03  0.12500123061E+03 0.  0.
    9000005    1    3    3    0    0  0.48081031452E+02 -0.12872657449E+02 -0.56055027653E+02  0.74971041212E+02  0.10000000000E+01 0.  0.
    9000005    1    3    3    0    0 -0.48081031452E+02  0.12872657449E+02 -0.26351673604E+03  0.26817822631E+03  0.10000000000E+01 0.  0.
<mgrwt>
<rscale>  0 0.12500123E+03</rscale>
<asrwt>0</asrwt>
<pdfrwt beam="2">  1        4 0.50978534E-01 0.12500123E+03</pdfrwt>
<pdfrwt beam="1">  1       -4 0.18136544E-02 0.12500123E+03</pdfrwt>
<totfact> 0.70482937E+03</totfact>
</mgrwt>
</event>
<event>
 5    1  0.3259432E-002  0.1250011E+03  0.7818608E-02  0.1235068E+00
          4   -1    0    0  501    0  0.00000000000E+00  0.00000000000E+00  0.23952074094E+03  0.23952410785E+03  0.12700000000E+01 0. -1.
         -4   -1    0    0    0  501 -0.00000000000E+00 -0.00000000000E+00 -0.16280673785E+02  0.16330132850E+02  0.12700000000E+01 0. -1.
         25    2    1    2    0    0  0.00000000000E+00  0.00000000000E+00  0.22324006716E+03  0.25585424070E+03  0.12500105960E+03 0.  0.
    9000005    1    3    3    0    0  0.43298930827E+02 -0.44881885961E+02  0.11984179967E+03  0.13510084399E+03  0.10000000000E+01 0.  0.
    9000005    1    3    3    0    0 -0.43298930827E+02  0.44881885961E+02  0.10339826749E+03  0.12075339671E+03  0.10000000000E+01 0.  0.
<mgrwt>
<rscale>  0 0.12500106E+03</rscale>
<asrwt>0</asrwt>
<pdfrwt beam="1">  1        4 0.36853406E-01 0.12500106E+03</pdfrwt>
<pdfrwt beam="2">  1       -4 0.25087828E-02 0.12500106E+03</pdfrwt>
<totfact> 0.81489481E+03</totfact>
</mgrwt>
</event>
<event>
 5    1  0.3259432E-002  0.1250009E+03  0.7818608E-02  0.1235068E+00
         -4   -1    0    0    0  501 -0.00000000000E+00  0.00000000000E+00  0.22856329711E+02  0.22891585962E+02  0.12700000000E+01 0.  1.
          4   -1    0    0  501    0  0.00000000000E+00 -0.00000000000E+00 -0.17073757818E+03  0.17074230145E+03  0.12700000000E+01 0.  1.
         25    2    1    2    0    0  0.00000000000E+00  0.00000000000E+00 -0.14788124847E+03  0.19363388741E+03  0.12500087481E+03 0.  0.
    9000005    1    3    3    0    0 -0.58893729989E+02  0.17378529166E+02 -0.91927072878E+02  0.11055347772E+03  0.10000000000E+01 0.  0.
    9000005    1    3    3    0    0  0.58893729989E+02 -0.17378529166E+02 -0.55954175596E+02  0.83080409692E+02  0.10000000000E+01 0.  0.
<mgrwt>
<rscale>  0 0.12500087E+03</rscale>
<asrwt>0</asrwt>
<pdfrwt beam="2">  1        4 0.26270394E-01 0.12500087E+03</pdfrwt>
<pdfrwt beam="1">  1       -4 0.35194339E-02 0.12500087E+03</pdfrwt>
<totfact> 0.91217060E+03</totfact>
</mgrwt>
</event>
<event>
 5    1  0.3259432E-002  0.1249787E+03  0.7818608E-02  0.1235103E+00
          4   -1    0    0  501    0  0.00000000000E+00  0.00000000000E+00  0.15456782149E+03  0.15457303886E+03  0.12700000000E+01 0. -1.
         -4   -1    0    0    0  501 -0.00000000000E+00 -0.00000000000E+00 -0.25241865695E+02  0.25273794407E+02  0.12700000000E+01 0. -1.
         25    2    1    2    0    0  0.00000000000E+00  0.00000000000E+00  0.12932595580E+03  0.17984683326E+03  0.12497872056E+03 0.  0.
    9000005    1    3    3    0    0 -0.36835516966E+02  0.50392716177E+02  0.60685710351E+02  0.87063405600E+02  0.10000000000E+01 0.  0.
    9000005    1    3    3    0    0  0.36835516966E+02 -0.50392716177E+02  0.68640245448E+02  0.92783427664E+02  0.10000000000E+01 0.  0.
<mgrwt>
<rscale>  0 0.12497872E+03</rscale>
<asrwt>0</asrwt>
<pdfrwt beam="1">  1        4 0.23782522E-01 0.12497872E+03</pdfrwt>
<pdfrwt beam="2">  1       -4 0.38862214E-02 0.12497872E+03</pdfrwt>
<totfact> 0.93689276E+03</totfact>
</mgrwt>
</event>
<event>
 5    1  0.3259432E-002  0.1250005E+03  0.7818608E-02  0.1235069E+00
          4   -1    0    0  501    0  0.00000000000E+00  0.00000000000E+00  0.91161916151E+02  0.91170762069E+02  0.12700000000E+01 0.  1.
         -4   -1    0    0    0  501 -0.00000000000E+00 -0.00000000000E+00 -0.42829565838E+02  0.42848390983E+02  0.12700000000E+01 0.  1.
         25    2    1    2    0    0  0.00000000000E+00  0.00000000000E+00  0.48332350313E+02  0.13401915305E+03  0.12500046919E+03 0.  0.
    9000005    1    3    3    0    0 -0.38025413321E+02 -0.15430891573E+02  0.74696543656E+02  0.85232729084E+02  0.10000000000E+01 0.  0.
    9000005    1    3    3    0    0  0.38025413321E+02  0.15430891573E+02 -0.26364193343E+02  0.48786423968E+02  0.10000000000E+01 0.  0.
<mgrwt>
<rscale>  0 0.12500047E+03</rscale>
<asrwt>0</asrwt>
<pdfrwt beam="1">  1        4 0.14027039E-01 0.12500047E+03</pdfrwt>
<pdfrwt beam="2">  1       -4 0.65912925E-02 0.12500047E+03</pdfrwt>
<totfact> 0.10258678E+04</totfact>
</mgrwt>
</event>
<event>
 5    1  0.3259432E-002  0.1249393E+03  0.7818608E-02  0.1235164E+00
          4   -1    0    0  501    0  0.00000000000E+00  0.00000000000E+00  0.15264307132E+02  0.15317048418E+02  0.12700000000E+01 0. -1.
         -4   -1    0    0    0  501 -0.00000000000E+00 -0.00000000000E+00 -0.25516369997E+03  0.25516686047E+03  0.12700000000E+01 0. -1.
         25    2    1    2    0    0  0.00000000000E+00  0.00000000000E+00 -0.23989939284E+03  0.27048390889E+03  0.12493929039E+03 0.  0.
    9000005    1    3    3    0    0  0.53720520791E+02 -0.30590904331E+01 -0.51276785277E+02  0.74334117985E+02  0.10000000000E+01 0.  0.
    9000005    1    3    3    0    0 -0.53720520791E+02  0.30590904331E+01 -0.18862260756E+03  0.19614979091E+03  0.10000000000E+01 0.  0.
<mgrwt>
<rscale>  0 0.12493929E+03</rscale>
<asrwt>0</asrwt>
<pdfrwt beam="1">  1        4 0.23526553E-02 0.12493929E+03</pdfrwt>
<pdfrwt beam="2">  1       -4 0.39260251E-01 0.12493929E+03</pdfrwt>
<totfact> 0.79564333E+03</totfact>
</mgrwt>
</event>
<event>
 5    1  0.3259432E-002  0.1250014E+03  0.7818608E-02  0.1235067E+00
         -4   -1    0    0    0  501 -0.00000000000E+00  0.00000000000E+00  0.25916005339E+03  0.25916316515E+03  0.12700000000E+01 0. -1.
          4   -1    0    0  501    0  0.00000000000E+00 -0.00000000000E+00 -0.15043117957E+02  0.15096632004E+02  0.12700000000E+01 0. -1.
         25    2    1    2    0    0  0.00000000000E+00  0.00000000000E+00  0.24411693543E+03  0.27425979716E+03  0.12500143268E+03 0.  0.
    9000005    1    3    3    0    0  0.38042887482E+02 -0.24435754203E+02  0.27409234645E+02  0.52883206363E+02  0.10000000000E+01 0.  0.
    9000005    1    3    3    0    0 -0.38042887482E+02  0.24435754203E+02  0.21670770079E+03  0.22137659080E+03  0.10000000000E+01 0.  0.
<mgrwt>
<rscale>  0 0.12500143E+03</rscale>
<asrwt>0</asrwt>
<pdfrwt beam="2">  1        4 0.23186818E-02 0.12500143E+03</pdfrwt>
<pdfrwt beam="1">  1       -4 0.39875131E-01 0.12500143E+03</pdfrwt>
<totfact> 0.78942908E+03</totfact>
</mgrwt>
</event>
<event>
 5    1  0.3259432E-002  0.1249966E+03  0.7818608E-02  0.1235075E+00
          4   -1    0    0  501    0  0.00000000000E+00  0.00000000000E+00  0.18329606211E+03  0.18330046177E+03  0.12700000000E+01 0. -1.
         -4   -1    0    0    0  501 -0.00000000000E+00 -0.00000000000E+00 -0.21286409560E+02  0.21324261580E+02  0.12700000000E+01 0. -1.
         25    2    1    2    0    0  0.00000000000E+00  0.00000000000E+00  0.16200965255E+03  0.20462472335E+03  0.12499659950E+03 0.  0.
    9000005    1    3    3    0    0 -0.35804319505E+01 -0.26470239180E+02  0.17348749498E+03  0.17553462328E+03  0.10000000000E+01 0.  0.
    9000005    1    3    3    0    0  0.35804319505E+01  0.26470239180E+02 -0.11477842431E+02  0.29090100070E+02  0.10000000000E+01 0.  0.
<mgrwt>
<rscale>  0 0.12499660E+03</rscale>
<asrwt>0</asrwt>
<pdfrwt beam="1">  1        4 0.28202645E-01 0.12499660E+03</pdfrwt>
<pdfrwt beam="2">  1       -4 0.32780823E-02 0.12499660E+03</pdfrwt>
<totfact> 0.89368124E+03</totfact>
</mgrwt>
</event>
<event>
 5    1  0.3259432E-002  0.1249997E+03  0.7818608E-02  0.1235070E+00
         -4   -1    0    0    0  501 -0.00000000000E+00  0.00000000000E+00  0.15001173309E+03  0.15001710891E+03  0.12700000000E+01 0. -1.
          4   -1    0    0  501    0  0.00000000000E+00 -0.00000000000E+00 -0.26018189653E+02  0.26049166835E+02  0.12700000000E+01 0. -1.
         25    2    1    2    0    0  0.00000000000E+00  0.00000000000E+00  0.12399354344E+03  0.17606627574E+03  0.12499973856E+03 0.  0.
    9000005    1    3    3    0    0  0.25890193835E+02 -0.40289963000E+02  0.54506929296E+01  0.48210925201E+02  0.10000000000E+01 0.  0.
    9000005    1    3    3    0    0 -0.25890193835E+02  0.40289963000E+02  0.11854285051E+03  0.12785535054E+03  0.10000000000E+01 0.  0.
<mgrwt>
<rscale>  0 0.12499974E+03</rscale>
<asrwt>0</asrwt>
<pdfrwt beam="2">  1        4 0.40055947E-02 0.12499974E+03</pdfrwt>
<pdfrwt beam="1">  1       -4 0.23081525E-01 0.12499974E+03</pdfrwt>
<totfact> 0.94330469E+03</totfact>
</mgrwt>
</event>
<event>
 5    1  0.3259432E-002  0.1250014E+03  0.7818608E-02  0.1235067E+00
          4   -1    0    0  501    0  0.00000000000E+00  0.00000000000E+00  0.33828982020E+03  0.33829220409E+03  0.12700000000E+01 0. -1.
         -4   -1    0    0    0  501 -0.00000000000E+00 -0.00000000000E+00 -0.11509955730E+02  0.11579809191E+02  0.12700000000E+01 0. -1.
         25    2    1    2    0    0  0.00000000000E+00  0.00000000000E+00  0.32677986447E+03  0.34987201328E+03  0.12500138342E+03 0.  0.
    9000005    1    3    3    0    0  0.18532395393E+02 -0.29371816799E+02  0.30880538596E+03  0.31075379274E+03  0.10000000000E+01 0.  0.
    9000005    1    3    3    0    0 -0.18532395393E+02  0.29371816799E+02  0.17974478504E+02  0.39118220545E+02  0.10000000000E+01 0.  0.
<mgrwt>
<rscale>  0 0.12500138E+03</rscale>
<asrwt>0</asrwt>
<pdfrwt beam="1">  1        4 0.52050144E-01 0.12500138E+03</pdfrwt>
<pdfrwt beam="2">  1       -4 0.17763191E-02 0.12500138E+03</pdfrwt>
<totfact> 0.69736501E+03</totfact>
</mgrwt>
</event>
<event>
 5    1  0.3259432E-002  0.1250008E+03  0.7818608E-02  0.1235068E+00
          4   -1    0    0  501    0  0.00000000000E+00  0.00000000000E+00  0.13989926218E+02  0.14047452993E+02  0.12700000000E+01 0.  1.
         -4   -1    0    0    0  501 -0.00000000000E+00 -0.00000000000E+00 -0.27859027301E+03  0.27859316775E+03  0.12700000000E+01 0.  1.
         25    2    1    2    0    0  0.00000000000E+00  0.00000000000E+00 -0.26460034679E+03  0.29264062074E+03  0.12500075754E+03 0.  0.
    9000005    1    3    3    0    0  0.11412443797E+02 -0.73090116984E+01  0.10519707836E+02  0.17185161576E+02  0.10000000000E+01 0.  0.
    9000005    1    3    3    0    0 -0.11412443797E+02  0.73090116984E+01 -0.27512005463E+03  0.27545545917E+03  0.10000000000E+01 0.  0.
<mgrwt>
<rscale>  0 0.12500076E+03</rscale>
<asrwt>0</asrwt>
<pdfrwt beam="1">  1        4 0.21569444E-02 0.12500076E+03</pdfrwt>
<pdfrwt beam="2">  1       -4 0.42864686E-01 0.12500076E+03</pdfrwt>
<totfact> 0.76530071E+03</totfact>
</mgrwt>
</event>
<event>
 5    1  0.3259432E-002  0.1249975E+03  0.7818608E-02  0.1235073E+00
         -4   -1    0    0    0  501 -0.00000000000E+00  0.00000000000E+00  0.11347204754E+03  0.11347915436E+03  0.12700000000E+01 0.  1.
          4   -1    0    0  501    0  0.00000000000E+00 -0.00000000000E+00 -0.34403515181E+02  0.34426948119E+02  0.12700000000E+01 0.  1.
         25    2    1    2    0    0  0.00000000000E+00  0.00000000000E+00  0.79068532364E+02  0.14790610248E+03  0.12499752934E+03 0.  0.
    9000005    1    3    3    0    0  0.10794643454E+02  0.58613145787E+02  0.61768149284E+02  0.85838973971E+02  0.10000000000E+01 0.  0.
    9000005    1    3    3    0    0 -0.10794643454E+02 -0.58613145787E+02  0.17300383080E+02  0.62067128507E+02  0.10000000000E+01 0.  0.
<mgrwt>
<rscale>  0 0.12499753E+03</rscale>
<asrwt>0</asrwt>
<pdfrwt beam="2">  1        4 0.52951977E-02 0.12499753E+03</pdfrwt>
<pdfrwt beam="1">  1       -4 0.17459587E-01 0.12499753E+03</pdfrwt>
<totfact> 0.99728280E+03</totfact>
</mgrwt>
</event>
<event>
 5    1  0.3259432E-002  0.1250014E+03  0.7818608E-02  0.1235067E+00
          4   -1    0    0  501    0  0.00000000000E+00  0.00000000000E+00  0.98502399031E+03  0.98502480902E+03  0.12700000000E+01 0. -1.
         -4   -1    0    0    0  501 -0.00000000000E+00 -0.00000000000E+00 -0.38632091630E+01  0.40666060833E+01  0.12700000000E+01 0. -1.
         25    2    1    2    0    0  0.00000000000E+00  0.00000000000E+00  0.98116078115E+03  0.98909141511E+03  0.12500139588E+03 0.  0.
    9000005    1    3    3    0    0 -0.39879498238E+02  0.36804966425E+02  0.73579028638E+03  0.73778948587E+03  0.10000000000E+01 0.  0.
    9000005    1    3    3    0    0  0.39879498238E+02 -0.36804966425E+02  0.24537049477E+03  0.25130192924E+03  0.10000000000E+01 0.  0.
<mgrwt>
<rscale>  0 0.12500140E+03</rscale>
<asrwt>0</asrwt>
<pdfrwt beam="1">  1        4 0.15155796E+00 0.12500140E+03</pdfrwt>
<pdfrwt beam="2">  1       -4 0.61004836E-03 0.12500140E+03</pdfrwt>
<totfact> 0.30966456E+03</totfact>
</mgrwt>
</event>
<event>
 5    1  0.3259432E-002  0.1250009E+03  0.7818608E-02  0.1235068E+00
         -4   -1    0    0    0  501 -0.00000000000E+00  0.00000000000E+00  0.19049076871E+02  0.19091365316E+02  0.12700000000E+01 0.  1.
          4   -1    0    0  501    0  0.00000000000E+00 -0.00000000000E+00 -0.20479360015E+03  0.20479753798E+03  0.12700000000E+01 0.  1.
         25    2    1    2    0    0  0.00000000000E+00  0.00000000000E+00 -0.18574452328E+03  0.22388890329E+03  0.12500085236E+03 0.  0.
    9000005    1    3    3    0    0 -0.42080446273E+02  0.17316535334E+02 -0.16959063626E+03  0.17559217027E+03  0.10000000000E+01 0.  0.
    9000005    1    3    3    0    0  0.42080446273E+02 -0.17316535334E+02 -0.16153887016E+02  0.48296733019E+02  0.10000000000E+01 0.  0.
<mgrwt>
<rscale>  0 0.12500085E+03</rscale>
<asrwt>0</asrwt>
<pdfrwt beam="2">  1        4 0.31510262E-01 0.12500085E+03</pdfrwt>
<pdfrwt beam="1">  1       -4 0.29341832E-02 0.12500085E+03</pdfrwt>
<totfact> 0.86255057E+03</totfact>
</mgrwt>
</event>
<event>
 5    1  0.3259432E-002  0.1250031E+03  0.7818608E-02  0.1235064E+00
         -4   -1    0    0    0  501 -0.00000000000E+00  0.00000000000E+00  0.96988537313E+03  0.96988620462E+03  0.12700000000E+01 0. -1.
          4   -1    0    0  501    0  0.00000000000E+00 -0.00000000000E+00 -0.39267710765E+01  0.41270365987E+01  0.12700000000E+01 0. -1.
         25    2    1    2    0    0  0.00000000000E+00  0.00000000000E+00  0.96595860205E+03  0.97401324122E+03  0.12500309271E+03 0.  0.
    9000005    1    3    3    0    0  0.48304391008E+02  0.17981215330E+02  0.20762528338E+03  0.21392965337E+03  0.10000000000E+01 0.  0.
    9000005    1    3    3    0    0 -0.48304391008E+02 -0.17981215330E+02  0.75833331867E+03  0.76008358784E+03  0.10000000000E+01 0.  0.
<mgrwt>
<rscale>  0 0.12500309E+03</rscale>
<asrwt>0</asrwt>
<pdfrwt beam="2">  1        4 0.61958773E-03 0.12500309E+03</pdfrwt>
<pdfrwt beam="1">  1       -4 0.14922858E+00 0.12500309E+03</pdfrwt>
<totfact> 0.31476336E+03</totfact>
</mgrwt>
</event>
<event>
 5    1  0.3259432E-002  0.1249973E+03  0.7818608E-02  0.1235074E+00
         -4   -1    0    0    0  501 -0.00000000000E+00  0.00000000000E+00  0.12037506670E+03  0.12038176599E+03  0.12700000000E+01 0. -1.
          4   -1    0    0  501    0  0.00000000000E+00 -0.00000000000E+00 -0.32429217352E+02  0.32454075831E+02  0.12700000000E+01 0. -1.
         25    2    1    2    0    0  0.00000000000E+00  0.00000000000E+00  0.87945849349E+02  0.15283584182E+03  0.12499728848E+03 0.  0.
    9000005    1    3    3    0    0 -0.59111081450E+02 -0.17493022510E+02  0.56499306936E+02  0.83625937789E+02  0.10000000000E+01 0.  0.
    9000005    1    3    3    0    0  0.59111081450E+02  0.17493022510E+02  0.31446542412E+02  0.69209904034E+02  0.10000000000E+01 0.  0.
<mgrwt>
<rscale>  0 0.12499729E+03</rscale>
<asrwt>0</asrwt>
<pdfrwt beam="2">  1        4 0.49915379E-02 0.12499729E+03</pdfrwt>
<pdfrwt beam="1">  1       -4 0.18521668E-01 0.12499729E+03</pdfrwt>
<totfact> 0.98747414E+03</totfact>
</mgrwt>
</event>
<event>
 5    1  0.3259432E-002  0.1250065E+03  0.7818608E-02  0.1235059E+00
          4   -1    0    0  501    0  0.00000000000E+00  0.00000000000E+00  0.11937833309E+03  0.11938508832E+03  0.12700000000E+01 0. -1.
         -4   -1    0    0    0  501 -0.00000000000E+00 -0.00000000000E+00 -0.32704981726E+02  0.32729630760E+02  0.12700000000E+01 0. -1.
         25    2    1    2    0    0  0.00000000000E+00  0.00000000000E+00  0.86673351368E+02  0.15211471908E+03  0.12500647152E+03 0.  0.
    9000005    1    3    3    0    0 -0.62251792577E+02 -0.13235191288E+01  0.36827117054E+02  0.72348282167E+02  0.10000000000E+01 0.  0.
    9000005    1    3    3    0    0  0.62251792577E+02  0.13235191288E+01  0.49846234314E+02  0.79766436910E+02  0.10000000000E+01 0.  0.
<mgrwt>
<rscale>  0 0.12500647E+03</rscale>
<asrwt>0</asrwt>
<pdfrwt beam="1">  1        4 0.18368313E-01 0.12500647E+03</pdfrwt>
<pdfrwt beam="2">  1       -4 0.50339513E-02 0.12500647E+03</pdfrwt>
<totfact> 0.98869421E+03</totfact>
</mgrwt>
</event>
<event>
 5    1  0.3259432E-002  0.1250005E+03  0.7818608E-02  0.1235068E+00
          4   -1    0    0  501    0  0.00000000000E+00  0.00000000000E+00  0.62032194640E+01  0.63318900589E+01  0.12700000000E+01 0. -1.
         -4   -1    0    0    0  501 -0.00000000000E+00 -0.00000000000E+00 -0.62312513537E+03  0.62312642957E+03  0.12700000000E+01 0. -1.
         25    2    1    2    0    0  0.00000000000E+00  0.00000000000E+00 -0.61692191591E+03  0.62945831963E+03  0.12500050330E+03 0.  0.
    9000005    1    3    3    0    0 -0.20141782034E+02 -0.57492365726E+02 -0.37863878331E+03  0.38350931113E+03  0.10000000000E+01 0.  0.
    9000005    1    3    3    0    0  0.20141782034E+02  0.57492365726E+02 -0.23828313260E+03  0.24594900850E+03  0.10000000000E+01 0.  0.
<mgrwt>
<rscale>  0 0.12500050E+03</rscale>
<asrwt>0</asrwt>
<pdfrwt beam="1">  1        4 0.96433924E-03 0.12500050E+03</pdfrwt>
<pdfrwt beam="2">  1       -4 0.95875354E-01 0.12500050E+03</pdfrwt>
<totfact> 0.47058893E+03</totfact>
</mgrwt>
</event>
<event>
 5    1  0.3259432E-002  0.1249996E+03  0.7818608E-02  0.1235070E+00
         -4   -1    0    0    0  501 -0.00000000000E+00  0.00000000000E+00  0.15844064165E+02  0.15894881858E+02  0.12700000000E+01 0.  1.
          4   -1    0    0  501    0  0.00000000000E+00 -0.00000000000E+00 -0.24609448749E+03  0.24609776446E+03  0.12700000000E+01 0.  1.
         25    2    1    2    0    0  0.00000000000E+00  0.00000000000E+00 -0.23025042332E+03  0.26199264632E+03  0.12499955714E+03 0.  0.
    9000005    1    3    3    0    0 -0.25419055591E+02  0.55896857742E+02 -0.13944501077E+03  0.15236961023E+03  0.10000000000E+01 0.  0.
    9000005    1    3    3    0    0  0.25419055591E+02 -0.55896857742E+02 -0.90805412552E+02  0.10962303609E+03  0.10000000000E+01 0.  0.
<mgrwt>
<rscale>  0 0.12499956E+03</rscale>
<asrwt>0</asrwt>
<pdfrwt beam="2">  1        4 0.37864849E-01 0.12499956E+03</pdfrwt>
<pdfrwt beam="1">  1       -4 0.24417096E-02 0.12499956E+03</pdfrwt>
<totfact> 0.80628028E+03</totfact>
</mgrwt>
</event>
<event>
 5    1  0.3259432E-002  0.1250014E+03  0.7818608E-02  0.1235067E+00
         -4   -1    0    0    0  501 -0.00000000000E+00  0.00000000000E+00  0.74755163335E+02  0.74765950441E+02  0.12700000000E+01 0.  1.
          4   -1    0    0  501    0  0.00000000000E+00 -0.00000000000E+00 -0.52232783702E+02  0.52248220958E+02  0.12700000000E+01 0.  1.
         25    2    1    2    0    0  0.00000000000E+00  0.00000000000E+00  0.22522379633E+02  0.12701417140E+03  0.12500136860E+03 0.  0.
    9000005    1    3    3    0    0  0.15698344908E+02 -0.52327934359E+02 -0.19570185343E+02  0.58040011212E+02  0.10000000000E+01 0.  0.
    9000005    1    3    3    0    0 -0.15698344908E+02  0.52327934359E+02  0.42092564976E+02  0.68974160186E+02  0.10000000000E+01 0.  0.
<mgrwt>
<rscale>  0 0.12500137E+03</rscale>
<asrwt>0</asrwt>
<pdfrwt beam="2">  1        4 0.80378301E-02 0.12500137E+03</pdfrwt>
<pdfrwt beam="1">  1       -4 0.11502812E-01 0.12500137E+03</pdfrwt>
<totfact> 0.10408516E+04</totfact>
</mgrwt>
</event>
<event>
 5    1  0.3259432E-002  0.1249949E+03  0.7818608E-02  0.1235077E+00
         -4   -1    0    0    0  501 -0.00000000000E+00  0.00000000000E+00  0.19094355261E+03  0.19094777606E+03  0.12700000000E+01 0.  1.
          4   -1    0    0  501    0  0.00000000000E+00 -0.00000000000E+00 -0.20431774285E+02  0.20471206619E+02  0.12700000000E+01 0.  1.
         25    2    1    2    0    0  0.00000000000E+00  0.00000000000E+00  0.17051177832E+03  0.21141898268E+03  0.12499487866E+03 0.  0.
    9000005    1    3    3    0    0  0.60852754091E+02  0.13266455632E+02  0.76652323299E+02  0.98770619075E+02  0.10000000000E+01 0.  0.
    9000005    1    3    3    0    0 -0.60852754091E+02 -0.13266455632E+02  0.93859455025E+02  0.11264836361E+03  0.10000000000E+01 0.  0.
<mgrwt>
<rscale>  0 0.12499488E+03</rscale>
<asrwt>0</asrwt>
<pdfrwt beam="2">  1        4 0.31467079E-02 0.12499488E+03</pdfrwt>
<pdfrwt beam="1">  1       -4 0.29379290E-01 0.12499488E+03</pdfrwt>
<totfact> 0.88254767E+03</totfact>
</mgrwt>
</event>
<event>
 5    1  0.3259432E-002  0.1250076E+03  0.7818608E-02  0.1235057E+00
          4   -1    0    0  501    0  0.00000000000E+00  0.00000000000E+00  0.26897128434E+02  0.26927094496E+02  0.12700000000E+01 0. -1.
         -4   -1    0    0    0  501 -0.00000000000E+00 -0.00000000000E+00 -0.14513320347E+03  0.14513875998E+03  0.12700000000E+01 0. -1.
         25    2    1    2    0    0  0.00000000000E+00  0.00000000000E+00 -0.11823607503E+03  0.17206585448E+03  0.12500755512E+03 0.  0.
    9000005    1    3    3    0    0  0.53637885910E+02  0.30190006766E+02 -0.44212805458E+02  0.75790708401E+02  0.10000000000E+01 0.  0.
    9000005    1    3    3    0    0 -0.53637885910E+02 -0.30190006766E+02 -0.74023269577E+02  0.96275146078E+02  0.10000000000E+01 0.  0.
<mgrwt>
<rscale>  0 0.12500756E+03</rscale>
<asrwt>0</asrwt>
<pdfrwt beam="1">  1        4 0.41407524E-02 0.12500756E+03</pdfrwt>
<pdfrwt beam="2">  1       -4 0.22330917E-01 0.12500756E+03</pdfrwt>
<totfact> 0.95048871E+03</totfact>
</mgrwt>
</event>
<event>
 5    1  0.3259432E-002  0.1250005E+03  0.7818608E-02  0.1235069E+00
         -4   -1    0    0    0  501 -0.00000000000E+00  0.00000000000E+00  0.42305202958E+03  0.42305393585E+03  0.12700000000E+01 0. -1.
          4   -1    0    0  501    0  0.00000000000E+00 -0.00000000000E+00 -0.91879654815E+01  0.92753226191E+01  0.12700000000E+01 0. -1.
         25    2    1    2    0    0  0.00000000000E+00  0.00000000000E+00  0.41386406410E+03  0.43232925847E+03  0.12500049668E+03 0.  0.
    9000005    1    3    3    0    0  0.22384409674E+02 -0.45718158753E+02  0.33230733876E+03  0.33618503719E+03  0.10000000000E+01 0.  0.
    9000005    1    3    3    0    0 -0.22384409674E+02  0.45718158753E+02  0.81556725342E+02  0.96144221275E+02  0.10000000000E+01 0.  0.
<mgrwt>
<rscale>  0 0.12500050E+03</rscale>
<asrwt>0</asrwt>
<pdfrwt beam="2">  1        4 0.14203998E-02 0.12500050E+03</pdfrwt>
<pdfrwt beam="1">  1       -4 0.65091782E-01 0.12500050E+03</pdfrwt>
<totfact> 0.61524756E+03</totfact>
</mgrwt>
</event>
<event>
 5    1  0.3259432E-002  0.1250067E+03  0.7818608E-02  0.1235059E+00
          4   -1    0    0  501    0  0.00000000000E+00  0.00000000000E+00  0.15159713084E+02  0.15212816990E+02  0.12700000000E+01 0.  1.
         -4   -1    0    0    0  501 -0.00000000000E+00 -0.00000000000E+00 -0.25719557303E+03  0.25719870856E+03  0.12700000000E+01 0.  1.
         25    2    1    2    0    0  0.00000000000E+00  0.00000000000E+00 -0.24203585994E+03  0.27241152555E+03  0.12500672683E+03 0.  0.
    9000005    1    3    3    0    0 -0.21902862669E+02  0.46877134772E+02 -0.44638881253E+02  0.68343477209E+02  0.10000000000E+01 0.  0.
    9000005    1    3    3    0    0  0.21902862669E+02 -0.46877134772E+02 -0.19739697869E+03  0.20406804834E+03  0.10000000000E+01 0.  0.
<mgrwt>
<rscale>  0 0.12500673E+03</rscale>
<asrwt>0</asrwt>
<pdfrwt beam="1">  1        4 0.23365898E-02 0.12500673E+03</pdfrwt>
<pdfrwt beam="2">  1       -4 0.39572873E-01 0.12500673E+03</pdfrwt>
<totfact> 0.79183316E+03</totfact>
</mgrwt>
</event>
<event>
 5    1  0.3259432E-002  0.1249998E+03  0.7818608E-02  0.1235070E+00
          4   -1    0    0  501    0  0.00000000000E+00  0.00000000000E+00  0.23595144115E+03  0.23595485899E+03  0.12700000000E+01 0.  1.
         -4   -1    0    0    0  501 -0.00000000000E+00 -0.00000000000E+00 -0.16527349214E+02  0.16576072274E+02  0.12700000000E+01 0.  1.
         25    2    1    2    0    0  0.00000000000E+00  0.00000000000E+00  0.21942409193E+03  0.25253093126E+03  0.12499975649E+03 0.  0.
    9000005    1    3    3    0    0 -0.34071752597E+02 -0.11677496799E+02  0.21288315163E+03  0.21591082535E+03  0.10000000000E+01 0.  0.
    9000005    1    3    3    0    0  0.34071752597E+02  0.11677496799E+02  0.65409403005E+01  0.36620105905E+02  0.10000000000E+01 0.  0.
<mgrwt>
<rscale>  0 0.12499976E+03</rscale>
<asrwt>0</asrwt>
<pdfrwt beam="1">  1        4 0.36304230E-01 0.12499976E+03</pdfrwt>
<pdfrwt beam="2">  1       -4 0.25466801E-02 0.12499976E+03</pdfrwt>
<totfact> 0.81966246E+03</totfact>
</mgrwt>
</event>
<event>
 5    1  0.3259432E-002  0.1249967E+03  0.7818608E-02  0.1235075E+00
          4   -1    0    0  501    0  0.00000000000E+00  0.00000000000E+00  0.82690179687E+03  0.82690277213E+03  0.12700000000E+01 0. -1.
         -4   -1    0    0    0  501 -0.00000000000E+00 -0.00000000000E+00 -0.46373481957E+01  0.48081075579E+01  0.12700000000E+01 0. -1.
         25    2    1    2    0    0  0.00000000000E+00  0.00000000000E+00  0.82226444867E+03  0.83171087969E+03  0.12499665535E+03 0.  0.
    9000005    1    3    3    0    0  0.34935040129E+02 -0.23383428780E+02  0.71878259629E+03  0.72001157109E+03  0.10000000000E+01 0.  0.
    9000005    1    3    3    0    0 -0.34935040129E+02  0.23383428780E+02  0.10348185238E+03  0.11169930861E+03  0.10000000000E+01 0.  0.
<mgrwt>
<rscale>  0 0.12499666E+03</rscale>
<asrwt>0</asrwt>
<pdfrwt beam="1">  1        4 0.12722897E+00 0.12499666E+03</pdfrwt>
<pdfrwt beam="2">  1       -4 0.72664799E-03 0.12499666E+03</pdfrwt>
<totfact> 0.36890305E+03</totfact>
</mgrwt>
</event>
<event>
 5    1  0.3259432E-002  0.1249995E+03  0.7818608E-02  0.1235070E+00
         -4   -1    0    0    0  501 -0.00000000000E+00  0.00000000000E+00  0.94070590328E+01  0.94924000994E+01  0.12700000000E+01 0. -1.
          4   -1    0    0  501    0  0.00000000000E+00 -0.00000000000E+00 -0.41328194308E+03  0.41328389440E+03  0.12700000000E+01 0. -1.
         25    2    1    2    0    0  0.00000000000E+00  0.00000000000E+00 -0.40387488405E+03  0.42277629450E+03  0.12499949293E+03 0.  0.
    9000005    1    3    3    0    0 -0.16045709727E+02 -0.40053233154E+02 -0.35483088125E+03  0.35744605268E+03  0.10000000000E+01 0.  0.
    9000005    1    3    3    0    0  0.16045709727E+02  0.40053233154E+02 -0.49044002793E+02  0.65330241824E+02  0.10000000000E+01 0.  0.
<mgrwt>
<rscale>  0 0.12499949E+03</rscale>
<asrwt>0</asrwt>
<pdfrwt beam="2">  1        4 0.63588538E-01 0.12499949E+03</pdfrwt>
<pdfrwt beam="1">  1       -4 0.14539550E-02 0.12499949E+03</pdfrwt>
<totfact> 0.62396983E+03</totfact>
</mgrwt>
</event>
<event>
 5    1  0.3259432E-002  0.1250014E+03  0.7818608E-02  0.1235067E+00
          4   -1    0    0  501    0  0.00000000000E+00  0.00000000000E+00  0.47923637526E+01  0.49577868386E+01  0.12700000000E+01 0. -1.
         -4   -1    0    0    0  501 -0.00000000000E+00 -0.00000000000E+00 -0.80112109981E+03  0.80112210647E+03  0.12700000000E+01 0. -1.
         25    2    1    2    0    0  0.00000000000E+00  0.00000000000E+00 -0.79632873606E+03  0.80607989330E+03  0.12500135404E+03 0.  0.
    9000005    1    3    3    0    0  0.28707399520E+02  0.54264961314E+02 -0.47351440721E+03  0.47747847559E+03  0.10000000000E+01 0.  0.
    9000005    1    3    3    0    0 -0.28707399520E+02 -0.54264961314E+02 -0.32281432885E+03  0.32860141772E+03  0.10000000000E+01 0.  0.
<mgrwt>
<rscale>  0 0.12500135E+03</rscale>
<asrwt>0</asrwt>
<pdfrwt beam="1">  1        4 0.75008966E-03 0.12500135E+03</pdfrwt>
<pdfrwt beam="2">  1       -4 0.12326210E+00 0.12500135E+03</pdfrwt>
<totfact> 0.37993645E+03</totfact>
</mgrwt>
</event>
<event>
 5    1  0.3259432E-002  0.1250009E+03  0.7818608E-02  0.1235068E+00
         -4   -1    0    0    0  501 -0.00000000000E+00  0.00000000000E+00  0.13426109732E+02  0.13486041767E+02  0.12700000000E+01 0.  1.
          4   -1    0    0  501    0  0.00000000000E+00 -0.00000000000E+00 -0.29023942760E+03  0.29024220615E+03  0.12700000000E+01 0.  1.
         25    2    1    2    0    0  0.00000000000E+00  0.00000000000E+00 -0.27681331787E+03  0.30372824792E+03  0.12500094254E+03 0.  0.
    9000005    1    3    3    0    0 -0.32507498665E+01 -0.44160689953E+02 -0.31258615295E+02  0.54211022329E+02  0.10000000000E+01 0.  0.
    9000005    1    3    3    0    0  0.32507498665E+01  0.44160689953E+02 -0.24555470257E+03  0.24951722559E+03  0.10000000000E+01 0.  0.
<mgrwt>
<rscale>  0 0.12500094E+03</rscale>
<asrwt>0</asrwt>
<pdfrwt beam="2">  1        4 0.44657039E-01 0.12500094E+03</pdfrwt>
<pdfrwt beam="1">  1       -4 0.20703795E-02 0.12500094E+03</pdfrwt>
<totfact> 0.75131972E+03</totfact>
</mgrwt>
</event>
<event>
 5    1  0.3259432E-002  0.1250004E+03  0.7818608E-02  0.1235069E+00
          4   -1    0    0  501    0  0.00000000000E+00  0.00000000000E+00  0.24501792991E+02  0.24534684831E+02  0.12700000000E+01 0.  1.
         -4   -1    0    0    0  501 -0.00000000000E+00 -0.00000000000E+00 -0.15928570382E+03  0.15929076666E+03  0.12700000000E+01 0.  1.
         25    2    1    2    0    0  0.00000000000E+00  0.00000000000E+00 -0.13478391083E+03  0.18382545149E+03  0.12500037598E+03 0.  0.
    9000005    1    3    3    0    0 -0.21534801608E+02  0.19011558687E+01 -0.15361863520E+03  0.15513557669E+03  0.10000000000E+01 0.  0.
    9000005    1    3    3    0    0  0.21534801608E+02 -0.19011558687E+01  0.18834724369E+02  0.28689874799E+02  0.10000000000E+01 0.  0.
<mgrwt>
<rscale>  0 0.12500038E+03</rscale>
<asrwt>0</asrwt>
<pdfrwt beam="1">  1        4 0.37724263E-02 0.12500038E+03</pdfrwt>
<pdfrwt beam="2">  1       -4 0.24508412E-01 0.12500038E+03</pdfrwt>
<totfact> 0.92932124E+03</totfact>
</mgrwt>
</event>
<event>
 5    1  0.3259432E-002  0.1250102E+03  0.7818608E-02  0.1235053E+00
         -4   -1    0    0    0  501 -0.00000000000E+00  0.00000000000E+00  0.24741847910E+02  0.24774421043E+02  0.12700000000E+01 0. -1.
          4   -1    0    0  501    0  0.00000000000E+00 -0.00000000000E+00 -0.15776701279E+03  0.15777212436E+03  0.12700000000E+01 0. -1.
         25    2    1    2    0    0  0.00000000000E+00  0.00000000000E+00 -0.13302516488E+03  0.18254654540E+03  0.12501018657E+03 0.  0.
    9000005    1    3    3    0    0  0.43736819291E+01  0.38418979528E+02  0.51848109095E+01  0.39026008581E+02  0.10000000000E+01 0.  0.
    9000005    1    3    3    0    0 -0.43736819291E+01 -0.38418979528E+02 -0.13820997579E+03  0.14352053682E+03  0.10000000000E+01 0.  0.
<mgrwt>
<rscale>  0 0.12501019E+03</rscale>
<asrwt>0</asrwt>
<pdfrwt beam="2">  1        4 0.24274746E-01 0.12501019E+03</pdfrwt>
<pdfrwt beam="1">  1       -4 0.38093371E-02 0.12501019E+03</pdfrwt>
<totfact> 0.93139346E+03</totfact>
</mgrwt>
</event>
<event>
 5    1  0.3259432E-002  0.1250011E+03  0.7818608E-02  0.1235068E+00
         -4   -1    0    0    0  501 -0.00000000000E+00  0.00000000000E+00  0.54122521370E+03  0.54122670374E+03  0.12700000000E+01 0. -1.
          4   -1    0    0  501    0  0.00000000000E+00 -0.00000000000E+00 -0.71601709649E+01  0.72719287844E+01  0.12700000000E+01 0. -1.
         25    2    1    2    0    0  0.00000000000E+00  0.00000000000E+00  0.53406504273E+03  0.54849863252E+03  0.12500112005E+03 0.  0.
    9000005    1    3    3    0    0 -0.25166775923E+02 -0.46314418458E+01  0.51720350701E+03  0.51783712162E+03  0.10000000000E+01 0.  0.
    9000005    1    3    3    0    0  0.25166775923E+02  0.46314418458E+01  0.16861535717E+02  0.30661510900E+02  0.10000000000E+01 0.  0.
<mgrwt>
<rscale>  0 0.12500112E+03</rscale>
<asrwt>0</asrwt>
<pdfrwt beam="2">  1        4 0.11102761E-02 0.12500112E+03</pdfrwt>
<pdfrwt beam="1">  1       -4 0.83274132E-01 0.12500112E+03</pdfrwt>
<totfact> 0.52287448E+03</totfact>
</mgrwt>
</event>
<event>
 5    1  0.3259432E-002  0.1250021E+03  0.7818608E-02  0.1235066E+00
         -4   -1    0    0    0  501 -0.00000000000E+00  0.00000000000E+00  0.51010436741E+01  0.52567619848E+01  0.12700000000E+01 0.  1.
          4   -1    0    0  501    0  0.00000000000E+00 -0.00000000000E+00 -0.75413085568E+03  0.75413192505E+03  0.12700000000E+01 0.  1.
         25    2    1    2    0    0  0.00000000000E+00  0.00000000000E+00 -0.74902981200E+03  0.75938868704E+03  0.12500207491E+03 0.  0.
    9000005    1    3    3    0    0 -0.54062210587E+02 -0.15276484648E+00 -0.18408167524E+03  0.19185882599E+03  0.10000000000E+01 0.  0.
    9000005    1    3    3    0    0  0.54062210587E+02  0.15276484648E+00 -0.56494813676E+03  0.56752986104E+03  0.10000000000E+01 0.  0.
<mgrwt>
<rscale>  0 0.12500207E+03</rscale>
<asrwt>0</asrwt>
<pdfrwt beam="2">  1        4 0.11603211E+00 0.12500207E+03</pdfrwt>
<pdfrwt beam="1">  1       -4 0.79683714E-03 0.12500207E+03</pdfrwt>
<totfact> 0.40127259E+03</totfact>
</mgrwt>
</event>
<event>
 5    1  0.3259432E-002  0.1250186E+03  0.7818608E-02  0.1235040E+00
          4   -1    0    0  501    0  0.00000000000E+00  0.00000000000E+00  0.22826112241E+02  0.22861415092E+02  0.12700000000E+01 0.  1.
         -4   -1    0    0    0  501 -0.00000000000E+00 -0.00000000000E+00 -0.17101170401E+03  0.17101641971E+03  0.12700000000E+01 0.  1.
         25    2    1    2    0    0  0.00000000000E+00  0.00000000000E+00 -0.14818559177E+03  0.19387783480E+03  0.12501857949E+03 0.  0.
    9000005    1    3    3    0    0 -0.14258746415E+02 -0.48633752758E+02 -0.17369881367E+02  0.53584200427E+02  0.10000000000E+01 0.  0.
    9000005    1    3    3    0    0  0.14258746415E+02  0.48633752758E+02 -0.13081571041E+03  0.14029363437E+03  0.10000000000E+01 0.  0.
<mgrwt>
<rscale>  0 0.12501858E+03</rscale>
<asrwt>0</asrwt>
<pdfrwt beam="1">  1        4 0.35147880E-02 0.12501858E+03</pdfrwt>
<pdfrwt beam="2">  1       -4 0.26312570E-01 0.12501858E+03</pdfrwt>
<totfact> 0.91139007E+03</totfact>
</mgrwt>
</event>
<event>
 5    1  0.3259432E-002  0.1249508E+03  0.7818608E-02  0.1235146E+00
         -4   -1    0    0    0  501 -0.00000000000E+00  0.00000000000E+00  0.15622483525E+04  0.15622488687E+04  0.12700000000E+01 0.  1.
          4   -1    0    0  501    0  0.00000000000E+00 -0.00000000000E+00 -0.23364920699E+01  0.26593411201E+01  0.12700000000E+01 0.  1.
         25    2    1    2    0    0  0.00000000000E+00  0.00000000000E+00  0.15599118604E+04  0.15649082098E+04  0.12495076185E+03 0.  0.
    9000005    1    3    3    0    0 -0.43696090221E+01  0.59886200043E+02  0.99569331368E+03  0.99750269440E+03  0.10000000000E+01 0.  0.
    9000005    1    3    3    0    0  0.43696090221E+01 -0.59886200043E+02  0.56421854671E+03  0.56740551538E+03  0.10000000000E+01 0.  0.
<mgrwt>
<rscale>  0 0.12495076E+03</rscale>
<asrwt>0</asrwt>
<pdfrwt beam="2">  1        4 0.38433504E-03 0.12495076E+03</pdfrwt>
<pdfrwt beam="1">  1       -4 0.24037048E+00 0.12495076E+03</pdfrwt>
<totfact> 0.16707242E+03</totfact>
</mgrwt>
</event>
<event>
 5    1  0.3259432E-002  0.1250021E+03  0.7818608E-02  0.1235066E+00
          4   -1    0    0  501    0  0.00000000000E+00  0.00000000000E+00  0.55499027448E+01  0.56933575750E+01  0.12700000000E+01 0.  1.
         -4   -1    0    0    0  501 -0.00000000000E+00 -0.00000000000E+00 -0.69474041185E+03  0.69474157265E+03  0.12700000000E+01 0.  1.
         25    2    1    2    0    0  0.00000000000E+00  0.00000000000E+00 -0.68919050911E+03  0.70043493022E+03  0.12500213449E+03 0.  0.
    9000005    1    3    3    0    0  0.13923183112E+02 -0.93969340875E+01 -0.73094373439E+01  0.18346260450E+02  0.10000000000E+01 0.  0.
    9000005    1    3    3    0    0 -0.13923183112E+02  0.93969340875E+01 -0.68188107176E+03  0.68208866977E+03  0.10000000000E+01 0.  0.
<mgrwt>
<rscale>  0 0.12500213E+03</rscale>
<asrwt>0</asrwt>
<pdfrwt beam="1">  1        4 0.86495602E-03 0.12500213E+03</pdfrwt>
<pdfrwt beam="2">  1       -4 0.10689420E+00 0.12500213E+03</pdfrwt>
<totfact> 0.43061752E+03</totfact>
</mgrwt>
</event>
<event>
 5    1  0.3259432E-002  0.1249951E+03  0.7818608E-02  0.1235077E+00
         -4   -1    0    0    0  501 -0.00000000000E+00  0.00000000000E+00  0.75551364462E+02  0.75562037903E+02  0.12700000000E+01 0.  1.
          4   -1    0    0  501    0  0.00000000000E+00 -0.00000000000E+00 -0.51677033003E+02  0.51692636226E+02  0.12700000000E+01 0.  1.
         25    2    1    2    0    0  0.00000000000E+00  0.00000000000E+00  0.23874331458E+02  0.12725467413E+03  0.12499507344E+03 0.  0.
    9000005    1    3    3    0    0  0.14248429591E+02  0.12201013520E+02 -0.48747937433E+02  0.52242165735E+02  0.10000000000E+01 0.  0.
    9000005    1    3    3    0    0 -0.14248429591E+02 -0.12201013520E+02  0.72622268891E+02  0.75012508394E+02  0.10000000000E+01 0.  0.
<mgrwt>
<rscale>  0 0.12499507E+03</rscale>
<asrwt>0</asrwt>
<pdfrwt beam="2">  1        4 0.79523341E-02 0.12499507E+03</pdfrwt>
<pdfrwt beam="1">  1       -4 0.11625308E-01 0.12499507E+03</pdfrwt>
<totfact> 0.10404774E+04</totfact>
</mgrwt>
</event>
<event>
 5    1  0.3259432E-002  0.1250284E+03  0.7818608E-02  0.1235025E+00
          4   -1    0    0  501    0  0.00000000000E+00  0.00000000000E+00  0.41349571330E+02  0.41369069958E+02  0.12700000000E+01 0. -1.
         -4   -1    0    0    0  501 -0.00000000000E+00 -0.00000000000E+00 -0.94465892192E+02  0.94474428750E+02  0.12700000000E+01 0. -1.
         25    2    1    2    0    0  0.00000000000E+00  0.00000000000E+00 -0.53116320862E+02  0.13584349871E+03  0.12502844716E+03 0.  0.
    9000005    1    3    3    0    0 -0.29906717020E+01 -0.48570807091E+02  0.16064817609E+02  0.51255690255E+02  0.10000000000E+01 0.  0.
    9000005    1    3    3    0    0  0.29906717020E+01  0.48570807091E+02 -0.69181138471E+02  0.84587808452E+02  0.10000000000E+01 0.  0.
<mgrwt>
<rscale>  0 0.12502845E+03</rscale>
<asrwt>0</asrwt>
<pdfrwt beam="1">  1        4 0.63636291E-02 0.12502845E+03</pdfrwt>
<pdfrwt beam="2">  1       -4 0.14535371E-01 0.12502845E+03</pdfrwt>
<totfact> 0.10213769E+04</totfact>
</mgrwt>
</event>
<event>
 5    1  0.3259432E-002  0.1250039E+03  0.7818608E-02  0.1235063E+00
         -4   -1    0    0    0  501 -0.00000000000E+00  0.00000000000E+00  0.31077056303E+03  0.31077315802E+03  0.12700000000E+01 0. -1.
          4   -1    0    0  501    0  0.00000000000E+00 -0.00000000000E+00 -0.12535621856E+02  0.12599790288E+02  0.12700000000E+01 0. -1.
         25    2    1    2    0    0  0.00000000000E+00  0.00000000000E+00  0.29823494118E+03  0.32337294831E+03  0.12500393418E+03 0.  0.
    9000005    1    3    3    0    0 -0.45670273119E+02 -0.33131265807E+02  0.79605273545E+02  0.97577939090E+02  0.10000000000E+01 0.  0.
    9000005    1    3    3    0    0  0.45670273119E+02  0.33131265807E+02  0.21862966763E+03  0.22579500922E+03  0.10000000000E+01 0.  0.
<mgrwt>
<rscale>  0 0.12500393E+03</rscale>
<asrwt>0</asrwt>
<pdfrwt beam="2">  1        4 0.19336929E-02 0.12500393E+03</pdfrwt>
<pdfrwt beam="1">  1       -4 0.47815991E-01 0.12500393E+03</pdfrwt>
<totfact> 0.72750401E+03</totfact>
</mgrwt>
</event>
<event>
 5    1  0.3259432E-002  0.1250008E+03  0.7818608E-02  0.1235068E+00
          4   -1    0    0  501    0  0.00000000000E+00  0.00000000000E+00  0.24763317187E+02  0.24795862117E+02  0.12700000000E+01 0.  1.
         -4   -1    0    0    0  501 -0.00000000000E+00 -0.00000000000E+00 -0.15760673819E+03  0.15761185495E+03  0.12700000000E+01 0.  1.
         25    2    1    2    0    0  0.00000000000E+00  0.00000000000E+00 -0.13284342100E+03  0.18240771707E+03  0.12500080297E+03 0.  0.
    9000005    1    3    3    0    0  0.53231355989E+02  0.16284992582E+02 -0.24979921159E+02  0.61022739244E+02  0.10000000000E+01 0.  0.
    9000005    1    3    3    0    0 -0.53231355989E+02 -0.16284992582E+02 -0.10786349984E+03  0.12138497783E+03  0.10000000000E+01 0.  0.
<mgrwt>
<rscale>  0 0.12500080E+03</rscale>
<asrwt>0</asrwt>
<pdfrwt beam="1">  1        4 0.38126383E-02 0.12500080E+03</pdfrwt>
<pdfrwt beam="2">  1       -4 0.24250087E-01 0.12500080E+03</pdfrwt>
<totfact> 0.93183716E+03</totfact>
</mgrwt>
</event>
<event>
 5    1  0.3259432E-002  0.1249949E+03  0.7818608E-02  0.1235077E+00
          4   -1    0    0  501    0  0.00000000000E+00  0.00000000000E+00  0.28239870324E+02  0.28268413042E+02  0.12700000000E+01 0.  1.
         -4   -1    0    0    0  501 -0.00000000000E+00 -0.00000000000E+00 -0.13821128968E+03  0.13821712447E+03  0.12700000000E+01 0.  1.
         25    2    1    2    0    0  0.00000000000E+00  0.00000000000E+00 -0.10997141936E+03  0.16648553751E+03  0.12499488439E+03 0.  0.
    9000005    1    3    3    0    0 -0.58167472229E+02 -0.63292193595E+00 -0.85389962548E+02  0.10332618797E+03  0.10000000000E+01 0.  0.
    9000005    1    3    3    0    0  0.58167472229E+02  0.63292193595E+00 -0.24581456812E+02  0.63159349544E+02  0.10000000000E+01 0.  0.
<mgrwt>
<rscale>  0 0.12499488E+03</rscale>
<asrwt>0</asrwt>
<pdfrwt beam="1">  1        4 0.43472399E-02 0.12499488E+03</pdfrwt>
<pdfrwt beam="2">  1       -4 0.21265919E-01 0.12499488E+03</pdfrwt>
<totfact> 0.96117837E+03</totfact>
</mgrwt>
</event>
<event>
 5    1  0.3259432E-002  0.1249965E+03  0.7818608E-02  0.1235075E+00
          4   -1    0    0  501    0  0.00000000000E+00  0.00000000000E+00  0.49560513755E+01  0.51161846367E+01  0.12700000000E+01 0.  1.
         -4   -1    0    0    0  501 -0.00000000000E+00 -0.00000000000E+00 -0.77544308721E+03  0.77544412719E+03  0.12700000000E+01 0.  1.
         25    2    1    2    0    0  0.00000000000E+00  0.00000000000E+00 -0.77048703583E+03  0.78056031183E+03  0.12499651202E+03 0.  0.
    9000005    1    3    3    0    0  0.30375139507E+02 -0.51952684892E+02 -0.49035083722E+03  0.49403104572E+03  0.10000000000E+01 0.  0.
    9000005    1    3    3    0    0 -0.30375139507E+02  0.51952684892E+02 -0.28013619861E+03  0.28652926611E+03  0.10000000000E+01 0.  0.
<mgrwt>
<rscale>  0 0.12499651E+03</rscale>
<asrwt>0</asrwt>
<pdfrwt beam="1">  1        4 0.77486800E-03 0.12499651E+03</pdfrwt>
<pdfrwt beam="2">  1       -4 0.11931124E+00 0.12499651E+03</pdfrwt>
<totfact> 0.39150444E+03</totfact>
</mgrwt>
</event>
<event>
 5    1  0.3259432E-002  0.1250020E+03  0.7818608E-02  0.1235066E+00
         -4   -1    0    0    0  501 -0.00000000000E+00  0.00000000000E+00  0.28086106609E+02  0.28114805431E+02  0.12700000000E+01 0.  1.
          4   -1    0    0  501    0  0.00000000000E+00 -0.00000000000E+00 -0.13898314500E+03  0.13898894738E+03  0.12700000000E+01 0.  1.
         25    2    1    2    0    0  0.00000000000E+00  0.00000000000E+00 -0.11089703839E+03  0.16710375281E+03  0.12500204430E+03 0.  0.
    9000005    1    3    3    0    0 -0.43616984034E+02  0.40254583137E+02 -0.81593459340E+02  0.10090275203E+03  0.10000000000E+01 0.  0.
    9000005    1    3    3    0    0  0.43616984034E+02 -0.40254583137E+02 -0.29303579053E+02  0.66201000786E+02  0.10000000000E+01 0.  0.
<mgrwt>
<rscale>  0 0.12500204E+03</rscale>
<asrwt>0</asrwt>
<pdfrwt beam="2">  1        4 0.21384676E-01 0.12500204E+03</pdfrwt>
<pdfrwt beam="1">  1       -4 0.43235935E-02 0.12500204E+03</pdfrwt>
<totfact> 0.95986045E+03</totfact>
</mgrwt>
</event>
<event>
 5    1  0.3259432E-002  0.1250016E+03  0.7818608E-02  0.1235067E+00
         -4   -1    0    0    0  501 -0.00000000000E+00  0.00000000000E+00  0.21988121938E+02  0.22024768021E+02  0.12700000000E+01 0.  1.
          4   -1    0    0  501    0  0.00000000000E+00 -0.00000000000E+00 -0.17747035259E+03  0.17747489667E+03  0.12700000000E+01 0.  1.
         25    2    1    2    0    0  0.00000000000E+00  0.00000000000E+00 -0.15548223066E+03  0.19949966470E+03  0.12500156865E+03 0.  0.
    9000005    1    3    3    0    0 -0.49178731503E+02 -0.30317777081E+02 -0.39716883504E+02  0.70115234255E+02  0.10000000000E+01 0.  0.
    9000005    1    3    3    0    0  0.49178731503E+02  0.30317777081E+02 -0.11576534715E+03  0.12938443044E+03  0.10000000000E+01 0.  0.
<mgrwt>
<rscale>  0 0.12500157E+03</rscale>
<asrwt>0</asrwt>
<pdfrwt beam="2">  1        4 0.27306299E-01 0.12500157E+03</pdfrwt>
<pdfrwt beam="1">  1       -4 0.33859566E-02 0.12500157E+03</pdfrwt>
<totfact> 0.90216794E+03</totfact>
</mgrwt>
</event>
<event>
 5    1  0.3259432E-002  0.1250038E+03  0.7818608E-02  0.1235063E+00
         -4   -1    0    0    0  501 -0.00000000000E+00  0.00000000000E+00  0.15830169985E+03  0.15830679415E+03  0.12700000000E+01 0.  1.
          4   -1    0    0  501    0  0.00000000000E+00 -0.00000000000E+00 -0.24655641514E+02  0.24688328385E+02  0.12700000000E+01 0.  1.
         25    2    1    2    0    0  0.00000000000E+00  0.00000000000E+00  0.13364605833E+03  0.18299512253E+03  0.12500378380E+03 0.  0.
    9000005    1    3    3    0    0  0.56528488319E+02 -0.14059140205E+02  0.99959230826E+02  0.11569778409E+03  0.10000000000E+01 0.  0.
    9000005    1    3    3    0    0 -0.56528488319E+02  0.14059140205E+02  0.33686827505E+02  0.67297338449E+02  0.10000000000E+01 0.  0.
<mgrwt>
<rscale>  0 0.12500378E+03</rscale>
<asrwt>0</asrwt>
<pdfrwt beam="2">  1        4 0.37960819E-02 0.12500378E+03</pdfrwt>
<pdfrwt beam="1">  1       -4 0.24357013E-01 0.12500378E+03</pdfrwt>
<totfact> 0.93072739E+03</totfact>
</mgrwt>
</event>
<event>
 5    1  0.3259432E-002  0.1250126E+03  0.7818608E-02  0.1235050E+00
         -4   -1    0    0    0  501 -0.00000000000E+00  0.00000000000E+00  0.88187715192E+02  0.88196859416E+02  0.12700000000E+01 0.  1.
          4   -1    0    0  501    0  0.00000000000E+00 -0.00000000000E+00 -0.44283069612E+02  0.44301277117E+02  0.12700000000E+01 0.  1.
         25    2    1    2    0    0  0.00000000000E+00  0.00000000000E+00  0.43904645580E+02  0.13249813653E+03  0.12501255249E+03 0.  0.
    9000005    1    3    3    0    0 -0.38499835533E+01  0.19189842459E+02  0.84860939539E+02  0.87094497452E+02  0.10000000000E+01 0.  0.
    9000005    1    3    3    0    0  0.38499835533E+01 -0.19189842459E+02 -0.40956293959E+02  0.45403639081E+02  0.10000000000E+01 0.  0.
<mgrwt>
<rscale>  0 0.12501255E+03</rscale>
<asrwt>0</asrwt>
<pdfrwt beam="2">  1        4 0.68148839E-02 0.12501255E+03</pdfrwt>
<pdfrwt beam="1">  1       -4 0.13569445E-01 0.12501255E+03</pdfrwt>
<totfact> 0.10288164E+04</totfact>
</mgrwt>
</event>
<event>
 5    1  0.3259432E-002  0.1249952E+03  0.7818608E-02  0.1235077E+00
          4   -1    0    0  501    0  0.00000000000E+00  0.00000000000E+00  0.10733709848E+02  0.10808581179E+02  0.12700000000E+01 0. -1.
         -4   -1    0    0    0  501 -0.00000000000E+00 -0.00000000000E+00 -0.36255487937E+03  0.36255710371E+03  0.12700000000E+01 0. -1.
         25    2    1    2    0    0  0.00000000000E+00  0.00000000000E+00 -0.35182116952E+03  0.37336568489E+03  0.12499519724E+03 0.  0.
    9000005    1    3    3    0    0 -0.27145161614E+02 -0.54957049191E+02 -0.21222650592E+03  0.22090320702E+03  0.10000000000E+01 0.  0.
    9000005    1    3    3    0    0  0.27145161614E+02  0.54957049191E+02 -0.13959466360E+03  0.15246247787E+03  0.10000000000E+01 0.  0.
<mgrwt>
<rscale>  0 0.12499520E+03</rscale>
<asrwt>0</asrwt>
<pdfrwt beam="1">  1        4 0.16572707E-02 0.12499520E+03</pdfrwt>
<pdfrwt beam="2">  1       -4 0.55783595E-01 0.12499520E+03</pdfrwt>
<totfact> 0.67235429E+03</totfact>
</mgrwt>
</event>
<event>
 5    1  0.3259432E-002  0.1249999E+03  0.7818608E-02  0.1235069E+00
         -4   -1    0    0    0  501 -0.00000000000E+00  0.00000000000E+00  0.83137878924E+02  0.83147578509E+02  0.12700000000E+01 0.  1.
          4   -1    0    0  501    0  0.00000000000E+00 -0.00000000000E+00 -0.46964124384E+02  0.46981292864E+02  0.12700000000E+01 0.  1.
         25    2    1    2    0    0  0.00000000000E+00  0.00000000000E+00  0.36173754540E+02  0.13012887137E+03  0.12499993059E+03 0.  0.
    9000005    1    3    3    0    0 -0.27785944481E+02  0.55033309167E+02  0.74437954597E+01  0.62105828385E+02  0.10000000000E+01 0.  0.
    9000005    1    3    3    0    0  0.27785944481E+02 -0.55033309167E+02  0.28729959080E+02  0.68023042988E+02  0.10000000000E+01 0.  0.
<mgrwt>
<rscale>  0 0.12499993E+03</rscale>
<asrwt>0</asrwt>
<pdfrwt beam="2">  1        4 0.72273167E-02 0.12499993E+03</pdfrwt>
<pdfrwt beam="1">  1       -4 0.12792510E-01 0.12499993E+03</pdfrwt>
<totfact> 0.10341768E+04</totfact>
</mgrwt>
</event>
<event>
 5    1  0.3259432E-002  0.1250015E+03  0.7818608E-02  0.1235067E+00
          4   -1    0    0  501    0  0.00000000000E+00  0.00000000000E+00  0.59722136724E+02  0.59735638566E+02  0.12700000000E+01 0.  1.
         -4   -1    0    0    0  501 -0.00000000000E+00 -0.00000000000E+00 -0.65381537920E+02  0.65393871279E+02  0.12700000000E+01 0.  1.
         25    2    1    2    0    0  0.00000000000E+00  0.00000000000E+00 -0.56594011965E+01  0.12512950984E+03  0.12500146164E+03 0.  0.
    9000005    1    3    3    0    0 -0.30394527467E+02 -0.32306811978E+02 -0.46895061325E+02  0.64557758455E+02  0.10000000000E+01 0.  0.
    9000005    1    3    3    0    0  0.30394527467E+02  0.32306811978E+02  0.41235660128E+02  0.60571751389E+02  0.10000000000E+01 0.  0.
<mgrwt>
<rscale>  0 0.12500146E+03</rscale>
<asrwt>0</asrwt>
<pdfrwt beam="1">  1        4 0.91900084E-02 0.12500146E+03</pdfrwt>
<pdfrwt beam="2">  1       -4 0.10060685E-01 0.12500146E+03</pdfrwt>
<totfact> 0.10449705E+04</totfact>
</mgrwt>
</event>
<event>
 5    1  0.3259432E-002  0.1250064E+03  0.7818608E-02  0.1235059E+00
         -4   -1    0    0    0  501 -0.00000000000E+00  0.00000000000E+00  0.64567271448E+02  0.64579760314E+02  0.12700000000E+01 0. -1.
          4   -1    0    0  501    0  0.00000000000E+00 -0.00000000000E+00 -0.60480080324E+02  0.60493412997E+02  0.12700000000E+01 0. -1.
         25    2    1    2    0    0  0.00000000000E+00  0.00000000000E+00  0.40871911237E+01  0.12507317331E+03  0.12500637404E+03 0.  0.
    9000005    1    3    3    0    0 -0.43136292651E+02 -0.33673362802E+02 -0.28155529798E+02  0.61549727572E+02  0.10000000000E+01 0.  0.
    9000005    1    3    3    0    0  0.43136292651E+02  0.33673362802E+02  0.32242720921E+02  0.63523445738E+02  0.10000000000E+01 0.  0.
<mgrwt>
<rscale>  0 0.12500637E+03</rscale>
<asrwt>0</asrwt>
<pdfrwt beam="2">  1        4 0.93066140E-02 0.12500637E+03</pdfrwt>
<pdfrwt beam="1">  1       -4 0.99354126E-02 0.12500637E+03</pdfrwt>
<totfact> 0.10449768E+04</totfact>
</mgrwt>
</event>
<event>
 5    1  0.3259432E-002  0.1249990E+03  0.7818608E-02  0.1235071E+00
          4   -1    0    0  501    0  0.00000000000E+00  0.00000000000E+00  0.33904728537E+03  0.33904966394E+03  0.12700000000E+01 0.  1.
         -4   -1    0    0    0  501 -0.00000000000E+00 -0.00000000000E+00 -0.11483642851E+02  0.11553655402E+02  0.12700000000E+01 0.  1.
         25    2    1    2    0    0  0.00000000000E+00  0.00000000000E+00  0.32756364252E+03  0.35060331934E+03  0.12499899052E+03 0.  0.
    9000005    1    3    3    0    0  0.31471671841E+02  0.52116933990E+02  0.12425971721E+03  0.13837672586E+03  0.10000000000E+01 0.  0.
    9000005    1    3    3    0    0 -0.31471671841E+02 -0.52116933990E+02  0.20330392531E+03  0.21222659348E+03  0.10000000000E+01 0.  0.
<mgrwt>
<rscale>  0 0.12499899E+03</rscale>
<asrwt>0</asrwt>
<pdfrwt beam="1">  1        4 0.52166686E-01 0.12499899E+03</pdfrwt>
<pdfrwt beam="2">  1       -4 0.17722830E-02 0.12499899E+03</pdfrwt>
<totfact> 0.69659791E+03</totfact>
</mgrwt>
</event>
<event>
 5    1  0.3259432E-002  0.1249977E+03  0.7818608E-02  0.1235073E+00
         -4   -1    0    0    0  501 -0.00000000000E+00  0.00000000000E+00  0.21067816044E+02  0.21106060098E+02  0.12700000000E+01 0. -1.
          4   -1    0    0  501    0  0.00000000000E+00 -0.00000000000E+00 -0.18519768660E+03  0.18520204108E+03  0.12700000000E+01 0. -1.
         25    2    1    2    0    0  0.00000000000E+00  0.00000000000E+00 -0.16412987055E+03  0.20630810118E+03  0.12499767280E+03 0.  0.
    9000005    1    3    3    0    0  0.44926121798E+02  0.32850713169E+01 -0.15355171424E+03  0.16002586372E+03  0.10000000000E+01 0.  0.
    9000005    1    3    3    0    0 -0.44926121798E+02 -0.32850713169E+01 -0.10578156313E+02  0.46282237460E+02  0.10000000000E+01 0.  0.
<mgrwt>
<rscale>  0 0.12499767E+03</rscale>
<asrwt>0</asrwt>
<pdfrwt beam="2">  1        4 0.28495227E-01 0.12499767E+03</pdfrwt>
<pdfrwt beam="1">  1       -4 0.32444794E-02 0.12499767E+03</pdfrwt>
<totfact> 0.89087025E+03</totfact>
</mgrwt>
</event>
<event>
 5    1  0.3259432E-002  0.1249936E+03  0.7818608E-02  0.1235079E+00
          4   -1    0    0  501    0  0.00000000000E+00  0.00000000000E+00  0.20256562707E+03  0.20256960821E+03  0.12700000000E+01 0. -1.
         -4   -1    0    0    0  501 -0.00000000000E+00 -0.00000000000E+00 -0.19256808861E+02  0.19298642116E+02  0.12700000000E+01 0. -1.
         25    2    1    2    0    0  0.00000000000E+00  0.00000000000E+00  0.18330881821E+03  0.22186825032E+03  0.12499359051E+03 0.  0.
    9000005    1    3    3    0    0  0.21476121897E+02 -0.48812814137E+02  0.33837914279E+02  0.63165806244E+02  0.10000000000E+01 0.  0.
    9000005    1    3    3    0    0 -0.21476121897E+02  0.48812814137E+02  0.14947090393E+03  0.15870244408E+03  0.10000000000E+01 0.  0.
<mgrwt>
<rscale>  0 0.12499359E+03</rscale>
<asrwt>0</asrwt>
<pdfrwt beam="1">  1        4 0.31167464E-01 0.12499359E+03</pdfrwt>
<pdfrwt beam="2">  1       -4 0.29661104E-02 0.12499359E+03</pdfrwt>
<totfact> 0.86585980E+03</totfact>
</mgrwt>
</event>
<event>
 5    1  0.3259432E-002  0.1250013E+03  0.7818608E-02  0.1235067E+00
          4   -1    0    0  501    0  0.00000000000E+00  0.00000000000E+00  0.21361158538E+02  0.21398878337E+02  0.12700000000E+01 0. -1.
         -4   -1    0    0    0  501 -0.00000000000E+00 -0.00000000000E+00 -0.18266952490E+03  0.18267393965E+03  0.12700000000E+01 0. -1.
         25    2    1    2    0    0  0.00000000000E+00  0.00000000000E+00 -0.16130836636E+03  0.20407281798E+03  0.12500130392E+03 0.  0.
    9000005    1    3    3    0    0  0.26088067999E+02  0.20533727158E+02  0.57810301555E+01  0.33714115035E+02  0.10000000000E+01 0.  0.
    9000005    1    3    3    0    0 -0.26088067999E+02 -0.20533727158E+02 -0.16708939651E+03  0.17035870295E+03  0.10000000000E+01 0.  0.
<mgrwt>
<rscale>  0 0.12500130E+03</rscale>
<asrwt>0</asrwt>
<pdfrwt beam="1">  1        4 0.32895733E-02 0.12500130E+03</pdfrwt>
<pdfrwt beam="2">  1       -4 0.28106244E-01 0.12500130E+03</pdfrwt>
<totfact> 0.89450501E+03</totfact>
</mgrwt>
</event>
<event>
 5    1  0.3259432E-002  0.1250005E+03  0.7818608E-02  0.1235069E+00
         -4   -1    0    0    0  501 -0.00000000000E+00  0.00000000000E+00  0.86411113740E+02  0.86420445948E+02  0.12700000000E+01 0. -1.
          4   -1    0    0  501    0  0.00000000000E+00 -0.00000000000E+00 -0.45185072878E+02  0.45202917063E+02  0.12700000000E+01 0. -1.
         25    2    1    2    0    0  0.00000000000E+00  0.00000000000E+00  0.41226040862E+02  0.13162336301E+03  0.12500049298E+03 0.  0.
    9000005    1    3    3    0    0  0.13258298174E+02 -0.70295339195E-02  0.84918275233E+02  0.85952870740E+02  0.10000000000E+01 0.  0.
    9000005    1    3    3    0    0 -0.13258298174E+02  0.70295339195E-02 -0.43692234372E+02  0.45670492271E+02  0.10000000000E+01 0.  0.
<mgrwt>
<rscale>  0 0.12500049E+03</rscale>
<asrwt>0</asrwt>
<pdfrwt beam="2">  1        4 0.69536402E-02 0.12500049E+03</pdfrwt>
<pdfrwt beam="1">  1       -4 0.13296108E-01 0.12500049E+03</pdfrwt>
<totfact> 0.10309629E+04</totfact>
</mgrwt>
</event>
<event>
 5    1  0.3259432E-002  0.1250009E+03  0.7818608E-02  0.1235068E+00
         -4   -1    0    0    0  501 -0.00000000000E+00  0.00000000000E+00  0.11176185211E+02  0.11248111658E+02  0.12700000000E+01 0. -1.
          4   -1    0    0  501    0  0.00000000000E+00 -0.00000000000E+00 -0.34832643048E+03  0.34832874569E+03  0.12700000000E+01 0. -1.
         25    2    1    2    0    0  0.00000000000E+00  0.00000000000E+00 -0.33715024527E+03  0.35957685735E+03  0.12500091381E+03 0.  0.
    9000005    1    3    3    0    0 -0.50048289062E+02 -0.34784487014E+02 -0.12887027648E+03  0.14255995207E+03  0.10000000000E+01 0.  0.
    9000005    1    3    3    0    0  0.50048289062E+02  0.34784487014E+02 -0.20827996880E+03  0.21701690528E+03  0.10000000000E+01 0.  0.
<mgrwt>
<rscale>  0 0.12500091E+03</rscale>
<asrwt>0</asrwt>
<pdfrwt beam="2">  1        4 0.53594384E-01 0.12500091E+03</pdfrwt>
<pdfrwt beam="1">  1       -4 0.17251243E-02 0.12500091E+03</pdfrwt>
<totfact> 0.68682292E+03</totfact>
</mgrwt>
</event>
<event>
 5    1  0.3259432E-002  0.1250007E+03  0.7818608E-02  0.1235068E+00
          4   -1    0    0  501    0  0.00000000000E+00  0.00000000000E+00  0.41814714467E+03  0.41814907329E+03  0.12700000000E+01 0.  1.
         -4   -1    0    0    0  501 -0.00000000000E+00 -0.00000000000E+00 -0.92967890148E+01  0.93831330580E+01  0.12700000000E+01 0.  1.
         25    2    1    2    0    0  0.00000000000E+00  0.00000000000E+00  0.40885035565E+03  0.42753220635E+03  0.12500069659E+03 0.  0.
    9000005    1    3    3    0    0 -0.15924166384E+02  0.24634695973E+02  0.39315437145E+03  0.39424840788E+03  0.10000000000E+01 0.  0.
    9000005    1    3    3    0    0  0.15924166384E+02 -0.24634695973E+02  0.15695984200E+02  0.33283798472E+02  0.10000000000E+01 0.  0.
<mgrwt>
<rscale>  0 0.12500070E+03</rscale>
<asrwt>0</asrwt>
<pdfrwt beam="1">  1        4 0.64337124E-01 0.12500070E+03</pdfrwt>
<pdfrwt beam="2">  1       -4 0.14370654E-02 0.12500070E+03</pdfrwt>
<totfact> 0.61959364E+03</totfact>
</mgrwt>
</event>
<event>
 5    1  0.3259432E-002  0.1249983E+03  0.7818608E-02  0.1235072E+00
          4   -1    0    0  501    0  0.00000000000E+00  0.00000000000E+00  0.23024140520E+01  0.26294506017E+01  0.12700000000E+01 0.  1.
         -4   -1    0    0    0  501 -0.00000000000E+00 -0.00000000000E+00 -0.15837156163E+04  0.15837161255E+04  0.12700000000E+01 0.  1.
         25    2    1    2    0    0  0.00000000000E+00  0.00000000000E+00 -0.15814132023E+04  0.15863455761E+04  0.12499828246E+03 0.  0.
    9000005    1    3    3    0    0 -0.38519981268E+02  0.30772266534E+02 -0.30339746266E+03  0.30737882440E+03  0.10000000000E+01 0.  0.
    9000005    1    3    3    0    0  0.38519981268E+02 -0.30772266534E+02 -0.12780157396E+04  0.12789667517E+04  0.10000000000E+01 0.  0.
<mgrwt>
<rscale>  0 0.12499828E+03</rscale>
<asrwt>0</asrwt>
<pdfrwt beam="1">  1        4 0.37941464E-03 0.12499828E+03</pdfrwt>
<pdfrwt beam="2">  1       -4 0.24367294E+00 0.12499828E+03</pdfrwt>
<totfact> 0.16294828E+03</totfact>
</mgrwt>
</event>
<event>
 5    1  0.3259432E-002  0.1249987E+03  0.7818608E-02  0.1235071E+00
         -4   -1    0    0    0  501 -0.00000000000E+00  0.00000000000E+00  0.20379953024E+03  0.20380348728E+03  0.12700000000E+01 0.  1.
          4   -1    0    0  501    0  0.00000000000E+00 -0.00000000000E+00 -0.19141542435E+02  0.19183627050E+02  0.12700000000E+01 0.  1.
         25    2    1    2    0    0  0.00000000000E+00  0.00000000000E+00  0.18465798781E+03  0.22298711433E+03  0.12499872278E+03 0.  0.
    9000005    1    3    3    0    0  0.58734438862E+01  0.27035372459E+02 -0.76301480539E+01  0.28716334488E+02  0.10000000000E+01 0.  0.
    9000005    1    3    3    0    0 -0.58734438862E+01 -0.27035372459E+02  0.19228813586E+03  0.19427077984E+03  0.10000000000E+01 0.  0.
<mgrwt>
<rscale>  0 0.12499872E+03</rscale>
<asrwt>0</asrwt>
<pdfrwt beam="2">  1        4 0.29483945E-02 0.12499872E+03</pdfrwt>
<pdfrwt beam="1">  1       -4 0.31357314E-01 0.12499872E+03</pdfrwt>
<totfact> 0.86400339E+03</totfact>
</mgrwt>
</event>
<event>
 5    1  0.3259432E-002  0.1250055E+03  0.7818608E-02  0.1235061E+00
         -4   -1    0    0    0  501 -0.00000000000E+00  0.00000000000E+00  0.29638492635E+02  0.29665689705E+02  0.12700000000E+01 0.  1.
          4   -1    0    0  501    0  0.00000000000E+00 -0.00000000000E+00 -0.13171746202E+03  0.13172358445E+03  0.12700000000E+01 0.  1.
         25    2    1    2    0    0  0.00000000000E+00  0.00000000000E+00 -0.10207896938E+03  0.16138927415E+03  0.12500552717E+03 0.  0.
    9000005    1    3    3    0    0 -0.30486106774E+02 -0.52786685614E+02 -0.68824168701E+02  0.91943477647E+02  0.10000000000E+01 0.  0.
    9000005    1    3    3    0    0  0.30486106774E+02  0.52786685614E+02 -0.33254800681E+02  0.69445796508E+02  0.10000000000E+01 0.  0.
<mgrwt>
<rscale>  0 0.12500553E+03</rscale>
<asrwt>0</asrwt>
<pdfrwt beam="2">  1        4 0.20266788E-01 0.12500553E+03</pdfrwt>
<pdfrwt beam="1">  1       -4 0.45623312E-02 0.12500553E+03</pdfrwt>
<totfact> 0.97063553E+03</totfact>
</mgrwt>
</event>
<event>
 5    1  0.3259432E-002  0.1249984E+03  0.7818608E-02  0.1235072E+00
          4   -1    0    0  501    0  0.00000000000E+00  0.00000000000E+00  0.34493197955E+03  0.34493431754E+03  0.12700000000E+01 0.  1.
         -4   -1    0    0    0  501 -0.00000000000E+00 -0.00000000000E+00 -0.11286419072E+02  0.11357647444E+02  0.12700000000E+01 0.  1.
         25    2    1    2    0    0  0.00000000000E+00  0.00000000000E+00  0.33364556048E+03  0.35629196498E+03  0.12499841713E+03 0.  0.
    9000005    1    3    3    0    0 -0.41044017803E+02 -0.38132996567E+02  0.24573300845E+03  0.25204056870E+03  0.10000000000E+01 0.  0.
    9000005    1    3    3    0    0  0.41044017803E+02  0.38132996567E+02  0.87912552025E+02  0.10425139629E+03  0.10000000000E+01 0.  0.
<mgrwt>
<rscale>  0 0.12499842E+03</rscale>
<asrwt>0</asrwt>
<pdfrwt beam="1">  1        4 0.53072121E-01 0.12499842E+03</pdfrwt>
<pdfrwt beam="2">  1       -4 0.17420310E-02 0.12499842E+03</pdfrwt>
<totfact> 0.69040278E+03</totfact>
</mgrwt>
</event>
<event>
 5    1  0.3259432E-002  0.1250060E+03  0.7818608E-02  0.1235060E+00
          4   -1    0    0  501    0  0.00000000000E+00  0.00000000000E+00  0.93924028990E+02  0.93932614792E+02  0.12700000000E+01 0.  1.
         -4   -1    0    0    0  501 -0.00000000000E+00 -0.00000000000E+00 -0.41573289505E+02  0.41592683254E+02  0.12700000000E+01 0.  1.
         25    2    1    2    0    0  0.00000000000E+00  0.00000000000E+00  0.52350739485E+02  0.13552529805E+03  0.12500602580E+03 0.  0.
    9000005    1    3    3    0    0  0.37945945486E+02  0.47031978641E+02  0.43444517522E+02  0.74433378913E+02  0.10000000000E+01 0.  0.
    9000005    1    3    3    0    0 -0.37945945486E+02 -0.47031978641E+02  0.89062219624E+01  0.61091919133E+02  0.10000000000E+01 0.  0.
<mgrwt>
<rscale>  0 0.12500603E+03</rscale>
<asrwt>0</asrwt>
<pdfrwt beam="1">  1        4 0.14452003E-01 0.12500603E+03</pdfrwt>
<pdfrwt beam="2">  1       -4 0.63980430E-02 0.12500603E+03</pdfrwt>
<totfact> 0.10225621E+04</totfact>
</mgrwt>
</event>
<event>
 5    1  0.3259432E-002  0.1249835E+03  0.7818608E-02  0.1235095E+00
          4   -1    0    0  501    0  0.00000000000E+00  0.00000000000E+00  0.11739197149E+02  0.11807694512E+02  0.12700000000E+01 0.  1.
         -4   -1    0    0    0  501 -0.00000000000E+00 -0.00000000000E+00 -0.33162741976E+03  0.33162985155E+03  0.12700000000E+01 0.  1.
         25    2    1    2    0    0  0.00000000000E+00  0.00000000000E+00 -0.31988822261E+03  0.34343754606E+03  0.12498349122E+03 0.  0.
    9000005    1    3    3    0    0 -0.30543110574E+02  0.34665599879E+02 -0.27553848770E+03  0.27938690668E+03  0.10000000000E+01 0.  0.
    9000005    1    3    3    0    0  0.30543110574E+02 -0.34665599879E+02 -0.44349734911E+02  0.64050639381E+02  0.10000000000E+01 0.  0.
<mgrwt>
<rscale>  0 0.12498349E+03</rscale>
<asrwt>0</asrwt>
<pdfrwt beam="1">  1        4 0.18114867E-02 0.12498349E+03</pdfrwt>
<pdfrwt beam="2">  1       -4 0.51025052E-01 0.12498349E+03</pdfrwt>
<totfact> 0.70478349E+03</totfact>
</mgrwt>
</event>
<event>
 5    1  0.3259432E-002  0.1249944E+03  0.7818608E-02  0.1235078E+00
         -4   -1    0    0    0  501 -0.00000000000E+00  0.00000000000E+00  0.12609169089E+03  0.12609808647E+03  0.12700000000E+01 0. -1.
          4   -1    0    0  501    0  0.00000000000E+00 -0.00000000000E+00 -0.30956471104E+02  0.30982511248E+02  0.12700000000E+01 0. -1.
         25    2    1    2    0    0  0.00000000000E+00  0.00000000000E+00  0.95135219790E+02  0.15708059772E+03  0.12499441642E+03 0.  0.
    9000005    1    3    3    0    0  0.35067245760E+02  0.43737410364E+02  0.82263213746E+02  0.99553549039E+02  0.10000000000E+01 0.  0.
    9000005    1    3    3    0    0 -0.35067245760E+02 -0.43737410364E+02  0.12872006044E+02  0.57527048683E+02  0.10000000000E+01 0.  0.
<mgrwt>
<rscale>  0 0.12499442E+03</rscale>
<asrwt>0</asrwt>
<pdfrwt beam="2">  1        4 0.47650291E-02 0.12499442E+03</pdfrwt>
<pdfrwt beam="1">  1       -4 0.19401217E-01 0.12499442E+03</pdfrwt>
<totfact> 0.97920886E+03</totfact>
</mgrwt>
</event>
<event>
 5    1  0.3259432E-002  0.1249973E+03  0.7818608E-02  0.1235073E+00
          4   -1    0    0  501    0  0.00000000000E+00  0.00000000000E+00  0.23930467429E+03  0.23930804424E+03  0.12700000000E+01 0.  1.
         -4   -1    0    0    0  501 -0.00000000000E+00 -0.00000000000E+00 -0.16294441225E+02  0.16343858627E+02  0.12700000000E+01 0.  1.
         25    2    1    2    0    0  0.00000000000E+00  0.00000000000E+00  0.22301023307E+03  0.25565190287E+03  0.12499732552E+03 0.  0.
    9000005    1    3    3    0    0 -0.51886802137E+02 -0.74178967197E+01  0.41911669455E+02  0.67118205162E+02  0.10000000000E+01 0.  0.
    9000005    1    3    3    0    0  0.51886802137E+02  0.74178967197E+01  0.18109856361E+03  0.18853369770E+03  0.10000000000E+01 0.  0.
<mgrwt>
<rscale>  0 0.12499733E+03</rscale>
<asrwt>0</asrwt>
<pdfrwt beam="1">  1        4 0.36820160E-01 0.12499733E+03</pdfrwt>
<pdfrwt beam="2">  1       -4 0.25108980E-02 0.12499733E+03</pdfrwt>
<totfact> 0.81525010E+03</totfact>
</mgrwt>
</event>
<event>
 5    1  0.3259432E-002  0.1250018E+03  0.7818608E-02  0.1235066E+00
          4   -1    0    0  501    0  0.00000000000E+00  0.00000000000E+00  0.63566714719E+01  0.64822968308E+01  0.12700000000E+01 0.  1.
         -4   -1    0    0    0  501 -0.00000000000E+00 -0.00000000000E+00 -0.60839041782E+03  0.60839174337E+03  0.12700000000E+01 0.  1.
         25    2    1    2    0    0  0.00000000000E+00  0.00000000000E+00 -0.60203374635E+03  0.61487404020E+03  0.12500181425E+03 0.  0.
    9000005    1    3    3    0    0 -0.17193711594E+02 -0.43706471600E+02 -0.50379839740E+03  0.50598389757E+03  0.10000000000E+01 0.  0.
    9000005    1    3    3    0    0  0.17193711594E+02  0.43706471600E+02 -0.98235348952E+02  0.10889014263E+03  0.10000000000E+01 0.  0.
<mgrwt>
<rscale>  0 0.12500181E+03</rscale>
<asrwt>0</asrwt>
<pdfrwt beam="1">  1        4 0.98771539E-03 0.12500181E+03</pdfrwt>
<pdfrwt beam="2">  1       -4 0.93608246E-01 0.12500181E+03</pdfrwt>
<totfact> 0.47940090E+03</totfact>
</mgrwt>
</event>
<event>
 5    1  0.3259432E-002  0.1249924E+03  0.7818608E-02  0.1235081E+00
          4   -1    0    0  501    0  0.00000000000E+00  0.00000000000E+00  0.93720414860E+02  0.93729019314E+02  0.12700000000E+01 0. -1.
         -4   -1    0    0    0  501 -0.00000000000E+00 -0.00000000000E+00 -0.41654530321E+02  0.41673886263E+02  0.12700000000E+01 0. -1.
         25    2    1    2    0    0  0.00000000000E+00  0.00000000000E+00  0.52065884539E+02  0.13540290558E+03  0.12499236179E+03 0.  0.
    9000005    1    3    3    0    0 -0.48617425247E+02 -0.11060931521E+02  0.66836795679E+02  0.83391579314E+02  0.10000000000E+01 0.  0.
    9000005    1    3    3    0    0  0.48617425247E+02  0.11060931521E+02 -0.14770911140E+02  0.52011326263E+02  0.10000000000E+01 0.  0.
<mgrwt>
<rscale>  0 0.12499236E+03</rscale>
<asrwt>0</asrwt>
<pdfrwt beam="1">  1        4 0.14420676E-01 0.12499236E+03</pdfrwt>
<pdfrwt beam="2">  1       -4 0.64105401E-02 0.12499236E+03</pdfrwt>
<totfact> 0.10231348E+04</totfact>
</mgrwt>
</event>
<event>
 5    1  0.3259432E-002  0.1250002E+03  0.7818608E-02  0.1235069E+00
         -4   -1    0    0    0  501 -0.00000000000E+00  0.00000000000E+00  0.12288376691E+02  0.12353829435E+02  0.12700000000E+01 0. -1.
          4   -1    0    0  501    0  0.00000000000E+00 -0.00000000000E+00 -0.31697151486E+03  0.31697405909E+03  0.12700000000E+01 0. -1.
         25    2    1    2    0    0  0.00000000000E+00  0.00000000000E+00 -0.30468313817E+03  0.32932788852E+03  0.12500017389E+03 0.  0.
    9000005    1    3    3    0    0 -0.46273483157E+02 -0.10855580551E+02 -0.45446710701E+02  0.65768399601E+02  0.10000000000E+01 0.  0.
    9000005    1    3    3    0    0  0.46273483157E+02  0.10855580551E+02 -0.25923642747E+03  0.26355948892E+03  0.10000000000E+01 0.  0.
<mgrwt>
<rscale>  0 0.12500017E+03</rscale>
<asrwt>0</asrwt>
<pdfrwt beam="2">  1        4 0.48770073E-01 0.12500017E+03</pdfrwt>
<pdfrwt beam="1">  1       -4 0.18957503E-02 0.12500017E+03</pdfrwt>
<totfact> 0.72059986E+03</totfact>
</mgrwt>
</event>
<event>
 5    1  0.3259432E-002  0.1250035E+03  0.7818608E-02  0.1235064E+00
         -4   -1    0    0    0  501 -0.00000000000E+00  0.00000000000E+00  0.10853384062E+03  0.10854127076E+03  0.12700000000E+01 0.  1.
          4   -1    0    0  501    0  0.00000000000E+00 -0.00000000000E+00 -0.35973244211E+02  0.35995655280E+02  0.12700000000E+01 0.  1.
         25    2    1    2    0    0  0.00000000000E+00  0.00000000000E+00  0.72560596407E+02  0.14453692604E+03  0.12500353131E+03 0.  0.
    9000005    1    3    3    0    0 -0.83566339572E+01 -0.61105959095E+02  0.47940744589E+02  0.78122253934E+02  0.10000000000E+01 0.  0.
    9000005    1    3    3    0    0  0.83566339572E+01  0.61105959095E+02  0.24619851818E+02  0.66414672110E+02  0.10000000000E+01 0.  0.
<mgrwt>
<rscale>  0 0.12500353E+03</rscale>
<asrwt>0</asrwt>
<pdfrwt beam="2">  1        4 0.55366409E-02 0.12500353E+03</pdfrwt>
<pdfrwt beam="1">  1       -4 0.16699809E-01 0.12500353E+03</pdfrwt>
<totfact> 0.10039607E+04</totfact>
</mgrwt>
</event>
<event>
 5    1  0.3259432E-002  0.1249997E+03  0.7818608E-02  0.1235070E+00
          4   -1    0    0  501    0  0.00000000000E+00  0.00000000000E+00  0.27103654413E+03  0.27103951954E+03  0.12700000000E+01 0. -1.
         -4   -1    0    0    0  501 -0.00000000000E+00 -0.00000000000E+00 -0.14381163541E+02  0.14437131460E+02  0.12700000000E+01 0. -1.
         25    2    1    2    0    0  0.00000000000E+00  0.00000000000E+00  0.25665538059E+03  0.28547665101E+03  0.12499973553E+03 0.  0.
    9000005    1    3    3    0    0 -0.50027576357E+02  0.22448624005E+02  0.19678642098E+03  0.20428557120E+03  0.10000000000E+01 0.  0.
    9000005    1    3    3    0    0  0.50027576357E+02 -0.22448624005E+02  0.59868959607E+02  0.81191079808E+02  0.10000000000E+01 0.  0.
<mgrwt>
<rscale>  0 0.12499974E+03</rscale>
<asrwt>0</asrwt>
<pdfrwt beam="1">  1        4 0.41702462E-01 0.12499974E+03</pdfrwt>
<pdfrwt beam="2">  1       -4 0.22170209E-02 0.12499974E+03</pdfrwt>
<totfact> 0.77457956E+03</totfact>
</mgrwt>
</event>
<event>
 5    1  0.3259432E-002  0.1250115E+03  0.7818608E-02  0.1235051E+00
          4   -1    0    0  501    0  0.00000000000E+00  0.00000000000E+00  0.95363396326E+02  0.95371852550E+02  0.12700000000E+01 0.  1.
         -4   -1    0    0    0  501 -0.00000000000E+00 -0.00000000000E+00 -0.40949167729E+02  0.40968856925E+02  0.12700000000E+01 0.  1.
         25    2    1    2    0    0  0.00000000000E+00  0.00000000000E+00  0.54414228597E+02  0.13634070948E+03  0.12501152261E+03 0.  0.
    9000005    1    3    3    0    0  0.10025483807E+02 -0.36689037059E+02  0.81293483891E+02  0.89756483271E+02  0.10000000000E+01 0.  0.
    9000005    1    3    3    0    0 -0.10025483807E+02  0.36689037059E+02 -0.26879255294E+02  0.46584226204E+02  0.10000000000E+01 0.  0.
<mgrwt>
<rscale>  0 0.12501152E+03</rscale>
<asrwt>0</asrwt>
<pdfrwt beam="1">  1        4 0.14673457E-01 0.12501152E+03</pdfrwt>
<pdfrwt beam="2">  1       -4 0.63020371E-02 0.12501152E+03</pdfrwt>
<totfact> 0.10207237E+04</totfact>
</mgrwt>
</event>
<event>
 5    1  0.3259432E-002  0.1250043E+03  0.7818608E-02  0.1235062E+00
         -4   -1    0    0    0  501 -0.00000000000E+00  0.00000000000E+00  0.17208037580E+03  0.17208506221E+03  0.12700000000E+01 0.  1.
          4   -1    0    0  501    0  0.00000000000E+00 -0.00000000000E+00 -0.22678962889E+02  0.22714494442E+02  0.12700000000E+01 0.  1.
         25    2    1    2    0    0  0.00000000000E+00  0.00000000000E+00  0.14940141291E+03  0.19479955665E+03  0.12500434029E+03 0.  0.
    9000005    1    3    3    0    0  0.50249935197E+02 -0.24596802487E+02  0.11809606672E+03  0.13068182603E+03  0.10000000000E+01 0.  0.
    9000005    1    3    3    0    0 -0.50249935197E+02  0.24596802487E+02  0.31305346193E+02  0.64117730623E+02  0.10000000000E+01 0.  0.
<mgrwt>
<rscale>  0 0.12500434E+03</rscale>
<asrwt>0</asrwt>
<pdfrwt beam="2">  1        4 0.34921651E-02 0.12500434E+03</pdfrwt>
<pdfrwt beam="1">  1       -4 0.26476996E-01 0.12500434E+03</pdfrwt>
<totfact> 0.91010006E+03</totfact>
</mgrwt>
</event>
<event>
 5    1  0.3259432E-002  0.1250007E+03  0.7818608E-02  0.1235068E+00
         -4   -1    0    0    0  501 -0.00000000000E+00  0.00000000000E+00  0.21722694120E+03  0.21723065365E+03  0.12700000000E+01 0.  1.
          4   -1    0    0  501    0  0.00000000000E+00 -0.00000000000E+00 -0.17956265739E+02  0.18001121612E+02  0.12700000000E+01 0.  1.
         25    2    1    2    0    0  0.00000000000E+00  0.00000000000E+00  0.19927067546E+03  0.23523177526E+03  0.12500074397E+03 0.  0.
    9000005    1    3    3    0    0 -0.40659934774E+02  0.20530807527E+02  0.18014990083E+03  0.18582177247E+03  0.10000000000E+01 0.  0.
    9000005    1    3    3    0    0  0.40659934774E+02 -0.20530807527E+02  0.19120774633E+02  0.49410002793E+02  0.10000000000E+01 0.  0.
<mgrwt>
<rscale>  0 0.12500074E+03</rscale>
<asrwt>0</asrwt>
<pdfrwt beam="2">  1        4 0.27662384E-02 0.12500074E+03</pdfrwt>
<pdfrwt beam="1">  1       -4 0.33423266E-01 0.12500074E+03</pdfrwt>
<totfact> 0.84511270E+03</totfact>
</mgrwt>
</event>
<event>
 5    1  0.3259432E-002  0.1249941E+03  0.7818608E-02  0.1235079E+00
          4   -1    0    0  501    0  0.00000000000E+00  0.00000000000E+00  0.40403383084E+02  0.40423338118E+02  0.12700000000E+01 0. -1.
         -4   -1    0    0    0  501 -0.00000000000E+00 -0.00000000000E+00 -0.96624085896E+02  0.96632431798E+02  0.12700000000E+01 0. -1.
         25    2    1    2    0    0  0.00000000000E+00  0.00000000000E+00 -0.56220702812E+02  0.13705576992E+03  0.12499406643E+03 0.  0.
    9000005    1    3    3    0    0 -0.46308950233E+02 -0.10651834518E+01  0.17880209212E+02  0.49662414046E+02  0.10000000000E+01 0.  0.
    9000005    1    3    3    0    0  0.46308950233E+02  0.10651834518E+01 -0.74100912024E+02  0.87393355870E+02  0.10000000000E+01 0.  0.
<mgrwt>
<rscale>  0 0.12499407E+03</rscale>
<asrwt>0</asrwt>
<pdfrwt beam="1">  1        4 0.62180821E-02 0.12499407E+03</pdfrwt>
<pdfrwt beam="2">  1       -4 0.14867421E-01 0.12499407E+03</pdfrwt>
<totfact> 0.10196284E+04</totfact>
</mgrwt>
</event>
<event>
 5    1  0.3259432E-002  0.1250058E+03  0.7818608E-02  0.1235060E+00
         -4   -1    0    0    0  501 -0.00000000000E+00  0.00000000000E+00  0.35377987249E+02  0.35400775158E+02  0.12700000000E+01 0. -1.
          4   -1    0    0  501    0  0.00000000000E+00 -0.00000000000E+00 -0.11036300037E+03  0.11037030737E+03  0.12700000000E+01 0. -1.
         25    2    1    2    0    0  0.00000000000E+00  0.00000000000E+00 -0.74985013116E+02  0.14577108253E+03  0.12500582511E+03 0.  0.
    9000005    1    3    3    0    0 -0.73335657485E+01 -0.61682123231E+02 -0.45499608662E+02  0.77004414816E+02  0.10000000000E+01 0.  0.
    9000005    1    3    3    0    0  0.73335657485E+01  0.61682123231E+02 -0.29485404454E+02  0.68766667715E+02  0.10000000000E+01 0.  0.
<mgrwt>
<rscale>  0 0.12500583E+03</rscale>
<asrwt>0</asrwt>
<pdfrwt beam="2">  1        4 0.16981238E-01 0.12500583E+03</pdfrwt>
<pdfrwt beam="1">  1       -4 0.54450823E-02 0.12500583E+03</pdfrwt>
<totfact> 0.10014032E+04</totfact>
</mgrwt>
</event>
<event>
 5    1  0.3259432E-002  0.1249989E+03  0.7818608E-02  0.1235071E+00
          4   -1    0    0  501    0  0.00000000000E+00  0.00000000000E+00  0.49418921894E+02  0.49435237849E+02  0.12700000000E+01 0. -1.
         -4   -1    0    0    0  501 -0.00000000000E+00 -0.00000000000E+00 -0.79007713462E+02  0.79017920034E+02  0.12700000000E+01 0. -1.
         25    2    1    2    0    0  0.00000000000E+00  0.00000000000E+00 -0.29588791568E+02  0.12845315788E+03  0.12499886873E+03 0.  0.
    9000005    1    3    3    0    0  0.13077411345E+02  0.60906694356E+02 -0.97042124414E+01  0.63054070796E+02  0.10000000000E+01 0.  0.
    9000005    1    3    3    0    0 -0.13077411345E+02 -0.60906694356E+02 -0.19884579127E+02  0.65399087087E+02  0.10000000000E+01 0.  0.
<mgrwt>
<rscale>  0 0.12499887E+03</rscale>
<asrwt>0</asrwt>
<pdfrwt beam="1">  1        4 0.76049512E-02 0.12499887E+03</pdfrwt>
<pdfrwt beam="2">  1       -4 0.12157073E-01 0.12499887E+03</pdfrwt>
<totfact> 0.10377978E+04</totfact>
</mgrwt>
</event>
<event>
 5    1  0.3259432E-002  0.1250136E+03  0.7818608E-02  0.1235048E+00
          4   -1    0    0  501    0  0.00000000000E+00  0.00000000000E+00  0.71558265194E+03  0.71558377892E+03  0.12700000000E+01 0. -1.
         -4   -1    0    0    0  501 -0.00000000000E+00 -0.00000000000E+00 -0.53850305385E+01  0.55327618692E+01  0.12700000000E+01 0. -1.
         25    2    1    2    0    0  0.00000000000E+00  0.00000000000E+00  0.71019762140E+03  0.72111654079E+03  0.12501361510E+03 0.  0.
    9000005    1    3    3    0    0  0.81519663072E+00 -0.20348985023E+02  0.69593457853E+03  0.69623321045E+03  0.10000000000E+01 0.  0.
    9000005    1    3    3    0    0 -0.81519663072E+00  0.20348985023E+02  0.14263042870E+02  0.24883330343E+02  0.10000000000E+01 0.  0.
<mgrwt>
<rscale>  0 0.12501362E+03</rscale>
<asrwt>0</asrwt>
<pdfrwt beam="1">  1        4 0.11010109E+00 0.12501362E+03</pdfrwt>
<pdfrwt beam="2">  1       -4 0.83991689E-03 0.12501362E+03</pdfrwt>
<totfact> 0.41982647E+03</totfact>
</mgrwt>
</event>
<event>
 5    1  0.3259432E-002  0.1250007E+03  0.7818608E-02  0.1235068E+00
          4   -1    0    0  501    0  0.00000000000E+00  0.00000000000E+00  0.68870201744E+01  0.70031383595E+01  0.12700000000E+01 0.  1.
         -4   -1    0    0    0  501 -0.00000000000E+00 -0.00000000000E+00 -0.56233824704E+03  0.56233968114E+03  0.12700000000E+01 0.  1.
         25    2    1    2    0    0  0.00000000000E+00  0.00000000000E+00 -0.55545122687E+03  0.56934281950E+03  0.12500072275E+03 0.  0.
    9000005    1    3    3    0    0  0.25903937396E+02 -0.23997561279E+02 -0.42886006388E+02  0.55561735609E+02  0.10000000000E+01 0.  0.
    9000005    1    3    3    0    0 -0.25903937396E+02  0.23997561279E+02 -0.51256522048E+03  0.51378108389E+03  0.10000000000E+01 0.  0.
<mgrwt>
<rscale>  0 0.12500072E+03</rscale>
<asrwt>0</asrwt>
<pdfrwt beam="1">  1        4 0.10685845E-02 0.12500072E+03</pdfrwt>
<pdfrwt beam="2">  1       -4 0.86522584E-01 0.12500072E+03</pdfrwt>
<totfact> 0.50860991E+03</totfact>
</mgrwt>
</event>
<event>
 5    1  0.3259432E-002  0.1250011E+03  0.7818608E-02  0.1235068E+00
         -4   -1    0    0    0  501 -0.00000000000E+00  0.00000000000E+00  0.39318171309E+03  0.39318376417E+03  0.12700000000E+01 0.  1.
          4   -1    0    0  501    0  0.00000000000E+00 -0.00000000000E+00 -0.98924733927E+01  0.99736618063E+01  0.12700000000E+01 0.  1.
         25    2    1    2    0    0  0.00000000000E+00  0.00000000000E+00  0.38328923970E+03  0.40315742598E+03  0.12500107541E+03 0.  0.
    9000005    1    3    3    0    0 -0.99047740198E+01 -0.47192222862E+02  0.63439865527E+02  0.79692076050E+02  0.10000000000E+01 0.  0.
    9000005    1    3    3    0    0  0.99047740198E+01  0.47192222862E+02  0.31984937417E+03  0.32346534993E+03  0.10000000000E+01 0.  0.
<mgrwt>
<rscale>  0 0.12500108E+03</rscale>
<asrwt>0</asrwt>
<pdfrwt beam="2">  1        4 0.15283221E-02 0.12500108E+03</pdfrwt>
<pdfrwt beam="1">  1       -4 0.60495894E-01 0.12500108E+03</pdfrwt>
<totfact> 0.64245331E+03</totfact>
</mgrwt>
</event>
<event>
 5    1  0.3259432E-002  0.1249996E+03  0.7818608E-02  0.1235070E+00
         -4   -1    0    0    0  501 -0.00000000000E+00  0.00000000000E+00  0.37547917610E+02  0.37569389359E+02  0.12700000000E+01 0. -1.
          4   -1    0    0  501    0  0.00000000000E+00 -0.00000000000E+00 -0.10397802064E+03  0.10398577632E+03  0.12700000000E+01 0. -1.
         25    2    1    2    0    0  0.00000000000E+00  0.00000000000E+00 -0.66430103032E+02  0.14155516568E+03  0.12499962537E+03 0.  0.
    9000005    1    3    3    0    0  0.35854277652E+02 -0.12723347289E+02  0.22927416414E+02  0.44430611245E+02  0.10000000000E+01 0.  0.
    9000005    1    3    3    0    0 -0.35854277652E+02  0.12723347289E+02 -0.89357519447E+02  0.97124554433E+02  0.10000000000E+01 0.  0.
<mgrwt>
<rscale>  0 0.12499963E+03</rscale>
<asrwt>0</asrwt>
<pdfrwt beam="2">  1        4 0.15998867E-01 0.12499963E+03</pdfrwt>
<pdfrwt beam="1">  1       -4 0.57788510E-02 0.12499963E+03</pdfrwt>
<totfact> 0.10101541E+04</totfact>
</mgrwt>
</event>
<event>
 5    1  0.3259432E-002  0.1250072E+03  0.7818608E-02  0.1235058E+00
          4   -1    0    0  501    0  0.00000000000E+00  0.00000000000E+00  0.38861736040E+02  0.38882482278E+02  0.12700000000E+01 0.  1.
         -4   -1    0    0    0  501 -0.00000000000E+00 -0.00000000000E+00 -0.10047653061E+03  0.10048455654E+03  0.12700000000E+01 0.  1.
         25    2    1    2    0    0  0.00000000000E+00  0.00000000000E+00 -0.61614794568E+02  0.13936703882E+03  0.12500715419E+03 0.  0.
    9000005    1    3    3    0    0 -0.10562156891E+02  0.53338373005E+02 -0.65154807173E+02  0.84868663775E+02  0.10000000000E+01 0.  0.
    9000005    1    3    3    0    0  0.10562156891E+02 -0.53338373005E+02  0.35400126056E+01  0.54498375043E+02  0.10000000000E+01 0.  0.
<mgrwt>
<rscale>  0 0.12500715E+03</rscale>
<asrwt>0</asrwt>
<pdfrwt beam="1">  1        4 0.59809419E-02 0.12500715E+03</pdfrwt>
<pdfrwt beam="2">  1       -4 0.15460141E-01 0.12500715E+03</pdfrwt>
<totfact> 0.10145086E+04</totfact>
</mgrwt>
</event>
<event>
 5    1  0.3259432E-002  0.1249999E+03  0.7818608E-02  0.1235069E+00
          4   -1    0    0  501    0  0.00000000000E+00  0.00000000000E+00  0.31628126481E+03  0.31628381458E+03  0.12700000000E+01 0.  1.
         -4   -1    0    0    0  501 -0.00000000000E+00 -0.00000000000E+00 -0.12315283720E+02  0.12380594214E+02  0.12700000000E+01 0.  1.
         25    2    1    2    0    0  0.00000000000E+00  0.00000000000E+00  0.30396598109E+03  0.32866440880E+03  0.12499990381E+03 0.  0.
    9000005    1    3    3    0    0  0.40515930790E+01 -0.39483032115E+02  0.27889811696E+03  0.28170993038E+03  0.10000000000E+01 0.  0.
    9000005    1    3    3    0    0 -0.40515930790E+01  0.39483032115E+02  0.25067864127E+02  0.46954478417E+02  0.10000000000E+01 0.  0.
<mgrwt>
<rscale>  0 0.12499990E+03</rscale>
<asrwt>0</asrwt>
<pdfrwt beam="1">  1        4 0.48663876E-01 0.12499990E+03</pdfrwt>
<pdfrwt beam="2">  1       -4 0.18998790E-02 0.12499990E+03</pdfrwt>
<totfact> 0.72137474E+03</totfact>
</mgrwt>
</event>
<event>
 5    1  0.3259432E-002  0.1249993E+03  0.7818608E-02  0.1235070E+00
          4   -1    0    0  501    0  0.00000000000E+00  0.00000000000E+00  0.10741126200E+03  0.10741876980E+03  0.12700000000E+01 0.  1.
         -4   -1    0    0    0  501 -0.00000000000E+00 -0.00000000000E+00 -0.36346976530E+02  0.36369157302E+02  0.12700000000E+01 0.  1.
         25    2    1    2    0    0  0.00000000000E+00  0.00000000000E+00  0.71064285470E+02  0.14378792710E+03  0.12499934124E+03 0.  0.
    9000005    1    3    3    0    0  0.61744026648E+02  0.67545765867E+01  0.27624261113E+02  0.67985652410E+02  0.10000000000E+01 0.  0.
    9000005    1    3    3    0    0 -0.61744026648E+02 -0.67545765867E+01  0.43440024357E+02  0.75802274687E+02  0.10000000000E+01 0.  0.
<mgrwt>
<rscale>  0 0.12499934E+03</rscale>
<asrwt>0</asrwt>
<pdfrwt beam="1">  1        4 0.16527093E-01 0.12499934E+03</pdfrwt>
<pdfrwt beam="2">  1       -4 0.55941264E-02 0.12499934E+03</pdfrwt>
<totfact> 0.10055823E+04</totfact>
</mgrwt>
</event>
<event>
 5    1  0.3259432E-002  0.1249405E+03  0.7818608E-02  0.1235162E+00
         -4   -1    0    0    0  501 -0.00000000000E+00  0.00000000000E+00  0.54928001714E+02  0.54942681699E+02  0.12700000000E+01 0.  1.
          4   -1    0    0  501    0  0.00000000000E+00 -0.00000000000E+00 -0.71018298367E+02  0.71029652983E+02  0.12700000000E+01 0.  1.
         25    2    1    2    0    0  0.00000000000E+00  0.00000000000E+00 -0.16090296653E+02  0.12597233468E+03  0.12494051168E+03 0.  0.
    9000005    1    3    3    0    0  0.31896244837E+02  0.41207647525E+02 -0.42769258533E+02  0.67421436685E+02  0.10000000000E+01 0.  0.
    9000005    1    3    3    0    0 -0.31896244837E+02 -0.41207647525E+02  0.26678961879E+02  0.58550897997E+02  0.10000000000E+01 0.  0.
<mgrwt>
<rscale>  0 0.12494051E+03</rscale>
<asrwt>0</asrwt>
<pdfrwt beam="2">  1        4 0.10927895E-01 0.12494051E+03</pdfrwt>
<pdfrwt beam="1">  1       -4 0.84524645E-02 0.12494051E+03</pdfrwt>
<totfact> 0.10445579E+04</totfact>
</mgrwt>
</event>
<event>
 5    1  0.3259432E-002  0.1250001E+03  0.7818608E-02  0.1235069E+00
         -4   -1    0    0    0  501 -0.00000000000E+00  0.00000000000E+00  0.18497286680E+03  0.18497722657E+03  0.12700000000E+01 0.  1.
          4   -1    0    0  501    0  0.00000000000E+00 -0.00000000000E+00 -0.21094288011E+02  0.21132484158E+02  0.12700000000E+01 0.  1.
         25    2    1    2    0    0  0.00000000000E+00  0.00000000000E+00  0.16387857879E+03  0.20610971073E+03  0.12500009709E+03 0.  0.
    9000005    1    3    3    0    0  0.45498329908E+01  0.19572950214E+02 -0.15629824306E+02  0.25477299075E+02  0.10000000000E+01 0.  0.
    9000005    1    3    3    0    0 -0.45498329908E+01 -0.19572950214E+02  0.17950840309E+03  0.18063241166E+03  0.10000000000E+01 0.  0.
<mgrwt>
<rscale>  0 0.12500010E+03</rscale>
<asrwt>0</asrwt>
<pdfrwt beam="2">  1        4 0.32485486E-02 0.12500010E+03</pdfrwt>
<pdfrwt beam="1">  1       -4 0.28460637E-01 0.12500010E+03</pdfrwt>
<totfact> 0.89114989E+03</totfact>
</mgrwt>
</event>
<event>
 5    1  0.3259432E-002  0.1249985E+03  0.7818608E-02  0.1235072E+00
          4   -1    0    0  501    0  0.00000000000E+00  0.00000000000E+00  0.46230711603E+03  0.46230886043E+03  0.12700000000E+01 0. -1.
         -4   -1    0    0    0  501 -0.00000000000E+00 -0.00000000000E+00 -0.83997672962E+01  0.84952334065E+01  0.12700000000E+01 0. -1.
         25    2    1    2    0    0  0.00000000000E+00  0.00000000000E+00  0.45390734873E+03  0.47080409384E+03  0.12499845414E+03 0.  0.
    9000005    1    3    3    0    0 -0.34676964524E+02  0.11036403212E+02  0.41829895473E+03  0.41988011335E+03  0.10000000000E+01 0.  0.
    9000005    1    3    3    0    0  0.34676964524E+02 -0.11036403212E+02  0.35608394009E+02  0.50923980484E+02  0.10000000000E+01 0.  0.
<mgrwt>
<rscale>  0 0.12499845E+03</rscale>
<asrwt>0</asrwt>
<pdfrwt beam="1">  1        4 0.71131630E-01 0.12499845E+03</pdfrwt>
<pdfrwt beam="2">  1       -4 0.12997500E-02 0.12499845E+03</pdfrwt>
<totfact> 0.58204958E+03</totfact>
</mgrwt>
</event>
<event>
 5    1  0.3259432E-002  0.1249933E+03  0.7818608E-02  0.1235080E+00
         -4   -1    0    0    0  501 -0.00000000000E+00  0.00000000000E+00  0.10444942178E+03  0.10445714246E+03  0.12700000000E+01 0.  1.
          4   -1    0    0  501    0  0.00000000000E+00 -0.00000000000E+00 -0.37374609169E+02  0.37396180427E+02  0.12700000000E+01 0.  1.
         25    2    1    2    0    0  0.00000000000E+00  0.00000000000E+00  0.67074812613E+02  0.14185332289E+03  0.12499333873E+03 0.  0.
    9000005    1    3    3    0    0  0.41745383922E+02  0.35993228703E+02  0.66947141600E+02  0.86724329687E+02  0.10000000000E+01 0.  0.
    9000005    1    3    3    0    0 -0.41745383922E+02 -0.35993228703E+02  0.12767101303E+00  0.55128993199E+02  0.10000000000E+01 0.  0.
<mgrwt>
<rscale>  0 0.12499334E+03</rscale>
<asrwt>0</asrwt>
<pdfrwt beam="2">  1        4 0.57521931E-02 0.12499334E+03</pdfrwt>
<pdfrwt beam="1">  1       -4 0.16071395E-01 0.12499334E+03</pdfrwt>
<totfact> 0.10096833E+04</totfact>
</mgrwt>
</event>
<event>
 5    1  0.3259432E-002  0.1249997E+03  0.7818608E-02  0.1235070E+00
         -4   -1    0    0    0  501 -0.00000000000E+00  0.00000000000E+00  0.49947642445E+03  0.49947803904E+03  0.12700000000E+01 0. -1.
          4   -1    0    0  501    0  0.00000000000E+00 -0.00000000000E+00 -0.77674542843E+01  0.78705937552E+01  0.12700000000E+01 0. -1.
         25    2    1    2    0    0  0.00000000000E+00  0.00000000000E+00  0.49170897016E+03  0.50734863279E+03  0.12499969542E+03 0.  0.
    9000005    1    3    3    0    0 -0.91305750659E+01  0.39699480328E+02  0.53507886068E+02  0.67257044322E+02  0.10000000000E+01 0.  0.
    9000005    1    3    3    0    0  0.91305750659E+01 -0.39699480328E+02  0.43820108410E+03  0.44009158847E+03  0.10000000000E+01 0.  0.
<mgrwt>
<rscale>  0 0.12499970E+03</rscale>
<asrwt>0</asrwt>
<pdfrwt beam="2">  1        4 0.12030514E-02 0.12499970E+03</pdfrwt>
<pdfrwt beam="1">  1       -4 0.76850559E-01 0.12499970E+03</pdfrwt>
<totfact> 0.55299059E+03</totfact>
</mgrwt>
</event>
<event>
 5    1  0.3259432E-002  0.1250007E+03  0.7818608E-02  0.1235068E+00
         -4   -1    0    0    0  501 -0.00000000000E+00  0.00000000000E+00  0.73886605063E+02  0.73897518955E+02  0.12700000000E+01 0.  1.
          4   -1    0    0  501    0  0.00000000000E+00 -0.00000000000E+00 -0.52846352909E+02  0.52861610984E+02  0.12700000000E+01 0.  1.
         25    2    1    2    0    0  0.00000000000E+00  0.00000000000E+00  0.21040252154E+02  0.12675912994E+03  0.12500073925E+03 0.  0.
    9000005    1    3    3    0    0  0.23650175199E+02 -0.56573935109E+02 -0.17058087898E+01  0.61350229864E+02  0.10000000000E+01 0.  0.
    9000005    1    3    3    0    0 -0.23650175199E+02  0.56573935109E+02  0.22746060944E+02  0.65408900076E+02  0.10000000000E+01 0.  0.
<mgrwt>
<rscale>  0 0.12500074E+03</rscale>
<asrwt>0</asrwt>
<pdfrwt beam="2">  1        4 0.81322214E-02 0.12500074E+03</pdfrwt>
<pdfrwt beam="1">  1       -4 0.11369183E-01 0.12500074E+03</pdfrwt>
<totfact> 0.10414209E+04</totfact>
</mgrwt>
</event>
<event>
 5    1  0.3259432E-002  0.1249989E+03  0.7818608E-02  0.1235071E+00
         -4   -1    0    0    0  501 -0.00000000000E+00  0.00000000000E+00  0.99618678506E+02  0.99626773546E+02  0.12700000000E+01 0. -1.
          4   -1    0    0  501    0  0.00000000000E+00 -0.00000000000E+00 -0.39191371475E+02  0.39211943309E+02  0.12700000000E+01 0. -1.
         25    2    1    2    0    0  0.00000000000E+00  0.00000000000E+00  0.60427307031E+02  0.13883871686E+03  0.12499891945E+03 0.  0.
    9000005    1    3    3    0    0 -0.21203333951E+02 -0.56556045855E+01 -0.34776386964E+02  0.41133493945E+02  0.10000000000E+01 0.  0.
    9000005    1    3    3    0    0  0.21203333951E+02  0.56556045855E+01  0.95203693994E+02  0.97705222911E+02  0.10000000000E+01 0.  0.
<mgrwt>
<rscale>  0 0.12499892E+03</rscale>
<asrwt>0</asrwt>
<pdfrwt beam="2">  1        4 0.60316469E-02 0.12499892E+03</pdfrwt>
<pdfrwt beam="1">  1       -4 0.15328156E-01 0.12499892E+03</pdfrwt>
<totfact> 0.10157958E+04</totfact>
</mgrwt>
</event>
<event>
 5    1  0.3259432E-002  0.1250019E+03  0.7818608E-02  0.1235066E+00
          4   -1    0    0  501    0  0.00000000000E+00  0.00000000000E+00  0.23161312966E+03  0.23161661152E+03  0.12700000000E+01 0. -1.
         -4   -1    0    0    0  501 -0.00000000000E+00 -0.00000000000E+00 -0.16838385979E+02  0.16886211606E+02  0.12700000000E+01 0. -1.
         25    2    1    2    0    0  0.00000000000E+00  0.00000000000E+00  0.21477474368E+03  0.24850282313E+03  0.12500185030E+03 0.  0.
    9000005    1    3    3    0    0  0.56985785368E+02  0.12737015022E+02  0.15165111691E+03  0.16250745382E+03  0.10000000000E+01 0.  0.
    9000005    1    3    3    0    0 -0.56985785368E+02 -0.12737015022E+02  0.63123626771E+02  0.85995369308E+02  0.10000000000E+01 0.  0.
<mgrwt>
<rscale>  0 0.12500185E+03</rscale>
<asrwt>0</asrwt>
<pdfrwt beam="1">  1        4 0.35636733E-01 0.12500185E+03</pdfrwt>
<pdfrwt beam="2">  1       -4 0.25944679E-02 0.12500185E+03</pdfrwt>
<totfact> 0.82543698E+03</totfact>
</mgrwt>
</event>
<event>
 5    1  0.3259432E-002  0.1250044E+03  0.7818608E-02  0.1235062E+00
          4   -1    0    0  501    0  0.00000000000E+00  0.00000000000E+00  0.48254721841E+01  0.49897977714E+01  0.12700000000E+01 0.  1.
         -4   -1    0    0    0  501 -0.00000000000E+00 -0.00000000000E+00 -0.79584432890E+03  0.79584534222E+03  0.12700000000E+01 0.  1.
         25    2    1    2    0    0  0.00000000000E+00  0.00000000000E+00 -0.79101885671E+03  0.80083513999E+03  0.12500435902E+03 0.  0.
    9000005    1    3    3    0    0  0.59351937127E+02 -0.17765301029E+02 -0.34296706857E+03  0.34851925124E+03  0.10000000000E+01 0.  0.
    9000005    1    3    3    0    0 -0.59351937127E+02  0.17765301029E+02 -0.44805178814E+03  0.45231588875E+03  0.10000000000E+01 0.  0.
<mgrwt>
<rscale>  0 0.12500436E+03</rscale>
<asrwt>0</asrwt>
<pdfrwt beam="1">  1        4 0.75509935E-03 0.12500436E+03</pdfrwt>
<pdfrwt beam="2">  1       -4 0.12245020E+00 0.12500436E+03</pdfrwt>
<totfact> 0.38223857E+03</totfact>
</mgrwt>
</event>
<event>
 5    1  0.3259432E-002  0.1249979E+03  0.7818608E-02  0.1235073E+00
         -4   -1    0    0    0  501 -0.00000000000E+00  0.00000000000E+00  0.42054891414E+02  0.42074063173E+02  0.12700000000E+01 0. -1.
          4   -1    0    0  501    0  0.00000000000E+00 -0.00000000000E+00 -0.92836692752E+02  0.92845379105E+02  0.12700000000E+01 0. -1.
         25    2    1    2    0    0  0.00000000000E+00  0.00000000000E+00 -0.50781801338E+02  0.13491944228E+03  0.12499785821E+03 0.  0.
    9000005    1    3    3    0    0  0.28667075359E+02  0.30171230695E+02  0.24924739752E+02  0.48521613977E+02  0.10000000000E+01 0.  0.
    9000005    1    3    3    0    0 -0.28667075359E+02 -0.30171230695E+02 -0.75706541090E+02  0.86397828300E+02  0.10000000000E+01 0.  0.
<mgrwt>
<rscale>  0 0.12499786E+03</rscale>
<asrwt>0</asrwt>
<pdfrwt beam="2">  1        4 0.14284711E-01 0.12499786E+03</pdfrwt>
<pdfrwt beam="1">  1       -4 0.64721262E-02 0.12499786E+03</pdfrwt>
<totfact> 0.10240264E+04</totfact>
</mgrwt>
</event>
<event>
 5    1  0.3259432E-002  0.1249989E+03  0.7818608E-02  0.1235071E+00
         -4   -1    0    0    0  501 -0.00000000000E+00  0.00000000000E+00  0.26959187272E+03  0.26959486408E+03  0.12700000000E+01 0. -1.
          4   -1    0    0  501    0  0.00000000000E+00 -0.00000000000E+00 -0.14458343631E+02  0.14514013937E+02  0.12700000000E+01 0. -1.
         25    2    1    2    0    0  0.00000000000E+00  0.00000000000E+00  0.25513352909E+03  0.28410887801E+03  0.12499894760E+03 0.  0.
    9000005    1    3    3    0    0  0.53754393600E+02 -0.30454111767E+02  0.14891215242E+03  0.16122287956E+03  0.10000000000E+01 0.  0.
    9000005    1    3    3    0    0 -0.53754393600E+02  0.30454111767E+02  0.10622137667E+03  0.12288599845E+03  0.10000000000E+01 0.  0.
<mgrwt>
<rscale>  0 0.12499895E+03</rscale>
<asrwt>0</asrwt>
<pdfrwt beam="2">  1        4 0.22288730E-02 0.12499895E+03</pdfrwt>
<pdfrwt beam="1">  1       -4 0.41480185E-01 0.12499895E+03</pdfrwt>
<totfact> 0.77638248E+03</totfact>
</mgrwt>
</event>
<event>
 5    1  0.3259432E-002  0.1249985E+03  0.7818608E-02  0.1235072E+00
         -4   -1    0    0    0  501 -0.00000000000E+00  0.00000000000E+00  0.16108173001E+02  0.16158160088E+02  0.12700000000E+01 0.  1.
          4   -1    0    0  501    0  0.00000000000E+00 -0.00000000000E+00 -0.24206796175E+03  0.24207129323E+03  0.12700000000E+01 0.  1.
         25    2    1    2    0    0  0.00000000000E+00  0.00000000000E+00 -0.22595978875E+03  0.25822945331E+03  0.12499849771E+03 0.  0.
    9000005    1    3    3    0    0  0.93166660130E+01  0.18735562310E+02 -0.23462618085E+03  0.23555947509E+03  0.10000000000E+01 0.  0.
    9000005    1    3    3    0    0 -0.93166660130E+01 -0.18735562310E+02  0.86663921083E+01  0.22669978228E+02  0.10000000000E+01 0.  0.
<mgrwt>
<rscale>  0 0.12499850E+03</rscale>
<asrwt>0</asrwt>
<pdfrwt beam="2">  1        4 0.37245324E-01 0.12499850E+03</pdfrwt>
<pdfrwt beam="1">  1       -4 0.24822821E-02 0.12499850E+03</pdfrwt>
<totfact> 0.81157891E+03</totfact>
</mgrwt>
</event>
<event>
 5    1  0.3259432E-002  0.1250021E+03  0.7818608E-02  0.1235066E+00
          4   -1    0    0  501    0  0.00000000000E+00  0.00000000000E+00  0.10614999376E+03  0.10615759076E+03  0.12700000000E+01 0. -1.
         -4   -1    0    0    0  501 -0.00000000000E+00 -0.00000000000E+00 -0.36780680934E+02  0.36802600315E+02  0.12700000000E+01 0. -1.
         25    2    1    2    0    0  0.00000000000E+00  0.00000000000E+00  0.69369312827E+02  0.14296019107E+03  0.12500205866E+03 0.  0.
    9000005    1    3    3    0    0  0.22003963175E+01 -0.62413419053E+02  0.32101384522E+02  0.70226601157E+02  0.10000000000E+01 0.  0.
    9000005    1    3    3    0    0 -0.22003963175E+01  0.62413419053E+02  0.37267928305E+02  0.72733589916E+02  0.10000000000E+01 0.  0.
<mgrwt>
<rscale>  0 0.12500206E+03</rscale>
<asrwt>0</asrwt>
<pdfrwt beam="1">  1        4 0.16333039E-01 0.12500206E+03</pdfrwt>
<pdfrwt beam="2">  1       -4 0.56608368E-02 0.12500206E+03</pdfrwt>
<totfact> 0.10072131E+04</totfact>
</mgrwt>
</event>
<event>
 5    1  0.3259432E-002  0.1250014E+03  0.7818608E-02  0.1235067E+00
         -4   -1    0    0    0  501 -0.00000000000E+00  0.00000000000E+00  0.51466123649E+02  0.51481790795E+02  0.12700000000E+01 0. -1.
          4   -1    0    0  501    0  0.00000000000E+00 -0.00000000000E+00 -0.75868552307E+02  0.75879181131E+02  0.12700000000E+01 0. -1.
         25    2    1    2    0    0  0.00000000000E+00  0.00000000000E+00 -0.24402428658E+02  0.12736097193E+03  0.12500135457E+03 0.  0.
    9000005    1    3    3    0    0 -0.44878404809E+02  0.29277818968E+02  0.20562806568E+02  0.57402882468E+02  0.10000000000E+01 0.  0.
    9000005    1    3    3    0    0  0.44878404809E+02 -0.29277818968E+02 -0.44965235226E+02  0.69958089458E+02  0.10000000000E+01 0.  0.
<mgrwt>
<rscale>  0 0.12500135E+03</rscale>
<asrwt>0</asrwt>
<pdfrwt beam="2">  1        4 0.11674108E-01 0.12500135E+03</pdfrwt>
<pdfrwt beam="1">  1       -4 0.79198880E-02 0.12500135E+03</pdfrwt>
<totfact> 0.10400995E+04</totfact>
</mgrwt>
</event>
<event>
 4    1  0.3259432E-002  0.1249347E+03  0.7818608E-02  0.1235171E+00
          4   -1    0    0  501    0  0.00000000000E+00  0.00000000000E+00  0.12825145585E+03  0.12825774373E+03  0.12700000000E+01 0.  1.
         -4   -1    0    0    0  501 -0.00000000000E+00 -0.00000000000E+00 -0.30405620710E+02  0.30432132209E+02  0.12700000000E+01 0.  1.
    9000005    1    1    2    0    0 -0.31688377720E+02 -0.46121906576E+02  0.84164114983E+02  0.10107414011E+03  0.10000000000E+01 0.  0.
    9000005    1    1    2    0    0  0.31688377720E+02  0.46121906576E+02  0.13681720157E+02  0.57615735829E+02  0.10000000000E+01 0.  0.
<mgrwt>
<rscale>  0 0.12493466E+03</rscale>
<asrwt>0</asrwt>
<pdfrwt beam="1">  1        4 0.19733516E-01 0.12493466E+03</pdfrwt>
<pdfrwt beam="2">  1       -4 0.46803108E-02 0.12493466E+03</pdfrwt>
<totfact> 0.97739458E+03</totfact>
</mgrwt>
</event>
<event>
 5    1  0.3259432E-002  0.1249927E+03  0.7818608E-02  0.1235081E+00
          4   -1    0    0  501    0  0.00000000000E+00  0.00000000000E+00  0.10767379745E+03  0.10768128695E+03  0.12700000000E+01 0.  1.
         -4   -1    0    0    0  501 -0.00000000000E+00 -0.00000000000E+00 -0.36254428252E+02  0.36276665612E+02  0.12700000000E+01 0.  1.
         25    2    1    2    0    0  0.00000000000E+00  0.00000000000E+00  0.71419369202E+02  0.14395795256E+03  0.12499266301E+03 0.  0.
    9000005    1    3    3    0    0  0.38119521754E+02 -0.47323688954E+02  0.52485549382E+02  0.80301695928E+02  0.10000000000E+01 0.  0.
    9000005    1    3    3    0    0 -0.38119521754E+02  0.47323688954E+02  0.18933819820E+02  0.63656256629E+02  0.10000000000E+01 0.  0.
<mgrwt>
<rscale>  0 0.12499266E+03</rscale>
<asrwt>0</asrwt>
<pdfrwt beam="1">  1        4 0.16567486E-01 0.12499266E+03</pdfrwt>
<pdfrwt beam="2">  1       -4 0.55798910E-02 0.12499266E+03</pdfrwt>
<totfact> 0.10053865E+04</totfact>
</mgrwt>
</event>
<event>
 5    1  0.3259432E-002  0.1249980E+03  0.7818608E-02  0.1235072E+00
          4   -1    0    0  501    0  0.00000000000E+00  0.00000000000E+00  0.12724877912E+03  0.12725511655E+03  0.12700000000E+01 0.  1.
         -4   -1    0    0    0  501 -0.00000000000E+00 -0.00000000000E+00 -0.30676493796E+02  0.30702771400E+02  0.12700000000E+01 0.  1.
         25    2    1    2    0    0  0.00000000000E+00  0.00000000000E+00  0.96572285323E+02  0.15795788795E+03  0.12499795227E+03 0.  0.
    9000005    1    3    3    0    0 -0.50386811056E+02 -0.36567806426E+02  0.55101467528E+02  0.83145696936E+02  0.10000000000E+01 0.  0.
    9000005    1    3    3    0    0  0.50386811056E+02  0.36567806426E+02  0.41470817795E+02  0.74812191010E+02  0.10000000000E+01 0.  0.
<mgrwt>
<rscale>  0 0.12499795E+03</rscale>
<asrwt>0</asrwt>
<pdfrwt beam="1">  1        4 0.19579244E-01 0.12499795E+03</pdfrwt>
<pdfrwt beam="2">  1       -4 0.47219695E-02 0.12499795E+03</pdfrwt>
<totfact> 0.97742438E+03</totfact>
</mgrwt>
</event>
<event>
 5    1  0.3259432E-002  0.1249988E+03  0.7818608E-02  0.1235071E+00
         -4   -1    0    0    0  501 -0.00000000000E+00  0.00000000000E+00  0.42478084992E+02  0.42497065836E+02  0.12700000000E+01 0. -1.
          4   -1    0    0  501    0  0.00000000000E+00 -0.00000000000E+00 -0.91913452346E+02  0.91922225942E+02  0.12700000000E+01 0. -1.
         25    2    1    2    0    0  0.00000000000E+00  0.00000000000E+00 -0.49435367354E+02  0.13441929178E+03  0.12499876182E+03 0.  0.
    9000005    1    3    3    0    0  0.26926753399E+02  0.38302559612E+01 -0.85220241823E+02  0.89460664684E+02  0.10000000000E+01 0.  0.
    9000005    1    3    3    0    0 -0.26926753399E+02 -0.38302559612E+01  0.35784874469E+02  0.44958627094E+02  0.10000000000E+01 0.  0.
<mgrwt>
<rscale>  0 0.12499876E+03</rscale>
<asrwt>0</asrwt>
<pdfrwt beam="2">  1        4 0.14142666E-01 0.12499876E+03</pdfrwt>
<pdfrwt beam="1">  1       -4 0.65372250E-02 0.12499876E+03</pdfrwt>
<totfact> 0.10250611E+04</totfact>
</mgrwt>
</event>
<event>
 5    1  0.3259432E-002  0.1249970E+03  0.7818608E-02  0.1235074E+00
         -4   -1    0    0    0  501 -0.00000000000E+00  0.00000000000E+00  0.71841785511E+02  0.71853009995E+02  0.12700000000E+01 0.  1.
          4   -1    0    0  501    0  0.00000000000E+00 -0.00000000000E+00 -0.54347428503E+02  0.54362265266E+02  0.12700000000E+01 0.  1.
         25    2    1    2    0    0  0.00000000000E+00  0.00000000000E+00  0.17494357008E+02  0.12621527526E+03  0.12499697269E+03 0.  0.
    9000005    1    3    3    0    0  0.39099334422E+02  0.48477963887E+02  0.35796959654E+01  0.62391386890E+02  0.10000000000E+01 0.  0.
    9000005    1    3    3    0    0 -0.39099334422E+02 -0.48477963887E+02  0.13914661042E+02  0.63823888371E+02  0.10000000000E+01 0.  0.
<mgrwt>
<rscale>  0 0.12499697E+03</rscale>
<asrwt>0</asrwt>
<pdfrwt beam="2">  1        4 0.83631475E-02 0.12499697E+03</pdfrwt>
<pdfrwt beam="1">  1       -4 0.11054587E-01 0.12499697E+03</pdfrwt>
<totfact> 0.10426957E+04</totfact>
</mgrwt>
</event>
<event>
 5    1  0.3259432E-002  0.1249998E+03  0.7818608E-02  0.1235070E+00
         -4   -1    0    0    0  501 -0.00000000000E+00  0.00000000000E+00  0.24104673314E+02  0.24138106296E+02  0.12700000000E+01 0. -1.
          4   -1    0    0  501    0  0.00000000000E+00 -0.00000000000E+00 -0.16190497584E+03  0.16190995677E+03  0.12700000000E+01 0. -1.
         25    2    1    2    0    0  0.00000000000E+00  0.00000000000E+00 -0.13780030252E+03  0.18604806306E+03  0.12499983358E+03 0.  0.
    9000005    1    3    3    0    0  0.33678855082E+02 -0.43012645556E+02 -0.23733405120E+02  0.59570357359E+02  0.10000000000E+01 0.  0.
    9000005    1    3    3    0    0 -0.33678855082E+02  0.43012645556E+02 -0.11406689740E+03  0.12647770571E+03  0.10000000000E+01 0.  0.
<mgrwt>
<rscale>  0 0.12499983E+03</rscale>
<asrwt>0</asrwt>
<pdfrwt beam="2">  1        4 0.24911412E-01 0.12499983E+03</pdfrwt>
<pdfrwt beam="1">  1       -4 0.37113663E-02 0.12499983E+03</pdfrwt>
<totfact> 0.92539867E+03</totfact>
</mgrwt>
</event>
<event>
 5    1  0.3259432E-002  0.1249990E+03  0.7818608E-02  0.1235071E+00
         -4   -1    0    0    0  501 -0.00000000000E+00  0.00000000000E+00  0.44856616173E+03  0.44856795957E+03  0.12700000000E+01 0.  1.
          4   -1    0    0  501    0  0.00000000000E+00 -0.00000000000E+00 -0.86600328698E+01  0.87526606986E+01  0.12700000000E+01 0.  1.
         25    2    1    2    0    0  0.00000000000E+00  0.00000000000E+00  0.43990612886E+03  0.45732062027E+03  0.12499899004E+03 0.  0.
    9000005    1    3    3    0    0 -0.61374595262E+02 -0.11631231441E+02  0.22635339807E+03  0.23481692296E+03  0.10000000000E+01 0.  0.
    9000005    1    3    3    0    0  0.61374595262E+02  0.11631231441E+02  0.21355273079E+03  0.22250369731E+03  0.10000000000E+01 0.  0.
<mgrwt>
<rscale>  0 0.12499899E+03</rscale>
<asrwt>0</asrwt>
<pdfrwt beam="2">  1        4 0.13395759E-02 0.12499899E+03</pdfrwt>
<pdfrwt beam="1">  1       -4 0.69017460E-01 0.12499899E+03</pdfrwt>
<totfact> 0.59336124E+03</totfact>
</mgrwt>
</event>
<event>
 5    1  0.3259432E-002  0.1249999E+03  0.7818608E-02  0.1235069E+00
         -4   -1    0    0    0  501 -0.00000000000E+00  0.00000000000E+00  0.95817241609E+02  0.95825657783E+02  0.12700000000E+01 0.  1.
          4   -1    0    0  501    0  0.00000000000E+00 -0.00000000000E+00 -0.40747568398E+02  0.40767354959E+02  0.12700000000E+01 0.  1.
         25    2    1    2    0    0  0.00000000000E+00  0.00000000000E+00  0.55069673211E+02  0.13659301274E+03  0.12499992889E+03 0.  0.
    9000005    1    3    3    0    0 -0.56109100554E+02  0.13109256338E+02  0.53968459961E+02  0.78953647397E+02  0.10000000000E+01 0.  0.
    9000005    1    3    3    0    0  0.56109100554E+02 -0.13109256338E+02  0.11012132499E+01  0.57639365345E+02  0.10000000000E+01 0.  0.
<mgrwt>
<rscale>  0 0.12499993E+03</rscale>
<asrwt>0</asrwt>
<pdfrwt beam="2">  1        4 0.62710262E-02 0.12499993E+03</pdfrwt>
<pdfrwt beam="1">  1       -4 0.14743283E-01 0.12499993E+03</pdfrwt>
<totfact> 0.10204619E+04</totfact>
</mgrwt>
</event>
<event>
 5    1  0.3259432E-002  0.1250052E+03  0.7818608E-02  0.1235061E+00
         -4   -1    0    0    0  501 -0.00000000000E+00  0.00000000000E+00  0.11708483630E+03  0.11709172384E+03  0.12700000000E+01 0.  1.
          4   -1    0    0  501    0  0.00000000000E+00 -0.00000000000E+00 -0.33345363468E+02  0.33369539476E+02  0.12700000000E+01 0.  1.
         25    2    1    2    0    0  0.00000000000E+00  0.00000000000E+00  0.83739472830E+02  0.15046126331E+03  0.12500516968E+03 0.  0.
    9000005    1    3    3    0    0  0.14877685991E+02  0.42497564919E+02 -0.10293660062E+02  0.46199004340E+02  0.10000000000E+01 0.  0.
    9000005    1    3    3    0    0 -0.14877685991E+02 -0.42497564919E+02  0.94033132892E+02  0.10426225897E+03  0.10000000000E+01 0.  0.
<mgrwt>
<rscale>  0 0.12500517E+03</rscale>
<asrwt>0</asrwt>
<pdfrwt beam="2">  1        4 0.51324455E-02 0.12500517E+03</pdfrwt>
<pdfrwt beam="1">  1       -4 0.18015441E-01 0.12500517E+03</pdfrwt>
<totfact> 0.99200290E+03</totfact>
</mgrwt>
</event>
<event>
 5    1  0.3259432E-002  0.1249990E+03  0.7818608E-02  0.1235071E+00
          4   -1    0    0  501    0  0.00000000000E+00  0.00000000000E+00  0.79170073386E+01  0.80182233194E+01  0.12700000000E+01 0. -1.
         -4   -1    0    0    0  501 -0.00000000000E+00 -0.00000000000E+00 -0.49015636795E+03  0.49015801324E+03  0.12700000000E+01 0. -1.
         25    2    1    2    0    0  0.00000000000E+00  0.00000000000E+00 -0.48223936062E+03  0.49817623656E+03  0.12499904699E+03 0.  0.
    9000005    1    3    3    0    0  0.25342596370E+02  0.52345139275E+02 -0.14998200741E+03  0.16086597945E+03  0.10000000000E+01 0.  0.
    9000005    1    3    3    0    0 -0.25342596370E+02 -0.52345139275E+02 -0.33225735320E+03  0.33731025711E+03  0.10000000000E+01 0.  0.
<mgrwt>
<rscale>  0 0.12499905E+03</rscale>
<asrwt>0</asrwt>
<pdfrwt beam="1">  1        4 0.12259139E-02 0.12499905E+03</pdfrwt>
<pdfrwt beam="2">  1       -4 0.75416561E-01 0.12499905E+03</pdfrwt>
<totfact> 0.56007330E+03</totfact>
</mgrwt>
</event>
<event>
 5    1  0.3259432E-002  0.1250094E+03  0.7818608E-02  0.1235055E+00
         -4   -1    0    0    0  501 -0.00000000000E+00  0.00000000000E+00  0.40183263043E+01  0.42142432639E+01  0.12700000000E+01 0. -1.
          4   -1    0    0  501    0  0.00000000000E+00 -0.00000000000E+00 -0.94892097553E+03  0.94892182539E+03  0.12700000000E+01 0. -1.
         25    2    1    2    0    0  0.00000000000E+00  0.00000000000E+00 -0.94490264923E+03  0.95313606866E+03  0.12500939507E+03 0.  0.
    9000005    1    3    3    0    0 -0.45857404473E+02  0.34584651543E+02 -0.66027419472E+03  0.66276844515E+03  0.10000000000E+01 0.  0.
    9000005    1    3    3    0    0  0.45857404473E+02 -0.34584651543E+02 -0.28462845451E+03  0.29036762351E+03  0.10000000000E+01 0.  0.
<mgrwt>
<rscale>  0 0.12500940E+03</rscale>
<asrwt>0</asrwt>
<pdfrwt beam="2">  1        4 0.14600280E+00 0.12500940E+03</pdfrwt>
<pdfrwt beam="1">  1       -4 0.63334071E-03 0.12500940E+03</pdfrwt>
<totfact> 0.32198326E+03</totfact>
</mgrwt>
</event>
<event>
 4    1  0.3259432E-002  0.1250916E+03  0.7818608E-02  0.1234926E+00
          4   -1    0    0  501    0  0.00000000000E+00  0.00000000000E+00  0.74167578146E+01  0.75247057404E+01  0.12700000000E+01 0. -1.
         -4   -1    0    0    0  501 -0.00000000000E+00 -0.00000000000E+00 -0.52353190626E+03  0.52353344666E+03  0.12700000000E+01 0. -1.
    9000005    1    1    2    0    0  0.43220901516E+02  0.44173624396E+02 -0.21742103192E+03  0.22603597179E+03  0.10000000000E+01 0.  0.
    9000005    1    1    2    0    0 -0.43220901516E+02 -0.44173624396E+02 -0.29869411653E+03  0.30502218062E+03  0.10000000000E+01 0.  0.
<mgrwt>
<rscale>  0 0.12509163E+03</rscale>
<asrwt>0</asrwt>
<pdfrwt beam="1">  1        4 0.11494623E-02 0.12509163E+03</pdfrwt>
<pdfrwt beam="2">  1       -4 0.80551763E-01 0.12509163E+03</pdfrwt>
<totfact> 0.53425074E+03</totfact>
</mgrwt>
</event>
<event>
 5    1  0.3259432E-002  0.1250024E+03  0.7818608E-02  0.1235065E+00
         -4   -1    0    0    0  501 -0.00000000000E+00  0.00000000000E+00  0.40845071995E+03  0.40845269436E+03  0.12700000000E+01 0. -1.
          4   -1    0    0  501    0  0.00000000000E+00 -0.00000000000E+00 -0.95197811410E+01  0.96041206246E+01  0.12700000000E+01 0. -1.
         25    2    1    2    0    0  0.00000000000E+00  0.00000000000E+00  0.39893093881E+03  0.41805681498E+03  0.12500242643E+03 0.  0.
    9000005    1    3    3    0    0  0.61340845062E+02 -0.11633021806E+02  0.19038301348E+03  0.20036146908E+03  0.10000000000E+01 0.  0.
    9000005    1    3    3    0    0 -0.61340845062E+02  0.11633021806E+02  0.20854792533E+03  0.21769534591E+03  0.10000000000E+01 0.  0.
<mgrwt>
<rscale>  0 0.12500243E+03</rscale>
<asrwt>0</asrwt>
<pdfrwt beam="2">  1        4 0.14712216E-02 0.12500243E+03</pdfrwt>
<pdfrwt beam="1">  1       -4 0.62845196E-01 0.12500243E+03</pdfrwt>
<totfact> 0.62830337E+03</totfact>
</mgrwt>
</event>
<event>
 5    1  0.3259432E-002  0.1250017E+03  0.7818608E-02  0.1235067E+00
         -4   -1    0    0    0  501 -0.00000000000E+00  0.00000000000E+00  0.44185837124E+01  0.45974756143E+01  0.12700000000E+01 0. -1.
          4   -1    0    0  501    0  0.00000000000E+00 -0.00000000000E+00 -0.86635351479E+03  0.86635444565E+03  0.12700000000E+01 0. -1.
         25    2    1    2    0    0  0.00000000000E+00  0.00000000000E+00 -0.86193493108E+03  0.87095192126E+03  0.12500169492E+03 0.  0.
    9000005    1    3    3    0    0 -0.18526698774E+02 -0.56638665497E+02 -0.29984121451E+03  0.30570726343E+03  0.10000000000E+01 0.  0.
    9000005    1    3    3    0    0  0.18526698774E+02  0.56638665497E+02 -0.56209371657E+03  0.56524465783E+03  0.10000000000E+01 0.  0.
<mgrwt>
<rscale>  0 0.12500169E+03</rscale>
<asrwt>0</asrwt>
<pdfrwt beam="2">  1        4 0.13329886E+00 0.12500169E+03</pdfrwt>
<pdfrwt beam="1">  1       -4 0.69361532E-03 0.12500169E+03</pdfrwt>
<totfact> 0.35283686E+03</totfact>
</mgrwt>
</event>
<event>
 5    1  0.3259432E-002  0.1249997E+03  0.7818608E-02  0.1235070E+00
         -4   -1    0    0    0  501 -0.00000000000E+00  0.00000000000E+00  0.28795396427E+03  0.28795676488E+03  0.12700000000E+01 0.  1.
          4   -1    0    0  501    0  0.00000000000E+00 -0.00000000000E+00 -0.13532867218E+02  0.13592328540E+02  0.12700000000E+01 0.  1.
         25    2    1    2    0    0  0.00000000000E+00  0.00000000000E+00  0.27442109705E+03  0.30154909342E+03  0.12499966894E+03 0.  0.
    9000005    1    3    3    0    0  0.23725403411E+02 -0.25407002966E+02  0.11932481678E+02  0.36766760610E+02  0.10000000000E+01 0.  0.
    9000005    1    3    3    0    0 -0.23725403411E+02  0.25407002966E+02  0.26248861538E+03  0.26478233281E+03  0.10000000000E+01 0.  0.
<mgrwt>
<rscale>  0 0.12499967E+03</rscale>
<asrwt>0</asrwt>
<pdfrwt beam="2">  1        4 0.20867690E-02 0.12499967E+03</pdfrwt>
<pdfrwt beam="1">  1       -4 0.44305398E-01 0.12499967E+03</pdfrwt>
<totfact> 0.75405487E+03</totfact>
</mgrwt>
</event>
<event>
 5    1  0.3259432E-002  0.1250009E+03  0.7818608E-02  0.1235068E+00
         -4   -1    0    0    0  501 -0.00000000000E+00  0.00000000000E+00  0.73478349444E+01  0.74567806975E+01  0.12700000000E+01 0. -1.
          4   -1    0    0  501    0  0.00000000000E+00 -0.00000000000E+00 -0.52760456830E+03  0.52760609681E+03  0.12700000000E+01 0. -1.
         25    2    1    2    0    0  0.00000000000E+00  0.00000000000E+00 -0.52025673335E+03  0.53506287750E+03  0.12500085714E+03 0.  0.
    9000005    1    3    3    0    0  0.35497667155E+02  0.40166802519E+02 -0.39762736019E+03  0.40122558987E+03  0.10000000000E+01 0.  0.
    9000005    1    3    3    0    0 -0.35497667155E+02 -0.40166802519E+02 -0.12262937317E+03  0.13383728763E+03  0.10000000000E+01 0.  0.
<mgrwt>
<rscale>  0 0.12500086E+03</rscale>
<asrwt>0</asrwt>
<pdfrwt beam="2">  1        4 0.81178402E-01 0.12500086E+03</pdfrwt>
<pdfrwt beam="1">  1       -4 0.11389346E-02 0.12500086E+03</pdfrwt>
<totfact> 0.53241986E+03</totfact>
</mgrwt>
</event>
<event>
 5    1  0.3259432E-002  0.1249965E+03  0.7818608E-02  0.1235075E+00
          4   -1    0    0  501    0  0.00000000000E+00  0.00000000000E+00  0.65965704660E+02  0.65977928820E+02  0.12700000000E+01 0.  1.
         -4   -1    0    0    0  501 -0.00000000000E+00 -0.00000000000E+00 -0.59188531065E+02  0.59202154603E+02  0.12700000000E+01 0.  1.
         25    2    1    2    0    0  0.00000000000E+00  0.00000000000E+00  0.67771735955E+01  0.12518008342E+03  0.12499649277E+03 0.  0.
    9000005    1    3    3    0    0 -0.11643770547E+02  0.33560722601E+02  0.54875490901E+02  0.65377511391E+02  0.10000000000E+01 0.  0.
    9000005    1    3    3    0    0  0.11643770547E+02 -0.33560722601E+02 -0.48098317305E+02  0.59802572032E+02  0.10000000000E+01 0.  0.
<mgrwt>
<rscale>  0 0.12499649E+03</rscale>
<asrwt>0</asrwt>
<pdfrwt beam="1">  1        4 0.10150558E-01 0.12499649E+03</pdfrwt>
<pdfrwt beam="2">  1       -4 0.91079162E-02 0.12499649E+03</pdfrwt>
<totfact> 0.10449781E+04</totfact>
</mgrwt>
</event>
<event>
 5    1  0.3259432E-002  0.1249945E+03  0.7818608E-02  0.1235078E+00
         -4   -1    0    0    0  501 -0.00000000000E+00  0.00000000000E+00  0.29225801731E+03  0.29226077668E+03  0.12700000000E+01 0.  1.
          4   -1    0    0  501    0  0.00000000000E+00 -0.00000000000E+00 -0.13331584893E+02  0.13391939955E+02  0.12700000000E+01 0.  1.
         25    2    1    2    0    0  0.00000000000E+00  0.00000000000E+00  0.27892643242E+03  0.30565271663E+03  0.12499451381E+03 0.  0.
    9000005    1    3    3    0    0  0.33106385236E+02  0.45783172827E+02  0.74178175541E+02  0.93249843882E+02  0.10000000000E+01 0.  0.
    9000005    1    3    3    0    0 -0.33106385236E+02 -0.45783172827E+02  0.20474825688E+03  0.21240287275E+03  0.10000000000E+01 0.  0.
<mgrwt>
<rscale>  0 0.12499451E+03</rscale>
<asrwt>0</asrwt>
<pdfrwt beam="2">  1        4 0.20558681E-02 0.12499451E+03</pdfrwt>
<pdfrwt beam="1">  1       -4 0.44967625E-01 0.12499451E+03</pdfrwt>
<totfact> 0.74904318E+03</totfact>
</mgrwt>
</event>
<event>
 5    1  0.3259432E-002  0.1249988E+03  0.7818608E-02  0.1235071E+00
         -4   -1    0    0    0  501 -0.00000000000E+00  0.00000000000E+00  0.74995859743E+01  0.76063585102E+01  0.12700000000E+01 0.  1.
          4   -1    0    0  501    0  0.00000000000E+00 -0.00000000000E+00 -0.51706280694E+03  0.51706436661E+03  0.12700000000E+01 0.  1.
         25    2    1    2    0    0  0.00000000000E+00  0.00000000000E+00 -0.50956322097E+03  0.52467072512E+03  0.12499877455E+03 0.  0.
    9000005    1    3    3    0    0  0.52351005937E+02  0.33711522594E+02 -0.27702344447E+03  0.28393675944E+03  0.10000000000E+01 0.  0.
    9000005    1    3    3    0    0 -0.52351005937E+02 -0.33711522594E+02 -0.23253977650E+03  0.24073396568E+03  0.10000000000E+01 0.  0.
<mgrwt>
<rscale>  0 0.12499877E+03</rscale>
<asrwt>0</asrwt>
<pdfrwt beam="2">  1        4 0.79556430E-01 0.12499877E+03</pdfrwt>
<pdfrwt beam="1">  1       -4 0.11621161E-02 0.12499877E+03</pdfrwt>
<totfact> 0.54001238E+03</totfact>
</mgrwt>
</event>
<event>
 5    1  0.3259432E-002  0.1250007E+03  0.7818608E-02  0.1235068E+00
          4   -1    0    0  501    0  0.00000000000E+00  0.00000000000E+00  0.12297792451E+02  0.12363195346E+02  0.12700000000E+01 0. -1.
         -4   -1    0    0    0  501 -0.00000000000E+00 -0.00000000000E+00 -0.31673274075E+03  0.31673528690E+03  0.12700000000E+01 0. -1.
         25    2    1    2    0    0  0.00000000000E+00  0.00000000000E+00 -0.30443494830E+03  0.32909848224E+03  0.12500069306E+03 0.  0.
    9000005    1    3    3    0    0 -0.44184317799E+02 -0.21889788255E+02 -0.51142413034E+02  0.71049019558E+02  0.10000000000E+01 0.  0.
    9000005    1    3    3    0    0  0.44184317799E+02  0.21889788255E+02 -0.25329253527E+03  0.25804946269E+03  0.10000000000E+01 0.  0.
<mgrwt>
<rscale>  0 0.12500069E+03</rscale>
<asrwt>0</asrwt>
<pdfrwt beam="1">  1        4 0.18971952E-02 0.12500069E+03</pdfrwt>
<pdfrwt beam="2">  1       -4 0.48733335E-01 0.12500069E+03</pdfrwt>
<totfact> 0.72085787E+03</totfact>
</mgrwt>
</event>
<event>
 5    1  0.3259432E-002  0.1249428E+03  0.7818608E-02  0.1235159E+00
         -4   -1    0    0    0  501 -0.00000000000E+00  0.00000000000E+00  0.19538545972E+02  0.19579777289E+02  0.12700000000E+01 0. -1.
          4   -1    0    0  501    0  0.00000000000E+00 -0.00000000000E+00 -0.19948863103E+03  0.19949267358E+03  0.12700000000E+01 0. -1.
         25    2    1    2    0    0  0.00000000000E+00  0.00000000000E+00 -0.17995008506E+03  0.21907245086E+03  0.12494280938E+03 0.  0.
    9000005    1    3    3    0    0  0.42761585554E+02 -0.11042824073E+02 -0.12524389591E+02  0.45916854174E+02  0.10000000000E+01 0.  0.
    9000005    1    3    3    0    0 -0.42761585554E+02  0.11042824073E+02 -0.16742569547E+03  0.17315559669E+03  0.10000000000E+01 0.  0.
<mgrwt>
<rscale>  0 0.12494281E+03</rscale>
<asrwt>0</asrwt>
<pdfrwt beam="2">  1        4 0.30694040E-01 0.12494281E+03</pdfrwt>
<pdfrwt beam="1">  1       -4 0.30094129E-02 0.12494281E+03</pdfrwt>
<totfact> 0.87126596E+03</totfact>
</mgrwt>
</event>
<event>
 5    1  0.3259432E-002  0.1250006E+03  0.7818608E-02  0.1235068E+00
         -4   -1    0    0    0  501 -0.00000000000E+00  0.00000000000E+00  0.15663975780E+02  0.15715375822E+02  0.12700000000E+01 0. -1.
          4   -1    0    0  501    0  0.00000000000E+00 -0.00000000000E+00 -0.24891894818E+03  0.24892218797E+03  0.12700000000E+01 0. -1.
         25    2    1    2    0    0  0.00000000000E+00  0.00000000000E+00 -0.23325497240E+03  0.26463756379E+03  0.12500063208E+03 0.  0.
    9000005    1    3    3    0    0 -0.14729989089E+02 -0.56294290501E+02 -0.16487065281E+03  0.17484093308E+03  0.10000000000E+01 0.  0.
    9000005    1    3    3    0    0  0.14729989089E+02  0.56294290501E+02 -0.68384319588E+02  0.89796630711E+02  0.10000000000E+01 0.  0.
<mgrwt>
<rscale>  0 0.12500063E+03</rscale>
<asrwt>0</asrwt>
<pdfrwt beam="2">  1        4 0.38299423E-01 0.12500063E+03</pdfrwt>
<pdfrwt beam="1">  1       -4 0.24140457E-02 0.12500063E+03</pdfrwt>
<totfact> 0.80258490E+03</totfact>
</mgrwt>
</event>
<event>
 5    1  0.3259432E-002  0.1249955E+03  0.7818608E-02  0.1235076E+00
         -4   -1    0    0    0  501 -0.00000000000E+00  0.00000000000E+00  0.75459005125E+03  0.75459111998E+03  0.12700000000E+01 0. -1.
          4   -1    0    0  501    0  0.00000000000E+00 -0.00000000000E+00 -0.50972883436E+01  0.52531179748E+01  0.12700000000E+01 0. -1.
         25    2    1    2    0    0  0.00000000000E+00  0.00000000000E+00  0.74949276291E+03  0.75984423795E+03  0.12499545710E+03 0.  0.
    9000005    1    3    3    0    0 -0.56096635860E+02 -0.26919107471E+02  0.40992845676E+03  0.41462490345E+03  0.10000000000E+01 0.  0.
    9000005    1    3    3    0    0  0.56096635860E+02  0.26919107471E+02  0.33956430615E+03  0.34521933450E+03  0.10000000000E+01 0.  0.
<mgrwt>
<rscale>  0 0.12499546E+03</rscale>
<asrwt>0</asrwt>
<pdfrwt beam="2">  1        4 0.79626665E-03 0.12499546E+03</pdfrwt>
<pdfrwt beam="1">  1       -4 0.11610294E+00 0.12499546E+03</pdfrwt>
<totfact> 0.40111610E+03</totfact>
</mgrwt>
</event>
<event>
 5    1  0.3259432E-002  0.1250004E+03  0.7818608E-02  0.1235069E+00
          4   -1    0    0  501    0  0.00000000000E+00  0.00000000000E+00  0.12734667872E+03  0.12735301128E+03  0.12700000000E+01 0. -1.
         -4   -1    0    0    0  501 -0.00000000000E+00 -0.00000000000E+00 -0.30654078928E+02  0.30680375729E+02  0.12700000000E+01 0. -1.
         25    2    1    2    0    0  0.00000000000E+00  0.00000000000E+00  0.96692599792E+02  0.15803338701E+03  0.12500037021E+03 0.  0.
    9000005    1    3    3    0    0  0.32756262889E+02  0.27516301050E+01  0.11553959458E+03  0.12012885641E+03  0.10000000000E+01 0.  0.
    9000005    1    3    3    0    0 -0.32756262889E+02 -0.27516301050E+01 -0.18846994792E+02  0.37904530591E+02  0.10000000000E+01 0.  0.
<mgrwt>
<rscale>  0 0.12500037E+03</rscale>
<asrwt>0</asrwt>
<pdfrwt beam="1">  1        4 0.19594307E-01 0.12500037E+03</pdfrwt>
<pdfrwt beam="2">  1       -4 0.47185220E-02 0.12500037E+03</pdfrwt>
<totfact> 0.97722463E+03</totfact>
</mgrwt>
</event>
<event>
 5    1  0.3259432E-002  0.1249999E+03  0.7818608E-02  0.1235069E+00
         -4   -1    0    0    0  501 -0.00000000000E+00  0.00000000000E+00  0.71217190119E+02  0.71228513030E+02  0.12700000000E+01 0. -1.
          4   -1    0    0  501    0  0.00000000000E+00 -0.00000000000E+00 -0.54826683861E+02  0.54841390967E+02  0.12700000000E+01 0. -1.
         25    2    1    2    0    0  0.00000000000E+00  0.00000000000E+00  0.16390506259E+02  0.12606990400E+03  0.12499988799E+03 0.  0.
    9000005    1    3    3    0    0 -0.49174888416E+02  0.45900824948E+01 -0.30420939188E+02  0.58014412426E+02  0.10000000000E+01 0.  0.
    9000005    1    3    3    0    0  0.49174888416E+02 -0.45900824948E+01  0.46811445447E+02  0.68055491571E+02  0.10000000000E+01 0.  0.
<mgrwt>
<rscale>  0 0.12499989E+03</rscale>
<asrwt>0</asrwt>
<pdfrwt beam="2">  1        4 0.84368768E-02 0.12499989E+03</pdfrwt>
<pdfrwt beam="1">  1       -4 0.10958493E-01 0.12499989E+03</pdfrwt>
<totfact> 0.10429452E+04</totfact>
</mgrwt>
</event>
<event>
 5    1  0.3259432E-002  0.1249974E+03  0.7818608E-02  0.1235073E+00
          4   -1    0    0  501    0  0.00000000000E+00  0.00000000000E+00  0.39363202489E+03  0.39363407362E+03  0.12700000000E+01 0.  1.
         -4   -1    0    0    0  501 -0.00000000000E+00 -0.00000000000E+00 -0.98804784431E+01  0.99617646160E+01  0.12700000000E+01 0.  1.
         25    2    1    2    0    0  0.00000000000E+00  0.00000000000E+00  0.38375154644E+03  0.40359583824E+03  0.12499740495E+03 0.  0.
    9000005    1    3    3    0    0  0.10103290000E+02  0.88481112663E+01 -0.51815731802E+01  0.14429630710E+02  0.10000000000E+01 0.  0.
    9000005    1    3    3    0    0 -0.10103290000E+02 -0.88481112663E+01  0.38893311962E+03  0.38916620753E+03  0.10000000000E+01 0.  0.
<mgrwt>
<rscale>  0 0.12499740E+03</rscale>
<asrwt>0</asrwt>
<pdfrwt beam="1">  1        4 0.60565177E-01 0.12499740E+03</pdfrwt>
<pdfrwt beam="2">  1       -4 0.15264841E-02 0.12499740E+03</pdfrwt>
<totfact> 0.64208238E+03</totfact>
</mgrwt>
</event>
<event>
 5    1  0.3259432E-002  0.1249976E+03  0.7818608E-02  0.1235073E+00
          4   -1    0    0  501    0  0.00000000000E+00  0.00000000000E+00  0.15961635351E+03  0.15962140586E+03  0.12700000000E+01 0.  1.
         -4   -1    0    0    0  501 -0.00000000000E+00 -0.00000000000E+00 -0.24449900692E+02  0.24482862248E+02  0.12700000000E+01 0.  1.
         25    2    1    2    0    0  0.00000000000E+00  0.00000000000E+00  0.13516645282E+03  0.18410426811E+03  0.12499764625E+03 0.  0.
    9000005    1    3    3    0    0 -0.26705738862E+02 -0.22399473768E+02 -0.88094775982E+01  0.35965814446E+02  0.10000000000E+01 0.  0.
    9000005    1    3    3    0    0  0.26705738862E+02  0.22399473768E+02  0.14397593042E+03  0.14813845366E+03  0.10000000000E+01 0.  0.
<mgrwt>
<rscale>  0 0.12499765E+03</rscale>
<asrwt>0</asrwt>
<pdfrwt beam="1">  1        4 0.24559286E-01 0.12499765E+03</pdfrwt>
<pdfrwt beam="2">  1       -4 0.37644474E-02 0.12499765E+03</pdfrwt>
<totfact> 0.92888295E+03</totfact>
</mgrwt>
</event>
<event>
 5    1  0.3259432E-002  0.1249982E+03  0.7818608E-02  0.1235072E+00
         -4   -1    0    0    0  501 -0.00000000000E+00  0.00000000000E+00  0.10778478407E+03  0.10779226585E+03  0.12700000000E+01 0.  1.
          4   -1    0    0  501    0  0.00000000000E+00 -0.00000000000E+00 -0.36220291043E+02  0.36242549348E+02  0.12700000000E+01 0.  1.
         25    2    1    2    0    0  0.00000000000E+00  0.00000000000E+00  0.71564493026E+02  0.14403481520E+03  0.12499820529E+03 0.  0.
    9000005    1    3    3    0    0  0.28952406777E+02  0.52245494391E+02  0.14619373099E+02  0.61502517121E+02  0.10000000000E+01 0.  0.
    9000005    1    3    3    0    0 -0.28952406777E+02 -0.52245494391E+02  0.56945119927E+02  0.82532298077E+02  0.10000000000E+01 0.  0.
<mgrwt>
<rscale>  0 0.12499821E+03</rscale>
<asrwt>0</asrwt>
<pdfrwt beam="2">  1        4 0.55746402E-02 0.12499821E+03</pdfrwt>
<pdfrwt beam="1">  1       -4 0.16584562E-01 0.12499821E+03</pdfrwt>
<totfact> 0.10051042E+04</totfact>
</mgrwt>
</event>
<event>
 5    1  0.3259432E-002  0.1249997E+03  0.7818608E-02  0.1235070E+00
          4   -1    0    0  501    0  0.00000000000E+00  0.00000000000E+00  0.14665553551E+03  0.14666103435E+03  0.12700000000E+01 0. -1.
         -4   -1    0    0    0  501 -0.00000000000E+00 -0.00000000000E+00 -0.26614269531E+02  0.26644553715E+02  0.12700000000E+01 0. -1.
         25    2    1    2    0    0  0.00000000000E+00  0.00000000000E+00  0.12004126598E+03  0.17330558806E+03  0.12499968526E+03 0.  0.
    9000005    1    3    3    0    0  0.31052528226E+02  0.10442679369E+02 -0.13760315556E+02  0.35547930261E+02  0.10000000000E+01 0.  0.
    9000005    1    3    3    0    0 -0.31052528226E+02 -0.10442679369E+02  0.13380158153E+03  0.13775765780E+03  0.10000000000E+01 0.  0.
<mgrwt>
<rscale>  0 0.12499969E+03</rscale>
<asrwt>0</asrwt>
<pdfrwt beam="1">  1        4 0.22565143E-01 0.12499969E+03</pdfrwt>
<pdfrwt beam="2">  1       -4 0.40972555E-02 0.12499969E+03</pdfrwt>
<totfact> 0.94836757E+03</totfact>
</mgrwt>
</event>
<event>
 5    1  0.3259432E-002  0.1250011E+03  0.7818608E-02  0.1235068E+00
          4   -1    0    0  501    0  0.00000000000E+00  0.00000000000E+00  0.40439872010E+02  0.40459809048E+02  0.12700000000E+01 0. -1.
         -4   -1    0    0    0  501 -0.00000000000E+00 -0.00000000000E+00 -0.96547828781E+02  0.96556181275E+02  0.12700000000E+01 0. -1.
         25    2    1    2    0    0  0.00000000000E+00  0.00000000000E+00 -0.56107956771E+02  0.13701599032E+03  0.12500111516E+03 0.  0.
    9000005    1    3    3    0    0 -0.56119837302E+02  0.25334897449E+02 -0.39758679312E+02  0.73301062394E+02  0.10000000000E+01 0.  0.
    9000005    1    3    3    0    0  0.56119837302E+02 -0.25334897449E+02 -0.16349277459E+02  0.63714927929E+02  0.10000000000E+01 0.  0.
<mgrwt>
<rscale>  0 0.12500112E+03</rscale>
<asrwt>0</asrwt>
<pdfrwt beam="1">  1        4 0.62236949E-02 0.12500112E+03</pdfrwt>
<pdfrwt beam="2">  1       -4 0.14855688E-01 0.12500112E+03</pdfrwt>
<totfact> 0.10195495E+04</totfact>
</mgrwt>
</event>
<event>
 5    1  0.3259432E-002  0.1249978E+03  0.7818608E-02  0.1235073E+00
         -4   -1    0    0    0  501 -0.00000000000E+00  0.00000000000E+00  0.22773541392E+04  0.22773544934E+04  0.12700000000E+01 0.  1.
          4   -1    0    0  501    0  0.00000000000E+00 -0.00000000000E+00 -0.14797038438E+01  0.19499803756E+01  0.12700000000E+01 0.  1.
         25    2    1    2    0    0  0.00000000000E+00  0.00000000000E+00  0.22758744354E+04  0.22793044737E+04  0.12499775313E+03 0.  0.
    9000005    1    3    3    0    0  0.35623094825E+02  0.37351829004E+02  0.17802942761E+04  0.17810426367E+04  0.10000000000E+01 0.  0.
    9000005    1    3    3    0    0 -0.35623094825E+02 -0.37351829004E+02  0.49558015929E+03  0.49826183708E+03  0.10000000000E+01 0.  0.
<mgrwt>
<rscale>  0 0.12499775E+03</rscale>
<asrwt>0</asrwt>
<pdfrwt beam="2">  1        4 0.26384831E-03 0.12499775E+03</pdfrwt>
<pdfrwt beam="1">  1       -4 0.35039943E+00 0.12499775E+03</pdfrwt>
<totfact> 0.66422494E+02</totfact>
</mgrwt>
</event>
<event>
 5    1  0.3259432E-002  0.1249992E+03  0.7818608E-02  0.1235071E+00
         -4   -1    0    0    0  501 -0.00000000000E+00  0.00000000000E+00  0.71888189645E+02  0.71899406885E+02  0.12700000000E+01 0.  1.
          4   -1    0    0  501    0  0.00000000000E+00 -0.00000000000E+00 -0.54314245681E+02  0.54329091506E+02  0.12700000000E+01 0.  1.
         25    2    1    2    0    0  0.00000000000E+00  0.00000000000E+00  0.17573943964E+02  0.12622849839E+03  0.12499916120E+03 0.  0.
    9000005    1    3    3    0    0  0.42280039236E+02  0.44609481325E+02  0.20193637119E+02  0.64702322384E+02  0.10000000000E+01 0.  0.
    9000005    1    3    3    0    0 -0.42280039236E+02 -0.44609481325E+02 -0.26196931547E+01  0.61526176007E+02  0.10000000000E+01 0.  0.
<mgrwt>
<rscale>  0 0.12499916E+03</rscale>
<asrwt>0</asrwt>
<pdfrwt beam="2">  1        4 0.83580426E-02 0.12499916E+03</pdfrwt>
<pdfrwt beam="1">  1       -4 0.11061726E-01 0.12499916E+03</pdfrwt>
<totfact> 0.10426153E+04</totfact>
</mgrwt>
</event>
<event>
 5    1  0.3259432E-002  0.1249998E+03  0.7818608E-02  0.1235070E+00
          4   -1    0    0  501    0  0.00000000000E+00  0.00000000000E+00  0.65629689755E+01  0.66847185261E+01  0.12700000000E+01 0.  1.
         -4   -1    0    0    0  501 -0.00000000000E+00 -0.00000000000E+00 -0.58960131685E+03  0.58960268463E+03  0.12700000000E+01 0.  1.
         25    2    1    2    0    0  0.00000000000E+00  0.00000000000E+00 -0.58303834787E+03  0.59628740316E+03  0.12499980831E+03 0.  0.
    9000005    1    3    3    0    0  0.88391760098E+01  0.61663536045E+02 -0.26780383613E+03  0.27495530065E+03  0.10000000000E+01 0.  0.
    9000005    1    3    3    0    0 -0.88391760098E+01 -0.61663536045E+02 -0.31523451174E+03  0.32133210251E+03  0.10000000000E+01 0.  0.
<mgrwt>
<rscale>  0 0.12499981E+03</rscale>
<asrwt>0</asrwt>
<pdfrwt beam="1">  1        4 0.10191586E-02 0.12499981E+03</pdfrwt>
<pdfrwt beam="2">  1       -4 0.90717324E-01 0.12499981E+03</pdfrwt>
<totfact> 0.49103025E+03</totfact>
</mgrwt>
</event>
<event>
 5    1  0.3259432E-002  0.1250047E+03  0.7818608E-02  0.1235062E+00
         -4   -1    0    0    0  501 -0.00000000000E+00  0.00000000000E+00  0.21474387927E+02  0.21511909186E+02  0.12700000000E+01 0. -1.
          4   -1    0    0  501    0  0.00000000000E+00 -0.00000000000E+00 -0.18171802088E+03  0.18172245875E+03  0.12700000000E+01 0. -1.
         25    2    1    2    0    0  0.00000000000E+00  0.00000000000E+00 -0.16024363295E+03  0.20323436793E+03  0.12500474554E+03 0.  0.
    9000005    1    3    3    0    0 -0.30341341363E+02 -0.54472997521E+02 -0.73292985416E+02  0.96232874662E+02  0.10000000000E+01 0.  0.
    9000005    1    3    3    0    0  0.30341341363E+02  0.54472997521E+02 -0.86950647537E+02  0.10700149327E+03  0.10000000000E+01 0.  0.
<mgrwt>
<rscale>  0 0.12500475E+03</rscale>
<asrwt>0</asrwt>
<pdfrwt beam="2">  1        4 0.27959845E-01 0.12500475E+03</pdfrwt>
<pdfrwt beam="1">  1       -4 0.33069797E-02 0.12500475E+03</pdfrwt>
<totfact> 0.89583347E+03</totfact>
</mgrwt>
</event>
<event>
 5    1  0.3259432E-002  0.1250023E+03  0.7818608E-02  0.1235066E+00
         -4   -1    0    0    0  501 -0.00000000000E+00  0.00000000000E+00  0.10054416925E+02  0.10134308052E+02  0.12700000000E+01 0.  1.
          4   -1    0    0  501    0  0.00000000000E+00 -0.00000000000E+00 -0.38690657287E+03  0.38690865722E+03  0.12700000000E+01 0.  1.
         25    2    1    2    0    0  0.00000000000E+00  0.00000000000E+00 -0.37685215594E+03  0.39704296527E+03  0.12500227530E+03 0.  0.
    9000005    1    3    3    0    0  0.12844194215E+02 -0.61155065796E+02 -0.18623280733E+03  0.19643974629E+03  0.10000000000E+01 0.  0.
    9000005    1    3    3    0    0 -0.12844194215E+02  0.61155065796E+02 -0.19061934861E+03  0.20060321898E+03  0.10000000000E+01 0.  0.
<mgrwt>
<rscale>  0 0.12500228E+03</rscale>
<asrwt>0</asrwt>
<pdfrwt beam="2">  1        4 0.59530382E-01 0.12500228E+03</pdfrwt>
<pdfrwt beam="1">  1       -4 0.15531395E-02 0.12500228E+03</pdfrwt>
<totfact> 0.64838154E+03</totfact>
</mgrwt>
</event>
<event>
 5    1  0.3259432E-002  0.1250169E+03  0.7818608E-02  0.1235043E+00
         -4   -1    0    0    0  501 -0.00000000000E+00  0.00000000000E+00  0.21326559706E+03  0.21326937846E+03  0.12700000000E+01 0. -1.
          4   -1    0    0  501    0  0.00000000000E+00 -0.00000000000E+00 -0.18295349375E+02  0.18339375909E+02  0.12700000000E+01 0. -1.
         25    2    1    2    0    0  0.00000000000E+00  0.00000000000E+00  0.19497024768E+03  0.23160875437E+03  0.12501686933E+03 0.  0.
    9000005    1    3    3    0    0 -0.43060738914E+02  0.87561251934E+01  0.17982585031E+03  0.18511951114E+03  0.10000000000E+01 0.  0.
    9000005    1    3    3    0    0  0.43060738914E+02 -0.87561251934E+01  0.15144397370E+02  0.46489243228E+02  0.10000000000E+01 0.  0.
<mgrwt>
<rscale>  0 0.12501687E+03</rscale>
<asrwt>0</asrwt>
<pdfrwt beam="2">  1        4 0.28183465E-02 0.12501687E+03</pdfrwt>
<pdfrwt beam="1">  1       -4 0.32813772E-01 0.12501687E+03</pdfrwt>
<totfact> 0.85031175E+03</totfact>
</mgrwt>
</event>
<event>
 5    1  0.3259432E-002  0.1250045E+03  0.7818608E-02  0.1235062E+00
         -4   -1    0    0    0  501 -0.00000000000E+00  0.00000000000E+00  0.41165155723E+03  0.41165351628E+03  0.12700000000E+01 0.  1.
          4   -1    0    0  501    0  0.00000000000E+00 -0.00000000000E+00 -0.94454173203E+01  0.95304149099E+01  0.12700000000E+01 0.  1.
         25    2    1    2    0    0  0.00000000000E+00  0.00000000000E+00  0.40220613991E+03  0.42118393119E+03  0.12500449958E+03 0.  0.
    9000005    1    3    3    0    0 -0.28822468133E+02 -0.43099054190E+02  0.31865757201E+03  0.32284967298E+03  0.10000000000E+01 0.  0.
    9000005    1    3    3    0    0  0.28822468133E+02  0.43099054190E+02  0.83548567897E+02  0.98334258216E+02  0.10000000000E+01 0.  0.
<mgrwt>
<rscale>  0 0.12500450E+03</rscale>
<asrwt>0</asrwt>
<pdfrwt beam="2">  1        4 0.14598303E-02 0.12500450E+03</pdfrwt>
<pdfrwt beam="1">  1       -4 0.63337690E-01 0.12500450E+03</pdfrwt>
<totfact> 0.62537121E+03</totfact>
</mgrwt>
</event>
<event>
 5    1  0.3259432E-002  0.1250277E+03  0.7818608E-02  0.1235026E+00
         -4   -1    0    0    0  501 -0.00000000000E+00  0.00000000000E+00  0.26323530875E+02  0.26354149156E+02  0.12700000000E+01 0. -1.
          4   -1    0    0  501    0  0.00000000000E+00 -0.00000000000E+00 -0.14833998475E+03  0.14834542115E+03  0.12700000000E+01 0. -1.
         25    2    1    2    0    0  0.00000000000E+00  0.00000000000E+00 -0.12201645387E+03  0.17469957030E+03  0.12502769632E+03 0.  0.
    9000005    1    3    3    0    0 -0.43793954526E+02  0.36745303144E+02 -0.25691029621E+02  0.62682986201E+02  0.10000000000E+01 0.  0.
    9000005    1    3    3    0    0  0.43793954526E+02 -0.36745303144E+02 -0.96325424251E+02  0.11201658410E+03  0.10000000000E+01 0.  0.
<mgrwt>
<rscale>  0 0.12502770E+03</rscale>
<asrwt>0</asrwt>
<pdfrwt beam="2">  1        4 0.22824309E-01 0.12502770E+03</pdfrwt>
<pdfrwt beam="1">  1       -4 0.40525475E-02 0.12502770E+03</pdfrwt>
<totfact> 0.94521150E+03</totfact>
</mgrwt>
</event>
<event>
 4    1  0.3259432E-002  0.1249147E+03  0.7818608E-02  0.1235203E+00
         -4   -1    0    0    0  501 -0.00000000000E+00  0.00000000000E+00  0.11530671751E+02  0.11600400468E+02  0.12700000000E+01 0.  1.
          4   -1    0    0  501    0  0.00000000000E+00 -0.00000000000E+00 -0.33721739446E+03  0.33721978594E+03  0.12700000000E+01 0.  1.
    9000005    1    1    2    0    0 -0.17721455224E+02 -0.30092910886E+02 -0.30741354343E+03  0.30939250144E+03  0.10000000000E+01 0.  0.
    9000005    1    1    2    0    0  0.17721455224E+02  0.30092910886E+02 -0.18273179279E+02  0.39427684966E+02  0.10000000000E+01 0.  0.
<mgrwt>
<rscale>  0 0.12491470E+03</rscale>
<asrwt>0</asrwt>
<pdfrwt beam="2">  1        4 0.51885139E-01 0.12491470E+03</pdfrwt>
<pdfrwt beam="1">  1       -4 0.17794975E-02 0.12491470E+03</pdfrwt>
<totfact> 0.69986594E+03</totfact>
</mgrwt>
</event>
<event>
 5    1  0.3259432E-002  0.1249884E+03  0.7818608E-02  0.1235087E+00
         -4   -1    0    0    0  501 -0.00000000000E+00  0.00000000000E+00  0.67459579534E+02  0.67471533041E+02  0.12700000000E+01 0.  1.
          4   -1    0    0  501    0  0.00000000000E+00 -0.00000000000E+00 -0.57870246958E+02  0.57884180767E+02  0.12700000000E+01 0.  1.
         25    2    1    2    0    0  0.00000000000E+00  0.00000000000E+00  0.95893325756E+01  0.12535571381E+03  0.12498839820E+03 0.  0.
    9000005    1    3    3    0    0  0.38419154513E+02  0.30068453235E+01  0.54127148754E+02  0.66451642452E+02  0.10000000000E+01 0.  0.
    9000005    1    3    3    0    0 -0.38419154513E+02 -0.30068453235E+01 -0.44537816179E+02  0.58904071356E+02  0.10000000000E+01 0.  0.
<mgrwt>
<rscale>  0 0.12498840E+03</rscale>
<asrwt>0</asrwt>
<pdfrwt beam="2">  1        4 0.89051063E-02 0.12498840E+03</pdfrwt>
<pdfrwt beam="1">  1       -4 0.10380388E-01 0.12498840E+03</pdfrwt>
<totfact> 0.10447880E+04</totfact>
</mgrwt>
</event>
<event>
 5    1  0.3259432E-002  0.1250006E+03  0.7818608E-02  0.1235068E+00
          4   -1    0    0  501    0  0.00000000000E+00  0.00000000000E+00  0.10981324958E+04  0.10981332302E+04  0.12700000000E+01 0. -1.
         -4   -1    0    0    0  501 -0.00000000000E+00 -0.00000000000E+00 -0.34430937981E+01  0.36698494386E+01  0.12700000000E+01 0. -1.
         25    2    1    2    0    0  0.00000000000E+00  0.00000000000E+00  0.10946894020E+04  0.11018030796E+04  0.12500055763E+03 0.  0.
    9000005    1    3    3    0    0  0.23330883181E+02 -0.23463337147E+02  0.80063670007E+02  0.86637460460E+02  0.10000000000E+01 0.  0.
    9000005    1    3    3    0    0 -0.23330883181E+02  0.23463337147E+02  0.10146257320E+04  0.10151656192E+04  0.10000000000E+01 0.  0.
<mgrwt>
<rscale>  0 0.12500056E+03</rscale>
<asrwt>0</asrwt>
<pdfrwt beam="1">  1        4 0.16896113E+00 0.12500056E+03</pdfrwt>
<pdfrwt beam="2">  1       -4 0.54720543E-03 0.12500056E+03</pdfrwt>
<totfact> 0.27430313E+03</totfact>
</mgrwt>
</event>
<event>
 5    1  0.3259432E-002  0.1249983E+03  0.7818608E-02  0.1235072E+00
         -4   -1    0    0    0  501 -0.00000000000E+00  0.00000000000E+00  0.49360796563E+03  0.49360959941E+03  0.12700000000E+01 0.  1.
          4   -1    0    0  501    0  0.00000000000E+00 -0.00000000000E+00 -0.78608448775E+01  0.79627747795E+01  0.12700000000E+01 0.  1.
         25    2    1    2    0    0  0.00000000000E+00  0.00000000000E+00  0.48574712075E+03  0.50157237419E+03  0.12499832493E+03 0.  0.
    9000005    1    3    3    0    0 -0.17229679290E+02  0.59513585266E+02  0.21017204866E+03  0.21911645013E+03  0.10000000000E+01 0.  0.
    9000005    1    3    3    0    0  0.17229679290E+02 -0.59513585266E+02  0.27557507209E+03  0.28245592406E+03  0.10000000000E+01 0.  0.
<mgrwt>
<rscale>  0 0.12499832E+03</rscale>
<asrwt>0</asrwt>
<pdfrwt beam="2">  1        4 0.12173270E-02 0.12499832E+03</pdfrwt>
<pdfrwt beam="1">  1       -4 0.75947664E-01 0.12499832E+03</pdfrwt>
<totfact> 0.55744622E+03</totfact>
</mgrwt>
</event>
<event>
 5    1  0.3259432E-002  0.1249996E+03  0.7818608E-02  0.1235070E+00
          4   -1    0    0  501    0  0.00000000000E+00  0.00000000000E+00  0.63463392927E+03  0.63463520000E+03  0.12700000000E+01 0.  1.
         -4   -1    0    0    0  501 -0.00000000000E+00 -0.00000000000E+00 -0.60882861898E+01  0.62193350713E+01  0.12700000000E+01 0.  1.
         25    2    1    2    0    0  0.00000000000E+00  0.00000000000E+00  0.62854564308E+03  0.64085453507E+03  0.12499963875E+03 0.  0.
    9000005    1    3    3    0    0 -0.40005392308E+02 -0.37020448145E+02  0.47098032589E+03  0.47412489111E+03  0.10000000000E+01 0.  0.
    9000005    1    3    3    0    0  0.40005392308E+02  0.37020448145E+02  0.15756531718E+03  0.16672964396E+03  0.10000000000E+01 0.  0.
<mgrwt>
<rscale>  0 0.12499964E+03</rscale>
<asrwt>0</asrwt>
<pdfrwt beam="1">  1        4 0.97646206E-01 0.12499964E+03</pdfrwt>
<pdfrwt beam="2">  1       -4 0.94683747E-03 0.12499964E+03</pdfrwt>
<totfact> 0.46386578E+03</totfact>
</mgrwt>
</event>
<event>
 5    1  0.3259432E-002  0.1250034E+03  0.7818608E-02  0.1235064E+00
          4   -1    0    0  501    0  0.00000000000E+00  0.00000000000E+00  0.22222273651E+03  0.22222636550E+03  0.12700000000E+01 0.  1.
         -4   -1    0    0    0  501 -0.00000000000E+00 -0.00000000000E+00 -0.17552330689E+02  0.17598216177E+02  0.12700000000E+01 0.  1.
         25    2    1    2    0    0  0.00000000000E+00  0.00000000000E+00  0.20467040583E+03  0.23982458168E+03  0.12500341978E+03 0.  0.
    9000005    1    3    3    0    0 -0.25067380085E+02 -0.23942466531E+02  0.20209670451E+03  0.20505046506E+03  0.10000000000E+01 0.  0.
    9000005    1    3    3    0    0  0.25067380085E+02  0.23942466531E+02  0.25737013125E+01  0.34774116615E+02  0.10000000000E+01 0.  0.
<mgrwt>
<rscale>  0 0.12500342E+03</rscale>
<asrwt>0</asrwt>
<pdfrwt beam="1">  1        4 0.34191923E-01 0.12500342E+03</pdfrwt>
<pdfrwt beam="2">  1       -4 0.27041673E-02 0.12500342E+03</pdfrwt>
<totfact> 0.83817107E+03</totfact>
</mgrwt>
</event>
<event>
 5    1  0.3259432E-002  0.1249959E+03  0.7818608E-02  0.1235076E+00
          4   -1    0    0  501    0  0.00000000000E+00  0.00000000000E+00  0.46022119424E+03  0.46022294655E+03  0.12700000000E+01 0.  1.
         -4   -1    0    0    0  501 -0.00000000000E+00 -0.00000000000E+00 -0.84379272854E+01  0.85329664756E+01  0.12700000000E+01 0.  1.
         25    2    1    2    0    0  0.00000000000E+00  0.00000000000E+00  0.45178326695E+03  0.46875591302E+03  0.12499594271E+03 0.  0.
    9000005    1    3    3    0    0  0.24955047021E+02  0.21262133498E+02  0.42539793758E+03  0.42666056531E+03  0.10000000000E+01 0.  0.
    9000005    1    3    3    0    0 -0.24955047021E+02 -0.21262133498E+02  0.26385329372E+02  0.42095347710E+02  0.10000000000E+01 0.  0.
<mgrwt>
<rscale>  0 0.12499594E+03</rscale>
<asrwt>0</asrwt>
<pdfrwt beam="1">  1        4 0.70810703E-01 0.12499594E+03</pdfrwt>
<pdfrwt beam="2">  1       -4 0.13055882E-02 0.12499594E+03</pdfrwt>
<totfact> 0.58377935E+03</totfact>
</mgrwt>
</event>
<event>
 5    1  0.3259432E-002  0.1250197E+03  0.7818608E-02  0.1235038E+00
         -4   -1    0    0    0  501 -0.00000000000E+00  0.00000000000E+00  0.37092985207E+01  0.39206881432E+01  0.12700000000E+01 0.  1.
          4   -1    0    0  501    0  0.00000000000E+00 -0.00000000000E+00 -0.10240318174E+04  0.10240326049E+04  0.12700000000E+01 0.  1.
         25    2    1    2    0    0  0.00000000000E+00  0.00000000000E+00 -0.10203225189E+04  0.10279532931E+04  0.12501971923E+03 0.  0.
    9000005    1    3    3    0    0 -0.20887545435E+02 -0.17971302405E+02 -0.97143504991E+03  0.97182627741E+03  0.10000000000E+01 0.  0.
    9000005    1    3    3    0    0  0.20887545435E+02  0.17971302405E+02 -0.48887468947E+02  0.56127015639E+02  0.10000000000E+01 0.  0.
<mgrwt>
<rscale>  0 0.12501972E+03</rscale>
<asrwt>0</asrwt>
<pdfrwt beam="2">  1        4 0.15755946E+00 0.12501972E+03</pdfrwt>
<pdfrwt beam="1">  1       -4 0.58698344E-03 0.12501972E+03</pdfrwt>
<totfact> 0.29680533E+03</totfact>
</mgrwt>
</event>
<event>
 5    1  0.3259432E-002  0.1249990E+03  0.7818608E-02  0.1235071E+00
         -4   -1    0    0    0  501 -0.00000000000E+00  0.00000000000E+00  0.86017346884E+02  0.86026721808E+02  0.12700000000E+01 0.  1.
          4   -1    0    0  501    0  0.00000000000E+00 -0.00000000000E+00 -0.45390865079E+02  0.45408628394E+02  0.12700000000E+01 0.  1.
         25    2    1    2    0    0  0.00000000000E+00  0.00000000000E+00  0.40626481805E+02  0.13143535020E+03  0.12499896103E+03 0.  0.
    9000005    1    3    3    0    0  0.31873133067E+02 -0.21153283425E+02  0.72272534002E+02  0.81778219486E+02  0.10000000000E+01 0.  0.
    9000005    1    3    3    0    0 -0.31873133067E+02  0.21153283425E+02 -0.31646052198E+02  0.49657130715E+02  0.10000000000E+01 0.  0.
<mgrwt>
<rscale>  0 0.12499896E+03</rscale>
<asrwt>0</asrwt>
<pdfrwt beam="2">  1        4 0.69852977E-02 0.12499896E+03</pdfrwt>
<pdfrwt beam="1">  1       -4 0.13235525E-01 0.12499896E+03</pdfrwt>
<totfact> 0.10314007E+04</totfact>
</mgrwt>
</event>
<event>
 5    1  0.3259432E-002  0.1249968E+03  0.7818608E-02  0.1235074E+00
         -4   -1    0    0    0  501 -0.00000000000E+00  0.00000000000E+00  0.92024505143E+03  0.92024592777E+03  0.12700000000E+01 0. -1.
          4   -1    0    0  501    0  0.00000000000E+00 -0.00000000000E+00 -0.41486830823E+01  0.43387177043E+01  0.12700000000E+01 0. -1.
         25    2    1    2    0    0  0.00000000000E+00  0.00000000000E+00  0.91609636834E+03  0.92458464547E+03  0.12499684216E+03 0.  0.
    9000005    1    3    3    0    0 -0.11540969159E+02  0.58631761918E+02  0.32283011826E+03  0.32831564497E+03  0.10000000000E+01 0.  0.
    9000005    1    3    3    0    0  0.11540969159E+02 -0.58631761918E+02  0.59326625008E+03  0.59626900050E+03  0.10000000000E+01 0.  0.
<mgrwt>
<rscale>  0 0.12499684E+03</rscale>
<asrwt>0</asrwt>
<pdfrwt beam="2">  1        4 0.65294414E-03 0.12499684E+03</pdfrwt>
<pdfrwt beam="1">  1       -4 0.14159090E+00 0.12499684E+03</pdfrwt>
<totfact> 0.33238115E+03</totfact>
</mgrwt>
</event>
<event>
 5    1  0.3259432E-002  0.1250003E+03  0.7818608E-02  0.1235069E+00
         -4   -1    0    0    0  501 -0.00000000000E+00  0.00000000000E+00  0.33924250613E+02  0.33948014369E+02  0.12700000000E+01 0. -1.
          4   -1    0    0  501    0  0.00000000000E+00 -0.00000000000E+00 -0.11507916087E+03  0.11508616844E+03  0.12700000000E+01 0. -1.
         25    2    1    2    0    0  0.00000000000E+00  0.00000000000E+00 -0.81154910252E+02  0.14903418281E+03  0.12500027275E+03 0.  0.
    9000005    1    3    3    0    0 -0.25918798555E+02 -0.19031408851E+02 -0.10446457921E+03  0.10930611580E+03  0.10000000000E+01 0.  0.
    9000005    1    3    3    0    0  0.25918798555E+02  0.19031408851E+02  0.23309668957E+02  0.39728067009E+02  0.10000000000E+01 0.  0.
<mgrwt>
<rscale>  0 0.12500027E+03</rscale>
<asrwt>0</asrwt>
<pdfrwt beam="2">  1        4 0.17706853E-01 0.12500027E+03</pdfrwt>
<pdfrwt beam="1">  1       -4 0.52214826E-02 0.12500027E+03</pdfrwt>
<totfact> 0.99495957E+03</totfact>
</mgrwt>
</event>
<event>
 5    1  0.3259432E-002  0.1249992E+03  0.7818608E-02  0.1235071E+00
          4   -1    0    0  501    0  0.00000000000E+00  0.00000000000E+00  0.34171658742E+03  0.34171894741E+03  0.12700000000E+01 0. -1.
         -4   -1    0    0    0  501 -0.00000000000E+00 -0.00000000000E+00 -0.11393426867E+02  0.11463990394E+02  0.12700000000E+01 0. -1.
         25    2    1    2    0    0  0.00000000000E+00  0.00000000000E+00  0.33032316055E+03  0.35318293780E+03  0.12499918863E+03 0.  0.
    9000005    1    3    3    0    0 -0.28040003196E+02  0.48919751311E+02  0.89040380891E+02  0.10539721665E+03  0.10000000000E+01 0.  0.
    9000005    1    3    3    0    0  0.28040003196E+02 -0.48919751311E+02  0.24128277966E+03  0.24778572116E+03  0.10000000000E+01 0.  0.
<mgrwt>
<rscale>  0 0.12499919E+03</rscale>
<asrwt>0</asrwt>
<pdfrwt beam="1">  1        4 0.52577396E-01 0.12499919E+03</pdfrwt>
<pdfrwt beam="2">  1       -4 0.17584443E-02 0.12499919E+03</pdfrwt>
<totfact> 0.69377048E+03</totfact>
</mgrwt>
</event>
<event>
 5    1  0.3259432E-002  0.1249747E+03  0.7818608E-02  0.1235109E+00
          4   -1    0    0  501    0  0.00000000000E+00  0.00000000000E+00  0.13525433683E+02  0.13584927541E+02  0.12700000000E+01 0. -1.
         -4   -1    0    0    0  501 -0.00000000000E+00 -0.00000000000E+00 -0.28799652538E+03  0.28799932558E+03  0.12700000000E+01 0. -1.
         25    2    1    2    0    0  0.00000000000E+00  0.00000000000E+00 -0.27447109170E+03  0.30158425312E+03  0.12497472364E+03 0.  0.
    9000005    1    3    3    0    0 -0.18284283280E+02  0.33191514555E+02 -0.25711114359E+03  0.25989061509E+03  0.10000000000E+01 0.  0.
    9000005    1    3    3    0    0  0.18284283280E+02 -0.33191514555E+02 -0.17359948106E+02  0.41693638024E+02  0.10000000000E+01 0.  0.
<mgrwt>
<rscale>  0 0.12497472E+03</rscale>
<asrwt>0</asrwt>
<pdfrwt beam="1">  1        4 0.20856280E-02 0.12497472E+03</pdfrwt>
<pdfrwt beam="2">  1       -4 0.44311945E-01 0.12497472E+03</pdfrwt>
<totfact> 0.75442863E+03</totfact>
</mgrwt>
</event>
<event>
 5    1  0.3259432E-002  0.1250003E+03  0.7818608E-02  0.1235069E+00
         -4   -1    0    0    0  501 -0.00000000000E+00  0.00000000000E+00  0.12618783135E+02  0.12682530812E+02  0.12700000000E+01 0. -1.
          4   -1    0    0  501    0  0.00000000000E+00 -0.00000000000E+00 -0.30871500270E+03  0.30871761497E+03  0.12700000000E+01 0. -1.
         25    2    1    2    0    0  0.00000000000E+00  0.00000000000E+00 -0.29609621957E+03  0.32140014578E+03  0.12500032987E+03 0.  0.
    9000005    1    3    3    0    0 -0.45300734514E+02  0.36388923451E+02 -0.88912857034E+02  0.10622055565E+03  0.10000000000E+01 0.  0.
    9000005    1    3    3    0    0  0.45300734514E+02 -0.36388923451E+02 -0.20718336254E+03  0.21517959013E+03  0.10000000000E+01 0.  0.
<mgrwt>
<rscale>  0 0.12500033E+03</rscale>
<asrwt>0</asrwt>
<pdfrwt beam="2">  1        4 0.47499715E-01 0.12500033E+03</pdfrwt>
<pdfrwt beam="1">  1       -4 0.19464561E-02 0.12500033E+03</pdfrwt>
<totfact> 0.72989374E+03</totfact>
</mgrwt>
</event>
<event>
 5    1  0.3259432E-002  0.1249777E+03  0.7818608E-02  0.1235104E+00
          4   -1    0    0  501    0  0.00000000000E+00  0.00000000000E+00  0.87575123318E+01  0.88491198569E+01  0.12700000000E+01 0.  1.
         -4   -1    0    0    0  501 -0.00000000000E+00 -0.00000000000E+00 -0.44347421097E+03  0.44347602945E+03  0.12700000000E+01 0.  1.
         25    2    1    2    0    0  0.00000000000E+00  0.00000000000E+00 -0.43471669864E+03  0.45232514931E+03  0.12497772849E+03 0.  0.
    9000005    1    3    3    0    0 -0.42709189132E+02 -0.24048246382E+02 -0.77117110793E+02  0.91380751625E+02  0.10000000000E+01 0.  0.
    9000005    1    3    3    0    0  0.42709189132E+02  0.24048246382E+02 -0.35759958785E+03  0.36094439768E+03  0.10000000000E+01 0.  0.
<mgrwt>
<rscale>  0 0.12497773E+03</rscale>
<asrwt>0</asrwt>
<pdfrwt beam="1">  1        4 0.13544965E-02 0.12497773E+03</pdfrwt>
<pdfrwt beam="2">  1       -4 0.68233971E-01 0.12497773E+03</pdfrwt>
<totfact> 0.59792228E+03</totfact>
</mgrwt>
</event>
<event>
 5    1  0.3259432E-002  0.1250018E+03  0.7818608E-02  0.1235067E+00
          4   -1    0    0  501    0  0.00000000000E+00  0.00000000000E+00  0.30053532508E+02  0.30080354323E+02  0.12700000000E+01 0.  1.
         -4   -1    0    0    0  501 -0.00000000000E+00 -0.00000000000E+00 -0.12989214015E+03  0.12989834861E+03  0.12700000000E+01 0.  1.
         25    2    1    2    0    0  0.00000000000E+00  0.00000000000E+00 -0.99838607641E+02  0.15997870294E+03  0.12500175126E+03 0.  0.
    9000005    1    3    3    0    0  0.37018073948E+02  0.37797659349E+02 -0.92488361101E+02  0.10655560891E+03  0.10000000000E+01 0.  0.
    9000005    1    3    3    0    0 -0.37018073948E+02 -0.37797659349E+02 -0.73502465398E+01  0.53423094026E+02  0.10000000000E+01 0.  0.
<mgrwt>
<rscale>  0 0.12500175E+03</rscale>
<asrwt>0</asrwt>
<pdfrwt beam="1">  1        4 0.46261613E-02 0.12500175E+03</pdfrwt>
<pdfrwt beam="2">  1       -4 0.19985947E-01 0.12500175E+03</pdfrwt>
<totfact> 0.97343059E+03</totfact>
</mgrwt>
</event>
<event>
 5    1  0.3259432E-002  0.1249982E+03  0.7818608E-02  0.1235072E+00
         -4   -1    0    0    0  501 -0.00000000000E+00  0.00000000000E+00  0.40507371559E+03  0.40507570645E+03  0.12700000000E+01 0.  1.
          4   -1    0    0  501    0  0.00000000000E+00 -0.00000000000E+00 -0.95991856107E+01  0.96828334897E+01  0.12700000000E+01 0.  1.
         25    2    1    2    0    0  0.00000000000E+00  0.00000000000E+00  0.39547452997E+03  0.41475853994E+03  0.12499817037E+03 0.  0.
    9000005    1    3    3    0    0  0.29188483718E+02  0.80336850930E+00  0.14412503122E+02  0.32578109659E+02  0.10000000000E+01 0.  0.
    9000005    1    3    3    0    0 -0.29188483718E+02 -0.80336850930E+00  0.38106202685E+03  0.38218043028E+03  0.10000000000E+01 0.  0.
<mgrwt>
<rscale>  0 0.12499817E+03</rscale>
<asrwt>0</asrwt>
<pdfrwt beam="2">  1        4 0.14833853E-02 0.12499817E+03</pdfrwt>
<pdfrwt beam="1">  1       -4 0.62325625E-01 0.12499817E+03</pdfrwt>
<totfact> 0.63144808E+03</totfact>
</mgrwt>
</event>
<event>
 5    1  0.3259432E-002  0.1250024E+03  0.7818608E-02  0.1235066E+00
         -4   -1    0    0    0  501 -0.00000000000E+00  0.00000000000E+00  0.16894231053E+02  0.16941899034E+02  0.12700000000E+01 0. -1.
          4   -1    0    0  501    0  0.00000000000E+00 -0.00000000000E+00 -0.23085171544E+03  0.23085520878E+03  0.12700000000E+01 0. -1.
         25    2    1    2    0    0  0.00000000000E+00  0.00000000000E+00 -0.21395748439E+03  0.24779710782E+03  0.12500240604E+03 0.  0.
    9000005    1    3    3    0    0 -0.41012614982E+02  0.34536275160E+02 -0.43339448537E+02  0.68949957861E+02  0.10000000000E+01 0.  0.
    9000005    1    3    3    0    0  0.41012614982E+02 -0.34536275160E+02 -0.17061803585E+03  0.17884714995E+03  0.10000000000E+01 0.  0.
<mgrwt>
<rscale>  0 0.12500241E+03</rscale>
<asrwt>0</asrwt>
<pdfrwt beam="2">  1        4 0.35519582E-01 0.12500241E+03</pdfrwt>
<pdfrwt beam="1">  1       -4 0.26030481E-02 0.12500241E+03</pdfrwt>
<totfact> 0.82645231E+03</totfact>
</mgrwt>
</event>
<event>
 5    1  0.3259432E-002  0.1249990E+03  0.7818608E-02  0.1235071E+00
         -4   -1    0    0    0  501 -0.00000000000E+00  0.00000000000E+00  0.12126397090E+03  0.12127062109E+03  0.12700000000E+01 0.  1.
          4   -1    0    0  501    0  0.00000000000E+00 -0.00000000000E+00 -0.32192190399E+02  0.32217231766E+02  0.12700000000E+01 0.  1.
         25    2    1    2    0    0  0.00000000000E+00  0.00000000000E+00  0.89071780505E+02  0.15348785286E+03  0.12499895556E+03 0.  0.
    9000005    1    3    3    0    0  0.35578963772E+02 -0.51357176697E+02  0.46166039873E+02  0.77689931773E+02  0.10000000000E+01 0.  0.
    9000005    1    3    3    0    0 -0.35578963772E+02  0.51357176697E+02  0.42905740632E+02  0.75797921083E+02  0.10000000000E+01 0.  0.
<mgrwt>
<rscale>  0 0.12499896E+03</rscale>
<asrwt>0</asrwt>
<pdfrwt beam="2">  1        4 0.49550825E-02 0.12499896E+03</pdfrwt>
<pdfrwt beam="1">  1       -4 0.18658433E-01 0.12499896E+03</pdfrwt>
<totfact> 0.98615252E+03</totfact>
</mgrwt>
</event>
<event>
 5    1  0.3259432E-002  0.1250055E+03  0.7818608E-02  0.1235061E+00
         -4   -1    0    0    0  501 -0.00000000000E+00  0.00000000000E+00  0.11674280718E+04  0.11674287625E+04  0.12700000000E+01 0. -1.
          4   -1    0    0  501    0  0.00000000000E+00 -0.00000000000E+00 -0.32251123212E+01  0.34661577408E+01  0.12700000000E+01 0. -1.
         25    2    1    2    0    0  0.00000000000E+00  0.00000000000E+00  0.11642029594E+04  0.11708949203E+04  0.12500553428E+03 0.  0.
    9000005    1    3    3    0    0 -0.25112933590E+02 -0.24309500640E+02  0.96836785851E+02  0.10295617684E+03  0.10000000000E+01 0.  0.
    9000005    1    3    3    0    0  0.25112933590E+02  0.24309500640E+02  0.10673661736E+04  0.10679387435E+04  0.10000000000E+01 0.  0.
<mgrwt>
<rscale>  0 0.12500553E+03</rscale>
<asrwt>0</asrwt>
<pdfrwt beam="2">  1        4 0.51476565E-03 0.12500553E+03</pdfrwt>
<pdfrwt beam="1">  1       -4 0.17962311E+00 0.12500553E+03</pdfrwt>
<totfact> 0.25484423E+03</totfact>
</mgrwt>
</event>
<event>
 5    1  0.3259432E-002  0.1249996E+03  0.7818608E-02  0.1235070E+00
         -4   -1    0    0    0  501 -0.00000000000E+00  0.00000000000E+00  0.16320789673E+03  0.16321283789E+03  0.12700000000E+01 0. -1.
          4   -1    0    0  501    0  0.00000000000E+00 -0.00000000000E+00 -0.23911882063E+02  0.23945584223E+02  0.12700000000E+01 0. -1.
         25    2    1    2    0    0  0.00000000000E+00  0.00000000000E+00  0.13929601466E+03  0.18715842212E+03  0.12499958107E+03 0.  0.
    9000005    1    3    3    0    0 -0.89202553752E+01  0.54480375698E+02  0.25802167079E+02  0.60946157533E+02  0.10000000000E+01 0.  0.
    9000005    1    3    3    0    0  0.89202553752E+01 -0.54480375698E+02  0.11349384758E+03  0.12621226458E+03  0.10000000000E+01 0.  0.
<mgrwt>
<rscale>  0 0.12499958E+03</rscale>
<asrwt>0</asrwt>
<pdfrwt beam="2">  1        4 0.36817238E-02 0.12499958E+03</pdfrwt>
<pdfrwt beam="1">  1       -4 0.25111879E-01 0.12499958E+03</pdfrwt>
<totfact> 0.92344971E+03</totfact>
</mgrwt>
</event>
<event>
 5    1  0.3259432E-002  0.1249993E+03  0.7818608E-02  0.1235070E+00
         -4   -1    0    0    0  501 -0.00000000000E+00  0.00000000000E+00  0.22079029247E+02  0.22115524694E+02  0.12700000000E+01 0.  1.
          4   -1    0    0  501    0  0.00000000000E+00 -0.00000000000E+00 -0.17673427895E+03  0.17673884195E+03  0.12700000000E+01 0.  1.
         25    2    1    2    0    0  0.00000000000E+00  0.00000000000E+00 -0.15465524970E+03  0.19885436665E+03  0.12499925150E+03 0.  0.
    9000005    1    3    3    0    0 -0.58906295696E+02 -0.20828388311E+02 -0.79229856072E+02  0.10090660794E+03  0.10000000000E+01 0.  0.
    9000005    1    3    3    0    0  0.58906295696E+02  0.20828388311E+02 -0.75425393629E+02  0.97947758710E+02  0.10000000000E+01 0.  0.
<mgrwt>
<rscale>  0 0.12499925E+03</rscale>
<asrwt>0</asrwt>
<pdfrwt beam="2">  1        4 0.27193046E-01 0.12499925E+03</pdfrwt>
<pdfrwt beam="1">  1       -4 0.33999322E-02 0.12499925E+03</pdfrwt>
<totfact> 0.90330601E+03</totfact>
</mgrwt>
</event>
<event>
 5    1  0.3259432E-002  0.1250033E+03  0.7818608E-02  0.1235064E+00
         -4   -1    0    0    0  501 -0.00000000000E+00  0.00000000000E+00  0.42879310261E+02  0.42898113577E+02  0.12700000000E+01 0.  1.
          4   -1    0    0  501    0  0.00000000000E+00 -0.00000000000E+00 -0.91060338105E+02  0.91069193890E+02  0.12700000000E+01 0.  1.
         25    2    1    2    0    0  0.00000000000E+00  0.00000000000E+00 -0.48181027844E+02  0.13396730747E+03  0.12500331206E+03 0.  0.
    9000005    1    3    3    0    0 -0.22488570674E+02 -0.51518973401E+02  0.51716177736E+01  0.56459596719E+02  0.10000000000E+01 0.  0.
    9000005    1    3    3    0    0  0.22488570674E+02  0.51518973401E+02 -0.53352645617E+02  0.77507710749E+02  0.10000000000E+01 0.  0.
<mgrwt>
<rscale>  0 0.12500331E+03</rscale>
<asrwt>0</asrwt>
<pdfrwt beam="2">  1        4 0.14011410E-01 0.12500331E+03</pdfrwt>
<pdfrwt beam="1">  1       -4 0.65989446E-02 0.12500331E+03</pdfrwt>
<totfact> 0.10259117E+04</totfact>
</mgrwt>
</event>
<event>
 5    1  0.3259432E-002  0.1250085E+03  0.7818608E-02  0.1235056E+00
          4   -1    0    0  501    0  0.00000000000E+00  0.00000000000E+00  0.13030288911E+03  0.13030907801E+03  0.12700000000E+01 0. -1.
         -4   -1    0    0    0  501 -0.00000000000E+00 -0.00000000000E+00 -0.29961938191E+02  0.29988841928E+02  0.12700000000E+01 0. -1.
         25    2    1    2    0    0  0.00000000000E+00  0.00000000000E+00  0.10034095092E+03  0.16029791994E+03  0.12500846653E+03 0.  0.
    9000005    1    3    3    0    0 -0.23659199295E+02  0.21123597157E+02 -0.18881103411E+02  0.36925061058E+02  0.10000000000E+01 0.  0.
    9000005    1    3    3    0    0  0.23659199295E+02 -0.21123597157E+02  0.11922205433E+03  0.12337285888E+03  0.10000000000E+01 0.  0.
<mgrwt>
<rscale>  0 0.12500847E+03</rscale>
<asrwt>0</asrwt>
<pdfrwt beam="1">  1        4 0.20049144E-01 0.12500847E+03</pdfrwt>
<pdfrwt beam="2">  1       -4 0.46120745E-02 0.12500847E+03</pdfrwt>
<totfact> 0.97266868E+03</totfact>
</mgrwt>
</event>
<event>
 5    1  0.3259432E-002  0.1249998E+03  0.7818608E-02  0.1235070E+00
          4   -1    0    0  501    0  0.00000000000E+00  0.00000000000E+00  0.17631267929E+02  0.17676948514E+02  0.12700000000E+01 0.  1.
         -4   -1    0    0    0  501 -0.00000000000E+00 -0.00000000000E+00 -0.22121746349E+03  0.22122110897E+03  0.12700000000E+01 0.  1.
         25    2    1    2    0    0  0.00000000000E+00  0.00000000000E+00 -0.20358619556E+03  0.23889805748E+03  0.12499977138E+03 0.  0.
    9000005    1    3    3    0    0  0.14667345809E+02  0.49737627056E+02 -0.35140212113E+02  0.62648200977E+02  0.10000000000E+01 0.  0.
    9000005    1    3    3    0    0 -0.14667345809E+02 -0.49737627056E+02 -0.16844598345E+03  0.17624985650E+03  0.10000000000E+01 0.  0.
<mgrwt>
<rscale>  0 0.12499977E+03</rscale>
<asrwt>0</asrwt>
<pdfrwt beam="1">  1        4 0.27162972E-02 0.12499977E+03</pdfrwt>
<pdfrwt beam="2">  1       -4 0.34037248E-01 0.12499977E+03</pdfrwt>
<totfact> 0.83962185E+03</totfact>
</mgrwt>
</event>
<event>
 5    1  0.3259432E-002  0.1250009E+03  0.7818608E-02  0.1235068E+00
         -4   -1    0    0    0  501 -0.00000000000E+00  0.00000000000E+00  0.14655604068E+02  0.14710527883E+02  0.12700000000E+01 0. -1.
          4   -1    0    0  501    0  0.00000000000E+00 -0.00000000000E+00 -0.26598501829E+03  0.26598805021E+03  0.12700000000E+01 0. -1.
         25    2    1    2    0    0  0.00000000000E+00  0.00000000000E+00 -0.25132941422E+03  0.28069857809E+03  0.12500086916E+03 0.  0.
    9000005    1    3    3    0    0  0.52975756407E+02 -0.23846672845E+02 -0.73957505469E+02  0.94052151426E+02  0.10000000000E+01 0.  0.
    9000005    1    3    3    0    0 -0.52975756407E+02  0.23846672845E+02 -0.17737190875E+03  0.18664642666E+03  0.10000000000E+01 0.  0.
<mgrwt>
<rscale>  0 0.12500087E+03</rscale>
<asrwt>0</asrwt>
<pdfrwt beam="2">  1        4 0.40925226E-01 0.12500087E+03</pdfrwt>
<pdfrwt beam="1">  1       -4 0.22591667E-02 0.12500087E+03</pdfrwt>
<totfact> 0.78084063E+03</totfact>
</mgrwt>
</event>
<event>
 5    1  0.3259432E-002  0.1250010E+03  0.7818608E-02  0.1235068E+00
         -4   -1    0    0    0  501 -0.00000000000E+00  0.00000000000E+00  0.96245913431E+03  0.96245997222E+03  0.12700000000E+01 0.  1.
          4   -1    0    0  501    0  0.00000000000E+00 -0.00000000000E+00 -0.39584690398E+01  0.41572078538E+01  0.12700000000E+01 0.  1.
         25    2    1    2    0    0  0.00000000000E+00  0.00000000000E+00  0.95850066527E+03  0.96661718007E+03  0.12500098992E+03 0.  0.
    9000005    1    3    3    0    0 -0.61810160967E+01  0.62179647453E+02  0.48615970432E+03  0.49015994493E+03  0.10000000000E+01 0.  0.
    9000005    1    3    3    0    0  0.61810160967E+01 -0.62179647453E+02  0.47234096096E+03  0.47645723514E+03  0.10000000000E+01 0.  0.
<mgrwt>
<rscale>  0 0.12500099E+03</rscale>
<asrwt>0</asrwt>
<pdfrwt beam="2">  1        4 0.62434666E-03 0.12500099E+03</pdfrwt>
<pdfrwt beam="1">  1       -4 0.14808614E+00 0.12500099E+03</pdfrwt>
<totfact> 0.31732526E+03</totfact>
</mgrwt>
</event>
<event>
 5    1  0.3259432E-002  0.1250441E+03  0.7818608E-02  0.1235000E+00
         -4   -1    0    0    0  501 -0.00000000000E+00  0.00000000000E+00  0.11532657815E+03  0.11533357069E+03  0.12700000000E+01 0. -1.
          4   -1    0    0  501    0  0.00000000000E+00 -0.00000000000E+00 -0.33875189051E+02  0.33898987201E+02  0.12700000000E+01 0. -1.
         25    2    1    2    0    0  0.00000000000E+00  0.00000000000E+00  0.81451389103E+02  0.14923255789E+03  0.12504410242E+03 0.  0.
    9000005    1    3    3    0    0 -0.32882364955E+02 -0.42387386651E+02  0.24226775523E+01  0.53710425791E+02  0.10000000000E+01 0.  0.
    9000005    1    3    3    0    0  0.32882364955E+02  0.42387386651E+02  0.79028711550E+02  0.95522132103E+02  0.10000000000E+01 0.  0.
<mgrwt>
<rscale>  0 0.12504410E+03</rscale>
<asrwt>0</asrwt>
<pdfrwt beam="2">  1        4 0.52139361E-02 0.12504410E+03</pdfrwt>
<pdfrwt beam="1">  1       -4 0.17744919E-01 0.12504410E+03</pdfrwt>
<totfact> 0.99358236E+03</totfact>
</mgrwt>
</event>
<event>
 5    1  0.3259432E-002  0.1250013E+03  0.7818608E-02  0.1235067E+00
         -4   -1    0    0    0  501 -0.00000000000E+00  0.00000000000E+00  0.35177003525E+02  0.35199921548E+02  0.12700000000E+01 0. -1.
          4   -1    0    0  501    0  0.00000000000E+00 -0.00000000000E+00 -0.11098519973E+03  0.11099246578E+03  0.12700000000E+01 0. -1.
         25    2    1    2    0    0  0.00000000000E+00  0.00000000000E+00 -0.75808196209E+02  0.14619238733E+03  0.12500132599E+03 0.  0.
    9000005    1    3    3    0    0  0.23084723580E+02  0.13231167018E+02  0.28227074210E+02  0.38803813754E+02  0.10000000000E+01 0.  0.
    9000005    1    3    3    0    0 -0.23084723580E+02 -0.13231167018E+02 -0.10403527042E+03  0.10738857358E+03  0.10000000000E+01 0.  0.
<mgrwt>
<rscale>  0 0.12500133E+03</rscale>
<asrwt>0</asrwt>
<pdfrwt beam="2">  1        4 0.17076968E-01 0.12500133E+03</pdfrwt>
<pdfrwt beam="1">  1       -4 0.54141686E-02 0.12500133E+03</pdfrwt>
<totfact> 0.10006519E+04</totfact>
</mgrwt>
</event>
<event>
 5    1  0.3259432E-002  0.1250009E+03  0.7818608E-02  0.1235068E+00
         -4   -1    0    0    0  501 -0.00000000000E+00  0.00000000000E+00  0.59223664868E+03  0.59223801038E+03  0.12700000000E+01 0.  1.
          4   -1    0    0  501    0  0.00000000000E+00 -0.00000000000E+00 -0.65333348882E+01  0.66556265491E+01  0.12700000000E+01 0.  1.
         25    2    1    2    0    0  0.00000000000E+00  0.00000000000E+00  0.58570331379E+03  0.59889363693E+03  0.12500086627E+03 0.  0.
    9000005    1    3    3    0    0 -0.60749710021E+02  0.83388240018E+01  0.35059223463E+03  0.35591568978E+03  0.10000000000E+01 0.  0.
    9000005    1    3    3    0    0  0.60749710021E+02 -0.83388240018E+01  0.23511107916E+03  0.24297794714E+03  0.10000000000E+01 0.  0.
<mgrwt>
<rscale>  0 0.12500087E+03</rscale>
<asrwt>0</asrwt>
<pdfrwt beam="2">  1        4 0.10146404E-02 0.12500087E+03</pdfrwt>
<pdfrwt beam="1">  1       -4 0.91122830E-01 0.12500087E+03</pdfrwt>
<totfact> 0.48936597E+03</totfact>
</mgrwt>
</event>
<event>
 5    1  0.3259432E-002  0.1249986E+03  0.7818608E-02  0.1235071E+00
          4   -1    0    0  501    0  0.00000000000E+00  0.00000000000E+00  0.97664914385E+02  0.97673171351E+02  0.12700000000E+01 0.  1.
         -4   -1    0    0    0  501 -0.00000000000E+00 -0.00000000000E+00 -0.39975531427E+02  0.39995699930E+02  0.12700000000E+01 0.  1.
         25    2    1    2    0    0  0.00000000000E+00  0.00000000000E+00  0.57689382957E+02  0.13766887128E+03  0.12499861285E+03 0.  0.
    9000005    1    3    3    0    0  0.88094896427E+01  0.43689858327E+02  0.77088327779E+02  0.89050665961E+02  0.10000000000E+01 0.  0.
    9000005    1    3    3    0    0 -0.88094896427E+01 -0.43689858327E+02 -0.19398944821E+02  0.48618205320E+02  0.10000000000E+01 0.  0.
<mgrwt>
<rscale>  0 0.12499861E+03</rscale>
<asrwt>0</asrwt>
<pdfrwt beam="1">  1        4 0.15027558E-01 0.12499861E+03</pdfrwt>
<pdfrwt beam="2">  1       -4 0.61522685E-02 0.12499861E+03</pdfrwt>
<totfact> 0.10182437E+04</totfact>
</mgrwt>
</event>
<event>
 5    1  0.3259432E-002  0.1249976E+03  0.7818608E-02  0.1235073E+00
         -4   -1    0    0    0  501 -0.00000000000E+00  0.00000000000E+00  0.72137190853E+01  0.73246599267E+01  0.12700000000E+01 0.  1.
          4   -1    0    0  501    0  0.00000000000E+00 -0.00000000000E+00 -0.53723843255E+03  0.53723993365E+03  0.12700000000E+01 0.  1.
         25    2    1    2    0    0  0.00000000000E+00  0.00000000000E+00 -0.53002471346E+03  0.54456459357E+03  0.12499759875E+03 0.  0.
    9000005    1    3    3    0    0 -0.13781331213E+02  0.54829340288E+02 -0.14901560773E+03  0.15938266215E+03  0.10000000000E+01 0.  0.
    9000005    1    3    3    0    0  0.13781331213E+02 -0.54829340288E+02 -0.38100910573E+03  0.38518193142E+03  0.10000000000E+01 0.  0.
<mgrwt>
<rscale>  0 0.12499760E+03</rscale>
<asrwt>0</asrwt>
<pdfrwt beam="2">  1        4 0.82660685E-01 0.12499760E+03</pdfrwt>
<pdfrwt beam="1">  1       -4 0.11184527E-02 0.12499760E+03</pdfrwt>
<totfact> 0.52568017E+03</totfact>
</mgrwt>
</event>
<event>
 5    1  0.3259432E-002  0.1250000E+03  0.7818608E-02  0.1235069E+00
         -4   -1    0    0    0  501 -0.00000000000E+00  0.00000000000E+00  0.71966035020E+03  0.71966147080E+03  0.12700000000E+01 0.  1.
          4   -1    0    0  501    0  0.00000000000E+00 -0.00000000000E+00 -0.53524817812E+01  0.55010872760E+01  0.12700000000E+01 0.  1.
         25    2    1    2    0    0  0.00000000000E+00  0.00000000000E+00  0.71430786842E+03  0.72516255808E+03  0.12500001899E+03 0.  0.
    9000005    1    3    3    0    0  0.41752382098E+02 -0.20853916397E+02  0.11606097276E+03  0.12509714880E+03  0.10000000000E+01 0.  0.
    9000005    1    3    3    0    0 -0.41752382098E+02  0.20853916397E+02  0.59824689567E+03  0.60006540928E+03  0.10000000000E+01 0.  0.
<mgrwt>
<rscale>  0 0.12500002E+03</rscale>
<asrwt>0</asrwt>
<pdfrwt beam="2">  1        4 0.83497633E-03 0.12500002E+03</pdfrwt>
<pdfrwt beam="1">  1       -4 0.11072847E+00 0.12500002E+03</pdfrwt>
<totfact> 0.41791189E+03</totfact>
</mgrwt>
</event>
<event>
 5    1  0.3259432E-002  0.1250007E+03  0.7818608E-02  0.1235068E+00
          4   -1    0    0  501    0  0.00000000000E+00  0.00000000000E+00  0.88577994361E+01  0.89483803479E+01  0.12700000000E+01 0. -1.
         -4   -1    0    0    0  501 -0.00000000000E+00 -0.00000000000E+00 -0.43866589384E+03  0.43866773226E+03  0.12700000000E+01 0. -1.
         25    2    1    2    0    0  0.00000000000E+00  0.00000000000E+00 -0.42980809441E+03  0.44761611260E+03  0.12500074497E+03 0.  0.
    9000005    1    3    3    0    0 -0.87044269063E+00 -0.39018186105E+02 -0.40130809545E+02  0.55988020077E+02  0.10000000000E+01 0.  0.
    9000005    1    3    3    0    0  0.87044269063E+00  0.39018186105E+02 -0.38967728486E+03  0.39162809253E+03  0.10000000000E+01 0.  0.
<mgrwt>
<rscale>  0 0.12500074E+03</rscale>
<asrwt>0</asrwt>
<pdfrwt beam="1">  1        4 0.13698479E-02 0.12500074E+03</pdfrwt>
<pdfrwt beam="2">  1       -4 0.67494153E-01 0.12500074E+03</pdfrwt>
<totfact> 0.60169888E+03</totfact>
</mgrwt>
</event>
<event>
 5    1  0.3259432E-002  0.1249987E+03  0.7818608E-02  0.1235071E+00
         -4   -1    0    0    0  501 -0.00000000000E+00  0.00000000000E+00  0.79696758166E+02  0.79706876505E+02  0.12700000000E+01 0.  1.
          4   -1    0    0  501    0  0.00000000000E+00 -0.00000000000E+00 -0.48991457957E+02  0.49007916225E+02  0.12700000000E+01 0.  1.
         25    2    1    2    0    0  0.00000000000E+00  0.00000000000E+00  0.30705300210E+02  0.12871479273E+03  0.12499872962E+03 0.  0.
    9000005    1    3    3    0    0  0.31087964455E+02  0.30430902094E+02  0.61549149743E+02  0.75377710037E+02  0.10000000000E+01 0.  0.
    9000005    1    3    3    0    0 -0.31087964455E+02 -0.30430902094E+02 -0.30843849534E+02  0.53337082694E+02  0.10000000000E+01 0.  0.
<mgrwt>
<rscale>  0 0.12499873E+03</rscale>
<asrwt>0</asrwt>
<pdfrwt beam="2">  1        4 0.75391918E-02 0.12499873E+03</pdfrwt>
<pdfrwt beam="1">  1       -4 0.12263084E-01 0.12499873E+03</pdfrwt>
<totfact> 0.10372377E+04</totfact>
</mgrwt>
</event>
<event>
 5    1  0.3259432E-002  0.1250028E+03  0.7818608E-02  0.1235065E+00
          4   -1    0    0  501    0  0.00000000000E+00  0.00000000000E+00  0.15024498616E+03  0.15025035363E+03  0.12700000000E+01 0. -1.
         -4   -1    0    0    0  501 -0.00000000000E+00 -0.00000000000E+00 -0.25979044625E+02  0.26010068428E+02  0.12700000000E+01 0. -1.
         25    2    1    2    0    0  0.00000000000E+00  0.00000000000E+00  0.12426594153E+03  0.17626042206E+03  0.12500284860E+03 0.  0.
    9000005    1    3    3    0    0  0.34457856437E+01 -0.54788468656E+02  0.20025093667E+02  0.58443597705E+02  0.10000000000E+01 0.  0.
    9000005    1    3    3    0    0 -0.34457856437E+01  0.54788468656E+02  0.10424084787E+03  0.11781682435E+03  0.10000000000E+01 0.  0.
<mgrwt>
<rscale>  0 0.12500285E+03</rscale>
<asrwt>0</asrwt>
<pdfrwt beam="1">  1        4 0.23117412E-01 0.12500285E+03</pdfrwt>
<pdfrwt beam="2">  1       -4 0.39995754E-02 0.12500285E+03</pdfrwt>
<totfact> 0.94288478E+03</totfact>
</mgrwt>
</event>
<event>
 5    1  0.3259432E-002  0.1249984E+03  0.7818608E-02  0.1235072E+00
         -4   -1    0    0    0  501 -0.00000000000E+00  0.00000000000E+00  0.74608262970E+03  0.74608371061E+03  0.12700000000E+01 0. -1.
          4   -1    0    0  501    0  0.00000000000E+00 -0.00000000000E+00 -0.51574263596E+01  0.53114919424E+01  0.12700000000E+01 0. -1.
         25    2    1    2    0    0  0.00000000000E+00  0.00000000000E+00  0.74092520334E+03  0.75139520256E+03  0.12499837389E+03 0.  0.
    9000005    1    3    3    0    0  0.47746780623E+02 -0.39080524088E+02  0.43000299785E+03  0.43440835695E+03  0.10000000000E+01 0.  0.
    9000005    1    3    3    0    0 -0.47746780623E+02  0.39080524088E+02  0.31092220549E+03  0.31698684561E+03  0.10000000000E+01 0.  0.
<mgrwt>
<rscale>  0 0.12499837E+03</rscale>
<asrwt>0</asrwt>
<pdfrwt beam="2">  1        4 0.80538406E-03 0.12499837E+03</pdfrwt>
<pdfrwt beam="1">  1       -4 0.11479395E+00 0.12499837E+03</pdfrwt>
<totfact> 0.40508909E+03</totfact>
</mgrwt>
</event>
<event>
 5    1  0.3259432E-002  0.1250017E+03  0.7818608E-02  0.1235067E+00
          4   -1    0    0  501    0  0.00000000000E+00  0.00000000000E+00  0.10330324565E+03  0.10331105199E+03  0.12700000000E+01 0. -1.
         -4   -1    0    0    0  501 -0.00000000000E+00 -0.00000000000E+00 -0.37794546524E+02  0.37815878238E+02  0.12700000000E+01 0. -1.
         25    2    1    2    0    0  0.00000000000E+00  0.00000000000E+00  0.65508699129E+02  0.14112693022E+03  0.12500168308E+03 0.  0.
    9000005    1    3    3    0    0  0.66229942778E+01 -0.20142436806E+02  0.99123561633E+02  0.10137091439E+03  0.10000000000E+01 0.  0.
    9000005    1    3    3    0    0 -0.66229942778E+01  0.20142436806E+02 -0.33614862504E+02  0.39756015832E+02  0.10000000000E+01 0.  0.
<mgrwt>
<rscale>  0 0.12500168E+03</rscale>
<asrwt>0</asrwt>
<pdfrwt beam="1">  1        4 0.15895048E-01 0.12500168E+03</pdfrwt>
<pdfrwt beam="2">  1       -4 0.58167871E-02 0.12500168E+03</pdfrwt>
<totfact> 0.10109900E+04</totfact>
</mgrwt>
</event>
<event>
 5    1  0.3259432E-002  0.1250001E+03  0.7818608E-02  0.1235069E+00
         -4   -1    0    0    0  501 -0.00000000000E+00  0.00000000000E+00  0.99477734462E+02  0.99485840971E+02  0.12700000000E+01 0.  1.
          4   -1    0    0  501    0  0.00000000000E+00 -0.00000000000E+00 -0.39247645370E+02  0.39268187724E+02  0.12700000000E+01 0.  1.
         25    2    1    2    0    0  0.00000000000E+00  0.00000000000E+00  0.60230089092E+02  0.13875402869E+03  0.12500006739E+03 0.  0.
    9000005    1    3    3    0    0  0.88920571655E+00 -0.62382041680E+02  0.34108752748E+02  0.71110595729E+02  0.10000000000E+01 0.  0.
    9000005    1    3    3    0    0 -0.88920571655E+00  0.62382041680E+02  0.26121336344E+02  0.67643432965E+02  0.10000000000E+01 0.  0.
<mgrwt>
<rscale>  0 0.12500007E+03</rscale>
<asrwt>0</asrwt>
<pdfrwt beam="2">  1        4 0.60403032E-02 0.12500007E+03</pdfrwt>
<pdfrwt beam="1">  1       -4 0.15306470E-01 0.12500007E+03</pdfrwt>
<totfact> 0.10159459E+04</totfact>
</mgrwt>
</event>
<event>
 5    1  0.3259432E-002  0.1249973E+03  0.7818608E-02  0.1235074E+00
          4   -1    0    0  501    0  0.00000000000E+00  0.00000000000E+00  0.75742491866E+03  0.75742598339E+03  0.12700000000E+01 0. -1.
         -4   -1    0    0    0  501 -0.00000000000E+00 -0.00000000000E+00 -0.50777770900E+01  0.52341876329E+01  0.12700000000E+01 0. -1.
         25    2    1    2    0    0  0.00000000000E+00  0.00000000000E+00  0.75234714157E+03  0.76266017102E+03  0.12499726009E+03 0.  0.
    9000005    1    3    3    0    0  0.28845138661E+02  0.42111210591E+02  0.15621077150E+03  0.16434172086E+03  0.10000000000E+01 0.  0.
    9000005    1    3    3    0    0 -0.28845138661E+02 -0.42111210591E+02  0.59613637008E+03  0.59831845017E+03  0.10000000000E+01 0.  0.
<mgrwt>
<rscale>  0 0.12499726E+03</rscale>
<asrwt>0</asrwt>
<pdfrwt beam="1">  1        4 0.11653910E+00 0.12499726E+03</pdfrwt>
<pdfrwt beam="2">  1       -4 0.79330942E-03 0.12499726E+03</pdfrwt>
<totfact> 0.39978170E+03</totfact>
</mgrwt>
</event>
<event>
 5    1  0.3259432E-002  0.1250016E+03  0.7818608E-02  0.1235067E+00
         -4   -1    0    0    0  501 -0.00000000000E+00  0.00000000000E+00  0.22012316559E+03  0.22012682919E+03  0.12700000000E+01 0.  1.
          4   -1    0    0  501    0  0.00000000000E+00 -0.00000000000E+00 -0.17719660444E+02  0.17765113741E+02  0.12700000000E+01 0.  1.
         25    2    1    2    0    0  0.00000000000E+00  0.00000000000E+00  0.20240350515E+03  0.23789194293E+03  0.12500159046E+03 0.  0.
    9000005    1    3    3    0    0  0.49963703421E+02  0.26052510070E+02  0.15262959814E+03  0.16270187205E+03  0.10000000000E+01 0.  0.
    9000005    1    3    3    0    0 -0.49963703421E+02 -0.26052510070E+02  0.49773907008E+02  0.75190070882E+02  0.10000000000E+01 0.  0.
<mgrwt>
<rscale>  0 0.12500159E+03</rscale>
<asrwt>0</asrwt>
<pdfrwt beam="2">  1        4 0.27298797E-02 0.12500159E+03</pdfrwt>
<pdfrwt beam="1">  1       -4 0.33868882E-01 0.12500159E+03</pdfrwt>
<totfact> 0.84109345E+03</totfact>
</mgrwt>
</event>
<event>
 4    1  0.3259432E-002  0.1251063E+03  0.7818608E-02  0.1234903E+00
         -4   -1    0    0    0  501 -0.00000000000E+00  0.00000000000E+00  0.12571371092E+04  0.12571377507E+04  0.12700000000E+01 0. -1.
          4   -1    0    0  501    0  0.00000000000E+00 -0.00000000000E+00 -0.29823265199E+01  0.32414767423E+01  0.12700000000E+01 0. -1.
    9000005    1    1    2    0    0  0.42395995602E+02  0.44498695066E+01  0.16599316998E+03  0.17138247945E+03  0.10000000000E+01 0.  0.
    9000005    1    1    2    0    0 -0.42395995602E+02 -0.44498695066E+01  0.10881616127E+04  0.10889967480E+04  0.10000000000E+01 0.  0.
<mgrwt>
<rscale>  0 0.12510627E+03</rscale>
<asrwt>0</asrwt>
<pdfrwt beam="2">  1        4 0.47880374E-03 0.12510627E+03</pdfrwt>
<pdfrwt beam="1">  1       -4 0.19342557E+00 0.12510627E+03</pdfrwt>
<totfact> 0.23129719E+03</totfact>
</mgrwt>
</event>
<event>
 5    1  0.3259432E-002  0.1250005E+03  0.7818608E-02  0.1235068E+00
         -4   -1    0    0    0  501 -0.00000000000E+00  0.00000000000E+00  0.72752101640E+02  0.72763185699E+02  0.12700000000E+01 0.  1.
          4   -1    0    0  501    0  0.00000000000E+00 -0.00000000000E+00 -0.53670370281E+02  0.53685394159E+02  0.12700000000E+01 0.  1.
         25    2    1    2    0    0  0.00000000000E+00  0.00000000000E+00  0.19081731360E+02  0.12644857986E+03  0.12500052351E+03 0.  0.
    9000005    1    3    3    0    0 -0.13815573292E+02  0.51144625642E+02  0.43070576849E+02  0.68284093225E+02  0.10000000000E+01 0.  0.
    9000005    1    3    3    0    0  0.13815573292E+02 -0.51144625642E+02 -0.23988845489E+02  0.58164486634E+02  0.10000000000E+01 0.  0.
<mgrwt>
<rscale>  0 0.12500052E+03</rscale>
<asrwt>0</asrwt>
<pdfrwt beam="2">  1        4 0.82589883E-02 0.12500052E+03</pdfrwt>
<pdfrwt beam="1">  1       -4 0.11194639E-01 0.12500052E+03</pdfrwt>
<totfact> 0.10421026E+04</totfact>
</mgrwt>
</event>
<event>
 5    1  0.3259432E-002  0.1250019E+03  0.7818608E-02  0.1235066E+00
         -4   -1    0    0    0  501 -0.00000000000E+00  0.00000000000E+00  0.10627945241E+04  0.10627952829E+04  0.12700000000E+01 0.  1.
          4   -1    0    0  501    0  0.00000000000E+00 -0.00000000000E+00 -0.35650793821E+01  0.37845331285E+01  0.12700000000E+01 0.  1.
         25    2    1    2    0    0  0.00000000000E+00  0.00000000000E+00  0.10592294447E+04  0.10665798161E+04  0.12500194960E+03 0.  0.
    9000005    1    3    3    0    0 -0.75281382887E+01 -0.34026804443E+02  0.97222692363E+03  0.97285183215E+03  0.10000000000E+01 0.  0.
    9000005    1    3    3    0    0  0.75281382887E+01  0.34026804443E+02  0.87002521106E+02  0.93727983897E+02  0.10000000000E+01 0.  0.
<mgrwt>
<rscale>  0 0.12500195E+03</rscale>
<asrwt>0</asrwt>
<pdfrwt beam="2">  1        4 0.56541363E-03 0.12500195E+03</pdfrwt>
<pdfrwt beam="1">  1       -4 0.16352366E+00 0.12500195E+03</pdfrwt>
<totfact> 0.28481494E+03</totfact>
</mgrwt>
</event>
<event>
 5    1  0.3259432E-002  0.1250051E+03  0.7818608E-02  0.1235061E+00
         -4   -1    0    0    0  501 -0.00000000000E+00  0.00000000000E+00  0.67537199398E+02  0.67549139169E+02  0.12700000000E+01 0.  1.
          4   -1    0    0  501    0  0.00000000000E+00 -0.00000000000E+00 -0.57819232707E+02  0.57833178806E+02  0.12700000000E+01 0.  1.
         25    2    1    2    0    0  0.00000000000E+00  0.00000000000E+00  0.97179666907E+01  0.12538231798E+03  0.12500514703E+03 0.  0.
    9000005    1    3    3    0    0  0.68623018708E+01  0.38953888478E+02 -0.43671662440E+02  0.58929709951E+02  0.10000000000E+01 0.  0.
    9000005    1    3    3    0    0 -0.68623018708E+01 -0.38953888478E+02  0.53389629131E+02  0.66452608025E+02  0.10000000000E+01 0.  0.
<mgrwt>
<rscale>  0 0.12500515E+03</rscale>
<asrwt>0</asrwt>
<pdfrwt beam="2">  1        4 0.88972578E-02 0.12500515E+03</pdfrwt>
<pdfrwt beam="1">  1       -4 0.10392330E-01 0.12500515E+03</pdfrwt>
<totfact> 0.10443347E+04</totfact>
</mgrwt>
</event>
<event>
 5    1  0.3259432E-002  0.1249842E+03  0.7818608E-02  0.1235094E+00
          4   -1    0    0  501    0  0.00000000000E+00  0.00000000000E+00  0.15106477765E+03  0.15107011599E+03  0.12700000000E+01 0.  1.
         -4   -1    0    0    0  501 -0.00000000000E+00 -0.00000000000E+00 -0.25830184489E+02  0.25861386868E+02  0.12700000000E+01 0.  1.
         25    2    1    2    0    0  0.00000000000E+00  0.00000000000E+00  0.12523459316E+03  0.17693150286E+03  0.12498421253E+03 0.  0.
    9000005    1    3    3    0    0 -0.44527712964E+01 -0.43802156287E+02 -0.14812893622E+00  0.44039505104E+02  0.10000000000E+01 0.  0.
    9000005    1    3    3    0    0  0.44527712964E+01  0.43802156287E+02  0.12538272209E+03  0.13289199775E+03  0.10000000000E+01 0.  0.
<mgrwt>
<rscale>  0 0.12498421E+03</rscale>
<asrwt>0</asrwt>
<pdfrwt beam="1">  1        4 0.23243546E-01 0.12498421E+03</pdfrwt>
<pdfrwt beam="2">  1       -4 0.39766854E-02 0.12498421E+03</pdfrwt>
<totfact> 0.94205630E+03</totfact>
</mgrwt>
</event>
<event>
 5    1  0.3259432E-002  0.1250009E+03  0.7818608E-02  0.1235068E+00
         -4   -1    0    0    0  501 -0.00000000000E+00  0.00000000000E+00  0.87038962567E+01  0.87960621899E+01  0.12700000000E+01 0.  1.
          4   -1    0    0  501    0  0.00000000000E+00 -0.00000000000E+00 -0.44634290598E+03  0.44634471277E+03  0.12700000000E+01 0.  1.
         25    2    1    2    0    0  0.00000000000E+00  0.00000000000E+00 -0.43763900972E+03  0.45514077496E+03  0.12500088880E+03 0.  0.
    9000005    1    3    3    0    0  0.47364610296E+02  0.24241031195E+02 -0.99478497141E+02  0.11281846168E+03  0.10000000000E+01 0.  0.
    9000005    1    3    3    0    0 -0.47364610296E+02 -0.24241031195E+02 -0.33816051258E+03  0.34232231328E+03  0.10000000000E+01 0.  0.
<mgrwt>
<rscale>  0 0.12500089E+03</rscale>
<asrwt>0</asrwt>
<pdfrwt beam="2">  1        4 0.68675350E-01 0.12500089E+03</pdfrwt>
<pdfrwt beam="1">  1       -4 0.13462900E-02 0.12500089E+03</pdfrwt>
<totfact> 0.59519866E+03</totfact>
</mgrwt>
</event>
<event>
 5    1  0.3259432E-002  0.1249998E+03  0.7818608E-02  0.1235070E+00
          4   -1    0    0  501    0  0.00000000000E+00  0.00000000000E+00  0.20048375549E+03  0.20048777797E+03  0.12700000000E+01 0.  1.
         -4   -1    0    0    0  501 -0.00000000000E+00 -0.00000000000E+00 -0.19459150276E+02  0.19500549466E+02  0.12700000000E+01 0.  1.
         25    2    1    2    0    0  0.00000000000E+00  0.00000000000E+00  0.18102460522E+03  0.21998832744E+03  0.12499982606E+03 0.  0.
    9000005    1    3    3    0    0  0.26367364648E+02  0.46422741628E+02  0.33351001429E+02  0.62957113617E+02  0.10000000000E+01 0.  0.
    9000005    1    3    3    0    0 -0.26367364648E+02 -0.46422741628E+02  0.14767360379E+03  0.15703121382E+03  0.10000000000E+01 0.  0.
<mgrwt>
<rscale>  0 0.12499983E+03</rscale>
<asrwt>0</asrwt>
<pdfrwt beam="1">  1        4 0.30847147E-01 0.12499983E+03</pdfrwt>
<pdfrwt beam="2">  1       -4 0.29972096E-02 0.12499983E+03</pdfrwt>
<totfact> 0.86870535E+03</totfact>
</mgrwt>
</event>
<event>
 5    1  0.3259432E-002  0.1250046E+03  0.7818608E-02  0.1235062E+00
         -4   -1    0    0    0  501 -0.00000000000E+00  0.00000000000E+00  0.87292193206E+03  0.87292285591E+03  0.12700000000E+01 0.  1.
          4   -1    0    0  501    0  0.00000000000E+00 -0.00000000000E+00 -0.43841945640E+01  0.45644344639E+01  0.12700000000E+01 0.  1.
         25    2    1    2    0    0  0.00000000000E+00  0.00000000000E+00  0.86853773749E+03  0.87748729037E+03  0.12500457317E+03 0.  0.
    9000005    1    3    3    0    0  0.18409468132E+02  0.55857119655E+02  0.28592182042E+03  0.29190959855E+03  0.10000000000E+01 0.  0.
    9000005    1    3    3    0    0 -0.18409468132E+02 -0.55857119655E+02  0.58261591707E+03  0.58557769182E+03  0.10000000000E+01 0.  0.
<mgrwt>
<rscale>  0 0.12500457E+03</rscale>
<asrwt>0</asrwt>
<pdfrwt beam="2">  1        4 0.68842713E-03 0.12500457E+03</pdfrwt>
<pdfrwt beam="1">  1       -4 0.13430962E+00 0.12500457E+03</pdfrwt>
<totfact> 0.35024655E+03</totfact>
</mgrwt>
</event>
<event>
 5    1  0.3259432E-002  0.1249988E+03  0.7818608E-02  0.1235071E+00
         -4   -1    0    0    0  501 -0.00000000000E+00  0.00000000000E+00  0.19186549818E+03  0.19186970134E+03  0.12700000000E+01 0.  1.
          4   -1    0    0  501    0  0.00000000000E+00 -0.00000000000E+00 -0.20334695452E+02  0.20374315673E+02  0.12700000000E+01 0.  1.
         25    2    1    2    0    0  0.00000000000E+00  0.00000000000E+00  0.17153080273E+03  0.21224401701E+03  0.12499882589E+03 0.  0.
    9000005    1    3    3    0    0 -0.46204912999E+02  0.33134789300E+02  0.41736975276E+02  0.70539232718E+02  0.10000000000E+01 0.  0.
    9000005    1    3    3    0    0  0.46204912999E+02 -0.33134789300E+02  0.12979382745E+03  0.14170478429E+03  0.10000000000E+01 0.  0.
<mgrwt>
<rscale>  0 0.12499883E+03</rscale>
<asrwt>0</asrwt>
<pdfrwt beam="2">  1        4 0.31317857E-02 0.12499883E+03</pdfrwt>
<pdfrwt beam="1">  1       -4 0.29521140E-01 0.12499883E+03</pdfrwt>
<totfact> 0.88113021E+03</totfact>
</mgrwt>
</event>
<event>
 5    1  0.3259432E-002  0.1250054E+03  0.7818608E-02  0.1235061E+00
          4   -1    0    0  501    0  0.00000000000E+00  0.00000000000E+00  0.77088571244E+01  0.78127701979E+01  0.12700000000E+01 0. -1.
         -4   -1    0    0    0  501 -0.00000000000E+00 -0.00000000000E+00 -0.50326903586E+03  0.50327063828E+03  0.12700000000E+01 0. -1.
         25    2    1    2    0    0  0.00000000000E+00  0.00000000000E+00 -0.49556017874E+03  0.51108340848E+03  0.12500543858E+03 0.  0.
    9000005    1    3    3    0    0  0.16445757627E+02 -0.37380633902E+02 -0.54371845114E+02  0.68007883925E+02  0.10000000000E+01 0.  0.
    9000005    1    3    3    0    0 -0.16445757627E+02  0.37380633902E+02 -0.44118833362E+03  0.44307552456E+03  0.10000000000E+01 0.  0.
<mgrwt>
<rscale>  0 0.12500544E+03</rscale>
<asrwt>0</asrwt>
<pdfrwt beam="1">  1        4 0.11940950E-02 0.12500544E+03</pdfrwt>
<pdfrwt beam="2">  1       -4 0.77434096E-01 0.12500544E+03</pdfrwt>
<totfact> 0.55008004E+03</totfact>
</mgrwt>
</event>
<event>
 5    1  0.3259432E-002  0.1250025E+03  0.7818608E-02  0.1235065E+00
          4   -1    0    0  501    0  0.00000000000E+00  0.00000000000E+00  0.90658042477E+01  0.91543272094E+01  0.12700000000E+01 0. -1.
         -4   -1    0    0    0  501 -0.00000000000E+00 -0.00000000000E+00 -0.42871168963E+03  0.42871357073E+03  0.12700000000E+01 0. -1.
         25    2    1    2    0    0  0.00000000000E+00  0.00000000000E+00 -0.41964588538E+03  0.43786789794E+03  0.12500250767E+03 0.  0.
    9000005    1    3    3    0    0 -0.51944326759E+02  0.13905403439E+02 -0.98288839665E+02  0.11204137330E+03  0.10000000000E+01 0.  0.
    9000005    1    3    3    0    0  0.51944326759E+02 -0.13905403439E+02 -0.32135704572E+03  0.32582652464E+03  0.10000000000E+01 0.  0.
<mgrwt>
<rscale>  0 0.12500251E+03</rscale>
<asrwt>0</asrwt>
<pdfrwt beam="1">  1        4 0.14016936E-02 0.12500251E+03</pdfrwt>
<pdfrwt beam="2">  1       -4 0.65962583E-01 0.12500251E+03</pdfrwt>
<totfact> 0.61025866E+03</totfact>
</mgrwt>
</event>
<event>
 5    1  0.3259432E-002  0.1250007E+03  0.7818608E-02  0.1235068E+00
         -4   -1    0    0    0  501 -0.00000000000E+00  0.00000000000E+00  0.41475713509E+01  0.43376546786E+01  0.12700000000E+01 0. -1.
          4   -1    0    0  501    0  0.00000000000E+00 -0.00000000000E+00 -0.92053783673E+03  0.92053871279E+03  0.12700000000E+01 0. -1.
         25    2    1    2    0    0  0.00000000000E+00  0.00000000000E+00 -0.91639026538E+03  0.92487636747E+03  0.12500070651E+03 0.  0.
    9000005    1    3    3    0    0  0.59379319282E+02 -0.76826288862E+01 -0.32576230500E+03  0.33122047899E+03  0.10000000000E+01 0.  0.
    9000005    1    3    3    0    0 -0.59379319282E+02  0.76826288862E+01 -0.59062796038E+03  0.59365588848E+03  0.10000000000E+01 0.  0.
<mgrwt>
<rscale>  0 0.12500071E+03</rscale>
<asrwt>0</asrwt>
<pdfrwt beam="2">  1        4 0.14163574E+00 0.12500071E+03</pdfrwt>
<pdfrwt beam="1">  1       -4 0.65277782E-03 0.12500071E+03</pdfrwt>
<totfact> 0.33224603E+03</totfact>
</mgrwt>
</event>
<event>
 5    1  0.3259432E-002  0.1249914E+03  0.7818608E-02  0.1235083E+00
         -4   -1    0    0    0  501 -0.00000000000E+00  0.00000000000E+00  0.44068022177E+03  0.44068205178E+03  0.12700000000E+01 0.  1.
          4   -1    0    0  501    0  0.00000000000E+00 -0.00000000000E+00 -0.88155705509E+01  0.89065809454E+01  0.12700000000E+01 0.  1.
         25    2    1    2    0    0  0.00000000000E+00  0.00000000000E+00  0.43186465122E+03  0.44958863273E+03  0.12499144651E+03 0.  0.
    9000005    1    3    3    0    0  0.71159247727E+00  0.58022561823E+02  0.29933138963E+03  0.30490556712E+03  0.10000000000E+01 0.  0.
    9000005    1    3    3    0    0 -0.71159247727E+00 -0.58022561823E+02  0.13253326160E+03  0.14468306561E+03  0.10000000000E+01 0.  0.
<mgrwt>
<rscale>  0 0.12499145E+03</rscale>
<asrwt>0</asrwt>
<pdfrwt beam="2">  1        4 0.13633832E-02 0.12499145E+03</pdfrwt>
<pdfrwt beam="1">  1       -4 0.67804100E-01 0.12499145E+03</pdfrwt>
<totfact> 0.60010751E+03</totfact>
</mgrwt>
</event>
<event>
 5    1  0.3259432E-002  0.1249980E+03  0.7818608E-02  0.1235072E+00
          4   -1    0    0  501    0  0.00000000000E+00  0.00000000000E+00  0.56121808400E+03  0.56121952096E+03  0.12700000000E+01 0.  1.
         -4   -1    0    0    0  501 -0.00000000000E+00 -0.00000000000E+00 -0.69006945695E+01  0.70165864593E+01  0.12700000000E+01 0.  1.
         25    2    1    2    0    0  0.00000000000E+00  0.00000000000E+00  0.55431738943E+03  0.56823610742E+03  0.12499802219E+03 0.  0.
    9000005    1    3    3    0    0 -0.57738225269E+02 -0.80340317542E+01  0.17481114873E+03  0.18427747025E+03  0.10000000000E+01 0.  0.
    9000005    1    3    3    0    0  0.57738225269E+02  0.80340317542E+01  0.37950624070E+03  0.38395863717E+03  0.10000000000E+01 0.  0.
<mgrwt>
<rscale>  0 0.12499802E+03</rscale>
<asrwt>0</asrwt>
<pdfrwt beam="1">  1        4 0.86350287E-01 0.12499802E+03</pdfrwt>
<pdfrwt beam="2">  1       -4 0.10706704E-02 0.12499802E+03</pdfrwt>
<totfact> 0.50938254E+03</totfact>
</mgrwt>
</event>
<event>
 5    1  0.3259432E-002  0.1250013E+03  0.7818608E-02  0.1235067E+00
          4   -1    0    0  501    0  0.00000000000E+00  0.00000000000E+00  0.16145418481E+02  0.16195290609E+02  0.12700000000E+01 0. -1.
         -4   -1    0    0    0  501 -0.00000000000E+00 -0.00000000000E+00 -0.24152196120E+03  0.24152530021E+03  0.12700000000E+01 0. -1.
         25    2    1    2    0    0  0.00000000000E+00  0.00000000000E+00 -0.22537654272E+03  0.25772059082E+03  0.12500126769E+03 0.  0.
    9000005    1    3    3    0    0 -0.55234085455E+02  0.13723284937E+02 -0.59473050423E+02  0.82323608231E+02  0.10000000000E+01 0.  0.
    9000005    1    3    3    0    0  0.55234085455E+02 -0.13723284937E+02 -0.16590349230E+03  0.17539698259E+03  0.10000000000E+01 0.  0.
<mgrwt>
<rscale>  0 0.12500127E+03</rscale>
<asrwt>0</asrwt>
<pdfrwt beam="1">  1        4 0.24880039E-02 0.12500127E+03</pdfrwt>
<pdfrwt beam="2">  1       -4 0.37161315E-01 0.12500127E+03</pdfrwt>
<totfact> 0.81224720E+03</totfact>
</mgrwt>
</event>
<event>
 5    1  0.3259432E-002  0.1249948E+03  0.7818608E-02  0.1235077E+00
         -4   -1    0    0    0  501 -0.00000000000E+00  0.00000000000E+00  0.14090884321E+03  0.14091456630E+03  0.12700000000E+01 0.  1.
          4   -1    0    0  501    0  0.00000000000E+00 -0.00000000000E+00 -0.27698662435E+02  0.27727762274E+02  0.12700000000E+01 0.  1.
         25    2    1    2    0    0  0.00000000000E+00  0.00000000000E+00  0.11321018078E+03  0.16864232857E+03  0.12499475971E+03 0.  0.
    9000005    1    3    3    0    0 -0.11177328939E+02  0.54474014092E+02  0.95064764738E+02  0.11013927723E+03  0.10000000000E+01 0.  0.
    9000005    1    3    3    0    0  0.11177328939E+02 -0.54474014092E+02  0.18145416039E+02  0.58503051346E+02  0.10000000000E+01 0.  0.
<mgrwt>
<rscale>  0 0.12499476E+03</rscale>
<asrwt>0</asrwt>
<pdfrwt beam="2">  1        4 0.42640114E-02 0.12499476E+03</pdfrwt>
<pdfrwt beam="1">  1       -4 0.21680962E-01 0.12499476E+03</pdfrwt>
<totfact> 0.95713268E+03</totfact>
</mgrwt>
</event>
<event>
 5    1  0.3259432E-002  0.1249998E+03  0.7818608E-02  0.1235070E+00
         -4   -1    0    0    0  501 -0.00000000000E+00  0.00000000000E+00  0.44476731554E+01  0.46254401409E+01  0.12700000000E+01 0. -1.
          4   -1    0    0  501    0  0.00000000000E+00 -0.00000000000E+00 -0.86087981227E+03  0.86088074905E+03  0.12700000000E+01 0. -1.
         25    2    1    2    0    0  0.00000000000E+00  0.00000000000E+00 -0.85643213912E+03  0.86550618919E+03  0.12499981843E+03 0.  0.
    9000005    1    3    3    0    0 -0.49826229305E+02  0.32303681156E+02 -0.29340875342E+03  0.29935911132E+03  0.10000000000E+01 0.  0.
    9000005    1    3    3    0    0  0.49826229305E+02 -0.32303681156E+02 -0.56302338569E+03  0.56614707787E+03  0.10000000000E+01 0.  0.
<mgrwt>
<rscale>  0 0.12499982E+03</rscale>
<asrwt>0</asrwt>
<pdfrwt beam="2">  1        4 0.13245667E+00 0.12499982E+03</pdfrwt>
<pdfrwt beam="1">  1       -4 0.69800453E-03 0.12499982E+03</pdfrwt>
<totfact> 0.35501238E+03</totfact>
</mgrwt>
</event>
<event>
 5    1  0.3259432E-002  0.1249645E+03  0.7818608E-02  0.1235125E+00
          4   -1    0    0  501    0  0.00000000000E+00  0.00000000000E+00  0.42674414414E+03  0.42674603391E+03  0.12700000000E+01 0.  1.
         -4   -1    0    0    0  501 -0.00000000000E+00 -0.00000000000E+00 -0.91024106709E+01  0.91905810492E+01  0.12700000000E+01 0.  1.
         25    2    1    2    0    0  0.00000000000E+00  0.00000000000E+00  0.41764173347E+03  0.43593661496E+03  0.12496445385E+03 0.  0.
    9000005    1    3    3    0    0  0.59309881060E+02 -0.19561929141E+02  0.21455050396E+03  0.22345748994E+03  0.10000000000E+01 0.  0.
    9000005    1    3    3    0    0 -0.59309881060E+02  0.19561929141E+02  0.20309122951E+03  0.21247912502E+03  0.10000000000E+01 0.  0.
<mgrwt>
<rscale>  0 0.12496445E+03</rscale>
<asrwt>0</asrwt>
<pdfrwt beam="1">  1        4 0.65659866E-01 0.12496445E+03</pdfrwt>
<pdfrwt beam="2">  1       -4 0.14072987E-02 0.12496445E+03</pdfrwt>
<totfact> 0.61249517E+03</totfact>
</mgrwt>
</event>
<event>
 5    1  0.3259432E-002  0.1250032E+03  0.7818608E-02  0.1235064E+00
         -4   -1    0    0    0  501 -0.00000000000E+00  0.00000000000E+00  0.40994713052E+01  0.42916855642E+01  0.12700000000E+01 0. -1.
          4   -1    0    0  501    0  0.00000000000E+00 -0.00000000000E+00 -0.93089408435E+03  0.93089495067E+03  0.12700000000E+01 0. -1.
         25    2    1    2    0    0  0.00000000000E+00  0.00000000000E+00 -0.92679461305E+03  0.93518663623E+03  0.12500315923E+03 0.  0.
    9000005    1    3    3    0    0  0.49459187878E+02  0.28291791388E+02 -0.65542224495E+03  0.65789509491E+03  0.10000000000E+01 0.  0.
    9000005    1    3    3    0    0 -0.49459187878E+02 -0.28291791388E+02 -0.27137236809E+03  0.27729154132E+03  0.10000000000E+01 0.  0.
<mgrwt>
<rscale>  0 0.12500316E+03</rscale>
<asrwt>0</asrwt>
<pdfrwt beam="2">  1        4 0.14322916E+00 0.12500316E+03</pdfrwt>
<pdfrwt beam="1">  1       -4 0.64554099E-03 0.12500316E+03</pdfrwt>
<totfact> 0.32845587E+03</totfact>
</mgrwt>
</event>
<event>
 5    1  0.3259432E-002  0.1250085E+03  0.7818608E-02  0.1235056E+00
          4   -1    0    0  501    0  0.00000000000E+00  0.00000000000E+00  0.67889345096E+02  0.67901222946E+02  0.12700000000E+01 0. -1.
         -4   -1    0    0    0  501 -0.00000000000E+00 -0.00000000000E+00 -0.57522357733E+02  0.57536375791E+02  0.12700000000E+01 0. -1.
         25    2    1    2    0    0  0.00000000000E+00  0.00000000000E+00  0.10366987363E+02  0.12543759874E+03  0.12500846671E+03 0.  0.
    9000005    1    3    3    0    0 -0.81792778000E+01 -0.59178000617E+02 -0.13232788756E+02  0.61196756781E+02  0.10000000000E+01 0.  0.
    9000005    1    3    3    0    0  0.81792778000E+01  0.59178000617E+02  0.23599776119E+02  0.64240841956E+02  0.10000000000E+01 0.  0.
<mgrwt>
<rscale>  0 0.12500847E+03</rscale>
<asrwt>0</asrwt>
<pdfrwt beam="1">  1        4 0.10446507E-01 0.12500847E+03</pdfrwt>
<pdfrwt beam="2">  1       -4 0.88515854E-02 0.12500847E+03</pdfrwt>
<totfact> 0.10441340E+04</totfact>
</mgrwt>
</event>
<event>
 5    1  0.3259432E-002  0.1250040E+03  0.7818608E-02  0.1235063E+00
          4   -1    0    0  501    0  0.00000000000E+00  0.00000000000E+00  0.95910645590E+01  0.96747826526E+01  0.12700000000E+01 0.  1.
         -4   -1    0    0    0  501 -0.00000000000E+00 -0.00000000000E+00 -0.40545147931E+03  0.40545346832E+03  0.12700000000E+01 0.  1.
         25    2    1    2    0    0  0.00000000000E+00  0.00000000000E+00 -0.39586041475E+03  0.41512825098E+03  0.12500398710E+03 0.  0.
    9000005    1    3    3    0    0  0.44685684042E+02 -0.27348714860E+02 -0.84787837771E+02  0.99673165880E+02  0.10000000000E+01 0.  0.
    9000005    1    3    3    0    0 -0.44685684042E+02  0.27348714860E+02 -0.31107257698E+03  0.31545508510E+03  0.10000000000E+01 0.  0.
<mgrwt>
<rscale>  0 0.12500399E+03</rscale>
<asrwt>0</asrwt>
<pdfrwt beam="1">  1        4 0.14821416E-02 0.12500399E+03</pdfrwt>
<pdfrwt beam="2">  1       -4 0.62383730E-01 0.12500399E+03</pdfrwt>
<totfact> 0.63102011E+03</totfact>
</mgrwt>
</event>
<event>
 5    1  0.3259432E-002  0.1249979E+03  0.7818608E-02  0.1235073E+00
         -4   -1    0    0    0  501 -0.00000000000E+00  0.00000000000E+00  0.44421398011E+03  0.44421579556E+03  0.12700000000E+01 0. -1.
          4   -1    0    0  501    0  0.00000000000E+00 -0.00000000000E+00 -0.87456322905E+01  0.88373629642E+01  0.12700000000E+01 0. -1.
         25    2    1    2    0    0  0.00000000000E+00  0.00000000000E+00  0.43546834782E+03  0.45305315853E+03  0.12499792997E+03 0.  0.
    9000005    1    3    3    0    0 -0.77290191328E+01  0.43379377261E+02  0.57123561763E+02  0.72149909333E+02  0.10000000000E+01 0.  0.
    9000005    1    3    3    0    0  0.77290191328E+01 -0.43379377261E+02  0.37834478606E+03  0.38090324920E+03  0.10000000000E+01 0.  0.
<mgrwt>
<rscale>  0 0.12499793E+03</rscale>
<asrwt>0</asrwt>
<pdfrwt beam="2">  1        4 0.13526780E-02 0.12499793E+03</pdfrwt>
<pdfrwt beam="1">  1       -4 0.68347797E-01 0.12499793E+03</pdfrwt>
<totfact> 0.59702936E+03</totfact>
</mgrwt>
</event>
<event>
 5    1  0.3259432E-002  0.1249965E+03  0.7818608E-02  0.1235075E+00
          4   -1    0    0  501    0  0.00000000000E+00  0.00000000000E+00  0.40778040867E+02  0.40797812649E+02  0.12700000000E+01 0.  1.
         -4   -1    0    0    0  501 -0.00000000000E+00 -0.00000000000E+00 -0.95740407901E+02  0.95748830829E+02  0.12700000000E+01 0.  1.
         25    2    1    2    0    0  0.00000000000E+00  0.00000000000E+00 -0.54962367034E+02  0.13654664348E+03  0.12499649617E+03 0.  0.
    9000005    1    3    3    0    0  0.50735759747E+02 -0.47155194829E+01  0.12037231662E+02  0.52366481524E+02  0.10000000000E+01 0.  0.
    9000005    1    3    3    0    0 -0.50735759747E+02  0.47155194829E+01 -0.66999598696E+02  0.84180161954E+02  0.10000000000E+01 0.  0.
<mgrwt>
<rscale>  0 0.12499650E+03</rscale>
<asrwt>0</asrwt>
<pdfrwt beam="1">  1        4 0.62757136E-02 0.12499650E+03</pdfrwt>
<pdfrwt beam="2">  1       -4 0.14731462E-01 0.12499650E+03</pdfrwt>
<totfact> 0.10206380E+04</totfact>
</mgrwt>
</event>
<event>
 5    1  0.3259432E-002  0.1249999E+03  0.7818608E-02  0.1235069E+00
         -4   -1    0    0    0  501 -0.00000000000E+00  0.00000000000E+00  0.65826950392E+02  0.65839200313E+02  0.12700000000E+01 0.  1.
          4   -1    0    0  501    0  0.00000000000E+00 -0.00000000000E+00 -0.59316497882E+02  0.59330092036E+02  0.12700000000E+01 0.  1.
         25    2    1    2    0    0  0.00000000000E+00  0.00000000000E+00  0.65104525094E+01  0.12516929235E+03  0.12499986302E+03 0.  0.
    9000005    1    3    3    0    0  0.51657523796E+02  0.28418287985E+02 -0.17488609486E+02  0.61505693383E+02  0.10000000000E+01 0.  0.
    9000005    1    3    3    0    0 -0.51657523796E+02 -0.28418287985E+02  0.23999061995E+02  0.63663598967E+02  0.10000000000E+01 0.  0.
<mgrwt>
<rscale>  0 0.12499986E+03</rscale>
<asrwt>0</asrwt>
<pdfrwt beam="2">  1        4 0.91276030E-02 0.12499986E+03</pdfrwt>
<pdfrwt beam="1">  1       -4 0.10129211E-01 0.12499986E+03</pdfrwt>
<totfact> 0.10449219E+04</totfact>
</mgrwt>
</event>
<event>
 5    1  0.3259432E-002  0.1250021E+03  0.7818608E-02  0.1235066E+00
          4   -1    0    0  501    0  0.00000000000E+00  0.00000000000E+00  0.11937903609E+02  0.12005267284E+02  0.12700000000E+01 0. -1.
         -4   -1    0    0    0  501 -0.00000000000E+00 -0.00000000000E+00 -0.32623594461E+03  0.32623841658E+03  0.12700000000E+01 0. -1.
         25    2    1    2    0    0  0.00000000000E+00  0.00000000000E+00 -0.31429804100E+03  0.33824368387E+03  0.12500212438E+03 0.  0.
    9000005    1    3    3    0    0 -0.51284977614E+02  0.28846036389E+02 -0.10018733999E+03  0.11619270992E+03  0.10000000000E+01 0.  0.
    9000005    1    3    3    0    0  0.51284977614E+02 -0.28846036389E+02 -0.21411070101E+03  0.22205097394E+03  0.10000000000E+01 0.  0.
<mgrwt>
<rscale>  0 0.12500212E+03</rscale>
<asrwt>0</asrwt>
<pdfrwt beam="1">  1        4 0.18419728E-02 0.12500212E+03</pdfrwt>
<pdfrwt beam="2">  1       -4 0.50195510E-01 0.12500212E+03</pdfrwt>
<totfact> 0.71034218E+03</totfact>
</mgrwt>
</event>
<event>
 5    1  0.3259432E-002  0.1250077E+03  0.7818608E-02  0.1235057E+00
          4   -1    0    0  501    0  0.00000000000E+00  0.00000000000E+00  0.94500193249E+01  0.95349758910E+01  0.12700000000E+01 0. -1.
         -4   -1    0    0    0  501 -0.00000000000E+00 -0.00000000000E+00 -0.41147406039E+03  0.41147602029E+03  0.12700000000E+01 0. -1.
         25    2    1    2    0    0  0.00000000000E+00  0.00000000000E+00 -0.40202404107E+03  0.42101099619E+03  0.12500771701E+03 0.  0.
    9000005    1    3    3    0    0  0.51480393930E+02 -0.33669382535E+02 -0.16383177665E+03  0.17500202662E+03  0.10000000000E+01 0.  0.
    9000005    1    3    3    0    0 -0.51480393930E+02  0.33669382535E+02 -0.23819226442E+03  0.24600896957E+03  0.10000000000E+01 0.  0.
<mgrwt>
<rscale>  0 0.12500772E+03</rscale>
<asrwt>0</asrwt>
<pdfrwt beam="1">  1        4 0.14605353E-02 0.12500772E+03</pdfrwt>
<pdfrwt beam="2">  1       -4 0.63310374E-01 0.12500772E+03</pdfrwt>
<totfact> 0.62548687E+03</totfact>
</mgrwt>
</event>
<event>
 5    1  0.3259432E-002  0.1250069E+03  0.7818608E-02  0.1235059E+00
          4   -1    0    0  501    0  0.00000000000E+00  0.00000000000E+00  0.96845824405E+02  0.96854151200E+02  0.12700000000E+01 0.  1.
         -4   -1    0    0    0  501 -0.00000000000E+00 -0.00000000000E+00 -0.40319117995E+02  0.40339114714E+02  0.12700000000E+01 0.  1.
         25    2    1    2    0    0  0.00000000000E+00  0.00000000000E+00  0.56526706410E+02  0.13719326591E+03  0.12500689451E+03 0.  0.
    9000005    1    3    3    0    0  0.53278107825E+01  0.19807480216E+02  0.93051815108E+02  0.95290934170E+02  0.10000000000E+01 0.  0.
    9000005    1    3    3    0    0 -0.53278107825E+01 -0.19807480216E+02 -0.36525108697E+02  0.41902331744E+02  0.10000000000E+01 0.  0.
<mgrwt>
<rscale>  0 0.12500689E+03</rscale>
<asrwt>0</asrwt>
<pdfrwt beam="1">  1        4 0.14901536E-01 0.12500689E+03</pdfrwt>
<pdfrwt beam="2">  1       -4 0.62051201E-02 0.12500689E+03</pdfrwt>
<totfact> 0.10190462E+04</totfact>
</mgrwt>
</event>
<event>
 5    1  0.3259432E-002  0.1249995E+03  0.7818608E-02  0.1235070E+00
          4   -1    0    0  501    0  0.00000000000E+00  0.00000000000E+00  0.86333819811E+01  0.87262927083E+01  0.12700000000E+01 0.  1.
         -4   -1    0    0    0  501 -0.00000000000E+00 -0.00000000000E+00 -0.44993997797E+03  0.44994177031E+03  0.12700000000E+01 0.  1.
         25    2    1    2    0    0  0.00000000000E+00  0.00000000000E+00 -0.44130659599E+03  0.45866806302E+03  0.12499952150E+03 0.  0.
    9000005    1    3    3    0    0 -0.32328172432E+02  0.27868034037E+01 -0.24682648469E+02  0.40781247424E+02  0.10000000000E+01 0.  0.
    9000005    1    3    3    0    0  0.32328172432E+02 -0.27868034037E+01 -0.41662394752E+03  0.41788681560E+03  0.10000000000E+01 0.  0.
<mgrwt>
<rscale>  0 0.12499952E+03</rscale>
<asrwt>0</asrwt>
<pdfrwt beam="1">  1        4 0.13354978E-02 0.12499952E+03</pdfrwt>
<pdfrwt beam="2">  1       -4 0.69228802E-01 0.12499952E+03</pdfrwt>
<totfact> 0.59220801E+03</totfact>
</mgrwt>
</event>
<event>
 5    1  0.3259432E-002  0.1250005E+03  0.7818608E-02  0.1235068E+00
         -4   -1    0    0    0  501 -0.00000000000E+00  0.00000000000E+00  0.12256116991E+02  0.12321741098E+02  0.12700000000E+01 0. -1.
          4   -1    0    0  501    0  0.00000000000E+00 -0.00000000000E+00 -0.31780312936E+03  0.31780566693E+03  0.12700000000E+01 0. -1.
         25    2    1    2    0    0  0.00000000000E+00  0.00000000000E+00 -0.30554701237E+03  0.33012740803E+03  0.12500051505E+03 0.  0.
    9000005    1    3    3    0    0  0.82137795691E+00 -0.62033683242E+02 -0.17261267821E+03  0.18342570485E+03  0.10000000000E+01 0.  0.
    9000005    1    3    3    0    0 -0.82137795691E+00  0.62033683242E+02 -0.13293433416E+03  0.14670170318E+03  0.10000000000E+01 0.  0.
<mgrwt>
<rscale>  0 0.12500052E+03</rscale>
<asrwt>0</asrwt>
<pdfrwt beam="2">  1        4 0.48898026E-01 0.12500052E+03</pdfrwt>
<pdfrwt beam="1">  1       -4 0.18907999E-02 0.12500052E+03</pdfrwt>
<totfact> 0.71966758E+03</totfact>
</mgrwt>
</event>
<event>
 5    1  0.3259432E-002  0.1249970E+03  0.7818608E-02  0.1235074E+00
         -4   -1    0    0    0  501 -0.00000000000E+00  0.00000000000E+00  0.23910827957E+03  0.23911165229E+03  0.12700000000E+01 0.  1.
          4   -1    0    0  501    0  0.00000000000E+00 -0.00000000000E+00 -0.16307786310E+02  0.16357163395E+02  0.12700000000E+01 0.  1.
         25    2    1    2    0    0  0.00000000000E+00  0.00000000000E+00  0.22280049326E+03  0.25546881568E+03  0.12499702392E+03 0.  0.
    9000005    1    3    3    0    0  0.10438579812E+02  0.39873285363E+02  0.15402122908E+02  0.44012137237E+02  0.10000000000E+01 0.  0.
    9000005    1    3    3    0    0 -0.10438579812E+02 -0.39873285363E+02  0.20739837035E+03  0.21145667845E+03  0.10000000000E+01 0.  0.
<mgrwt>
<rscale>  0 0.12499702E+03</rscale>
<asrwt>0</asrwt>
<pdfrwt beam="2">  1        4 0.25129480E-02 0.12499702E+03</pdfrwt>
<pdfrwt beam="1">  1       -4 0.36789944E-01 0.12499702E+03</pdfrwt>
<totfact> 0.81551588E+03</totfact>
</mgrwt>
</event>
<event>
 5    1  0.3259432E-002  0.1249982E+03  0.7818608E-02  0.1235072E+00
         -4   -1    0    0    0  501 -0.00000000000E+00  0.00000000000E+00  0.75407751454E+02  0.75418445220E+02  0.12700000000E+01 0. -1.
          4   -1    0    0  501    0  0.00000000000E+00 -0.00000000000E+00 -0.51778099209E+02  0.51793671985E+02  0.12700000000E+01 0. -1.
         25    2    1    2    0    0  0.00000000000E+00  0.00000000000E+00  0.23629652246E+02  0.12721211720E+03  0.12499824918E+03 0.  0.
    9000005    1    3    3    0    0  0.62463515308E+02  0.18370332189E+01  0.12093795889E+02  0.63657877240E+02  0.10000000000E+01 0.  0.
    9000005    1    3    3    0    0 -0.62463515308E+02 -0.18370332189E+01  0.11535856357E+02  0.63554239965E+02  0.10000000000E+01 0.  0.
<mgrwt>
<rscale>  0 0.12499825E+03</rscale>
<asrwt>0</asrwt>
<pdfrwt beam="2">  1        4 0.79678820E-02 0.12499825E+03</pdfrwt>
<pdfrwt beam="1">  1       -4 0.11603213E-01 0.12499825E+03</pdfrwt>
<totfact> 0.10404952E+04</totfact>
</mgrwt>
</event>
<event>
 5    1  0.3259432E-002  0.1249943E+03  0.7818608E-02  0.1235078E+00
         -4   -1    0    0    0  501 -0.00000000000E+00  0.00000000000E+00  0.22118767236E+02  0.22155197224E+02  0.12700000000E+01 0. -1.
          4   -1    0    0  501    0  0.00000000000E+00 -0.00000000000E+00 -0.17640332250E+03  0.17640789407E+03  0.12700000000E+01 0. -1.
         25    2    1    2    0    0  0.00000000000E+00  0.00000000000E+00 -0.15428455526E+03  0.19856309129E+03  0.12499430879E+03 0.  0.
    9000005    1    3    3    0    0 -0.79278406694E+01 -0.51203633125E+02 -0.13263415538E+03  0.14239902344E+03  0.10000000000E+01 0.  0.
    9000005    1    3    3    0    0  0.79278406694E+01  0.51203633125E+02 -0.21650399888E+02  0.56164067857E+02  0.10000000000E+01 0.  0.
<mgrwt>
<rscale>  0 0.12499431E+03</rscale>
<asrwt>0</asrwt>
<pdfrwt beam="2">  1        4 0.27142126E-01 0.12499431E+03</pdfrwt>
<pdfrwt beam="1">  1       -4 0.34060413E-02 0.12499431E+03</pdfrwt>
<totfact> 0.90389856E+03</totfact>
</mgrwt>
</event>
<event>
 5    1  0.3259432E-002  0.1249944E+03  0.7818608E-02  0.1235078E+00
          4   -1    0    0  501    0  0.00000000000E+00  0.00000000000E+00  0.11041098475E+03  0.11041828858E+03  0.12700000000E+01 0.  1.
         -4   -1    0    0    0  501 -0.00000000000E+00 -0.00000000000E+00 -0.35356136264E+02  0.35378938248E+02  0.12700000000E+01 0.  1.
         25    2    1    2    0    0  0.00000000000E+00  0.00000000000E+00  0.75054848481E+02  0.14579722683E+03  0.12499440415E+03 0.  0.
    9000005    1    3    3    0    0  0.61881564706E+02 -0.75015450330E+01  0.42651629702E+02  0.75536499420E+02  0.10000000000E+01 0.  0.
    9000005    1    3    3    0    0 -0.61881564706E+02  0.75015450330E+01  0.32403218780E+02  0.70260727406E+02  0.10000000000E+01 0.  0.
<mgrwt>
<rscale>  0 0.12499440E+03</rscale>
<asrwt>0</asrwt>
<pdfrwt beam="1">  1        4 0.16988621E-01 0.12499440E+03</pdfrwt>
<pdfrwt beam="2">  1       -4 0.54417215E-02 0.12499440E+03</pdfrwt>
<totfact> 0.10016078E+04</totfact>
</mgrwt>
</event>
<event>
 5    1  0.3259432E-002  0.1249995E+03  0.7818608E-02  0.1235070E+00
         -4   -1    0    0    0  501 -0.00000000000E+00  0.00000000000E+00  0.17700161822E+03  0.17700617433E+03  0.12700000000E+01 0. -1.
          4   -1    0    0  501    0  0.00000000000E+00 -0.00000000000E+00 -0.22045715972E+02  0.22082266476E+02  0.12700000000E+01 0. -1.
         25    2    1    2    0    0  0.00000000000E+00  0.00000000000E+00  0.15495590225E+03  0.19908844081E+03  0.12499950249E+03 0.  0.
    9000005    1    3    3    0    0  0.97953208709E+01  0.36961926313E+02  0.15620195817E+03  0.16081723802E+03  0.10000000000E+01 0.  0.
    9000005    1    3    3    0    0 -0.97953208709E+01 -0.36961926313E+02 -0.12460559231E+01  0.38271202791E+02  0.10000000000E+01 0.  0.
<mgrwt>
<rscale>  0 0.12499950E+03</rscale>
<asrwt>0</asrwt>
<pdfrwt beam="2">  1        4 0.33948108E-02 0.12499950E+03</pdfrwt>
<pdfrwt beam="1">  1       -4 0.27234179E-01 0.12499950E+03</pdfrwt>
<totfact> 0.90290482E+03</totfact>
</mgrwt>
</event>
<event>
 5    1  0.3259432E-002  0.1250015E+03  0.7818608E-02  0.1235067E+00
         -4   -1    0    0    0  501 -0.00000000000E+00  0.00000000000E+00  0.61139381832E+03  0.61139513735E+03  0.12700000000E+01 0. -1.
          4   -1    0    0  501    0  0.00000000000E+00 -0.00000000000E+00 -0.63247950636E+01  0.64510412025E+01  0.12700000000E+01 0. -1.
         25    2    1    2    0    0  0.00000000000E+00  0.00000000000E+00  0.60506902325E+03  0.61784617855E+03  0.12500150980E+03 0.  0.
    9000005    1    3    3    0    0 -0.22496149996E+02 -0.42279554623E+02  0.50096487762E+03  0.50324988437E+03  0.10000000000E+01 0.  0.
    9000005    1    3    3    0    0  0.22496149996E+02  0.42279554623E+02  0.10410414563E+03  0.11459629419E+03  0.10000000000E+01 0.  0.
<mgrwt>
<rscale>  0 0.12500151E+03</rscale>
<asrwt>0</asrwt>
<pdfrwt beam="2">  1        4 0.98285780E-03 0.12500151E+03</pdfrwt>
<pdfrwt beam="1">  1       -4 0.94070429E-01 0.12500151E+03</pdfrwt>
<totfact> 0.47758551E+03</totfact>
</mgrwt>
</event>
<event>
 5    1  0.3259432E-002  0.1250133E+03  0.7818608E-02  0.1235049E+00
         -4   -1    0    0    0  501 -0.00000000000E+00  0.00000000000E+00  0.25551979500E+03  0.25552295110E+03  0.12700000000E+01 0.  1.
          4   -1    0    0  501    0  0.00000000000E+00 -0.00000000000E+00 -0.15261089345E+02  0.15313841713E+02  0.12700000000E+01 0.  1.
         25    2    1    2    0    0  0.00000000000E+00  0.00000000000E+00  0.24025870566E+03  0.27083679281E+03  0.12501329008E+03 0.  0.
    9000005    1    3    3    0    0 -0.27423550173E+02 -0.26439401216E+02  0.22747294677E+03  0.23064265554E+03  0.10000000000E+01 0.  0.
    9000005    1    3    3    0    0  0.27423550173E+02  0.26439401216E+02  0.12785758883E+02  0.40194137271E+02  0.10000000000E+01 0.  0.
<mgrwt>
<rscale>  0 0.12501329E+03</rscale>
<asrwt>0</asrwt>
<pdfrwt beam="2">  1        4 0.23521607E-02 0.12501329E+03</pdfrwt>
<pdfrwt beam="1">  1       -4 0.39315036E-01 0.12501329E+03</pdfrwt>
<totfact> 0.79385452E+03</totfact>
</mgrwt>
</event>
<event>
 5    1  0.3259432E-002  0.1249966E+03  0.7818608E-02  0.1235075E+00
          4   -1    0    0  501    0  0.00000000000E+00  0.00000000000E+00  0.29289478711E+03  0.29289754047E+03  0.12700000000E+01 0.  1.
         -4   -1    0    0    0  501 -0.00000000000E+00 -0.00000000000E+00 -0.13302923622E+02  0.13363408132E+02  0.12700000000E+01 0.  1.
         25    2    1    2    0    0  0.00000000000E+00  0.00000000000E+00  0.27959186348E+03  0.30626094860E+03  0.12499663400E+03 0.  0.
    9000005    1    3    3    0    0  0.16504045068E+01 -0.43279822340E+01  0.29248560897E+03  0.29252399341E+03  0.10000000000E+01 0.  0.
    9000005    1    3    3    0    0 -0.16504045068E+01  0.43279822340E+01 -0.12893745487E+02  0.13736955192E+02  0.10000000000E+01 0.  0.
<mgrwt>
<rscale>  0 0.12499663E+03</rscale>
<asrwt>0</asrwt>
<pdfrwt beam="1">  1        4 0.45065597E-01 0.12499663E+03</pdfrwt>
<pdfrwt beam="2">  1       -4 0.20514683E-02 0.12499663E+03</pdfrwt>
<totfact> 0.74825719E+03</totfact>
</mgrwt>
</event>
<event>
 5    1  0.3259432E-002  0.1250112E+03  0.7818608E-02  0.1235052E+00
          4   -1    0    0  501    0  0.00000000000E+00  0.00000000000E+00  0.41157580417E+03  0.41157776359E+03  0.12700000000E+01 0.  1.
         -4   -1    0    0    0  501 -0.00000000000E+00 -0.00000000000E+00 -0.94482002644E+01  0.95331730414E+01  0.12700000000E+01 0.  1.
         25    2    1    2    0    0  0.00000000000E+00  0.00000000000E+00  0.40212760391E+03  0.42111093663E+03  0.12501124399E+03 0.  0.
    9000005    1    3    3    0    0 -0.69375076804E+01  0.40155623885E+02  0.41443020562E+02  0.58130259725E+02  0.10000000000E+01 0.  0.
    9000005    1    3    3    0    0  0.69375076804E+01 -0.40155623885E+02  0.36068458335E+03  0.36298067690E+03  0.10000000000E+01 0.  0.
<mgrwt>
<rscale>  0 0.12501124E+03</rscale>
<asrwt>0</asrwt>
<pdfrwt beam="1">  1        4 0.63326021E-01 0.12501124E+03</pdfrwt>
<pdfrwt beam="2">  1       -4 0.14602568E-02 0.12501124E+03</pdfrwt>
<totfact> 0.62534579E+03</totfact>
</mgrwt>
</event>
<event>
 5    1  0.3259432E-002  0.1249877E+03  0.7818608E-02  0.1235088E+00
         -4   -1    0    0    0  501 -0.00000000000E+00  0.00000000000E+00  0.59357107181E+02  0.59370692037E+02  0.12700000000E+01 0.  1.
          4   -1    0    0  501    0  0.00000000000E+00 -0.00000000000E+00 -0.65769136166E+02  0.65781396854E+02  0.12700000000E+01 0.  1.
         25    2    1    2    0    0  0.00000000000E+00  0.00000000000E+00 -0.64120289851E+01  0.12515208889E+03  0.12498772435E+03 0.  0.
    9000005    1    3    3    0    0 -0.57060135809E+02  0.22394423988E+01 -0.28608818883E+02  0.63877529059E+02  0.10000000000E+01 0.  0.
    9000005    1    3    3    0    0  0.57060135809E+02 -0.22394423988E+01  0.22196789898E+02  0.61274559832E+02  0.10000000000E+01 0.  0.
<mgrwt>
<rscale>  0 0.12498772E+03</rscale>
<asrwt>0</asrwt>
<pdfrwt beam="2">  1        4 0.10120317E-01 0.12498772E+03</pdfrwt>
<pdfrwt beam="1">  1       -4 0.91338507E-02 0.12498772E+03</pdfrwt>
<totfact> 0.10452460E+04</totfact>
</mgrwt>
</event>
<event>
 5    1  0.3259432E-002  0.1249990E+03  0.7818608E-02  0.1235071E+00
          4   -1    0    0  501    0  0.00000000000E+00  0.00000000000E+00  0.13585409445E+04  0.13585415381E+04  0.12700000000E+01 0. -1.
         -4   -1    0    0    0  501 -0.00000000000E+00 -0.00000000000E+00 -0.27344211515E+01  0.30149558925E+01  0.12700000000E+01 0. -1.
         25    2    1    2    0    0  0.00000000000E+00  0.00000000000E+00  0.13558065233E+04  0.13615564940E+04  0.12499903047E+03 0.  0.
    9000005    1    3    3    0    0  0.15716748199E+02  0.35888441251E+02  0.14760417594E+03  0.15271866011E+03  0.10000000000E+01 0.  0.
    9000005    1    3    3    0    0 -0.15716748199E+02 -0.35888441251E+02  0.12082023474E+04  0.12088378339E+04  0.10000000000E+01 0.  0.
<mgrwt>
<rscale>  0 0.12499903E+03</rscale>
<asrwt>0</asrwt>
<pdfrwt beam="1">  1        4 0.20902820E+00 0.12499903E+03</pdfrwt>
<pdfrwt beam="2">  1       -4 0.44230486E-03 0.12499903E+03</pdfrwt>
<totfact> 0.20820922E+03</totfact>
</mgrwt>
</event>
<event>
 5    1  0.3259432E-002  0.1250055E+03  0.7818608E-02  0.1235061E+00
          4   -1    0    0  501    0  0.00000000000E+00  0.00000000000E+00  0.41975226001E+02  0.41994434129E+02  0.12700000000E+01 0. -1.
         -4   -1    0    0    0  501 -0.00000000000E+00 -0.00000000000E+00 -0.93024272291E+02  0.93032941130E+02  0.12700000000E+01 0. -1.
         25    2    1    2    0    0  0.00000000000E+00  0.00000000000E+00 -0.51049046290E+02  0.13502737526E+03  0.12500554765E+03 0.  0.
    9000005    1    3    3    0    0  0.35377539459E+02  0.50693365670E+02 -0.15612276762E+02  0.63766219951E+02  0.10000000000E+01 0.  0.
    9000005    1    3    3    0    0 -0.35377539459E+02 -0.50693365670E+02 -0.35436769528E+02  0.71261155307E+02  0.10000000000E+01 0.  0.
<mgrwt>
<rscale>  0 0.12500555E+03</rscale>
<asrwt>0</asrwt>
<pdfrwt beam="1">  1        4 0.64598715E-02 0.12500555E+03</pdfrwt>
<pdfrwt beam="2">  1       -4 0.14313571E-01 0.12500555E+03</pdfrwt>
<totfact> 0.10236213E+04</totfact>
</mgrwt>
</event>
<event>
 5    1  0.3259432E-002  0.1250001E+03  0.7818608E-02  0.1235069E+00
         -4   -1    0    0    0  501 -0.00000000000E+00  0.00000000000E+00  0.65679990971E+01  0.66896571018E+01  0.12700000000E+01 0.  1.
          4   -1    0    0  501    0  0.00000000000E+00 -0.00000000000E+00 -0.58916074637E+03  0.58916211518E+03  0.12700000000E+01 0.  1.
         25    2    1    2    0    0  0.00000000000E+00  0.00000000000E+00 -0.58259274727E+03  0.59585177228E+03  0.12500010142E+03 0.  0.
    9000005    1    3    3    0    0  0.37547148595E+02  0.40248365283E+02 -0.43234379078E+03  0.43583468506E+03  0.10000000000E+01 0.  0.
    9000005    1    3    3    0    0 -0.37547148595E+02 -0.40248365283E+02 -0.15024895650E+03  0.16001708722E+03  0.10000000000E+01 0.  0.
<mgrwt>
<rscale>  0 0.12500010E+03</rscale>
<asrwt>0</asrwt>
<pdfrwt beam="2">  1        4 0.90649537E-01 0.12500010E+03</pdfrwt>
<pdfrwt beam="1">  1       -4 0.10199255E-02 0.12500010E+03</pdfrwt>
<totfact> 0.49130417E+03</totfact>
</mgrwt>
</event>
<event>
 5    1  0.3259432E-002  0.1250076E+03  0.7818608E-02  0.1235057E+00
          4   -1    0    0  501    0  0.00000000000E+00  0.00000000000E+00  0.34057521004E+03  0.34057757794E+03  0.12700000000E+01 0. -1.
         -4   -1    0    0    0  501 -0.00000000000E+00 -0.00000000000E+00 -0.11433391927E+02  0.11503710312E+02  0.12700000000E+01 0. -1.
         25    2    1    2    0    0  0.00000000000E+00  0.00000000000E+00  0.32914181811E+03  0.35208128825E+03  0.12500758819E+03 0.  0.
    9000005    1    3    3    0    0 -0.34029213574E+01  0.45337264894E+02  0.28534096520E+03  0.28894205973E+03  0.10000000000E+01 0.  0.
    9000005    1    3    3    0    0  0.34029213574E+01 -0.45337264894E+02  0.43800852918E+02  0.63139228521E+02  0.10000000000E+01 0.  0.
<mgrwt>
<rscale>  0 0.12500759E+03</rscale>
<asrwt>0</asrwt>
<pdfrwt beam="1">  1        4 0.52401781E-01 0.12500759E+03</pdfrwt>
<pdfrwt beam="2">  1       -4 0.17645745E-02 0.12500759E+03</pdfrwt>
<totfact> 0.69484522E+03</totfact>
</mgrwt>
</event>
<event>
 5    1  0.3259432E-002  0.1249990E+03  0.7818608E-02  0.1235071E+00
         -4   -1    0    0    0  501 -0.00000000000E+00  0.00000000000E+00  0.32133237016E+03  0.32133487986E+03  0.12700000000E+01 0.  1.
          4   -1    0    0  501    0  0.00000000000E+00 -0.00000000000E+00 -0.12120486205E+02  0.12186840683E+02  0.12700000000E+01 0.  1.
         25    2    1    2    0    0  0.00000000000E+00  0.00000000000E+00  0.30921188396E+03  0.33352172054E+03  0.12499899557E+03 0.  0.
    9000005    1    3    3    0    0  0.50163976261E+01  0.53276653817E+02  0.24071968986E+03  0.24659792208E+03  0.10000000000E+01 0.  0.
    9000005    1    3    3    0    0 -0.50163976261E+01 -0.53276653817E+02  0.68492194096E+02  0.86923798463E+02  0.10000000000E+01 0.  0.
<mgrwt>
<rscale>  0 0.12499900E+03</rscale>
<asrwt>0</asrwt>
<pdfrwt beam="2">  1        4 0.18699873E-02 0.12499900E+03</pdfrwt>
<pdfrwt beam="1">  1       -4 0.49441049E-01 0.12499900E+03</pdfrwt>
<totfact> 0.71577829E+03</totfact>
</mgrwt>
</event>
<event>
 5    1  0.3259432E-002  0.1250012E+03  0.7818608E-02  0.1235067E+00
         -4   -1    0    0    0  501 -0.00000000000E+00  0.00000000000E+00  0.27117408466E+03  0.27117705856E+03  0.12700000000E+01 0. -1.
          4   -1    0    0  501    0  0.00000000000E+00 -0.00000000000E+00 -0.14374174027E+02  0.14430169055E+02  0.12700000000E+01 0. -1.
         25    2    1    2    0    0  0.00000000000E+00  0.00000000000E+00  0.25679991063E+03  0.28560722762E+03  0.12500117746E+03 0.  0.
    9000005    1    3    3    0    0  0.22625137982E+02 -0.54125241589E+02  0.17761073309E+03  0.18705082506E+03  0.10000000000E+01 0.  0.
    9000005    1    3    3    0    0 -0.22625137982E+02  0.54125241589E+02  0.79189177544E+02  0.98556402561E+02  0.10000000000E+01 0.  0.
<mgrwt>
<rscale>  0 0.12500118E+03</rscale>
<asrwt>0</asrwt>
<pdfrwt beam="2">  1        4 0.22159475E-02 0.12500118E+03</pdfrwt>
<pdfrwt beam="1">  1       -4 0.41723625E-01 0.12500118E+03</pdfrwt>
<totfact> 0.77438428E+03</totfact>
</mgrwt>
</event>
<event>
 5    1  0.3259432E-002  0.1250229E+03  0.7818608E-02  0.1235033E+00
         -4   -1    0    0    0  501 -0.00000000000E+00  0.00000000000E+00  0.18730344613E+02  0.18773351041E+02  0.12700000000E+01 0.  1.
          4   -1    0    0  501    0  0.00000000000E+00 -0.00000000000E+00 -0.20834434425E+03  0.20834821497E+03  0.12700000000E+01 0.  1.
         25    2    1    2    0    0  0.00000000000E+00  0.00000000000E+00 -0.18961399964E+03  0.22712156601E+03  0.12502294545E+03 0.  0.
    9000005    1    3    3    0    0  0.40497470839E+02  0.11552120676E+02 -0.17871109753E+03  0.18360869538E+03  0.10000000000E+01 0.  0.
    9000005    1    3    3    0    0 -0.40497470839E+02 -0.11552120676E+02 -0.10902902104E+02  0.43512870633E+02  0.10000000000E+01 0.  0.
<mgrwt>
<rscale>  0 0.12502295E+03</rscale>
<asrwt>0</asrwt>
<pdfrwt beam="2">  1        4 0.32056580E-01 0.12502295E+03</pdfrwt>
<pdfrwt beam="1">  1       -4 0.28851976E-02 0.12502295E+03</pdfrwt>
<totfact> 0.85709655E+03</totfact>
</mgrwt>
</event>
<event>
 5    1  0.3259432E-002  0.1250182E+03  0.7818608E-02  0.1235041E+00
         -4   -1    0    0    0  501 -0.00000000000E+00  0.00000000000E+00  0.23602715720E+03  0.23603057395E+03  0.12700000000E+01 0. -1.
          4   -1    0    0  501    0  0.00000000000E+00 -0.00000000000E+00 -0.16526934583E+02  0.16575658862E+02  0.12700000000E+01 0. -1.
         25    2    1    2    0    0  0.00000000000E+00  0.00000000000E+00  0.21950022262E+03  0.25260623281E+03  0.12501824316E+03 0.  0.
    9000005    1    3    3    0    0 -0.49485719521E+02 -0.19803870572E+02  0.17570074562E+03  0.18361040749E+03  0.10000000000E+01 0.  0.
    9000005    1    3    3    0    0  0.49485719521E+02  0.19803870572E+02  0.43799476999E+02  0.68995825320E+02  0.10000000000E+01 0.  0.
<mgrwt>
<rscale>  0 0.12501824E+03</rscale>
<asrwt>0</asrwt>
<pdfrwt beam="2">  1        4 0.25466163E-02 0.12501824E+03</pdfrwt>
<pdfrwt beam="1">  1       -4 0.36315879E-01 0.12501824E+03</pdfrwt>
<totfact> 0.81921710E+03</totfact>
</mgrwt>
</event>
<event>
 5    1  0.3259432E-002  0.1250025E+03  0.7818608E-02  0.1235065E+00
          4   -1    0    0  501    0  0.00000000000E+00  0.00000000000E+00  0.25527498325E+02  0.25559070224E+02  0.12700000000E+01 0.  1.
         -4   -1    0    0    0  501 -0.00000000000E+00 -0.00000000000E+00 -0.15289864064E+03  0.15290391496E+03  0.12700000000E+01 0.  1.
         25    2    1    2    0    0  0.00000000000E+00  0.00000000000E+00 -0.12737114232E+03  0.17846298518E+03  0.12500251672E+03 0.  0.
    9000005    1    3    3    0    0 -0.42046443620E+02 -0.22503301129E+02 -0.60261341478E+01  0.48079270747E+02  0.10000000000E+01 0.  0.
    9000005    1    3    3    0    0  0.42046443620E+02  0.22503301129E+02 -0.12134500817E+03  0.13038371444E+03  0.10000000000E+01 0.  0.
<mgrwt>
<rscale>  0 0.12500252E+03</rscale>
<asrwt>0</asrwt>
<pdfrwt beam="1">  1        4 0.39301419E-02 0.12500252E+03</pdfrwt>
<pdfrwt beam="2">  1       -4 0.23525702E-01 0.12500252E+03</pdfrwt>
<totfact> 0.93889106E+03</totfact>
</mgrwt>
</event>
<event>
 5    1  0.3259432E-002  0.1249892E+03  0.7818608E-02  0.1235086E+00
         -4   -1    0    0    0  501 -0.00000000000E+00  0.00000000000E+00  0.61176471091E+02  0.61189652027E+02  0.12700000000E+01 0.  1.
          4   -1    0    0  501    0  0.00000000000E+00 -0.00000000000E+00 -0.63814786458E+02  0.63827422561E+02  0.12700000000E+01 0.  1.
         25    2    1    2    0    0  0.00000000000E+00  0.00000000000E+00 -0.26383153671E+01  0.12501707459E+03  0.12498923246E+03 0.  0.
    9000005    1    3    3    0    0 -0.62226419080E+02  0.56959734850E+01 -0.13947533988E+01  0.62510132639E+02  0.10000000000E+01 0.  0.
    9000005    1    3    3    0    0  0.62226419080E+02 -0.56959734850E+01 -0.12435619683E+01  0.62506941949E+02  0.10000000000E+01 0.  0.
<mgrwt>
<rscale>  0 0.12498923E+03</rscale>
<asrwt>0</asrwt>
<pdfrwt beam="2">  1        4 0.98196454E-02 0.12498923E+03</pdfrwt>
<pdfrwt beam="1">  1       -4 0.94137507E-02 0.12498923E+03</pdfrwt>
<totfact> 0.10455036E+04</totfact>
</mgrwt>
</event>
<event>
 5    1  0.3259432E-002  0.1250002E+03  0.7818608E-02  0.1235069E+00
         -4   -1    0    0    0  501 -0.00000000000E+00  0.00000000000E+00  0.58235034829E+02  0.58248881375E+02  0.12700000000E+01 0. -1.
          4   -1    0    0  501    0  0.00000000000E+00 -0.00000000000E+00 -0.67049729527E+02  0.67061756089E+02  0.12700000000E+01 0. -1.
         25    2    1    2    0    0  0.00000000000E+00  0.00000000000E+00 -0.88146946986E+01  0.12531063746E+03  0.12500022808E+03 0.  0.
    9000005    1    3    3    0    0  0.12104222292E+01  0.49852254179E+02  0.33349849713E+02  0.59999373702E+02  0.10000000000E+01 0.  0.
    9000005    1    3    3    0    0 -0.12104222292E+01 -0.49852254179E+02 -0.42164544412E+02  0.65311263762E+02  0.10000000000E+01 0.  0.
<mgrwt>
<rscale>  0 0.12500023E+03</rscale>
<asrwt>0</asrwt>
<pdfrwt beam="2">  1        4 0.10317333E-01 0.12500023E+03</pdfrwt>
<pdfrwt beam="1">  1       -4 0.89612264E-02 0.12500023E+03</pdfrwt>
<totfact> 0.10446065E+04</totfact>
</mgrwt>
</event>
<event>
 5    1  0.3259432E-002  0.1250063E+03  0.7818608E-02  0.1235059E+00
          4   -1    0    0  501    0  0.00000000000E+00  0.00000000000E+00  0.53402708318E+02  0.53417807477E+02  0.12700000000E+01 0. -1.
         -4   -1    0    0    0  501 -0.00000000000E+00 -0.00000000000E+00 -0.73123474660E+02  0.73134502435E+02  0.12700000000E+01 0. -1.
         25    2    1    2    0    0  0.00000000000E+00  0.00000000000E+00 -0.19720766342E+02  0.12655230991E+03  0.12500631392E+03 0.  0.
    9000005    1    3    3    0    0  0.35683634908E+02  0.51089177532E+02 -0.50884085963E+01  0.62532533637E+02  0.10000000000E+01 0.  0.
    9000005    1    3    3    0    0 -0.35683634908E+02 -0.51089177532E+02 -0.14632357746E+02  0.64019776275E+02  0.10000000000E+01 0.  0.
<mgrwt>
<rscale>  0 0.12500631E+03</rscale>
<asrwt>0</asrwt>
<pdfrwt beam="1">  1        4 0.82178110E-02 0.12500631E+03</pdfrwt>
<pdfrwt beam="2">  1       -4 0.11251775E-01 0.12500631E+03</pdfrwt>
<totfact> 0.10417403E+04</totfact>
</mgrwt>
</event>
<event>
 5    1  0.3259432E-002  0.1249964E+03  0.7818608E-02  0.1235075E+00
          4   -1    0    0  501    0  0.00000000000E+00  0.00000000000E+00  0.33504503111E+02  0.33528564370E+02  0.12700000000E+01 0.  1.
         -4   -1    0    0    0  501 -0.00000000000E+00 -0.00000000000E+00 -0.11651279426E+03  0.11651971562E+03  0.12700000000E+01 0.  1.
         25    2    1    2    0    0  0.00000000000E+00  0.00000000000E+00 -0.83008291153E+02  0.15004827999E+03  0.12499643966E+03 0.  0.
    9000005    1    3    3    0    0 -0.15938212418E+01 -0.37495413695E+02  0.18475821576E+02  0.41842589514E+02  0.10000000000E+01 0.  0.
    9000005    1    3    3    0    0  0.15938212418E+01  0.37495413695E+02 -0.10148411273E+03  0.10820569047E+03  0.10000000000E+01 0.  0.
<mgrwt>
<rscale>  0 0.12499644E+03</rscale>
<asrwt>0</asrwt>
<pdfrwt beam="1">  1        4 0.51569223E-02 0.12499644E+03</pdfrwt>
<pdfrwt beam="2">  1       -4 0.17927428E-01 0.12499644E+03</pdfrwt>
<totfact> 0.99302032E+03</totfact>
</mgrwt>
</event>
<event>
 5    1  0.3259432E-002  0.1250064E+03  0.7818608E-02  0.1235059E+00
          4   -1    0    0  501    0  0.00000000000E+00  0.00000000000E+00  0.12280846596E+04  0.12280853162E+04  0.12700000000E+01 0.  1.
         -4   -1    0    0    0  501 -0.00000000000E+00 -0.00000000000E+00 -0.30536486904E+01  0.33072148894E+01  0.12700000000E+01 0.  1.
         25    2    1    2    0    0  0.00000000000E+00  0.00000000000E+00  0.12250310109E+04  0.12313925311E+04  0.12500635228E+03 0.  0.
    9000005    1    3    3    0    0  0.36175938988E+02  0.11091562993E+02  0.11024722703E+04  0.11031218555E+04  0.10000000000E+01 0.  0.
    9000005    1    3    3    0    0 -0.36175938988E+02 -0.11091562993E+02  0.12255874059E+03  0.12827067563E+03  0.10000000000E+01 0.  0.
<mgrwt>
<rscale>  0 0.12500635E+03</rscale>
<asrwt>0</asrwt>
<pdfrwt beam="1">  1        4 0.18895617E+00 0.12500635E+03</pdfrwt>
<pdfrwt beam="2">  1       -4 0.48934639E-03 0.12500635E+03</pdfrwt>
<totfact> 0.23902132E+03</totfact>
</mgrwt>
</event>
<event>
 5    1  0.3259432E-002  0.1250000E+03  0.7818608E-02  0.1235069E+00
          4   -1    0    0  501    0  0.00000000000E+00  0.00000000000E+00  0.19337094322E+02  0.19378754264E+02  0.12700000000E+01 0. -1.
         -4   -1    0    0    0  501 -0.00000000000E+00 -0.00000000000E+00 -0.20174716735E+03  0.20175116464E+03  0.12700000000E+01 0. -1.
         25    2    1    2    0    0  0.00000000000E+00  0.00000000000E+00 -0.18241007303E+03  0.22112991890E+03  0.12500002517E+03 0.  0.
    9000005    1    3    3    0    0 -0.63633418079E+01 -0.50658698919E+02 -0.15495074775E+03  0.16314879749E+03  0.10000000000E+01 0.  0.
    9000005    1    3    3    0    0  0.63633418079E+01  0.50658698919E+02 -0.27459325273E+02  0.57981121407E+02  0.10000000000E+01 0.  0.
<mgrwt>
<rscale>  0 0.12500003E+03</rscale>
<asrwt>0</asrwt>
<pdfrwt beam="1">  1        4 0.29784498E-02 0.12500003E+03</pdfrwt>
<pdfrwt beam="2">  1       -4 0.31041536E-01 0.12500003E+03</pdfrwt>
<totfact> 0.86689822E+03</totfact>
</mgrwt>
</event>
<event>
 5    1  0.3259432E-002  0.1250009E+03  0.7818608E-02  0.1235068E+00
          4   -1    0    0  501    0  0.00000000000E+00  0.00000000000E+00  0.18333479611E+02  0.18377414798E+02  0.12700000000E+01 0. -1.
         -4   -1    0    0    0  501 -0.00000000000E+00 -0.00000000000E+00 -0.21276887873E+03  0.21277266896E+03  0.12700000000E+01 0. -1.
         25    2    1    2    0    0  0.00000000000E+00  0.00000000000E+00 -0.19443539912E+03  0.23115008376E+03  0.12500094716E+03 0.  0.
    9000005    1    3    3    0    0  0.26210154200E+02  0.42586371730E+02 -0.16652490856E+03  0.17387385201E+03  0.10000000000E+01 0.  0.
    9000005    1    3    3    0    0 -0.26210154200E+02 -0.42586371730E+02 -0.27910490558E+02  0.57276231750E+02  0.10000000000E+01 0.  0.
<mgrwt>
<rscale>  0 0.12500095E+03</rscale>
<asrwt>0</asrwt>
<pdfrwt beam="1">  1        4 0.28242067E-02 0.12500095E+03</pdfrwt>
<pdfrwt beam="2">  1       -4 0.32737343E-01 0.12500095E+03</pdfrwt>
<totfact> 0.85131515E+03</totfact>
</mgrwt>
</event>
<event>
 5    1  0.3259432E-002  0.1249957E+03  0.7818608E-02  0.1235076E+00
          4   -1    0    0  501    0  0.00000000000E+00  0.00000000000E+00  0.11350571292E+03  0.11351281762E+03  0.12700000000E+01 0. -1.
         -4   -1    0    0    0  501 -0.00000000000E+00 -0.00000000000E+00 -0.34392275899E+02  0.34415716490E+02  0.12700000000E+01 0. -1.
         25    2    1    2    0    0  0.00000000000E+00  0.00000000000E+00  0.79113437017E+02  0.14792853411E+03  0.12499566108E+03 0.  0.
    9000005    1    3    3    0    0 -0.44228147835E+02 -0.43884121211E+02  0.45236590574E+02  0.77001910900E+02  0.10000000000E+01 0.  0.
    9000005    1    3    3    0    0  0.44228147835E+02  0.43884121211E+02  0.33876846442E+02  0.70926623212E+02  0.10000000000E+01 0.  0.
<mgrwt>
<rscale>  0 0.12499566E+03</rscale>
<asrwt>0</asrwt>
<pdfrwt beam="1">  1        4 0.17464767E-01 0.12499566E+03</pdfrwt>
<pdfrwt beam="2">  1       -4 0.52934690E-02 0.12499566E+03</pdfrwt>
<totfact> 0.99727968E+03</totfact>
</mgrwt>
</event>
<event>
 5    1  0.3259432E-002  0.1250036E+03  0.7818608E-02  0.1235064E+00
         -4   -1    0    0    0  501 -0.00000000000E+00  0.00000000000E+00  0.18550000437E+02  0.18593424005E+02  0.12700000000E+01 0. -1.
          4   -1    0    0  501    0  0.00000000000E+00 -0.00000000000E+00 -0.21030009848E+03  0.21030393320E+03  0.12700000000E+01 0. -1.
         25    2    1    2    0    0  0.00000000000E+00  0.00000000000E+00 -0.19175009804E+03  0.22889735721E+03  0.12500360010E+03 0.  0.
    9000005    1    3    3    0    0 -0.23644750359E+02  0.38686367407E+02 -0.17462977531E+03  0.18042246997E+03  0.10000000000E+01 0.  0.
    9000005    1    3    3    0    0  0.23644750359E+02 -0.38686367407E+02 -0.17120322728E+02  0.48474887241E+02  0.10000000000E+01 0.  0.
<mgrwt>
<rscale>  0 0.12500360E+03</rscale>
<asrwt>0</asrwt>
<pdfrwt beam="2">  1        4 0.32357495E-01 0.12500360E+03</pdfrwt>
<pdfrwt beam="1">  1       -4 0.28574816E-02 0.12500360E+03</pdfrwt>
<totfact> 0.85472331E+03</totfact>
</mgrwt>
</event>
<event>
 5    1  0.3259432E-002  0.1249754E+03  0.7818608E-02  0.1235108E+00
          4   -1    0    0  501    0  0.00000000000E+00  0.00000000000E+00  0.42246063338E+02  0.42265148379E+02  0.12700000000E+01 0. -1.
         -4   -1    0    0    0  501 -0.00000000000E+00 -0.00000000000E+00 -0.92383573429E+02  0.92392302382E+02  0.12700000000E+01 0. -1.
         25    2    1    2    0    0  0.00000000000E+00  0.00000000000E+00 -0.50137510091E+02  0.13465745076E+03  0.12497543410E+03 0.  0.
    9000005    1    3    3    0    0  0.25923432541E+02  0.14204903313E+02  0.34240255824E+02  0.45245980504E+02  0.10000000000E+01 0.  0.
    9000005    1    3    3    0    0 -0.25923432541E+02 -0.14204903313E+02 -0.84377765915E+02  0.89411470258E+02  0.10000000000E+01 0.  0.
<mgrwt>
<rscale>  0 0.12497543E+03</rscale>
<asrwt>0</asrwt>
<pdfrwt beam="1">  1        4 0.65015339E-02 0.12497543E+03</pdfrwt>
<pdfrwt beam="2">  1       -4 0.14214997E-01 0.12497543E+03</pdfrwt>
<totfact> 0.10250974E+04</totfact>
</mgrwt>
</event>
<event>
 5    1  0.3259432E-002  0.1249964E+03  0.7818608E-02  0.1235075E+00
          4   -1    0    0  501    0  0.00000000000E+00  0.00000000000E+00  0.31750667732E+03  0.31750921726E+03  0.12700000000E+01 0. -1.
         -4   -1    0    0    0  501 -0.00000000000E+00 -0.00000000000E+00 -0.12266818742E+02  0.12332385902E+02  0.12700000000E+01 0. -1.
         25    2    1    2    0    0  0.00000000000E+00  0.00000000000E+00  0.30523985858E+03  0.32984160316E+03  0.12499644759E+03 0.  0.
    9000005    1    3    3    0    0 -0.22334785879E+02  0.54943215075E+02  0.10067974241E+03  0.11685465363E+03  0.10000000000E+01 0.  0.
    9000005    1    3    3    0    0  0.22334785879E+02 -0.54943215075E+02  0.20456011617E+03  0.21298694953E+03  0.10000000000E+01 0.  0.
<mgrwt>
<rscale>  0 0.12499645E+03</rscale>
<asrwt>0</asrwt>
<pdfrwt beam="1">  1        4 0.48852422E-01 0.12499645E+03</pdfrwt>
<pdfrwt beam="2">  1       -4 0.18924418E-02 0.12499645E+03</pdfrwt>
<totfact> 0.72006351E+03</totfact>
</mgrwt>
</event>
<event>
 5    1  0.3259432E-002  0.1250082E+03  0.7818608E-02  0.1235056E+00
         -4   -1    0    0    0  501 -0.00000000000E+00  0.00000000000E+00  0.20425070584E+02  0.20464515835E+02  0.12700000000E+01 0.  1.
          4   -1    0    0  501    0  0.00000000000E+00 -0.00000000000E+00 -0.19104691051E+03  0.19105113168E+03  0.12700000000E+01 0.  1.
         25    2    1    2    0    0  0.00000000000E+00  0.00000000000E+00 -0.17062183992E+03  0.21151564751E+03  0.12500822726E+03 0.  0.
    9000005    1    3    3    0    0  0.61437787274E+02 -0.10398484153E+02 -0.77190303653E+02  0.99207223305E+02  0.10000000000E+01 0.  0.
    9000005    1    3    3    0    0 -0.61437787274E+02  0.10398484153E+02 -0.93431536270E+02  0.11230842421E+03  0.10000000000E+01 0.  0.
<mgrwt>
<rscale>  0 0.12500823E+03</rscale>
<asrwt>0</asrwt>
<pdfrwt beam="2">  1        4 0.29395190E-01 0.12500823E+03</pdfrwt>
<pdfrwt beam="1">  1       -4 0.31456776E-02 0.12500823E+03</pdfrwt>
<totfact> 0.88212729E+03</totfact>
</mgrwt>
</event>
<event>
 5    1  0.3259432E-002  0.1249993E+03  0.7818608E-02  0.1235070E+00
          4   -1    0    0  501    0  0.00000000000E+00  0.00000000000E+00  0.59519538682E+02  0.59533086472E+02  0.12700000000E+01 0. -1.
         -4   -1    0    0    0  501 -0.00000000000E+00 -0.00000000000E+00 -0.65601814606E+02  0.65614106559E+02  0.12700000000E+01 0. -1.
         25    2    1    2    0    0  0.00000000000E+00  0.00000000000E+00 -0.60822759237E+01  0.12514719303E+03  0.12499930337E+03 0.  0.
    9000005    1    3    3    0    0 -0.48539259102E+02 -0.38876308344E+02  0.31126319877E+01  0.62274517280E+02  0.10000000000E+01 0.  0.
    9000005    1    3    3    0    0  0.48539259102E+02  0.38876308344E+02 -0.91949079114E+01  0.62872675751E+02  0.10000000000E+01 0.  0.
<mgrwt>
<rscale>  0 0.12499930E+03</rscale>
<asrwt>0</asrwt>
<pdfrwt beam="1">  1        4 0.91588397E-02 0.12499930E+03</pdfrwt>
<pdfrwt beam="2">  1       -4 0.10094575E-01 0.12499930E+03</pdfrwt>
<totfact> 0.10449831E+04</totfact>
</mgrwt>
</event>
<event>
 5    1  0.3259432E-002  0.1249989E+03  0.7818608E-02  0.1235071E+00
         -4   -1    0    0    0  501 -0.00000000000E+00  0.00000000000E+00  0.68626203772E+03  0.68626321285E+03  0.12700000000E+01 0. -1.
          4   -1    0    0  501    0  0.00000000000E+00 -0.00000000000E+00 -0.56199280289E+01  0.57616396148E+01  0.12700000000E+01 0. -1.
         25    2    1    2    0    0  0.00000000000E+00  0.00000000000E+00  0.68064210969E+03  0.69202485246E+03  0.12499885979E+03 0.  0.
    9000005    1    3    3    0    0  0.30100806395E+02 -0.52064191702E+02  0.43434608561E+03  0.43849089009E+03  0.10000000000E+01 0.  0.
    9000005    1    3    3    0    0 -0.30100806395E+02  0.52064191702E+02  0.24629602408E+03  0.25353396238E+03  0.10000000000E+01 0.  0.
<mgrwt>
<rscale>  0 0.12499886E+03</rscale>
<asrwt>0</asrwt>
<pdfrwt beam="2">  1        4 0.87559554E-03 0.12499886E+03</pdfrwt>
<pdfrwt beam="1">  1       -4 0.10558977E+00 0.12499886E+03</pdfrwt>
<totfact> 0.43512125E+03</totfact>
</mgrwt>
</event>
<event>
 5    1  0.3259432E-002  0.1250029E+03  0.7818608E-02  0.1235065E+00
         -4   -1    0    0    0  501 -0.00000000000E+00  0.00000000000E+00  0.57227924431E+02  0.57242014594E+02  0.12700000000E+01 0. -1.
          4   -1    0    0  501    0  0.00000000000E+00 -0.00000000000E+00 -0.68232517556E+02  0.68244335677E+02  0.12700000000E+01 0. -1.
         25    2    1    2    0    0  0.00000000000E+00  0.00000000000E+00 -0.11004593124E+02  0.12548635027E+03  0.12500289210E+03 0.  0.
    9000005    1    3    3    0    0 -0.58118978331E+02 -0.84042363070E+01  0.15957563738E+02  0.60861241119E+02  0.10000000000E+01 0.  0.
    9000005    1    3    3    0    0  0.58118978331E+02  0.84042363070E+01 -0.26962156862E+02  0.64625109151E+02  0.10000000000E+01 0.  0.
<mgrwt>
<rscale>  0 0.12500289E+03</rscale>
<asrwt>0</asrwt>
<pdfrwt beam="2">  1        4 0.10499303E-01 0.12500289E+03</pdfrwt>
<pdfrwt beam="1">  1       -4 0.88062891E-02 0.12500289E+03</pdfrwt>
<totfact> 0.10441575E+04</totfact>
</mgrwt>
</event>
<event>
 5    1  0.3259432E-002  0.1249924E+03  0.7818608E-02  0.1235081E+00
          4   -1    0    0  501    0  0.00000000000E+00  0.00000000000E+00  0.44616091064E+02  0.44634162721E+02  0.12700000000E+01 0. -1.
         -4   -1    0    0    0  501 -0.00000000000E+00 -0.00000000000E+00 -0.87501386797E+02  0.87510602737E+02  0.12700000000E+01 0. -1.
         25    2    1    2    0    0  0.00000000000E+00  0.00000000000E+00 -0.42885295734E+02  0.13214476546E+03  0.12499236156E+03 0.  0.
    9000005    1    3    3    0    0 -0.51760059831E+02 -0.11192857974E+02 -0.56512954370E+02  0.77453843513E+02  0.10000000000E+01 0.  0.
    9000005    1    3    3    0    0  0.51760059831E+02  0.11192857974E+02  0.13627658637E+02  0.54690921945E+02  0.10000000000E+01 0.  0.
<mgrwt>
<rscale>  0 0.12499236E+03</rscale>
<asrwt>0</asrwt>
<pdfrwt beam="1">  1        4 0.68661131E-02 0.12499236E+03</pdfrwt>
<pdfrwt beam="2">  1       -4 0.13463851E-01 0.12499236E+03</pdfrwt>
<totfact> 0.10300384E+04</totfact>
</mgrwt>
</event>
<event>
 5    1  0.3259432E-002  0.1250122E+03  0.7818608E-02  0.1235050E+00
         -4   -1    0    0    0  501 -0.00000000000E+00  0.00000000000E+00  0.87822546539E+01  0.88736067529E+01  0.12700000000E+01 0. -1.
          4   -1    0    0  501    0  0.00000000000E+00 -0.00000000000E+00 -0.44248173821E+03  0.44248356077E+03  0.12700000000E+01 0. -1.
         25    2    1    2    0    0  0.00000000000E+00  0.00000000000E+00 -0.43369948356E+03  0.45135716752E+03  0.12501220194E+03 0.  0.
    9000005    1    3    3    0    0 -0.21401799470E+02  0.43741207198E+02 -0.75408129145E+02  0.89770352394E+02  0.10000000000E+01 0.  0.
    9000005    1    3    3    0    0  0.21401799470E+02 -0.43741207198E+02 -0.35829135441E+03  0.36158681513E+03  0.10000000000E+01 0.  0.
<mgrwt>
<rscale>  0 0.12501220E+03</rscale>
<asrwt>0</asrwt>
<pdfrwt beam="2">  1        4 0.68081264E-01 0.12501220E+03</pdfrwt>
<pdfrwt beam="1">  1       -4 0.13582837E-02 0.12501220E+03</pdfrwt>
<totfact> 0.59830330E+03</totfact>
</mgrwt>
</event>
<event>
 5    1  0.3259432E-002  0.1249985E+03  0.7818608E-02  0.1235072E+00
         -4   -1    0    0    0  501 -0.00000000000E+00  0.00000000000E+00  0.53155092473E+02  0.53170261950E+02  0.12700000000E+01 0. -1.
          4   -1    0    0  501    0  0.00000000000E+00 -0.00000000000E+00 -0.73454874124E+02  0.73465852153E+02  0.12700000000E+01 0. -1.
         25    2    1    2    0    0  0.00000000000E+00  0.00000000000E+00 -0.20299781651E+02  0.12663611410E+03  0.12499849703E+03 0.  0.
    9000005    1    3    3    0    0 -0.53207368304E+02 -0.11957227597E+02  0.20764748066E+02  0.58362437371E+02  0.10000000000E+01 0.  0.
    9000005    1    3    3    0    0  0.53207368304E+02  0.11957227597E+02 -0.41064529717E+02  0.68273676732E+02  0.10000000000E+01 0.  0.
<mgrwt>
<rscale>  0 0.12499850E+03</rscale>
<asrwt>0</asrwt>
<pdfrwt beam="2">  1        4 0.11302761E-01 0.12499850E+03</pdfrwt>
<pdfrwt beam="1">  1       -4 0.81797179E-02 0.12499850E+03</pdfrwt>
<totfact> 0.10417415E+04</totfact>
</mgrwt>
</event>
<event>
 5    1  0.3259432E-002  0.1250083E+03  0.7818608E-02  0.1235056E+00
         -4   -1    0    0    0  501 -0.00000000000E+00  0.00000000000E+00  0.15249507345E+02  0.15302299639E+02  0.12700000000E+01 0. -1.
          4   -1    0    0  501    0  0.00000000000E+00 -0.00000000000E+00 -0.25569273598E+03  0.25569588994E+03  0.12700000000E+01 0. -1.
         25    2    1    2    0    0  0.00000000000E+00  0.00000000000E+00 -0.24044322863E+03  0.27099818958E+03  0.12500828996E+03 0.  0.
    9000005    1    3    3    0    0 -0.34863266822E+02  0.27783059056E+02 -0.25270581494E+02  0.51253761160E+02  0.10000000000E+01 0.  0.
    9000005    1    3    3    0    0  0.34863266822E+02 -0.27783059056E+02 -0.21517264714E+03  0.21974442842E+03  0.10000000000E+01 0.  0.
<mgrwt>
<rscale>  0 0.12500829E+03</rscale>
<asrwt>0</asrwt>
<pdfrwt beam="2">  1        4 0.39341644E-01 0.12500829E+03</pdfrwt>
<pdfrwt beam="1">  1       -4 0.23503818E-02 0.12500829E+03</pdfrwt>
<totfact> 0.79372339E+03</totfact>
</mgrwt>
</event>
<event>
 5    1  0.3259432E-002  0.1249959E+03  0.7818608E-02  0.1235076E+00
         -4   -1    0    0    0  501 -0.00000000000E+00  0.00000000000E+00  0.97139264576E+02  0.97147566219E+02  0.12700000000E+01 0. -1.
          4   -1    0    0  501    0  0.00000000000E+00 -0.00000000000E+00 -0.40190170745E+02  0.40210231590E+02  0.12700000000E+01 0. -1.
         25    2    1    2    0    0  0.00000000000E+00  0.00000000000E+00  0.56949093831E+02  0.13735779781E+03  0.12499586125E+03 0.  0.
    9000005    1    3    3    0    0  0.55707808316E+02 -0.19499364823E+02  0.51032939213E+02  0.78031698819E+02  0.10000000000E+01 0.  0.
    9000005    1    3    3    0    0 -0.55707808316E+02  0.19499364823E+02  0.59161546180E+01  0.59326098990E+02  0.10000000000E+01 0.  0.
<mgrwt>
<rscale>  0 0.12499586E+03</rscale>
<asrwt>0</asrwt>
<pdfrwt beam="2">  1        4 0.61852850E-02 0.12499586E+03</pdfrwt>
<pdfrwt beam="1">  1       -4 0.14946684E-01 0.12499586E+03</pdfrwt>
<totfact> 0.10189561E+04</totfact>
</mgrwt>
</event>
<event>
 5    1  0.3259432E-002  0.1250003E+03  0.7818608E-02  0.1235069E+00
          4   -1    0    0  501    0  0.00000000000E+00  0.00000000000E+00  0.47724090107E+02  0.47740985291E+02  0.12700000000E+01 0. -1.
         -4   -1    0    0    0  501 -0.00000000000E+00 -0.00000000000E+00 -0.81814784952E+02  0.81824641378E+02  0.12700000000E+01 0. -1.
         25    2    1    2    0    0  0.00000000000E+00  0.00000000000E+00 -0.34090694845E+02  0.12956562667E+03  0.12500030456E+03 0.  0.
    9000005    1    3    3    0    0 -0.40512715082E+02 -0.44691338862E+02 -0.33971895553E+02  0.69236446616E+02  0.10000000000E+01 0.  0.
    9000005    1    3    3    0    0  0.40512715082E+02  0.44691338862E+02 -0.11879929242E+00  0.60329180053E+02  0.10000000000E+01 0.  0.
<mgrwt>
<rscale>  0 0.12500030E+03</rscale>
<asrwt>0</asrwt>
<pdfrwt beam="1">  1        4 0.73442256E-02 0.12500030E+03</pdfrwt>
<pdfrwt beam="2">  1       -4 0.12588948E-01 0.12500030E+03</pdfrwt>
<totfact> 0.10353737E+04</totfact>
</mgrwt>
</event>
<event>
 5    1  0.3259432E-002  0.1249972E+03  0.7818608E-02  0.1235074E+00
          4   -1    0    0  501    0  0.00000000000E+00  0.00000000000E+00  0.68164657561E+02  0.68176487445E+02  0.12700000000E+01 0.  1.
         -4   -1    0    0    0  501 -0.00000000000E+00 -0.00000000000E+00 -0.57279686057E+02  0.57293763489E+02  0.12700000000E+01 0.  1.
         25    2    1    2    0    0  0.00000000000E+00  0.00000000000E+00  0.10884971504E+02  0.12547025093E+03  0.12499720503E+03 0.  0.
    9000005    1    3    3    0    0  0.10862029800E+02  0.47186882834E+02 -0.34210045808E+02  0.59295133335E+02  0.10000000000E+01 0.  0.
    9000005    1    3    3    0    0 -0.10862029800E+02 -0.47186882834E+02  0.45095017312E+02  0.66175117600E+02  0.10000000000E+01 0.  0.
<mgrwt>
<rscale>  0 0.12499721E+03</rscale>
<asrwt>0</asrwt>
<pdfrwt beam="1">  1        4 0.10488863E-01 0.12499721E+03</pdfrwt>
<pdfrwt beam="2">  1       -4 0.88142522E-02 0.12499721E+03</pdfrwt>
<totfact> 0.10443270E+04</totfact>
</mgrwt>
</event>
<event>
 5    1  0.3259432E-002  0.1250008E+03  0.7818608E-02  0.1235068E+00
          4   -1    0    0  501    0  0.00000000000E+00  0.00000000000E+00  0.14189066377E+03  0.14189634726E+03  0.12700000000E+01 0. -1.
         -4   -1    0    0    0  501 -0.00000000000E+00 -0.00000000000E+00 -0.27509453180E+02  0.27538752954E+02  0.12700000000E+01 0. -1.
         25    2    1    2    0    0  0.00000000000E+00  0.00000000000E+00  0.11438121059E+03  0.16943510022E+03  0.12500076739E+03 0.  0.
    9000005    1    3    3    0    0  0.21123291477E+01  0.90977231520E+01  0.14094594482E+03  0.14125859217E+03  0.10000000000E+01 0.  0.
    9000005    1    3    3    0    0 -0.21123291477E+01 -0.90977231520E+01 -0.26564734227E+02  0.28176508044E+02  0.10000000000E+01 0.  0.
<mgrwt>
<rscale>  0 0.12500077E+03</rscale>
<asrwt>0</asrwt>
<pdfrwt beam="1">  1        4 0.21832024E-01 0.12500077E+03</pdfrwt>
<pdfrwt beam="2">  1       -4 0.42349145E-02 0.12500077E+03</pdfrwt>
<totfact> 0.95552338E+03</totfact>
</mgrwt>
</event>
<event>
 5    1  0.3259432E-002  0.1250025E+03  0.7818608E-02  0.1235065E+00
          4   -1    0    0  501    0  0.00000000000E+00  0.00000000000E+00  0.87145770124E+01  0.88066311666E+01  0.12700000000E+01 0. -1.
         -4   -1    0    0    0  501 -0.00000000000E+00 -0.00000000000E+00 -0.44581328987E+03  0.44581509881E+03  0.12700000000E+01 0. -1.
         25    2    1    2    0    0  0.00000000000E+00  0.00000000000E+00 -0.43709871286E+03  0.45462172998E+03  0.12500253031E+03 0.  0.
    9000005    1    3    3    0    0 -0.60962473366E+02  0.11223176057E+02 -0.24742215411E+03  0.25507078465E+03  0.10000000000E+01 0.  0.
    9000005    1    3    3    0    0  0.60962473366E+02 -0.11223176057E+02 -0.18967655875E+03  0.19955094533E+03  0.10000000000E+01 0.  0.
<mgrwt>
<rscale>  0 0.12500253E+03</rscale>
<asrwt>0</asrwt>
<pdfrwt beam="1">  1        4 0.13479247E-02 0.12500253E+03</pdfrwt>
<pdfrwt beam="2">  1       -4 0.68593863E-01 0.12500253E+03</pdfrwt>
<totfact> 0.59562184E+03</totfact>
</mgrwt>
</event>
<event>
 5    1  0.3259432E-002  0.1250054E+03  0.7818608E-02  0.1235061E+00
         -4   -1    0    0    0  501 -0.00000000000E+00  0.00000000000E+00  0.23983388389E+02  0.24016990207E+02  0.12700000000E+01 0.  1.
          4   -1    0    0  501    0  0.00000000000E+00 -0.00000000000E+00 -0.16273720210E+03  0.16274215756E+03  0.12700000000E+01 0.  1.
         25    2    1    2    0    0  0.00000000000E+00  0.00000000000E+00 -0.13875381371E+03  0.18675914777E+03  0.12500543371E+03 0.  0.
    9000005    1    3    3    0    0  0.79675032579E+01 -0.53663622273E+02 -0.23030754531E+02  0.58946425828E+02  0.10000000000E+01 0.  0.
    9000005    1    3    3    0    0 -0.79675032579E+01  0.53663622273E+02 -0.11572305918E+03  0.12781272194E+03  0.10000000000E+01 0.  0.
<mgrwt>
<rscale>  0 0.12500543E+03</rscale>
<asrwt>0</asrwt>
<pdfrwt beam="2">  1        4 0.25039458E-01 0.12500543E+03</pdfrwt>
<pdfrwt beam="1">  1       -4 0.36927181E-02 0.12500543E+03</pdfrwt>
<totfact> 0.92403039E+03</totfact>
</mgrwt>
</event>
<event>
 5    1  0.3259432E-002  0.1249989E+03  0.7818608E-02  0.1235071E+00
          4   -1    0    0  501    0  0.00000000000E+00  0.00000000000E+00  0.12953706133E+02  0.13015813558E+02  0.12700000000E+01 0.  1.
         -4   -1    0    0    0  501 -0.00000000000E+00 -0.00000000000E+00 -0.30076464815E+03  0.30076732947E+03  0.12700000000E+01 0.  1.
         25    2    1    2    0    0  0.00000000000E+00  0.00000000000E+00 -0.28781094202E+03  0.31378314303E+03  0.12499889001E+03 0.  0.
    9000005    1    3    3    0    0  0.31142193243E+02  0.44006326556E+02 -0.64571346403E+02  0.84124026016E+02  0.10000000000E+01 0.  0.
    9000005    1    3    3    0    0 -0.31142193243E+02 -0.44006326556E+02 -0.22323959561E+03  0.22965911701E+03  0.10000000000E+01 0.  0.
<mgrwt>
<rscale>  0 0.12499889E+03</rscale>
<asrwt>0</asrwt>
<pdfrwt beam="1">  1        4 0.19978618E-02 0.12499889E+03</pdfrwt>
<pdfrwt beam="2">  1       -4 0.46276463E-01 0.12499889E+03</pdfrwt>
<totfact> 0.73903511E+03</totfact>
</mgrwt>
</event>
<event>
 5    1  0.3259432E-002  0.1249993E+03  0.7818608E-02  0.1235070E+00
          4   -1    0    0  501    0  0.00000000000E+00  0.00000000000E+00  0.40793804911E+01  0.42724987058E+01  0.12700000000E+01 0. -1.
         -4   -1    0    0    0  501 -0.00000000000E+00 -0.00000000000E+00 -0.93521446883E+03  0.93521533115E+03  0.12700000000E+01 0. -1.
         25    2    1    2    0    0  0.00000000000E+00  0.00000000000E+00 -0.93113508834E+03  0.93948782985E+03  0.12499931881E+03 0.  0.
    9000005    1    3    3    0    0  0.30893017204E+02  0.33170912885E+02 -0.14224920472E+03  0.14930011459E+03  0.10000000000E+01 0.  0.
    9000005    1    3    3    0    0 -0.30893017204E+02 -0.33170912885E+02 -0.78888588362E+03  0.79018771526E+03  0.10000000000E+01 0.  0.
<mgrwt>
<rscale>  0 0.12499932E+03</rscale>
<asrwt>0</asrwt>
<pdfrwt beam="1">  1        4 0.64251932E-03 0.12499932E+03</pdfrwt>
<pdfrwt beam="2">  1       -4 0.14389390E+00 0.12499932E+03</pdfrwt>
<totfact> 0.32692685E+03</totfact>
</mgrwt>
</event>
<event>
 5    1  0.3259432E-002  0.1249931E+03  0.7818608E-02  0.1235080E+00
         -4   -1    0    0    0  501 -0.00000000000E+00  0.00000000000E+00  0.31438010715E+03  0.31438267235E+03  0.12700000000E+01 0.  1.
          4   -1    0    0  501    0  0.00000000000E+00 -0.00000000000E+00 -0.12388791589E+02  0.12453716595E+02  0.12700000000E+01 0.  1.
         25    2    1    2    0    0  0.00000000000E+00  0.00000000000E+00  0.30199131556E+03  0.32683638894E+03  0.12499308166E+03 0.  0.
    9000005    1    3    3    0    0  0.33477992731E+02  0.16955608711E+02  0.28164717907E+03  0.28413799842E+03  0.10000000000E+01 0.  0.
    9000005    1    3    3    0    0 -0.33477992731E+02 -0.16955608711E+02  0.20344136490E+02  0.42698390527E+02  0.10000000000E+01 0.  0.
<mgrwt>
<rscale>  0 0.12499308E+03</rscale>
<asrwt>0</asrwt>
<pdfrwt beam="2">  1        4 0.19111599E-02 0.12499308E+03</pdfrwt>
<pdfrwt beam="1">  1       -4 0.48371352E-01 0.12499308E+03</pdfrwt>
<totfact> 0.72361436E+03</totfact>
</mgrwt>
</event>
<event>
 5    1  0.3259432E-002  0.1249873E+03  0.7818608E-02  0.1235089E+00
         -4   -1    0    0    0  501 -0.00000000000E+00  0.00000000000E+00  0.85818454994E+02  0.85827851642E+02  0.12700000000E+01 0.  1.
          4   -1    0    0  501    0  0.00000000000E+00 -0.00000000000E+00 -0.45487608858E+02  0.45505334408E+02  0.12700000000E+01 0.  1.
         25    2    1    2    0    0  0.00000000000E+00  0.00000000000E+00  0.40330846136E+02  0.13133318605E+03  0.12498731379E+03 0.  0.
    9000005    1    3    3    0    0  0.12672939964E+02 -0.26191955370E+02 -0.37939855133E+02  0.47823159044E+02  0.10000000000E+01 0.  0.
    9000005    1    3    3    0    0 -0.12672939964E+02  0.26191955370E+02  0.78270701269E+02  0.83510027006E+02  0.10000000000E+01 0.  0.
<mgrwt>
<rscale>  0 0.12498731E+03</rscale>
<asrwt>0</asrwt>
<pdfrwt beam="2">  1        4 0.70001801E-02 0.12498731E+03</pdfrwt>
<pdfrwt beam="1">  1       -4 0.13204925E-01 0.12498731E+03</pdfrwt>
<totfact> 0.10318905E+04</totfact>
</mgrwt>
</event>
<event>
 5    1  0.3259432E-002  0.1250019E+03  0.7818608E-02  0.1235066E+00
         -4   -1    0    0    0  501 -0.00000000000E+00  0.00000000000E+00  0.19274290977E+03  0.19274709380E+03  0.12700000000E+01 0. -1.
          4   -1    0    0  501    0  0.00000000000E+00 -0.00000000000E+00 -0.20242955610E+02  0.20282755035E+02  0.12700000000E+01 0. -1.
         25    2    1    2    0    0  0.00000000000E+00  0.00000000000E+00  0.17249995416E+03  0.21302984884E+03  0.12500192922E+03 0.  0.
    9000005    1    3    3    0    0  0.23392697131E+02  0.24747481714E+02 -0.30500165357E+01  0.34204659494E+02  0.10000000000E+01 0.  0.
    9000005    1    3    3    0    0 -0.23392697131E+02 -0.24747481714E+02  0.17554997070E+03  0.17882518934E+03  0.10000000000E+01 0.  0.
<mgrwt>
<rscale>  0 0.12500193E+03</rscale>
<asrwt>0</asrwt>
<pdfrwt beam="2">  1        4 0.31176843E-02 0.12500193E+03</pdfrwt>
<pdfrwt beam="1">  1       -4 0.29656138E-01 0.12500193E+03</pdfrwt>
<totfact> 0.87979651E+03</totfact>
</mgrwt>
</event>
<event>
 5    1  0.3259432E-002  0.1250039E+03  0.7818608E-02  0.1235063E+00
          4   -1    0    0  501    0  0.00000000000E+00  0.00000000000E+00  0.27709169659E+02  0.27738258474E+02  0.12700000000E+01 0. -1.
         -4   -1    0    0    0  501 -0.00000000000E+00 -0.00000000000E+00 -0.14087601142E+03  0.14088173584E+03  0.12700000000E+01 0. -1.
         25    2    1    2    0    0  0.00000000000E+00  0.00000000000E+00 -0.11316684176E+03  0.16861999432E+03  0.12500387358E+03 0.  0.
    9000005    1    3    3    0    0  0.38212657426E+01  0.61012646309E+02 -0.74085446565E+02  0.96056225588E+02  0.10000000000E+01 0.  0.
    9000005    1    3    3    0    0 -0.38212657426E+01 -0.61012646309E+02 -0.39081395198E+02  0.72563768728E+02  0.10000000000E+01 0.  0.
<mgrwt>
<rscale>  0 0.12500387E+03</rscale>
<asrwt>0</asrwt>
<pdfrwt beam="1">  1        4 0.42656272E-02 0.12500387E+03</pdfrwt>
<pdfrwt beam="2">  1       -4 0.21675910E-01 0.12500387E+03</pdfrwt>
<totfact> 0.95697857E+03</totfact>
</mgrwt>
</event>
<event>
 5    1  0.3259432E-002  0.1250053E+03  0.7818608E-02  0.1235061E+00
         -4   -1    0    0    0  501 -0.00000000000E+00  0.00000000000E+00  0.64849954971E+01  0.66081817921E+01  0.12700000000E+01 0. -1.
          4   -1    0    0  501    0  0.00000000000E+00 -0.00000000000E+00 -0.59661143044E+03  0.59661278216E+03  0.12700000000E+01 0. -1.
         25    2    1    2    0    0  0.00000000000E+00  0.00000000000E+00 -0.59012643495E+03  0.60322096395E+03  0.12500528840E+03 0.  0.
    9000005    1    3    3    0    0  0.35321345521E+02  0.85542876490E+01 -0.49726742436E+02  0.61599693180E+02  0.10000000000E+01 0.  0.
    9000005    1    3    3    0    0 -0.35321345521E+02 -0.85542876490E+01 -0.54039969251E+03  0.54162127077E+03  0.10000000000E+01 0.  0.
<mgrwt>
<rscale>  0 0.12500529E+03</rscale>
<asrwt>0</asrwt>
<pdfrwt beam="2">  1        4 0.91795911E-01 0.12500529E+03</pdfrwt>
<pdfrwt beam="1">  1       -4 0.10072719E-02 0.12500529E+03</pdfrwt>
<totfact> 0.48659298E+03</totfact>
</mgrwt>
</event>
<event>
 5    1  0.3259432E-002  0.1249864E+03  0.7818608E-02  0.1235091E+00
         -4   -1    0    0    0  501 -0.00000000000E+00  0.00000000000E+00  0.68118803426E+01  0.69292578103E+01  0.12700000000E+01 0.  1.
          4   -1    0    0  501    0  0.00000000000E+00 -0.00000000000E+00 -0.56830624683E+03  0.56830766587E+03  0.12700000000E+01 0.  1.
         25    2    1    2    0    0  0.00000000000E+00  0.00000000000E+00 -0.56149436649E+03  0.57523692368E+03  0.12498637833E+03 0.  0.
    9000005    1    3    3    0    0  0.26013134584E+02 -0.13952580055E+02 -0.27279138973E+02  0.40205833957E+02  0.10000000000E+01 0.  0.
    9000005    1    3    3    0    0 -0.26013134584E+02  0.13952580055E+02 -0.53421522751E+03  0.53503108972E+03  0.10000000000E+01 0.  0.
<mgrwt>
<rscale>  0 0.12498638E+03</rscale>
<asrwt>0</asrwt>
<pdfrwt beam="2">  1        4 0.87440832E-01 0.12498638E+03</pdfrwt>
<pdfrwt beam="1">  1       -4 0.10571202E-02 0.12498638E+03</pdfrwt>
<totfact> 0.50484091E+03</totfact>
</mgrwt>
</event>
<event>
 5    1  0.3259432E-002  0.1249984E+03  0.7818608E-02  0.1235072E+00
         -4   -1    0    0    0  501 -0.00000000000E+00  0.00000000000E+00  0.19256825614E+02  0.19298658832E+02  0.12700000000E+01 0.  1.
          4   -1    0    0  501    0  0.00000000000E+00 -0.00000000000E+00 -0.20258105064E+03  0.20258503147E+03  0.12700000000E+01 0.  1.
         25    2    1    2    0    0  0.00000000000E+00  0.00000000000E+00 -0.18332422502E+03  0.22188369030E+03  0.12499840216E+03 0.  0.
    9000005    1    3    3    0    0  0.60397922091E+02 -0.84635223972E+01 -0.11584574443E+03  0.13092278910E+03  0.10000000000E+01 0.  0.
    9000005    1    3    3    0    0 -0.60397922091E+02  0.84635223972E+01 -0.67478480593E+02  0.90960901202E+02  0.10000000000E+01 0.  0.
<mgrwt>
<rscale>  0 0.12499840E+03</rscale>
<asrwt>0</asrwt>
<pdfrwt beam="2">  1        4 0.31169838E-01 0.12499840E+03</pdfrwt>
<pdfrwt beam="1">  1       -4 0.29661128E-02 0.12499840E+03</pdfrwt>
<totfact> 0.86574245E+03</totfact>
</mgrwt>
</event>
<event>
 5    1  0.3259432E-002  0.1249835E+03  0.7818608E-02  0.1235095E+00
          4   -1    0    0  501    0  0.00000000000E+00  0.00000000000E+00  0.47506718370E+02  0.47523690831E+02  0.12700000000E+01 0.  1.
         -4   -1    0    0    0  501 -0.00000000000E+00 -0.00000000000E+00 -0.82166998170E+02  0.82176812352E+02  0.12700000000E+01 0.  1.
         25    2    1    2    0    0  0.00000000000E+00  0.00000000000E+00 -0.34660279801E+02  0.12970050318E+03  0.12498354104E+03 0.  0.
    9000005    1    3    3    0    0 -0.95788869047E+01 -0.60812203380E+02 -0.62334829131E+01  0.61884856496E+02  0.10000000000E+01 0.  0.
    9000005    1    3    3    0    0  0.95788869047E+01  0.60812203380E+02 -0.28426796888E+02  0.67815646687E+02  0.10000000000E+01 0.  0.
<mgrwt>
<rscale>  0 0.12498354E+03</rscale>
<asrwt>0</asrwt>
<pdfrwt beam="1">  1        4 0.73107864E-02 0.12498354E+03</pdfrwt>
<pdfrwt beam="2">  1       -4 0.12643137E-01 0.12498354E+03</pdfrwt>
<totfact> 0.10354765E+04</totfact>
</mgrwt>
</event>
<event>
 5    1  0.3259432E-002  0.1249994E+03  0.7818608E-02  0.1235070E+00
          4   -1    0    0  501    0  0.00000000000E+00  0.00000000000E+00  0.64689035490E+01  0.65923905472E+01  0.12700000000E+01 0. -1.
         -4   -1    0    0    0  501 -0.00000000000E+00 -0.00000000000E+00 -0.59801144824E+03  0.59801279679E+03  0.12700000000E+01 0. -1.
         25    2    1    2    0    0  0.00000000000E+00  0.00000000000E+00 -0.59154254469E+03  0.60460518734E+03  0.12499940151E+03 0.  0.
    9000005    1    3    3    0    0 -0.29177897370E+02 -0.47281152458E+02 -0.43413904303E+03  0.43768089490E+03  0.10000000000E+01 0.  0.
    9000005    1    3    3    0    0  0.29177897370E+02  0.47281152458E+02 -0.15740350166E+03  0.16692429244E+03  0.10000000000E+01 0.  0.
<mgrwt>
<rscale>  0 0.12499940E+03</rscale>
<asrwt>0</asrwt>
<pdfrwt beam="1">  1        4 0.10048191E-02 0.12499940E+03</pdfrwt>
<pdfrwt beam="2">  1       -4 0.92011321E-01 0.12499940E+03</pdfrwt>
<totfact> 0.48578856E+03</totfact>
</mgrwt>
</event>
<event>
 5    1  0.3259432E-002  0.1250018E+03  0.7818608E-02  0.1235066E+00
          4   -1    0    0  501    0  0.00000000000E+00  0.00000000000E+00  0.91060601021E+02  0.91069456781E+02  0.12700000000E+01 0.  1.
         -4   -1    0    0    0  501 -0.00000000000E+00 -0.00000000000E+00 -0.42878152798E+02  0.42896956622E+02  0.12700000000E+01 0.  1.
         25    2    1    2    0    0  0.00000000000E+00  0.00000000000E+00  0.48182448223E+02  0.13396641340E+03  0.12500180640E+03 0.  0.
    9000005    1    3    3    0    0 -0.48312013784E+02  0.29245400326E+02 -0.45863129335E+01  0.56669024894E+02  0.10000000000E+01 0.  0.
    9000005    1    3    3    0    0  0.48312013784E+02 -0.29245400326E+02  0.52768761157E+02  0.77297388508E+02  0.10000000000E+01 0.  0.
<mgrwt>
<rscale>  0 0.12500181E+03</rscale>
<asrwt>0</asrwt>
<pdfrwt beam="1">  1        4 0.14011451E-01 0.12500181E+03</pdfrwt>
<pdfrwt beam="2">  1       -4 0.65987666E-02 0.12500181E+03</pdfrwt>
<totfact> 0.10259484E+04</totfact>
</mgrwt>
</event>
<event>
 5    1  0.3259432E-002  0.1250006E+03  0.7818608E-02  0.1235068E+00
         -4   -1    0    0    0  501 -0.00000000000E+00  0.00000000000E+00  0.42122503891E+02  0.42141644891E+02  0.12700000000E+01 0.  1.
          4   -1    0    0  501    0  0.00000000000E+00 -0.00000000000E+00 -0.92691773387E+02  0.92700473319E+02  0.12700000000E+01 0.  1.
         25    2    1    2    0    0  0.00000000000E+00  0.00000000000E+00 -0.50569269495E+02  0.13484211821E+03  0.12500058330E+03 0.  0.
    9000005    1    3    3    0    0 -0.20285971769E+02  0.13794515126E+02  0.36716434704E+02  0.44169060162E+02  0.10000000000E+01 0.  0.
    9000005    1    3    3    0    0  0.20285971769E+02 -0.13794515126E+02 -0.87285704199E+02  0.90673058048E+02  0.10000000000E+01 0.  0.
<mgrwt>
<rscale>  0 0.12500058E+03</rscale>
<asrwt>0</asrwt>
<pdfrwt beam="2">  1        4 0.14262414E-01 0.12500058E+03</pdfrwt>
<pdfrwt beam="1">  1       -4 0.64825268E-02 0.12500058E+03</pdfrwt>
<totfact> 0.10241265E+04</totfact>
</mgrwt>
</event>
<event>
 5    1  0.3259432E-002  0.1249991E+03  0.7818608E-02  0.1235071E+00
          4   -1    0    0  501    0  0.00000000000E+00  0.00000000000E+00  0.29246954619E+03  0.29247230356E+03  0.12700000000E+01 0. -1.
         -4   -1    0    0    0  501 -0.00000000000E+00 -0.00000000000E+00 -0.13322872206E+02  0.13383266560E+02  0.12700000000E+01 0. -1.
         25    2    1    2    0    0  0.00000000000E+00  0.00000000000E+00  0.27914667398E+03  0.30585557012E+03  0.12499905670E+03 0.  0.
    9000005    1    3    3    0    0  0.61446715092E+02 -0.87441621936E+01  0.12175454929E+03  0.13666502640E+03  0.10000000000E+01 0.  0.
    9000005    1    3    3    0    0 -0.61446715092E+02  0.87441621936E+01  0.15739212469E+03  0.16919054372E+03  0.10000000000E+01 0.  0.
<mgrwt>
<rscale>  0 0.12499906E+03</rscale>
<asrwt>0</asrwt>
<pdfrwt beam="1">  1        4 0.45000171E-01 0.12499906E+03</pdfrwt>
<pdfrwt beam="2">  1       -4 0.20545305E-02 0.12499906E+03</pdfrwt>
<totfact> 0.74871715E+03</totfact>
</mgrwt>
</event>
<event>
 5    1  0.3259432E-002  0.1250001E+03  0.7818608E-02  0.1235069E+00
          4   -1    0    0  501    0  0.00000000000E+00  0.00000000000E+00  0.78755001881E+03  0.78755104281E+03  0.12700000000E+01 0.  1.
         -4   -1    0    0    0  501 -0.00000000000E+00 -0.00000000000E+00 -0.48776688659E+01  0.50402930039E+01  0.12700000000E+01 0.  1.
         25    2    1    2    0    0  0.00000000000E+00  0.00000000000E+00  0.78267234995E+03  0.79259133581E+03  0.12500007295E+03 0.  0.
    9000005    1    3    3    0    0  0.34298356356E+02  0.18950074932E+02  0.82667659463E+02  0.91490024100E+02  0.10000000000E+01 0.  0.
    9000005    1    3    3    0    0 -0.34298356356E+02 -0.18950074932E+02  0.70000469048E+03  0.70110131171E+03  0.10000000000E+01 0.  0.
<mgrwt>
<rscale>  0 0.12500007E+03</rscale>
<asrwt>0</asrwt>
<pdfrwt beam="1">  1        4 0.12117414E+00 0.12500007E+03</pdfrwt>
<pdfrwt beam="2">  1       -4 0.76299887E-03 0.12500007E+03</pdfrwt>
<totfact> 0.38597552E+03</totfact>
</mgrwt>
</event>
<event>
 5    1  0.3259432E-002  0.1250009E+03  0.7818608E-02  0.1235068E+00
         -4   -1    0    0    0  501 -0.00000000000E+00  0.00000000000E+00  0.20067324830E+02  0.20107471890E+02  0.12700000000E+01 0. -1.
          4   -1    0    0  501    0  0.00000000000E+00 -0.00000000000E+00 -0.19442338778E+03  0.19442753564E+03  0.12700000000E+01 0. -1.
         25    2    1    2    0    0  0.00000000000E+00  0.00000000000E+00 -0.17435606295E+03  0.21453500753E+03  0.12500093107E+03 0.  0.
    9000005    1    3    3    0    0 -0.27779529990E+02 -0.42665969951E+02 -0.14937279449E+03  0.15781419141E+03  0.10000000000E+01 0.  0.
    9000005    1    3    3    0    0  0.27779529990E+02  0.42665969951E+02 -0.24983268465E+02  0.56720816122E+02  0.10000000000E+01 0.  0.
<mgrwt>
<rscale>  0 0.12500093E+03</rscale>
<asrwt>0</asrwt>
<pdfrwt beam="2">  1        4 0.29914696E-01 0.12500093E+03</pdfrwt>
<pdfrwt beam="1">  1       -4 0.30906882E-02 0.12500093E+03</pdfrwt>
<totfact> 0.87738744E+03</totfact>
</mgrwt>
</event>
<event>
 5    1  0.3259432E-002  0.1250028E+03  0.7818608E-02  0.1235065E+00
         -4   -1    0    0    0  501 -0.00000000000E+00  0.00000000000E+00  0.57284634450E+01  0.58675542981E+01  0.12700000000E+01 0. -1.
          4   -1    0    0  501    0  0.00000000000E+00 -0.00000000000E+00 -0.67361311496E+03  0.67361431216E+03  0.12700000000E+01 0. -1.
         25    2    1    2    0    0  0.00000000000E+00  0.00000000000E+00 -0.66788465151E+03  0.67948186646E+03  0.12500279643E+03 0.  0.
    9000005    1    3    3    0    0 -0.34289839150E+02 -0.36104145224E+02 -0.12866709727E+03  0.13796928749E+03  0.10000000000E+01 0.  0.
    9000005    1    3    3    0    0  0.34289839150E+02  0.36104145224E+02 -0.53921755424E+03  0.54151257896E+03  0.10000000000E+01 0.  0.
<mgrwt>
<rscale>  0 0.12500280E+03</rscale>
<asrwt>0</asrwt>
<pdfrwt beam="2">  1        4 0.10364352E+00 0.12500280E+03</pdfrwt>
<pdfrwt beam="1">  1       -4 0.89209399E-03 0.12500280E+03</pdfrwt>
<totfact> 0.44189498E+03</totfact>
</mgrwt>
</event>
<event>
 5    1  0.3259432E-002  0.1250006E+03  0.7818608E-02  0.1235068E+00
          4   -1    0    0  501    0  0.00000000000E+00  0.00000000000E+00  0.18395306525E+03  0.18395744920E+03  0.12700000000E+01 0. -1.
         -4   -1    0    0    0  501 -0.00000000000E+00 -0.00000000000E+00 -0.21211618646E+02  0.21249603893E+02  0.12700000000E+01 0. -1.
         25    2    1    2    0    0  0.00000000000E+00  0.00000000000E+00  0.16274144660E+03  0.20520705309E+03  0.12500062478E+03 0.  0.
    9000005    1    3    3    0    0  0.17134905504E+02 -0.21874134447E+02 -0.10520619060E+02  0.29728204955E+02  0.10000000000E+01 0.  0.
    9000005    1    3    3    0    0 -0.17134905504E+02  0.21874134447E+02  0.17326206566E+03  0.17547884813E+03  0.10000000000E+01 0.  0.
<mgrwt>
<rscale>  0 0.12500062E+03</rscale>
<asrwt>0</asrwt>
<pdfrwt beam="1">  1        4 0.28303732E-01 0.12500062E+03</pdfrwt>
<pdfrwt beam="2">  1       -4 0.32665850E-02 0.12500062E+03</pdfrwt>
<totfact> 0.89263415E+03</totfact>
</mgrwt>
</event>
<event>
 5    1  0.3259432E-002  0.1250033E+03  0.7818608E-02  0.1235064E+00
          4   -1    0    0  501    0  0.00000000000E+00  0.00000000000E+00  0.34856793151E+02  0.34879921571E+02  0.12700000000E+01 0.  1.
         -4   -1    0    0    0  501 -0.00000000000E+00 -0.00000000000E+00 -0.11200770475E+03  0.11201490447E+03  0.12700000000E+01 0.  1.
         25    2    1    2    0    0  0.00000000000E+00  0.00000000000E+00 -0.77150911598E+02  0.14689482604E+03  0.12500330698E+03 0.  0.
    9000005    1    3    3    0    0  0.45057189708E+02 -0.26007824398E+02  0.21134837153E+01  0.52077097535E+02  0.10000000000E+01 0.  0.
    9000005    1    3    3    0    0 -0.45057189708E+02  0.26007824398E+02 -0.79264395313E+02  0.94817728504E+02  0.10000000000E+01 0.  0.
<mgrwt>
<rscale>  0 0.12500331E+03</rscale>
<asrwt>0</asrwt>
<pdfrwt beam="1">  1        4 0.53649166E-02 0.12500331E+03</pdfrwt>
<pdfrwt beam="2">  1       -4 0.17234287E-01 0.12500331E+03</pdfrwt>
<totfact> 0.99918870E+03</totfact>
</mgrwt>
</event>
<event>
 5    1  0.3259432E-002  0.1250008E+03  0.7818608E-02  0.1235068E+00
          4   -1    0    0  501    0  0.00000000000E+00  0.00000000000E+00  0.23674408517E+02  0.23708448254E+02  0.12700000000E+01 0.  1.
         -4   -1    0    0    0  501 -0.00000000000E+00 -0.00000000000E+00 -0.16484586352E+03  0.16485075559E+03  0.12700000000E+01 0.  1.
         25    2    1    2    0    0  0.00000000000E+00  0.00000000000E+00 -0.14117145500E+03  0.18855920385E+03  0.12500077459E+03 0.  0.
    9000005    1    3    3    0    0 -0.40021252288E+02 -0.25423831526E+00  0.18132218750E+01  0.40075591641E+02  0.10000000000E+01 0.  0.
    9000005    1    3    3    0    0  0.40021252288E+02  0.25423831526E+00 -0.14298467688E+03  0.14848361220E+03  0.10000000000E+01 0.  0.
<mgrwt>
<rscale>  0 0.12500077E+03</rscale>
<asrwt>0</asrwt>
<pdfrwt beam="1">  1        4 0.36452116E-02 0.12500077E+03</pdfrwt>
<pdfrwt beam="2">  1       -4 0.25363896E-01 0.12500077E+03</pdfrwt>
<totfact> 0.92097016E+03</totfact>
</mgrwt>
</event>
<event>
 5    1  0.3259432E-002  0.1249999E+03  0.7818608E-02  0.1235069E+00
          4   -1    0    0  501    0  0.00000000000E+00  0.00000000000E+00  0.53788680270E+02  0.53803671113E+02  0.12700000000E+01 0.  1.
         -4   -1    0    0    0  501 -0.00000000000E+00 -0.00000000000E+00 -0.72591431172E+02  0.72602539760E+02  0.12700000000E+01 0.  1.
         25    2    1    2    0    0  0.00000000000E+00  0.00000000000E+00 -0.18802750902E+02  0.12640621087E+03  0.12499994682E+03 0.  0.
    9000005    1    3    3    0    0  0.34241859077E+01 -0.60371698078E+01 -0.72205415550E+02  0.72545120464E+02  0.10000000000E+01 0.  0.
    9000005    1    3    3    0    0 -0.34241859077E+01  0.60371698078E+01  0.53402664648E+02  0.53861090408E+02  0.10000000000E+01 0.  0.
<mgrwt>
<rscale>  0 0.12499995E+03</rscale>
<asrwt>0</asrwt>
<pdfrwt beam="1">  1        4 0.82771892E-02 0.12499995E+03</pdfrwt>
<pdfrwt beam="2">  1       -4 0.11169920E-01 0.12499995E+03</pdfrwt>
<totfact> 0.10422087E+04</totfact>
</mgrwt>
</event>
<event>
 4    1  0.3259432E-002  0.1247963E+03  0.7818608E-02  0.1235388E+00
          4   -1    0    0  501    0  0.00000000000E+00  0.00000000000E+00  0.26934651821E+03  0.26934951230E+03  0.12700000000E+01 0. -1.
         -4   -1    0    0    0  501 -0.00000000000E+00 -0.00000000000E+00 -0.14424487489E+02  0.14480287957E+02  0.12700000000E+01 0. -1.
    9000005    1    1    2    0    0  0.12066547553E+01  0.60362103651E+02  0.16324050609E+03  0.17405028699E+03  0.10000000000E+01 0.  0.
    9000005    1    1    2    0    0 -0.12066547553E+01 -0.60362103651E+02  0.91681524635E+02  0.10977951326E+03  0.10000000000E+01 0.  0.
<mgrwt>
<rscale>  0 0.12479629E+03</rscale>
<asrwt>0</asrwt>
<pdfrwt beam="1">  1        4 0.41442447E-01 0.12479629E+03</pdfrwt>
<pdfrwt beam="2">  1       -4 0.22236746E-02 0.12479629E+03</pdfrwt>
<totfact> 0.78025703E+03</totfact>
</mgrwt>
</event>
<event>
 5    1  0.3259432E-002  0.1249987E+03  0.7818608E-02  0.1235071E+00
          4   -1    0    0  501    0  0.00000000000E+00  0.00000000000E+00  0.23174641471E+03  0.23174989457E+03  0.12700000000E+01 0.  1.
         -4   -1    0    0    0  501 -0.00000000000E+00 -0.00000000000E+00 -0.16827818437E+02  0.16875674012E+02  0.12700000000E+01 0.  1.
         25    2    1    2    0    0  0.00000000000E+00  0.00000000000E+00  0.21491859627E+03  0.24862556858E+03  0.12499868130E+03 0.  0.
    9000005    1    3    3    0    0 -0.19137402263E+02 -0.31348218573E+02  0.68960750720E+01  0.37383242563E+02  0.10000000000E+01 0.  0.
    9000005    1    3    3    0    0  0.19137402263E+02  0.31348218573E+02  0.20802252120E+03  0.21124232602E+03  0.10000000000E+01 0.  0.
<mgrwt>
<rscale>  0 0.12499868E+03</rscale>
<asrwt>0</asrwt>
<pdfrwt beam="1">  1        4 0.35657241E-01 0.12499868E+03</pdfrwt>
<pdfrwt beam="2">  1       -4 0.25928442E-02 0.12499868E+03</pdfrwt>
<totfact> 0.82531708E+03</totfact>
</mgrwt>
</event>
<event>
 5    1  0.3259432E-002  0.1250107E+03  0.7818608E-02  0.1235053E+00
          4   -1    0    0  501    0  0.00000000000E+00  0.00000000000E+00  0.13029937157E+03  0.13030556063E+03  0.12700000000E+01 0.  1.
         -4   -1    0    0    0  501 -0.00000000000E+00 -0.00000000000E+00 -0.29963807351E+02  0.29990709411E+02  0.12700000000E+01 0.  1.
         25    2    1    2    0    0  0.00000000000E+00  0.00000000000E+00  0.10033556422E+03  0.16029627004E+03  0.12501067451E+03 0.  0.
    9000005    1    3    3    0    0  0.54332846114E+02  0.27419970619E+02  0.68392321054E+02  0.91555570747E+02  0.10000000000E+01 0.  0.
    9000005    1    3    3    0    0 -0.54332846114E+02 -0.27419970619E+02  0.31943243164E+02  0.68740699294E+02  0.10000000000E+01 0.  0.
<mgrwt>
<rscale>  0 0.12501067E+03</rscale>
<asrwt>0</asrwt>
<pdfrwt beam="1">  1        4 0.20048603E-01 0.12501067E+03</pdfrwt>
<pdfrwt beam="2">  1       -4 0.46123619E-02 0.12501067E+03</pdfrwt>
<totfact> 0.97262359E+03</totfact>
</mgrwt>
</event>
<event>
 5    1  0.3259432E-002  0.1250003E+03  0.7818608E-02  0.1235069E+00
          4   -1    0    0  501    0  0.00000000000E+00  0.00000000000E+00  0.82686500417E+01  0.83656125605E+01  0.12700000000E+01 0.  1.
         -4   -1    0    0    0  501 -0.00000000000E+00 -0.00000000000E+00 -0.46956793266E+03  0.46956965009E+03  0.12700000000E+01 0.  1.
         25    2    1    2    0    0  0.00000000000E+00  0.00000000000E+00 -0.46129928262E+03  0.47793526265E+03  0.12500034855E+03 0.  0.
    9000005    1    3    3    0    0  0.35563012863E+02  0.49671165727E+02 -0.28098592901E+03  0.28755181253E+03  0.10000000000E+01 0.  0.
    9000005    1    3    3    0    0 -0.35563012863E+02 -0.49671165727E+02 -0.18031335361E+03  0.19038345012E+03  0.10000000000E+01 0.  0.
<mgrwt>
<rscale>  0 0.12500035E+03</rscale>
<asrwt>0</asrwt>
<pdfrwt beam="1">  1        4 0.12796911E-02 0.12500035E+03</pdfrwt>
<pdfrwt beam="2">  1       -4 0.72248791E-01 0.12500035E+03</pdfrwt>
<totfact> 0.57617470E+03</totfact>
</mgrwt>
</event>
<event>
 5    1  0.3259432E-002  0.1249973E+03  0.7818608E-02  0.1235073E+00
          4   -1    0    0  501    0  0.00000000000E+00  0.00000000000E+00  0.39024610680E+03  0.39024817331E+03  0.12700000000E+01 0.  1.
         -4   -1    0    0    0  501 -0.00000000000E+00 -0.00000000000E+00 -0.99668955206E+01  0.10047482586E+02  0.12700000000E+01 0.  1.
         25    2    1    2    0    0  0.00000000000E+00  0.00000000000E+00  0.38027921128E+03  0.40029565589E+03  0.12499733437E+03 0.  0.
    9000005    1    3    3    0    0 -0.14244186526E+02  0.44154689752E+01  0.38447983798E+03  0.38477024187E+03  0.10000000000E+01 0.  0.
    9000005    1    3    3    0    0  0.14244186526E+02 -0.44154689752E+01 -0.42006266998E+01  0.15525414027E+02  0.10000000000E+01 0.  0.
<mgrwt>
<rscale>  0 0.12499733E+03</rscale>
<asrwt>0</asrwt>
<pdfrwt beam="1">  1        4 0.60044230E-01 0.12499733E+03</pdfrwt>
<pdfrwt beam="2">  1       -4 0.15397263E-02 0.12499733E+03</pdfrwt>
<totfact> 0.64527834E+03</totfact>
</mgrwt>
</event>
<event>
 5    1  0.3259432E-002  0.1249998E+03  0.7818608E-02  0.1235070E+00
         -4   -1    0    0    0  501 -0.00000000000E+00  0.00000000000E+00  0.38043418747E+03  0.38043630728E+03  0.12700000000E+01 0.  1.
          4   -1    0    0  501    0  0.00000000000E+00 -0.00000000000E+00 -0.10226416027E+02  0.10304973787E+02  0.12700000000E+01 0.  1.
         25    2    1    2    0    0  0.00000000000E+00  0.00000000000E+00  0.37020777144E+03  0.39074128107E+03  0.12499981877E+03 0.  0.
    9000005    1    3    3    0    0  0.43639764613E+01  0.58543859948E+02  0.25206100338E+03  0.25880915218E+03  0.10000000000E+01 0.  0.
    9000005    1    3    3    0    0 -0.43639764613E+01 -0.58543859948E+02  0.11814676806E+03  0.13193212888E+03  0.10000000000E+01 0.  0.
<mgrwt>
<rscale>  0 0.12499982E+03</rscale>
<asrwt>0</asrwt>
<pdfrwt beam="2">  1        4 0.15795009E-02 0.12499982E+03</pdfrwt>
<pdfrwt beam="1">  1       -4 0.58534535E-01 0.12499982E+03</pdfrwt>
<totfact> 0.65463618E+03</totfact>
</mgrwt>
</event>
<event>
 5    1  0.3259432E-002  0.1250023E+03  0.7818608E-02  0.1235066E+00
          4   -1    0    0  501    0  0.00000000000E+00  0.00000000000E+00  0.79159247290E+02  0.79169434326E+02  0.12700000000E+01 0. -1.
         -4   -1    0    0    0  501 -0.00000000000E+00 -0.00000000000E+00 -0.49327026873E+02  0.49343373214E+02  0.12700000000E+01 0. -1.
         25    2    1    2    0    0  0.00000000000E+00  0.00000000000E+00  0.29832220417E+02  0.12851280754E+03  0.12500232129E+03 0.  0.
    9000005    1    3    3    0    0  0.14952142656E+02 -0.44658175245E+02  0.57148642471E+02  0.74060019731E+02  0.10000000000E+01 0.  0.
    9000005    1    3    3    0    0 -0.14952142656E+02  0.44658175245E+02 -0.27316422054E+02  0.54452787808E+02  0.10000000000E+01 0.  0.
<mgrwt>
<rscale>  0 0.12500232E+03</rscale>
<asrwt>0</asrwt>
<pdfrwt beam="1">  1        4 0.12180387E-01 0.12500232E+03</pdfrwt>
<pdfrwt beam="2">  1       -4 0.75908145E-02 0.12500232E+03</pdfrwt>
<totfact> 0.10375884E+04</totfact>
</mgrwt>
</event>
<event>
 5    1  0.3259432E-002  0.1249996E+03  0.7818608E-02  0.1235070E+00
         -4   -1    0    0    0  501 -0.00000000000E+00  0.00000000000E+00  0.53986267717E+03  0.53986417098E+03  0.12700000000E+01 0.  1.
          4   -1    0    0  501    0  0.00000000000E+00 -0.00000000000E+00 -0.71783510858E+01  0.72898301976E+01  0.12700000000E+01 0.  1.
         25    2    1    2    0    0  0.00000000000E+00  0.00000000000E+00  0.53268432609E+03  0.54715400117E+03  0.12499963897E+03 0.  0.
    9000005    1    3    3    0    0 -0.23263004827E+02  0.41699405009E+02  0.89877864171E+02  0.10177936058E+03  0.10000000000E+01 0.  0.
    9000005    1    3    3    0    0  0.23263004827E+02 -0.41699405009E+02  0.44280646191E+03  0.44537464060E+03  0.10000000000E+01 0.  0.
<mgrwt>
<rscale>  0 0.12499964E+03</rscale>
<asrwt>0</asrwt>
<pdfrwt beam="2">  1        4 0.11130522E-02 0.12499964E+03</pdfrwt>
<pdfrwt beam="1">  1       -4 0.83064464E-01 0.12499964E+03</pdfrwt>
<totfact> 0.52383299E+03</totfact>
</mgrwt>
</event>
<event>
 5    1  0.3259432E-002  0.1249996E+03  0.7818608E-02  0.1235070E+00
          4   -1    0    0  501    0  0.00000000000E+00  0.00000000000E+00  0.27880500063E+02  0.27909410309E+02  0.12700000000E+01 0. -1.
         -4   -1    0    0    0  501 -0.00000000000E+00 -0.00000000000E+00 -0.14000158284E+03  0.14000734302E+03  0.12700000000E+01 0. -1.
         25    2    1    2    0    0  0.00000000000E+00  0.00000000000E+00 -0.11212108278E+03  0.16791675333E+03  0.12499959537E+03 0.  0.
    9000005    1    3    3    0    0  0.36937521000E+02 -0.27285228490E+02 -0.11299591528E+03  0.12197516560E+03  0.10000000000E+01 0.  0.
    9000005    1    3    3    0    0 -0.36937521000E+02  0.27285228490E+02  0.87483250166E+00  0.45941587731E+02  0.10000000000E+01 0.  0.
<mgrwt>
<rscale>  0 0.12499960E+03</rscale>
<asrwt>0</asrwt>
<pdfrwt beam="1">  1        4 0.42919747E-02 0.12499960E+03</pdfrwt>
<pdfrwt beam="2">  1       -4 0.21541372E-01 0.12499960E+03</pdfrwt>
<totfact> 0.95838710E+03</totfact>
</mgrwt>
</event>
<event>
 5    1  0.3259432E-002  0.1250004E+03  0.7818608E-02  0.1235069E+00
         -4   -1    0    0    0  501 -0.00000000000E+00  0.00000000000E+00  0.90668620783E+03  0.90668709727E+03  0.12700000000E+01 0.  1.
          4   -1    0    0  501    0  0.00000000000E+00 -0.00000000000E+00 -0.42137945942E+01  0.44010186187E+01  0.12700000000E+01 0.  1.
         25    2    1    2    0    0  0.00000000000E+00  0.00000000000E+00  0.90247241323E+03  0.91108811589E+03  0.12500039310E+03 0.  0.
    9000005    1    3    3    0    0 -0.19459834735E+02  0.29951993668E+02  0.77484740688E+02  0.85326971891E+02  0.10000000000E+01 0.  0.
    9000005    1    3    3    0    0  0.19459834735E+02 -0.29951993668E+02  0.82498767254E+03  0.82576114400E+03  0.10000000000E+01 0.  0.
<mgrwt>
<rscale>  0 0.12500039E+03</rscale>
<asrwt>0</asrwt>
<pdfrwt beam="2">  1        4 0.66274561E-03 0.12500039E+03</pdfrwt>
<pdfrwt beam="1">  1       -4 0.13950481E+00 0.12500039E+03</pdfrwt>
<totfact> 0.33738559E+03</totfact>
</mgrwt>
</event>
<event>
 5    1  0.3259432E-002  0.1250004E+03  0.7818608E-02  0.1235069E+00
         -4   -1    0    0    0  501 -0.00000000000E+00  0.00000000000E+00  0.73964598483E+02  0.73975500869E+02  0.12700000000E+01 0.  1.
          4   -1    0    0  501    0  0.00000000000E+00 -0.00000000000E+00 -0.52790360914E+02  0.52805635168E+02  0.12700000000E+01 0.  1.
         25    2    1    2    0    0  0.00000000000E+00  0.00000000000E+00  0.21174237569E+02  0.12678113604E+03  0.12500043247E+03 0.  0.
    9000005    1    3    3    0    0  0.53787006007E+02  0.28103435758E+02  0.25713730941E+02  0.65916925562E+02  0.10000000000E+01 0.  0.
    9000005    1    3    3    0    0 -0.53787006007E+02 -0.28103435758E+02 -0.45394933720E+01  0.60864210475E+02  0.10000000000E+01 0.  0.
<mgrwt>
<rscale>  0 0.12500043E+03</rscale>
<asrwt>0</asrwt>
<pdfrwt beam="2">  1        4 0.81236075E-02 0.12500043E+03</pdfrwt>
<pdfrwt beam="1">  1       -4 0.11381183E-01 0.12500043E+03</pdfrwt>
<totfact> 0.10413803E+04</totfact>
</mgrwt>
</event>
<event>
 5    1  0.3259432E-002  0.1249989E+03  0.7818608E-02  0.1235071E+00
         -4   -1    0    0    0  501 -0.00000000000E+00  0.00000000000E+00  0.80603035886E+03  0.80603135938E+03  0.12700000000E+01 0. -1.
          4   -1    0    0  501    0  0.00000000000E+00 -0.00000000000E+00 -0.47619738492E+01  0.49284170826E+01  0.12700000000E+01 0. -1.
         25    2    1    2    0    0  0.00000000000E+00  0.00000000000E+00  0.80126838501E+03  0.81095977646E+03  0.12499893689E+03 0.  0.
    9000005    1    3    3    0    0  0.29769460490E+02 -0.52056100162E+02  0.28656714272E+03  0.29277599906E+03  0.10000000000E+01 0.  0.
    9000005    1    3    3    0    0 -0.29769460490E+02  0.52056100162E+02  0.51470124229E+03  0.51818377740E+03  0.10000000000E+01 0.  0.
<mgrwt>
<rscale>  0 0.12499894E+03</rscale>
<asrwt>0</asrwt>
<pdfrwt beam="2">  1        4 0.74549203E-03 0.12499894E+03</pdfrwt>
<pdfrwt beam="1">  1       -4 0.12401749E+00 0.12499894E+03</pdfrwt>
<totfact> 0.37781007E+03</totfact>
</mgrwt>
</event>
<event>
 5    1  0.3259432E-002  0.1250058E+03  0.7818608E-02  0.1235060E+00
         -4   -1    0    0    0  501 -0.00000000000E+00  0.00000000000E+00  0.14886823025E+03  0.14887364735E+03  0.12700000000E+01 0.  1.
          4   -1    0    0  501    0  0.00000000000E+00 -0.00000000000E+00 -0.26220830493E+02  0.26251568557E+02  0.12700000000E+01 0.  1.
         25    2    1    2    0    0  0.00000000000E+00  0.00000000000E+00  0.12264739975E+03  0.17512521591E+03  0.12500582619E+03 0.  0.
    9000005    1    3    3    0    0  0.35624433365E+02  0.38327500454E+02  0.10919221560E+03  0.12108690058E+03  0.10000000000E+01 0.  0.
    9000005    1    3    3    0    0 -0.35624433365E+02 -0.38327500454E+02  0.13455184153E+02  0.54038315335E+02  0.10000000000E+01 0.  0.
<mgrwt>
<rscale>  0 0.12500583E+03</rscale>
<asrwt>0</asrwt>
<pdfrwt beam="2">  1        4 0.40367550E-02 0.12500583E+03</pdfrwt>
<pdfrwt beam="1">  1       -4 0.22905587E-01 0.12500583E+03</pdfrwt>
<totfact> 0.94489561E+03</totfact>
</mgrwt>
</event>
<event>
 5    1  0.3259432E-002  0.1250003E+03  0.7818608E-02  0.1235069E+00
         -4   -1    0    0    0  501 -0.00000000000E+00  0.00000000000E+00  0.35099705430E+01  0.37326656980E+01  0.12700000000E+01 0. -1.
          4   -1    0    0  501    0  0.00000000000E+00 -0.00000000000E+00 -0.10784638729E+04  0.10784646207E+04  0.12700000000E+01 0. -1.
         25    2    1    2    0    0  0.00000000000E+00  0.00000000000E+00 -0.10749539023E+04  0.10821972864E+04  0.12500029777E+03 0.  0.
    9000005    1    3    3    0    0 -0.13551185674E+02 -0.55171769940E+02 -0.76285793444E+03  0.76497110205E+03  0.10000000000E+01 0.  0.
    9000005    1    3    3    0    0  0.13551185674E+02  0.55171769940E+02 -0.31209596790E+03  0.31722618430E+03  0.10000000000E+01 0.  0.
<mgrwt>
<rscale>  0 0.12500030E+03</rscale>
<asrwt>0</asrwt>
<pdfrwt beam="2">  1        4 0.16593445E+00 0.12500030E+03</pdfrwt>
<pdfrwt beam="1">  1       -4 0.55718424E-03 0.12500030E+03</pdfrwt>
<totfact> 0.28010218E+03</totfact>
</mgrwt>
</event>
<event>
 5    1  0.3259432E-002  0.1249997E+03  0.7818608E-02  0.1235070E+00
         -4   -1    0    0    0  501 -0.00000000000E+00  0.00000000000E+00  0.24458570955E+03  0.24458900674E+03  0.12700000000E+01 0. -1.
          4   -1    0    0  501    0  0.00000000000E+00 -0.00000000000E+00 -0.15942148585E+02  0.15992654611E+02  0.12700000000E+01 0. -1.
         25    2    1    2    0    0  0.00000000000E+00  0.00000000000E+00  0.22864356096E+03  0.26058166135E+03  0.12499969704E+03 0.  0.
    9000005    1    3    3    0    0 -0.16254209410E+02  0.17994840467E+02  0.23438828282E+03  0.23564142405E+03  0.10000000000E+01 0.  0.
    9000005    1    3    3    0    0  0.16254209410E+02 -0.17994840467E+02 -0.57447218562E+01  0.24940237292E+02  0.10000000000E+01 0.  0.
<mgrwt>
<rscale>  0 0.12499970E+03</rscale>
<asrwt>0</asrwt>
<pdfrwt beam="2">  1        4 0.24567770E-02 0.12499970E+03</pdfrwt>
<pdfrwt beam="1">  1       -4 0.37632708E-01 0.12499970E+03</pdfrwt>
<totfact> 0.80825047E+03</totfact>
</mgrwt>
</event>
<event>
 5    1  0.3259432E-002  0.1249952E+03  0.7818608E-02  0.1235077E+00
          4   -1    0    0  501    0  0.00000000000E+00  0.00000000000E+00  0.36161204744E+02  0.36183499396E+02  0.12700000000E+01 0. -1.
         -4   -1    0    0    0  501 -0.00000000000E+00 -0.00000000000E+00 -0.10795557048E+03  0.10796304042E+03  0.12700000000E+01 0. -1.
         25    2    1    2    0    0  0.00000000000E+00  0.00000000000E+00 -0.71794365734E+02  0.14414653982E+03  0.12499517587E+03 0.  0.
    9000005    1    3    3    0    0 -0.44399467186E+01  0.60554929172E+02 -0.18857026772E+02  0.63586162273E+02  0.10000000000E+01 0.  0.
    9000005    1    3    3    0    0  0.44399467186E+01 -0.60554929172E+02 -0.52937338962E+02  0.80560377546E+02  0.10000000000E+01 0.  0.
<mgrwt>
<rscale>  0 0.12499518E+03</rscale>
<asrwt>0</asrwt>
<pdfrwt beam="1">  1        4 0.55655519E-02 0.12499518E+03</pdfrwt>
<pdfrwt beam="2">  1       -4 0.16610839E-01 0.12499518E+03</pdfrwt>
<totfact> 0.10049449E+04</totfact>
</mgrwt>
</event>
<event>
 5    1  0.3259432E-002  0.1249974E+03  0.7818608E-02  0.1235073E+00
         -4   -1    0    0    0  501 -0.00000000000E+00  0.00000000000E+00  0.10555766865E+04  0.10555774505E+04  0.12700000000E+01 0.  1.
          4   -1    0    0  501    0  0.00000000000E+00 -0.00000000000E+00 -0.35906752674E+01  0.38086544705E+01  0.12700000000E+01 0.  1.
         25    2    1    2    0    0  0.00000000000E+00  0.00000000000E+00  0.10519860112E+04  0.10593861049E+04  0.12499740619E+03 0.  0.
    9000005    1    3    3    0    0 -0.17582489599E+02  0.20451536790E+02  0.48234689580E+02  0.55272005360E+02  0.10000000000E+01 0.  0.
    9000005    1    3    3    0    0  0.17582489599E+02 -0.20451536790E+02  0.10037513216E+04  0.10041140996E+04  0.10000000000E+01 0.  0.
<mgrwt>
<rscale>  0 0.12499741E+03</rscale>
<asrwt>0</asrwt>
<pdfrwt beam="2">  1        4 0.56923806E-03 0.12499741E+03</pdfrwt>
<pdfrwt beam="1">  1       -4 0.16241322E+00 0.12499741E+03</pdfrwt>
<totfact> 0.28705127E+03</totfact>
</mgrwt>
</event>
<event>
 5    1  0.3259432E-002  0.1250018E+03  0.7818608E-02  0.1235066E+00
         -4   -1    0    0    0  501 -0.00000000000E+00  0.00000000000E+00  0.17140664438E+03  0.17141134920E+03  0.12700000000E+01 0. -1.
          4   -1    0    0  501    0  0.00000000000E+00 -0.00000000000E+00 -0.22767319002E+02  0.22802712877E+02  0.12700000000E+01 0. -1.
         25    2    1    2    0    0  0.00000000000E+00  0.00000000000E+00  0.14863932537E+03  0.19421406208E+03  0.12500181144E+03 0.  0.
    9000005    1    3    3    0    0 -0.20076837766E+02  0.37797803633E+02  0.14506989789E+03  0.15125484669E+03  0.10000000000E+01 0.  0.
    9000005    1    3    3    0    0  0.20076837766E+02 -0.37797803633E+02  0.35694274818E+01  0.42959215388E+02  0.10000000000E+01 0.  0.
<mgrwt>
<rscale>  0 0.12500181E+03</rscale>
<asrwt>0</asrwt>
<pdfrwt beam="2">  1        4 0.35057489E-02 0.12500181E+03</pdfrwt>
<pdfrwt beam="1">  1       -4 0.26373338E-01 0.12500181E+03</pdfrwt>
<totfact> 0.91115512E+03</totfact>
</mgrwt>
</event>
<event>
 5    1  0.3259432E-002  0.1249967E+03  0.7818608E-02  0.1235074E+00
         -4   -1    0    0    0  501 -0.00000000000E+00  0.00000000000E+00  0.46477023949E+02  0.46494372296E+02  0.12700000000E+01 0. -1.
          4   -1    0    0  501    0  0.00000000000E+00 -0.00000000000E+00 -0.84004653111E+02  0.84014252625E+02  0.12700000000E+01 0. -1.
         25    2    1    2    0    0  0.00000000000E+00  0.00000000000E+00 -0.37527629161E+02  0.13050862492E+03  0.12499671287E+03 0.  0.
    9000005    1    3    3    0    0 -0.54221297802E+02  0.78386004241E+01  0.12622561355E+02  0.56229190347E+02  0.10000000000E+01 0.  0.
    9000005    1    3    3    0    0  0.54221297802E+02 -0.78386004241E+01 -0.50150190516E+02  0.74279434574E+02  0.10000000000E+01 0.  0.
<mgrwt>
<rscale>  0 0.12499671E+03</rscale>
<asrwt>0</asrwt>
<pdfrwt beam="2">  1        4 0.12925866E-01 0.12499671E+03</pdfrwt>
<pdfrwt beam="1">  1       -4 0.71523843E-02 0.12499671E+03</pdfrwt>
<totfact> 0.10334401E+04</totfact>
</mgrwt>
</event>
<event>
 5    1  0.3259432E-002  0.1250014E+03  0.7818608E-02  0.1235067E+00
          4   -1    0    0  501    0  0.00000000000E+00  0.00000000000E+00  0.38783379066E+02  0.38804167196E+02  0.12700000000E+01 0.  1.
         -4   -1    0    0    0  501 -0.00000000000E+00 -0.00000000000E+00 -0.10067019080E+03  0.10067820129E+03  0.12700000000E+01 0.  1.
         25    2    1    2    0    0  0.00000000000E+00  0.00000000000E+00 -0.61886811734E+02  0.13948236849E+03  0.12500141460E+03 0.  0.
    9000005    1    3    3    0    0  0.51709441424E+02  0.68774980724E+01  0.74548765064E+01  0.52704283467E+02  0.10000000000E+01 0.  0.
    9000005    1    3    3    0    0 -0.51709441424E+02 -0.68774980724E+01 -0.69341688240E+02  0.86778085022E+02  0.10000000000E+01 0.  0.
<mgrwt>
<rscale>  0 0.12500141E+03</rscale>
<asrwt>0</asrwt>
<pdfrwt beam="1">  1        4 0.59688890E-02 0.12500141E+03</pdfrwt>
<pdfrwt beam="2">  1       -4 0.15489937E-01 0.12500141E+03</pdfrwt>
<totfact> 0.10144002E+04</totfact>
</mgrwt>
</event>
<event>
 5    1  0.3259432E-002  0.1250032E+03  0.7818608E-02  0.1235064E+00
          4   -1    0    0  501    0  0.00000000000E+00  0.00000000000E+00  0.84502709908E+03  0.84502805343E+03  0.12700000000E+01 0.  1.
         -4   -1    0    0    0  501 -0.00000000000E+00 -0.00000000000E+00 -0.45346725232E+01  0.47091564948E+01  0.12700000000E+01 0.  1.
         25    2    1    2    0    0  0.00000000000E+00  0.00000000000E+00  0.84049242656E+03  0.84973720993E+03  0.12500322727E+03 0.  0.
    9000005    1    3    3    0    0 -0.23830626216E+01  0.64092550834E+01  0.84250975909E+03  0.84253810104E+03  0.10000000000E+01 0.  0.
    9000005    1    3    3    0    0  0.23830626216E+01 -0.64092550834E+01 -0.20173325333E+01  0.71991088846E+01  0.10000000000E+01 0.  0.
<mgrwt>
<rscale>  0 0.12500323E+03</rscale>
<asrwt>0</asrwt>
<pdfrwt beam="1">  1        4 0.13001761E+00 0.12500323E+03</pdfrwt>
<pdfrwt beam="2">  1       -4 0.71113746E-03 0.12500323E+03</pdfrwt>
<totfact> 0.36135544E+03</totfact>
</mgrwt>
</event>
<event>
 5    1  0.3259432E-002  0.1249994E+03  0.7818608E-02  0.1235070E+00
          4   -1    0    0  501    0  0.00000000000E+00  0.00000000000E+00  0.14623768011E+03  0.14624319466E+03  0.12700000000E+01 0.  1.
         -4   -1    0    0    0  501 -0.00000000000E+00 -0.00000000000E+00 -0.26690295868E+02  0.26720493886E+02  0.12700000000E+01 0.  1.
         25    2    1    2    0    0  0.00000000000E+00  0.00000000000E+00  0.11954738424E+03  0.17296368855E+03  0.12499944190E+03 0.  0.
    9000005    1    3    3    0    0  0.66566882765E+01 -0.39540634771E+02  0.12609745006E+03  0.13232286352E+03  0.10000000000E+01 0.  0.
    9000005    1    3    3    0    0 -0.66566882765E+01  0.39540634771E+02 -0.65500658192E+01  0.40640825030E+02  0.10000000000E+01 0.  0.
<mgrwt>
<rscale>  0 0.12499944E+03</rscale>
<asrwt>0</asrwt>
<pdfrwt beam="1">  1        4 0.22500852E-01 0.12499944E+03</pdfrwt>
<pdfrwt beam="2">  1       -4 0.41089465E-02 0.12499944E+03</pdfrwt>
<totfact> 0.94900303E+03</totfact>
</mgrwt>
</event>
<event>
 5    1  0.3259432E-002  0.1249868E+03  0.7818608E-02  0.1235090E+00
          4   -1    0    0  501    0  0.00000000000E+00  0.00000000000E+00  0.33774665290E+03  0.33774904062E+03  0.12700000000E+01 0. -1.
         -4   -1    0    0    0  501 -0.00000000000E+00 -0.00000000000E+00 -0.11525866127E+02  0.11595623742E+02  0.12700000000E+01 0. -1.
         25    2    1    2    0    0  0.00000000000E+00  0.00000000000E+00  0.32622078677E+03  0.34934466437E+03  0.12498677050E+03 0.  0.
    9000005    1    3    3    0    0  0.55874597965E+02  0.23617162805E+01  0.85205348041E+02  0.10192398999E+03  0.10000000000E+01 0.  0.
    9000005    1    3    3    0    0 -0.55874597965E+02 -0.23617162805E+01  0.24101543873E+03  0.24742067437E+03  0.10000000000E+01 0.  0.
<mgrwt>
<rscale>  0 0.12498677E+03</rscale>
<asrwt>0</asrwt>
<pdfrwt beam="1">  1        4 0.51966562E-01 0.12498677E+03</pdfrwt>
<pdfrwt beam="2">  1       -4 0.17787602E-02 0.12498677E+03</pdfrwt>
<totfact> 0.69817156E+03</totfact>
</mgrwt>
</event>
<event>
 5    1  0.3259432E-002  0.1250005E+03  0.7818608E-02  0.1235069E+00
          4   -1    0    0  501    0  0.00000000000E+00  0.00000000000E+00  0.76759811949E+02  0.76770317379E+02  0.12700000000E+01 0. -1.
         -4   -1    0    0    0  501 -0.00000000000E+00 -0.00000000000E+00 -0.50867716314E+02  0.50883567711E+02  0.12700000000E+01 0. -1.
         25    2    1    2    0    0  0.00000000000E+00  0.00000000000E+00  0.25892095636E+02  0.12765388509E+03  0.12500045505E+03 0.  0.
    9000005    1    3    3    0    0  0.60518404113E+02 -0.15429654910E+02  0.10725740417E+02  0.63376596584E+02  0.10000000000E+01 0.  0.
    9000005    1    3    3    0    0 -0.60518404113E+02  0.15429654910E+02  0.15166355218E+02  0.64277288506E+02  0.10000000000E+01 0.  0.
<mgrwt>
<rscale>  0 0.12500046E+03</rscale>
<asrwt>0</asrwt>
<pdfrwt beam="1">  1        4 0.11811229E-01 0.12500046E+03</pdfrwt>
<pdfrwt beam="2">  1       -4 0.78278300E-02 0.12500046E+03</pdfrwt>
<totfact> 0.10394863E+04</totfact>
</mgrwt>
</event>
<event>
 4    1  0.3259432E-002  0.1251983E+03  0.7818608E-02  0.1234760E+00
          4   -1    0    0  501    0  0.00000000000E+00  0.00000000000E+00  0.80081150033E+02  0.80091219809E+02  0.12700000000E+01 0. -1.
         -4   -1    0    0    0  501 -0.00000000000E+00 -0.00000000000E+00 -0.48912151445E+02  0.48928636390E+02  0.12700000000E+01 0. -1.
    9000005    1    1    2    0    0 -0.33113593008E+02 -0.42868795307E+02 -0.16732090014E+02  0.56702790841E+02  0.10000000000E+01 0.  0.
    9000005    1    1    2    0    0  0.33113593008E+02  0.42868795307E+02  0.47901088601E+02  0.72317065359E+02  0.10000000000E+01 0.  0.
<mgrwt>
<rscale>  0 0.12519831E+03</rscale>
<asrwt>0</asrwt>
<pdfrwt beam="1">  1        4 0.12322220E-01 0.12519831E+03</pdfrwt>
<pdfrwt beam="2">  1       -4 0.75269891E-02 0.12519831E+03</pdfrwt>
<totfact> 0.10319254E+04</totfact>
</mgrwt>
</event>
<event>
 5    1  0.3259432E-002  0.1249966E+03  0.7818608E-02  0.1235075E+00
          4   -1    0    0  501    0  0.00000000000E+00  0.00000000000E+00  0.31715650780E+01  0.34163906457E+01  0.12700000000E+01 0. -1.
         -4   -1    0    0    0  501 -0.00000000000E+00 -0.00000000000E+00 -0.11855660788E+04  0.11855667590E+04  0.12700000000E+01 0. -1.
         25    2    1    2    0    0  0.00000000000E+00  0.00000000000E+00 -0.11823945137E+04  0.11889831497E+04  0.12499657642E+03 0.  0.
    9000005    1    3    3    0    0 -0.39368837760E+02 -0.35049878147E+02 -0.27191886611E+03  0.27698243463E+03  0.10000000000E+01 0.  0.
    9000005    1    3    3    0    0  0.39368837760E+02  0.35049878147E+02 -0.91047564762E+03  0.91200071505E+03  0.10000000000E+01 0.  0.
<mgrwt>
<rscale>  0 0.12499658E+03</rscale>
<asrwt>0</asrwt>
<pdfrwt beam="1">  1        4 0.50681910E-03 0.12499658E+03</pdfrwt>
<pdfrwt beam="2">  1       -4 0.18241333E+00 0.12499658E+03</pdfrwt>
<totfact> 0.25004873E+03</totfact>
</mgrwt>
</event>
<event>
 5    1  0.3259432E-002  0.1250019E+03  0.7818608E-02  0.1235066E+00
          4   -1    0    0  501    0  0.00000000000E+00  0.00000000000E+00  0.23114155804E+03  0.23114504701E+03  0.12700000000E+01 0. -1.
         -4   -1    0    0    0  501 -0.00000000000E+00 -0.00000000000E+00 -0.16872836958E+02  0.16920565209E+02  0.12700000000E+01 0. -1.
         25    2    1    2    0    0  0.00000000000E+00  0.00000000000E+00  0.21426872109E+03  0.24806561221E+03  0.12500185250E+03 0.  0.
    9000005    1    3    3    0    0 -0.51975374529E+02  0.26518389913E+02  0.15154013420E+03  0.16238865981E+03  0.10000000000E+01 0.  0.
    9000005    1    3    3    0    0  0.51975374529E+02 -0.26518389913E+02  0.62728586889E+02  0.85676952409E+02  0.10000000000E+01 0.  0.
<mgrwt>
<rscale>  0 0.12500185E+03</rscale>
<asrwt>0</asrwt>
<pdfrwt beam="1">  1        4 0.35564178E-01 0.12500185E+03</pdfrwt>
<pdfrwt beam="2">  1       -4 0.25997610E-02 0.12500185E+03</pdfrwt>
<totfact> 0.82607204E+03</totfact>
</mgrwt>
</event>
<event>
 5    1  0.3259432E-002  0.1250003E+03  0.7818608E-02  0.1235069E+00
          4   -1    0    0  501    0  0.00000000000E+00  0.00000000000E+00  0.71387012971E+01  0.72507900404E+01  0.12700000000E+01 0.  1.
         -4   -1    0    0    0  501 -0.00000000000E+00 -0.00000000000E+00 -0.54282048051E+03  0.54282196617E+03  0.12700000000E+01 0.  1.
         25    2    1    2    0    0  0.00000000000E+00  0.00000000000E+00 -0.53568177921E+03  0.55007275622E+03  0.12500027419E+03 0.  0.
    9000005    1    3    3    0    0 -0.55038230877E+02  0.25020690298E+02 -0.19825820505E+03  0.20727411240E+03  0.10000000000E+01 0.  0.
    9000005    1    3    3    0    0  0.55038230877E+02 -0.25020690298E+02 -0.33742357416E+03  0.34279864382E+03  0.10000000000E+01 0.  0.
<mgrwt>
<rscale>  0 0.12500027E+03</rscale>
<asrwt>0</asrwt>
<pdfrwt beam="1">  1        4 0.11069987E-02 0.12500027E+03</pdfrwt>
<pdfrwt beam="2">  1       -4 0.83519547E-01 0.12500027E+03</pdfrwt>
<totfact> 0.52178558E+03</totfact>
</mgrwt>
</event>
<event>
 5    1  0.3259432E-002  0.1250016E+03  0.7818608E-02  0.1235067E+00
         -4   -1    0    0    0  501 -0.00000000000E+00  0.00000000000E+00  0.66221328110E+02  0.66233505091E+02  0.12700000000E+01 0.  1.
          4   -1    0    0  501    0  0.00000000000E+00 -0.00000000000E+00 -0.58964905392E+02  0.58978580586E+02  0.12700000000E+01 0.  1.
         25    2    1    2    0    0  0.00000000000E+00  0.00000000000E+00  0.72564227176E+01  0.12521208568E+03  0.12500164290E+03 0.  0.
    9000005    1    3    3    0    0 -0.14313929907E+02  0.15870856852E+02  0.62451686918E+02  0.66015042872E+02  0.10000000000E+01 0.  0.
    9000005    1    3    3    0    0  0.14313929907E+02 -0.15870856852E+02 -0.55195264200E+02  0.59197042804E+02  0.10000000000E+01 0.  0.
<mgrwt>
<rscale>  0 0.12500164E+03</rscale>
<asrwt>0</asrwt>
<pdfrwt beam="2">  1        4 0.90735126E-02 0.12500164E+03</pdfrwt>
<pdfrwt beam="1">  1       -4 0.10189885E-01 0.12500164E+03</pdfrwt>
<totfact> 0.10447870E+04</totfact>
</mgrwt>
</event>
<event>
 5    1  0.3259432E-002  0.1249994E+03  0.7818608E-02  0.1235070E+00
          4   -1    0    0  501    0  0.00000000000E+00  0.00000000000E+00  0.24595765803E+02  0.24628532141E+02  0.12700000000E+01 0. -1.
         -4   -1    0    0    0  501 -0.00000000000E+00 -0.00000000000E+00 -0.15867535800E+03  0.15868044031E+03  0.12700000000E+01 0. -1.
         25    2    1    2    0    0  0.00000000000E+00  0.00000000000E+00 -0.13407959220E+03  0.18330897245E+03  0.12499936935E+03 0.  0.
    9000005    1    3    3    0    0  0.53168909780E+02  0.25862175223E+02 -0.96712925489E+02  0.11335861251E+03  0.10000000000E+01 0.  0.
    9000005    1    3    3    0    0 -0.53168909780E+02 -0.25862175223E+02 -0.37366666712E+02  0.69950359939E+02  0.10000000000E+01 0.  0.
<mgrwt>
<rscale>  0 0.12499937E+03</rscale>
<asrwt>0</asrwt>
<pdfrwt beam="1">  1        4 0.37868755E-02 0.12499937E+03</pdfrwt>
<pdfrwt beam="2">  1       -4 0.24414504E-01 0.12499937E+03</pdfrwt>
<totfact> 0.93026061E+03</totfact>
</mgrwt>
</event>
<event>
 5    1  0.3259432E-002  0.1250084E+03  0.7818608E-02  0.1235056E+00
         -4   -1    0    0    0  501 -0.00000000000E+00  0.00000000000E+00  0.12589505365E+03  0.12590145922E+03  0.12700000000E+01 0. -1.
          4   -1    0    0  501    0  0.00000000000E+00 -0.00000000000E+00 -0.31011804577E+02  0.31037798297E+02  0.12700000000E+01 0. -1.
         25    2    1    2    0    0  0.00000000000E+00  0.00000000000E+00  0.94883249071E+02  0.15693925751E+03  0.12500839810E+03 0.  0.
    9000005    1    3    3    0    0 -0.53566182076E+02  0.22413243843E+02  0.18428278867E+02  0.60928571490E+02  0.10000000000E+01 0.  0.
    9000005    1    3    3    0    0  0.53566182076E+02 -0.22413243843E+02  0.76454970204E+02  0.96010686023E+02  0.10000000000E+01 0.  0.
<mgrwt>
<rscale>  0 0.12500840E+03</rscale>
<asrwt>0</asrwt>
<pdfrwt beam="2">  1        4 0.47735391E-02 0.12500840E+03</pdfrwt>
<pdfrwt beam="1">  1       -4 0.19370962E-01 0.12500840E+03</pdfrwt>
<totfact> 0.97917647E+03</totfact>
</mgrwt>
</event>
<event>
 5    1  0.3259432E-002  0.1249999E+03  0.7818608E-02  0.1235069E+00
          4   -1    0    0  501    0  0.00000000000E+00  0.00000000000E+00  0.45050600450E+02  0.45068497877E+02  0.12700000000E+01 0.  1.
         -4   -1    0    0    0  501 -0.00000000000E+00 -0.00000000000E+00 -0.86668175211E+02  0.86677479742E+02  0.12700000000E+01 0.  1.
         25    2    1    2    0    0  0.00000000000E+00  0.00000000000E+00 -0.41617574761E+02  0.13174597762E+03  0.12499992036E+03 0.  0.
    9000005    1    3    3    0    0  0.65836567634E+01  0.40392283355E+02 -0.70584271742E+02  0.81596694224E+02  0.10000000000E+01 0.  0.
    9000005    1    3    3    0    0 -0.65836567634E+01 -0.40392283355E+02  0.28966696981E+02  0.50149283395E+02  0.10000000000E+01 0.  0.
<mgrwt>
<rscale>  0 0.12499992E+03</rscale>
<asrwt>0</asrwt>
<pdfrwt beam="1">  1        4 0.69329541E-02 0.12499992E+03</pdfrwt>
<pdfrwt beam="2">  1       -4 0.13335658E-01 0.12499992E+03</pdfrwt>
<totfact> 0.10307142E+04</totfact>
</mgrwt>
</event>
<event>
 5    1  0.3259432E-002  0.1250051E+03  0.7818608E-02  0.1235061E+00
         -4   -1    0    0    0  501 -0.00000000000E+00  0.00000000000E+00  0.19184751501E+03  0.19185171856E+03  0.12700000000E+01 0. -1.
          4   -1    0    0  501    0  0.00000000000E+00 -0.00000000000E+00 -0.20338647897E+02  0.20378260433E+02  0.12700000000E+01 0. -1.
         25    2    1    2    0    0  0.00000000000E+00  0.00000000000E+00  0.17150886711E+03  0.21222997900E+03  0.12500508984E+03 0.  0.
    9000005    1    3    3    0    0 -0.45083276137E+02  0.13509051461E+02  0.15947935302E+02  0.49702443592E+02  0.10000000000E+01 0.  0.
    9000005    1    3    3    0    0  0.45083276137E+02 -0.13509051461E+02  0.15556093181E+03  0.16252753541E+03  0.10000000000E+01 0.  0.
<mgrwt>
<rscale>  0 0.12500509E+03</rscale>
<asrwt>0</asrwt>
<pdfrwt beam="2">  1        4 0.31323931E-02 0.12500509E+03</pdfrwt>
<pdfrwt beam="1">  1       -4 0.29518374E-01 0.12500509E+03</pdfrwt>
<totfact> 0.88102961E+03</totfact>
</mgrwt>
</event>
<event>
 5    1  0.3259432E-002  0.1250086E+03  0.7818608E-02  0.1235056E+00
          4   -1    0    0  501    0  0.00000000000E+00  0.00000000000E+00  0.81411930253E+02  0.81421835447E+02  0.12700000000E+01 0.  1.
         -4   -1    0    0    0  501 -0.00000000000E+00 -0.00000000000E+00 -0.47966644087E+02  0.47983453866E+02  0.12700000000E+01 0.  1.
         25    2    1    2    0    0  0.00000000000E+00  0.00000000000E+00  0.33445286167E+02  0.12940528931E+03  0.12500856665E+03 0.  0.
    9000005    1    3    3    0    0 -0.56061826828E+02  0.26335422989E+02  0.81050355508E+01  0.62475391416E+02  0.10000000000E+01 0.  0.
    9000005    1    3    3    0    0  0.56061826828E+02 -0.26335422989E+02  0.25340250616E+02  0.66929897897E+02  0.10000000000E+01 0.  0.
<mgrwt>
<rscale>  0 0.12500857E+03</rscale>
<asrwt>0</asrwt>
<pdfrwt beam="1">  1        4 0.12526967E-01 0.12500857E+03</pdfrwt>
<pdfrwt beam="2">  1       -4 0.73815388E-02 0.12500857E+03</pdfrwt>
<totfact> 0.10355243E+04</totfact>
</mgrwt>
</event>
<event>
 5    1  0.3259432E-002  0.1250023E+03  0.7818608E-02  0.1235066E+00
         -4   -1    0    0    0  501 -0.00000000000E+00  0.00000000000E+00  0.39385292593E+02  0.39405763191E+02  0.12700000000E+01 0. -1.
          4   -1    0    0  501    0  0.00000000000E+00 -0.00000000000E+00 -0.99133816364E+02  0.99141950994E+02  0.12700000000E+01 0. -1.
         25    2    1    2    0    0  0.00000000000E+00  0.00000000000E+00 -0.59748523771E+02  0.13854771419E+03  0.12500233203E+03 0.  0.
    9000005    1    3    3    0    0 -0.80072114650E+00  0.15419916178E+02 -0.96991730262E+02  0.98218179114E+02  0.10000000000E+01 0.  0.
    9000005    1    3    3    0    0  0.80072114650E+00 -0.15419916178E+02  0.37243206491E+02  0.40329535071E+02  0.10000000000E+01 0.  0.
<mgrwt>
<rscale>  0 0.12500233E+03</rscale>
<asrwt>0</asrwt>
<pdfrwt beam="2">  1        4 0.15253557E-01 0.12500233E+03</pdfrwt>
<pdfrwt beam="1">  1       -4 0.60614763E-02 0.12500233E+03</pdfrwt>
<totfact> 0.10163240E+04</totfact>
</mgrwt>
</event>
<event>
 5    1  0.3259432E-002  0.1250023E+03  0.7818608E-02  0.1235066E+00
          4   -1    0    0  501    0  0.00000000000E+00  0.00000000000E+00  0.75028566689E+01  0.76095833128E+01  0.12700000000E+01 0. -1.
         -4   -1    0    0    0  501 -0.00000000000E+00 -0.00000000000E+00 -0.51686998981E+03  0.51687155006E+03  0.12700000000E+01 0. -1.
         25    2    1    2    0    0  0.00000000000E+00  0.00000000000E+00 -0.50936713314E+03  0.52448113337E+03  0.12500233176E+03 0.  0.
    9000005    1    3    3    0    0  0.10037563753E+02  0.38468471267E+02 -0.52378666971E+02  0.65765497956E+02  0.10000000000E+01 0.  0.
    9000005    1    3    3    0    0 -0.10037563753E+02 -0.38468471267E+02 -0.45698846617E+03  0.45871563542E+03  0.10000000000E+01 0.  0.
<mgrwt>
<rscale>  0 0.12500233E+03</rscale>
<asrwt>0</asrwt>
<pdfrwt beam="1">  1        4 0.11626158E-02 0.12500233E+03</pdfrwt>
<pdfrwt beam="2">  1       -4 0.79526762E-01 0.12500233E+03</pdfrwt>
<totfact> 0.54010978E+03</totfact>
</mgrwt>
</event>
<event>
 4    1  0.3259432E-002  0.1250833E+03  0.7818608E-02  0.1234939E+00
         -4   -1    0    0    0  501 -0.00000000000E+00  0.00000000000E+00  0.14481580642E+03  0.14482137511E+03  0.12700000000E+01 0. -1.
          4   -1    0    0  501    0  0.00000000000E+00 -0.00000000000E+00 -0.26988871348E+02  0.27018735659E+02  0.12700000000E+01 0. -1.
    9000005    1    1    2    0    0  0.12485853284E+02  0.61096050433E+02  0.52493908229E+02  0.81518306606E+02  0.10000000000E+01 0.  0.
    9000005    1    1    2    0    0 -0.12485853284E+02 -0.61096050433E+02  0.65333026838E+02  0.90321804160E+02  0.10000000000E+01 0.  0.
<mgrwt>
<rscale>  0 0.12508332E+03</rscale>
<asrwt>0</asrwt>
<pdfrwt beam="2">  1        4 0.41548596E-02 0.12508332E+03</pdfrwt>
<pdfrwt beam="1">  1       -4 0.22282081E-01 0.12508332E+03</pdfrwt>
<totfact> 0.94929163E+03</totfact>
</mgrwt>
</event>
<event>
 5    1  0.3259432E-002  0.1249996E+03  0.7818608E-02  0.1235070E+00
          4   -1    0    0  501    0  0.00000000000E+00  0.00000000000E+00  0.32355907112E+01  0.34759095573E+01  0.12700000000E+01 0.  1.
         -4   -1    0    0    0  501 -0.00000000000E+00 -0.00000000000E+00 -0.11637980159E+04  0.11637987089E+04  0.12700000000E+01 0.  1.
         25    2    1    2    0    0  0.00000000000E+00  0.00000000000E+00 -0.11605624252E+04  0.11672746184E+04  0.12499956804E+03 0.  0.
    9000005    1    3    3    0    0 -0.19560843677E+02  0.33155742709E+02 -0.12058862087E+03  0.12658809329E+03  0.10000000000E+01 0.  0.
    9000005    1    3    3    0    0  0.19560843677E+02 -0.33155742709E+02 -0.10399738043E+04  0.10406865251E+04  0.10000000000E+01 0.  0.
<mgrwt>
<rscale>  0 0.12499957E+03</rscale>
<asrwt>0</asrwt>
<pdfrwt beam="1">  1        4 0.51632348E-03 0.12499957E+03</pdfrwt>
<pdfrwt beam="2">  1       -4 0.17906407E+00 0.12499957E+03</pdfrwt>
<totfact> 0.25586056E+03</totfact>
</mgrwt>
</event>
<event>
 5    1  0.3259432E-002  0.1250030E+03  0.7818608E-02  0.1235065E+00
         -4   -1    0    0    0  501 -0.00000000000E+00  0.00000000000E+00  0.21244254593E+03  0.21244634198E+03  0.12700000000E+01 0.  1.
          4   -1    0    0  501    0  0.00000000000E+00 -0.00000000000E+00 -0.18362323408E+02  0.18406189745E+02  0.12700000000E+01 0.  1.
         25    2    1    2    0    0  0.00000000000E+00  0.00000000000E+00  0.19408022252E+03  0.23085253172E+03  0.12500303448E+03 0.  0.
    9000005    1    3    3    0    0  0.25829188599E+02 -0.64188257311E+01  0.20146201550E+03  0.20321489117E+03  0.10000000000E+01 0.  0.
    9000005    1    3    3    0    0 -0.25829188599E+02  0.64188257311E+01 -0.73817929782E+01  0.27637640547E+02  0.10000000000E+01 0.  0.
<mgrwt>
<rscale>  0 0.12500303E+03</rscale>
<asrwt>0</asrwt>
<pdfrwt beam="2">  1        4 0.28286392E-02 0.12500303E+03</pdfrwt>
<pdfrwt beam="1">  1       -4 0.32687135E-01 0.12500303E+03</pdfrwt>
<totfact> 0.85173094E+03</totfact>
</mgrwt>
</event>
<event>
 5    1  0.3259432E-002  0.1250020E+03  0.7818608E-02  0.1235066E+00
         -4   -1    0    0    0  501 -0.00000000000E+00  0.00000000000E+00  0.11026295930E+03  0.11027027293E+03  0.12700000000E+01 0.  1.
          4   -1    0    0  501    0  0.00000000000E+00 -0.00000000000E+00 -0.35407933341E+02  0.35430701990E+02  0.12700000000E+01 0.  1.
         25    2    1    2    0    0  0.00000000000E+00  0.00000000000E+00  0.74855025955E+02  0.14570097492E+03  0.12500199672E+03 0.  0.
    9000005    1    3    3    0    0  0.24707499406E+02  0.57343642158E+02  0.34428306182E+02  0.71309621296E+02  0.10000000000E+01 0.  0.
    9000005    1    3    3    0    0 -0.24707499406E+02 -0.57343642158E+02  0.40426719773E+02  0.74391353627E+02  0.10000000000E+01 0.  0.
<mgrwt>
<rscale>  0 0.12500200E+03</rscale>
<asrwt>0</asrwt>
<pdfrwt beam="2">  1        4 0.54496884E-02 0.12500200E+03</pdfrwt>
<pdfrwt beam="1">  1       -4 0.16965846E-01 0.12500200E+03</pdfrwt>
<totfact> 0.10016315E+04</totfact>
</mgrwt>
</event>
<event>
 5    1  0.3259432E-002  0.1249943E+03  0.7818608E-02  0.1235078E+00
         -4   -1    0    0    0  501 -0.00000000000E+00  0.00000000000E+00  0.73225460201E+02  0.73236472618E+02  0.12700000000E+01 0.  1.
          4   -1    0    0  501    0  0.00000000000E+00 -0.00000000000E+00 -0.53318030131E+02  0.53333153263E+02  0.12700000000E+01 0.  1.
         25    2    1    2    0    0  0.00000000000E+00  0.00000000000E+00  0.19907430070E+02  0.12656962588E+03  0.12499425756E+03 0.  0.
    9000005    1    3    3    0    0  0.21475177227E+02 -0.58005349080E+02  0.94852381436E+00  0.61868436672E+02  0.10000000000E+01 0.  0.
    9000005    1    3    3    0    0 -0.21475177227E+02  0.58005349080E+02  0.18958906256E+02  0.64701189210E+02  0.10000000000E+01 0.  0.
<mgrwt>
<rscale>  0 0.12499426E+03</rscale>
<asrwt>0</asrwt>
<pdfrwt beam="2">  1        4 0.82047843E-02 0.12499426E+03</pdfrwt>
<pdfrwt beam="1">  1       -4 0.11267466E-01 0.12499426E+03</pdfrwt>
<totfact> 0.10419861E+04</totfact>
</mgrwt>
</event>
<event>
 5    1  0.3259432E-002  0.1249992E+03  0.7818608E-02  0.1235071E+00
         -4   -1    0    0    0  501 -0.00000000000E+00  0.00000000000E+00  0.15218908915E+02  0.15271806985E+02  0.12700000000E+01 0.  1.
          4   -1    0    0  501    0  0.00000000000E+00 -0.00000000000E+00 -0.25616784212E+03  0.25617099023E+03  0.12700000000E+01 0.  1.
         25    2    1    2    0    0  0.00000000000E+00  0.00000000000E+00 -0.24094893320E+03  0.27144279721E+03  0.12499921499E+03 0.  0.
    9000005    1    3    3    0    0  0.56413709947E+01 -0.55521933673E+02 -0.18153693636E+03  0.18992411497E+03  0.10000000000E+01 0.  0.
    9000005    1    3    3    0    0 -0.56413709947E+01  0.55521933673E+02 -0.59411996841E+02  0.81518682240E+02  0.10000000000E+01 0.  0.
<mgrwt>
<rscale>  0 0.12499921E+03</rscale>
<asrwt>0</asrwt>
<pdfrwt beam="2">  1        4 0.39414746E-01 0.12499921E+03</pdfrwt>
<pdfrwt beam="1">  1       -4 0.23456820E-02 0.12499921E+03</pdfrwt>
<totfact> 0.79327956E+03</totfact>
</mgrwt>
</event>
<event>
 5    1  0.3259432E-002  0.1249969E+03  0.7818608E-02  0.1235074E+00
          4   -1    0    0  501    0  0.00000000000E+00  0.00000000000E+00  0.27171721329E+02  0.27201384891E+02  0.12700000000E+01 0. -1.
         -4   -1    0    0    0  501 -0.00000000000E+00 -0.00000000000E+00 -0.14364366729E+03  0.14364928142E+03  0.12700000000E+01 0. -1.
         25    2    1    2    0    0  0.00000000000E+00  0.00000000000E+00 -0.11647194596E+03  0.17085066631E+03  0.12499694390E+03 0.  0.
    9000005    1    3    3    0    0 -0.12883751439E+02 -0.16840303933E+02 -0.13858321575E+03  0.14019948136E+03  0.10000000000E+01 0.  0.
    9000005    1    3    3    0    0  0.12883751439E+02  0.16840303933E+02  0.22111269781E+02  0.30651184953E+02  0.10000000000E+01 0.  0.
<mgrwt>
<rscale>  0 0.12499694E+03</rscale>
<asrwt>0</asrwt>
<pdfrwt beam="1">  1        4 0.41829786E-02 0.12499694E+03</pdfrwt>
<pdfrwt beam="2">  1       -4 0.22101739E-01 0.12499694E+03</pdfrwt>
<totfact> 0.95296857E+03</totfact>
</mgrwt>
</event>
<event>
 5    1  0.3259432E-002  0.1250071E+03  0.7818608E-02  0.1235058E+00
          4   -1    0    0  501    0  0.00000000000E+00  0.00000000000E+00  0.19414243542E+02  0.19455738287E+02  0.12700000000E+01 0. -1.
         -4   -1    0    0    0  501 -0.00000000000E+00 -0.00000000000E+00 -0.20096981132E+03  0.20097382407E+03  0.12700000000E+01 0. -1.
         25    2    1    2    0    0  0.00000000000E+00  0.00000000000E+00 -0.18155556778E+03  0.22042956236E+03  0.12500707088E+03 0.  0.
    9000005    1    3    3    0    0  0.41952282117E+02  0.18096997575E+02 -0.16596702224E+03  0.17214397395E+03  0.10000000000E+01 0.  0.
    9000005    1    3    3    0    0 -0.41952282117E+02 -0.18096997575E+02 -0.15588545538E+02  0.48285588409E+02  0.10000000000E+01 0.  0.
<mgrwt>
<rscale>  0 0.12500707E+03</rscale>
<asrwt>0</asrwt>
<pdfrwt beam="1">  1        4 0.29903074E-02 0.12500707E+03</pdfrwt>
<pdfrwt beam="2">  1       -4 0.30921932E-01 0.12500707E+03</pdfrwt>
<totfact> 0.86786716E+03</totfact>
</mgrwt>
</event>
<event>
 5    1  0.3259432E-002  0.1250041E+03  0.7818608E-02  0.1235063E+00
         -4   -1    0    0    0  501 -0.00000000000E+00  0.00000000000E+00  0.10750226568E+03  0.10750976712E+03  0.12700000000E+01 0.  1.
          4   -1    0    0  501    0  0.00000000000E+00 -0.00000000000E+00 -0.36318959774E+02  0.36341157646E+02  0.12700000000E+01 0.  1.
         25    2    1    2    0    0  0.00000000000E+00  0.00000000000E+00  0.71183305907E+02  0.14385092477E+03  0.12500410200E+03 0.  0.
    9000005    1    3    3    0    0 -0.55778326567E+02  0.38364786565E+01  0.34613466977E+01  0.56026076108E+02  0.10000000000E+01 0.  0.
    9000005    1    3    3    0    0  0.55778326567E+02 -0.38364786565E+01  0.67721959210E+02  0.87824848660E+02  0.10000000000E+01 0.  0.
<mgrwt>
<rscale>  0 0.12500410E+03</rscale>
<asrwt>0</asrwt>
<pdfrwt beam="2">  1        4 0.55898169E-02 0.12500410E+03</pdfrwt>
<pdfrwt beam="1">  1       -4 0.16541095E-01 0.12500410E+03</pdfrwt>
<totfact> 0.10053459E+04</totfact>
</mgrwt>
</event>
<event>
 5    1  0.3259432E-002  0.1249441E+03  0.7818608E-02  0.1235157E+00
          4   -1    0    0  501    0  0.00000000000E+00  0.00000000000E+00  0.50732085325E+02  0.50747979087E+02  0.12700000000E+01 0. -1.
         -4   -1    0    0    0  501 -0.00000000000E+00 -0.00000000000E+00 -0.76895554715E+02  0.76906041602E+02  0.12700000000E+01 0. -1.
         25    2    1    2    0    0  0.00000000000E+00  0.00000000000E+00 -0.26163469390E+02  0.12765402069E+03  0.12494407496E+03 0.  0.
    9000005    1    3    3    0    0  0.21978619405E+02  0.56678727864E+02  0.15900065132E+01  0.60819947583E+02  0.10000000000E+01 0.  0.
    9000005    1    3    3    0    0 -0.21978619405E+02 -0.56678727864E+02 -0.27753475903E+02  0.66834073106E+02  0.10000000000E+01 0.  0.
<mgrwt>
<rscale>  0 0.12494407E+03</rscale>
<asrwt>0</asrwt>
<pdfrwt beam="1">  1        4 0.78069654E-02 0.12494407E+03</pdfrwt>
<pdfrwt beam="2">  1       -4 0.11832115E-01 0.12494407E+03</pdfrwt>
<totfact> 0.10408101E+04</totfact>
</mgrwt>
</event>
<event>
 4    1  0.3259432E-002  0.1248728E+03  0.7818608E-02  0.1235268E+00
          4   -1    0    0  501    0  0.00000000000E+00  0.00000000000E+00  0.28764217429E+03  0.28764497794E+03  0.12700000000E+01 0. -1.
         -4   -1    0    0    0  501 -0.00000000000E+00 -0.00000000000E+00 -0.13519983943E+02  0.13579501678E+02  0.12700000000E+01 0. -1.
    9000005    1    1    2    0    0  0.38244901141E+02 -0.21078141955E+01  0.25597766552E+03  0.25882944305E+03  0.10000000000E+01 0.  0.
    9000005    1    1    2    0    0 -0.38244901141E+02  0.21078141955E+01  0.18144524829E+02  0.42395036564E+02  0.10000000000E+01 0.  0.
<mgrwt>
<rscale>  0 0.12487278E+03</rscale>
<asrwt>0</asrwt>
<pdfrwt beam="1">  1        4 0.44257437E-01 0.12487278E+03</pdfrwt>
<pdfrwt beam="2">  1       -4 0.20847915E-02 0.12487278E+03</pdfrwt>
<totfact> 0.75658944E+03</totfact>
</mgrwt>
</event>
<event>
 5    1  0.3259432E-002  0.1250008E+03  0.7818608E-02  0.1235068E+00
          4   -1    0    0  501    0  0.00000000000E+00  0.00000000000E+00  0.40254051967E+03  0.40254252307E+03  0.12700000000E+01 0. -1.
         -4   -1    0    0    0  501 -0.00000000000E+00 -0.00000000000E+00 -0.96605253855E+01  0.97436466851E+01  0.12700000000E+01 0. -1.
         25    2    1    2    0    0  0.00000000000E+00  0.00000000000E+00  0.39287999429E+03  0.41228616975E+03  0.12500078343E+03 0.  0.
    9000005    1    3    3    0    0  0.44150900720E+02  0.36540702617E+02  0.27861747065E+03  0.28445249152E+03  0.10000000000E+01 0.  0.
    9000005    1    3    3    0    0 -0.44150900720E+02 -0.36540702617E+02  0.11426252364E+03  0.12783367823E+03  0.10000000000E+01 0.  0.
<mgrwt>
<rscale>  0 0.12500078E+03</rscale>
<asrwt>0</asrwt>
<pdfrwt beam="1">  1        4 0.61935865E-01 0.12500078E+03</pdfrwt>
<pdfrwt beam="2">  1       -4 0.14927826E-02 0.12500078E+03</pdfrwt>
<totfact> 0.63374037E+03</totfact>
</mgrwt>
</event>
<event>
 5    1  0.3259432E-002  0.1249963E+03  0.7818608E-02  0.1235075E+00
         -4   -1    0    0    0  501 -0.00000000000E+00  0.00000000000E+00  0.50774899667E+02  0.50790780032E+02  0.12700000000E+01 0. -1.
          4   -1    0    0  501    0  0.00000000000E+00 -0.00000000000E+00 -0.76894975275E+02  0.76905462241E+02  0.12700000000E+01 0. -1.
         25    2    1    2    0    0  0.00000000000E+00  0.00000000000E+00 -0.26120075608E+02  0.12769624227E+03  0.12499628771E+03 0.  0.
    9000005    1    3    3    0    0 -0.43819709263E+02  0.44100625764E+02 -0.66000114322E+01  0.62526732392E+02  0.10000000000E+01 0.  0.
    9000005    1    3    3    0    0  0.43819709263E+02 -0.44100625764E+02 -0.19520064175E+02  0.65169509881E+02  0.10000000000E+01 0.  0.
<mgrwt>
<rscale>  0 0.12499629E+03</rscale>
<asrwt>0</asrwt>
<pdfrwt beam="2">  1        4 0.11832024E-01 0.12499629E+03</pdfrwt>
<pdfrwt beam="1">  1       -4 0.78135513E-02 0.12499629E+03</pdfrwt>
<totfact> 0.10394924E+04</totfact>
</mgrwt>
</event>
<event>
 5    1  0.3259432E-002  0.1249995E+03  0.7818608E-02  0.1235070E+00
          4   -1    0    0  501    0  0.00000000000E+00  0.00000000000E+00  0.12186547035E+03  0.12187208772E+03  0.12700000000E+01 0.  1.
         -4   -1    0    0    0  501 -0.00000000000E+00 -0.00000000000E+00 -0.32033467763E+02  0.32058633111E+02  0.12700000000E+01 0.  1.
         25    2    1    2    0    0  0.00000000000E+00  0.00000000000E+00  0.89832002590E+02  0.15393072083E+03  0.12499951250E+03 0.  0.
    9000005    1    3    3    0    0  0.14703302972E+02 -0.60658069272E+02  0.41094326796E+02  0.74735079989E+02  0.10000000000E+01 0.  0.
    9000005    1    3    3    0    0 -0.14703302972E+02  0.60658069272E+02  0.48737675793E+02  0.79195640838E+02  0.10000000000E+01 0.  0.
<mgrwt>
<rscale>  0 0.12499951E+03</rscale>
<asrwt>0</asrwt>
<pdfrwt beam="1">  1        4 0.18750979E-01 0.12499951E+03</pdfrwt>
<pdfrwt beam="2">  1       -4 0.49306706E-02 0.12499951E+03</pdfrwt>
<totfact> 0.98526902E+03</totfact>
</mgrwt>
</event>
<event>
 5    1  0.3259432E-002  0.1250106E+03  0.7818608E-02  0.1235053E+00
          4   -1    0    0  501    0  0.00000000000E+00  0.00000000000E+00  0.41377146171E+02  0.41396631810E+02  0.12700000000E+01 0.  1.
         -4   -1    0    0    0  501 -0.00000000000E+00 -0.00000000000E+00 -0.94376015527E+02  0.94384560214E+02  0.12700000000E+01 0.  1.
         25    2    1    2    0    0  0.00000000000E+00  0.00000000000E+00 -0.52998869357E+02  0.13578119202E+03  0.12501060737E+03 0.  0.
    9000005    1    3    3    0    0 -0.41452773928E+02 -0.28294253595E+02  0.13951954986E+02  0.52101384825E+02  0.10000000000E+01 0.  0.
    9000005    1    3    3    0    0  0.41452773928E+02  0.28294253595E+02 -0.66950824342E+02  0.83679807199E+02  0.10000000000E+01 0.  0.
<mgrwt>
<rscale>  0 0.12501061E+03</rscale>
<asrwt>0</asrwt>
<pdfrwt beam="1">  1        4 0.63678710E-02 0.12501061E+03</pdfrwt>
<pdfrwt beam="2">  1       -4 0.14521543E-01 0.12501061E+03</pdfrwt>
<totfact> 0.10219187E+04</totfact>
</mgrwt>
</event>
<event>
 5    1  0.3259432E-002  0.1249981E+03  0.7818608E-02  0.1235072E+00
          4   -1    0    0  501    0  0.00000000000E+00  0.00000000000E+00  0.34012669478E+02  0.34036371502E+02  0.12700000000E+01 0. -1.
         -4   -1    0    0    0  501 -0.00000000000E+00 -0.00000000000E+00 -0.11477616322E+03  0.11478318929E+03  0.12700000000E+01 0. -1.
         25    2    1    2    0    0  0.00000000000E+00  0.00000000000E+00 -0.80763493743E+02  0.14881956079E+03  0.12499807900E+03 0.  0.
    9000005    1    3    3    0    0  0.60497300081E+02  0.48347998415E+01 -0.22649322227E+02  0.64786498624E+02  0.10000000000E+01 0.  0.
    9000005    1    3    3    0    0 -0.60497300081E+02 -0.48347998415E+01 -0.58114171516E+02  0.84033062169E+02  0.10000000000E+01 0.  0.
<mgrwt>
<rscale>  0 0.12499808E+03</rscale>
<asrwt>0</asrwt>
<pdfrwt beam="1">  1        4 0.52350821E-02 0.12499808E+03</pdfrwt>
<pdfrwt beam="2">  1       -4 0.17660235E-01 0.12499808E+03</pdfrwt>
<totfact> 0.99543827E+03</totfact>
</mgrwt>
</event>
<event>
 5    1  0.3259432E-002  0.1249991E+03  0.7818608E-02  0.1235071E+00
         -4   -1    0    0    0  501 -0.00000000000E+00  0.00000000000E+00  0.84242396101E+02  0.84251968528E+02  0.12700000000E+01 0.  1.
          4   -1    0    0  501    0  0.00000000000E+00 -0.00000000000E+00 -0.46347604235E+02  0.46365001006E+02  0.12700000000E+01 0.  1.
         25    2    1    2    0    0  0.00000000000E+00  0.00000000000E+00  0.37894791866E+02  0.13061696953E+03  0.12499910992E+03 0.  0.
    9000005    1    3    3    0    0  0.55446903037E+01  0.30855753578E+02 -0.37541166795E+02  0.48919937896E+02  0.10000000000E+01 0.  0.
    9000005    1    3    3    0    0 -0.55446903037E+01 -0.30855753578E+02  0.75435958661E+02  0.81697031639E+02  0.10000000000E+01 0.  0.
<mgrwt>
<rscale>  0 0.12499911E+03</rscale>
<asrwt>0</asrwt>
<pdfrwt beam="2">  1        4 0.71324752E-02 0.12499911E+03</pdfrwt>
<pdfrwt beam="1">  1       -4 0.12962443E-01 0.12499911E+03</pdfrwt>
<totfact> 0.10331515E+04</totfact>
</mgrwt>
</event>
<event>
 5    1  0.3259432E-002  0.1250002E+03  0.7818608E-02  0.1235069E+00
         -4   -1    0    0    0  501 -0.00000000000E+00  0.00000000000E+00  0.19745382035E+04  0.19745386119E+04  0.12700000000E+01 0. -1.
          4   -1    0    0  501    0  0.00000000000E+00 -0.00000000000E+00 -0.17740445357E+01  0.21817731355E+01  0.12700000000E+01 0. -1.
         25    2    1    2    0    0  0.00000000000E+00  0.00000000000E+00  0.19727641589E+04  0.19767203850E+04  0.12500021527E+03 0.  0.
    9000005    1    3    3    0    0  0.82525731943E+01 -0.54888012480E+02  0.14404496443E+04  0.14415189824E+04  0.10000000000E+01 0.  0.
    9000005    1    3    3    0    0 -0.82525731943E+01  0.54888012480E+02  0.53231451462E+03  0.53520140260E+03  0.10000000000E+01 0.  0.
<mgrwt>
<rscale>  0 0.12500022E+03</rscale>
<asrwt>0</asrwt>
<pdfrwt beam="2">  1        4 0.30432545E-03 0.12500022E+03</pdfrwt>
<pdfrwt beam="1">  1       -4 0.30380614E+00 0.12500022E+03</pdfrwt>
<totfact> 0.10168181E+03</totfact>
</mgrwt>
</event>
<event>
 5    1  0.3259432E-002  0.1250085E+03  0.7818608E-02  0.1235056E+00
          4   -1    0    0  501    0  0.00000000000E+00  0.00000000000E+00  0.30828523276E+02  0.30854671402E+02  0.12700000000E+01 0. -1.
         -4   -1    0    0    0  501 -0.00000000000E+00 -0.00000000000E+00 -0.12664312822E+03  0.12664949595E+03  0.12700000000E+01 0. -1.
         25    2    1    2    0    0  0.00000000000E+00  0.00000000000E+00 -0.95814604942E+02  0.15750416735E+03  0.12500849657E+03 0.  0.
    9000005    1    3    3    0    0  0.58604922698E+02 -0.18107552001E+02 -0.62993072986E+02  0.87929219536E+02  0.10000000000E+01 0.  0.
    9000005    1    3    3    0    0 -0.58604922698E+02  0.18107552001E+02 -0.32821531955E+02  0.69574947818E+02  0.10000000000E+01 0.  0.
<mgrwt>
<rscale>  0 0.12500850E+03</rscale>
<asrwt>0</asrwt>
<pdfrwt beam="1">  1        4 0.47453510E-02 0.12500850E+03</pdfrwt>
<pdfrwt beam="2">  1       -4 0.19486059E-01 0.12500850E+03</pdfrwt>
<totfact> 0.97807445E+03</totfact>
</mgrwt>
</event>
<event>
 5    1  0.3259432E-002  0.1249998E+03  0.7818608E-02  0.1235070E+00
          4   -1    0    0  501    0  0.00000000000E+00  0.00000000000E+00  0.56560626238E+03  0.56560768819E+03  0.12700000000E+01 0. -1.
         -4   -1    0    0    0  501 -0.00000000000E+00 -0.00000000000E+00 -0.68464573946E+01  0.69632520316E+01  0.12700000000E+01 0. -1.
         25    2    1    2    0    0  0.00000000000E+00  0.00000000000E+00  0.55875980498E+03  0.57257094022E+03  0.12499984769E+03 0.  0.
    9000005    1    3    3    0    0 -0.36666066607E+02 -0.21232843157E+02  0.68972165161E+02  0.80953033519E+02  0.10000000000E+01 0.  0.
    9000005    1    3    3    0    0  0.36666066607E+02  0.21232843157E+02  0.48978763982E+03  0.49161790670E+03  0.10000000000E+01 0.  0.
<mgrwt>
<rscale>  0 0.12499985E+03</rscale>
<asrwt>0</asrwt>
<pdfrwt beam="1">  1        4 0.87025436E-01 0.12499985E+03</pdfrwt>
<pdfrwt beam="2">  1       -4 0.10623951E-02 0.12499985E+03</pdfrwt>
<totfact> 0.50646256E+03</totfact>
</mgrwt>
</event>
<event>
 5    1  0.3259432E-002  0.1250272E+03  0.7818608E-02  0.1235027E+00
         -4   -1    0    0    0  501 -0.00000000000E+00  0.00000000000E+00  0.22150952815E+01  0.25533403820E+01  0.12700000000E+01 0.  1.
          4   -1    0    0  501    0  0.00000000000E+00 -0.00000000000E+00 -0.16387523057E+04  0.16387527978E+04  0.12700000000E+01 0.  1.
         25    2    1    2    0    0  0.00000000000E+00  0.00000000000E+00 -0.16365372104E+04  0.16413061382E+04  0.12502718980E+03 0.  0.
    9000005    1    3    3    0    0  0.19877803297E+02  0.58110689351E+02 -0.97078066148E+03  0.97272199111E+03  0.10000000000E+01 0.  0.
    9000005    1    3    3    0    0 -0.19877803297E+02 -0.58110689351E+02 -0.66575654893E+03  0.66858414708E+03  0.10000000000E+01 0.  0.
<mgrwt>
<rscale>  0 0.12502719E+03</rscale>
<asrwt>0</asrwt>
<pdfrwt beam="2">  1        4 0.25214089E+00 0.12502719E+03</pdfrwt>
<pdfrwt beam="1">  1       -4 0.36684191E-03 0.12502719E+03</pdfrwt>
<totfact> 0.15302045E+03</totfact>
</mgrwt>
</event>
<event>
 5    1  0.3259432E-002  0.1249999E+03  0.7818608E-02  0.1235069E+00
          4   -1    0    0  501    0  0.00000000000E+00  0.00000000000E+00  0.83757313852E+01  0.84714683637E+01  0.12700000000E+01 0.  1.
         -4   -1    0    0    0  501 -0.00000000000E+00 -0.00000000000E+00 -0.46362947336E+03  0.46363121278E+03  0.12700000000E+01 0.  1.
         25    2    1    2    0    0  0.00000000000E+00  0.00000000000E+00 -0.45525374197E+03  0.47210268114E+03  0.12499988786E+03 0.  0.
    9000005    1    3    3    0    0 -0.60119973873E+02 -0.35144749852E+01 -0.16460025303E+03  0.17527408847E+03  0.10000000000E+01 0.  0.
    9000005    1    3    3    0    0  0.60119973873E+02  0.35144749852E+01 -0.29065348894E+03  0.29682859267E+03  0.10000000000E+01 0.  0.
<mgrwt>
<rscale>  0 0.12499989E+03</rscale>
<asrwt>0</asrwt>
<pdfrwt beam="1">  1        4 0.12960726E-02 0.12499989E+03</pdfrwt>
<pdfrwt beam="2">  1       -4 0.71335089E-01 0.12499989E+03</pdfrwt>
<totfact> 0.58095894E+03</totfact>
</mgrwt>
</event>
<event>
 5    1  0.3259432E-002  0.1250039E+03  0.7818608E-02  0.1235063E+00
          4   -1    0    0  501    0  0.00000000000E+00  0.00000000000E+00  0.50219715448E+03  0.50219876032E+03  0.12700000000E+01 0. -1.
         -4   -1    0    0    0  501 -0.00000000000E+00 -0.00000000000E+00 -0.77253428387E+01  0.78290371040E+01  0.12700000000E+01 0. -1.
         25    2    1    2    0    0  0.00000000000E+00  0.00000000000E+00  0.49447181164E+03  0.51002779743E+03  0.12500392649E+03 0.  0.
    9000005    1    3    3    0    0  0.53279257851E+02  0.78142409143E+01  0.11784134587E+03  0.12956590784E+03  0.10000000000E+01 0.  0.
    9000005    1    3    3    0    0 -0.53279257851E+02 -0.78142409143E+01  0.37663046578E+03  0.38046188959E+03  0.10000000000E+01 0.  0.
<mgrwt>
<rscale>  0 0.12500393E+03</rscale>
<asrwt>0</asrwt>
<pdfrwt beam="1">  1        4 0.77269159E-01 0.12500393E+03</pdfrwt>
<pdfrwt beam="2">  1       -4 0.11966149E-02 0.12500393E+03</pdfrwt>
<totfact> 0.55089905E+03</totfact>
</mgrwt>
</event>
<event>
 5    1  0.3259432E-002  0.1249937E+03  0.7818608E-02  0.1235079E+00
         -4   -1    0    0    0  501 -0.00000000000E+00  0.00000000000E+00  0.11544851207E+03  0.11545549722E+03  0.12700000000E+01 0. -1.
          4   -1    0    0  501    0  0.00000000000E+00 -0.00000000000E+00 -0.33812082621E+02  0.33835925156E+02  0.12700000000E+01 0. -1.
         25    2    1    2    0    0  0.00000000000E+00  0.00000000000E+00  0.81636429444E+02  0.14929142238E+03  0.12499368857E+03 0.  0.
    9000005    1    3    3    0    0  0.47167153021E+02  0.30766544512E+02  0.84694888193E+01  0.56956587206E+02  0.10000000000E+01 0.  0.
    9000005    1    3    3    0    0 -0.47167153021E+02 -0.30766544512E+02  0.73166940625E+02  0.92334835169E+02  0.10000000000E+01 0.  0.
<mgrwt>
<rscale>  0 0.12499369E+03</rscale>
<asrwt>0</asrwt>
<pdfrwt beam="2">  1        4 0.52042302E-02 0.12499369E+03</pdfrwt>
<pdfrwt beam="1">  1       -4 0.17763681E-01 0.12499369E+03</pdfrwt>
<totfact> 0.99459258E+03</totfact>
</mgrwt>
</event>
<event>
 5    1  0.3259432E-002  0.1249987E+03  0.7818608E-02  0.1235071E+00
         -4   -1    0    0    0  501 -0.00000000000E+00  0.00000000000E+00  0.32428152137E+02  0.32453011432E+02  0.12700000000E+01 0. -1.
          4   -1    0    0  501    0  0.00000000000E+00 -0.00000000000E+00 -0.12038165254E+03  0.12038835147E+03  0.12700000000E+01 0. -1.
         25    2    1    2    0    0  0.00000000000E+00  0.00000000000E+00 -0.87953500405E+02  0.15284136290E+03  0.12499865591E+03 0.  0.
    9000005    1    3    3    0    0 -0.56543295694E+02  0.25994130039E+02 -0.37024623830E+02  0.72420037656E+02  0.10000000000E+01 0.  0.
    9000005    1    3    3    0    0  0.56543295694E+02 -0.25994130039E+02 -0.50928876575E+02  0.80421325241E+02  0.10000000000E+01 0.  0.
<mgrwt>
<rscale>  0 0.12499866E+03</rscale>
<asrwt>0</asrwt>
<pdfrwt beam="2">  1        4 0.18522682E-01 0.12499866E+03</pdfrwt>
<pdfrwt beam="1">  1       -4 0.49913741E-02 0.12499866E+03</pdfrwt>
<totfact> 0.98743287E+03</totfact>
</mgrwt>
</event>
<event>
 5    1  0.3259432E-002  0.1249961E+03  0.7818608E-02  0.1235075E+00
          4   -1    0    0  501    0  0.00000000000E+00  0.00000000000E+00  0.75364715979E+02  0.75375415850E+02  0.12700000000E+01 0.  1.
         -4   -1    0    0    0  501 -0.00000000000E+00 -0.00000000000E+00 -0.51805886636E+02  0.51821451062E+02  0.12700000000E+01 0.  1.
         25    2    1    2    0    0  0.00000000000E+00  0.00000000000E+00  0.23558829342E+02  0.12719686691E+03  0.12499609799E+03 0.  0.
    9000005    1    3    3    0    0  0.58716229694E+02  0.21114060601E+02  0.15246295346E+02  0.64240553440E+02  0.10000000000E+01 0.  0.
    9000005    1    3    3    0    0 -0.58716229694E+02 -0.21114060601E+02  0.83125339969E+01  0.62956313472E+02  0.10000000000E+01 0.  0.
<mgrwt>
<rscale>  0 0.12499610E+03</rscale>
<asrwt>0</asrwt>
<pdfrwt beam="1">  1        4 0.11596592E-01 0.12499610E+03</pdfrwt>
<pdfrwt beam="2">  1       -4 0.79721568E-02 0.12499610E+03</pdfrwt>
<totfact> 0.10405788E+04</totfact>
</mgrwt>
</event>
<event>
 5    1  0.3259432E-002  0.1250040E+03  0.7818608E-02  0.1235063E+00
         -4   -1    0    0    0  501 -0.00000000000E+00  0.00000000000E+00  0.11928643430E+02  0.11996059107E+02  0.12700000000E+01 0.  1.
          4   -1    0    0  501    0  0.00000000000E+00 -0.00000000000E+00 -0.32649749302E+03  0.32649996301E+03  0.12700000000E+01 0.  1.
         25    2    1    2    0    0  0.00000000000E+00  0.00000000000E+00 -0.31456884959E+03  0.33849602212E+03  0.12500398337E+03 0.  0.
    9000005    1    3    3    0    0 -0.15261513413E+02  0.19376967901E+02 -0.31277246191E+03  0.31374510930E+03  0.10000000000E+01 0.  0.
    9000005    1    3    3    0    0  0.15261513413E+02 -0.19376967901E+02 -0.17963876714E+01  0.24750912819E+02  0.10000000000E+01 0.  0.
<mgrwt>
<rscale>  0 0.12500398E+03</rscale>
<asrwt>0</asrwt>
<pdfrwt beam="2">  1        4 0.50235753E-01 0.12500398E+03</pdfrwt>
<pdfrwt beam="1">  1       -4 0.18405520E-02 0.12500398E+03</pdfrwt>
<totfact> 0.71002695E+03</totfact>
</mgrwt>
</event>
<event>
 5    1  0.3259432E-002  0.1249993E+03  0.7818608E-02  0.1235070E+00
          4   -1    0    0  501    0  0.00000000000E+00  0.00000000000E+00  0.68286502668E+01  0.69457443421E+01  0.12700000000E+01 0. -1.
         -4   -1    0    0    0  501 -0.00000000000E+00 -0.00000000000E+00 -0.56705154141E+03  0.56705296359E+03  0.12700000000E+01 0. -1.
         25    2    1    2    0    0  0.00000000000E+00  0.00000000000E+00 -0.56022289115E+03  0.57399870794E+03  0.12499931578E+03 0.  0.
    9000005    1    3    3    0    0  0.41954164436E+02 -0.36023851978E+02 -0.41378068284E+03  0.41746056499E+03  0.10000000000E+01 0.  0.
    9000005    1    3    3    0    0 -0.41954164436E+02  0.36023851978E+02 -0.14644220830E+03  0.15653814295E+03  0.10000000000E+01 0.  0.
<mgrwt>
<rscale>  0 0.12499932E+03</rscale>
<asrwt>0</asrwt>
<pdfrwt beam="1">  1        4 0.10596787E-02 0.12499932E+03</pdfrwt>
<pdfrwt beam="2">  1       -4 0.87247778E-01 0.12499932E+03</pdfrwt>
<totfact> 0.50551899E+03</totfact>
</mgrwt>
</event>
<event>
 5    1  0.3259432E-002  0.1249973E+03  0.7818608E-02  0.1235073E+00
         -4   -1    0    0    0  501 -0.00000000000E+00  0.00000000000E+00  0.17849013790E+03  0.17849465601E+03  0.12700000000E+01 0.  1.
          4   -1    0    0  501    0  0.00000000000E+00 -0.00000000000E+00 -0.21860795933E+02  0.21897655099E+02  0.12700000000E+01 0.  1.
         25    2    1    2    0    0  0.00000000000E+00  0.00000000000E+00  0.15662934196E+03  0.20039231111E+03  0.12499731033E+03 0.  0.
    9000005    1    3    3    0    0 -0.12448158641E+02  0.81230983018E+01 -0.18993313938E+02  0.24138917828E+02  0.10000000000E+01 0.  0.
    9000005    1    3    3    0    0  0.12448158641E+02 -0.81230983018E+01  0.17562265590E+03  0.17625339329E+03  0.10000000000E+01 0.  0.
<mgrwt>
<rscale>  0 0.12499731E+03</rscale>
<asrwt>0</asrwt>
<pdfrwt beam="2">  1        4 0.33663821E-02 0.12499731E+03</pdfrwt>
<pdfrwt beam="1">  1       -4 0.27463205E-01 0.12499731E+03</pdfrwt>
<totfact> 0.90074801E+03</totfact>
</mgrwt>
</event>
<event>
 5    1  0.3259432E-002  0.1250024E+03  0.7818608E-02  0.1235065E+00
          4   -1    0    0  501    0  0.00000000000E+00  0.00000000000E+00  0.16869656984E+02  0.16917394207E+02  0.12700000000E+01 0.  1.
         -4   -1    0    0    0  501 -0.00000000000E+00 -0.00000000000E+00 -0.23118710634E+03  0.23119059462E+03  0.12700000000E+01 0.  1.
         25    2    1    2    0    0  0.00000000000E+00  0.00000000000E+00 -0.21431744936E+03  0.24810798882E+03  0.12500242005E+03 0.  0.
    9000005    1    3    3    0    0  0.55679010731E+02  0.14664596976E+02 -0.58939367105E+02  0.82401769612E+02  0.10000000000E+01 0.  0.
    9000005    1    3    3    0    0 -0.55679010731E+02 -0.14664596976E+02 -0.15537808225E+03  0.16570621921E+03  0.10000000000E+01 0.  0.
<mgrwt>
<rscale>  0 0.12500242E+03</rscale>
<asrwt>0</asrwt>
<pdfrwt beam="1">  1        4 0.25992724E-02 0.12500242E+03</pdfrwt>
<pdfrwt beam="2">  1       -4 0.35571185E-01 0.12500242E+03</pdfrwt>
<totfact> 0.82600001E+03</totfact>
</mgrwt>
</event>
<event>
 5    1  0.3259432E-002  0.1250009E+03  0.7818608E-02  0.1235068E+00
          4   -1    0    0  501    0  0.00000000000E+00  0.00000000000E+00  0.12761305843E+03  0.12761937777E+03  0.12700000000E+01 0.  1.
         -4   -1    0    0    0  501 -0.00000000000E+00 -0.00000000000E+00 -0.30590309517E+02  0.30616661090E+02  0.12700000000E+01 0.  1.
         25    2    1    2    0    0  0.00000000000E+00  0.00000000000E+00  0.97022748913E+02  0.15823603886E+03  0.12500092074E+03 0.  0.
    9000005    1    3    3    0    0 -0.56432228293E+02  0.58906993831E+01  0.81667034089E+02  0.99447479536E+02  0.10000000000E+01 0.  0.
    9000005    1    3    3    0    0  0.56432228293E+02 -0.58906993831E+01  0.15355714824E+02  0.58788559321E+02  0.10000000000E+01 0.  0.
<mgrwt>
<rscale>  0 0.12500092E+03</rscale>
<asrwt>0</asrwt>
<pdfrwt beam="1">  1        4 0.19635292E-01 0.12500092E+03</pdfrwt>
<pdfrwt beam="2">  1       -4 0.47087145E-02 0.12500092E+03</pdfrwt>
<totfact> 0.97681922E+03</totfact>
</mgrwt>
</event>
<event>
 5    1  0.3259432E-002  0.1249923E+03  0.7818608E-02  0.1235081E+00
          4   -1    0    0  501    0  0.00000000000E+00  0.00000000000E+00  0.83469613178E+01  0.84430245316E+01  0.12700000000E+01 0. -1.
         -4   -1    0    0    0  501 -0.00000000000E+00 -0.00000000000E+00 -0.46515258805E+03  0.46515432178E+03  0.12700000000E+01 0. -1.
         25    2    1    2    0    0  0.00000000000E+00  0.00000000000E+00 -0.45680562673E+03  0.47359734631E+03  0.12499226303E+03 0.  0.
    9000005    1    3    3    0    0  0.41952753734E+02  0.38548317092E+02 -0.32565285403E+03  0.33060064675E+03  0.10000000000E+01 0.  0.
    9000005    1    3    3    0    0 -0.41952753734E+02 -0.38548317092E+02 -0.13115277270E+03  0.14299669956E+03  0.10000000000E+01 0.  0.
<mgrwt>
<rscale>  0 0.12499226E+03</rscale>
<asrwt>0</asrwt>
<pdfrwt beam="1">  1        4 0.12916711E-02 0.12499226E+03</pdfrwt>
<pdfrwt beam="2">  1       -4 0.71569439E-01 0.12499226E+03</pdfrwt>
<totfact> 0.57982585E+03</totfact>
</mgrwt>
</event>
<event>
 5    1  0.3259432E-002  0.1250041E+03  0.7818608E-02  0.1235063E+00
         -4   -1    0    0    0  501 -0.00000000000E+00  0.00000000000E+00  0.84614678073E+01  0.85562455232E+01  0.12700000000E+01 0. -1.
          4   -1    0    0  501    0  0.00000000000E+00 -0.00000000000E+00 -0.45901509596E+03  0.45901685287E+03  0.12700000000E+01 0. -1.
         25    2    1    2    0    0  0.00000000000E+00  0.00000000000E+00 -0.45055362815E+03  0.46757309840E+03  0.12500412193E+03 0.  0.
    9000005    1    3    3    0    0 -0.17329977113E+02  0.34017383867E+02 -0.40209111750E+02  0.55455235818E+02  0.10000000000E+01 0.  0.
    9000005    1    3    3    0    0  0.17329977113E+02 -0.34017383867E+02 -0.41034451640E+03  0.41211786258E+03  0.10000000000E+01 0.  0.
<mgrwt>
<rscale>  0 0.12500412E+03</rscale>
<asrwt>0</asrwt>
<pdfrwt beam="2">  1        4 0.70625113E-01 0.12500412E+03</pdfrwt>
<pdfrwt beam="1">  1       -4 0.13091904E-02 0.12500412E+03</pdfrwt>
<totfact> 0.58465807E+03</totfact>
</mgrwt>
</event>
<event>
 5    1  0.3259432E-002  0.1249987E+03  0.7818608E-02  0.1235071E+00
          4   -1    0    0  501    0  0.00000000000E+00  0.00000000000E+00  0.40632330588E+03  0.40632529063E+03  0.12700000000E+01 0.  1.
         -4   -1    0    0    0  501 -0.00000000000E+00 -0.00000000000E+00 -0.95694816856E+01  0.96533869565E+01  0.12700000000E+01 0.  1.
         25    2    1    2    0    0  0.00000000000E+00  0.00000000000E+00  0.39675382420E+03  0.41597867758E+03  0.12499865275E+03 0.  0.
    9000005    1    3    3    0    0 -0.20963508430E+02  0.56732426965E+02  0.25069205972E+03  0.25788669171E+03  0.10000000000E+01 0.  0.
    9000005    1    3    3    0    0  0.20963508430E+02 -0.56732426965E+02  0.14606176448E+03  0.15809198587E+03  0.10000000000E+01 0.  0.
<mgrwt>
<rscale>  0 0.12499865E+03</rscale>
<asrwt>0</asrwt>
<pdfrwt beam="1">  1        4 0.62517880E-01 0.12499865E+03</pdfrwt>
<pdfrwt beam="2">  1       -4 0.14788350E-02 0.12499865E+03</pdfrwt>
<totfact> 0.63029709E+03</totfact>
</mgrwt>
</event>
<event>
 5    1  0.3259432E-002  0.1249991E+03  0.7818608E-02  0.1235071E+00
          4   -1    0    0  501    0  0.00000000000E+00  0.00000000000E+00  0.24072363970E+02  0.24105841763E+02  0.12700000000E+01 0.  1.
         -4   -1    0    0    0  501 -0.00000000000E+00 -0.00000000000E+00 -0.16212000017E+03  0.16212497449E+03  0.12700000000E+01 0.  1.
         25    2    1    2    0    0  0.00000000000E+00  0.00000000000E+00 -0.13804763620E+03  0.18623081625E+03  0.12499906825E+03 0.  0.
    9000005    1    3    3    0    0 -0.28893648086E+02  0.45874013769E+02 -0.11532757060E+03  0.12743907007E+03  0.10000000000E+01 0.  0.
    9000005    1    3    3    0    0  0.28893648086E+02 -0.45874013769E+02 -0.22720065595E+02  0.58791746186E+02  0.10000000000E+01 0.  0.
<mgrwt>
<rscale>  0 0.12499907E+03</rscale>
<asrwt>0</asrwt>
<pdfrwt beam="1">  1        4 0.37063986E-02 0.12499907E+03</pdfrwt>
<pdfrwt beam="2">  1       -4 0.24944496E-01 0.12499907E+03</pdfrwt>
<totfact> 0.92509239E+03</totfact>
</mgrwt>
</event>
<event>
 5    1  0.3259432E-002  0.1250496E+03  0.7818608E-02  0.1234992E+00
          4   -1    0    0  501    0  0.00000000000E+00  0.00000000000E+00  0.37255787737E+03  0.37256004199E+03  0.12700000000E+01 0.  1.
         -4   -1    0    0    0  501 -0.00000000000E+00 -0.00000000000E+00 -0.10452637222E+02  0.10529507343E+02  0.12700000000E+01 0.  1.
         25    2    1    2    0    0  0.00000000000E+00  0.00000000000E+00  0.36210524014E+03  0.38308954933E+03  0.12504958164E+03 0.  0.
    9000005    1    3    3    0    0  0.22697414890E+01 -0.50545089827E+02  0.68559467901E+02  0.85213604964E+02  0.10000000000E+01 0.  0.
    9000005    1    3    3    0    0 -0.22697414890E+01  0.50545089827E+02  0.29354577224E+03  0.29787594437E+03  0.10000000000E+01 0.  0.
<mgrwt>
<rscale>  0 0.12504958E+03</rscale>
<asrwt>0</asrwt>
<pdfrwt beam="1">  1        4 0.57322665E-01 0.12504958E+03</pdfrwt>
<pdfrwt beam="2">  1       -4 0.16141779E-02 0.12504958E+03</pdfrwt>
<totfact> 0.66158898E+03</totfact>
</mgrwt>
</event>
<event>
 5    1  0.3259432E-002  0.1250005E+03  0.7818608E-02  0.1235068E+00
          4   -1    0    0  501    0  0.00000000000E+00  0.00000000000E+00  0.30623298962E+02  0.30649622172E+02  0.12700000000E+01 0. -1.
         -4   -1    0    0    0  501 -0.00000000000E+00 -0.00000000000E+00 -0.12747491713E+03  0.12748124332E+03  0.12700000000E+01 0. -1.
         25    2    1    2    0    0  0.00000000000E+00  0.00000000000E+00 -0.96851618168E+02  0.15813086549E+03  0.12500053871E+03 0.  0.
    9000005    1    3    3    0    0  0.39862195646E+02  0.46544666224E+02 -0.32938318373E+02  0.69579691095E+02  0.10000000000E+01 0.  0.
    9000005    1    3    3    0    0 -0.39862195646E+02 -0.46544666224E+02 -0.63913299795E+02  0.88551174393E+02  0.10000000000E+01 0.  0.
<mgrwt>
<rscale>  0 0.12500054E+03</rscale>
<asrwt>0</asrwt>
<pdfrwt beam="1">  1        4 0.47137883E-02 0.12500054E+03</pdfrwt>
<pdfrwt beam="2">  1       -4 0.19614037E-01 0.12500054E+03</pdfrwt>
<totfact> 0.97703171E+03</totfact>
</mgrwt>
</event>
<event>
 5    1  0.3259432E-002  0.1250004E+03  0.7818608E-02  0.1235069E+00
         -4   -1    0    0    0  501 -0.00000000000E+00  0.00000000000E+00  0.14045692609E+03  0.14046266759E+03  0.12700000000E+01 0.  1.
          4   -1    0    0  501    0  0.00000000000E+00 -0.00000000000E+00 -0.27790362777E+02  0.27819366694E+02  0.12700000000E+01 0.  1.
         25    2    1    2    0    0  0.00000000000E+00  0.00000000000E+00  0.11266656332E+03  0.16828203429E+03  0.12500035430E+03 0.  0.
    9000005    1    3    3    0    0 -0.39319963633E+02 -0.39978494070E+02  0.19196898063E+02  0.59277824044E+02  0.10000000000E+01 0.  0.
    9000005    1    3    3    0    0  0.39319963633E+02  0.39978494070E+02  0.93469665253E+02  0.10900421024E+03  0.10000000000E+01 0.  0.
<mgrwt>
<rscale>  0 0.12500035E+03</rscale>
<asrwt>0</asrwt>
<pdfrwt beam="2">  1        4 0.42781132E-02 0.12500035E+03</pdfrwt>
<pdfrwt beam="1">  1       -4 0.21611430E-01 0.12500035E+03</pdfrwt>
<totfact> 0.95768650E+03</totfact>
</mgrwt>
</event>
<event>
 5    1  0.3259432E-002  0.1249949E+03  0.7818608E-02  0.1235077E+00
          4   -1    0    0  501    0  0.00000000000E+00  0.00000000000E+00  0.35850244752E+02  0.35872732664E+02  0.12700000000E+01 0. -1.
         -4   -1    0    0    0  501 -0.00000000000E+00 -0.00000000000E+00 -0.10889102883E+03  0.10889843460E+03  0.12700000000E+01 0. -1.
         25    2    1    2    0    0  0.00000000000E+00  0.00000000000E+00 -0.73040784076E+02  0.14477116727E+03  0.12499493883E+03 0.  0.
    9000005    1    3    3    0    0  0.54618432076E+02 -0.29965764674E+02 -0.42172381471E+02  0.75237157933E+02  0.10000000000E+01 0.  0.
    9000005    1    3    3    0    0 -0.54618432076E+02  0.29965764674E+02 -0.30868402605E+02  0.69534009336E+02  0.10000000000E+01 0.  0.
<mgrwt>
<rscale>  0 0.12499494E+03</rscale>
<asrwt>0</asrwt>
<pdfrwt beam="1">  1        4 0.55177218E-02 0.12499494E+03</pdfrwt>
<pdfrwt beam="2">  1       -4 0.16754765E-01 0.12499494E+03</pdfrwt>
<totfact> 0.10036784E+04</totfact>
</mgrwt>
</event>
<event>
 5    1  0.3259432E-002  0.1250000E+03  0.7818608E-02  0.1235069E+00
         -4   -1    0    0    0  501 -0.00000000000E+00  0.00000000000E+00  0.22859826528E+02  0.22895077394E+02  0.12700000000E+01 0. -1.
          4   -1    0    0  501    0  0.00000000000E+00 -0.00000000000E+00 -0.17070918925E+03  0.17071391330E+03  0.12700000000E+01 0. -1.
         25    2    1    2    0    0  0.00000000000E+00  0.00000000000E+00 -0.14784936272E+03  0.19360899069E+03  0.12500002888E+03 0.  0.
    9000005    1    3    3    0    0 -0.50051316047E+02 -0.21120875485E+02 -0.26084198411E+02  0.60271145883E+02  0.10000000000E+01 0.  0.
    9000005    1    3    3    0    0  0.50051316047E+02  0.21120875485E+02 -0.12176516431E+03  0.13333784481E+03  0.10000000000E+01 0.  0.
<mgrwt>
<rscale>  0 0.12500003E+03</rscale>
<asrwt>0</asrwt>
<pdfrwt beam="2">  1        4 0.26266026E-01 0.12500003E+03</pdfrwt>
<pdfrwt beam="1">  1       -4 0.35199715E-02 0.12500003E+03</pdfrwt>
<totfact> 0.91223068E+03</totfact>
</mgrwt>
</event>
<event>
 5    1  0.3259432E-002  0.1250080E+03  0.7818608E-02  0.1235057E+00
         -4   -1    0    0    0  501 -0.00000000000E+00  0.00000000000E+00  0.89228195015E+01  0.90127469651E+01  0.12700000000E+01 0.  1.
          4   -1    0    0  501    0  0.00000000000E+00 -0.00000000000E+00 -0.43555194523E+03  0.43555379679E+03  0.12700000000E+01 0.  1.
         25    2    1    2    0    0  0.00000000000E+00  0.00000000000E+00 -0.42662912573E+03  0.44456654375E+03  0.12500800335E+03 0.  0.
    9000005    1    3    3    0    0 -0.86394047048E+01 -0.58155124045E+02 -0.28867906580E+03  0.29460695986E+03  0.10000000000E+01 0.  0.
    9000005    1    3    3    0    0  0.86394047048E+01  0.58155124045E+02 -0.13795005993E+03  0.14995958389E+03  0.10000000000E+01 0.  0.
<mgrwt>
<rscale>  0 0.12500800E+03</rscale>
<asrwt>0</asrwt>
<pdfrwt beam="2">  1        4 0.67015035E-01 0.12500800E+03</pdfrwt>
<pdfrwt beam="1">  1       -4 0.13798017E-02 0.12500800E+03</pdfrwt>
<totfact> 0.60426754E+03</totfact>
</mgrwt>
</event>
<event>
 5    1  0.3259432E-002  0.1249990E+03  0.7818608E-02  0.1235071E+00
          4   -1    0    0  501    0  0.00000000000E+00  0.00000000000E+00  0.17707746496E+02  0.17753230297E+02  0.12700000000E+01 0.  1.
         -4   -1    0    0    0  501 -0.00000000000E+00 -0.00000000000E+00 -0.22026170735E+03  0.22026536864E+03  0.12700000000E+01 0.  1.
         25    2    1    2    0    0  0.00000000000E+00  0.00000000000E+00 -0.20255396085E+03  0.23801859894E+03  0.12499898554E+03 0.  0.
    9000005    1    3    3    0    0 -0.45769675090E+02 -0.42372349302E+02 -0.10862899115E+03  0.12526586471E+03  0.10000000000E+01 0.  0.
    9000005    1    3    3    0    0  0.45769675090E+02  0.42372349302E+02 -0.93924969704E+02  0.11275273423E+03  0.10000000000E+01 0.  0.
<mgrwt>
<rscale>  0 0.12499899E+03</rscale>
<asrwt>0</asrwt>
<pdfrwt beam="1">  1        4 0.27280492E-02 0.12499899E+03</pdfrwt>
<pdfrwt beam="2">  1       -4 0.33890195E-01 0.12499899E+03</pdfrwt>
<totfact> 0.84095252E+03</totfact>
</mgrwt>
</event>
<event>
 5    1  0.3259432E-002  0.1250012E+03  0.7818608E-02  0.1235067E+00
         -4   -1    0    0    0  501 -0.00000000000E+00  0.00000000000E+00  0.59705691597E+01  0.61041458117E+01  0.12700000000E+01 0.  1.
          4   -1    0    0  501    0  0.00000000000E+00 -0.00000000000E+00 -0.64689186105E+03  0.64689310770E+03  0.12700000000E+01 0.  1.
         25    2    1    2    0    0  0.00000000000E+00  0.00000000000E+00 -0.64092129189E+03  0.65299725351E+03  0.12500124279E+03 0.  0.
    9000005    1    3    3    0    0  0.56439465722E+02 -0.23895249879E+02 -0.25670917873E+03  0.26392612357E+03  0.10000000000E+01 0.  0.
    9000005    1    3    3    0    0 -0.56439465722E+02  0.23895249879E+02 -0.38421211316E+03  0.38907112995E+03  0.10000000000E+01 0.  0.
<mgrwt>
<rscale>  0 0.12500124E+03</rscale>
<asrwt>0</asrwt>
<pdfrwt beam="2">  1        4 0.99532141E-01 0.12500124E+03</pdfrwt>
<pdfrwt beam="1">  1       -4 0.92892064E-03 0.12500124E+03</pdfrwt>
<totfact> 0.45683062E+03</totfact>
</mgrwt>
</event>
<event>
 5    1  0.3259432E-002  0.1250007E+03  0.7818608E-02  0.1235068E+00
         -4   -1    0    0    0  501 -0.00000000000E+00  0.00000000000E+00  0.89097746070E+03  0.89097836583E+03  0.12700000000E+01 0. -1.
          4   -1    0    0  501    0  0.00000000000E+00 -0.00000000000E+00 -0.42913852428E+01  0.44753644881E+01  0.12700000000E+01 0. -1.
         25    2    1    2    0    0  0.00000000000E+00  0.00000000000E+00  0.88668607546E+03  0.89545373032E+03  0.12500074692E+03 0.  0.
    9000005    1    3    3    0    0  0.33917618123E+02 -0.15337941131E+01  0.81917811344E+03  0.81988202741E+03  0.10000000000E+01 0.  0.
    9000005    1    3    3    0    0 -0.33917618123E+02  0.15337941131E+01  0.67507962026E+02  0.75571702908E+02  0.10000000000E+01 0.  0.
<mgrwt>
<rscale>  0 0.12500075E+03</rscale>
<asrwt>0</asrwt>
<pdfrwt beam="2">  1        4 0.67443498E-03 0.12500075E+03</pdfrwt>
<pdfrwt beam="1">  1       -4 0.13708768E+00 0.12500075E+03</pdfrwt>
<totfact> 0.34334036E+03</totfact>
</mgrwt>
</event>
<event>
 5    1  0.3259432E-002  0.1250003E+03  0.7818608E-02  0.1235069E+00
         -4   -1    0    0    0  501 -0.00000000000E+00  0.00000000000E+00  0.97099901000E+02  0.97108206008E+02  0.12700000000E+01 0. -1.
          4   -1    0    0  501    0  0.00000000000E+00 -0.00000000000E+00 -0.40209341832E+02  0.40229393117E+02  0.12700000000E+01 0. -1.
         25    2    1    2    0    0  0.00000000000E+00  0.00000000000E+00  0.56890559168E+02  0.13733759912E+03  0.12500032164E+03 0.  0.
    9000005    1    3    3    0    0 -0.47830494406E+02  0.39614008963E+02  0.20813938205E+02  0.65507602039E+02  0.10000000000E+01 0.  0.
    9000005    1    3    3    0    0  0.47830494406E+02 -0.39614008963E+02  0.36076620963E+02  0.71829997086E+02  0.10000000000E+01 0.  0.
<mgrwt>
<rscale>  0 0.12500032E+03</rscale>
<asrwt>0</asrwt>
<pdfrwt beam="2">  1        4 0.61882339E-02 0.12500032E+03</pdfrwt>
<pdfrwt beam="1">  1       -4 0.14940627E-01 0.12500032E+03</pdfrwt>
<totfact> 0.10188958E+04</totfact>
</mgrwt>
</event>
<event>
 5    1  0.3259432E-002  0.1250032E+03  0.7818608E-02  0.1235064E+00
          4   -1    0    0  501    0  0.00000000000E+00  0.00000000000E+00  0.40112014339E+03  0.40112215388E+03  0.12700000000E+01 0.  1.
         -4   -1    0    0    0  501 -0.00000000000E+00 -0.00000000000E+00 -0.96954068141E+01  0.97782316034E+01  0.12700000000E+01 0.  1.
         25    2    1    2    0    0  0.00000000000E+00  0.00000000000E+00  0.39142473658E+03  0.41090038548E+03  0.12500320951E+03 0.  0.
    9000005    1    3    3    0    0 -0.45125146955E+02 -0.14606278244E+01  0.33774626284E+03  0.34075203651E+03  0.10000000000E+01 0.  0.
    9000005    1    3    3    0    0  0.45125146955E+02  0.14606278244E+01  0.53678473733E+02  0.70148348973E+02  0.10000000000E+01 0.  0.
<mgrwt>
<rscale>  0 0.12500321E+03</rscale>
<asrwt>0</asrwt>
<pdfrwt beam="1">  1        4 0.61717310E-01 0.12500321E+03</pdfrwt>
<pdfrwt beam="2">  1       -4 0.14981270E-02 0.12500321E+03</pdfrwt>
<totfact> 0.63501765E+03</totfact>
</mgrwt>
</event>
<event>
 5    1  0.3259432E-002  0.1249996E+03  0.7818608E-02  0.1235070E+00
         -4   -1    0    0    0  501 -0.00000000000E+00  0.00000000000E+00  0.63263044133E+03  0.63263171609E+03  0.12700000000E+01 0.  1.
          4   -1    0    0  501    0  0.00000000000E+00 -0.00000000000E+00 -0.61079741079E+01  0.62386094366E+01  0.12700000000E+01 0.  1.
         25    2    1    2    0    0  0.00000000000E+00  0.00000000000E+00  0.62652246722E+03  0.63887032552E+03  0.12499956359E+03 0.  0.
    9000005    1    3    3    0    0  0.38154140112E+02  0.20531215682E+02  0.83099449252E+02  0.93721863464E+02  0.10000000000E+01 0.  0.
    9000005    1    3    3    0    0 -0.38154140112E+02 -0.20531215682E+02  0.54342301797E+03  0.54514846206E+03  0.10000000000E+01 0.  0.
<mgrwt>
<rscale>  0 0.12499956E+03</rscale>
<asrwt>0</asrwt>
<pdfrwt beam="2">  1        4 0.94983583E-03 0.12499956E+03</pdfrwt>
<pdfrwt beam="1">  1       -4 0.97337848E-01 0.12499956E+03</pdfrwt>
<totfact> 0.46502893E+03</totfact>
</mgrwt>
</event>
<event>
 5    1  0.3259432E-002  0.1249943E+03  0.7818608E-02  0.1235078E+00
          4   -1    0    0  501    0  0.00000000000E+00  0.00000000000E+00  0.73334171411E+01  0.74425739476E+01  0.12700000000E+01 0.  1.
         -4   -1    0    0    0  501 -0.00000000000E+00 -0.00000000000E+00 -0.52857112818E+03  0.52857265390E+03  0.12700000000E+01 0.  1.
         25    2    1    2    0    0  0.00000000000E+00  0.00000000000E+00 -0.52123771104E+03  0.53601522785E+03  0.12499429215E+03 0.  0.
    9000005    1    3    3    0    0 -0.51975776702E+02  0.33477187669E+02 -0.22162349478E+03  0.23008732451E+03  0.10000000000E+01 0.  0.
    9000005    1    3    3    0    0  0.51975776702E+02 -0.33477187669E+02 -0.29961421626E+03  0.30592790334E+03  0.10000000000E+01 0.  0.
<mgrwt>
<rscale>  0 0.12499429E+03</rscale>
<asrwt>0</asrwt>
<pdfrwt beam="1">  1        4 0.11367325E-02 0.12499429E+03</pdfrwt>
<pdfrwt beam="2">  1       -4 0.81327120E-01 0.12499429E+03</pdfrwt>
<totfact> 0.53181120E+03</totfact>
</mgrwt>
</event>
<event>
 5    1  0.3259432E-002  0.1250001E+03  0.7818608E-02  0.1235069E+00
          4   -1    0    0  501    0  0.00000000000E+00  0.00000000000E+00  0.82028436532E+02  0.82038267289E+02  0.12700000000E+01 0.  1.
         -4   -1    0    0    0  501 -0.00000000000E+00 -0.00000000000E+00 -0.47599582652E+02  0.47616522013E+02  0.12700000000E+01 0.  1.
         25    2    1    2    0    0  0.00000000000E+00  0.00000000000E+00  0.34428853880E+02  0.12965478930E+03  0.12500007364E+03 0.  0.
    9000005    1    3    3    0    0  0.42277795937E+02  0.26485017324E+02 -0.21821920396E+02  0.54461586294E+02  0.10000000000E+01 0.  0.
    9000005    1    3    3    0    0 -0.42277795937E+02 -0.26485017324E+02  0.56250774276E+02  0.75193203008E+02  0.10000000000E+01 0.  0.
<mgrwt>
<rscale>  0 0.12500007E+03</rscale>
<asrwt>0</asrwt>
<pdfrwt beam="1">  1        4 0.12621819E-01 0.12500007E+03</pdfrwt>
<pdfrwt beam="2">  1       -4 0.73250720E-02 0.12500007E+03</pdfrwt>
<totfact> 0.10351881E+04</totfact>
</mgrwt>
</event>
<event>
 5    1  0.3259432E-002  0.1249980E+03  0.7818608E-02  0.1235072E+00
          4   -1    0    0  501    0  0.00000000000E+00  0.00000000000E+00  0.19287198127E+03  0.19287616250E+03  0.12700000000E+01 0. -1.
         -4   -1    0    0    0  501 -0.00000000000E+00 -0.00000000000E+00 -0.20228106432E+02  0.20267935016E+02  0.12700000000E+01 0. -1.
         25    2    1    2    0    0  0.00000000000E+00  0.00000000000E+00  0.17264387484E+03  0.21314409751E+03  0.12499799512E+03 0.  0.
    9000005    1    3    3    0    0 -0.14878417600E+02 -0.14500066817E+02 -0.14175330504E+02  0.25170602751E+02  0.10000000000E+01 0.  0.
    9000005    1    3    3    0    0  0.14878417600E+02  0.14500066817E+02  0.18681920534E+03  0.18797349476E+03  0.10000000000E+01 0.  0.
<mgrwt>
<rscale>  0 0.12499800E+03</rscale>
<asrwt>0</asrwt>
<pdfrwt beam="1">  1        4 0.29675998E-01 0.12499800E+03</pdfrwt>
<pdfrwt beam="2">  1       -4 0.31154017E-02 0.12499800E+03</pdfrwt>
<totfact> 0.87968910E+03</totfact>
</mgrwt>
</event>
<event>
 4    1  0.3259432E-002  0.1250672E+03  0.7818608E-02  0.1234964E+00
          4   -1    0    0  501    0  0.00000000000E+00  0.00000000000E+00  0.60833925741E+02  0.60847180880E+02  0.12700000000E+01 0. -1.
         -4   -1    0    0    0  501 -0.00000000000E+00 -0.00000000000E+00 -0.64254194326E+02  0.64266744032E+02  0.12700000000E+01 0. -1.
    9000005    1    1    2    0    0  0.55090419929E+02 -0.26234915987E+02  0.11941352120E+02  0.62183768584E+02  0.10000000000E+01 0.  0.
    9000005    1    1    2    0    0 -0.55090419929E+02  0.26234915987E+02 -0.15361620705E+02  0.62930156329E+02  0.10000000000E+01 0.  0.
<mgrwt>
<rscale>  0 0.12506717E+03</rscale>
<asrwt>0</asrwt>
<pdfrwt beam="1">  1        4 0.93610505E-02 0.12506717E+03</pdfrwt>
<pdfrwt beam="2">  1       -4 0.98872456E-02 0.12506717E+03</pdfrwt>
<totfact> 0.10434541E+04</totfact>
</mgrwt>
</event>
<event>
 5    1  0.3259432E-002  0.1249980E+03  0.7818608E-02  0.1235072E+00
         -4   -1    0    0    0  501 -0.00000000000E+00  0.00000000000E+00  0.16801116803E+03  0.16801596794E+03  0.12700000000E+01 0.  1.
          4   -1    0    0  501    0  0.00000000000E+00 -0.00000000000E+00 -0.23226703314E+02  0.23261398213E+02  0.12700000000E+01 0.  1.
         25    2    1    2    0    0  0.00000000000E+00  0.00000000000E+00  0.14478446471E+03  0.19127736615E+03  0.12499795830E+03 0.  0.
    9000005    1    3    3    0    0 -0.13043594417E+02  0.48446993596E+02  0.12940025444E+03  0.13879002987E+03  0.10000000000E+01 0.  0.
    9000005    1    3    3    0    0  0.13043594417E+02 -0.48446993596E+02  0.15384210279E+02  0.52487336280E+02  0.10000000000E+01 0.  0.
<mgrwt>
<rscale>  0 0.12499796E+03</rscale>
<asrwt>0</asrwt>
<pdfrwt beam="2">  1        4 0.35763770E-02 0.12499796E+03</pdfrwt>
<pdfrwt beam="1">  1       -4 0.25850910E-01 0.12499796E+03</pdfrwt>
<totfact> 0.91629721E+03</totfact>
</mgrwt>
</event>
<event>
 5    1  0.3259432E-002  0.1249983E+03  0.7818608E-02  0.1235072E+00
          4   -1    0    0  501    0  0.00000000000E+00  0.00000000000E+00  0.34647150011E+02  0.34670418283E+02  0.12700000000E+01 0. -1.
         -4   -1    0    0    0  501 -0.00000000000E+00 -0.00000000000E+00 -0.11267597884E+03  0.11268313586E+03  0.12700000000E+01 0. -1.
         25    2    1    2    0    0  0.00000000000E+00  0.00000000000E+00 -0.78028828830E+02  0.14735355415E+03  0.12499828715E+03 0.  0.
    9000005    1    3    3    0    0 -0.52339514286E+02  0.30751227433E+02 -0.56502692197E+02  0.82937428039E+02  0.10000000000E+01 0.  0.
    9000005    1    3    3    0    0  0.52339514286E+02 -0.30751227433E+02 -0.21526136634E+02  0.64416126107E+02  0.10000000000E+01 0.  0.
<mgrwt>
<rscale>  0 0.12499829E+03</rscale>
<asrwt>0</asrwt>
<pdfrwt beam="1">  1        4 0.53326712E-02 0.12499829E+03</pdfrwt>
<pdfrwt beam="2">  1       -4 0.17337106E-01 0.12499829E+03</pdfrwt>
<totfact> 0.99837717E+03</totfact>
</mgrwt>
</event>
<event>
 5    1  0.3259432E-002  0.1250007E+03  0.7818608E-02  0.1235068E+00
         -4   -1    0    0    0  501 -0.00000000000E+00  0.00000000000E+00  0.11153612019E+02  0.11225683100E+02  0.12700000000E+01 0. -1.
          4   -1    0    0  501    0  0.00000000000E+00 -0.00000000000E+00 -0.34902552169E+03  0.34902783226E+03  0.12700000000E+01 0. -1.
         25    2    1    2    0    0  0.00000000000E+00  0.00000000000E+00 -0.33787190967E+03  0.36025351536E+03  0.12500067193E+03 0.  0.
    9000005    1    3    3    0    0 -0.36792239120E+02  0.18723763634E+02 -0.30414639402E+03  0.30693692704E+03  0.10000000000E+01 0.  0.
    9000005    1    3    3    0    0  0.36792239120E+02 -0.18723763634E+02 -0.33725515649E+02  0.53316588318E+02  0.10000000000E+01 0.  0.
<mgrwt>
<rscale>  0 0.12500067E+03</rscale>
<asrwt>0</asrwt>
<pdfrwt beam="2">  1        4 0.53701948E-01 0.12500067E+03</pdfrwt>
<pdfrwt beam="1">  1       -4 0.17216622E-02 0.12500067E+03</pdfrwt>
<totfact> 0.68610064E+03</totfact>
</mgrwt>
</event>
<event>
 5    1  0.3259432E-002  0.1249846E+03  0.7818608E-02  0.1235093E+00
         -4   -1    0    0    0  501 -0.00000000000E+00  0.00000000000E+00  0.10147593142E+03  0.10148387831E+03  0.12700000000E+01 0.  1.
          4   -1    0    0  501    0  0.00000000000E+00 -0.00000000000E+00 -0.38464955846E+02  0.38485915973E+02  0.12700000000E+01 0.  1.
         25    2    1    2    0    0  0.00000000000E+00  0.00000000000E+00  0.63010975572E+02  0.13996979428E+03  0.12498464013E+03 0.  0.
    9000005    1    3    3    0    0  0.83499289663E+01  0.34675735981E+02  0.88961303522E+02  0.95850099133E+02  0.10000000000E+01 0.  0.
    9000005    1    3    3    0    0 -0.83499289663E+01 -0.34675735981E+02 -0.25950327950E+02  0.44119695151E+02  0.10000000000E+01 0.  0.
<mgrwt>
<rscale>  0 0.12498464E+03</rscale>
<asrwt>0</asrwt>
<pdfrwt beam="2">  1        4 0.59199091E-02 0.12498464E+03</pdfrwt>
<pdfrwt beam="1">  1       -4 0.15613906E-01 0.12498464E+03</pdfrwt>
<totfact> 0.10137720E+04</totfact>
</mgrwt>
</event>
<event>
 5    1  0.3259432E-002  0.1249922E+03  0.7818608E-02  0.1235081E+00
          4   -1    0    0  501    0  0.00000000000E+00  0.00000000000E+00  0.45453101819E+02  0.45470840821E+02  0.12700000000E+01 0. -1.
         -4   -1    0    0    0  501 -0.00000000000E+00 -0.00000000000E+00 -0.85890328666E+02  0.85899717452E+02  0.12700000000E+01 0. -1.
         25    2    1    2    0    0  0.00000000000E+00  0.00000000000E+00 -0.40437226847E+02  0.13137055827E+03  0.12499221682E+03 0.  0.
    9000005    1    3    3    0    0  0.55229121336E+02  0.16630575005E+02  0.50483663309E+01  0.57907839461E+02  0.10000000000E+01 0.  0.
    9000005    1    3    3    0    0 -0.55229121336E+02 -0.16630575005E+02 -0.45485593178E+02  0.73462718812E+02  0.10000000000E+01 0.  0.
<mgrwt>
<rscale>  0 0.12499222E+03</rscale>
<asrwt>0</asrwt>
<pdfrwt beam="1">  1        4 0.69948716E-02 0.12499222E+03</pdfrwt>
<pdfrwt beam="2">  1       -4 0.13215983E-01 0.12499222E+03</pdfrwt>
<totfact> 0.10316963E+04</totfact>
</mgrwt>
</event>
<event>
 5    1  0.3259432E-002  0.1250014E+03  0.7818608E-02  0.1235067E+00
          4   -1    0    0  501    0  0.00000000000E+00  0.00000000000E+00  0.62906148439E+01  0.64175334135E+01  0.12700000000E+01 0.  1.
         -4   -1    0    0    0  501 -0.00000000000E+00 -0.00000000000E+00 -0.61464892330E+03  0.61465023535E+03  0.12700000000E+01 0.  1.
         25    2    1    2    0    0  0.00000000000E+00  0.00000000000E+00 -0.60835830846E+03  0.62106776876E+03  0.12500136770E+03 0.  0.
    9000005    1    3    3    0    0  0.53139459675E+02  0.32802150190E+02 -0.29247180056E+03  0.29906610867E+03  0.10000000000E+01 0.  0.
    9000005    1    3    3    0    0 -0.53139459675E+02 -0.32802150190E+02 -0.31588650790E+03  0.32200166010E+03  0.10000000000E+01 0.  0.
<mgrwt>
<rscale>  0 0.12500137E+03</rscale>
<asrwt>0</asrwt>
<pdfrwt beam="1">  1        4 0.97765128E-03 0.12500137E+03</pdfrwt>
<pdfrwt beam="2">  1       -4 0.94571190E-01 0.12500137E+03</pdfrwt>
<totfact> 0.47562787E+03</totfact>
</mgrwt>
</event>
<event>
 5    1  0.3259432E-002  0.1249972E+03  0.7818608E-02  0.1235074E+00
         -4   -1    0    0    0  501 -0.00000000000E+00  0.00000000000E+00  0.28746367131E+03  0.28746647670E+03  0.12700000000E+01 0.  1.
          4   -1    0    0  501    0  0.00000000000E+00 -0.00000000000E+00 -0.13555512207E+02  0.13614874630E+02  0.12700000000E+01 0.  1.
         25    2    1    2    0    0  0.00000000000E+00  0.00000000000E+00  0.27390815911E+03  0.30108135133E+03  0.12499720194E+03 0.  0.
    9000005    1    3    3    0    0  0.62196183089E+02 -0.14228714982E+01  0.15113997402E+03  0.16344626487E+03  0.10000000000E+01 0.  0.
    9000005    1    3    3    0    0 -0.62196183089E+02  0.14228714982E+01  0.12276818509E+03  0.13763508646E+03  0.10000000000E+01 0.  0.
<mgrwt>
<rscale>  0 0.12499720E+03</rscale>
<asrwt>0</asrwt>
<pdfrwt beam="2">  1        4 0.20902456E-02 0.12499720E+03</pdfrwt>
<pdfrwt beam="1">  1       -4 0.44229961E-01 0.12499720E+03</pdfrwt>
<totfact> 0.75468083E+03</totfact>
</mgrwt>
</event>
<event>
 5    1  0.3259432E-002  0.1250021E+03  0.7818608E-02  0.1235066E+00
          4   -1    0    0  501    0  0.00000000000E+00  0.00000000000E+00  0.35162975328E+02  0.35185902488E+02  0.12700000000E+01 0.  1.
         -4   -1    0    0    0  501 -0.00000000000E+00 -0.00000000000E+00 -0.11103085124E+03  0.11103811430E+03  0.12700000000E+01 0.  1.
         25    2    1    2    0    0  0.00000000000E+00  0.00000000000E+00 -0.75867875915E+02  0.14622401679E+03  0.12500211394E+03 0.  0.
    9000005    1    3    3    0    0 -0.17510530810E+02 -0.56647919833E+02 -0.14839401992E+02  0.61129480303E+02  0.10000000000E+01 0.  0.
    9000005    1    3    3    0    0  0.17510530810E+02  0.56647919833E+02 -0.61028473922E+02  0.85094536487E+02  0.10000000000E+01 0.  0.
<mgrwt>
<rscale>  0 0.12500211E+03</rscale>
<asrwt>0</asrwt>
<pdfrwt beam="1">  1        4 0.54120109E-02 0.12500211E+03</pdfrwt>
<pdfrwt beam="2">  1       -4 0.17083992E-01 0.12500211E+03</pdfrwt>
<totfact> 0.10005702E+04</totfact>
</mgrwt>
</event>
<event>
 5    1  0.3259432E-002  0.1249878E+03  0.7818608E-02  0.1235088E+00
         -4   -1    0    0    0  501 -0.00000000000E+00  0.00000000000E+00  0.79172713552E+01  0.80184840034E+01  0.12700000000E+01 0. -1.
          4   -1    0    0  501    0  0.00000000000E+00 -0.00000000000E+00 -0.49005183999E+03  0.49005348563E+03  0.12700000000E+01 0. -1.
         25    2    1    2    0    0  0.00000000000E+00  0.00000000000E+00 -0.48213456863E+03  0.49807196963E+03  0.12498777805E+03 0.  0.
    9000005    1    3    3    0    0  0.59263514584E+02 -0.13613621385E+02 -0.29839974975E+03  0.30453391519E+03  0.10000000000E+01 0.  0.
    9000005    1    3    3    0    0 -0.59263514584E+02  0.13613621385E+02 -0.18373481888E+03  0.19353805444E+03  0.10000000000E+01 0.  0.
<mgrwt>
<rscale>  0 0.12498778E+03</rscale>
<asrwt>0</asrwt>
<pdfrwt beam="2">  1        4 0.75400479E-01 0.12498778E+03</pdfrwt>
<pdfrwt beam="1">  1       -4 0.12259543E-02 0.12498778E+03</pdfrwt>
<totfact> 0.56029336E+03</totfact>
</mgrwt>
</event>
<event>
 5    1  0.3259432E-002  0.1250167E+03  0.7818608E-02  0.1235043E+00
         -4   -1    0    0    0  501 -0.00000000000E+00  0.00000000000E+00  0.94706828961E+01  0.95554557463E+01  0.12700000000E+01 0. -1.
          4   -1    0    0  501    0  0.00000000000E+00 -0.00000000000E+00 -0.41064303396E+03  0.41064499783E+03  0.12700000000E+01 0. -1.
         25    2    1    2    0    0  0.00000000000E+00  0.00000000000E+00 -0.40117235107E+03  0.42020045358E+03  0.12501666259E+03 0.  0.
    9000005    1    3    3    0    0 -0.32437722511E+02 -0.62506392186E+01 -0.22254297127E+02  0.39843821014E+02  0.10000000000E+01 0.  0.
    9000005    1    3    3    0    0  0.32437722511E+02  0.62506392186E+01 -0.37891805394E+03  0.38035663256E+03  0.10000000000E+01 0.  0.
<mgrwt>
<rscale>  0 0.12501666E+03</rscale>
<asrwt>0</asrwt>
<pdfrwt beam="2">  1        4 0.63182510E-01 0.12501666E+03</pdfrwt>
<pdfrwt beam="1">  1       -4 0.14637005E-02 0.12501666E+03</pdfrwt>
<totfact> 0.62611409E+03</totfact>
</mgrwt>
</event>
<event>
 5    1  0.3259432E-002  0.1250305E+03  0.7818608E-02  0.1235022E+00
          4   -1    0    0  501    0  0.00000000000E+00  0.00000000000E+00  0.52596433590E+02  0.52611764145E+02  0.12700000000E+01 0.  1.
         -4   -1    0    0    0  501 -0.00000000000E+00 -0.00000000000E+00 -0.74272963361E+02  0.74283820489E+02  0.12700000000E+01 0.  1.
         25    2    1    2    0    0  0.00000000000E+00  0.00000000000E+00 -0.21676529771E+02  0.12689558463E+03  0.12503046611E+03 0.  0.
    9000005    1    3    3    0    0  0.15544599451E+02  0.96490953263E+01  0.49823018986E+02  0.53085523767E+02  0.10000000000E+01 0.  0.
    9000005    1    3    3    0    0 -0.15544599451E+02 -0.96490953263E+01 -0.71499548757E+02  0.73810060866E+02  0.10000000000E+01 0.  0.
<mgrwt>
<rscale>  0 0.12503047E+03</rscale>
<asrwt>0</asrwt>
<pdfrwt beam="1">  1        4 0.80937735E-02 0.12503047E+03</pdfrwt>
<pdfrwt beam="2">  1       -4 0.11428624E-01 0.12503047E+03</pdfrwt>
<totfact> 0.10404258E+04</totfact>
</mgrwt>
</event>
<event>
 5    1  0.3259432E-002  0.1249977E+03  0.7818608E-02  0.1235073E+00
         -4   -1    0    0    0  501 -0.00000000000E+00  0.00000000000E+00  0.68790723752E+02  0.68802445990E+02  0.12700000000E+01 0.  1.
          4   -1    0    0  501    0  0.00000000000E+00 -0.00000000000E+00 -0.56758828857E+02  0.56773035441E+02  0.12700000000E+01 0.  1.
         25    2    1    2    0    0  0.00000000000E+00  0.00000000000E+00  0.12031894895E+02  0.12557548143E+03  0.12499774015E+03 0.  0.
    9000005    1    3    3    0    0 -0.34025052767E+02  0.50117182440E+02 -0.94066388288E+01  0.61310040332E+02  0.10000000000E+01 0.  0.
    9000005    1    3    3    0    0  0.34025052767E+02 -0.50117182440E+02  0.21438533724E+02  0.64265441099E+02  0.10000000000E+01 0.  0.
<mgrwt>
<rscale>  0 0.12499774E+03</rscale>
<asrwt>0</asrwt>
<pdfrwt beam="2">  1        4 0.87341222E-02 0.12499774E+03</pdfrwt>
<pdfrwt beam="1">  1       -4 0.10585183E-01 0.12499774E+03</pdfrwt>
<totfact> 0.10440820E+04</totfact>
</mgrwt>
</event>
<event>
 5    1  0.3259432E-002  0.1250021E+03  0.7818608E-02  0.1235066E+00
         -4   -1    0    0    0  501 -0.00000000000E+00  0.00000000000E+00  0.24720475143E+03  0.24720801368E+03  0.12700000000E+01 0. -1.
          4   -1    0    0  501    0  0.00000000000E+00 -0.00000000000E+00 -0.15773329265E+02  0.15824374114E+02  0.12700000000E+01 0. -1.
         25    2    1    2    0    0  0.00000000000E+00  0.00000000000E+00  0.23143142217E+03  0.26303238780E+03  0.12500213544E+03 0.  0.
    9000005    1    3    3    0    0 -0.50259725035E+02 -0.25730983772E+02  0.17207040496E+03  0.18110038032E+03  0.10000000000E+01 0.  0.
    9000005    1    3    3    0    0  0.50259725035E+02  0.25730983772E+02  0.59361017200E+02  0.81932007479E+02  0.10000000000E+01 0.  0.
<mgrwt>
<rscale>  0 0.12500214E+03</rscale>
<asrwt>0</asrwt>
<pdfrwt beam="2">  1        4 0.24308437E-02 0.12500214E+03</pdfrwt>
<pdfrwt beam="1">  1       -4 0.38035675E-01 0.12500214E+03</pdfrwt>
<totfact> 0.80478559E+03</totfact>
</mgrwt>
</event>
<event>
 5    1  0.3259432E-002  0.1249978E+03  0.7818608E-02  0.1235073E+00
         -4   -1    0    0    0  501 -0.00000000000E+00  0.00000000000E+00  0.10283057720E+02  0.10361186036E+02  0.12700000000E+01 0.  1.
          4   -1    0    0  501    0  0.00000000000E+00 -0.00000000000E+00 -0.37834241194E+03  0.37834454347E+03  0.12700000000E+01 0.  1.
         25    2    1    2    0    0  0.00000000000E+00  0.00000000000E+00 -0.36805935422E+03  0.38870572950E+03  0.12499782366E+03 0.  0.
    9000005    1    3    3    0    0 -0.33866551830E+02  0.17095141767E+02 -0.33845146582E+03  0.34057243271E+03  0.10000000000E+01 0.  0.
    9000005    1    3    3    0    0  0.33866551830E+02 -0.17095141767E+02 -0.29607888399E+02  0.48133296795E+02  0.10000000000E+01 0.  0.
<mgrwt>
<rscale>  0 0.12499782E+03</rscale>
<asrwt>0</asrwt>
<pdfrwt beam="2">  1        4 0.58212688E-01 0.12499782E+03</pdfrwt>
<pdfrwt beam="1">  1       -4 0.15881830E-02 0.12499782E+03</pdfrwt>
<totfact> 0.65669443E+03</totfact>
</mgrwt>
</event>
<event>
 5    1  0.3259432E-002  0.1250015E+03  0.7818608E-02  0.1235067E+00
         -4   -1    0    0    0  501 -0.00000000000E+00  0.00000000000E+00  0.73877007499E+01  0.74960671268E+01  0.12700000000E+01 0.  1.
          4   -1    0    0  501    0  0.00000000000E+00 -0.00000000000E+00 -0.52480416204E+03  0.52480569870E+03  0.12700000000E+01 0.  1.
         25    2    1    2    0    0  0.00000000000E+00  0.00000000000E+00 -0.51741646129E+03  0.53230176583E+03  0.12500150197E+03 0.  0.
    9000005    1    3    3    0    0 -0.40891872956E+02  0.30671305295E+02 -0.10561610638E+03  0.11733983198E+03  0.10000000000E+01 0.  0.
    9000005    1    3    3    0    0  0.40891872956E+02 -0.30671305295E+02 -0.41180035491E+03  0.41496193385E+03  0.10000000000E+01 0.  0.
<mgrwt>
<rscale>  0 0.12500150E+03</rscale>
<asrwt>0</asrwt>
<pdfrwt beam="2">  1        4 0.80747527E-01 0.12500150E+03</pdfrwt>
<pdfrwt beam="1">  1       -4 0.11450238E-02 0.12500150E+03</pdfrwt>
<totfact> 0.53440697E+03</totfact>
</mgrwt>
</event>
<event>
 5    1  0.3259432E-002  0.1250017E+03  0.7818608E-02  0.1235067E+00
          4   -1    0    0  501    0  0.00000000000E+00  0.00000000000E+00  0.12068009629E+03  0.12068677864E+03  0.12700000000E+01 0. -1.
         -4   -1    0    0    0  501 -0.00000000000E+00 -0.00000000000E+00 -0.32349489448E+02  0.32374409146E+02  0.12700000000E+01 0. -1.
         25    2    1    2    0    0  0.00000000000E+00  0.00000000000E+00  0.88330606838E+02  0.15306118779E+03  0.12500172440E+03 0.  0.
    9000005    1    3    3    0    0  0.39796569518E+02  0.67296722203E+01 -0.14255032212E+02  0.42816601652E+02  0.10000000000E+01 0.  0.
    9000005    1    3    3    0    0 -0.39796569518E+02 -0.67296722203E+01  0.10258563905E+03  0.11024458614E+03  0.10000000000E+01 0.  0.
<mgrwt>
<rscale>  0 0.12500172E+03</rscale>
<asrwt>0</asrwt>
<pdfrwt beam="1">  1        4 0.18568599E-01 0.12500172E+03</pdfrwt>
<pdfrwt beam="2">  1       -4 0.49792755E-02 0.12500172E+03</pdfrwt>
<totfact> 0.98693130E+03</totfact>
</mgrwt>
</event>
<event>
 5    1  0.3259432E-002  0.1249867E+03  0.7818608E-02  0.1235090E+00
         -4   -1    0    0    0  501 -0.00000000000E+00  0.00000000000E+00  0.13274805408E+02  0.13335417452E+02  0.12700000000E+01 0.  1.
          4   -1    0    0  501    0  0.00000000000E+00 -0.00000000000E+00 -0.29346581258E+03  0.29346856059E+03  0.12700000000E+01 0.  1.
         25    2    1    2    0    0  0.00000000000E+00  0.00000000000E+00 -0.28019100717E+03  0.30680397804E+03  0.12498672106E+03 0.  0.
    9000005    1    3    3    0    0  0.11596314222E+02 -0.26060234793E+02 -0.27656426494E+03  0.27803309692E+03  0.10000000000E+01 0.  0.
    9000005    1    3    3    0    0 -0.11596314222E+02  0.26060234793E+02 -0.36267422273E+01  0.28770881116E+02  0.10000000000E+01 0.  0.
<mgrwt>
<rscale>  0 0.12498672E+03</rscale>
<asrwt>0</asrwt>
<pdfrwt beam="2">  1        4 0.45153455E-01 0.12498672E+03</pdfrwt>
<pdfrwt beam="1">  1       -4 0.20471518E-02 0.12498672E+03</pdfrwt>
<totfact> 0.74775243E+03</totfact>
</mgrwt>
</event>
<event>
 5    1  0.3259432E-002  0.1250017E+03  0.7818608E-02  0.1235067E+00
          4   -1    0    0  501    0  0.00000000000E+00  0.00000000000E+00  0.68365808279E+01  0.69535413580E+01  0.12700000000E+01 0.  1.
         -4   -1    0    0    0  501 -0.00000000000E+00 -0.00000000000E+00 -0.56642624429E+03  0.56642766804E+03  0.12700000000E+01 0.  1.
         25    2    1    2    0    0  0.00000000000E+00  0.00000000000E+00 -0.55958966346E+03  0.57338120939E+03  0.12500167933E+03 0.  0.
    9000005    1    3    3    0    0 -0.26945788297E+02  0.39428439847E+01 -0.53779949211E+03  0.53848947552E+03  0.10000000000E+01 0.  0.
    9000005    1    3    3    0    0  0.26945788297E+02 -0.39428439847E+01 -0.21790171345E+02  0.34891733876E+02  0.10000000000E+01 0.  0.
<mgrwt>
<rscale>  0 0.12500168E+03</rscale>
<asrwt>0</asrwt>
<pdfrwt beam="1">  1        4 0.10608886E-02 0.12500168E+03</pdfrwt>
<pdfrwt beam="2">  1       -4 0.87151569E-01 0.12500168E+03</pdfrwt>
<totfact> 0.50590312E+03</totfact>
</mgrwt>
</event>
<event>
 5    1  0.3259432E-002  0.1249996E+03  0.7818608E-02  0.1235070E+00
          4   -1    0    0  501    0  0.00000000000E+00  0.00000000000E+00  0.86661602107E+02  0.86670907344E+02  0.12700000000E+01 0. -1.
         -4   -1    0    0    0  501 -0.00000000000E+00 -0.00000000000E+00 -0.45053809816E+02  0.45071705968E+02  0.12700000000E+01 0. -1.
         25    2    1    2    0    0  0.00000000000E+00  0.00000000000E+00  0.41607792292E+02  0.13174261331E+03  0.12499963113E+03 0.  0.
    9000005    1    3    3    0    0  0.42206481776E+02  0.43483019604E+02  0.47138313160E+01  0.60789639771E+02  0.10000000000E+01 0.  0.
    9000005    1    3    3    0    0 -0.42206481776E+02 -0.43483019604E+02  0.36893960976E+02  0.70952973541E+02  0.10000000000E+01 0.  0.
<mgrwt>
<rscale>  0 0.12499963E+03</rscale>
<asrwt>0</asrwt>
<pdfrwt beam="1">  1        4 0.13334646E-01 0.12499963E+03</pdfrwt>
<pdfrwt beam="2">  1       -4 0.69334479E-02 0.12499963E+03</pdfrwt>
<totfact> 0.10307281E+04</totfact>
</mgrwt>
</event>
<event>
 5    1  0.3259432E-002  0.1249895E+03  0.7818608E-02  0.1235086E+00
          4   -1    0    0  501    0  0.00000000000E+00  0.00000000000E+00  0.50165521001E+02  0.50181594208E+02  0.12700000000E+01 0.  1.
         -4   -1    0    0    0  501 -0.00000000000E+00 -0.00000000000E+00 -0.77820469376E+02  0.77830831641E+02  0.12700000000E+01 0.  1.
         25    2    1    2    0    0  0.00000000000E+00  0.00000000000E+00 -0.27654948375E+02  0.12801242585E+03  0.12498953957E+03 0.  0.
    9000005    1    3    3    0    0  0.33049826209E+02 -0.49097302664E+02 -0.34356193942E+02  0.68441100251E+02  0.10000000000E+01 0.  0.
    9000005    1    3    3    0    0 -0.33049826209E+02  0.49097302664E+02  0.67012455671E+01  0.59571325598E+02  0.10000000000E+01 0.  0.
<mgrwt>
<rscale>  0 0.12498954E+03</rscale>
<asrwt>0</asrwt>
<pdfrwt beam="1">  1        4 0.77198059E-02 0.12498954E+03</pdfrwt>
<pdfrwt beam="2">  1       -4 0.11974413E-01 0.12498954E+03</pdfrwt>
<totfact> 0.10389672E+04</totfact>
</mgrwt>
</event>
<event>
 5    1  0.3259432E-002  0.1249994E+03  0.7818608E-02  0.1235070E+00
          4   -1    0    0  501    0  0.00000000000E+00  0.00000000000E+00  0.39242977676E+01  0.41246833780E+01  0.12700000000E+01 0. -1.
         -4   -1    0    0    0  501 -0.00000000000E+00 -0.00000000000E+00 -0.97040898934E+03  0.97040982038E+03  0.12700000000E+01 0. -1.
         25    2    1    2    0    0  0.00000000000E+00  0.00000000000E+00 -0.96648469158E+03  0.97453450376E+03  0.12499935989E+03 0.  0.
    9000005    1    3    3    0    0  0.11585119043E+02  0.60978054539E+02 -0.53982441414E+03  0.54338194322E+03  0.10000000000E+01 0.  0.
    9000005    1    3    3    0    0 -0.11585119043E+02 -0.60978054539E+02 -0.42666027744E+03  0.43115256054E+03  0.10000000000E+01 0.  0.
<mgrwt>
<rscale>  0 0.12499936E+03</rscale>
<asrwt>0</asrwt>
<pdfrwt beam="1">  1        4 0.61921710E-03 0.12499936E+03</pdfrwt>
<pdfrwt beam="2">  1       -4 0.14930898E+00 0.12499936E+03</pdfrwt>
<totfact> 0.31461082E+03</totfact>
</mgrwt>
</event>
<event>
 5    1  0.3259432E-002  0.1249970E+03  0.7818608E-02  0.1235074E+00
         -4   -1    0    0    0  501 -0.00000000000E+00  0.00000000000E+00  0.44075309460E+02  0.44093602756E+02  0.12700000000E+01 0. -1.
          4   -1    0    0  501    0  0.00000000000E+00 -0.00000000000E+00 -0.88581272315E+02  0.88590375916E+02  0.12700000000E+01 0. -1.
         25    2    1    2    0    0  0.00000000000E+00  0.00000000000E+00 -0.44505962855E+02  0.13268397867E+03  0.12499702983E+03 0.  0.
    9000005    1    3    3    0    0  0.61095677178E+02  0.12789109581E+02 -0.19100268558E+02  0.65284480183E+02  0.10000000000E+01 0.  0.
    9000005    1    3    3    0    0 -0.61095677178E+02 -0.12789109581E+02 -0.25405694297E+02  0.67399498488E+02  0.10000000000E+01 0.  0.
<mgrwt>
<rscale>  0 0.12499703E+03</rscale>
<asrwt>0</asrwt>
<pdfrwt beam="2">  1        4 0.13629995E-01 0.12499703E+03</pdfrwt>
<pdfrwt beam="1">  1       -4 0.67829243E-02 0.12499703E+03</pdfrwt>
<totfact> 0.10287810E+04</totfact>
</mgrwt>
</event>
<event>
 5    1  0.3259432E-002  0.1250034E+03  0.7818608E-02  0.1235064E+00
          4   -1    0    0  501    0  0.00000000000E+00  0.00000000000E+00  0.59853267775E+02  0.59866740042E+02  0.12700000000E+01 0. -1.
         -4   -1    0    0    0  501 -0.00000000000E+00 -0.00000000000E+00 -0.65240322947E+02  0.65252682996E+02  0.12700000000E+01 0. -1.
         25    2    1    2    0    0  0.00000000000E+00  0.00000000000E+00 -0.53870551722E+01  0.12511942304E+03  0.12500339859E+03 0.  0.
    9000005    1    3    3    0    0 -0.10929094203E+01 -0.38794004159E+02  0.46334517221E+02  0.60448793998E+02  0.10000000000E+01 0.  0.
    9000005    1    3    3    0    0  0.10929094203E+01  0.38794004159E+02 -0.51721572394E+02  0.64670629041E+02  0.10000000000E+01 0.  0.
<mgrwt>
<rscale>  0 0.12500340E+03</rscale>
<asrwt>0</asrwt>
<pdfrwt beam="1">  1        4 0.92101821E-02 0.12500340E+03</pdfrwt>
<pdfrwt beam="2">  1       -4 0.10038960E-01 0.12500340E+03</pdfrwt>
<totfact> 0.10449467E+04</totfact>
</mgrwt>
</event>
<event>
 5    1  0.3259432E-002  0.1249994E+03  0.7818608E-02  0.1235070E+00
          4   -1    0    0  501    0  0.00000000000E+00  0.00000000000E+00  0.47922879534E+03  0.47923047815E+03  0.12700000000E+01 0. -1.
         -4   -1    0    0    0  501 -0.00000000000E+00 -0.00000000000E+00 -0.80998686880E+01  0.81988275237E+01  0.12700000000E+01 0. -1.
         25    2    1    2    0    0  0.00000000000E+00  0.00000000000E+00  0.47112892666E+03  0.48742930567E+03  0.12499944998E+03 0.  0.
    9000005    1    3    3    0    0 -0.56892004840E+02  0.35908374980E+01  0.33541032296E+03  0.34022151472E+03  0.10000000000E+01 0.  0.
    9000005    1    3    3    0    0  0.56892004840E+02 -0.35908374980E+01  0.13571860369E+03  0.14720779095E+03  0.10000000000E+01 0.  0.
<mgrwt>
<rscale>  0 0.12499945E+03</rscale>
<asrwt>0</asrwt>
<pdfrwt beam="1">  1        4 0.73735286E-01 0.12499945E+03</pdfrwt>
<pdfrwt beam="2">  1       -4 0.12538747E-02 0.12499945E+03</pdfrwt>
<totfact> 0.56853728E+03</totfact>
</mgrwt>
</event>
<event>
 5    1  0.3259432E-002  0.1249990E+03  0.7818608E-02  0.1235071E+00
         -4   -1    0    0    0  501 -0.00000000000E+00  0.00000000000E+00  0.14882548937E+02  0.14936638272E+02  0.12700000000E+01 0. -1.
          4   -1    0    0  501    0  0.00000000000E+00 -0.00000000000E+00 -0.26193573326E+03  0.26193881205E+03  0.12700000000E+01 0. -1.
         25    2    1    2    0    0  0.00000000000E+00  0.00000000000E+00 -0.24705318432E+03  0.27687545032E+03  0.12499895642E+03 0.  0.
    9000005    1    3    3    0    0 -0.62630784883E+01  0.62064293116E+02 -0.11524402518E+03  0.13104727380E+03  0.10000000000E+01 0.  0.
    9000005    1    3    3    0    0  0.62630784883E+01 -0.62064293116E+02 -0.13180915914E+03  0.14582817652E+03  0.10000000000E+01 0.  0.
<mgrwt>
<rscale>  0 0.12499896E+03</rscale>
<asrwt>0</asrwt>
<pdfrwt beam="2">  1        4 0.40302199E-01 0.12499896E+03</pdfrwt>
<pdfrwt beam="1">  1       -4 0.22940207E-02 0.12499896E+03</pdfrwt>
<totfact> 0.78596055E+03</totfact>
</mgrwt>
</event>
<event>
 5    1  0.3259432E-002  0.1250012E+03  0.7818608E-02  0.1235067E+00
         -4   -1    0    0    0  501 -0.00000000000E+00  0.00000000000E+00  0.26334654853E+02  0.26365260215E+02  0.12700000000E+01 0. -1.
          4   -1    0    0  501    0  0.00000000000E+00 -0.00000000000E+00 -0.14821451019E+03  0.14821995119E+03  0.12700000000E+01 0. -1.
         25    2    1    2    0    0  0.00000000000E+00  0.00000000000E+00 -0.12187985533E+03  0.17458521140E+03  0.12500118761E+03 0.  0.
    9000005    1    3    3    0    0  0.57460315976E+02 -0.35834518589E+01 -0.94887739647E+02  0.11099194644E+03  0.10000000000E+01 0.  0.
    9000005    1    3    3    0    0 -0.57460315976E+02  0.35834518589E+01 -0.26992115686E+02  0.63593264961E+02  0.10000000000E+01 0.  0.
<mgrwt>
<rscale>  0 0.12500119E+03</rscale>
<asrwt>0</asrwt>
<pdfrwt beam="2">  1        4 0.22805005E-01 0.12500119E+03</pdfrwt>
<pdfrwt beam="1">  1       -4 0.40542582E-02 0.12500119E+03</pdfrwt>
<totfact> 0.94598343E+03</totfact>
</mgrwt>
</event>
<event>
 5    1  0.3259432E-002  0.1249904E+03  0.7818608E-02  0.1235084E+00
          4   -1    0    0  501    0  0.00000000000E+00  0.00000000000E+00  0.43098642474E+02  0.43117350140E+02  0.12700000000E+01 0.  1.
         -4   -1    0    0    0  501 -0.00000000000E+00 -0.00000000000E+00 -0.90578342486E+02  0.90587245391E+02  0.12700000000E+01 0.  1.
         25    2    1    2    0    0  0.00000000000E+00  0.00000000000E+00 -0.47479700012E+02  0.13370459553E+03  0.12499038744E+03 0.  0.
    9000005    1    3    3    0    0 -0.18528048750E+02  0.28899731851E+02  0.32113069669E+02  0.47018425485E+02  0.10000000000E+01 0.  0.
    9000005    1    3    3    0    0  0.18528048750E+02 -0.28899731851E+02 -0.79592769681E+02  0.86686170045E+02  0.10000000000E+01 0.  0.
<mgrwt>
<rscale>  0 0.12499039E+03</rscale>
<asrwt>0</asrwt>
<pdfrwt beam="1">  1        4 0.66326843E-02 0.12499039E+03</pdfrwt>
<pdfrwt beam="2">  1       -4 0.13937253E-01 0.12499039E+03</pdfrwt>
<totfact> 0.10267673E+04</totfact>
</mgrwt>
</event>
<event>
 5    1  0.3259432E-002  0.1249989E+03  0.7818608E-02  0.1235071E+00
          4   -1    0    0  501    0  0.00000000000E+00  0.00000000000E+00  0.91279879741E+02  0.91288714229E+02  0.12700000000E+01 0. -1.
         -4   -1    0    0    0  501 -0.00000000000E+00 -0.00000000000E+00 -0.42773143144E+02  0.42791993111E+02  0.12700000000E+01 0. -1.
         25    2    1    2    0    0  0.00000000000E+00  0.00000000000E+00  0.48506736597E+02  0.13408070734E+03  0.12499893034E+03 0.  0.
    9000005    1    3    3    0    0  0.36927430132E+02 -0.74557304840E+00  0.78324026875E+02  0.86601640638E+02  0.10000000000E+01 0.  0.
    9000005    1    3    3    0    0 -0.36927430132E+02  0.74557304840E+00 -0.29817290278E+02  0.47479066702E+02  0.10000000000E+01 0.  0.
<mgrwt>
<rscale>  0 0.12499893E+03</rscale>
<asrwt>0</asrwt>
<pdfrwt beam="1">  1        4 0.14045188E-01 0.12499893E+03</pdfrwt>
<pdfrwt beam="2">  1       -4 0.65826131E-02 0.12499893E+03</pdfrwt>
<totfact> 0.10257731E+04</totfact>
</mgrwt>
</event>
<event>
 5    1  0.3259432E-002  0.1250014E+03  0.7818608E-02  0.1235067E+00
         -4   -1    0    0    0  501 -0.00000000000E+00  0.00000000000E+00  0.37534149643E+02  0.37555629264E+02  0.12700000000E+01 0. -1.
          4   -1    0    0  501    0  0.00000000000E+00 -0.00000000000E+00 -0.10401904466E+03  0.10402679728E+03  0.12700000000E+01 0. -1.
         25    2    1    2    0    0  0.00000000000E+00  0.00000000000E+00 -0.66484895014E+02  0.14158242654E+03  0.12500136895E+03 0.  0.
    9000005    1    3    3    0    0 -0.98419005018E+01 -0.49685197995E+02  0.82169765489E+01  0.51322515613E+02  0.10000000000E+01 0.  0.
    9000005    1    3    3    0    0  0.98419005018E+01  0.49685197995E+02 -0.74701871563E+02  0.90259910926E+02  0.10000000000E+01 0.  0.
<mgrwt>
<rscale>  0 0.12500137E+03</rscale>
<asrwt>0</asrwt>
<pdfrwt beam="2">  1        4 0.16005178E-01 0.12500137E+03</pdfrwt>
<pdfrwt beam="1">  1       -4 0.57767333E-02 0.12500137E+03</pdfrwt>
<totfact> 0.10100582E+04</totfact>
</mgrwt>
</event>
<event>
 5    1  0.3259432E-002  0.1249982E+03  0.7818608E-02  0.1235072E+00
         -4   -1    0    0    0  501 -0.00000000000E+00  0.00000000000E+00  0.76123593178E+01  0.77175717933E+01  0.12700000000E+01 0.  1.
          4   -1    0    0  501    0  0.00000000000E+00 -0.00000000000E+00 -0.50950325635E+03  0.50950483917E+03  0.12700000000E+01 0.  1.
         25    2    1    2    0    0  0.00000000000E+00  0.00000000000E+00 -0.50189089704E+03  0.51722241096E+03  0.12499819948E+03 0.  0.
    9000005    1    3    3    0    0  0.29406663796E+02 -0.14576819934E+02 -0.30903365306E+02  0.45091612771E+02  0.10000000000E+01 0.  0.
    9000005    1    3    3    0    0 -0.29406663796E+02  0.14576819934E+02 -0.47098753173E+03  0.47213079819E+03  0.10000000000E+01 0.  0.
<mgrwt>
<rscale>  0 0.12499820E+03</rscale>
<asrwt>0</asrwt>
<pdfrwt beam="2">  1        4 0.78393305E-01 0.12499820E+03</pdfrwt>
<pdfrwt beam="1">  1       -4 0.11793476E-02 0.12499820E+03</pdfrwt>
<totfact> 0.54554619E+03</totfact>
</mgrwt>
</event>
<event>
 5    1  0.3259432E-002  0.1249907E+03  0.7818608E-02  0.1235084E+00
         -4   -1    0    0    0  501 -0.00000000000E+00  0.00000000000E+00  0.71625031286E+03  0.71625143879E+03  0.12700000000E+01 0.  1.
          4   -1    0    0  501    0  0.00000000000E+00 -0.00000000000E+00 -0.53778476510E+01  0.55257710192E+01  0.12700000000E+01 0.  1.
         25    2    1    2    0    0  0.00000000000E+00  0.00000000000E+00  0.71087246521E+03  0.72177720981E+03  0.12499071490E+03 0.  0.
    9000005    1    3    3    0    0  0.55676769345E+02 -0.25353373473E+02  0.42892947562E+03  0.43327149831E+03  0.10000000000E+01 0.  0.
    9000005    1    3    3    0    0 -0.55676769345E+02  0.25353373473E+02  0.28194298958E+03  0.28850571150E+03  0.10000000000E+01 0.  0.
<mgrwt>
<rscale>  0 0.12499071E+03</rscale>
<asrwt>0</asrwt>
<pdfrwt beam="2">  1        4 0.83882663E-03 0.12499071E+03</pdfrwt>
<pdfrwt beam="1">  1       -4 0.11020381E+00 0.12499071E+03</pdfrwt>
<totfact> 0.41970262E+03</totfact>
</mgrwt>
</event>
<event>
 5    1  0.3259432E-002  0.1249958E+03  0.7818608E-02  0.1235076E+00
          4   -1    0    0  501    0  0.00000000000E+00  0.00000000000E+00  0.67590395574E+01  0.68773189353E+01  0.12700000000E+01 0.  1.
         -4   -1    0    0    0  501 -0.00000000000E+00 -0.00000000000E+00 -0.57275958327E+03  0.57276099128E+03  0.12700000000E+01 0.  1.
         25    2    1    2    0    0  0.00000000000E+00  0.00000000000E+00 -0.56600054372E+03  0.57963831022E+03  0.12499582066E+03 0.  0.
    9000005    1    3    3    0    0 -0.27624932043E+02 -0.55886927534E+02 -0.30294764297E+03  0.30929720322E+03  0.10000000000E+01 0.  0.
    9000005    1    3    3    0    0  0.27624932043E+02  0.55886927534E+02 -0.26305290075E+03  0.27034110700E+03  0.10000000000E+01 0.  0.
<mgrwt>
<rscale>  0 0.12499582E+03</rscale>
<asrwt>0</asrwt>
<pdfrwt beam="1">  1        4 0.10490594E-02 0.12499582E+03</pdfrwt>
<pdfrwt beam="2">  1       -4 0.88126028E-01 0.12499582E+03</pdfrwt>
<totfact> 0.50183268E+03</totfact>
</mgrwt>
</event>
<event>
 5    1  0.3259432E-002  0.1249949E+03  0.7818608E-02  0.1235077E+00
          4   -1    0    0  501    0  0.00000000000E+00  0.00000000000E+00  0.11600486400E+02  0.11669797973E+02  0.12700000000E+01 0. -1.
         -4   -1    0    0    0  501 -0.00000000000E+00 -0.00000000000E+00 -0.33563055165E+03  0.33563295443E+03  0.12700000000E+01 0. -1.
         25    2    1    2    0    0  0.00000000000E+00  0.00000000000E+00 -0.32403006524E+03  0.34730275240E+03  0.12499487446E+03 0.  0.
    9000005    1    3    3    0    0  0.44185149323E+01  0.54148120490E+02 -0.24780781091E+03  0.25369519777E+03  0.10000000000E+01 0.  0.
    9000005    1    3    3    0    0 -0.44185149323E+01 -0.54148120490E+02 -0.76222254337E+02  0.93607554626E+02  0.10000000000E+01 0.  0.
<mgrwt>
<rscale>  0 0.12499487E+03</rscale>
<asrwt>0</asrwt>
<pdfrwt beam="1">  1        4 0.17902070E-02 0.12499487E+03</pdfrwt>
<pdfrwt beam="2">  1       -4 0.51640979E-01 0.12499487E+03</pdfrwt>
<totfact> 0.70030256E+03</totfact>
</mgrwt>
</event>
<event>
 5    1  0.3259432E-002  0.1249879E+03  0.7818608E-02  0.1235088E+00
         -4   -1    0    0    0  501 -0.00000000000E+00  0.00000000000E+00  0.46402108191E+02  0.46419484536E+02  0.12700000000E+01 0. -1.
          4   -1    0    0  501    0  0.00000000000E+00 -0.00000000000E+00 -0.84128401667E+02  0.84137987063E+02  0.12700000000E+01 0. -1.
         25    2    1    2    0    0  0.00000000000E+00  0.00000000000E+00 -0.37726293476E+02  0.13055747160E+03  0.12498792010E+03 0.  0.
    9000005    1    3    3    0    0 -0.15784560922E+02 -0.33361011321E+01 -0.81920476014E+02  0.83499977992E+02  0.10000000000E+01 0.  0.
    9000005    1    3    3    0    0  0.15784560922E+02  0.33361011321E+01  0.44194182538E+02  0.47057493606E+02  0.10000000000E+01 0.  0.
<mgrwt>
<rscale>  0 0.12498792E+03</rscale>
<asrwt>0</asrwt>
<pdfrwt beam="2">  1        4 0.12944905E-01 0.12498792E+03</pdfrwt>
<pdfrwt beam="1">  1       -4 0.71408598E-02 0.12498792E+03</pdfrwt>
<totfact> 0.10335402E+04</totfact>
</mgrwt>
</event>
<event>
 5    1  0.3259432E-002  0.1249794E+03  0.7818608E-02  0.1235101E+00
          4   -1    0    0  501    0  0.00000000000E+00  0.00000000000E+00  0.14732006408E+03  0.14732553811E+03  0.12700000000E+01 0.  1.
         -4   -1    0    0    0  501 -0.00000000000E+00 -0.00000000000E+00 -0.26485496041E+02  0.26515927299E+02  0.12700000000E+01 0.  1.
         25    2    1    2    0    0  0.00000000000E+00  0.00000000000E+00  0.12083456804E+03  0.17384146541E+03  0.12497944736E+03 0.  0.
    9000005    1    3    3    0    0  0.96329198924E+01  0.41329043118E+01 -0.25260588853E+02  0.27367341722E+02  0.10000000000E+01 0.  0.
    9000005    1    3    3    0    0 -0.96329198924E+01 -0.41329043118E+01  0.14609515689E+03  0.14647412369E+03  0.10000000000E+01 0.  0.
<mgrwt>
<rscale>  0 0.12497945E+03</rscale>
<asrwt>0</asrwt>
<pdfrwt beam="1">  1        4 0.22667387E-01 0.12497945E+03</pdfrwt>
<pdfrwt beam="2">  1       -4 0.40774537E-02 0.12497945E+03</pdfrwt>
<totfact> 0.94781151E+03</totfact>
</mgrwt>
</event>
<event>
 5    1  0.3259432E-002  0.1249992E+03  0.7818608E-02  0.1235071E+00
         -4   -1    0    0    0  501 -0.00000000000E+00  0.00000000000E+00  0.85943465394E+02  0.85952848376E+02  0.12700000000E+01 0. -1.
          4   -1    0    0  501    0  0.00000000000E+00 -0.00000000000E+00 -0.45430063571E+02  0.45447811565E+02  0.12700000000E+01 0. -1.
         25    2    1    2    0    0  0.00000000000E+00  0.00000000000E+00  0.40513401823E+02  0.13140065994E+03  0.12499919082E+03 0.  0.
    9000005    1    3    3    0    0 -0.51422228824E+01  0.22508537389E+02  0.81300566879E+02  0.84521351660E+02  0.10000000000E+01 0.  0.
    9000005    1    3    3    0    0  0.51422228824E+01 -0.22508537389E+02 -0.40787165056E+02  0.46879308281E+02  0.10000000000E+01 0.  0.
<mgrwt>
<rscale>  0 0.12499919E+03</rscale>
<asrwt>0</asrwt>
<pdfrwt beam="2">  1        4 0.69913276E-02 0.12499919E+03</pdfrwt>
<pdfrwt beam="1">  1       -4 0.13224158E-01 0.12499919E+03</pdfrwt>
<totfact> 0.10314696E+04</totfact>
</mgrwt>
</event>
<event>
 5    1  0.3259432E-002  0.1250145E+03  0.7818608E-02  0.1235047E+00
          4   -1    0    0  501    0  0.00000000000E+00  0.00000000000E+00  0.92281081395E+03  0.92281168785E+03  0.12700000000E+01 0.  1.
         -4   -1    0    0    0  501 -0.00000000000E+00 -0.00000000000E+00 -0.41378403727E+01  0.43283510659E+01  0.12700000000E+01 0.  1.
         25    2    1    2    0    0  0.00000000000E+00  0.00000000000E+00  0.91867297357E+03  0.92714003892E+03  0.12501447672E+03 0.  0.
    9000005    1    3    3    0    0  0.49221071628E+02 -0.33739836670E+02  0.59710028011E+03  0.60007569104E+03  0.10000000000E+01 0.  0.
    9000005    1    3    3    0    0 -0.49221071628E+02  0.33739836670E+02  0.32157269347E+03  0.32706434788E+03  0.10000000000E+01 0.  0.
<mgrwt>
<rscale>  0 0.12501448E+03</rscale>
<asrwt>0</asrwt>
<pdfrwt beam="1">  1        4 0.14198568E+00 0.12501448E+03</pdfrwt>
<pdfrwt beam="2">  1       -4 0.65131244E-03 0.12501448E+03</pdfrwt>
<totfact> 0.33131260E+03</totfact>
</mgrwt>
</event>
<event>
 5    1  0.3259432E-002  0.1250021E+03  0.7818608E-02  0.1235066E+00
         -4   -1    0    0    0  501 -0.00000000000E+00  0.00000000000E+00  0.69565385173E+01  0.70715152650E+01  0.12700000000E+01 0.  1.
          4   -1    0    0  501    0  0.00000000000E+00 -0.00000000000E+00 -0.55682248465E+03  0.55682393295E+03  0.12700000000E+01 0.  1.
         25    2    1    2    0    0  0.00000000000E+00  0.00000000000E+00 -0.54986594613E+03  0.56389544822E+03  0.12500207121E+03 0.  0.
    9000005    1    3    3    0    0  0.32204948905E+02 -0.14492096361E+02 -0.42351457939E+02  0.55152747715E+02  0.10000000000E+01 0.  0.
    9000005    1    3    3    0    0 -0.32204948905E+02  0.14492096361E+02 -0.50751448819E+03  0.50874270050E+03  0.10000000000E+01 0.  0.
<mgrwt>
<rscale>  0 0.12500207E+03</rscale>
<asrwt>0</asrwt>
<pdfrwt beam="2">  1        4 0.85673919E-01 0.12500207E+03</pdfrwt>
<pdfrwt beam="1">  1       -4 0.10791929E-02 0.12500207E+03</pdfrwt>
<totfact> 0.51226621E+03</totfact>
</mgrwt>
</event>
<event>
 5    1  0.3259432E-002  0.1249995E+03  0.7818608E-02  0.1235070E+00
          4   -1    0    0  501    0  0.00000000000E+00  0.00000000000E+00  0.65755558280E+02  0.65767821499E+02  0.12700000000E+01 0.  1.
         -4   -1    0    0    0  501 -0.00000000000E+00 -0.00000000000E+00 -0.59380535017E+02  0.59394114514E+02  0.12700000000E+01 0.  1.
         25    2    1    2    0    0  0.00000000000E+00  0.00000000000E+00  0.63750232629E+01  0.12516193601E+03  0.12499947722E+03 0.  0.
    9000005    1    3    3    0    0 -0.56200377828E+02  0.99070639651E+01 -0.22312918515E+02  0.61282123960E+02  0.10000000000E+01 0.  0.
    9000005    1    3    3    0    0  0.56200377828E+02 -0.99070639651E+01  0.28687941778E+02  0.63879812053E+02  0.10000000000E+01 0.  0.
<mgrwt>
<rscale>  0 0.12499948E+03</rscale>
<asrwt>0</asrwt>
<pdfrwt beam="1">  1        4 0.10118228E-01 0.12499948E+03</pdfrwt>
<pdfrwt beam="2">  1       -4 0.91374548E-02 0.12499948E+03</pdfrwt>
<totfact> 0.10449470E+04</totfact>
</mgrwt>
</event>
<event>
 5    1  0.3259432E-002  0.1249979E+03  0.7818608E-02  0.1235073E+00
         -4   -1    0    0    0  501 -0.00000000000E+00  0.00000000000E+00  0.96149538582E+02  0.96157925672E+02  0.12700000000E+01 0. -1.
          4   -1    0    0  501    0  0.00000000000E+00 -0.00000000000E+00 -0.40605338600E+02  0.40625194434E+02  0.12700000000E+01 0. -1.
         25    2    1    2    0    0  0.00000000000E+00  0.00000000000E+00  0.55544199982E+02  0.13678312011E+03  0.12499785516E+03 0.  0.
    9000005    1    3    3    0    0 -0.66477479774E+00 -0.12199594160E+02 -0.39291013684E+02  0.41158908871E+02  0.10000000000E+01 0.  0.
    9000005    1    3    3    0    0  0.66477479774E+00  0.12199594160E+02  0.94835213666E+02  0.95624211235E+02  0.10000000000E+01 0.  0.
<mgrwt>
<rscale>  0 0.12499786E+03</rscale>
<asrwt>0</asrwt>
<pdfrwt beam="2">  1        4 0.62491477E-02 0.12499786E+03</pdfrwt>
<pdfrwt beam="1">  1       -4 0.14794409E-01 0.12499786E+03</pdfrwt>
<totfact> 0.10201116E+04</totfact>
</mgrwt>
</event>
<event>
 5    1  0.3259432E-002  0.1249994E+03  0.7818608E-02  0.1235070E+00
         -4   -1    0    0    0  501 -0.00000000000E+00  0.00000000000E+00  0.17192134401E+03  0.17192603475E+03  0.12700000000E+01 0.  1.
          4   -1    0    0  501    0  0.00000000000E+00 -0.00000000000E+00 -0.22698185034E+02  0.22733686543E+02  0.12700000000E+01 0.  1.
         25    2    1    2    0    0  0.00000000000E+00  0.00000000000E+00  0.14922315897E+03  0.19465972129E+03  0.12499942368E+03 0.  0.
    9000005    1    3    3    0    0 -0.50394613685E+02 -0.18208127321E+02  0.24534249621E+02  0.58941347061E+02  0.10000000000E+01 0.  0.
    9000005    1    3    3    0    0  0.50394613685E+02  0.18208127321E+02  0.12468890935E+03  0.13571837423E+03  0.10000000000E+01 0.  0.
<mgrwt>
<rscale>  0 0.12499942E+03</rscale>
<asrwt>0</asrwt>
<pdfrwt beam="2">  1        4 0.34951202E-02 0.12499942E+03</pdfrwt>
<pdfrwt beam="1">  1       -4 0.26452529E-01 0.12499942E+03</pdfrwt>
<totfact> 0.91043975E+03</totfact>
</mgrwt>
</event>
<event>
 5    1  0.3259432E-002  0.1250062E+03  0.7818608E-02  0.1235060E+00
         -4   -1    0    0    0  501 -0.00000000000E+00  0.00000000000E+00  0.14180227496E+04  0.14180233184E+04  0.12700000000E+01 0.  1.
          4   -1    0    0  501    0  0.00000000000E+00 -0.00000000000E+00 -0.26080272526E+01  0.29008112917E+01  0.12700000000E+01 0.  1.
         25    2    1    2    0    0  0.00000000000E+00  0.00000000000E+00  0.14154147224E+04  0.14209241297E+04  0.12500618328E+03 0.  0.
    9000005    1    3    3    0    0  0.23202461949E+01  0.34859049822E+02  0.11870153414E+03  0.12374001416E+03  0.10000000000E+01 0.  0.
    9000005    1    3    3    0    0 -0.23202461949E+01 -0.34859049822E+02  0.12967131883E+04  0.12971841155E+04  0.10000000000E+01 0.  0.
<mgrwt>
<rscale>  0 0.12500618E+03</rscale>
<asrwt>0</asrwt>
<pdfrwt beam="2">  1        4 0.42380015E-03 0.12500618E+03</pdfrwt>
<pdfrwt beam="1">  1       -4 0.21818012E+00 0.12500618E+03</pdfrwt>
<totfact> 0.19533643E+03</totfact>
</mgrwt>
</event>
<event>
 5    1  0.3259432E-002  0.1249971E+03  0.7818608E-02  0.1235074E+00
          4   -1    0    0  501    0  0.00000000000E+00  0.00000000000E+00  0.11064127607E+03  0.11064856470E+03  0.12700000000E+01 0.  1.
         -4   -1    0    0    0  501 -0.00000000000E+00 -0.00000000000E+00 -0.35284040327E+02  0.35306888872E+02  0.12700000000E+01 0.  1.
         25    2    1    2    0    0  0.00000000000E+00  0.00000000000E+00  0.75357235746E+02  0.14595545358E+03  0.12499712576E+03 0.  0.
    9000005    1    3    3    0    0  0.36495063727E+01  0.28144156620E+02  0.10268817140E+03  0.10654235306E+03  0.10000000000E+01 0.  0.
    9000005    1    3    3    0    0 -0.36495063727E+01 -0.28144156620E+02 -0.27330935658E+02  0.39413100519E+02  0.10000000000E+01 0.  0.
<mgrwt>
<rscale>  0 0.12499713E+03</rscale>
<asrwt>0</asrwt>
<pdfrwt beam="1">  1        4 0.17024053E-01 0.12499713E+03</pdfrwt>
<pdfrwt beam="2">  1       -4 0.54306322E-02 0.12499713E+03</pdfrwt>
<totfact> 0.10012260E+04</totfact>
</mgrwt>
</event>
<event>
 5    1  0.3259432E-002  0.1249847E+03  0.7818608E-02  0.1235093E+00
          4   -1    0    0  501    0  0.00000000000E+00  0.00000000000E+00  0.47435021425E+02  0.47452019531E+02  0.12700000000E+01 0.  1.
         -4   -1    0    0    0  501 -0.00000000000E+00 -0.00000000000E+00 -0.82292650452E+02  0.82302449650E+02  0.12700000000E+01 0.  1.
         25    2    1    2    0    0  0.00000000000E+00  0.00000000000E+00 -0.34857629027E+02  0.12975446918E+03  0.12498467094E+03 0.  0.
    9000005    1    3    3    0    0  0.25453083552E+02 -0.50914845837E+02 -0.44182641383E+02  0.72064462729E+02  0.10000000000E+01 0.  0.
    9000005    1    3    3    0    0 -0.25453083552E+02  0.50914845837E+02  0.93250123565E+01  0.57690006451E+02  0.10000000000E+01 0.  0.
<mgrwt>
<rscale>  0 0.12498467E+03</rscale>
<asrwt>0</asrwt>
<pdfrwt beam="1">  1        4 0.72997569E-02 0.12498467E+03</pdfrwt>
<pdfrwt beam="2">  1       -4 0.12662469E-01 0.12498467E+03</pdfrwt>
<totfact> 0.10353345E+04</totfact>
</mgrwt>
</event>
<event>
 5    1  0.3259432E-002  0.1250005E+03  0.7818608E-02  0.1235068E+00
          4   -1    0    0  501    0  0.00000000000E+00  0.00000000000E+00  0.36766255465E+02  0.36788183442E+02  0.12700000000E+01 0. -1.
         -4   -1    0    0    0  501 -0.00000000000E+00 -0.00000000000E+00 -0.10618898599E+03  0.10619658019E+03  0.12700000000E+01 0. -1.
         25    2    1    2    0    0  0.00000000000E+00  0.00000000000E+00 -0.69422730520E+02  0.14298476363E+03  0.12500050847E+03 0.  0.
    9000005    1    3    3    0    0 -0.61669591591E+01  0.38176929024E+02 -0.90863465252E+02  0.98755651041E+02  0.10000000000E+01 0.  0.
    9000005    1    3    3    0    0  0.61669591591E+01 -0.38176929024E+02  0.21440734732E+02  0.44229112593E+02  0.10000000000E+01 0.  0.
<mgrwt>
<rscale>  0 0.12500051E+03</rscale>
<asrwt>0</asrwt>
<pdfrwt beam="1">  1        4 0.56586180E-02 0.12500051E+03</pdfrwt>
<pdfrwt beam="2">  1       -4 0.16339038E-01 0.12500051E+03</pdfrwt>
<totfact> 0.10071980E+04</totfact>
</mgrwt>
</event>
<event>
 5    1  0.3259432E-002  0.1250013E+03  0.7818608E-02  0.1235067E+00
          4   -1    0    0  501    0  0.00000000000E+00  0.00000000000E+00  0.31301764161E+03  0.31302021797E+03  0.12700000000E+01 0.  1.
         -4   -1    0    0    0  501 -0.00000000000E+00 -0.00000000000E+00 -0.12444634969E+02  0.12509270143E+02  0.12700000000E+01 0.  1.
         25    2    1    2    0    0  0.00000000000E+00  0.00000000000E+00  0.30057300664E+03  0.32552948812E+03  0.12500126124E+03 0.  0.
    9000005    1    3    3    0    0 -0.62781690419E+01  0.34782761332E+02  0.28449992192E+03  0.28668878852E+03  0.10000000000E+01 0.  0.
    9000005    1    3    3    0    0  0.62781690419E+01 -0.34782761332E+02  0.16073084722E+02  0.38840699593E+02  0.10000000000E+01 0.  0.
<mgrwt>
<rscale>  0 0.12500126E+03</rscale>
<asrwt>0</asrwt>
<pdfrwt beam="1">  1        4 0.48161727E-01 0.12500126E+03</pdfrwt>
<pdfrwt beam="2">  1       -4 0.19197295E-02 0.12500126E+03</pdfrwt>
<totfact> 0.72501231E+03</totfact>
</mgrwt>
</event>
<event>
 5    1  0.3259432E-002  0.1250001E+03  0.7818608E-02  0.1235069E+00
          4   -1    0    0  501    0  0.00000000000E+00  0.00000000000E+00  0.13608029022E+02  0.13667163344E+02  0.12700000000E+01 0.  1.
         -4   -1    0    0    0  501 -0.00000000000E+00 -0.00000000000E+00 -0.28637243902E+03  0.28637525509E+03  0.12700000000E+01 0.  1.
         25    2    1    2    0    0  0.00000000000E+00  0.00000000000E+00 -0.27276440999E+03  0.30004241843E+03  0.12500011800E+03 0.  0.
    9000005    1    3    3    0    0 -0.60891337464E+02  0.13421905061E+02 -0.14638180923E+03  0.15911171103E+03  0.10000000000E+01 0.  0.
    9000005    1    3    3    0    0  0.60891337464E+02 -0.13421905061E+02 -0.12638260077E+03  0.14093070741E+03  0.10000000000E+01 0.  0.
<mgrwt>
<rscale>  0 0.12500012E+03</rscale>
<asrwt>0</asrwt>
<pdfrwt beam="1">  1        4 0.20983086E-02 0.12500012E+03</pdfrwt>
<pdfrwt beam="2">  1       -4 0.44062059E-01 0.12500012E+03</pdfrwt>
<totfact> 0.75593322E+03</totfact>
</mgrwt>
</event>
<event>
 5    1  0.3259432E-002  0.1250027E+03  0.7818608E-02  0.1235065E+00
          4   -1    0    0  501    0  0.00000000000E+00  0.00000000000E+00  0.51280039066E+02  0.51295763048E+02  0.12700000000E+01 0. -1.
         -4   -1    0    0    0  501 -0.00000000000E+00 -0.00000000000E+00 -0.76145488286E+02  0.76156078459E+02  0.12700000000E+01 0. -1.
         25    2    1    2    0    0  0.00000000000E+00  0.00000000000E+00 -0.24865449220E+02  0.12745184151E+03  0.12500272532E+03 0.  0.
    9000005    1    3    3    0    0 -0.17387616861E+02  0.57178475500E+02  0.61930022960E+01  0.60092100629E+02  0.10000000000E+01 0.  0.
    9000005    1    3    3    0    0  0.17387616861E+02 -0.57178475500E+02 -0.31058451516E+02  0.67359740878E+02  0.10000000000E+01 0.  0.
<mgrwt>
<rscale>  0 0.12500273E+03</rscale>
<asrwt>0</asrwt>
<pdfrwt beam="1">  1        4 0.78912609E-02 0.12500273E+03</pdfrwt>
<pdfrwt beam="2">  1       -4 0.11716715E-01 0.12500273E+03</pdfrwt>
<totfact> 0.10398704E+04</totfact>
</mgrwt>
</event>
<event>
 5    1  0.3259432E-002  0.1249994E+03  0.7818608E-02  0.1235070E+00
         -4   -1    0    0    0  501 -0.00000000000E+00  0.00000000000E+00  0.36764379220E+02  0.36786308315E+02  0.12700000000E+01 0. -1.
          4   -1    0    0  501    0  0.00000000000E+00 -0.00000000000E+00 -0.10619256789E+03  0.10620016184E+03  0.12700000000E+01 0. -1.
         25    2    1    2    0    0  0.00000000000E+00  0.00000000000E+00 -0.69428188669E+02  0.14298647015E+03  0.12499942906E+03 0.  0.
    9000005    1    3    3    0    0 -0.31287827068E+02  0.39524079238E+02 -0.76962986901E+02  0.92007512274E+02  0.10000000000E+01 0.  0.
    9000005    1    3    3    0    0  0.31287827068E+02 -0.39524079238E+02  0.75347982319E+01  0.50978957881E+02  0.10000000000E+01 0.  0.
<mgrwt>
<rscale>  0 0.12499943E+03</rscale>
<asrwt>0</asrwt>
<pdfrwt beam="2">  1        4 0.16339589E-01 0.12499943E+03</pdfrwt>
<pdfrwt beam="1">  1       -4 0.56583294E-02 0.12499943E+03</pdfrwt>
<totfact> 0.10072190E+04</totfact>
</mgrwt>
</event>
<event>
 5    1  0.3259432E-002  0.1250019E+03  0.7818608E-02  0.1235066E+00
         -4   -1    0    0    0  501 -0.00000000000E+00  0.00000000000E+00  0.34034402523E+01  0.36326719575E+01  0.12700000000E+01 0. -1.
          4   -1    0    0  501    0  0.00000000000E+00 -0.00000000000E+00 -0.11101471825E+04  0.11101479089E+04  0.12700000000E+01 0. -1.
         25    2    1    2    0    0  0.00000000000E+00  0.00000000000E+00 -0.11067437422E+04  0.11137805809E+04  0.12500188546E+03 0.  0.
    9000005    1    3    3    0    0  0.56545732597E+02  0.26495346571E+02 -0.57509605968E+03  0.57847722611E+03  0.10000000000E+01 0.  0.
    9000005    1    3    3    0    0 -0.56545732597E+02 -0.26495346571E+02 -0.53164768253E+03  0.53530335474E+03  0.10000000000E+01 0.  0.
<mgrwt>
<rscale>  0 0.12500189E+03</rscale>
<asrwt>0</asrwt>
<pdfrwt beam="2">  1        4 0.17080928E+00 0.12500189E+03</pdfrwt>
<pdfrwt beam="1">  1       -4 0.54129617E-03 0.12500189E+03</pdfrwt>
<totfact> 0.27082477E+03</totfact>
</mgrwt>
</event>
<event>
 5    1  0.3259432E-002  0.1249893E+03  0.7818608E-02  0.1235086E+00
         -4   -1    0    0    0  501 -0.00000000000E+00  0.00000000000E+00  0.12396543377E+03  0.12397193904E+03  0.12700000000E+01 0.  1.
          4   -1    0    0  501    0  0.00000000000E+00 -0.00000000000E+00 -0.31485261406E+02  0.31510864568E+02  0.12700000000E+01 0.  1.
         25    2    1    2    0    0  0.00000000000E+00  0.00000000000E+00  0.92480172364E+02  0.15548280361E+03  0.12498927929E+03 0.  0.
    9000005    1    3    3    0    0 -0.28906177690E+02  0.42331415354E+02  0.90694609319E+02  0.10418266648E+03  0.10000000000E+01 0.  0.
    9000005    1    3    3    0    0  0.28906177690E+02 -0.42331415354E+02  0.17855630452E+01  0.51300137133E+02  0.10000000000E+01 0.  0.
<mgrwt>
<rscale>  0 0.12498928E+03</rscale>
<asrwt>0</asrwt>
<pdfrwt beam="2">  1        4 0.48463562E-02 0.12498928E+03</pdfrwt>
<pdfrwt beam="1">  1       -4 0.19074075E-01 0.12498928E+03</pdfrwt>
<totfact> 0.98244486E+03</totfact>
</mgrwt>
</event>
<event>
 5    1  0.3259432E-002  0.1249993E+03  0.7818608E-02  0.1235070E+00
          4   -1    0    0  501    0  0.00000000000E+00  0.00000000000E+00  0.53518062737E+01  0.55004300188E+01  0.12700000000E+01 0. -1.
         -4   -1    0    0    0  501 -0.00000000000E+00 -0.00000000000E+00 -0.71974067943E+03  0.71974179990E+03  0.12700000000E+01 0. -1.
         25    2    1    2    0    0  0.00000000000E+00  0.00000000000E+00 -0.71438887316E+03  0.72524222992E+03  0.12499931988E+03 0.  0.
    9000005    1    3    3    0    0  0.36883645001E+02 -0.33661017227E+02 -0.13919628227E+03  0.14788533513E+03  0.10000000000E+01 0.  0.
    9000005    1    3    3    0    0 -0.36883645001E+02  0.33661017227E+02 -0.57519259089E+03  0.57735689479E+03  0.10000000000E+01 0.  0.
<mgrwt>
<rscale>  0 0.12499932E+03</rscale>
<asrwt>0</asrwt>
<pdfrwt beam="1">  1        4 0.83487417E-03 0.12499932E+03</pdfrwt>
<pdfrwt beam="2">  1       -4 0.11074078E+00 0.12499932E+03</pdfrwt>
<totfact> 0.41787844E+03</totfact>
</mgrwt>
</event>
<event>
 5    1  0.3259432E-002  0.1249989E+03  0.7818608E-02  0.1235071E+00
         -4   -1    0    0    0  501 -0.00000000000E+00  0.00000000000E+00  0.35961505231E+03  0.35961729484E+03  0.12700000000E+01 0. -1.
          4   -1    0    0  501    0  0.00000000000E+00 -0.00000000000E+00 -0.10822715742E+02  0.10896975545E+02  0.12700000000E+01 0. -1.
         25    2    1    2    0    0  0.00000000000E+00  0.00000000000E+00  0.34879233657E+03  0.37051427039E+03  0.12499892204E+03 0.  0.
    9000005    1    3    3    0    0  0.14678853159E+02  0.27414861707E+02  0.13726143910E+02  0.34006622872E+02  0.10000000000E+01 0.  0.
    9000005    1    3    3    0    0 -0.14678853159E+02 -0.27414861707E+02  0.33506619266E+03  0.33650764751E+03  0.10000000000E+01 0.  0.
<mgrwt>
<rscale>  0 0.12499892E+03</rscale>
<asrwt>0</asrwt>
<pdfrwt beam="2">  1        4 0.16709178E-02 0.12499892E+03</pdfrwt>
<pdfrwt beam="1">  1       -4 0.55331284E-01 0.12499892E+03</pdfrwt>
<totfact> 0.67526772E+03</totfact>
</mgrwt>
</event>
<event>
 5    1  0.3259432E-002  0.1250019E+03  0.7818608E-02  0.1235066E+00
         -4   -1    0    0    0  501 -0.00000000000E+00  0.00000000000E+00  0.16395841555E+03  0.16396333410E+03  0.12700000000E+01 0.  1.
          4   -1    0    0  501    0  0.00000000000E+00 -0.00000000000E+00 -0.23803166928E+02  0.23837022796E+02  0.12700000000E+01 0.  1.
         25    2    1    2    0    0  0.00000000000E+00  0.00000000000E+00  0.14015524862E+03  0.18780035689E+03  0.12500192132E+03 0.  0.
    9000005    1    3    3    0    0 -0.21538583104E+01 -0.35176732348E+02  0.14761160673E+03  0.15176372441E+03  0.10000000000E+01 0.  0.
    9000005    1    3    3    0    0  0.21538583104E+01  0.35176732348E+02 -0.74563581166E+01  0.36036632483E+02  0.10000000000E+01 0.  0.
<mgrwt>
<rscale>  0 0.12500192E+03</rscale>
<asrwt>0</asrwt>
<pdfrwt beam="2">  1        4 0.36650083E-02 0.12500192E+03</pdfrwt>
<pdfrwt beam="1">  1       -4 0.25227354E-01 0.12500192E+03</pdfrwt>
<totfact> 0.92227489E+03</totfact>
</mgrwt>
</event>
<event>
 5    1  0.3259432E-002  0.1249998E+03  0.7818608E-02  0.1235070E+00
         -4   -1    0    0    0  501 -0.00000000000E+00  0.00000000000E+00  0.14077335620E+01  0.18959466716E+01  0.12700000000E+01 0.  1.
          4   -1    0    0  501    0  0.00000000000E+00 -0.00000000000E+00 -0.23642915279E+04  0.23642918690E+04  0.12700000000E+01 0.  1.
         25    2    1    2    0    0  0.00000000000E+00  0.00000000000E+00 -0.23628837944E+04  0.23661878157E+04  0.12499981387E+03 0.  0.
    9000005    1    3    3    0    0  0.83128356899E+01  0.10981831797E+02 -0.27588862808E+02  0.30852053706E+02  0.10000000000E+01 0.  0.
    9000005    1    3    3    0    0 -0.83128356899E+01 -0.10981831797E+02 -0.23352949316E+04  0.23353357620E+04  0.10000000000E+01 0.  0.
<mgrwt>
<rscale>  0 0.12499981E+03</rscale>
<asrwt>0</asrwt>
<pdfrwt beam="2">  1        4 0.36377203E+00 0.12499981E+03</pdfrwt>
<pdfrwt beam="1">  1       -4 0.25415738E-03 0.12499981E+03</pdfrwt>
<totfact> 0.58076816E+02</totfact>
</mgrwt>
</event>
<event>
 5    1  0.3259432E-002  0.1250013E+03  0.7818608E-02  0.1235067E+00
         -4   -1    0    0    0  501 -0.00000000000E+00  0.00000000000E+00  0.79702781994E+01  0.80708261396E+01  0.12700000000E+01 0. -1.
          4   -1    0    0  501    0  0.00000000000E+00 -0.00000000000E+00 -0.48693863314E+03  0.48694028930E+03  0.12700000000E+01 0. -1.
         25    2    1    2    0    0  0.00000000000E+00  0.00000000000E+00 -0.47896835494E+03  0.49501111544E+03  0.12500127749E+03 0.  0.
    9000005    1    3    3    0    0 -0.18529204005E+02 -0.59208143931E+02 -0.20974578634E+03  0.21873095482E+03  0.10000000000E+01 0.  0.
    9000005    1    3    3    0    0  0.18529204005E+02  0.59208143931E+02 -0.26922256860E+03  0.27628016062E+03  0.10000000000E+01 0.  0.
<mgrwt>
<rscale>  0 0.12500128E+03</rscale>
<asrwt>0</asrwt>
<pdfrwt beam="2">  1        4 0.74921475E-01 0.12500128E+03</pdfrwt>
<pdfrwt beam="1">  1       -4 0.12340589E-02 0.12500128E+03</pdfrwt>
<totfact> 0.56251960E+03</totfact>
</mgrwt>
</event>
<event>
 5    1  0.3259432E-002  0.1250031E+03  0.7818608E-02  0.1235064E+00
          4   -1    0    0  501    0  0.00000000000E+00  0.00000000000E+00  0.48092167150E+03  0.48092334838E+03  0.12700000000E+01 0.  1.
         -4   -1    0    0    0  501 -0.00000000000E+00 -0.00000000000E+00 -0.80714910039E+01  0.81707935371E+01  0.12700000000E+01 0.  1.
         25    2    1    2    0    0  0.00000000000E+00  0.00000000000E+00  0.47285018049E+03  0.48909414192E+03  0.12500314582E+03 0.  0.
    9000005    1    3    3    0    0 -0.38132918744E+02 -0.13864875511E+02  0.42239321472E+03  0.42433875866E+03  0.10000000000E+01 0.  0.
    9000005    1    3    3    0    0  0.38132918744E+02  0.13864875511E+02  0.50456965777E+02  0.64755383253E+02  0.10000000000E+01 0.  0.
<mgrwt>
<rscale>  0 0.12500315E+03</rscale>
<asrwt>0</asrwt>
<pdfrwt beam="1">  1        4 0.73995720E-01 0.12500315E+03</pdfrwt>
<pdfrwt beam="2">  1       -4 0.12495354E-02 0.12500315E+03</pdfrwt>
<totfact> 0.56716639E+03</totfact>
</mgrwt>
</event>
<event>
 5    1  0.3259432E-002  0.1250003E+03  0.7818608E-02  0.1235069E+00
         -4   -1    0    0    0  501 -0.00000000000E+00  0.00000000000E+00  0.10284226814E+03  0.10285010946E+03  0.12700000000E+01 0. -1.
          4   -1    0    0  501    0  0.00000000000E+00 -0.00000000000E+00 -0.37963204637E+02  0.37984441635E+02  0.12700000000E+01 0. -1.
         25    2    1    2    0    0  0.00000000000E+00  0.00000000000E+00  0.64879063499E+02  0.14083455109E+03  0.12500031160E+03 0.  0.
    9000005    1    3    3    0    0 -0.46597618108E+02  0.14738452993E+02  0.76317783615E+02  0.90630922460E+02  0.10000000000E+01 0.  0.
    9000005    1    3    3    0    0  0.46597618108E+02 -0.14738452993E+02 -0.11438720116E+02  0.50203628632E+02  0.10000000000E+01 0.  0.
<mgrwt>
<rscale>  0 0.12500031E+03</rscale>
<asrwt>0</asrwt>
<pdfrwt beam="2">  1        4 0.58427298E-02 0.12500031E+03</pdfrwt>
<pdfrwt beam="1">  1       -4 0.15824124E-01 0.12500031E+03</pdfrwt>
<totfact> 0.10116248E+04</totfact>
</mgrwt>
</event>
<event>
 5    1  0.3259432E-002  0.1249753E+03  0.7818608E-02  0.1235108E+00
         -4   -1    0    0    0  501 -0.00000000000E+00  0.00000000000E+00  0.89192519778E+03  0.89192610195E+03  0.12700000000E+01 0.  1.
          4   -1    0    0  501    0  0.00000000000E+00 -0.00000000000E+00 -0.42848107099E+01  0.44690606194E+01  0.12700000000E+01 0.  1.
         25    2    1    2    0    0  0.00000000000E+00  0.00000000000E+00  0.88764038707E+03  0.89639516257E+03  0.12497532042E+03 0.  0.
    9000005    1    3    3    0    0 -0.22892653940E+02 -0.40421335104E+02  0.74350604415E+03  0.74495650586E+03  0.10000000000E+01 0.  0.
    9000005    1    3    3    0    0  0.22892653940E+02  0.40421335104E+02  0.14413434292E+03  0.15143865671E+03  0.10000000000E+01 0.  0.
<mgrwt>
<rscale>  0 0.12497532E+03</rscale>
<asrwt>0</asrwt>
<pdfrwt beam="2">  1        4 0.67344388E-03 0.12497532E+03</pdfrwt>
<pdfrwt beam="1">  1       -4 0.13723358E+00 0.12497532E+03</pdfrwt>
<totfact> 0.34316787E+03</totfact>
</mgrwt>
</event>
<event>
 5    1  0.3259432E-002  0.1249995E+03  0.7818608E-02  0.1235070E+00
         -4   -1    0    0    0  501 -0.00000000000E+00  0.00000000000E+00  0.33154064393E+01  0.35503267255E+01  0.12700000000E+01 0.  1.
          4   -1    0    0  501    0  0.00000000000E+00 -0.00000000000E+00 -0.11376530537E+04  0.11376537626E+04  0.12700000000E+01 0.  1.
         25    2    1    2    0    0  0.00000000000E+00  0.00000000000E+00 -0.11343376473E+04  0.11412040893E+04  0.12499950174E+03 0.  0.
    9000005    1    3    3    0    0 -0.20884632844E+02 -0.15128882488E+02 -0.47485484296E+02  0.54045556646E+02  0.10000000000E+01 0.  0.
    9000005    1    3    3    0    0  0.20884632844E+02  0.15128882488E+02 -0.10868521630E+04  0.10871585327E+04  0.10000000000E+01 0.  0.
<mgrwt>
<rscale>  0 0.12499950E+03</rscale>
<asrwt>0</asrwt>
<pdfrwt beam="2">  1        4 0.17504137E+00 0.12499950E+03</pdfrwt>
<pdfrwt beam="1">  1       -4 0.52818876E-03 0.12499950E+03</pdfrwt>
<totfact> 0.26305892E+03</totfact>
</mgrwt>
</event>
<event>
 5    1  0.3259432E-002  0.1250011E+03  0.7818608E-02  0.1235068E+00
          4   -1    0    0  501    0  0.00000000000E+00  0.00000000000E+00  0.20039269551E+03  0.20039671981E+03  0.12700000000E+01 0. -1.
         -4   -1    0    0    0  501 -0.00000000000E+00 -0.00000000000E+00 -0.19468418458E+02  0.19509797981E+02  0.12700000000E+01 0. -1.
         25    2    1    2    0    0  0.00000000000E+00  0.00000000000E+00  0.18092427705E+03  0.21990651780E+03  0.12500113017E+03 0.  0.
    9000005    1    3    3    0    0 -0.12237615323E+02 -0.59010280127E+02  0.61376251824E+02  0.86023349606E+02  0.10000000000E+01 0.  0.
    9000005    1    3    3    0    0  0.12237615323E+02  0.59010280127E+02  0.11954802522E+03  0.13388316819E+03  0.10000000000E+01 0.  0.
<mgrwt>
<rscale>  0 0.12500113E+03</rscale>
<asrwt>0</asrwt>
<pdfrwt beam="1">  1        4 0.30833138E-01 0.12500113E+03</pdfrwt>
<pdfrwt beam="2">  1       -4 0.29986339E-02 0.12500113E+03</pdfrwt>
<totfact> 0.86880950E+03</totfact>
</mgrwt>
</event>
<event>
 5    1  0.3259432E-002  0.1249985E+03  0.7818608E-02  0.1235072E+00
          4   -1    0    0  501    0  0.00000000000E+00  0.00000000000E+00  0.23868876767E+03  0.23869214631E+03  0.12700000000E+01 0. -1.
         -4   -1    0    0    0  501 -0.00000000000E+00 -0.00000000000E+00 -0.16336915645E+02  0.16386204954E+02  0.12700000000E+01 0. -1.
         25    2    1    2    0    0  0.00000000000E+00  0.00000000000E+00  0.22235185202E+03  0.25507835126E+03  0.12499847674E+03 0.  0.
    9000005    1    3    3    0    0  0.39672920328E+02  0.21790519851E+02  0.19909906619E+03  0.20418179527E+03  0.10000000000E+01 0.  0.
    9000005    1    3    3    0    0 -0.39672920328E+02 -0.21790519851E+02  0.23252785829E+02  0.50896555989E+02  0.10000000000E+01 0.  0.
<mgrwt>
<rscale>  0 0.12499848E+03</rscale>
<asrwt>0</asrwt>
<pdfrwt beam="1">  1        4 0.36725400E-01 0.12499848E+03</pdfrwt>
<pdfrwt beam="2">  1       -4 0.25174231E-02 0.12499848E+03</pdfrwt>
<totfact> 0.81604511E+03</totfact>
</mgrwt>
</event>
<event>
 5    1  0.3259432E-002  0.1249980E+03  0.7818608E-02  0.1235072E+00
          4   -1    0    0  501    0  0.00000000000E+00  0.00000000000E+00  0.80009471104E+01  0.81011144087E+01  0.12700000000E+01 0. -1.
         -4   -1    0    0    0  501 -0.00000000000E+00 -0.00000000000E+00 -0.48506996562E+03  0.48507162816E+03  0.12700000000E+01 0. -1.
         25    2    1    2    0    0  0.00000000000E+00  0.00000000000E+00 -0.47706901851E+03  0.49317274257E+03  0.12499802235E+03 0.  0.
    9000005    1    3    3    0    0  0.52016377007E+02 -0.12629975585E+02 -0.11130346298E+03  0.12350984022E+03  0.10000000000E+01 0.  0.
    9000005    1    3    3    0    0 -0.52016377007E+02  0.12629975585E+02 -0.36576555553E+03  0.36966290235E+03  0.10000000000E+01 0.  0.
<mgrwt>
<rscale>  0 0.12499802E+03</rscale>
<asrwt>0</asrwt>
<pdfrwt beam="1">  1        4 0.12387484E-02 0.12499802E+03</pdfrwt>
<pdfrwt beam="2">  1       -4 0.74633959E-01 0.12499802E+03</pdfrwt>
<totfact> 0.56400459E+03</totfact>
</mgrwt>
</event>
<event>
 5    1  0.3259432E-002  0.1250178E+03  0.7818608E-02  0.1235041E+00
         -4   -1    0    0    0  501 -0.00000000000E+00  0.00000000000E+00  0.13111375588E+03  0.13111990650E+03  0.12700000000E+01 0.  1.
          4   -1    0    0  501    0  0.00000000000E+00 -0.00000000000E+00 -0.29780945742E+02  0.29808012837E+02  0.12700000000E+01 0.  1.
         25    2    1    2    0    0  0.00000000000E+00  0.00000000000E+00  0.10133281014E+03  0.16092791934E+03  0.12501782598E+03 0.  0.
    9000005    1    3    3    0    0  0.51213203266E+02  0.31212383914E+02  0.28025650075E+02  0.66207568755E+02  0.10000000000E+01 0.  0.
    9000005    1    3    3    0    0 -0.51213203266E+02 -0.31212383914E+02  0.73307160063E+02  0.94720350584E+02  0.10000000000E+01 0.  0.
<mgrwt>
<rscale>  0 0.12501783E+03</rscale>
<asrwt>0</asrwt>
<pdfrwt beam="2">  1        4 0.45842392E-02 0.12501783E+03</pdfrwt>
<pdfrwt beam="1">  1       -4 0.20173902E-01 0.12501783E+03</pdfrwt>
<totfact> 0.97125270E+03</totfact>
</mgrwt>
</event>
<event>
 5    1  0.3259432E-002  0.1250010E+03  0.7818608E-02  0.1235068E+00
          4   -1    0    0  501    0  0.00000000000E+00  0.00000000000E+00  0.75203287138E+02  0.75214009974E+02  0.12700000000E+01 0.  1.
         -4   -1    0    0    0  501 -0.00000000000E+00 -0.00000000000E+00 -0.51921142324E+02  0.51936672209E+02  0.12700000000E+01 0.  1.
         25    2    1    2    0    0  0.00000000000E+00  0.00000000000E+00  0.23282144814E+02  0.12715068218E+03  0.12500095085E+03 0.  0.
    9000005    1    3    3    0    0 -0.28906197338E+02  0.35499703727E+02 -0.31628852154E+02  0.55652326976E+02  0.10000000000E+01 0.  0.
    9000005    1    3    3    0    0  0.28906197338E+02 -0.35499703727E+02  0.54910996968E+02  0.71498355207E+02  0.10000000000E+01 0.  0.
<mgrwt>
<rscale>  0 0.12500095E+03</rscale>
<asrwt>0</asrwt>
<pdfrwt beam="1">  1        4 0.11571756E-01 0.12500095E+03</pdfrwt>
<pdfrwt beam="2">  1       -4 0.79898875E-02 0.12500095E+03</pdfrwt>
<totfact> 0.10405650E+04</totfact>
</mgrwt>
</event>
<event>
 5    1  0.3259432E-002  0.1249955E+03  0.7818608E-02  0.1235076E+00
         -4   -1    0    0    0  501 -0.00000000000E+00  0.00000000000E+00  0.20808415168E+03  0.20808802724E+03  0.12700000000E+01 0.  1.
          4   -1    0    0  501    0  0.00000000000E+00 -0.00000000000E+00 -0.18745560539E+02  0.18788532139E+02  0.12700000000E+01 0.  1.
         25    2    1    2    0    0  0.00000000000E+00  0.00000000000E+00  0.18933859114E+03  0.22687655938E+03  0.12499548432E+03 0.  0.
    9000005    1    3    3    0    0  0.35003516155E+02 -0.26015957059E+02  0.13437878888E+02  0.45647045402E+02  0.10000000000E+01 0.  0.
    9000005    1    3    3    0    0 -0.35003516155E+02  0.26015957059E+02  0.17590071225E+03  0.18122951397E+03  0.10000000000E+01 0.  0.
<mgrwt>
<rscale>  0 0.12499548E+03</rscale>
<asrwt>0</asrwt>
<pdfrwt beam="2">  1        4 0.28875362E-02 0.12499548E+03</pdfrwt>
<pdfrwt beam="1">  1       -4 0.32016548E-01 0.12499548E+03</pdfrwt>
<totfact> 0.85800170E+03</totfact>
</mgrwt>
</event>
<event>
 5    1  0.3259432E-002  0.1250022E+03  0.7818608E-02  0.1235066E+00
          4   -1    0    0  501    0  0.00000000000E+00  0.00000000000E+00  0.37364053402E+02  0.37385630751E+02  0.12700000000E+01 0.  1.
         -4   -1    0    0    0  501 -0.00000000000E+00 -0.00000000000E+00 -0.10449372806E+03  0.10450144546E+03  0.12700000000E+01 0.  1.
         25    2    1    2    0    0  0.00000000000E+00  0.00000000000E+00 -0.67129674656E+02  0.14188707621E+03  0.12500219669E+03 0.  0.
    9000005    1    3    3    0    0 -0.37965487076E+02 -0.40160715302E+02 -0.66679636938E+02  0.86610826371E+02  0.10000000000E+01 0.  0.
    9000005    1    3    3    0    0  0.37965487076E+02  0.40160715302E+02 -0.45003771777E+00  0.55276249840E+02  0.10000000000E+01 0.  0.
<mgrwt>
<rscale>  0 0.12500220E+03</rscale>
<asrwt>0</asrwt>
<pdfrwt beam="1">  1        4 0.57505694E-02 0.12500220E+03</pdfrwt>
<pdfrwt beam="2">  1       -4 0.16078212E-01 0.12500220E+03</pdfrwt>
<totfact> 0.10094124E+04</totfact>
</mgrwt>
</event>
<event>
 5    1  0.3259432E-002  0.1250011E+03  0.7818608E-02  0.1235068E+00
         -4   -1    0    0    0  501 -0.00000000000E+00  0.00000000000E+00  0.12275166118E+03  0.12275823077E+03  0.12700000000E+01 0. -1.
          4   -1    0    0  501    0  0.00000000000E+00 -0.00000000000E+00 -0.31802850843E+02  0.31828198531E+02  0.12700000000E+01 0. -1.
         25    2    1    2    0    0  0.00000000000E+00  0.00000000000E+00  0.90948810339E+02  0.15458642931E+03  0.12500111209E+03 0.  0.
    9000005    1    3    3    0    0  0.57864447447E+02  0.17341294768E+02  0.25675745344E+02  0.65644944067E+02  0.10000000000E+01 0.  0.
    9000005    1    3    3    0    0 -0.57864447447E+02 -0.17341294768E+02  0.65273064995E+02  0.88941485239E+02  0.10000000000E+01 0.  0.
<mgrwt>
<rscale>  0 0.12500111E+03</rscale>
<asrwt>0</asrwt>
<pdfrwt beam="2">  1        4 0.48952015E-02 0.12500111E+03</pdfrwt>
<pdfrwt beam="1">  1       -4 0.18887326E-01 0.12500111E+03</pdfrwt>
<totfact> 0.98394288E+03</totfact>
</mgrwt>
</event>
<event>
 5    1  0.3259432E-002  0.1250275E+03  0.7818608E-02  0.1235026E+00
         -4   -1    0    0    0  501 -0.00000000000E+00  0.00000000000E+00  0.19098847870E+03  0.19099270116E+03  0.12700000000E+01 0.  1.
          4   -1    0    0  501    0  0.00000000000E+00 -0.00000000000E+00 -0.20437633220E+02  0.20477054272E+02  0.12700000000E+01 0.  1.
         25    2    1    2    0    0  0.00000000000E+00  0.00000000000E+00  0.17055084548E+03  0.21146975543E+03  0.12502746326E+03 0.  0.
    9000005    1    3    3    0    0 -0.49503646749E+02 -0.29021680770E+02  0.12718965925E+03  0.13953880613E+03  0.10000000000E+01 0.  0.
    9000005    1    3    3    0    0  0.49503646749E+02  0.29021680770E+02  0.43361186233E+02  0.71930949304E+02  0.10000000000E+01 0.  0.
<mgrwt>
<rscale>  0 0.12502746E+03</rscale>
<asrwt>0</asrwt>
<pdfrwt beam="2">  1        4 0.31476085E-02 0.12502746E+03</pdfrwt>
<pdfrwt beam="1">  1       -4 0.29386200E-01 0.12502746E+03</pdfrwt>
<totfact> 0.88182265E+03</totfact>
</mgrwt>
</event>
<event>
 5    1  0.3259432E-002  0.1249999E+03  0.7818608E-02  0.1235069E+00
         -4   -1    0    0    0  501 -0.00000000000E+00  0.00000000000E+00  0.13642709270E+02  0.13701693918E+02  0.12700000000E+01 0.  1.
          4   -1    0    0  501    0  0.00000000000E+00 -0.00000000000E+00 -0.28564642967E+03  0.28564925291E+03  0.12700000000E+01 0.  1.
         25    2    1    2    0    0  0.00000000000E+00  0.00000000000E+00 -0.27200372040E+03  0.29935094682E+03  0.12499986180E+03 0.  0.
    9000005    1    3    3    0    0 -0.16577424140E+02 -0.25839201404E+02 -0.56492348538E+01  0.31231221153E+02  0.10000000000E+01 0.  0.
    9000005    1    3    3    0    0  0.16577424140E+02  0.25839201404E+02 -0.26635448555E+03  0.26811972567E+03  0.10000000000E+01 0.  0.
<mgrwt>
<rscale>  0 0.12499986E+03</rscale>
<asrwt>0</asrwt>
<pdfrwt beam="2">  1        4 0.43950354E-01 0.12499986E+03</pdfrwt>
<pdfrwt beam="1">  1       -4 0.21036330E-02 0.12499986E+03</pdfrwt>
<totfact> 0.75680561E+03</totfact>
</mgrwt>
</event>
<event>
 5    1  0.3259432E-002  0.1249996E+03  0.7818608E-02  0.1235070E+00
         -4   -1    0    0    0  501 -0.00000000000E+00  0.00000000000E+00  0.11649759353E+03  0.11650451578E+03  0.12700000000E+01 0. -1.
          4   -1    0    0  501    0  0.00000000000E+00 -0.00000000000E+00 -0.33510572241E+02  0.33534629146E+02  0.12700000000E+01 0. -1.
         25    2    1    2    0    0  0.00000000000E+00  0.00000000000E+00  0.82987021284E+02  0.15003914493E+03  0.12499959723E+03 0.  0.
    9000005    1    3    3    0    0 -0.36325646921E+02  0.31493065528E+02 -0.64269429202E+01  0.48514651353E+02  0.10000000000E+01 0.  0.
    9000005    1    3    3    0    0  0.36325646921E+02 -0.31493065528E+02  0.89413964204E+02  0.10152449357E+03  0.10000000000E+01 0.  0.
<mgrwt>
<rscale>  0 0.12499960E+03</rscale>
<asrwt>0</asrwt>
<pdfrwt beam="2">  1        4 0.51578555E-02 0.12499960E+03</pdfrwt>
<pdfrwt beam="1">  1       -4 0.17925090E-01 0.12499960E+03</pdfrwt>
<totfact> 0.99296795E+03</totfact>
</mgrwt>
</event>
<event>
 5    1  0.3259432E-002  0.1250003E+03  0.7818608E-02  0.1235069E+00
          4   -1    0    0  501    0  0.00000000000E+00  0.00000000000E+00  0.98734325910E+02  0.98742493450E+02  0.12700000000E+01 0. -1.
         -4   -1    0    0    0  501 -0.00000000000E+00 -0.00000000000E+00 -0.39543455388E+02  0.39563844152E+02  0.12700000000E+01 0. -1.
         25    2    1    2    0    0  0.00000000000E+00  0.00000000000E+00  0.59190870521E+02  0.13830633760E+03  0.12500033547E+03 0.  0.
    9000005    1    3    3    0    0 -0.79668749312E+01 -0.48579371562E+02 -0.12996975609E+02  0.50924923294E+02  0.10000000000E+01 0.  0.
    9000005    1    3    3    0    0  0.79668749312E+01  0.48579371562E+02  0.72187846130E+02  0.87381414308E+02  0.10000000000E+01 0.  0.
<mgrwt>
<rscale>  0 0.12500034E+03</rscale>
<asrwt>0</asrwt>
<pdfrwt beam="1">  1        4 0.15192093E-01 0.12500034E+03</pdfrwt>
<pdfrwt beam="2">  1       -4 0.60858052E-02 0.12500034E+03</pdfrwt>
<totfact> 0.10168732E+04</totfact>
</mgrwt>
</event>
<event>
 5    1  0.3259432E-002  0.1249995E+03  0.7818608E-02  0.1235070E+00
          4   -1    0    0  501    0  0.00000000000E+00  0.00000000000E+00  0.15374253443E+04  0.15374258688E+04  0.12700000000E+01 0.  1.
         -4   -1    0    0    0  501 -0.00000000000E+00 -0.00000000000E+00 -0.23814942928E+01  0.26989655549E+01  0.12700000000E+01 0.  1.
         25    2    1    2    0    0  0.00000000000E+00  0.00000000000E+00  0.15350438500E+04  0.15401248344E+04  0.12499953637E+03 0.  0.
    9000005    1    3    3    0    0 -0.44328935179E+02 -0.30704384598E+02  0.11566421388E+04  0.11578988950E+04  0.10000000000E+01 0.  0.
    9000005    1    3    3    0    0  0.44328935179E+02  0.30704384598E+02  0.37840171115E+03  0.38222593937E+03  0.10000000000E+01 0.  0.
<mgrwt>
<rscale>  0 0.12499954E+03</rscale>
<asrwt>0</asrwt>
<pdfrwt beam="1">  1        4 0.23655181E+00 0.12499954E+03</pdfrwt>
<pdfrwt beam="2">  1       -4 0.39084433E-03 0.12499954E+03</pdfrwt>
<totfact> 0.17155138E+03</totfact>
</mgrwt>
</event>
<event>
 5    1  0.3259432E-002  0.1250052E+03  0.7818608E-02  0.1235061E+00
         -4   -1    0    0    0  501 -0.00000000000E+00  0.00000000000E+00  0.56936514137E+02  0.56950676397E+02  0.12700000000E+01 0. -1.
          4   -1    0    0  501    0  0.00000000000E+00 -0.00000000000E+00 -0.68584222174E+02  0.68595979702E+02  0.12700000000E+01 0. -1.
         25    2    1    2    0    0  0.00000000000E+00  0.00000000000E+00 -0.11647708037E+02  0.12554665610E+03  0.12500517491E+03 0.  0.
    9000005    1    3    3    0    0  0.48412188246E+02 -0.26224219149E+02  0.23869799032E+02  0.60018471711E+02  0.10000000000E+01 0.  0.
    9000005    1    3    3    0    0 -0.48412188246E+02  0.26224219149E+02 -0.35517507069E+02  0.65528184387E+02  0.10000000000E+01 0.  0.
<mgrwt>
<rscale>  0 0.12500517E+03</rscale>
<asrwt>0</asrwt>
<pdfrwt beam="2">  1        4 0.10553413E-01 0.12500517E+03</pdfrwt>
<pdfrwt beam="1">  1       -4 0.87614575E-02 0.12500517E+03</pdfrwt>
<totfact> 0.10439705E+04</totfact>
</mgrwt>
</event>
<event>
 5    1  0.3259432E-002  0.1250035E+03  0.7818608E-02  0.1235064E+00
         -4   -1    0    0    0  501 -0.00000000000E+00  0.00000000000E+00  0.24373293428E+03  0.24373624300E+03  0.12700000000E+01 0.  1.
          4   -1    0    0  501    0  0.00000000000E+00 -0.00000000000E+00 -0.15999070807E+02  0.16049397705E+02  0.12700000000E+01 0.  1.
         25    2    1    2    0    0  0.00000000000E+00  0.00000000000E+00  0.22773386347E+03  0.25978564070E+03  0.12500346613E+03 0.  0.
    9000005    1    3    3    0    0  0.15727430481E+02  0.59277063705E+02  0.13883545654E+03  0.15178078384E+03  0.10000000000E+01 0.  0.
    9000005    1    3    3    0    0 -0.15727430481E+02 -0.59277063705E+02  0.88898406932E+02  0.10800485686E+03  0.10000000000E+01 0.  0.
<mgrwt>
<rscale>  0 0.12500347E+03</rscale>
<asrwt>0</asrwt>
<pdfrwt beam="2">  1        4 0.24655215E-02 0.12500347E+03</pdfrwt>
<pdfrwt beam="1">  1       -4 0.37501498E-01 0.12500347E+03</pdfrwt>
<totfact> 0.80929908E+03</totfact>
</mgrwt>
</event>
<event>
 5    1  0.3259432E-002  0.1249959E+03  0.7818608E-02  0.1235076E+00
          4   -1    0    0  501    0  0.00000000000E+00  0.00000000000E+00  0.13859689495E+02  0.13917754593E+02  0.12700000000E+01 0.  1.
         -4   -1    0    0    0  501 -0.00000000000E+00 -0.00000000000E+00 -0.28117563489E+03  0.28117850301E+03  0.12700000000E+01 0.  1.
         25    2    1    2    0    0  0.00000000000E+00  0.00000000000E+00 -0.26731594539E+03  0.29509625760E+03  0.12499594629E+03 0.  0.
    9000005    1    3    3    0    0 -0.35172495513E+02 -0.40995646216E+02 -0.20783700576E+03  0.21474396013E+03  0.10000000000E+01 0.  0.
    9000005    1    3    3    0    0  0.35172495513E+02  0.40995646216E+02 -0.59478939634E+02  0.80352297473E+02  0.10000000000E+01 0.  0.
<mgrwt>
<rscale>  0 0.12499595E+03</rscale>
<asrwt>0</asrwt>
<pdfrwt beam="1">  1        4 0.21369473E-02 0.12499595E+03</pdfrwt>
<pdfrwt beam="2">  1       -4 0.43262473E-01 0.12499595E+03</pdfrwt>
<totfact> 0.76224964E+03</totfact>
</mgrwt>
</event>
<event>
 5    1  0.3259432E-002  0.1249994E+03  0.7818608E-02  0.1235070E+00
         -4   -1    0    0    0  501 -0.00000000000E+00  0.00000000000E+00  0.20485068585E+02  0.20524398528E+02  0.12700000000E+01 0.  1.
          4   -1    0    0  501    0  0.00000000000E+00 -0.00000000000E+00 -0.19046142840E+03  0.19046566254E+03  0.12700000000E+01 0.  1.
         25    2    1    2    0    0  0.00000000000E+00  0.00000000000E+00 -0.16997635982E+03  0.21099006107E+03  0.12499937190E+03 0.  0.
    9000005    1    3    3    0    0  0.38306762988E+02 -0.47080241338E+02 -0.59880922797E+02  0.85268294987E+02  0.10000000000E+01 0.  0.
    9000005    1    3    3    0    0 -0.38306762988E+02  0.47080241338E+02 -0.11009543702E+03  0.12572176609E+03  0.10000000000E+01 0.  0.
<mgrwt>
<rscale>  0 0.12499937E+03</rscale>
<asrwt>0</asrwt>
<pdfrwt beam="2">  1        4 0.29305108E-01 0.12499937E+03</pdfrwt>
<pdfrwt beam="1">  1       -4 0.31549002E-02 0.12499937E+03</pdfrwt>
<totfact> 0.88315686E+03</totfact>
</mgrwt>
</event>
<event>
 5    1  0.3259432E-002  0.1249897E+03  0.7818608E-02  0.1235085E+00
          4   -1    0    0  501    0  0.00000000000E+00  0.00000000000E+00  0.13299107184E+03  0.13299713564E+03  0.12700000000E+01 0.  1.
         -4   -1    0    0    0  501 -0.00000000000E+00 -0.00000000000E+00 -0.29346966458E+02  0.29374433447E+02  0.12700000000E+01 0.  1.
         25    2    1    2    0    0  0.00000000000E+00  0.00000000000E+00  0.10364410538E+03  0.16237156909E+03  0.12498970305E+03 0.  0.
    9000005    1    3    3    0    0 -0.50146159051E+02 -0.33280264106E+02  0.29991592824E+02  0.67251088367E+02  0.10000000000E+01 0.  0.
    9000005    1    3    3    0    0  0.50146159051E+02  0.33280264106E+02  0.73652512554E+02  0.95120480718E+02  0.10000000000E+01 0.  0.
<mgrwt>
<rscale>  0 0.12498970E+03</rscale>
<asrwt>0</asrwt>
<pdfrwt beam="1">  1        4 0.20462744E-01 0.12498970E+03</pdfrwt>
<pdfrwt beam="2">  1       -4 0.45174972E-02 0.12498970E+03</pdfrwt>
<totfact> 0.96909926E+03</totfact>
</mgrwt>
</event>
<event>
 5    1  0.3259432E-002  0.1249606E+03  0.7818608E-02  0.1235131E+00
          4   -1    0    0  501    0  0.00000000000E+00  0.00000000000E+00  0.11504740502E+02  0.11574625437E+02  0.12700000000E+01 0. -1.
         -4   -1    0    0    0  501 -0.00000000000E+00 -0.00000000000E+00 -0.33822139158E+03  0.33822377595E+03  0.12700000000E+01 0. -1.
         25    2    1    2    0    0  0.00000000000E+00  0.00000000000E+00 -0.32671665107E+03  0.34979840139E+03  0.12496059989E+03 0.  0.
    9000005    1    3    3    0    0  0.30957244595E+02 -0.47247805864E+01 -0.31467725048E+03  0.31623321539E+03  0.10000000000E+01 0.  0.
    9000005    1    3    3    0    0 -0.30957244595E+02  0.47247805864E+01 -0.12039400589E+02  0.33565185998E+02  0.10000000000E+01 0.  0.
<mgrwt>
<rscale>  0 0.12496060E+03</rscale>
<asrwt>0</asrwt>
<pdfrwt beam="1">  1        4 0.17755195E-02 0.12496060E+03</pdfrwt>
<pdfrwt beam="2">  1       -4 0.52039612E-01 0.12496060E+03</pdfrwt>
<totfact> 0.69807594E+03</totfact>
</mgrwt>
</event>
<event>
 5    1  0.3259432E-002  0.1249961E+03  0.7818608E-02  0.1235075E+00
          4   -1    0    0  501    0  0.00000000000E+00  0.00000000000E+00  0.81520526007E+03  0.81520624933E+03  0.12700000000E+01 0.  1.
         -4   -1    0    0    0  501 -0.00000000000E+00 -0.00000000000E+00 -0.47062771875E+01  0.48746225459E+01  0.12700000000E+01 0.  1.
         25    2    1    2    0    0  0.00000000000E+00  0.00000000000E+00  0.81049898288E+03  0.82008087187E+03  0.12499614059E+03 0.  0.
    9000005    1    3    3    0    0  0.27893965617E+01 -0.62287025780E+02  0.37776080268E+03  0.38287292716E+03  0.10000000000E+01 0.  0.
    9000005    1    3    3    0    0 -0.27893965617E+01  0.62287025780E+02  0.43273818020E+03  0.43720794471E+03  0.10000000000E+01 0.  0.
<mgrwt>
<rscale>  0 0.12499614E+03</rscale>
<asrwt>0</asrwt>
<pdfrwt beam="1">  1        4 0.12542916E+00 0.12499614E+03</pdfrwt>
<pdfrwt beam="2">  1       -4 0.73706875E-03 0.12499614E+03</pdfrwt>
<totfact> 0.37387003E+03</totfact>
</mgrwt>
</event>
<event>
 5    1  0.3259432E-002  0.1250041E+03  0.7818608E-02  0.1235063E+00
          4   -1    0    0  501    0  0.00000000000E+00  0.00000000000E+00  0.63278241714E+02  0.63290984938E+02  0.12700000000E+01 0.  1.
         -4   -1    0    0    0  501 -0.00000000000E+00 -0.00000000000E+00 -0.61709922298E+02  0.61722989315E+02  0.12700000000E+01 0.  1.
         25    2    1    2    0    0  0.00000000000E+00  0.00000000000E+00  0.15683194158E+01  0.12501397425E+03  0.12500413646E+03 0.  0.
    9000005    1    3    3    0    0 -0.19815993971E+02  0.34748166113E+02 -0.47234198769E+02  0.61904589480E+02  0.10000000000E+01 0.  0.
    9000005    1    3    3    0    0  0.19815993971E+02 -0.34748166113E+02  0.48802518185E+02  0.63109384773E+02  0.10000000000E+01 0.  0.
<mgrwt>
<rscale>  0 0.12500414E+03</rscale>
<asrwt>0</asrwt>
<pdfrwt beam="1">  1        4 0.97370995E-02 0.12500414E+03</pdfrwt>
<pdfrwt beam="2">  1       -4 0.94958196E-02 0.12500414E+03</pdfrwt>
<totfact> 0.10451582E+04</totfact>
</mgrwt>
</event>
<event>
 5    1  0.3259432E-002  0.1249994E+03  0.7818608E-02  0.1235070E+00
         -4   -1    0    0    0  501 -0.00000000000E+00  0.00000000000E+00  0.86865631704E+02  0.86874915087E+02  0.12700000000E+01 0.  1.
          4   -1    0    0  501    0  0.00000000000E+00 -0.00000000000E+00 -0.44947807404E+02  0.44965745745E+02  0.12700000000E+01 0.  1.
         25    2    1    2    0    0  0.00000000000E+00  0.00000000000E+00  0.41917824300E+02  0.13184066083E+03  0.12499942342E+03 0.  0.
    9000005    1    3    3    0    0 -0.48377579602E+02  0.34009940814E+02  0.42267272286E+02  0.72695175829E+02  0.10000000000E+01 0.  0.
    9000005    1    3    3    0    0  0.48377579602E+02 -0.34009940814E+02 -0.34944798621E+00  0.59145485003E+02  0.10000000000E+01 0.  0.
<mgrwt>
<rscale>  0 0.12499942E+03</rscale>
<asrwt>0</asrwt>
<pdfrwt beam="2">  1        4 0.69171413E-02 0.12499942E+03</pdfrwt>
<pdfrwt beam="1">  1       -4 0.13366037E-01 0.12499942E+03</pdfrwt>
<totfact> 0.10305235E+04</totfact>
</mgrwt>
</event>
<event>
 5    1  0.3259432E-002  0.1250017E+03  0.7818608E-02  0.1235067E+00
          4   -1    0    0  501    0  0.00000000000E+00  0.00000000000E+00  0.10003269408E+02  0.10083565781E+02  0.12700000000E+01 0. -1.
         -4   -1    0    0    0  501 -0.00000000000E+00 -0.00000000000E+00 -0.38886579760E+03  0.38886787144E+03  0.12700000000E+01 0. -1.
         25    2    1    2    0    0  0.00000000000E+00  0.00000000000E+00 -0.37886252819E+03  0.39895143722E+03  0.12500173598E+03 0.  0.
    9000005    1    3    3    0    0  0.25625318888E+02  0.53200810465E+02 -0.12415023284E+03  0.13748186613E+03  0.10000000000E+01 0.  0.
    9000005    1    3    3    0    0 -0.25625318888E+02 -0.53200810465E+02 -0.25471229535E+03  0.26146957109E+03  0.10000000000E+01 0.  0.
<mgrwt>
<rscale>  0 0.12500174E+03</rscale>
<asrwt>0</asrwt>
<pdfrwt beam="1">  1        4 0.15453010E-02 0.12500174E+03</pdfrwt>
<pdfrwt beam="2">  1       -4 0.59831832E-01 0.12500174E+03</pdfrwt>
<totfact> 0.64652426E+03</totfact>
</mgrwt>
</event>
<event>
 5    1  0.3259432E-002  0.1249990E+03  0.7818608E-02  0.1235071E+00
          4   -1    0    0  501    0  0.00000000000E+00  0.00000000000E+00  0.11036002710E+02  0.11108836835E+02  0.12700000000E+01 0.  1.
         -4   -1    0    0    0  501 -0.00000000000E+00 -0.00000000000E+00 -0.35271157948E+03  0.35271386590E+03  0.12700000000E+01 0.  1.
         25    2    1    2    0    0  0.00000000000E+00  0.00000000000E+00 -0.34167557677E+03  0.36382270273E+03  0.12499903706E+03 0.  0.
    9000005    1    3    3    0    0 -0.35581985835E+02  0.41962942703E+02 -0.84582513152E+02  0.10090672826E+03  0.10000000000E+01 0.  0.
    9000005    1    3    3    0    0  0.35581985835E+02 -0.41962942703E+02 -0.25709306361E+03  0.26291597448E+03  0.10000000000E+01 0.  0.
<mgrwt>
<rscale>  0 0.12499904E+03</rscale>
<asrwt>0</asrwt>
<pdfrwt beam="1">  1        4 0.17036253E-02 0.12499904E+03</pdfrwt>
<pdfrwt beam="2">  1       -4 0.54269090E-01 0.12499904E+03</pdfrwt>
<totfact> 0.68231645E+03</totfact>
</mgrwt>
</event>
<event>
 5    1  0.3259432E-002  0.1250056E+03  0.7818608E-02  0.1235060E+00
          4   -1    0    0  501    0  0.00000000000E+00  0.00000000000E+00  0.33168526008E+03  0.33168769144E+03  0.12700000000E+01 0.  1.
         -4   -1    0    0    0  501 -0.00000000000E+00 -0.00000000000E+00 -0.11741324307E+02  0.11809809333E+02  0.12700000000E+01 0.  1.
         25    2    1    2    0    0  0.00000000000E+00  0.00000000000E+00  0.31994393577E+03  0.34349750077E+03  0.12500564388E+03 0.  0.
    9000005    1    3    3    0    0  0.54248991015E+02  0.20589452320E+02  0.96193043100E+02  0.11234313559E+03  0.10000000000E+01 0.  0.
    9000005    1    3    3    0    0 -0.54248991015E+02 -0.20589452320E+02  0.22375089267E+03  0.23115436519E+03  0.10000000000E+01 0.  0.
<mgrwt>
<rscale>  0 0.12500564E+03</rscale>
<asrwt>0</asrwt>
<pdfrwt beam="1">  1        4 0.51033947E-01 0.12500564E+03</pdfrwt>
<pdfrwt beam="2">  1       -4 0.18118130E-02 0.12500564E+03</pdfrwt>
<totfact> 0.70437088E+03</totfact>
</mgrwt>
</event>
<event>
 5    1  0.3259432E-002  0.1250002E+03  0.7818608E-02  0.1235069E+00
         -4   -1    0    0    0  501 -0.00000000000E+00  0.00000000000E+00  0.15765764101E+03  0.15766275613E+03  0.12700000000E+01 0.  1.
          4   -1    0    0  501    0  0.00000000000E+00 -0.00000000000E+00 -0.24755067248E+02  0.24787623010E+02  0.12700000000E+01 0.  1.
         25    2    1    2    0    0  0.00000000000E+00  0.00000000000E+00  0.13290257377E+03  0.18245037914E+03  0.12500018694E+03 0.  0.
    9000005    1    3    3    0    0  0.14162631994E+02  0.20498621796E+02  0.15010167307E+03  0.15215875229E+03  0.10000000000E+01 0.  0.
    9000005    1    3    3    0    0 -0.14162631994E+02 -0.20498621796E+02 -0.17199099300E+02  0.30291626851E+02  0.10000000000E+01 0.  0.
<mgrwt>
<rscale>  0 0.12500019E+03</rscale>
<asrwt>0</asrwt>
<pdfrwt beam="2">  1        4 0.38113696E-02 0.12500019E+03</pdfrwt>
<pdfrwt beam="1">  1       -4 0.24257919E-01 0.12500019E+03</pdfrwt>
<totfact> 0.93177387E+03</totfact>
</mgrwt>
</event>
<event>
 5    1  0.3259432E-002  0.1249945E+03  0.7818608E-02  0.1235078E+00
          4   -1    0    0  501    0  0.00000000000E+00  0.00000000000E+00  0.38028359421E+01  0.40092968464E+01  0.12700000000E+01 0. -1.
         -4   -1    0    0    0  501 -0.00000000000E+00 -0.00000000000E+00 -0.99975288064E+03  0.99975368729E+03  0.12700000000E+01 0. -1.
         25    2    1    2    0    0  0.00000000000E+00  0.00000000000E+00 -0.99595004470E+03  0.10037629841E+04  0.12499454703E+03 0.  0.
    9000005    1    3    3    0    0 -0.59020974569E+02 -0.13447836431E+02 -0.37341507919E+03  0.37829107987E+03  0.10000000000E+01 0.  0.
    9000005    1    3    3    0    0  0.59020974569E+02  0.13447836431E+02 -0.62253496551E+03  0.62547190426E+03  0.10000000000E+01 0.  0.
<mgrwt>
<rscale>  0 0.12499455E+03</rscale>
<asrwt>0</asrwt>
<pdfrwt beam="1">  1        4 0.60099614E-03 0.12499455E+03</pdfrwt>
<pdfrwt beam="2">  1       -4 0.15382387E+00 0.12499455E+03</pdfrwt>
<totfact> 0.30484227E+03</totfact>
</mgrwt>
</event>
<event>
 5    1  0.3259432E-002  0.1250004E+03  0.7818608E-02  0.1235069E+00
         -4   -1    0    0    0  501 -0.00000000000E+00  0.00000000000E+00  0.33331629149E+01  0.35669139346E+01  0.12700000000E+01 0.  1.
          4   -1    0    0  501    0  0.00000000000E+00 -0.00000000000E+00 -0.11320067656E+04  0.11320074780E+04  0.12700000000E+01 0.  1.
         25    2    1    2    0    0  0.00000000000E+00  0.00000000000E+00 -0.11286736027E+04  0.11355743920E+04  0.12500039294E+03 0.  0.
    9000005    1    3    3    0    0  0.33671113563E+02 -0.32225935324E+02 -0.94252325593E+03  0.94367544355E+03  0.10000000000E+01 0.  0.
    9000005    1    3    3    0    0 -0.33671113563E+02  0.32225935324E+02 -0.18615034679E+03  0.19189894842E+03  0.10000000000E+01 0.  0.
<mgrwt>
<rscale>  0 0.12500039E+03</rscale>
<asrwt>0</asrwt>
<pdfrwt beam="2">  1        4 0.17417263E+00 0.12500039E+03</pdfrwt>
<pdfrwt beam="1">  1       -4 0.53083084E-03 0.12500039E+03</pdfrwt>
<totfact> 0.26463731E+03</totfact>
</mgrwt>
</event>
<event>
 5    1  0.3259432E-002  0.1250003E+03  0.7818608E-02  0.1235069E+00
          4   -1    0    0  501    0  0.00000000000E+00  0.00000000000E+00  0.52696907420E+02  0.52712208753E+02  0.12700000000E+01 0.  1.
         -4   -1    0    0    0  501 -0.00000000000E+00 -0.00000000000E+00 -0.74095638557E+02  0.74106521665E+02  0.12700000000E+01 0.  1.
         25    2    1    2    0    0  0.00000000000E+00  0.00000000000E+00 -0.21398731138E+02  0.12681873042E+03  0.12500033876E+03 0.  0.
    9000005    1    3    3    0    0 -0.10042211854E+02  0.60491753108E+02 -0.22923414411E+02  0.65471987455E+02  0.10000000000E+01 0.  0.
    9000005    1    3    3    0    0  0.10042211854E+02 -0.60491753108E+02  0.15246832732E+01  0.61346742963E+02  0.10000000000E+01 0.  0.
<mgrwt>
<rscale>  0 0.12500034E+03</rscale>
<asrwt>0</asrwt>
<pdfrwt beam="1">  1        4 0.81092307E-02 0.12500034E+03</pdfrwt>
<pdfrwt beam="2">  1       -4 0.11401343E-01 0.12500034E+03</pdfrwt>
<totfact> 0.10413007E+04</totfact>
</mgrwt>
</event>
<event>
 5    1  0.3259432E-002  0.1250000E+03  0.7818608E-02  0.1235069E+00
         -4   -1    0    0    0  501 -0.00000000000E+00  0.00000000000E+00  0.10708789228E+03  0.10709542275E+03  0.12700000000E+01 0. -1.
          4   -1    0    0  501    0  0.00000000000E+00 -0.00000000000E+00 -0.36457174533E+02  0.36479288301E+02  0.12700000000E+01 0. -1.
         25    2    1    2    0    0  0.00000000000E+00  0.00000000000E+00  0.70630717752E+02  0.14357471105E+03  0.12499999745E+03 0.  0.
    9000005    1    3    3    0    0  0.24223723964E+02 -0.47549511752E+02  0.72666954172E+02  0.90162248747E+02  0.10000000000E+01 0.  0.
    9000005    1    3    3    0    0 -0.24223723964E+02  0.47549511752E+02 -0.20362364202E+01  0.53412462303E+02  0.10000000000E+01 0.  0.
<mgrwt>
<rscale>  0 0.12500000E+03</rscale>
<asrwt>0</asrwt>
<pdfrwt beam="2">  1        4 0.56110764E-02 0.12500000E+03</pdfrwt>
<pdfrwt beam="1">  1       -4 0.16477341E-01 0.12500000E+03</pdfrwt>
<totfact> 0.10060028E+04</totfact>
</mgrwt>
</event>
<event>
 5    1  0.3259432E-002  0.1250009E+03  0.7818608E-02  0.1235068E+00
         -4   -1    0    0    0  501 -0.00000000000E+00  0.00000000000E+00  0.24922091910E+01  0.27971425869E+01  0.12700000000E+01 0. -1.
          4   -1    0    0  501    0  0.00000000000E+00 -0.00000000000E+00 -0.14767404610E+04  0.14767410071E+04  0.12700000000E+01 0. -1.
         25    2    1    2    0    0  0.00000000000E+00  0.00000000000E+00 -0.14742482518E+04  0.14795381497E+04  0.12500091368E+03 0.  0.
    9000005    1    3    3    0    0 -0.18445974467E+02 -0.53178319646E+02 -0.10584767984E+04  0.10599727923E+04  0.10000000000E+01 0.  0.
    9000005    1    3    3    0    0  0.18445974467E+02  0.53178319646E+02 -0.41577145337E+03  0.41956535735E+03  0.10000000000E+01 0.  0.
<mgrwt>
<rscale>  0 0.12500091E+03</rscale>
<asrwt>0</asrwt>
<pdfrwt beam="2">  1        4 0.22721368E+00 0.12500091E+03</pdfrwt>
<pdfrwt beam="1">  1       -4 0.40691640E-03 0.12500091E+03</pdfrwt>
<totfact> 0.18335457E+03</totfact>
</mgrwt>
</event>
<event>
 5    1  0.3259432E-002  0.1250014E+03  0.7818608E-02  0.1235067E+00
         -4   -1    0    0    0  501 -0.00000000000E+00  0.00000000000E+00  0.43161846902E+02  0.43180527185E+02  0.12700000000E+01 0. -1.
          4   -1    0    0  501    0  0.00000000000E+00 -0.00000000000E+00 -0.90461750209E+02  0.90470664588E+02  0.12700000000E+01 0. -1.
         25    2    1    2    0    0  0.00000000000E+00  0.00000000000E+00 -0.47299903307E+02  0.13365119177E+03  0.12500144083E+03 0.  0.
    9000005    1    3    3    0    0 -0.27255825470E+02  0.47275052130E+02 -0.56212746786E+02  0.78349750971E+02  0.10000000000E+01 0.  0.
    9000005    1    3    3    0    0  0.27255825470E+02 -0.47275052130E+02  0.89128434791E+01  0.55301440802E+02  0.10000000000E+01 0.  0.
<mgrwt>
<rscale>  0 0.12500144E+03</rscale>
<asrwt>0</asrwt>
<pdfrwt beam="2">  1        4 0.13919315E-01 0.12500144E+03</pdfrwt>
<pdfrwt beam="1">  1       -4 0.66424068E-02 0.12500144E+03</pdfrwt>
<totfact> 0.10266245E+04</totfact>
</mgrwt>
</event>
<event>
 5    1  0.3259432E-002  0.1250382E+03  0.7818608E-02  0.1235010E+00
         -4   -1    0    0    0  501 -0.00000000000E+00  0.00000000000E+00  0.30245124131E+03  0.30245390768E+03  0.12700000000E+01 0.  1.
          4   -1    0    0  501    0  0.00000000000E+00 -0.00000000000E+00 -0.12889261230E+02  0.12951677693E+02  0.12700000000E+01 0.  1.
         25    2    1    2    0    0  0.00000000000E+00  0.00000000000E+00  0.28956198008E+03  0.31540558537E+03  0.12503816608E+03 0.  0.
    9000005    1    3    3    0    0  0.11763312034E+02  0.21140643039E+02 -0.61364899996E+00  0.24221454606E+02  0.10000000000E+01 0.  0.
    9000005    1    3    3    0    0 -0.11763312034E+02 -0.21140643039E+02  0.29017562908E+03  0.29118413076E+03  0.10000000000E+01 0.  0.
<mgrwt>
<rscale>  0 0.12503817E+03</rscale>
<asrwt>0</asrwt>
<pdfrwt beam="2">  1        4 0.19879696E-02 0.12503817E+03</pdfrwt>
<pdfrwt beam="1">  1       -4 0.46535967E-01 0.12503817E+03</pdfrwt>
<totfact> 0.73643580E+03</totfact>
</mgrwt>
</event>
<event>
 5    1  0.3259432E-002  0.1250012E+03  0.7818608E-02  0.1235067E+00
         -4   -1    0    0    0  501 -0.00000000000E+00  0.00000000000E+00  0.52491817141E+02  0.52507178241E+02  0.12700000000E+01 0.  1.
          4   -1    0    0  501    0  0.00000000000E+00 -0.00000000000E+00 -0.74386151968E+02  0.74396992578E+02  0.12700000000E+01 0.  1.
         25    2    1    2    0    0  0.00000000000E+00  0.00000000000E+00 -0.21894334827E+02  0.12690417082E+03  0.12500122669E+03 0.  0.
    9000005    1    3    3    0    0 -0.51704196023E+02  0.29682121636E+02 -0.29966679167E+02  0.66733455563E+02  0.10000000000E+01 0.  0.
    9000005    1    3    3    0    0  0.51704196023E+02 -0.29682121636E+02  0.80723443400E+01  0.60170715255E+02  0.10000000000E+01 0.  0.
<mgrwt>
<rscale>  0 0.12500123E+03</rscale>
<asrwt>0</asrwt>
<pdfrwt beam="2">  1        4 0.11446039E-01 0.12500123E+03</pdfrwt>
<pdfrwt beam="1">  1       -4 0.80776797E-02 0.12500123E+03</pdfrwt>
<totfact> 0.10410940E+04</totfact>
</mgrwt>
</event>
<event>
 5    1  0.3259432E-002  0.1249984E+03  0.7818608E-02  0.1235072E+00
         -4   -1    0    0    0  501 -0.00000000000E+00  0.00000000000E+00  0.42063119494E+02  0.42082287504E+02  0.12700000000E+01 0.  1.
          4   -1    0    0  501    0  0.00000000000E+00 -0.00000000000E+00 -0.92819417728E+02  0.92828105697E+02  0.12700000000E+01 0.  1.
         25    2    1    2    0    0  0.00000000000E+00  0.00000000000E+00 -0.50756298234E+02  0.13491039320E+03  0.12499844952E+03 0.  0.
    9000005    1    3    3    0    0 -0.46839523271E+02  0.95517629106E+00 -0.70013289362E+02  0.84247931661E+02  0.10000000000E+01 0.  0.
    9000005    1    3    3    0    0  0.46839523271E+02 -0.95517629106E+00  0.19256991128E+02  0.50662461540E+02  0.10000000000E+01 0.  0.
<mgrwt>
<rscale>  0 0.12499845E+03</rscale>
<asrwt>0</asrwt>
<pdfrwt beam="2">  1        4 0.14282053E-01 0.12499845E+03</pdfrwt>
<pdfrwt beam="1">  1       -4 0.64733920E-02 0.12499845E+03</pdfrwt>
<totfact> 0.10240318E+04</totfact>
</mgrwt>
</event>
<event>
 5    1  0.3259432E-002  0.1250213E+03  0.7818608E-02  0.1235036E+00
         -4   -1    0    0    0  501 -0.00000000000E+00  0.00000000000E+00  0.73724612911E+02  0.73735550780E+02  0.12700000000E+01 0. -1.
          4   -1    0    0  501    0  0.00000000000E+00 -0.00000000000E+00 -0.52979936092E+02  0.52995155707E+02  0.12700000000E+01 0. -1.
         25    2    1    2    0    0  0.00000000000E+00  0.00000000000E+00  0.20744676819E+02  0.12673070649E+03  0.12502131958E+03 0.  0.
    9000005    1    3    3    0    0  0.55436136191E+02  0.16159246912E+02 -0.13877462779E+02  0.59395878895E+02  0.10000000000E+01 0.  0.
    9000005    1    3    3    0    0 -0.55436136191E+02 -0.16159246912E+02  0.34622139598E+02  0.67334827592E+02  0.10000000000E+01 0.  0.
<mgrwt>
<rscale>  0 0.12502132E+03</rscale>
<asrwt>0</asrwt>
<pdfrwt beam="2">  1        4 0.81527716E-02 0.12502132E+03</pdfrwt>
<pdfrwt beam="1">  1       -4 0.11344260E-01 0.12502132E+03</pdfrwt>
<totfact> 0.10409991E+04</totfact>
</mgrwt>
</event>
<event>
 5    1  0.3259432E-002  0.1250016E+03  0.7818608E-02  0.1235067E+00
          4   -1    0    0  501    0  0.00000000000E+00  0.00000000000E+00  0.63096198770E+02  0.63108978753E+02  0.12700000000E+01 0. -1.
         -4   -1    0    0    0  501 -0.00000000000E+00 -0.00000000000E+00 -0.61885470328E+02  0.61898500286E+02  0.12700000000E+01 0. -1.
         25    2    1    2    0    0  0.00000000000E+00  0.00000000000E+00  0.12107284421E+01  0.12500747904E+03  0.12500161580E+03 0.  0.
    9000005    1    3    3    0    0 -0.18803084436E+01  0.21724765506E+02 -0.57962303958E+02  0.61936497126E+02  0.10000000000E+01 0.  0.
    9000005    1    3    3    0    0  0.18803084436E+01 -0.21724765506E+02  0.59173032400E+02  0.63070981913E+02  0.10000000000E+01 0.  0.
<mgrwt>
<rscale>  0 0.12500162E+03</rscale>
<asrwt>0</asrwt>
<pdfrwt beam="1">  1        4 0.97090928E-02 0.12500162E+03</pdfrwt>
<pdfrwt beam="2">  1       -4 0.95228271E-02 0.12500162E+03</pdfrwt>
<totfact> 0.10452318E+04</totfact>
</mgrwt>
</event>
<event>
 5    1  0.3259432E-002  0.1250254E+03  0.7818608E-02  0.1235030E+00
          4   -1    0    0  501    0  0.00000000000E+00  0.00000000000E+00  0.79570411817E+01  0.80577543005E+01  0.12700000000E+01 0. -1.
         -4   -1    0    0    0  501 -0.00000000000E+00 -0.00000000000E+00 -0.48792693299E+03  0.48792858580E+03  0.12700000000E+01 0. -1.
         25    2    1    2    0    0  0.00000000000E+00  0.00000000000E+00 -0.47996989181E+03  0.49598634010E+03  0.12502540750E+03 0.  0.
    9000005    1    3    3    0    0  0.59354020286E+02 -0.16300301771E+02 -0.19684783868E+03  0.20624905128E+03  0.10000000000E+01 0.  0.
    9000005    1    3    3    0    0 -0.59354020286E+02  0.16300301771E+02 -0.28312205314E+03  0.28973728882E+03  0.10000000000E+01 0.  0.
<mgrwt>
<rscale>  0 0.12502541E+03</rscale>
<asrwt>0</asrwt>
<pdfrwt beam="1">  1        4 0.12320349E-02 0.12502541E+03</pdfrwt>
<pdfrwt beam="2">  1       -4 0.75073533E-01 0.12502541E+03</pdfrwt>
<totfact> 0.56145761E+03</totfact>
</mgrwt>
</event>
<event>
 5    1  0.3259432E-002  0.1250127E+03  0.7818608E-02  0.1235049E+00
         -4   -1    0    0    0  501 -0.00000000000E+00  0.00000000000E+00  0.52367530292E+01  0.53885510380E+01  0.12700000000E+01 0.  1.
          4   -1    0    0  501    0  0.00000000000E+00 -0.00000000000E+00 -0.73527066501E+03  0.73527176182E+03  0.12700000000E+01 0.  1.
         25    2    1    2    0    0  0.00000000000E+00  0.00000000000E+00 -0.73003391198E+03  0.74066031285E+03  0.12501274493E+03 0.  0.
    9000005    1    3    3    0    0 -0.61209254308E+02  0.10492004150E+02 -0.40665511159E+03  0.41137092112E+03  0.10000000000E+01 0.  0.
    9000005    1    3    3    0    0  0.61209254308E+02 -0.10492004150E+02 -0.32337880039E+03  0.32928939173E+03  0.10000000000E+01 0.  0.
<mgrwt>
<rscale>  0 0.12501274E+03</rscale>
<asrwt>0</asrwt>
<pdfrwt beam="2">  1        4 0.11313024E+00 0.12501274E+03</pdfrwt>
<pdfrwt beam="1">  1       -4 0.81741604E-03 0.12501274E+03</pdfrwt>
<totfact> 0.41013481E+03</totfact>
</mgrwt>
</event>
<event>
 5    1  0.3259432E-002  0.1250018E+03  0.7818608E-02  0.1235066E+00
          4   -1    0    0  501    0  0.00000000000E+00  0.00000000000E+00  0.16707957898E+02  0.16756155798E+02  0.12700000000E+01 0.  1.
         -4   -1    0    0    0  501 -0.00000000000E+00 -0.00000000000E+00 -0.23341583711E+03  0.23341929207E+03  0.12700000000E+01 0.  1.
         25    2    1    2    0    0  0.00000000000E+00  0.00000000000E+00 -0.21670787921E+03  0.25017544787E+03  0.12500179921E+03 0.  0.
    9000005    1    3    3    0    0 -0.19455957277E+02 -0.19753862918E+02 -0.22044188186E+03  0.22218094574E+03  0.10000000000E+01 0.  0.
    9000005    1    3    3    0    0  0.19455957277E+02  0.19753862918E+02  0.37340026483E+01  0.27994502131E+02  0.10000000000E+01 0.  0.
<mgrwt>
<rscale>  0 0.12500180E+03</rscale>
<asrwt>0</asrwt>
<pdfrwt beam="1">  1        4 0.25744285E-02 0.12500180E+03</pdfrwt>
<pdfrwt beam="2">  1       -4 0.35914100E-01 0.12500180E+03</pdfrwt>
<totfact> 0.82301579E+03</totfact>
</mgrwt>
</event>
<event>
 5    1  0.3259432E-002  0.1249976E+03  0.7818608E-02  0.1235073E+00
          4   -1    0    0  501    0  0.00000000000E+00  0.00000000000E+00  0.67706440183E+03  0.67706559292E+03  0.12700000000E+01 0.  1.
         -4   -1    0    0    0  501 -0.00000000000E+00 -0.00000000000E+00 -0.56980626472E+01  0.58378778620E+01  0.12700000000E+01 0.  1.
         25    2    1    2    0    0  0.00000000000E+00  0.00000000000E+00  0.67136633918E+03  0.68290347079E+03  0.12499755609E+03 0.  0.
    9000005    1    3    3    0    0  0.30535054576E+02  0.26551816618E+02  0.59584970548E+03  0.59722295673E+03  0.10000000000E+01 0.  0.
    9000005    1    3    3    0    0 -0.30535054576E+02 -0.26551816618E+02  0.75516633699E+02  0.85680514056E+02  0.10000000000E+01 0.  0.
<mgrwt>
<rscale>  0 0.12499756E+03</rscale>
<asrwt>0</asrwt>
<pdfrwt beam="1">  1        4 0.10417459E+00 0.12499756E+03</pdfrwt>
<pdfrwt beam="2">  1       -4 0.88747177E-03 0.12499756E+03</pdfrwt>
<totfact> 0.44007054E+03</totfact>
</mgrwt>
</event>
<event>
 5    1  0.3259432E-002  0.1250023E+03  0.7818608E-02  0.1235066E+00
          4   -1    0    0  501    0  0.00000000000E+00  0.00000000000E+00  0.65196791411E+03  0.65196915106E+03  0.12700000000E+01 0.  1.
         -4   -1    0    0    0  501 -0.00000000000E+00 -0.00000000000E+00 -0.59231411487E+01  0.60577637019E+01  0.12700000000E+01 0.  1.
         25    2    1    2    0    0  0.00000000000E+00  0.00000000000E+00  0.64604477296E+03  0.65802691476E+03  0.12500228748E+03 0.  0.
    9000005    1    3    3    0    0  0.54644193291E+02  0.53707982726E+01  0.48011551916E+03  0.48324605024E+03  0.10000000000E+01 0.  0.
    9000005    1    3    3    0    0 -0.54644193291E+02 -0.53707982726E+01  0.16592925380E+03  0.17478086452E+03  0.10000000000E+01 0.  0.
<mgrwt>
<rscale>  0 0.12500229E+03</rscale>
<asrwt>0</asrwt>
<pdfrwt beam="1">  1        4 0.10031319E+00 0.12500229E+03</pdfrwt>
<pdfrwt beam="2">  1       -4 0.92170334E-03 0.12500229E+03</pdfrwt>
<totfact> 0.45394448E+03</totfact>
</mgrwt>
</event>
<event>
 5    1  0.3259432E-002  0.1250392E+03  0.7818608E-02  0.1235008E+00
         -4   -1    0    0    0  501 -0.00000000000E+00  0.00000000000E+00  0.16819035037E+02  0.16866915533E+02  0.12700000000E+01 0.  1.
          4   -1    0    0  501    0  0.00000000000E+00 -0.00000000000E+00 -0.23201757531E+03  0.23202105110E+03  0.12700000000E+01 0.  1.
         25    2    1    2    0    0  0.00000000000E+00  0.00000000000E+00 -0.21519854027E+03  0.24888796663E+03  0.12503922664E+03 0.  0.
    9000005    1    3    3    0    0 -0.16456973570E+02  0.34598173574E+02 -0.92801510366E+01  0.39433320897E+02  0.10000000000E+01 0.  0.
    9000005    1    3    3    0    0  0.16456973570E+02 -0.34598173574E+02 -0.20591838924E+03  0.20945464573E+03  0.10000000000E+01 0.  0.
<mgrwt>
<rscale>  0 0.12503923E+03</rscale>
<asrwt>0</asrwt>
<pdfrwt beam="2">  1        4 0.35698960E-01 0.12503923E+03</pdfrwt>
<pdfrwt beam="1">  1       -4 0.25914945E-02 0.12503923E+03</pdfrwt>
<totfact> 0.82419171E+03</totfact>
</mgrwt>
</event>
<event>
 5    1  0.3259432E-002  0.1249981E+03  0.7818608E-02  0.1235072E+00
         -4   -1    0    0    0  501 -0.00000000000E+00  0.00000000000E+00  0.81495285435E+02  0.81505180499E+02  0.12700000000E+01 0. -1.
          4   -1    0    0  501    0  0.00000000000E+00 -0.00000000000E+00 -0.47909552194E+02  0.47926381998E+02  0.12700000000E+01 0. -1.
         25    2    1    2    0    0  0.00000000000E+00  0.00000000000E+00  0.33585733242E+02  0.12943156250E+03  0.12499811156E+03 0.  0.
    9000005    1    3    3    0    0 -0.43230874688E+02  0.10926661422E+02 -0.28541621139E+02  0.52952097158E+02  0.10000000000E+01 0.  0.
    9000005    1    3    3    0    0  0.43230874688E+02 -0.10926661422E+02  0.62127354381E+02  0.76479465339E+02  0.10000000000E+01 0.  0.
<mgrwt>
<rscale>  0 0.12499811E+03</rscale>
<asrwt>0</asrwt>
<pdfrwt beam="2">  1        4 0.73727562E-02 0.12499811E+03</pdfrwt>
<pdfrwt beam="1">  1       -4 0.12539792E-01 0.12499811E+03</pdfrwt>
<totfact> 0.10357124E+04</totfact>
</mgrwt>
</event>
<event>
 5    1  0.3259432E-002  0.1250004E+03  0.7818608E-02  0.1235069E+00
         -4   -1    0    0    0  501 -0.00000000000E+00  0.00000000000E+00  0.16803887988E+03  0.16804367900E+03  0.12700000000E+01 0. -1.
          4   -1    0    0  501    0  0.00000000000E+00 -0.00000000000E+00 -0.23223774560E+02  0.23258473828E+02  0.12700000000E+01 0. -1.
         25    2    1    2    0    0  0.00000000000E+00  0.00000000000E+00  0.14481510532E+03  0.19130215282E+03  0.12500039579E+03 0.  0.
    9000005    1    3    3    0    0 -0.20915361694E+02 -0.24189945372E+02 -0.97610407263E+01  0.33449719400E+02  0.10000000000E+01 0.  0.
    9000005    1    3    3    0    0  0.20915361694E+02  0.24189945372E+02  0.15457614604E+03  0.15785243342E+03  0.10000000000E+01 0.  0.
<mgrwt>
<rscale>  0 0.12500040E+03</rscale>
<asrwt>0</asrwt>
<pdfrwt beam="2">  1        4 0.35759268E-02 0.12500040E+03</pdfrwt>
<pdfrwt beam="1">  1       -4 0.25855173E-01 0.12500040E+03</pdfrwt>
<totfact> 0.91620425E+03</totfact>
</mgrwt>
</event>
<event>
 5    1  0.3259432E-002  0.1249953E+03  0.7818608E-02  0.1235077E+00
         -4   -1    0    0    0  501 -0.00000000000E+00  0.00000000000E+00  0.79735981569E+03  0.79736082709E+03  0.12700000000E+01 0. -1.
          4   -1    0    0  501    0  0.00000000000E+00 -0.00000000000E+00 -0.48152622912E+01  0.49799247919E+01  0.12700000000E+01 0. -1.
         25    2    1    2    0    0  0.00000000000E+00  0.00000000000E+00  0.79254455340E+03  0.80234075188E+03  0.12499525194E+03 0.  0.
    9000005    1    3    3    0    0  0.12637535271E+02 -0.65691295728E+01  0.57111929085E+01  0.15377856987E+02  0.10000000000E+01 0.  0.
    9000005    1    3    3    0    0 -0.12637535271E+02  0.65691295728E+01  0.78683336049E+03  0.78696289490E+03  0.10000000000E+01 0.  0.
<mgrwt>
<rscale>  0 0.12499525E+03</rscale>
<asrwt>0</asrwt>
<pdfrwt beam="2">  1        4 0.75355342E-03 0.12499525E+03</pdfrwt>
<pdfrwt beam="1">  1       -4 0.12268354E+00 0.12499525E+03</pdfrwt>
<totfact> 0.38164384E+03</totfact>
</mgrwt>
</event>
<event>
 5    1  0.3259432E-002  0.1250004E+03  0.7818608E-02  0.1235069E+00
         -4   -1    0    0    0  501 -0.00000000000E+00  0.00000000000E+00  0.16476151580E+04  0.16476156474E+04  0.12700000000E+01 0.  1.
          4   -1    0    0  501    0  0.00000000000E+00 -0.00000000000E+00 -0.22002653706E+01  0.25404857215E+01  0.12700000000E+01 0.  1.
         25    2    1    2    0    0  0.00000000000E+00  0.00000000000E+00  0.16454148926E+04  0.16501561331E+04  0.12500038002E+03 0.  0.
    9000005    1    3    3    0    0  0.43284261464E+02  0.44014819285E+02  0.95099857439E+03  0.95300058767E+03  0.10000000000E+01 0.  0.
    9000005    1    3    3    0    0 -0.43284261464E+02 -0.44014819285E+02  0.69441631819E+03  0.69715554547E+03  0.10000000000E+01 0.  0.
<mgrwt>
<rscale>  0 0.12500038E+03</rscale>
<asrwt>0</asrwt>
<pdfrwt beam="2">  1        4 0.36470986E-03 0.12500038E+03</pdfrwt>
<pdfrwt beam="1">  1       -4 0.25350613E+00 0.12500038E+03</pdfrwt>
<totfact> 0.15156493E+03</totfact>
</mgrwt>
</event>
<event>
 5    1  0.3259432E-002  0.1250005E+03  0.7818608E-02  0.1235068E+00
         -4   -1    0    0    0  501 -0.00000000000E+00  0.00000000000E+00  0.14435321175E+04  0.14435326762E+04  0.12700000000E+01 0.  1.
          4   -1    0    0  501    0  0.00000000000E+00 -0.00000000000E+00 -0.25564602174E+01  0.28545382890E+01  0.12700000000E+01 0.  1.
         25    2    1    2    0    0  0.00000000000E+00  0.00000000000E+00  0.14409756573E+04  0.14463872145E+04  0.12500051701E+03 0.  0.
    9000005    1    3    3    0    0 -0.29594832560E+02 -0.40921777903E+02  0.29457945793E+03  0.29887874306E+03  0.10000000000E+01 0.  0.
    9000005    1    3    3    0    0  0.29594832560E+02  0.40921777903E+02  0.11463961994E+04  0.11475084714E+04  0.10000000000E+01 0.  0.
<mgrwt>
<rscale>  0 0.12500052E+03</rscale>
<asrwt>0</asrwt>
<pdfrwt beam="2">  1        4 0.41627476E-03 0.12500052E+03</pdfrwt>
<pdfrwt beam="1">  1       -4 0.22210423E+00 0.12500052E+03</pdfrwt>
<totfact> 0.19006715E+03</totfact>
</mgrwt>
</event>
<event>
 5    1  0.3259432E-002  0.1250019E+03  0.7818608E-02  0.1235066E+00
         -4   -1    0    0    0  501 -0.00000000000E+00  0.00000000000E+00  0.13357167024E+03  0.13357770768E+03  0.12700000000E+01 0. -1.
          4   -1    0    0  501    0  0.00000000000E+00 -0.00000000000E+00 -0.29225011504E+02  0.29252593003E+02  0.12700000000E+01 0. -1.
         25    2    1    2    0    0  0.00000000000E+00  0.00000000000E+00  0.10434665873E+03  0.16283030069E+03  0.12500192652E+03 0.  0.
    9000005    1    3    3    0    0  0.47525047585E+02  0.25304748690E+02  0.10848984211E+02  0.54933240507E+02  0.10000000000E+01 0.  0.
    9000005    1    3    3    0    0 -0.47525047585E+02 -0.25304748690E+02  0.93497674524E+02  0.10789706018E+03  0.10000000000E+01 0.  0.
<mgrwt>
<rscale>  0 0.12500193E+03</rscale>
<asrwt>0</asrwt>
<pdfrwt beam="2">  1        4 0.44987418E-02 0.12500193E+03</pdfrwt>
<pdfrwt beam="1">  1       -4 0.20552073E-01 0.12500193E+03</pdfrwt>
<totfact> 0.96795694E+03</totfact>
</mgrwt>
</event>
<event>
 5    1  0.3259432E-002  0.1249959E+03  0.7818608E-02  0.1235076E+00
          4   -1    0    0  501    0  0.00000000000E+00  0.00000000000E+00  0.39522481246E+02  0.39542880824E+02  0.12700000000E+01 0. -1.
         -4   -1    0    0    0  501 -0.00000000000E+00 -0.00000000000E+00 -0.98779662222E+02  0.98787826014E+02  0.12700000000E+01 0. -1.
         25    2    1    2    0    0  0.00000000000E+00  0.00000000000E+00 -0.59257180976E+02  0.13833070684E+03  0.12499588376E+03 0.  0.
    9000005    1    3    3    0    0 -0.40614684823E+02  0.32823704347E+02 -0.67612856752E+02  0.85436798796E+02  0.10000000000E+01 0.  0.
    9000005    1    3    3    0    0  0.40614684823E+02 -0.32823704347E+02  0.83556757766E+01  0.52893908042E+02  0.10000000000E+01 0.  0.
<mgrwt>
<rscale>  0 0.12499588E+03</rscale>
<asrwt>0</asrwt>
<pdfrwt beam="1">  1        4 0.60825789E-02 0.12499588E+03</pdfrwt>
<pdfrwt beam="2">  1       -4 0.15199068E-01 0.12499588E+03</pdfrwt>
<totfact> 0.10169244E+04</totfact>
</mgrwt>
</event>
<event>
 5    1  0.3259432E-002  0.1250046E+03  0.7818608E-02  0.1235062E+00
          4   -1    0    0  501    0  0.00000000000E+00  0.00000000000E+00  0.25797953873E+02  0.25829195187E+02  0.12700000000E+01 0.  1.
         -4   -1    0    0    0  501 -0.00000000000E+00 -0.00000000000E+00 -0.15130266521E+03  0.15130799516E+03  0.12700000000E+01 0.  1.
         25    2    1    2    0    0  0.00000000000E+00  0.00000000000E+00 -0.12550471134E+03  0.17713719035E+03  0.12500460646E+03 0.  0.
    9000005    1    3    3    0    0  0.16600447980E+02  0.33734056393E+02 -0.13349083243E+03  0.13868800877E+03  0.10000000000E+01 0.  0.
    9000005    1    3    3    0    0 -0.16600447980E+02 -0.33734056393E+02  0.79861210933E+01  0.38449181577E+02  0.10000000000E+01 0.  0.
<mgrwt>
<rscale>  0 0.12500461E+03</rscale>
<asrwt>0</asrwt>
<pdfrwt beam="1">  1        4 0.39717292E-02 0.12500461E+03</pdfrwt>
<pdfrwt beam="2">  1       -4 0.23280146E-01 0.12500461E+03</pdfrwt>
<totfact> 0.94125146E+03</totfact>
</mgrwt>
</event>
<event>
 5    1  0.3259432E-002  0.1250012E+03  0.7818608E-02  0.1235067E+00
         -4   -1    0    0    0  501 -0.00000000000E+00  0.00000000000E+00  0.45517022476E+02  0.45534736577E+02  0.12700000000E+01 0. -1.
          4   -1    0    0  501    0  0.00000000000E+00 -0.00000000000E+00 -0.85782071107E+02  0.85791471741E+02  0.12700000000E+01 0. -1.
         25    2    1    2    0    0  0.00000000000E+00  0.00000000000E+00 -0.40265048631E+02  0.13132620832E+03  0.12500119539E+03 0.  0.
    9000005    1    3    3    0    0 -0.31945211010E+02 -0.53429874101E+02 -0.14370796201E+02  0.63896539315E+02  0.10000000000E+01 0.  0.
    9000005    1    3    3    0    0  0.31945211010E+02  0.53429874101E+02 -0.25894252429E+02  0.67429669003E+02  0.10000000000E+01 0.  0.
<mgrwt>
<rscale>  0 0.12500120E+03</rscale>
<asrwt>0</asrwt>
<pdfrwt beam="2">  1        4 0.13199327E-01 0.12500120E+03</pdfrwt>
<pdfrwt beam="1">  1       -4 0.70047046E-02 0.12500120E+03</pdfrwt>
<totfact> 0.10315823E+04</totfact>
</mgrwt>
</event>
<event>
 5    1  0.3259432E-002  0.1250002E+03  0.7818608E-02  0.1235069E+00
          4   -1    0    0  501    0  0.00000000000E+00  0.00000000000E+00  0.68353671360E+02  0.68365468538E+02  0.12700000000E+01 0. -1.
         -4   -1    0    0    0  501 -0.00000000000E+00 -0.00000000000E+00 -0.57124058599E+02  0.57138174374E+02  0.12700000000E+01 0. -1.
         25    2    1    2    0    0  0.00000000000E+00  0.00000000000E+00  0.11229612761E+02  0.12550364291E+03  0.12500024073E+03 0.  0.
    9000005    1    3    3    0    0 -0.82727370150E+01  0.59268749122E+02  0.23688474320E+02  0.64368987997E+02  0.10000000000E+01 0.  0.
    9000005    1    3    3    0    0  0.82727370150E+01 -0.59268749122E+02 -0.12458861559E+02  0.61134654915E+02  0.10000000000E+01 0.  0.
<mgrwt>
<rscale>  0 0.12500024E+03</rscale>
<asrwt>0</asrwt>
<pdfrwt beam="1">  1        4 0.10517943E-01 0.12500024E+03</pdfrwt>
<pdfrwt beam="2">  1       -4 0.87903100E-02 0.12500024E+03</pdfrwt>
<totfact> 0.10441817E+04</totfact>
</mgrwt>
</event>
<event>
 5    1  0.3259432E-002  0.1249945E+03  0.7818608E-02  0.1235078E+00
         -4   -1    0    0    0  501 -0.00000000000E+00  0.00000000000E+00  0.42538063713E+02  0.42557017805E+02  0.12700000000E+01 0. -1.
          4   -1    0    0  501    0  0.00000000000E+00 -0.00000000000E+00 -0.91777617968E+02  0.91786404548E+02  0.12700000000E+01 0. -1.
         25    2    1    2    0    0  0.00000000000E+00  0.00000000000E+00 -0.49239554255E+02  0.13434342235E+03  0.12499448558E+03 0.  0.
    9000005    1    3    3    0    0  0.87763476100E+00  0.30551788508E+02  0.33961206245E+02  0.45700607801E+02  0.10000000000E+01 0.  0.
    9000005    1    3    3    0    0 -0.87763476100E+00 -0.30551788508E+02 -0.83200760500E+02  0.88642814552E+02  0.10000000000E+01 0.  0.
<mgrwt>
<rscale>  0 0.12499449E+03</rscale>
<asrwt>0</asrwt>
<pdfrwt beam="2">  1        4 0.14121767E-01 0.12499449E+03</pdfrwt>
<pdfrwt beam="1">  1       -4 0.65464514E-02 0.12499449E+03</pdfrwt>
<totfact> 0.10253204E+04</totfact>
</mgrwt>
</event>
<event>
 5    1  0.3259432E-002  0.1250005E+03  0.7818608E-02  0.1235069E+00
         -4   -1    0    0    0  501 -0.00000000000E+00  0.00000000000E+00  0.57863245370E+02  0.57877180864E+02  0.12700000000E+01 0. -1.
          4   -1    0    0  501    0  0.00000000000E+00 -0.00000000000E+00 -0.67480770692E+02  0.67492720446E+02  0.12700000000E+01 0. -1.
         25    2    1    2    0    0  0.00000000000E+00  0.00000000000E+00 -0.96175253218E+01  0.12536990131E+03  0.12500046144E+03 0.  0.
    9000005    1    3    3    0    0 -0.49302231550E+02 -0.26665813522E+02 -0.32521989513E+02  0.64810920750E+02  0.10000000000E+01 0.  0.
    9000005    1    3    3    0    0  0.49302231550E+02  0.26665813522E+02  0.22904464191E+02  0.60558980560E+02  0.10000000000E+01 0.  0.
<mgrwt>
<rscale>  0 0.12500046E+03</rscale>
<asrwt>0</asrwt>
<pdfrwt beam="2">  1        4 0.10383648E-01 0.12500046E+03</pdfrwt>
<pdfrwt beam="1">  1       -4 0.89040289E-02 0.12500046E+03</pdfrwt>
<totfact> 0.10444725E+04</totfact>
</mgrwt>
</event>
<event>
 5    1  0.3259432E-002  0.1250022E+03  0.7818608E-02  0.1235066E+00
         -4   -1    0    0    0  501 -0.00000000000E+00  0.00000000000E+00  0.12027118517E+02  0.12093985274E+02  0.12700000000E+01 0.  1.
          4   -1    0    0  501    0  0.00000000000E+00 -0.00000000000E+00 -0.32382981038E+03  0.32383230072E+03  0.12700000000E+01 0.  1.
         25    2    1    2    0    0  0.00000000000E+00  0.00000000000E+00 -0.31180269186E+03  0.33592628600E+03  0.12500220386E+03 0.  0.
    9000005    1    3    3    0    0 -0.11681639282E+02  0.43050966259E+02 -0.38283807990E+02  0.58791975187E+02  0.10000000000E+01 0.  0.
    9000005    1    3    3    0    0  0.11681639282E+02 -0.43050966259E+02 -0.27351888387E+03  0.27713431081E+03  0.10000000000E+01 0.  0.
<mgrwt>
<rscale>  0 0.12500220E+03</rscale>
<asrwt>0</asrwt>
<pdfrwt beam="2">  1        4 0.49825299E-01 0.12500220E+03</pdfrwt>
<pdfrwt beam="1">  1       -4 0.18556613E-02 0.12500220E+03</pdfrwt>
<totfact> 0.71297624E+03</totfact>
</mgrwt>
</event>
<event>
 5    1  0.3259432E-002  0.1250021E+03  0.7818608E-02  0.1235066E+00
         -4   -1    0    0    0  501 -0.00000000000E+00  0.00000000000E+00  0.80232597996E+02  0.80242648767E+02  0.12700000000E+01 0.  1.
          4   -1    0    0  501    0  0.00000000000E+00 -0.00000000000E+00 -0.48666797387E+02  0.48683365413E+02  0.12700000000E+01 0.  1.
         25    2    1    2    0    0  0.00000000000E+00  0.00000000000E+00  0.31565800608E+02  0.12892601418E+03  0.12500206944E+03 0.  0.
    9000005    1    3    3    0    0  0.22960168024E+02 -0.53552861244E+02 -0.75160629471E+01  0.58758569293E+02  0.10000000000E+01 0.  0.
    9000005    1    3    3    0    0 -0.22960168024E+02  0.53552861244E+02  0.39081863555E+02  0.70167444888E+02  0.10000000000E+01 0.  0.
<mgrwt>
<rscale>  0 0.12500207E+03</rscale>
<asrwt>0</asrwt>
<pdfrwt beam="2">  1        4 0.74892472E-02 0.12500207E+03</pdfrwt>
<pdfrwt beam="1">  1       -4 0.12345524E-01 0.12500207E+03</pdfrwt>
<totfact> 0.10367053E+04</totfact>
</mgrwt>
</event>
<event>
 5    1  0.3259432E-002  0.1250232E+03  0.7818608E-02  0.1235033E+00
         -4   -1    0    0    0  501 -0.00000000000E+00  0.00000000000E+00  0.94266245233E+02  0.94274799869E+02  0.12700000000E+01 0. -1.
          4   -1    0    0  501    0  0.00000000000E+00 -0.00000000000E+00 -0.41433668272E+02  0.41453127343E+02  0.12700000000E+01 0. -1.
         25    2    1    2    0    0  0.00000000000E+00  0.00000000000E+00  0.52832576960E+02  0.13572792721E+03  0.12502315400E+03 0.  0.
    9000005    1    3    3    0    0  0.18231166441E+02  0.33092809412E+02  0.80470990613E+02  0.88904948090E+02  0.10000000000E+01 0.  0.
    9000005    1    3    3    0    0 -0.18231166441E+02 -0.33092809412E+02 -0.27638413653E+02  0.46822979122E+02  0.10000000000E+01 0.  0.
<mgrwt>
<rscale>  0 0.12502315E+03</rscale>
<asrwt>0</asrwt>
<pdfrwt beam="2">  1        4 0.63765654E-02 0.12502315E+03</pdfrwt>
<pdfrwt beam="1">  1       -4 0.14504654E-01 0.12502315E+03</pdfrwt>
<totfact> 0.10217415E+04</totfact>
</mgrwt>
</event>
<event>
 5    1  0.3259432E-002  0.1249997E+03  0.7818608E-02  0.1235070E+00
          4   -1    0    0  501    0  0.00000000000E+00  0.00000000000E+00  0.65730896368E+01  0.66946551348E+01  0.12700000000E+01 0.  1.
         -4   -1    0    0    0  501 -0.00000000000E+00 -0.00000000000E+00 -0.58870928473E+03  0.58871065459E+03  0.12700000000E+01 0.  1.
         25    2    1    2    0    0  0.00000000000E+00  0.00000000000E+00 -0.58213619510E+03  0.59540530973E+03  0.12499973284E+03 0.  0.
    9000005    1    3    3    0    0  0.34394791713E+02  0.51714405246E+02 -0.25811826650E+03  0.26548713888E+03  0.10000000000E+01 0.  0.
    9000005    1    3    3    0    0 -0.34394791713E+02 -0.51714405246E+02 -0.32401792859E+03  0.32991817085E+03  0.10000000000E+01 0.  0.
<mgrwt>
<rscale>  0 0.12499973E+03</rscale>
<asrwt>0</asrwt>
<pdfrwt beam="1">  1        4 0.10207016E-02 0.12499973E+03</pdfrwt>
<pdfrwt beam="2">  1       -4 0.90580074E-01 0.12499973E+03</pdfrwt>
<totfact> 0.49159235E+03</totfact>
</mgrwt>
</event>
<event>
 5    1  0.3259432E-002  0.1249892E+03  0.7818608E-02  0.1235086E+00
          4   -1    0    0  501    0  0.00000000000E+00  0.00000000000E+00  0.18036554990E+03  0.18037002104E+03  0.12700000000E+01 0.  1.
         -4   -1    0    0    0  501 -0.00000000000E+00 -0.00000000000E+00 -0.21630304284E+02  0.21667555548E+02  0.12700000000E+01 0.  1.
         25    2    1    2    0    0  0.00000000000E+00  0.00000000000E+00  0.15873524562E+03  0.20203757659E+03  0.12498921615E+03 0.  0.
    9000005    1    3    3    0    0 -0.16663423255E+02 -0.13344088413E+02  0.17429603890E+03  0.17560137683E+03  0.10000000000E+01 0.  0.
    9000005    1    3    3    0    0  0.16663423255E+02  0.13344088413E+02 -0.15560793281E+02  0.26436199759E+02  0.10000000000E+01 0.  0.
<mgrwt>
<rscale>  0 0.12498922E+03</rscale>
<asrwt>0</asrwt>
<pdfrwt beam="1">  1        4 0.27751756E-01 0.12498922E+03</pdfrwt>
<pdfrwt beam="2">  1       -4 0.33309485E-02 0.12498922E+03</pdfrwt>
<totfact> 0.89814654E+03</totfact>
</mgrwt>
</event>
<event>
 5    1  0.3259432E-002  0.1249953E+03  0.7818608E-02  0.1235077E+00
          4   -1    0    0  501    0  0.00000000000E+00  0.00000000000E+00  0.22185628870E+04  0.22185632505E+04  0.12700000000E+01 0. -1.
         -4   -1    0    0    0  501 -0.00000000000E+00 -0.00000000000E+00 -0.15311398447E+01  0.19892936496E+01  0.12700000000E+01 0. -1.
         25    2    1    2    0    0  0.00000000000E+00  0.00000000000E+00  0.22170317471E+04  0.22205525441E+04  0.12499533367E+03 0.  0.
    9000005    1    3    3    0    0 -0.67522617327E+01  0.36230274168E+02  0.20050336884E+04  0.20053726132E+04  0.10000000000E+01 0.  0.
    9000005    1    3    3    0    0  0.67522617327E+01 -0.36230274168E+02  0.21199805867E+03  0.21517993095E+03  0.10000000000E+01 0.  0.
<mgrwt>
<rscale>  0 0.12499533E+03</rscale>
<asrwt>0</asrwt>
<pdfrwt beam="1">  1        4 0.34135200E+00 0.12499533E+03</pdfrwt>
<pdfrwt beam="2">  1       -4 0.27083104E-03 0.12499533E+03</pdfrwt>
<totfact> 0.72510268E+02</totfact>
</mgrwt>
</event>
<event>
 5    1  0.3259432E-002  0.1250017E+03  0.7818608E-02  0.1235067E+00
         -4   -1    0    0    0  501 -0.00000000000E+00  0.00000000000E+00  0.48193250687E+02  0.48209981454E+02  0.12700000000E+01 0. -1.
          4   -1    0    0  501    0  0.00000000000E+00 -0.00000000000E+00 -0.81020265710E+02  0.81030218781E+02  0.12700000000E+01 0. -1.
         25    2    1    2    0    0  0.00000000000E+00  0.00000000000E+00 -0.32827015023E+02  0.12924020024E+03  0.12500166576E+03 0.  0.
    9000005    1    3    3    0    0 -0.35640650422E+02 -0.30782265886E+02  0.26059222725E+02  0.53832025269E+02  0.10000000000E+01 0.  0.
    9000005    1    3    3    0    0  0.35640650422E+02  0.30782265886E+02 -0.58886237748E+02  0.75408174966E+02  0.10000000000E+01 0.  0.
<mgrwt>
<rscale>  0 0.12500167E+03</rscale>
<asrwt>0</asrwt>
<pdfrwt beam="2">  1        4 0.12466709E-01 0.12500167E+03</pdfrwt>
<pdfrwt beam="1">  1       -4 0.74163989E-02 0.12500167E+03</pdfrwt>
<totfact> 0.10360399E+04</totfact>
</mgrwt>
</event>
<event>
 5    1  0.3259432E-002  0.1249974E+03  0.7818608E-02  0.1235073E+00
          4   -1    0    0  501    0  0.00000000000E+00  0.00000000000E+00  0.36470505664E+02  0.36492611353E+02  0.12700000000E+01 0.  1.
         -4   -1    0    0    0  501 -0.00000000000E+00 -0.00000000000E+00 -0.10704434137E+03  0.10705187490E+03  0.12700000000E+01 0.  1.
         25    2    1    2    0    0  0.00000000000E+00  0.00000000000E+00 -0.70573835705E+02  0.14354448625E+03  0.12499741296E+03 0.  0.
    9000005    1    3    3    0    0 -0.19382317386E+02  0.14926142035E+02  0.30748650741E+02  0.39305768861E+02  0.10000000000E+01 0.  0.
    9000005    1    3    3    0    0  0.19382317386E+02 -0.14926142035E+02 -0.10132248645E+03  0.10423871739E+03  0.10000000000E+01 0.  0.
<mgrwt>
<rscale>  0 0.12499741E+03</rscale>
<asrwt>0</asrwt>
<pdfrwt beam="1">  1        4 0.56131270E-02 0.12499741E+03</pdfrwt>
<pdfrwt beam="2">  1       -4 0.16470640E-01 0.12499741E+03</pdfrwt>
<totfact> 0.10061232E+04</totfact>
</mgrwt>
</event>
<event>
 5    1  0.3259432E-002  0.1249991E+03  0.7818608E-02  0.1235071E+00
         -4   -1    0    0    0  501 -0.00000000000E+00  0.00000000000E+00  0.31270480878E+02  0.31296259750E+02  0.12700000000E+01 0. -1.
          4   -1    0    0  501    0  0.00000000000E+00 -0.00000000000E+00 -0.12483590849E+03  0.12484236840E+03  0.12700000000E+01 0. -1.
         25    2    1    2    0    0  0.00000000000E+00  0.00000000000E+00 -0.93565427612E+02  0.15613862815E+03  0.12499912783E+03 0.  0.
    9000005    1    3    3    0    0 -0.50888715792E+02  0.36172614621E+02 -0.43459955951E+02  0.76078165164E+02  0.10000000000E+01 0.  0.
    9000005    1    3    3    0    0  0.50888715792E+02 -0.36172614621E+02 -0.50105471662E+02  0.80060462988E+02  0.10000000000E+01 0.  0.
<mgrwt>
<rscale>  0 0.12499913E+03</rscale>
<asrwt>0</asrwt>
<pdfrwt beam="2">  1        4 0.19208004E-01 0.12499913E+03</pdfrwt>
<pdfrwt beam="1">  1       -4 0.48133232E-02 0.12499913E+03</pdfrwt>
<totfact> 0.98094359E+03</totfact>
</mgrwt>
</event>
<event>
 5    1  0.3259432E-002  0.1250020E+03  0.7818608E-02  0.1235066E+00
         -4   -1    0    0    0  501 -0.00000000000E+00  0.00000000000E+00  0.45303542202E+01  0.47049983379E+01  0.12700000000E+01 0. -1.
          4   -1    0    0  501    0  0.00000000000E+00 -0.00000000000E+00 -0.84578555069E+03  0.84578650418E+03  0.12700000000E+01 0. -1.
         25    2    1    2    0    0  0.00000000000E+00  0.00000000000E+00 -0.84125519647E+03  0.85049150252E+03  0.12500196107E+03 0.  0.
    9000005    1    3    3    0    0 -0.29402139694E+01 -0.35398875454E+02 -0.70799320971E+02  0.79216596061E+02  0.10000000000E+01 0.  0.
    9000005    1    3    3    0    0  0.29402139694E+01  0.35398875454E+02 -0.77045587550E+03  0.77127490646E+03  0.10000000000E+01 0.  0.
<mgrwt>
<rscale>  0 0.12500196E+03</rscale>
<asrwt>0</asrwt>
<pdfrwt beam="2">  1        4 0.13013424E+00 0.12500196E+03</pdfrwt>
<pdfrwt beam="1">  1       -4 0.71048575E-03 0.12500196E+03</pdfrwt>
<totfact> 0.36105703E+03</totfact>
</mgrwt>
</event>
<event>
 5    1  0.3259432E-002  0.1249993E+03  0.7818608E-02  0.1235070E+00
          4   -1    0    0  501    0  0.00000000000E+00  0.00000000000E+00  0.91886890078E+01  0.92760393316E+01  0.12700000000E+01 0. -1.
         -4   -1    0    0    0  501 -0.00000000000E+00 -0.00000000000E+00 -0.42301113776E+03  0.42301304421E+03  0.12700000000E+01 0. -1.
         25    2    1    2    0    0  0.00000000000E+00  0.00000000000E+00 -0.41382244875E+03  0.43228908354E+03  0.12499933062E+03 0.  0.
    9000005    1    3    3    0    0 -0.39286003307E+02 -0.37399543521E+02 -0.99586316143E+02  0.11340436621E+03  0.10000000000E+01 0.  0.
    9000005    1    3    3    0    0  0.39286003307E+02  0.37399543521E+02 -0.31423613261E+03  0.31888471733E+03  0.10000000000E+01 0.  0.
<mgrwt>
<rscale>  0 0.12499933E+03</rscale>
<asrwt>0</asrwt>
<pdfrwt beam="1">  1        4 0.14205107E-02 0.12499933E+03</pdfrwt>
<pdfrwt beam="2">  1       -4 0.65085488E-01 0.12499933E+03</pdfrwt>
<totfact> 0.61529962E+03</totfact>
</mgrwt>
</event>
<event>
 5    1  0.3259432E-002  0.1250017E+03  0.7818608E-02  0.1235067E+00
          4   -1    0    0  501    0  0.00000000000E+00  0.00000000000E+00  0.17278521284E+02  0.17325131969E+02  0.12700000000E+01 0.  1.
         -4   -1    0    0    0  501 -0.00000000000E+00 -0.00000000000E+00 -0.22572877298E+03  0.22573234560E+03  0.12700000000E+01 0.  1.
         25    2    1    2    0    0  0.00000000000E+00  0.00000000000E+00 -0.20845025169E+03  0.24305747757E+03  0.12500171987E+03 0.  0.
    9000005    1    3    3    0    0  0.35249757512E+02 -0.29145331029E+02 -0.18702605791E+03  0.19254023492E+03  0.10000000000E+01 0.  0.
    9000005    1    3    3    0    0 -0.35249757512E+02  0.29145331029E+02 -0.21424193780E+02  0.50517242646E+02  0.10000000000E+01 0.  0.
<mgrwt>
<rscale>  0 0.12500172E+03</rscale>
<asrwt>0</asrwt>
<pdfrwt beam="1">  1        4 0.26620945E-02 0.12500172E+03</pdfrwt>
<pdfrwt beam="2">  1       -4 0.34731362E-01 0.12500172E+03</pdfrwt>
<totfact> 0.83340913E+03</totfact>
</mgrwt>
</event>
<event>
 5    1  0.3259432E-002  0.1250003E+03  0.7818608E-02  0.1235069E+00
          4   -1    0    0  501    0  0.00000000000E+00  0.00000000000E+00  0.35179732884E+02  0.35202649130E+02  0.12700000000E+01 0. -1.
         -4   -1    0    0    0  501 -0.00000000000E+00 -0.00000000000E+00 -0.11097485030E+03  0.11098211702E+03  0.12700000000E+01 0. -1.
         25    2    1    2    0    0  0.00000000000E+00  0.00000000000E+00 -0.75795117414E+02  0.14618476615E+03  0.12500034412E+03 0.  0.
    9000005    1    3    3    0    0 -0.50559598882E+02  0.15136927146E+02  0.12383194673E+01  0.52800881031E+02  0.10000000000E+01 0.  0.
    9000005    1    3    3    0    0  0.50559598882E+02 -0.15136927146E+02 -0.77033436881E+02  0.93383885121E+02  0.10000000000E+01 0.  0.
<mgrwt>
<rscale>  0 0.12500034E+03</rscale>
<asrwt>0</asrwt>
<pdfrwt beam="1">  1        4 0.54145884E-02 0.12500034E+03</pdfrwt>
<pdfrwt beam="2">  1       -4 0.17075376E-01 0.12500034E+03</pdfrwt>
<totfact> 0.10006894E+04</totfact>
</mgrwt>
</event>
<event>
 5    1  0.3259432E-002  0.1250119E+03  0.7818608E-02  0.1235051E+00
         -4   -1    0    0    0  501 -0.00000000000E+00  0.00000000000E+00  0.69786284379E+01  0.70932471319E+01  0.12700000000E+01 0.  1.
          4   -1    0    0  501    0  0.00000000000E+00 -0.00000000000E+00 -0.55517605136E+03  0.55517750396E+03  0.12700000000E+01 0.  1.
         25    2    1    2    0    0  0.00000000000E+00  0.00000000000E+00 -0.54819742292E+03  0.56227075109E+03  0.12501193157E+03 0.  0.
    9000005    1    3    3    0    0 -0.55154390565E+02 -0.37719444929E+00 -0.14190452324E+03  0.15224993527E+03  0.10000000000E+01 0.  0.
    9000005    1    3    3    0    0  0.55154390565E+02  0.37719444929E+00 -0.40629289968E+03  0.41002081582E+03  0.10000000000E+01 0.  0.
<mgrwt>
<rscale>  0 0.12501193E+03</rscale>
<asrwt>0</asrwt>
<pdfrwt beam="2">  1        4 0.85420594E-01 0.12501193E+03</pdfrwt>
<pdfrwt beam="1">  1       -4 0.10825641E-02 0.12501193E+03</pdfrwt>
<totfact> 0.51325790E+03</totfact>
</mgrwt>
</event>
<event>
 5    1  0.3259432E-002  0.1250033E+03  0.7818608E-02  0.1235064E+00
          4   -1    0    0  501    0  0.00000000000E+00  0.00000000000E+00  0.37218824288E+01  0.39325956840E+01  0.12700000000E+01 0.  1.
         -4   -1    0    0    0  501 -0.00000000000E+00 -0.00000000000E+00 -0.10204876581E+04  0.10204884484E+04  0.12700000000E+01 0.  1.
         25    2    1    2    0    0  0.00000000000E+00  0.00000000000E+00 -0.10167657757E+04  0.10244210440E+04  0.12500333156E+03 0.  0.
    9000005    1    3    3    0    0 -0.29972245416E+02  0.37872897760E+02 -0.83338711312E+03  0.83478606373E+03  0.10000000000E+01 0.  0.
    9000005    1    3    3    0    0  0.29972245416E+02 -0.37872897760E+02 -0.18337866256E+03  0.18963498032E+03  0.10000000000E+01 0.  0.
<mgrwt>
<rscale>  0 0.12500333E+03</rscale>
<asrwt>0</asrwt>
<pdfrwt beam="1">  1        4 0.58886761E-03 0.12500333E+03</pdfrwt>
<pdfrwt beam="2">  1       -4 0.15701415E+00 0.12500333E+03</pdfrwt>
<totfact> 0.29804946E+03</totfact>
</mgrwt>
</event>
<event>
 4    1  0.3259432E-002  0.1250895E+03  0.7818608E-02  0.1234930E+00
         -4   -1    0    0    0  501 -0.00000000000E+00  0.00000000000E+00  0.11245974645E+03  0.11246691724E+03  0.12700000000E+01 0. -1.
          4   -1    0    0  501    0  0.00000000000E+00 -0.00000000000E+00 -0.34764522346E+02  0.34787712111E+02  0.12700000000E+01 0. -1.
    9000005    1    1    2    0    0  0.22689958774E+02 -0.50205294886E+02  0.73678217637E+02  0.92004813014E+02  0.10000000000E+01 0.  0.
    9000005    1    1    2    0    0 -0.22689958774E+02  0.50205294886E+02  0.40170064710E+01  0.55249816332E+02  0.10000000000E+01 0.  0.
<mgrwt>
<rscale>  0 0.12508948E+03</rscale>
<asrwt>0</asrwt>
<pdfrwt beam="2">  1        4 0.53507234E-02 0.12508948E+03</pdfrwt>
<pdfrwt beam="1">  1       -4 0.17303835E-01 0.12508948E+03</pdfrwt>
<totfact> 0.99652908E+03</totfact>
</mgrwt>
</event>
<event>
 5    1  0.3259432E-002  0.1250034E+03  0.7818608E-02  0.1235064E+00
         -4   -1    0    0    0  501 -0.00000000000E+00  0.00000000000E+00  0.90945719840E+02  0.90954586785E+02  0.12700000000E+01 0. -1.
          4   -1    0    0  501    0  0.00000000000E+00 -0.00000000000E+00 -0.42933417434E+02  0.42952197063E+02  0.12700000000E+01 0. -1.
         25    2    1    2    0    0  0.00000000000E+00  0.00000000000E+00  0.48012302407E+02  0.13390678385E+03  0.12500338227E+03 0.  0.
    9000005    1    3    3    0    0 -0.21255120838E+02  0.30483968761E+02 -0.29815952044E+02  0.47655466733E+02  0.10000000000E+01 0.  0.
    9000005    1    3    3    0    0  0.21255120838E+02 -0.30483968761E+02  0.77828254450E+02  0.86251317115E+02  0.10000000000E+01 0.  0.
<mgrwt>
<rscale>  0 0.12500338E+03</rscale>
<asrwt>0</asrwt>
<pdfrwt beam="2">  1        4 0.66072678E-02 0.12500338E+03</pdfrwt>
<pdfrwt beam="1">  1       -4 0.13993776E-01 0.12500338E+03</pdfrwt>
<totfact> 0.10260382E+04</totfact>
</mgrwt>
</event>
<event>
 5    1  0.3259432E-002  0.1249942E+03  0.7818608E-02  0.1235078E+00
          4   -1    0    0  501    0  0.00000000000E+00  0.00000000000E+00  0.27719732904E+02  0.27748810646E+02  0.12700000000E+01 0. -1.
         -4   -1    0    0    0  501 -0.00000000000E+00 -0.00000000000E+00 -0.14080068292E+03  0.14080641040E+03  0.12700000000E+01 0. -1.
         25    2    1    2    0    0  0.00000000000E+00  0.00000000000E+00 -0.11308095002E+03  0.16855522105E+03  0.12499424501E+03 0.  0.
    9000005    1    3    3    0    0 -0.24650114110E+02  0.20588033750E+02  0.15744804116E+02  0.35782595155E+02  0.10000000000E+01 0.  0.
    9000005    1    3    3    0    0  0.24650114110E+02 -0.20588033750E+02 -0.12882575413E+03  0.13277262590E+03  0.10000000000E+01 0.  0.
<mgrwt>
<rscale>  0 0.12499425E+03</rscale>
<asrwt>0</asrwt>
<pdfrwt beam="1">  1        4 0.42672517E-02 0.12499425E+03</pdfrwt>
<pdfrwt beam="2">  1       -4 0.21664320E-01 0.12499425E+03</pdfrwt>
<totfact> 0.95730665E+03</totfact>
</mgrwt>
</event>
<event>
 5    1  0.3259432E-002  0.1249996E+03  0.7818608E-02  0.1235070E+00
         -4   -1    0    0    0  501 -0.00000000000E+00  0.00000000000E+00  0.15194385759E+04  0.15194391067E+04  0.12700000000E+01 0.  1.
          4   -1    0    0  501    0  0.00000000000E+00 -0.00000000000E+00 -0.24134235605E+01  0.27271804638E+01  0.12700000000E+01 0.  1.
         25    2    1    2    0    0  0.00000000000E+00  0.00000000000E+00  0.15170251523E+04  0.15221662871E+04  0.12499957124E+03 0.  0.
    9000005    1    3    3    0    0 -0.91353486066E+01  0.59705916135E+02  0.95372013751E+03  0.95563138903E+03  0.10000000000E+01 0.  0.
    9000005    1    3    3    0    0  0.91353486066E+01 -0.59705916135E+02  0.56330501484E+03  0.56653489809E+03  0.10000000000E+01 0.  0.
<mgrwt>
<rscale>  0 0.12499957E+03</rscale>
<asrwt>0</asrwt>
<pdfrwt beam="2">  1        4 0.39547067E-03 0.12499957E+03</pdfrwt>
<pdfrwt beam="1">  1       -4 0.23378469E+00 0.12499957E+03</pdfrwt>
<totfact> 0.17498831E+03</totfact>
</mgrwt>
</event>
<event>
 5    1  0.3259432E-002  0.1249990E+03  0.7818608E-02  0.1235071E+00
          4   -1    0    0  501    0  0.00000000000E+00  0.00000000000E+00  0.56098566252E+02  0.56112940001E+02  0.12700000000E+01 0.  1.
         -4   -1    0    0    0  501 -0.00000000000E+00 -0.00000000000E+00 -0.69601732214E+02  0.69613317887E+02  0.12700000000E+01 0.  1.
         25    2    1    2    0    0  0.00000000000E+00  0.00000000000E+00 -0.13503165962E+02  0.12572625789E+03  0.12499902572E+03 0.  0.
    9000005    1    3    3    0    0  0.24003173742E+02  0.30540641573E+02  0.42485293752E+02  0.57575023427E+02  0.10000000000E+01 0.  0.
    9000005    1    3    3    0    0 -0.24003173742E+02 -0.30540641573E+02 -0.55988459714E+02  0.68151234461E+02  0.10000000000E+01 0.  0.
<mgrwt>
<rscale>  0 0.12499903E+03</rscale>
<asrwt>0</asrwt>
<pdfrwt beam="1">  1        4 0.86325455E-02 0.12499903E+03</pdfrwt>
<pdfrwt beam="2">  1       -4 0.10709956E-01 0.12499903E+03</pdfrwt>
<totfact> 0.10437196E+04</totfact>
</mgrwt>
</event>
<event>
 5    1  0.3259432E-002  0.1249976E+03  0.7818608E-02  0.1235073E+00
         -4   -1    0    0    0  501 -0.00000000000E+00  0.00000000000E+00  0.78931780071E+02  0.78941996461E+02  0.12700000000E+01 0. -1.
          4   -1    0    0  501    0  0.00000000000E+00 -0.00000000000E+00 -0.49465444324E+02  0.49481744939E+02  0.12700000000E+01 0. -1.
         25    2    1    2    0    0  0.00000000000E+00  0.00000000000E+00  0.29466335747E+02  0.12842374140E+03  0.12499756963E+03 0.  0.
    9000005    1    3    3    0    0 -0.59842062740E+02  0.12493151674E+02  0.14185224656E+01  0.61156876291E+02  0.10000000000E+01 0.  0.
    9000005    1    3    3    0    0  0.59842062740E+02 -0.12493151674E+02  0.28047813282E+02  0.67266865109E+02  0.10000000000E+01 0.  0.
<mgrwt>
<rscale>  0 0.12499757E+03</rscale>
<asrwt>0</asrwt>
<pdfrwt beam="2">  1        4 0.76121082E-02 0.12499757E+03</pdfrwt>
<pdfrwt beam="1">  1       -4 0.12145390E-01 0.12499757E+03</pdfrwt>
<totfact> 0.10378916E+04</totfact>
</mgrwt>
</event>
<event>
 5    1  0.3259432E-002  0.1250172E+03  0.7818608E-02  0.1235042E+00
         -4   -1    0    0    0  501 -0.00000000000E+00  0.00000000000E+00  0.39029849660E+02  0.39050506584E+02  0.12700000000E+01 0. -1.
          4   -1    0    0  501    0  0.00000000000E+00 -0.00000000000E+00 -0.10005995000E+03  0.10006800934E+03  0.12700000000E+01 0. -1.
         25    2    1    2    0    0  0.00000000000E+00  0.00000000000E+00 -0.61030100336E+02  0.13911851592E+03  0.12501715213E+03 0.  0.
    9000005    1    3    3    0    0 -0.68938230689E+01  0.27580161963E+02 -0.92454207118E+02  0.96731435139E+02  0.10000000000E+01 0.  0.
    9000005    1    3    3    0    0  0.68938230689E+01 -0.27580161963E+02  0.31424106782E+02  0.42387080784E+02  0.10000000000E+01 0.  0.
<mgrwt>
<rscale>  0 0.12501715E+03</rscale>
<asrwt>0</asrwt>
<pdfrwt beam="2">  1        4 0.15396047E-01 0.12501715E+03</pdfrwt>
<pdfrwt beam="1">  1       -4 0.60068012E-02 0.12501715E+03</pdfrwt>
<totfact> 0.10147965E+04</totfact>
</mgrwt>
</event>
<event>
 5    1  0.3259432E-002  0.1250058E+03  0.7818608E-02  0.1235060E+00
         -4   -1    0    0    0  501 -0.00000000000E+00  0.00000000000E+00  0.18121557155E+03  0.18122002172E+03  0.12700000000E+01 0. -1.
          4   -1    0    0  501    0  0.00000000000E+00 -0.00000000000E+00 -0.21534385312E+02  0.21571802215E+02  0.12700000000E+01 0. -1.
         25    2    1    2    0    0  0.00000000000E+00  0.00000000000E+00  0.15968118624E+03  0.20279182393E+03  0.12500577033E+03 0.  0.
    9000005    1    3    3    0    0  0.52836836478E+02  0.21462444871E+01  0.25810016588E+02  0.58851462265E+02  0.10000000000E+01 0.  0.
    9000005    1    3    3    0    0 -0.52836836478E+02 -0.21462444871E+01  0.13387116965E+03  0.14394036167E+03  0.10000000000E+01 0.  0.
<mgrwt>
<rscale>  0 0.12500577E+03</rscale>
<asrwt>0</asrwt>
<pdfrwt beam="2">  1        4 0.33162028E-02 0.12500577E+03</pdfrwt>
<pdfrwt beam="1">  1       -4 0.27882540E-01 0.12500577E+03</pdfrwt>
<totfact> 0.89655194E+03</totfact>
</mgrwt>
</event>
<event>
 5    1  0.3259432E-002  0.1250013E+03  0.7818608E-02  0.1235067E+00
         -4   -1    0    0    0  501 -0.00000000000E+00  0.00000000000E+00  0.72938140393E+02  0.72949196185E+02  0.12700000000E+01 0. -1.
          4   -1    0    0  501    0  0.00000000000E+00 -0.00000000000E+00 -0.53534124614E+02  0.53549186719E+02  0.12700000000E+01 0. -1.
         25    2    1    2    0    0  0.00000000000E+00  0.00000000000E+00  0.19404015779E+02  0.12649838290E+03  0.12500130019E+03 0.  0.
    9000005    1    3    3    0    0 -0.44001800614E+02 -0.70441571941E+01 -0.34635416229E+02  0.56448123664E+02  0.10000000000E+01 0.  0.
    9000005    1    3    3    0    0  0.44001800614E+02  0.70441571941E+01  0.54039432008E+02  0.70050259240E+02  0.10000000000E+01 0.  0.
<mgrwt>
<rscale>  0 0.12500130E+03</rscale>
<asrwt>0</asrwt>
<pdfrwt beam="2">  1        4 0.82380283E-02 0.12500130E+03</pdfrwt>
<pdfrwt beam="1">  1       -4 0.11223261E-01 0.12500130E+03</pdfrwt>
<totfact> 0.10419758E+04</totfact>
</mgrwt>
</event>
<event>
 5    1  0.3259432E-002  0.1250198E+03  0.7818608E-02  0.1235038E+00
         -4   -1    0    0    0  501 -0.00000000000E+00  0.00000000000E+00  0.27223319988E+02  0.27252927387E+02  0.12700000000E+01 0.  1.
          4   -1    0    0  501    0  0.00000000000E+00 -0.00000000000E+00 -0.14342407735E+03  0.14342970008E+03  0.12700000000E+01 0.  1.
         25    2    1    2    0    0  0.00000000000E+00  0.00000000000E+00 -0.11620075736E+03  0.17068262746E+03  0.12501977166E+03 0.  0.
    9000005    1    3    3    0    0 -0.58079127113E+02  0.19127962903E+02 -0.40435254540E+02  0.73314894672E+02  0.10000000000E+01 0.  0.
    9000005    1    3    3    0    0  0.58079127113E+02 -0.19127962903E+02 -0.75765502823E+02  0.97367732792E+02  0.10000000000E+01 0.  0.
<mgrwt>
<rscale>  0 0.12501977E+03</rscale>
<asrwt>0</asrwt>
<pdfrwt beam="2">  1        4 0.22067952E-01 0.12501977E+03</pdfrwt>
<pdfrwt beam="1">  1       -4 0.41909132E-02 0.12501977E+03</pdfrwt>
<totfact> 0.95279271E+03</totfact>
</mgrwt>
</event>
<event>
 5    1  0.3259432E-002  0.1249980E+03  0.7818608E-02  0.1235072E+00
          4   -1    0    0  501    0  0.00000000000E+00  0.00000000000E+00  0.71293790338E+02  0.71305101086E+02  0.12700000000E+01 0.  1.
         -4   -1    0    0    0  501 -0.00000000000E+00 -0.00000000000E+00 -0.54766124132E+02  0.54780847497E+02  0.12700000000E+01 0.  1.
         25    2    1    2    0    0  0.00000000000E+00  0.00000000000E+00  0.16527666206E+02  0.12608594858E+03  0.12499801070E+03 0.  0.
    9000005    1    3    3    0    0 -0.17040509732E+01 -0.53892657136E+02 -0.23599123759E+02  0.58866297022E+02  0.10000000000E+01 0.  0.
    9000005    1    3    3    0    0  0.17040509732E+01  0.53892657136E+02  0.40126789965E+02  0.67219651560E+02  0.10000000000E+01 0.  0.
<mgrwt>
<rscale>  0 0.12499801E+03</rscale>
<asrwt>0</asrwt>
<pdfrwt beam="1">  1        4 0.10970278E-01 0.12499801E+03</pdfrwt>
<pdfrwt beam="2">  1       -4 0.84275602E-02 0.12499801E+03</pdfrwt>
<totfact> 0.10429542E+04</totfact>
</mgrwt>
</event>
<event>
 5    1  0.3259432E-002  0.1249993E+03  0.7818608E-02  0.1235070E+00
         -4   -1    0    0    0  501 -0.00000000000E+00  0.00000000000E+00  0.17305237400E+02  0.17351776321E+02  0.12700000000E+01 0. -1.
          4   -1    0    0  501    0  0.00000000000E+00 -0.00000000000E+00 -0.22537256603E+03  0.22537614430E+03  0.12700000000E+01 0. -1.
         25    2    1    2    0    0  0.00000000000E+00  0.00000000000E+00 -0.20806732863E+03  0.24272792062E+03  0.12499932082E+03 0.  0.
    9000005    1    3    3    0    0  0.13649541026E+02 -0.50314221119E+02 -0.17094602461E+03  0.17872149884E+03  0.10000000000E+01 0.  0.
    9000005    1    3    3    0    0 -0.13649541026E+02  0.50314221119E+02 -0.37121304019E+02  0.64006421780E+02  0.10000000000E+01 0.  0.
<mgrwt>
<rscale>  0 0.12499932E+03</rscale>
<asrwt>0</asrwt>
<pdfrwt beam="2">  1        4 0.34676556E-01 0.12499932E+03</pdfrwt>
<pdfrwt beam="1">  1       -4 0.26661995E-02 0.12499932E+03</pdfrwt>
<totfact> 0.83394026E+03</totfact>
</mgrwt>
</event>
<event>
 5    1  0.3259432E-002  0.1250001E+03  0.7818608E-02  0.1235069E+00
         -4   -1    0    0    0  501 -0.00000000000E+00  0.00000000000E+00  0.18161978719E+03  0.18162422746E+03  0.12700000000E+01 0. -1.
          4   -1    0    0  501    0  0.00000000000E+00 -0.00000000000E+00 -0.21484413075E+02  0.21521916856E+02  0.12700000000E+01 0. -1.
         25    2    1    2    0    0  0.00000000000E+00  0.00000000000E+00  0.16013537412E+03  0.20314614432E+03  0.12500007162E+03 0.  0.
    9000005    1    3    3    0    0  0.28570469983E+02  0.29950137387E+02  0.39797477327E+01  0.41594721739E+02  0.10000000000E+01 0.  0.
    9000005    1    3    3    0    0 -0.28570469983E+02 -0.29950137387E+02  0.15615562639E+03  0.16155142258E+03  0.10000000000E+01 0.  0.
<mgrwt>
<rscale>  0 0.12500007E+03</rscale>
<asrwt>0</asrwt>
<pdfrwt beam="2">  1        4 0.33085206E-02 0.12500007E+03</pdfrwt>
<pdfrwt beam="1">  1       -4 0.27944734E-01 0.12500007E+03</pdfrwt>
<totfact> 0.89607438E+03</totfact>
</mgrwt>
</event>
<event>
 5    1  0.3259432E-002  0.1250015E+03  0.7818608E-02  0.1235067E+00
          4   -1    0    0  501    0  0.00000000000E+00  0.00000000000E+00  0.10944345107E+03  0.10945081947E+03  0.12700000000E+01 0. -1.
         -4   -1    0    0    0  501 -0.00000000000E+00 -0.00000000000E+00 -0.35672934232E+02  0.35695533848E+02  0.12700000000E+01 0. -1.
         25    2    1    2    0    0  0.00000000000E+00  0.00000000000E+00  0.73770516843E+02  0.14514635332E+03  0.12500149890E+03 0.  0.
    9000005    1    3    3    0    0  0.58038456707E+02  0.20388721472E+02  0.24102969113E+02  0.66076588443E+02  0.10000000000E+01 0.  0.
    9000005    1    3    3    0    0 -0.58038456707E+02 -0.20388721472E+02  0.49667547730E+02  0.79069764877E+02  0.10000000000E+01 0.  0.
<mgrwt>
<rscale>  0 0.12500150E+03</rscale>
<asrwt>0</asrwt>
<pdfrwt beam="1">  1        4 0.16839759E-01 0.12500150E+03</pdfrwt>
<pdfrwt beam="2">  1       -4 0.54904491E-02 0.12500150E+03</pdfrwt>
<totfact> 0.10027677E+04</totfact>
</mgrwt>
</event>
<event>
 5    1  0.3259432E-002  0.1250018E+03  0.7818608E-02  0.1235066E+00
         -4   -1    0    0    0  501 -0.00000000000E+00  0.00000000000E+00  0.13444387658E+04  0.13444393656E+04  0.12700000000E+01 0. -1.
          4   -1    0    0  501    0  0.00000000000E+00 -0.00000000000E+00 -0.27661648179E+01  0.30437752545E+01  0.12700000000E+01 0. -1.
         25    2    1    2    0    0  0.00000000000E+00  0.00000000000E+00  0.13416726009E+04  0.13474831409E+04  0.12500178707E+03 0.  0.
    9000005    1    3    3    0    0 -0.15875529898E+02  0.60109112814E+02  0.60246896299E+03  0.60566904268E+03  0.10000000000E+01 0.  0.
    9000005    1    3    3    0    0  0.15875529898E+02 -0.60109112814E+02  0.73920363796E+03  0.74181409819E+03  0.10000000000E+01 0.  0.
<mgrwt>
<rscale>  0 0.12500179E+03</rscale>
<asrwt>0</asrwt>
<pdfrwt beam="2">  1        4 0.44696507E-03 0.12500179E+03</pdfrwt>
<pdfrwt beam="1">  1       -4 0.20685792E+00 0.12500179E+03</pdfrwt>
<totfact> 0.21133979E+03</totfact>
</mgrwt>
</event>
<event>
 5    1  0.3259432E-002  0.1249762E+03  0.7818608E-02  0.1235106E+00
         -4   -1    0    0    0  501 -0.00000000000E+00  0.00000000000E+00  0.13298065231E+04  0.13298071295E+04  0.12700000000E+01 0. -1.
          4   -1    0    0  501    0  0.00000000000E+00 -0.00000000000E+00 -0.27983809961E+01  0.30730825240E+01  0.12700000000E+01 0. -1.
         25    2    1    2    0    0  0.00000000000E+00  0.00000000000E+00  0.13270081421E+04  0.13328802121E+04  0.12497619976E+03 0.  0.
    9000005    1    3    3    0    0 -0.47096261991E+02 -0.32070004666E+02  0.93691699371E+03  0.93864849448E+03  0.10000000000E+01 0.  0.
    9000005    1    3    3    0    0  0.47096261991E+02  0.32070004666E+02  0.39009114840E+03  0.39423171759E+03  0.10000000000E+01 0.  0.
<mgrwt>
<rscale>  0 0.12497620E+03</rscale>
<asrwt>0</asrwt>
<pdfrwt beam="2">  1        4 0.45169684E-03 0.12497620E+03</pdfrwt>
<pdfrwt beam="1">  1       -4 0.20460718E+00 0.12497620E+03</pdfrwt>
<totfact> 0.21476634E+03</totfact>
</mgrwt>
</event>
<event>
 5    1  0.3259432E-002  0.1249992E+03  0.7818608E-02  0.1235071E+00
         -4   -1    0    0    0  501 -0.00000000000E+00  0.00000000000E+00  0.84987665282E+02  0.84997153776E+02  0.12700000000E+01 0. -1.
          4   -1    0    0  501    0  0.00000000000E+00 -0.00000000000E+00 -0.45941129190E+02  0.45958679825E+02  0.12700000000E+01 0. -1.
         25    2    1    2    0    0  0.00000000000E+00  0.00000000000E+00  0.39046536091E+02  0.13095583360E+03  0.12499919349E+03 0.  0.
    9000005    1    3    3    0    0  0.57146577544E+02  0.24097651531E+02  0.27554845922E+02  0.67872657736E+02  0.10000000000E+01 0.  0.
    9000005    1    3    3    0    0 -0.57146577544E+02 -0.24097651531E+02  0.11491690170E+02  0.63083175866E+02  0.10000000000E+01 0.  0.
<mgrwt>
<rscale>  0 0.12499919E+03</rscale>
<asrwt>0</asrwt>
<pdfrwt beam="2">  1        4 0.70699459E-02 0.12499919E+03</pdfrwt>
<pdfrwt beam="1">  1       -4 0.13077105E-01 0.12499919E+03</pdfrwt>
<totfact> 0.10324224E+04</totfact>
</mgrwt>
</event>
<event>
 5    1  0.3259432E-002  0.1250026E+03  0.7818608E-02  0.1235065E+00
         -4   -1    0    0    0  501 -0.00000000000E+00  0.00000000000E+00  0.48807469712E+02  0.48823990002E+02  0.12700000000E+01 0.  1.
          4   -1    0    0  501    0  0.00000000000E+00 -0.00000000000E+00 -0.80002051226E+02  0.80012130957E+02  0.12700000000E+01 0.  1.
         25    2    1    2    0    0  0.00000000000E+00  0.00000000000E+00 -0.31194581514E+02  0.12883612096E+03  0.12500257657E+03 0.  0.
    9000005    1    3    3    0    0  0.48905268107E+02  0.35361140723E+02 -0.32320665096E+02  0.68467225109E+02  0.10000000000E+01 0.  0.
    9000005    1    3    3    0    0 -0.48905268107E+02 -0.35361140723E+02  0.11260835826E+01  0.60368895850E+02  0.10000000000E+01 0.  0.
<mgrwt>
<rscale>  0 0.12500258E+03</rscale>
<asrwt>0</asrwt>
<pdfrwt beam="2">  1        4 0.12310054E-01 0.12500258E+03</pdfrwt>
<pdfrwt beam="1">  1       -4 0.75108876E-02 0.12500258E+03</pdfrwt>
<totfact> 0.10368866E+04</totfact>
</mgrwt>
</event>
<event>
 5    1  0.3259432E-002  0.1249970E+03  0.7818608E-02  0.1235074E+00
          4   -1    0    0  501    0  0.00000000000E+00  0.00000000000E+00  0.34163574051E+01  0.36447767997E+01  0.12700000000E+01 0.  1.
         -4   -1    0    0    0  501 -0.00000000000E+00 -0.00000000000E+00 -0.11061260426E+04  0.11061267717E+04  0.12700000000E+01 0.  1.
         25    2    1    2    0    0  0.00000000000E+00  0.00000000000E+00 -0.11027096852E+04  0.11097715485E+04  0.12499695990E+03 0.  0.
    9000005    1    3    3    0    0 -0.59328752163E+02  0.19282826914E+02 -0.51893747856E+03  0.52267469319E+03  0.10000000000E+01 0.  0.
    9000005    1    3    3    0    0  0.59328752163E+02 -0.19282826914E+02 -0.58377220666E+03  0.58709685531E+03  0.10000000000E+01 0.  0.
<mgrwt>
<rscale>  0 0.12499696E+03</rscale>
<asrwt>0</asrwt>
<pdfrwt beam="1">  1        4 0.54322113E-03 0.12499696E+03</pdfrwt>
<pdfrwt beam="2">  1       -4 0.17019059E+00 0.12499696E+03</pdfrwt>
<totfact> 0.27201011E+03</totfact>
</mgrwt>
</event>
<event>
 5    1  0.3259432E-002  0.1250160E+03  0.7818608E-02  0.1235044E+00
         -4   -1    0    0    0  501 -0.00000000000E+00  0.00000000000E+00  0.91587716572E+02  0.91596521369E+02  0.12700000000E+01 0.  1.
          4   -1    0    0  501    0  0.00000000000E+00 -0.00000000000E+00 -0.42640954375E+02  0.42659862752E+02  0.12700000000E+01 0.  1.
         25    2    1    2    0    0  0.00000000000E+00  0.00000000000E+00  0.48946762197E+02  0.13425638412E+03  0.12501596357E+03 0.  0.
    9000005    1    3    3    0    0 -0.26845027616E+02 -0.41861465325E+02 -0.16182594645E+02  0.52305966737E+02  0.10000000000E+01 0.  0.
    9000005    1    3    3    0    0  0.26845027616E+02  0.41861465325E+02  0.65129356842E+02  0.81950417384E+02  0.10000000000E+01 0.  0.
<mgrwt>
<rscale>  0 0.12501596E+03</rscale>
<asrwt>0</asrwt>
<pdfrwt beam="2">  1        4 0.65622787E-02 0.12501596E+03</pdfrwt>
<pdfrwt beam="1">  1       -4 0.14092550E-01 0.12501596E+03</pdfrwt>
<totfact> 0.10250077E+04</totfact>
</mgrwt>
</event>
<event>
 5    1  0.3259432E-002  0.1249692E+03  0.7818608E-02  0.1235117E+00
          4   -1    0    0  501    0  0.00000000000E+00  0.00000000000E+00  0.15449844680E+02  0.15501954736E+02  0.12700000000E+01 0.  1.
         -4   -1    0    0    0  501 -0.00000000000E+00 -0.00000000000E+00 -0.25223070466E+03  0.25223390191E+03  0.12700000000E+01 0.  1.
         25    2    1    2    0    0  0.00000000000E+00  0.00000000000E+00 -0.23678085998E+03  0.26773585664E+03  0.12496924934E+03 0.  0.
    9000005    1    3    3    0    0 -0.14710617018E+02 -0.60064359694E+02 -0.99324298980E+02  0.11700617901E+03  0.10000000000E+01 0.  0.
    9000005    1    3    3    0    0  0.14710617018E+02  0.60064359694E+02 -0.13745656100E+03  0.15072967763E+03  0.10000000000E+01 0.  0.
<mgrwt>
<rscale>  0 0.12496925E+03</rscale>
<asrwt>0</asrwt>
<pdfrwt beam="1">  1        4 0.23811538E-02 0.12496925E+03</pdfrwt>
<pdfrwt beam="2">  1       -4 0.38808975E-01 0.12496925E+03</pdfrwt>
<totfact> 0.79887194E+03</totfact>
</mgrwt>
</event>
<event>
 5    1  0.3259432E-002  0.1249996E+03  0.7818608E-02  0.1235070E+00
          4   -1    0    0  501    0  0.00000000000E+00  0.00000000000E+00  0.65368414334E+02  0.65380750168E+02  0.12700000000E+01 0. -1.
         -4   -1    0    0    0  501 -0.00000000000E+00 -0.00000000000E+00 -0.59732384884E+02  0.59745884410E+02  0.12700000000E+01 0. -1.
         25    2    1    2    0    0  0.00000000000E+00  0.00000000000E+00  0.56360294501E+01  0.12512663458E+03  0.12499963941E+03 0.  0.
    9000005    1    3    3    0    0 -0.56928279909E+02 -0.26586574720E+01  0.28482509192E+02  0.63719312950E+02  0.10000000000E+01 0.  0.
    9000005    1    3    3    0    0  0.56928279909E+02  0.26586574720E+01 -0.22846479742E+02  0.61407321628E+02  0.10000000000E+01 0.  0.
<mgrwt>
<rscale>  0 0.12499964E+03</rscale>
<asrwt>0</asrwt>
<pdfrwt beam="1">  1        4 0.10058666E-01 0.12499964E+03</pdfrwt>
<pdfrwt beam="2">  1       -4 0.91915851E-02 0.12499964E+03</pdfrwt>
<totfact> 0.10450198E+04</totfact>
</mgrwt>
</event>
<event>
 5    1  0.3259432E-002  0.1250001E+03  0.7818608E-02  0.1235069E+00
         -4   -1    0    0    0  501 -0.00000000000E+00  0.00000000000E+00  0.64300470069E+02  0.64313010745E+02  0.12700000000E+01 0. -1.
          4   -1    0    0  501    0  0.00000000000E+00 -0.00000000000E+00 -0.60724973888E+02  0.60738252805E+02  0.12700000000E+01 0. -1.
         25    2    1    2    0    0  0.00000000000E+00  0.00000000000E+00  0.35754961806E+01  0.12505126355E+03  0.12500013737E+03 0.  0.
    9000005    1    3    3    0    0  0.29187145192E+02 -0.47766292284E+02 -0.26004011434E+02  0.61731003019E+02  0.10000000000E+01 0.  0.
    9000005    1    3    3    0    0 -0.29187145192E+02  0.47766292284E+02  0.29579507614E+02  0.63320260531E+02  0.10000000000E+01 0.  0.
<mgrwt>
<rscale>  0 0.12500014E+03</rscale>
<asrwt>0</asrwt>
<pdfrwt beam="2">  1        4 0.93442898E-02 0.12500014E+03</pdfrwt>
<pdfrwt beam="1">  1       -4 0.98943661E-02 0.12500014E+03</pdfrwt>
<totfact> 0.10451717E+04</totfact>
</mgrwt>
</event>
<event>
 5    1  0.3259432E-002  0.1250029E+03  0.7818608E-02  0.1235065E+00
         -4   -1    0    0    0  501 -0.00000000000E+00  0.00000000000E+00  0.19203454127E+03  0.19203874073E+03  0.12700000000E+01 0.  1.
          4   -1    0    0  501    0  0.00000000000E+00 -0.00000000000E+00 -0.20318090120E+02  0.20357742658E+02  0.12700000000E+01 0.  1.
         25    2    1    2    0    0  0.00000000000E+00  0.00000000000E+00  0.17171645115E+03  0.21239648338E+03  0.12500290620E+03 0.  0.
    9000005    1    3    3    0    0 -0.13162849461E+02 -0.57977429290E+02  0.11857650617E+03  0.13265003102E+03  0.10000000000E+01 0.  0.
    9000005    1    3    3    0    0  0.13162849461E+02  0.57977429290E+02  0.53139944973E+02  0.79746452365E+02  0.10000000000E+01 0.  0.
<mgrwt>
<rscale>  0 0.12500291E+03</rscale>
<asrwt>0</asrwt>
<pdfrwt beam="2">  1        4 0.31292331E-02 0.12500291E+03</pdfrwt>
<pdfrwt beam="1">  1       -4 0.29547150E-01 0.12500291E+03</pdfrwt>
<totfact> 0.88080270E+03</totfact>
</mgrwt>
</event>
<event>
 5    1  0.3259432E-002  0.1249608E+03  0.7818608E-02  0.1235131E+00
         -4   -1    0    0    0  501 -0.00000000000E+00  0.00000000000E+00  0.12491859169E+02  0.12556251252E+02  0.12700000000E+01 0.  1.
          4   -1    0    0  501    0  0.00000000000E+00 -0.00000000000E+00 -0.31163858335E+03  0.31164117112E+03  0.12700000000E+01 0.  1.
         25    2    1    2    0    0  0.00000000000E+00  0.00000000000E+00 -0.29914672419E+03  0.32419742237E+03  0.12496081818E+03 0.  0.
    9000005    1    3    3    0    0  0.45208093954E+02 -0.77069214624E+01 -0.39513823854E+02  0.60543461025E+02  0.10000000000E+01 0.  0.
    9000005    1    3    3    0    0 -0.45208093954E+02  0.77069214624E+01 -0.25963290033E+03  0.26365396134E+03  0.10000000000E+01 0.  0.
<mgrwt>
<rscale>  0 0.12496082E+03</rscale>
<asrwt>0</asrwt>
<pdfrwt beam="2">  1        4 0.47949544E-01 0.12496082E+03</pdfrwt>
<pdfrwt beam="1">  1       -4 0.19269770E-02 0.12496082E+03</pdfrwt>
<totfact> 0.72722795E+03</totfact>
</mgrwt>
</event>
<event>
 5    1  0.3259432E-002  0.1250006E+03  0.7818608E-02  0.1235068E+00
         -4   -1    0    0    0  501 -0.00000000000E+00  0.00000000000E+00  0.73193515083E+01  0.74287149967E+01  0.12700000000E+01 0.  1.
          4   -1    0    0  501    0  0.00000000000E+00 -0.00000000000E+00 -0.52962516290E+03  0.52962668558E+03  0.12700000000E+01 0.  1.
         25    2    1    2    0    0  0.00000000000E+00  0.00000000000E+00 -0.52230581139E+03  0.53705540057E+03  0.12500057069E+03 0.  0.
    9000005    1    3    3    0    0  0.38542463490E+02 -0.12169699100E+02 -0.46592888257E+03  0.46767974799E+03  0.10000000000E+01 0.  0.
    9000005    1    3    3    0    0 -0.38542463490E+02  0.12169699100E+02 -0.56376928822E+02  0.69375652584E+02  0.10000000000E+01 0.  0.
<mgrwt>
<rscale>  0 0.12500057E+03</rscale>
<asrwt>0</asrwt>
<pdfrwt beam="2">  1        4 0.81489294E-01 0.12500057E+03</pdfrwt>
<pdfrwt beam="1">  1       -4 0.11345842E-02 0.12500057E+03</pdfrwt>
<totfact> 0.53099088E+03</totfact>
</mgrwt>
</event>
<event>
 5    1  0.3259432E-002  0.1249982E+03  0.7818608E-02  0.1235072E+00
          4   -1    0    0  501    0  0.00000000000E+00  0.00000000000E+00  0.18406005013E+03  0.18406443152E+03  0.12700000000E+01 0.  1.
         -4   -1    0    0    0  501 -0.00000000000E+00 -0.00000000000E+00 -0.21198459443E+02  0.21236468227E+02  0.12700000000E+01 0.  1.
         25    2    1    2    0    0  0.00000000000E+00  0.00000000000E+00  0.16286159068E+03  0.20530089975E+03  0.12499824686E+03 0.  0.
    9000005    1    3    3    0    0  0.88248559092E+01 -0.57576355853E+02  0.44258654981E+02  0.73162445120E+02  0.10000000000E+01 0.  0.
    9000005    1    3    3    0    0 -0.88248559092E+01  0.57576355853E+02  0.11860293570E+03  0.13213845463E+03  0.10000000000E+01 0.  0.
<mgrwt>
<rscale>  0 0.12499825E+03</rscale>
<asrwt>0</asrwt>
<pdfrwt beam="1">  1        4 0.28320190E-01 0.12499825E+03</pdfrwt>
<pdfrwt beam="2">  1       -4 0.32645624E-02 0.12499825E+03</pdfrwt>
<totfact> 0.89252602E+03</totfact>
</mgrwt>
</event>
<event>
 5    1  0.3259432E-002  0.1250000E+03  0.7818608E-02  0.1235069E+00
         -4   -1    0    0    0  501 -0.00000000000E+00  0.00000000000E+00  0.61250074261E+03  0.61250205926E+03  0.12700000000E+01 0.  1.
          4   -1    0    0  501    0  0.00000000000E+00 -0.00000000000E+00 -0.63129781565E+01  0.64394559711E+01  0.12700000000E+01 0.  1.
         25    2    1    2    0    0  0.00000000000E+00  0.00000000000E+00  0.60618776446E+03  0.61894151523E+03  0.12499997401E+03 0.  0.
    9000005    1    3    3    0    0 -0.14964596581E+02  0.51301858244E+02  0.46349822859E+03  0.46656985299E+03  0.10000000000E+01 0.  0.
    9000005    1    3    3    0    0  0.14964596581E+02 -0.51301858244E+02  0.14268953586E+03  0.15237166224E+03  0.10000000000E+01 0.  0.
<mgrwt>
<rscale>  0 0.12499997E+03</rscale>
<asrwt>0</asrwt>
<pdfrwt beam="2">  1        4 0.98105724E-03 0.12499997E+03</pdfrwt>
<pdfrwt beam="1">  1       -4 0.94240763E-01 0.12499997E+03</pdfrwt>
<totfact> 0.47693394E+03</totfact>
</mgrwt>
</event>
<event>
 5    1  0.3259432E-002  0.1250011E+03  0.7818608E-02  0.1235068E+00
          4   -1    0    0  501    0  0.00000000000E+00  0.00000000000E+00  0.51263358143E+03  0.51263515458E+03  0.12700000000E+01 0. -1.
         -4   -1    0    0    0  501 -0.00000000000E+00 -0.00000000000E+00 -0.75655903272E+01  0.76714442577E+01  0.12700000000E+01 0. -1.
         25    2    1    2    0    0  0.00000000000E+00  0.00000000000E+00  0.50506799110E+03  0.52030659884E+03  0.12500112462E+03 0.  0.
    9000005    1    3    3    0    0 -0.46113898000E+02 -0.27186961733E+02  0.38674835364E+03  0.39043682142E+03  0.10000000000E+01 0.  0.
    9000005    1    3    3    0    0  0.46113898000E+02  0.27186961733E+02  0.11831963747E+03  0.12986977742E+03  0.10000000000E+01 0.  0.
<mgrwt>
<rscale>  0 0.12500112E+03</rscale>
<asrwt>0</asrwt>
<pdfrwt beam="1">  1        4 0.78874963E-01 0.12500112E+03</pdfrwt>
<pdfrwt beam="2">  1       -4 0.11722007E-02 0.12500112E+03</pdfrwt>
<totfact> 0.54321201E+03</totfact>
</mgrwt>
</event>
<event>
 5    1  0.3259432E-002  0.1250053E+03  0.7818608E-02  0.1235061E+00
         -4   -1    0    0    0  501 -0.00000000000E+00  0.00000000000E+00  0.45818299082E+02  0.45835896749E+02  0.12700000000E+01 0. -1.
          4   -1    0    0  501    0  0.00000000000E+00 -0.00000000000E+00 -0.85223783411E+02  0.85233245620E+02  0.12700000000E+01 0. -1.
         25    2    1    2    0    0  0.00000000000E+00  0.00000000000E+00 -0.39405484329E+02  0.13106914237E+03  0.12500531143E+03 0.  0.
    9000005    1    3    3    0    0 -0.32699762705E+02 -0.43837958174E+02 -0.51411086145E+02  0.75067575133E+02  0.10000000000E+01 0.  0.
    9000005    1    3    3    0    0  0.32699762705E+02  0.43837958174E+02  0.12005601815E+02  0.56001567235E+02  0.10000000000E+01 0.  0.
<mgrwt>
<rscale>  0 0.12500531E+03</rscale>
<asrwt>0</asrwt>
<pdfrwt beam="2">  1        4 0.13113433E-01 0.12500531E+03</pdfrwt>
<pdfrwt beam="1">  1       -4 0.70510506E-02 0.12500531E+03</pdfrwt>
<totfact> 0.10320370E+04</totfact>
</mgrwt>
</event>
<event>
 5    1  0.3259432E-002  0.1250006E+03  0.7818608E-02  0.1235068E+00
         -4   -1    0    0    0  501 -0.00000000000E+00  0.00000000000E+00  0.26660347320E+03  0.26660649809E+03  0.12700000000E+01 0.  1.
          4   -1    0    0  501    0  0.00000000000E+00 -0.00000000000E+00 -0.14621423429E+02  0.14676475159E+02  0.12700000000E+01 0.  1.
         25    2    1    2    0    0  0.00000000000E+00  0.00000000000E+00  0.25198204977E+03  0.28128297325E+03  0.12500063052E+03 0.  0.
    9000005    1    3    3    0    0  0.48324096088E+01 -0.57151272868E+02  0.70156224668E+02  0.90622933261E+02  0.10000000000E+01 0.  0.
    9000005    1    3    3    0    0 -0.48324096088E+01  0.57151272868E+02  0.18182582510E+03  0.19066003999E+03  0.10000000000E+01 0.  0.
<mgrwt>
<rscale>  0 0.12500063E+03</rscale>
<asrwt>0</asrwt>
<pdfrwt beam="2">  1        4 0.22539172E-02 0.12500063E+03</pdfrwt>
<pdfrwt beam="1">  1       -4 0.41020385E-01 0.12500063E+03</pdfrwt>
<totfact> 0.78007206E+03</totfact>
</mgrwt>
</event>
<event>
 4    1  0.3259432E-002  0.1249042E+03  0.7818608E-02  0.1235219E+00
         -4   -1    0    0    0  501 -0.00000000000E+00  0.00000000000E+00  0.71099327602E+02  0.71110669280E+02  0.12700000000E+01 0. -1.
          4   -1    0    0  501    0  0.00000000000E+00 -0.00000000000E+00 -0.54833455067E+02  0.54848160357E+02  0.12700000000E+01 0. -1.
    9000005    1    1    2    0    0 -0.13238957099E+02  0.14384234372E+02  0.67938723711E+02  0.70702520203E+02  0.10000000000E+01 0.  0.
    9000005    1    1    2    0    0  0.13238957099E+02 -0.14384234372E+02 -0.51672851177E+02  0.55256309434E+02  0.10000000000E+01 0.  0.
<mgrwt>
<rscale>  0 0.12490416E+03</rscale>
<asrwt>0</asrwt>
<pdfrwt beam="2">  1        4 0.84379198E-02 0.12490416E+03</pdfrwt>
<pdfrwt beam="1">  1       -4 0.10940362E-01 0.12490416E+03</pdfrwt>
<totfact> 0.10454454E+04</totfact>
</mgrwt>
</event>
<event>
 5    1  0.3259432E-002  0.1250002E+03  0.7818608E-02  0.1235069E+00
         -4   -1    0    0    0  501 -0.00000000000E+00  0.00000000000E+00  0.22198191401E+02  0.22234491257E+02  0.12700000000E+01 0.  1.
          4   -1    0    0  501    0  0.00000000000E+00 -0.00000000000E+00 -0.17578963693E+03  0.17579422445E+03  0.12700000000E+01 0.  1.
         25    2    1    2    0    0  0.00000000000E+00  0.00000000000E+00 -0.15359144553E+03  0.19802871571E+03  0.12500016043E+03 0.  0.
    9000005    1    3    3    0    0 -0.36503079434E+02  0.31571240144E+02 -0.13902840814E+02  0.50234519955E+02  0.10000000000E+01 0.  0.
    9000005    1    3    3    0    0  0.36503079434E+02 -0.31571240144E+02 -0.13968860471E+03  0.14779419575E+03  0.10000000000E+01 0.  0.
<mgrwt>
<rscale>  0 0.12500016E+03</rscale>
<asrwt>0</asrwt>
<pdfrwt beam="2">  1        4 0.27047704E-01 0.12500016E+03</pdfrwt>
<pdfrwt beam="1">  1       -4 0.34182517E-02 0.12500016E+03</pdfrwt>
<totfact> 0.90468481E+03</totfact>
</mgrwt>
</event>
<event>
 5    1  0.3259432E-002  0.1250029E+03  0.7818608E-02  0.1235065E+00
         -4   -1    0    0    0  501 -0.00000000000E+00  0.00000000000E+00  0.13049719522E+04  0.13049725701E+04  0.12700000000E+01 0. -1.
          4   -1    0    0  501    0  0.00000000000E+00 -0.00000000000E+00 -0.28581532160E+01  0.31276092796E+01  0.12700000000E+01 0. -1.
         25    2    1    2    0    0  0.00000000000E+00  0.00000000000E+00  0.13021137989E+04  0.13081001794E+04  0.12500293598E+03 0.  0.
    9000005    1    3    3    0    0 -0.46451636615E+02 -0.38378410403E+02  0.47759238612E+03  0.48137941814E+03  0.10000000000E+01 0.  0.
    9000005    1    3    3    0    0  0.46451636615E+02  0.38378410403E+02  0.82452141282E+03  0.82672076128E+03  0.10000000000E+01 0.  0.
<mgrwt>
<rscale>  0 0.12500294E+03</rscale>
<asrwt>0</asrwt>
<pdfrwt beam="2">  1        4 0.46049018E-03 0.12500294E+03</pdfrwt>
<pdfrwt beam="1">  1       -4 0.20078596E+00 0.12500294E+03</pdfrwt>
<totfact> 0.22036687E+03</totfact>
</mgrwt>
</event>
<event>
 5    1  0.3259432E-002  0.1249987E+03  0.7818608E-02  0.1235071E+00
          4   -1    0    0  501    0  0.00000000000E+00  0.00000000000E+00  0.68220621488E+02  0.68232441670E+02  0.12700000000E+01 0. -1.
         -4   -1    0    0    0  501 -0.00000000000E+00 -0.00000000000E+00 -0.57234107229E+02  0.57248195870E+02  0.12700000000E+01 0. -1.
         25    2    1    2    0    0  0.00000000000E+00  0.00000000000E+00  0.10986514259E+02  0.12548063754E+03  0.12499874760E+03 0.  0.
    9000005    1    3    3    0    0 -0.15143120486E+02  0.34229696277E+02 -0.44741499766E+02  0.58341991795E+02  0.10000000000E+01 0.  0.
    9000005    1    3    3    0    0  0.15143120486E+02 -0.34229696277E+02  0.55728014025E+02  0.67138645745E+02  0.10000000000E+01 0.  0.
<mgrwt>
<rscale>  0 0.12499875E+03</rscale>
<asrwt>0</asrwt>
<pdfrwt beam="1">  1        4 0.10497473E-01 0.12499875E+03</pdfrwt>
<pdfrwt beam="2">  1       -4 0.88072403E-02 0.12499875E+03</pdfrwt>
<totfact> 0.10442677E+04</totfact>
</mgrwt>
</event>
<event>
 5    1  0.3259432E-002  0.1250008E+03  0.7818608E-02  0.1235068E+00
          4   -1    0    0  501    0  0.00000000000E+00  0.00000000000E+00  0.20147537686E+03  0.20147937954E+03  0.12700000000E+01 0.  1.
         -4   -1    0    0    0  501 -0.00000000000E+00 -0.00000000000E+00 -0.19363468933E+02  0.19405072252E+02  0.12700000000E+01 0.  1.
         25    2    1    2    0    0  0.00000000000E+00  0.00000000000E+00  0.18211190793E+03  0.22088445179E+03  0.12500077614E+03 0.  0.
    9000005    1    3    3    0    0  0.56568596550E+02 -0.89022593577E+01  0.13526938637E+03  0.14689473519E+03  0.10000000000E+01 0.  0.
    9000005    1    3    3    0    0 -0.56568596550E+02  0.89022593577E+01  0.46842521552E+02  0.73989716601E+02  0.10000000000E+01 0.  0.
<mgrwt>
<rscale>  0 0.12500078E+03</rscale>
<asrwt>0</asrwt>
<pdfrwt beam="1">  1        4 0.30999720E-01 0.12500078E+03</pdfrwt>
<pdfrwt beam="2">  1       -4 0.29825034E-02 0.12500078E+03</pdfrwt>
<totfact> 0.86727086E+03</totfact>
</mgrwt>
</event>
<event>
 5    1  0.3259432E-002  0.1249998E+03  0.7818608E-02  0.1235070E+00
          4   -1    0    0  501    0  0.00000000000E+00  0.00000000000E+00  0.33145915395E+03  0.33146158697E+03  0.12700000000E+01 0.  1.
         -4   -1    0    0    0  501 -0.00000000000E+00 -0.00000000000E+00 -0.11748278529E+02  0.11816723251E+02  0.12700000000E+01 0.  1.
         25    2    1    2    0    0  0.00000000000E+00  0.00000000000E+00  0.31971087542E+03  0.34327831022E+03  0.12499981762E+03 0.  0.
    9000005    1    3    3    0    0  0.55128526397E+02  0.29311175025E+02  0.15262121949E+03  0.16490159502E+03  0.10000000000E+01 0.  0.
    9000005    1    3    3    0    0 -0.55128526397E+02 -0.29311175025E+02  0.16708965594E+03  0.17837671520E+03  0.10000000000E+01 0.  0.
<mgrwt>
<rscale>  0 0.12499982E+03</rscale>
<asrwt>0</asrwt>
<pdfrwt beam="1">  1        4 0.50999166E-01 0.12499982E+03</pdfrwt>
<pdfrwt beam="2">  1       -4 0.18128797E-02 0.12499982E+03</pdfrwt>
<totfact> 0.70470693E+03</totfact>
</mgrwt>
</event>
<event>
 5    1  0.3259432E-002  0.1249839E+03  0.7818608E-02  0.1235094E+00
         -4   -1    0    0    0  501 -0.00000000000E+00  0.00000000000E+00  0.62604371131E+02  0.62617251494E+02  0.12700000000E+01 0. -1.
          4   -1    0    0  501    0  0.00000000000E+00 -0.00000000000E+00 -0.62353973963E+02  0.62366906040E+02  0.12700000000E+01 0. -1.
         25    2    1    2    0    0  0.00000000000E+00  0.00000000000E+00  0.25039716759E+00  0.12498415753E+03  0.12498390671E+03 0.  0.
    9000005    1    3    3    0    0 -0.17174711961E+02  0.59011865831E+02 -0.11138624184E+02  0.62469512472E+02  0.10000000000E+01 0.  0.
    9000005    1    3    3    0    0  0.17174711961E+02 -0.59011865831E+02  0.11389021352E+02  0.62514645062E+02  0.10000000000E+01 0.  0.
<mgrwt>
<rscale>  0 0.12498391E+03</rscale>
<asrwt>0</asrwt>
<pdfrwt beam="2">  1        4 0.95949047E-02 0.12498391E+03</pdfrwt>
<pdfrwt beam="1">  1       -4 0.96334273E-02 0.12498391E+03</pdfrwt>
<totfact> 0.10457010E+04</totfact>
</mgrwt>
</event>
<event>
 5    1  0.3259432E-002  0.1250010E+03  0.7818608E-02  0.1235068E+00
         -4   -1    0    0    0  501 -0.00000000000E+00  0.00000000000E+00  0.36680860004E+03  0.36681079859E+03  0.12700000000E+01 0.  1.
          4   -1    0    0  501    0  0.00000000000E+00 -0.00000000000E+00 -0.10609359445E+02  0.10685102144E+02  0.12700000000E+01 0.  1.
         25    2    1    2    0    0  0.00000000000E+00  0.00000000000E+00  0.35619924059E+03  0.37749590073E+03  0.12500102428E+03 0.  0.
    9000005    1    3    3    0    0 -0.38965646781E+02  0.18637124077E+02  0.31448772444E+03  0.31744163692E+03  0.10000000000E+01 0.  0.
    9000005    1    3    3    0    0  0.38965646781E+02 -0.18637124077E+02  0.41711516146E+02  0.60054263812E+02  0.10000000000E+01 0.  0.
<mgrwt>
<rscale>  0 0.12500102E+03</rscale>
<asrwt>0</asrwt>
<pdfrwt beam="2">  1        4 0.16382047E-02 0.12500102E+03</pdfrwt>
<pdfrwt beam="1">  1       -4 0.56438085E-01 0.12500102E+03</pdfrwt>
<totfact> 0.66800437E+03</totfact>
</mgrwt>
</event>
<event>
 5    1  0.3259432E-002  0.1249943E+03  0.7818608E-02  0.1235078E+00
         -4   -1    0    0    0  501 -0.00000000000E+00  0.00000000000E+00  0.12986285204E+03  0.12986906191E+03  0.12700000000E+01 0.  1.
          4   -1    0    0  501    0  0.00000000000E+00 -0.00000000000E+00 -0.30056750935E+02  0.30083569881E+02  0.12700000000E+01 0.  1.
         25    2    1    2    0    0  0.00000000000E+00  0.00000000000E+00  0.99806101106E+02  0.15995263179E+03  0.12499434626E+03 0.  0.
    9000005    1    3    3    0    0  0.23152909302E+02 -0.24874956269E+02 -0.17204806067E+02  0.38102834676E+02  0.10000000000E+01 0.  0.
    9000005    1    3    3    0    0 -0.23152909302E+02  0.24874956269E+02  0.11701090717E+03  0.12184979711E+03  0.10000000000E+01 0.  0.
<mgrwt>
<rscale>  0 0.12499435E+03</rscale>
<asrwt>0</asrwt>
<pdfrwt beam="2">  1        4 0.46266561E-02 0.12499435E+03</pdfrwt>
<pdfrwt beam="1">  1       -4 0.19981442E-01 0.12499435E+03</pdfrwt>
<totfact> 0.97364290E+03</totfact>
</mgrwt>
</event>
<event>
 5    1  0.3259432E-002  0.1250022E+03  0.7818608E-02  0.1235066E+00
         -4   -1    0    0    0  501 -0.00000000000E+00  0.00000000000E+00  0.39957888933E+03  0.39958090758E+03  0.12700000000E+01 0.  1.
          4   -1    0    0  501    0  0.00000000000E+00 -0.00000000000E+00 -0.97329609725E+01  0.98154688778E+01  0.12700000000E+01 0.  1.
         25    2    1    2    0    0  0.00000000000E+00  0.00000000000E+00  0.38984592836E+03  0.40939637645E+03  0.12500218076E+03 0.  0.
    9000005    1    3    3    0    0  0.21260056173E+02  0.49962401537E+02  0.29624816721E+03  0.30118467446E+03  0.10000000000E+01 0.  0.
    9000005    1    3    3    0    0 -0.21260056173E+02 -0.49962401537E+02  0.93597761149E+02  0.10821170199E+03  0.10000000000E+01 0.  0.
<mgrwt>
<rscale>  0 0.12500218E+03</rscale>
<asrwt>0</asrwt>
<pdfrwt beam="2">  1        4 0.15038807E-02 0.12500218E+03</pdfrwt>
<pdfrwt beam="1">  1       -4 0.61480175E-01 0.12500218E+03</pdfrwt>
<totfact> 0.63645992E+03</totfact>
</mgrwt>
</event>
<event>
 5    1  0.3259432E-002  0.1250053E+03  0.7818608E-02  0.1235061E+00
          4   -1    0    0  501    0  0.00000000000E+00  0.00000000000E+00  0.91640495677E+03  0.91640583678E+03  0.12700000000E+01 0. -1.
         -4   -1    0    0    0  501 -0.00000000000E+00 -0.00000000000E+00 -0.41674493668E+01  0.43566654938E+01  0.12700000000E+01 0. -1.
         25    2    1    2    0    0  0.00000000000E+00  0.00000000000E+00  0.91223750740E+03  0.92076250228E+03  0.12500526264E+03 0.  0.
    9000005    1    3    3    0    0  0.50442526601E+02  0.15081733903E+02  0.70412521004E+03  0.70609150866E+03  0.10000000000E+01 0.  0.
    9000005    1    3    3    0    0 -0.50442526601E+02 -0.15081733903E+02  0.20811229736E+03  0.21467099362E+03  0.10000000000E+01 0.  0.
<mgrwt>
<rscale>  0 0.12500526E+03</rscale>
<asrwt>0</asrwt>
<pdfrwt beam="1">  1        4 0.14100029E+00 0.12500526E+03</pdfrwt>
<pdfrwt beam="2">  1       -4 0.65576748E-03 0.12500526E+03</pdfrwt>
<totfact> 0.33373362E+03</totfact>
</mgrwt>
</event>
<event>
 5    1  0.3259432E-002  0.1250098E+03  0.7818608E-02  0.1235054E+00
          4   -1    0    0  501    0  0.00000000000E+00  0.00000000000E+00  0.52936661805E+03  0.52936814147E+03  0.12700000000E+01 0. -1.
         -4   -1    0    0    0  501 -0.00000000000E+00 -0.00000000000E+00 -0.73240769961E+01  0.74333709610E+01  0.12700000000E+01 0. -1.
         25    2    1    2    0    0  0.00000000000E+00  0.00000000000E+00  0.52204254105E+03  0.53680151243E+03  0.12500979594E+03 0.  0.
    9000005    1    3    3    0    0  0.16584451891E+02  0.48885977807E+02  0.41229097924E+03  0.41551141312E+03  0.10000000000E+01 0.  0.
    9000005    1    3    3    0    0 -0.16584451891E+02 -0.48885977807E+02  0.10975156181E+03  0.12129009931E+03  0.10000000000E+01 0.  0.
<mgrwt>
<rscale>  0 0.12500980E+03</rscale>
<asrwt>0</asrwt>
<pdfrwt beam="1">  1        4 0.81449535E-01 0.12500980E+03</pdfrwt>
<pdfrwt beam="2">  1       -4 0.11353056E-02 0.12500980E+03</pdfrwt>
<totfact> 0.53106534E+03</totfact>
</mgrwt>
</event>
<event>
 5    1  0.3259432E-002  0.1250060E+03  0.7818608E-02  0.1235060E+00
          4   -1    0    0  501    0  0.00000000000E+00  0.00000000000E+00  0.72395099530E+02  0.72406238239E+02  0.12700000000E+01 0.  1.
         -4   -1    0    0    0  501 -0.00000000000E+00 -0.00000000000E+00 -0.53939781934E+02  0.53954730794E+02  0.12700000000E+01 0.  1.
         25    2    1    2    0    0  0.00000000000E+00  0.00000000000E+00  0.18455317596E+02  0.12636096903E+03  0.12500598285E+03 0.  0.
    9000005    1    3    3    0    0  0.26660243622E+02 -0.55057049174E+02  0.22156001254E+02  0.65068699428E+02  0.10000000000E+01 0.  0.
    9000005    1    3    3    0    0 -0.26660243622E+02  0.55057049174E+02 -0.37006836582E+01  0.61292269604E+02  0.10000000000E+01 0.  0.
<mgrwt>
<rscale>  0 0.12500598E+03</rscale>
<asrwt>0</asrwt>
<pdfrwt beam="1">  1        4 0.11139714E-01 0.12500598E+03</pdfrwt>
<pdfrwt beam="2">  1       -4 0.83004348E-02 0.12500598E+03</pdfrwt>
<totfact> 0.10421654E+04</totfact>
</mgrwt>
</event>
<event>
 5    1  0.3259432E-002  0.1250026E+03  0.7818608E-02  0.1235065E+00
          4   -1    0    0  501    0  0.00000000000E+00  0.00000000000E+00  0.11070384185E+02  0.11142993584E+02  0.12700000000E+01 0.  1.
         -4   -1    0    0    0  501 -0.00000000000E+00 -0.00000000000E+00 -0.35164313093E+03  0.35164542430E+03  0.12700000000E+01 0.  1.
         25    2    1    2    0    0  0.00000000000E+00  0.00000000000E+00 -0.34057274675E+03  0.36278841789E+03  0.12500256127E+03 0.  0.
    9000005    1    3    3    0    0  0.52848494304E+02  0.32820412071E+02 -0.15305100777E+03  0.16521426627E+03  0.10000000000E+01 0.  0.
    9000005    1    3    3    0    0 -0.52848494304E+02 -0.32820412071E+02 -0.18752173897E+03  0.19757415162E+03  0.10000000000E+01 0.  0.
<mgrwt>
<rscale>  0 0.12500256E+03</rscale>
<asrwt>0</asrwt>
<pdfrwt beam="1">  1        4 0.17088980E-02 0.12500256E+03</pdfrwt>
<pdfrwt beam="2">  1       -4 0.54104696E-01 0.12500256E+03</pdfrwt>
<totfact> 0.68336346E+03</totfact>
</mgrwt>
</event>
<event>
 5    1  0.3259432E-002  0.1249988E+03  0.7818608E-02  0.1235071E+00
         -4   -1    0    0    0  501 -0.00000000000E+00  0.00000000000E+00  0.25698479310E+03  0.25698793121E+03  0.12700000000E+01 0.  1.
          4   -1    0    0  501    0  0.00000000000E+00 -0.00000000000E+00 -0.15170260009E+02  0.15223327124E+02  0.12700000000E+01 0.  1.
         25    2    1    2    0    0  0.00000000000E+00  0.00000000000E+00  0.24181453310E+03  0.27221125833E+03  0.12499880298E+03 0.  0.
    9000005    1    3    3    0    0 -0.35665090750E+02 -0.51066332289E+02  0.10993061082E+03  0.12635469199E+03  0.10000000000E+01 0.  0.
    9000005    1    3    3    0    0  0.35665090750E+02  0.51066332289E+02  0.13188392227E+03  0.14585656634E+03  0.10000000000E+01 0.  0.
<mgrwt>
<rscale>  0 0.12499880E+03</rscale>
<asrwt>0</asrwt>
<pdfrwt beam="2">  1        4 0.23382095E-02 0.12499880E+03</pdfrwt>
<pdfrwt beam="1">  1       -4 0.39540447E-01 0.12499880E+03</pdfrwt>
<totfact> 0.79224407E+03</totfact>
</mgrwt>
</event>
<event>
 5    1  0.3259432E-002  0.1250017E+03  0.7818608E-02  0.1235067E+00
          4   -1    0    0  501    0  0.00000000000E+00  0.00000000000E+00  0.13690987383E+03  0.13691576407E+03  0.12700000000E+01 0.  1.
         -4   -1    0    0    0  501 -0.00000000000E+00 -0.00000000000E+00 -0.28511676111E+02  0.28539946998E+02  0.12700000000E+01 0.  1.
         25    2    1    2    0    0  0.00000000000E+00  0.00000000000E+00  0.10839819772E+03  0.16545571107E+03  0.12500169222E+03 0.  0.
    9000005    1    3    3    0    0  0.51966764871E+02  0.16176359747E+02  0.13549791856E+02  0.56096489420E+02  0.10000000000E+01 0.  0.
    9000005    1    3    3    0    0 -0.51966764871E+02 -0.16176359747E+02  0.94848405860E+02  0.10935922165E+03  0.10000000000E+01 0.  0.
<mgrwt>
<rscale>  0 0.12500169E+03</rscale>
<asrwt>0</asrwt>
<pdfrwt beam="1">  1        4 0.21065686E-01 0.12500169E+03</pdfrwt>
<pdfrwt beam="2">  1       -4 0.43890394E-02 0.12500169E+03</pdfrwt>
<totfact> 0.96297496E+03</totfact>
</mgrwt>
</event>
<event>
 5    1  0.3259432E-002  0.1249982E+03  0.7818608E-02  0.1235072E+00
         -4   -1    0    0    0  501 -0.00000000000E+00  0.00000000000E+00  0.63566227073E+01  0.64822490112E+01  0.12700000000E+01 0.  1.
          4   -1    0    0  501    0  0.00000000000E+00 -0.00000000000E+00 -0.60836019935E+03  0.60836152496E+03  0.12700000000E+01 0.  1.
         25    2    1    2    0    0  0.00000000000E+00  0.00000000000E+00 -0.60200357664E+03  0.61484377397E+03  0.12499824040E+03 0.  0.
    9000005    1    3    3    0    0  0.60901483900E+02 -0.97355951892E+01 -0.35052515774E+03  0.35591102648E+03  0.10000000000E+01 0.  0.
    9000005    1    3    3    0    0 -0.60901483900E+02  0.97355951892E+01 -0.25147841890E+03  0.25893274750E+03  0.10000000000E+01 0.  0.
<mgrwt>
<rscale>  0 0.12499824E+03</rscale>
<asrwt>0</asrwt>
<pdfrwt beam="2">  1        4 0.93603597E-01 0.12499824E+03</pdfrwt>
<pdfrwt beam="1">  1       -4 0.98770796E-03 0.12499824E+03</pdfrwt>
<totfact> 0.47945703E+03</totfact>
</mgrwt>
</event>
<event>
 5    1  0.3259432E-002  0.1249975E+03  0.7818608E-02  0.1235073E+00
          4   -1    0    0  501    0  0.00000000000E+00  0.00000000000E+00  0.89484979800E+02  0.89493991473E+02  0.12700000000E+01 0.  1.
         -4   -1    0    0    0  501 -0.00000000000E+00 -0.00000000000E+00 -0.43630393907E+02  0.43648873668E+02  0.12700000000E+01 0.  1.
         25    2    1    2    0    0  0.00000000000E+00  0.00000000000E+00  0.45854585893E+02  0.13314286514E+03  0.12499751794E+03 0.  0.
    9000005    1    3    3    0    0  0.51122183510E+02 -0.32336412296E+02  0.62217415200E+01  0.60818017680E+02  0.10000000000E+01 0.  0.
    9000005    1    3    3    0    0 -0.51122183510E+02  0.32336412296E+02  0.39632844373E+02  0.72324847460E+02  0.10000000000E+01 0.  0.
<mgrwt>
<rscale>  0 0.12499752E+03</rscale>
<asrwt>0</asrwt>
<pdfrwt beam="1">  1        4 0.13769035E-01 0.12499752E+03</pdfrwt>
<pdfrwt beam="2">  1       -4 0.67144830E-02 0.12499752E+03</pdfrwt>
<totfact> 0.10277940E+04</totfact>
</mgrwt>
</event>
<event>
 5    1  0.3259432E-002  0.1249988E+03  0.7818608E-02  0.1235071E+00
          4   -1    0    0  501    0  0.00000000000E+00  0.00000000000E+00  0.97720477905E+01  0.98542284335E+01  0.12700000000E+01 0. -1.
         -4   -1    0    0    0  501 -0.00000000000E+00 -0.00000000000E+00 -0.39797273177E+03  0.39797475816E+03  0.12700000000E+01 0. -1.
         25    2    1    2    0    0  0.00000000000E+00  0.00000000000E+00 -0.38820068398E+03  0.40782898660E+03  0.12499884505E+03 0.  0.
    9000005    1    3    3    0    0 -0.24117526167E+02 -0.55625009495E+02 -0.14468624385E+03  0.15687863433E+03  0.10000000000E+01 0.  0.
    9000005    1    3    3    0    0  0.24117526167E+02  0.55625009495E+02 -0.24351444014E+03  0.25095035227E+03  0.10000000000E+01 0.  0.
<mgrwt>
<rscale>  0 0.12499885E+03</rscale>
<asrwt>0</asrwt>
<pdfrwt beam="1">  1        4 0.15098697E-02 0.12499885E+03</pdfrwt>
<pdfrwt beam="2">  1       -4 0.61233039E-01 0.12499885E+03</pdfrwt>
<totfact> 0.63800040E+03</totfact>
</mgrwt>
</event>
<event>
 5    1  0.3259432E-002  0.1250005E+03  0.7818608E-02  0.1235068E+00
          4   -1    0    0  501    0  0.00000000000E+00  0.00000000000E+00  0.58831486568E+02  0.58845192768E+02  0.12700000000E+01 0. -1.
         -4   -1    0    0    0  501 -0.00000000000E+00 -0.00000000000E+00 -0.66370303920E+02  0.66382453573E+02  0.12700000000E+01 0. -1.
         25    2    1    2    0    0  0.00000000000E+00  0.00000000000E+00 -0.75388173513E+01  0.12522764634E+03  0.12500051856E+03 0.  0.
    9000005    1    3    3    0    0 -0.53882344774E+02  0.29023285031E+02 -0.16426614692E+02  0.63375798398E+02  0.10000000000E+01 0.  0.
    9000005    1    3    3    0    0  0.53882344774E+02 -0.29023285031E+02  0.88877973405E+01  0.61851847943E+02  0.10000000000E+01 0.  0.
<mgrwt>
<rscale>  0 0.12500052E+03</rscale>
<asrwt>0</asrwt>
<pdfrwt beam="1">  1        4 0.90529868E-02 0.12500052E+03</pdfrwt>
<pdfrwt beam="2">  1       -4 0.10212805E-01 0.12500052E+03</pdfrwt>
<totfact> 0.10447798E+04</totfact>
</mgrwt>
</event>
<event>
 5    1  0.3259432E-002  0.1249954E+03  0.7818608E-02  0.1235076E+00
         -4   -1    0    0    0  501 -0.00000000000E+00  0.00000000000E+00  0.40164505961E+03  0.40164706747E+03  0.12700000000E+01 0. -1.
          4   -1    0    0  501    0  0.00000000000E+00 -0.00000000000E+00 -0.96814073025E+01  0.97643508416E+01  0.12700000000E+01 0. -1.
         25    2    1    2    0    0  0.00000000000E+00  0.00000000000E+00  0.39196365231E+03  0.41141141831E+03  0.12499540147E+03 0.  0.
    9000005    1    3    3    0    0  0.29135846400E+02  0.51275986439E+02  0.12798103291E+03  0.14091937098E+03  0.10000000000E+01 0.  0.
    9000005    1    3    3    0    0 -0.29135846400E+02 -0.51275986439E+02  0.26398261939E+03  0.27049204734E+03  0.10000000000E+01 0.  0.
<mgrwt>
<rscale>  0 0.12499540E+03</rscale>
<asrwt>0</asrwt>
<pdfrwt beam="2">  1        4 0.14959821E-02 0.12499540E+03</pdfrwt>
<pdfrwt beam="1">  1       -4 0.61798080E-01 0.12499540E+03</pdfrwt>
<totfact> 0.63464296E+03</totfact>
</mgrwt>
</event>
<event>
 5    1  0.3259432E-002  0.1250032E+03  0.7818608E-02  0.1235064E+00
         -4   -1    0    0    0  501 -0.00000000000E+00  0.00000000000E+00  0.29002907615E+02  0.29030700132E+02  0.12700000000E+01 0.  1.
          4   -1    0    0  501    0  0.00000000000E+00 -0.00000000000E+00 -0.13459639574E+03  0.13460238723E+03  0.12700000000E+01 0.  1.
         25    2    1    2    0    0  0.00000000000E+00  0.00000000000E+00 -0.10559348813E+03  0.16363308736E+03  0.12500321013E+03 0.  0.
    9000005    1    3    3    0    0  0.27712618976E+02  0.51480832892E+02 -0.81690035307E+02  0.10046157113E+03  0.10000000000E+01 0.  0.
    9000005    1    3    3    0    0 -0.27712618976E+02 -0.51480832892E+02 -0.23903452823E+02  0.63171516229E+02  0.10000000000E+01 0.  0.
<mgrwt>
<rscale>  0 0.12500321E+03</rscale>
<asrwt>0</asrwt>
<pdfrwt beam="2">  1        4 0.20709736E-01 0.12500321E+03</pdfrwt>
<pdfrwt beam="1">  1       -4 0.44645846E-02 0.12500321E+03</pdfrwt>
<totfact> 0.96639921E+03</totfact>
</mgrwt>
</event>
<event>
 5    1  0.3259432E-002  0.1249839E+03  0.7818608E-02  0.1235094E+00
          4   -1    0    0  501    0  0.00000000000E+00  0.00000000000E+00  0.11049031468E+03  0.11049761326E+03  0.12700000000E+01 0. -1.
         -4   -1    0    0    0  501 -0.00000000000E+00 -0.00000000000E+00 -0.35324784255E+02  0.35347606463E+02  0.12700000000E+01 0. -1.
         25    2    1    2    0    0  0.00000000000E+00  0.00000000000E+00  0.75165530420E+02  0.14584521973E+03  0.12498388358E+03 0.  0.
    9000005    1    3    3    0    0 -0.82540509003E+00  0.12817572249E+02  0.10893895864E+03  0.10969807730E+03  0.10000000000E+01 0.  0.
    9000005    1    3    3    0    0  0.82540509003E+00 -0.12817572249E+02 -0.33773428224E+02  0.36147142431E+02  0.10000000000E+01 0.  0.
<mgrwt>
<rscale>  0 0.12498388E+03</rscale>
<asrwt>0</asrwt>
<pdfrwt beam="1">  1        4 0.17000826E-01 0.12498388E+03</pdfrwt>
<pdfrwt beam="2">  1       -4 0.54368993E-02 0.12498388E+03</pdfrwt>
<totfact> 0.10017478E+04</totfact>
</mgrwt>
</event>
<event>
 5    1  0.3259432E-002  0.1250008E+03  0.7818608E-02  0.1235068E+00
          4   -1    0    0  501    0  0.00000000000E+00  0.00000000000E+00  0.34732793457E+02  0.34756004393E+02  0.12700000000E+01 0. -1.
         -4   -1    0    0    0  501 -0.00000000000E+00 -0.00000000000E+00 -0.11240284147E+03  0.11241001588E+03  0.12700000000E+01 0. -1.
         25    2    1    2    0    0  0.00000000000E+00  0.00000000000E+00 -0.77670048011E+02  0.14716602027E+03  0.12500080466E+03 0.  0.
    9000005    1    3    3    0    0 -0.36611792094E+02  0.39346872737E+02 -0.12952830057E+01  0.53770600449E+02  0.10000000000E+01 0.  0.
    9000005    1    3    3    0    0  0.36611792094E+02 -0.39346872737E+02 -0.76374765005E+02  0.93395419824E+02  0.10000000000E+01 0.  0.
<mgrwt>
<rscale>  0 0.12500080E+03</rscale>
<asrwt>0</asrwt>
<pdfrwt beam="1">  1        4 0.53458441E-02 0.12500080E+03</pdfrwt>
<pdfrwt beam="2">  1       -4 0.17295082E-01 0.12500080E+03</pdfrwt>
<totfact> 0.99869830E+03</totfact>
</mgrwt>
</event>
<event>
 5    1  0.3259432E-002  0.1249994E+03  0.7818608E-02  0.1235070E+00
          4   -1    0    0  501    0  0.00000000000E+00  0.00000000000E+00  0.31764337595E+03  0.31764591479E+03  0.12700000000E+01 0.  1.
         -4   -1    0    0    0  501 -0.00000000000E+00 -0.00000000000E+00 -0.12262103350E+02  0.12327695590E+02  0.12700000000E+01 0.  1.
         25    2    1    2    0    0  0.00000000000E+00  0.00000000000E+00  0.30538127260E+03  0.32997361038E+03  0.12499944758E+03 0.  0.
    9000005    1    3    3    0    0  0.55188101253E+02  0.57243828160E-01  0.75299640161E+02  0.93363620351E+02  0.10000000000E+01 0.  0.
    9000005    1    3    3    0    0 -0.55188101253E+02 -0.57243828160E-01  0.23008163244E+03  0.23660999003E+03  0.10000000000E+01 0.  0.
<mgrwt>
<rscale>  0 0.12499945E+03</rscale>
<asrwt>0</asrwt>
<pdfrwt beam="1">  1        4 0.48873447E-01 0.12499945E+03</pdfrwt>
<pdfrwt beam="2">  1       -4 0.18917185E-02 0.12499945E+03</pdfrwt>
<totfact> 0.71986274E+03</totfact>
</mgrwt>
</event>
<event>
 5    1  0.3259432E-002  0.1250043E+03  0.7818608E-02  0.1235063E+00
         -4   -1    0    0    0  501 -0.00000000000E+00  0.00000000000E+00  0.48163569714E+02  0.48180310788E+02  0.12700000000E+01 0.  1.
          4   -1    0    0  501    0  0.00000000000E+00 -0.00000000000E+00 -0.81073551823E+02  0.81083498353E+02  0.12700000000E+01 0.  1.
         25    2    1    2    0    0  0.00000000000E+00  0.00000000000E+00 -0.32909982109E+02  0.12926380914E+03  0.12500426165E+03 0.  0.
    9000005    1    3    3    0    0  0.10941207134E+02  0.33303024754E-01  0.47170517116E+02  0.48433137495E+02  0.10000000000E+01 0.  0.
    9000005    1    3    3    0    0 -0.10941207134E+02 -0.33303024754E-01 -0.80080499224E+02  0.80830671645E+02  0.10000000000E+01 0.  0.
<mgrwt>
<rscale>  0 0.12500426E+03</rscale>
<asrwt>0</asrwt>
<pdfrwt beam="2">  1        4 0.12474907E-01 0.12500426E+03</pdfrwt>
<pdfrwt beam="1">  1       -4 0.74118329E-02 0.12500426E+03</pdfrwt>
<totfact> 0.10359285E+04</totfact>
</mgrwt>
</event>
<event>
 5    1  0.3259432E-002  0.1250005E+03  0.7818608E-02  0.1235069E+00
         -4   -1    0    0    0  501 -0.00000000000E+00  0.00000000000E+00  0.11838601248E+04  0.11838608060E+04  0.12700000000E+01 0. -1.
          4   -1    0    0  501    0  0.00000000000E+00 -0.00000000000E+00 -0.31767022849E+01  0.34211602428E+01  0.12700000000E+01 0. -1.
         25    2    1    2    0    0  0.00000000000E+00  0.00000000000E+00  0.11806834225E+04  0.11872819663E+04  0.12500049269E+03 0.  0.
    9000005    1    3    3    0    0  0.11325410503E+02  0.58865414261E+02  0.42260229582E+03  0.42683381116E+03  0.10000000000E+01 0.  0.
    9000005    1    3    3    0    0 -0.11325410503E+02 -0.58865414261E+02  0.75808112671E+03  0.76044815510E+03  0.10000000000E+01 0.  0.
<mgrwt>
<rscale>  0 0.12500049E+03</rscale>
<asrwt>0</asrwt>
<pdfrwt beam="2">  1        4 0.50757986E-03 0.12500049E+03</pdfrwt>
<pdfrwt beam="1">  1       -4 0.18215134E+00 0.12500049E+03</pdfrwt>
<totfact> 0.25047793E+03</totfact>
</mgrwt>
</event>
<event>
 5    1  0.3259432E-002  0.1249979E+03  0.7818608E-02  0.1235073E+00
          4   -1    0    0  501    0  0.00000000000E+00  0.00000000000E+00  0.52178827792E+02  0.52194281006E+02  0.12700000000E+01 0. -1.
         -4   -1    0    0    0  501 -0.00000000000E+00 -0.00000000000E+00 -0.74828320281E+02  0.74839096842E+02  0.12700000000E+01 0. -1.
         25    2    1    2    0    0  0.00000000000E+00  0.00000000000E+00 -0.22649492489E+02  0.12703337785E+03  0.12499791829E+03 0.  0.
    9000005    1    3    3    0    0 -0.93320287801E+01 -0.17919674277E+02  0.48772948775E+02  0.52801534254E+02  0.10000000000E+01 0.  0.
    9000005    1    3    3    0    0  0.93320287801E+01  0.17919674277E+02 -0.71422441264E+02  0.74231843594E+02  0.10000000000E+01 0.  0.
<mgrwt>
<rscale>  0 0.12499792E+03</rscale>
<asrwt>0</asrwt>
<pdfrwt beam="1">  1        4 0.80295297E-02 0.12499792E+03</pdfrwt>
<pdfrwt beam="2">  1       -4 0.11514067E-01 0.12499792E+03</pdfrwt>
<totfact> 0.10408910E+04</totfact>
</mgrwt>
</event>
<event>
 5    1  0.3259432E-002  0.1250067E+03  0.7818608E-02  0.1235059E+00
         -4   -1    0    0    0  501 -0.00000000000E+00  0.00000000000E+00  0.53712872751E+02  0.53727884745E+02  0.12700000000E+01 0.  1.
          4   -1    0    0  501    0  0.00000000000E+00 -0.00000000000E+00 -0.72701724949E+02  0.72712816687E+02  0.12700000000E+01 0.  1.
         25    2    1    2    0    0  0.00000000000E+00  0.00000000000E+00 -0.18988852199E+02  0.12644070143E+03  0.12500669770E+03 0.  0.
    9000005    1    3    3    0    0  0.45471977170E+01 -0.38876529449E+02  0.39784136013E+02  0.55819701068E+02  0.10000000000E+01 0.  0.
    9000005    1    3    3    0    0 -0.45471977170E+01  0.38876529449E+02 -0.58772988211E+02  0.70621000364E+02  0.10000000000E+01 0.  0.
<mgrwt>
<rscale>  0 0.12500670E+03</rscale>
<asrwt>0</asrwt>
<pdfrwt beam="2">  1        4 0.11186889E-01 0.12500670E+03</pdfrwt>
<pdfrwt beam="1">  1       -4 0.82655268E-02 0.12500670E+03</pdfrwt>
<totfact> 0.10419746E+04</totfact>
</mgrwt>
</event>
<event>
 5    1  0.3259432E-002  0.1249987E+03  0.7818608E-02  0.1235071E+00
         -4   -1    0    0    0  501 -0.00000000000E+00  0.00000000000E+00  0.11787389718E+03  0.11788073861E+03  0.12700000000E+01 0. -1.
          4   -1    0    0  501    0  0.00000000000E+00 -0.00000000000E+00 -0.33118545891E+02  0.33142887351E+02  0.12700000000E+01 0. -1.
         25    2    1    2    0    0  0.00000000000E+00  0.00000000000E+00  0.84755351288E+02  0.15102362597E+03  0.12499866410E+03 0.  0.
    9000005    1    3    3    0    0 -0.54298566738E+02 -0.30771172322E+02  0.38563293763E+02  0.73371159332E+02  0.10000000000E+01 0.  0.
    9000005    1    3    3    0    0  0.54298566738E+02  0.30771172322E+02  0.46192057525E+02  0.77652466634E+02  0.10000000000E+01 0.  0.
<mgrwt>
<rscale>  0 0.12499866E+03</rscale>
<asrwt>0</asrwt>
<pdfrwt beam="2">  1        4 0.50975595E-02 0.12499866E+03</pdfrwt>
<pdfrwt beam="1">  1       -4 0.18136845E-01 0.12499866E+03</pdfrwt>
<totfact> 0.99103023E+03</totfact>
</mgrwt>
</event>
<event>
 5    1  0.3259432E-002  0.1249810E+03  0.7818608E-02  0.1235099E+00
         -4   -1    0    0    0  501 -0.00000000000E+00  0.00000000000E+00  0.80515413269E+02  0.80525428741E+02  0.12700000000E+01 0.  1.
          4   -1    0    0  501    0  0.00000000000E+00 -0.00000000000E+00 -0.48479494627E+02  0.48496126642E+02  0.12700000000E+01 0.  1.
         25    2    1    2    0    0  0.00000000000E+00  0.00000000000E+00  0.32035918642E+02  0.12902155538E+03  0.12498104524E+03 0.  0.
    9000005    1    3    3    0    0  0.23266116644E+02 -0.50898882279E+02 -0.12666245028E+02  0.57388519445E+02  0.10000000000E+01 0.  0.
    9000005    1    3    3    0    0 -0.23266116644E+02  0.50898882279E+02  0.44702163670E+02  0.71633035938E+02  0.10000000000E+01 0.  0.
<mgrwt>
<rscale>  0 0.12498105E+03</rscale>
<asrwt>0</asrwt>
<pdfrwt beam="2">  1        4 0.74604336E-02 0.12498105E+03</pdfrwt>
<pdfrwt beam="1">  1       -4 0.12389036E-01 0.12498105E+03</pdfrwt>
<totfact> 0.10369920E+04</totfact>
</mgrwt>
</event>
<event>
 4    1  0.3259432E-002  0.1250635E+03  0.7818608E-02  0.1234970E+00
          4   -1    0    0  501    0  0.00000000000E+00  0.00000000000E+00  0.94878943181E+01  0.95725147475E+01  0.12700000000E+01 0.  1.
         -4   -1    0    0    0  501 -0.00000000000E+00 -0.00000000000E+00 -0.41021207090E+03  0.41021403683E+03  0.12700000000E+01 0.  1.
    9000005    1    1    2    0    0  0.71756003463E+01 -0.56111563627E+01  0.72651639832E+01  0.11694311598E+02  0.10000000000E+01 0.  0.
    9000005    1    1    2    0    0 -0.71756003463E+01  0.56111563627E+01 -0.40798934056E+03  0.40809223998E+03  0.10000000000E+01 0.  0.
<mgrwt>
<rscale>  0 0.12506352E+03</rscale>
<asrwt>0</asrwt>
<pdfrwt beam="1">  1        4 0.14663369E-02 0.12506352E+03</pdfrwt>
<pdfrwt beam="2">  1       -4 0.63116196E-01 0.12506352E+03</pdfrwt>
<totfact> 0.62585097E+03</totfact>
</mgrwt>
</event>
<event>
 5    1  0.3259432E-002  0.1249982E+03  0.7818608E-02  0.1235072E+00
         -4   -1    0    0    0  501 -0.00000000000E+00  0.00000000000E+00  0.37240723291E+01  0.39346683103E+01  0.12700000000E+01 0. -1.
          4   -1    0    0  501    0  0.00000000000E+00 -0.00000000000E+00 -0.10198356112E+04  0.10198364019E+04  0.12700000000E+01 0. -1.
         25    2    1    2    0    0  0.00000000000E+00  0.00000000000E+00 -0.10161115388E+04  0.10237710702E+04  0.12499817960E+03 0.  0.
    9000005    1    3    3    0    0  0.56607344078E+02 -0.25038016043E+02 -0.43767523156E+03  0.44203156219E+03  0.10000000000E+01 0.  0.
    9000005    1    3    3    0    0 -0.56607344078E+02  0.25038016043E+02 -0.57843630727E+03  0.58173950805E+03  0.10000000000E+01 0.  0.
<mgrwt>
<rscale>  0 0.12499818E+03</rscale>
<asrwt>0</asrwt>
<pdfrwt beam="2">  1        4 0.15691383E+00 0.12499818E+03</pdfrwt>
<pdfrwt beam="1">  1       -4 0.58919554E-03 0.12499818E+03</pdfrwt>
<totfact> 0.29829297E+03</totfact>
</mgrwt>
</event>
<event>
 5    1  0.3259432E-002  0.1249994E+03  0.7818608E-02  0.1235070E+00
         -4   -1    0    0    0  501 -0.00000000000E+00  0.00000000000E+00  0.45955198669E+03  0.45955374155E+03  0.12700000000E+01 0. -1.
          4   -1    0    0  501    0  0.00000000000E+00 -0.00000000000E+00 -0.84508286237E+01  0.85457243360E+01  0.12700000000E+01 0. -1.
         25    2    1    2    0    0  0.00000000000E+00  0.00000000000E+00  0.45110115807E+03  0.46809946589E+03  0.12499942061E+03 0.  0.
    9000005    1    3    3    0    0  0.33065237538E+02  0.52256085889E+02  0.19180456786E+03  0.20152915595E+03  0.10000000000E+01 0.  0.
    9000005    1    3    3    0    0 -0.33065237538E+02 -0.52256085889E+02  0.25929659021E+03  0.26657030994E+03  0.10000000000E+01 0.  0.
<mgrwt>
<rscale>  0 0.12499942E+03</rscale>
<asrwt>0</asrwt>
<pdfrwt beam="2">  1        4 0.13075626E-02 0.12499942E+03</pdfrwt>
<pdfrwt beam="1">  1       -4 0.70707714E-01 0.12499942E+03</pdfrwt>
<totfact> 0.58428048E+03</totfact>
</mgrwt>
</event>
<event>
 5    1  0.3259432E-002  0.1250064E+03  0.7818608E-02  0.1235059E+00
          4   -1    0    0  501    0  0.00000000000E+00  0.00000000000E+00  0.29977340338E+02  0.30004230264E+02  0.12700000000E+01 0. -1.
         -4   -1    0    0    0  501 -0.00000000000E+00 -0.00000000000E+00 -0.13023162770E+03  0.13023781998E+03  0.12700000000E+01 0. -1.
         25    2    1    2    0    0  0.00000000000E+00  0.00000000000E+00 -0.10025428736E+03  0.16024205024E+03  0.12500636996E+03 0.  0.
    9000005    1    3    3    0    0 -0.47482759087E+02 -0.19950811064E+02 -0.95502498446E+02  0.10850978980E+03  0.10000000000E+01 0.  0.
    9000005    1    3    3    0    0  0.47482759087E+02  0.19950811064E+02 -0.47517889116E+01  0.51732260442E+02  0.10000000000E+01 0.  0.
<mgrwt>
<rscale>  0 0.12500637E+03</rscale>
<asrwt>0</asrwt>
<pdfrwt beam="1">  1        4 0.46144434E-02 0.12500637E+03</pdfrwt>
<pdfrwt beam="2">  1       -4 0.20038179E-01 0.12500637E+03</pdfrwt>
<totfact> 0.97282211E+03</totfact>
</mgrwt>
</event>
<event>
 5    1  0.3259432E-002  0.1250012E+03  0.7818608E-02  0.1235067E+00
          4   -1    0    0  501    0  0.00000000000E+00  0.00000000000E+00  0.17697847241E+02  0.17743356418E+02  0.12700000000E+01 0. -1.
         -4   -1    0    0    0  501 -0.00000000000E+00 -0.00000000000E+00 -0.22039230722E+03  0.22039596634E+03  0.12700000000E+01 0. -1.
         25    2    1    2    0    0  0.00000000000E+00  0.00000000000E+00 -0.20269445998E+03  0.23813932276E+03  0.12500117176E+03 0.  0.
    9000005    1    3    3    0    0  0.66726324125E+01  0.50445584101E+02 -0.32235470888E+02  0.60244556285E+02  0.10000000000E+01 0.  0.
    9000005    1    3    3    0    0 -0.66726324125E+01 -0.50445584101E+02 -0.17045898909E+03  0.17789476648E+03  0.10000000000E+01 0.  0.
<mgrwt>
<rscale>  0 0.12500117E+03</rscale>
<asrwt>0</asrwt>
<pdfrwt beam="1">  1        4 0.27265281E-02 0.12500117E+03</pdfrwt>
<pdfrwt beam="2">  1       -4 0.33910289E-01 0.12500117E+03</pdfrwt>
<totfact> 0.84073069E+03</totfact>
</mgrwt>
</event>
<event>
 5    1  0.3259432E-002  0.1249989E+03  0.7818608E-02  0.1235071E+00
         -4   -1    0    0    0  501 -0.00000000000E+00  0.00000000000E+00  0.44410991275E+02  0.44429146357E+02  0.12700000000E+01 0.  1.
          4   -1    0    0  501    0  0.00000000000E+00 -0.00000000000E+00 -0.87914559812E+02  0.87923732444E+02  0.12700000000E+01 0.  1.
         25    2    1    2    0    0  0.00000000000E+00  0.00000000000E+00 -0.43503568536E+02  0.13235287880E+03  0.12499889620E+03 0.  0.
    9000005    1    3    3    0    0 -0.14612195646E+02 -0.46722587907E+02  0.19374886458E+02  0.52658358383E+02  0.10000000000E+01 0.  0.
    9000005    1    3    3    0    0  0.14612195646E+02  0.46722587907E+02 -0.62878454994E+02  0.79694520419E+02  0.10000000000E+01 0.  0.
<mgrwt>
<rscale>  0 0.12499890E+03</rscale>
<asrwt>0</asrwt>
<pdfrwt beam="2">  1        4 0.13527419E-01 0.12499890E+03</pdfrwt>
<pdfrwt beam="1">  1       -4 0.68345623E-02 0.12499890E+03</pdfrwt>
<totfact> 0.10294429E+04</totfact>
</mgrwt>
</event>
<event>
 5    1  0.3259432E-002  0.1250114E+03  0.7818608E-02  0.1235051E+00
         -4   -1    0    0    0  501 -0.00000000000E+00  0.00000000000E+00  0.54278176682E+01  0.55744151836E+01  0.12700000000E+01 0. -1.
          4   -1    0    0  501    0  0.00000000000E+00 -0.00000000000E+00 -0.71006603143E+03  0.71006716717E+03  0.12700000000E+01 0. -1.
         25    2    1    2    0    0  0.00000000000E+00  0.00000000000E+00 -0.70463821376E+03  0.71564158235E+03  0.12501144787E+03 0.  0.
    9000005    1    3    3    0    0 -0.10638116002E+02 -0.55858489875E+02 -0.50078692419E+03  0.50400583711E+03  0.10000000000E+01 0.  0.
    9000005    1    3    3    0    0  0.10638116002E+02  0.55858489875E+02 -0.20385128957E+03  0.21163574524E+03  0.10000000000E+01 0.  0.
<mgrwt>
<rscale>  0 0.12501145E+03</rscale>
<asrwt>0</asrwt>
<pdfrwt beam="2">  1        4 0.10925222E+00 0.12501145E+03</pdfrwt>
<pdfrwt beam="1">  1       -4 0.84641353E-03 0.12501145E+03</pdfrwt>
<totfact> 0.42263197E+03</totfact>
</mgrwt>
</event>
<event>
 5    1  0.3259432E-002  0.1250286E+03  0.7818608E-02  0.1235025E+00
          4   -1    0    0  501    0  0.00000000000E+00  0.00000000000E+00  0.71619202637E+02  0.71630462000E+02  0.12700000000E+01 0.  1.
         -4   -1    0    0    0  501 -0.00000000000E+00 -0.00000000000E+00 -0.54543920943E+02  0.54558704272E+02  0.12700000000E+01 0.  1.
         25    2    1    2    0    0  0.00000000000E+00  0.00000000000E+00  0.17075281694E+02  0.12618916627E+03  0.12502855850E+03 0.  0.
    9000005    1    3    3    0    0  0.17022365537E+02 -0.54034845088E+02 -0.18117929038E+02  0.59487685825E+02  0.10000000000E+01 0.  0.
    9000005    1    3    3    0    0 -0.17022365537E+02  0.54034845088E+02  0.35193210732E+02  0.66701480447E+02  0.10000000000E+01 0.  0.
<mgrwt>
<rscale>  0 0.12502856E+03</rscale>
<asrwt>0</asrwt>
<pdfrwt beam="1">  1        4 0.11020342E-01 0.12502856E+03</pdfrwt>
<pdfrwt beam="2">  1       -4 0.83933757E-02 0.12502856E+03</pdfrwt>
<totfact> 0.10420098E+04</totfact>
</mgrwt>
</event>
<event>
 5    1  0.3259432E-002  0.1249989E+03  0.7818608E-02  0.1235071E+00
         -4   -1    0    0    0  501 -0.00000000000E+00  0.00000000000E+00  0.51771866792E+03  0.51772022562E+03  0.12700000000E+01 0.  1.
          4   -1    0    0  501    0  0.00000000000E+00 -0.00000000000E+00 -0.74899617451E+01  0.75968695489E+01  0.12700000000E+01 0.  1.
         25    2    1    2    0    0  0.00000000000E+00  0.00000000000E+00  0.51022870618E+03  0.52531709517E+03  0.12499887147E+03 0.  0.
    9000005    1    3    3    0    0 -0.11277626603E+02  0.57528174954E+02  0.34607885604E+03  0.35101032801E+03  0.10000000000E+01 0.  0.
    9000005    1    3    3    0    0  0.11277626603E+02 -0.57528174954E+02  0.16414985014E+03  0.17430676716E+03  0.10000000000E+01 0.  0.
<mgrwt>
<rscale>  0 0.12499887E+03</rscale>
<asrwt>0</asrwt>
<pdfrwt beam="2">  1        4 0.11606453E-02 0.12499887E+03</pdfrwt>
<pdfrwt beam="1">  1       -4 0.79657371E-01 0.12499887E+03</pdfrwt>
<totfact> 0.53953554E+03</totfact>
</mgrwt>
</event>
<event>
 5    1  0.3259432E-002  0.1250175E+03  0.7818608E-02  0.1235042E+00
          4   -1    0    0  501    0  0.00000000000E+00  0.00000000000E+00  0.55375303634E+02  0.55389865071E+02  0.12700000000E+01 0. -1.
         -4   -1    0    0    0  501 -0.00000000000E+00 -0.00000000000E+00 -0.70531573315E+02  0.70543006275E+02  0.12700000000E+01 0. -1.
         25    2    1    2    0    0  0.00000000000E+00  0.00000000000E+00 -0.15156269681E+02  0.12593287135E+03  0.12501750107E+03 0.  0.
    9000005    1    3    3    0    0  0.23394761465E+01  0.49838183512E+02  0.30340896404E+02  0.58402805403E+02  0.10000000000E+01 0.  0.
    9000005    1    3    3    0    0 -0.23394761465E+01 -0.49838183512E+02 -0.45497166085E+02  0.67530065942E+02  0.10000000000E+01 0.  0.
<mgrwt>
<rscale>  0 0.12501750E+03</rscale>
<asrwt>0</asrwt>
<pdfrwt beam="1">  1        4 0.85212770E-02 0.12501750E+03</pdfrwt>
<pdfrwt beam="2">  1       -4 0.10853011E-01 0.12501750E+03</pdfrwt>
<totfact> 0.10428310E+04</totfact>
</mgrwt>
</event>
<event>
 5    1  0.3259432E-002  0.1250015E+03  0.7818608E-02  0.1235067E+00
         -4   -1    0    0    0  501 -0.00000000000E+00  0.00000000000E+00  0.80150557631E+02  0.80160618688E+02  0.12700000000E+01 0.  1.
          4   -1    0    0  501    0  0.00000000000E+00 -0.00000000000E+00 -0.48716141536E+02  0.48732692786E+02  0.12700000000E+01 0.  1.
         25    2    1    2    0    0  0.00000000000E+00  0.00000000000E+00  0.31434416094E+02  0.12889331147E+03  0.12500145290E+03 0.  0.
    9000005    1    3    3    0    0 -0.75079129699E+01 -0.45237871715E+02 -0.28060578780E+02  0.53770157856E+02  0.10000000000E+01 0.  0.
    9000005    1    3    3    0    0  0.75079129699E+01  0.45237871715E+02  0.59494994874E+02  0.75123153618E+02  0.10000000000E+01 0.  0.
<mgrwt>
<rscale>  0 0.12500145E+03</rscale>
<asrwt>0</asrwt>
<pdfrwt beam="2">  1        4 0.74968382E-02 0.12500145E+03</pdfrwt>
<pdfrwt beam="1">  1       -4 0.12332902E-01 0.12500145E+03</pdfrwt>
<totfact> 0.10367900E+04</totfact>
</mgrwt>
</event>
<event>
 4    1  0.3259432E-002  0.1250663E+03  0.7818608E-02  0.1234966E+00
          4   -1    0    0  501    0  0.00000000000E+00  0.00000000000E+00  0.12560957962E+02  0.12624997620E+02  0.12700000000E+01 0.  1.
         -4   -1    0    0    0  501 -0.00000000000E+00 -0.00000000000E+00 -0.31045645153E+03  0.31045904915E+03  0.12700000000E+01 0.  1.
    9000005    1    1    2    0    0  0.14863434790E+02 -0.38341407907E+02 -0.27274234236E+02  0.49354524688E+02  0.10000000000E+01 0.  0.
    9000005    1    1    2    0    0 -0.14863434790E+02  0.38341407907E+02 -0.27062125933E+03  0.27372952208E+03  0.10000000000E+01 0.  0.
<mgrwt>
<rscale>  0 0.12506629E+03</rscale>
<asrwt>0</asrwt>
<pdfrwt beam="1">  1        4 0.19375812E-02 0.12506629E+03</pdfrwt>
<pdfrwt beam="2">  1       -4 0.47767651E-01 0.12506629E+03</pdfrwt>
<totfact> 0.72683980E+03</totfact>
</mgrwt>
</event>
<event>
 5    1  0.3259432E-002  0.1250010E+03  0.7818608E-02  0.1235068E+00
          4   -1    0    0  501    0  0.00000000000E+00  0.00000000000E+00  0.37774811498E+02  0.37796154350E+02  0.12700000000E+01 0. -1.
         -4   -1    0    0    0  501 -0.00000000000E+00 -0.00000000000E+00 -0.10335605922E+03  0.10336386156E+03  0.12700000000E+01 0. -1.
         25    2    1    2    0    0  0.00000000000E+00  0.00000000000E+00 -0.65581247722E+02  0.14116001591E+03  0.12500100016E+03 0.  0.
    9000005    1    3    3    0    0  0.52273308552E+01  0.70911440676E+01 -0.10265685853E+03  0.10303902132E+03  0.10000000000E+01 0.  0.
    9000005    1    3    3    0    0 -0.52273308552E+01 -0.70911440676E+01  0.37075610806E+02  0.38120994593E+02  0.10000000000E+01 0.  0.
<mgrwt>
<rscale>  0 0.12500100E+03</rscale>
<asrwt>0</asrwt>
<pdfrwt beam="1">  1        4 0.58137514E-02 0.12500100E+03</pdfrwt>
<pdfrwt beam="2">  1       -4 0.15903174E-01 0.12500100E+03</pdfrwt>
<totfact> 0.10109373E+04</totfact>
</mgrwt>
</event>
<event>
 5    1  0.3259432E-002  0.1249941E+03  0.7818608E-02  0.1235078E+00
         -4   -1    0    0    0  501 -0.00000000000E+00  0.00000000000E+00  0.66813100975E+02  0.66825170122E+02  0.12700000000E+01 0. -1.
          4   -1    0    0  501    0  0.00000000000E+00 -0.00000000000E+00 -0.58435591275E+02  0.58449390310E+02  0.12700000000E+01 0. -1.
         25    2    1    2    0    0  0.00000000000E+00  0.00000000000E+00  0.83775097002E+01  0.12527456043E+03  0.12499413115E+03 0.  0.
    9000005    1    3    3    0    0  0.34020881525E+02  0.47572075406E+02  0.26246322015E+02  0.64112340135E+02  0.10000000000E+01 0.  0.
    9000005    1    3    3    0    0 -0.34020881525E+02 -0.47572075406E+02 -0.17868812315E+02  0.61162220298E+02  0.10000000000E+01 0.  0.
<mgrwt>
<rscale>  0 0.12499413E+03</rscale>
<asrwt>0</asrwt>
<pdfrwt beam="2">  1        4 0.89920808E-02 0.12499413E+03</pdfrwt>
<pdfrwt beam="1">  1       -4 0.10280929E-01 0.12499413E+03</pdfrwt>
<totfact> 0.10448288E+04</totfact>
</mgrwt>
</event>
<event>
 5    1  0.3259432E-002  0.1249996E+03  0.7818608E-02  0.1235070E+00
         -4   -1    0    0    0  501 -0.00000000000E+00  0.00000000000E+00  0.14322622210E+02  0.14378817996E+02  0.12700000000E+01 0.  1.
          4   -1    0    0  501    0  0.00000000000E+00 -0.00000000000E+00 -0.27213946824E+03  0.27214243160E+03  0.12700000000E+01 0.  1.
         25    2    1    2    0    0  0.00000000000E+00  0.00000000000E+00 -0.25781684603E+03  0.28652124959E+03  0.12499960148E+03 0.  0.
    9000005    1    3    3    0    0 -0.43328098763E+02  0.20287204565E+02 -0.22106222610E+03  0.22618223321E+03  0.10000000000E+01 0.  0.
    9000005    1    3    3    0    0  0.43328098763E+02 -0.20287204565E+02 -0.36754619927E+02  0.60339016378E+02  0.10000000000E+01 0.  0.
<mgrwt>
<rscale>  0 0.12499960E+03</rscale>
<asrwt>0</asrwt>
<pdfrwt beam="2">  1        4 0.41872157E-01 0.12499960E+03</pdfrwt>
<pdfrwt beam="1">  1       -4 0.22080312E-02 0.12499960E+03</pdfrwt>
<totfact> 0.77321991E+03</totfact>
</mgrwt>
</event>
<event>
 5    1  0.3259432E-002  0.1249995E+03  0.7818608E-02  0.1235070E+00
          4   -1    0    0  501    0  0.00000000000E+00  0.00000000000E+00  0.10430415182E+03  0.10431188325E+03  0.12700000000E+01 0.  1.
         -4   -1    0    0    0  501 -0.00000000000E+00 -0.00000000000E+00 -0.37430357715E+02  0.37451896864E+02  0.12700000000E+01 0.  1.
         25    2    1    2    0    0  0.00000000000E+00  0.00000000000E+00  0.66873794106E+02  0.14176378011E+03  0.12499946006E+03 0.  0.
    9000005    1    3    3    0    0 -0.27185258738E+02 -0.13866153378E+02 -0.28410424257E+02  0.41706842468E+02  0.10000000000E+01 0.  0.
    9000005    1    3    3    0    0  0.27185258738E+02  0.13866153378E+02  0.95284218363E+02  0.10005693765E+03  0.10000000000E+01 0.  0.
<mgrwt>
<rscale>  0 0.12499946E+03</rscale>
<asrwt>0</asrwt>
<pdfrwt beam="1">  1        4 0.16049044E-01 0.12499946E+03</pdfrwt>
<pdfrwt beam="2">  1       -4 0.57607682E-02 0.12499946E+03</pdfrwt>
<totfact> 0.10097283E+04</totfact>
</mgrwt>
</event>
<event>
 5    1  0.3259432E-002  0.1249998E+03  0.7818608E-02  0.1235070E+00
          4   -1    0    0  501    0  0.00000000000E+00  0.00000000000E+00  0.13798580796E+02  0.13856901962E+02  0.12700000000E+01 0. -1.
         -4   -1    0    0    0  501 -0.00000000000E+00 -0.00000000000E+00 -0.28243315651E+03  0.28243601186E+03  0.12700000000E+01 0. -1.
         25    2    1    2    0    0  0.00000000000E+00  0.00000000000E+00 -0.26863457571E+03  0.29629291382E+03  0.12499982205E+03 0.  0.
    9000005    1    3    3    0    0  0.30847135634E+01  0.35594720475E+02 -0.25584788414E+03  0.25833242034E+03  0.10000000000E+01 0.  0.
    9000005    1    3    3    0    0 -0.30847135634E+01 -0.35594720475E+02 -0.12786691573E+02  0.37960493475E+02  0.10000000000E+01 0.  0.
<mgrwt>
<rscale>  0 0.12499982E+03</rscale>
<asrwt>0</asrwt>
<pdfrwt beam="1">  1        4 0.21275647E-02 0.12499982E+03</pdfrwt>
<pdfrwt beam="2">  1       -4 0.43455956E-01 0.12499982E+03</pdfrwt>
<totfact> 0.76066517E+03</totfact>
</mgrwt>
</event>
<event>
 5    1  0.3259432E-002  0.1249991E+03  0.7818608E-02  0.1235071E+00
          4   -1    0    0  501    0  0.00000000000E+00  0.00000000000E+00  0.33297965121E+03  0.33298207312E+03  0.12700000000E+01 0. -1.
         -4   -1    0    0    0  501 -0.00000000000E+00 -0.00000000000E+00 -0.11694185130E+02  0.11762944608E+02  0.12700000000E+01 0. -1.
         25    2    1    2    0    0  0.00000000000E+00  0.00000000000E+00  0.32128546608E+03  0.34474501772E+03  0.12499910613E+03 0.  0.
    9000005    1    3    3    0    0  0.50435088276E+02 -0.19429650556E+02  0.74128958543E+02  0.91745909690E+02  0.10000000000E+01 0.  0.
    9000005    1    3    3    0    0 -0.50435088276E+02  0.19429650556E+02  0.24715650753E+03  0.25299910803E+03  0.10000000000E+01 0.  0.
<mgrwt>
<rscale>  0 0.12499911E+03</rscale>
<asrwt>0</asrwt>
<pdfrwt beam="1">  1        4 0.51233117E-01 0.12499911E+03</pdfrwt>
<pdfrwt beam="2">  1       -4 0.18045808E-02 0.12499911E+03</pdfrwt>
<totfact> 0.70307951E+03</totfact>
</mgrwt>
</event>
<event>
 5    1  0.3259432E-002  0.1250002E+03  0.7818608E-02  0.1235069E+00
         -4   -1    0    0    0  501 -0.00000000000E+00  0.00000000000E+00  0.11108189522E+03  0.11108915494E+03  0.12700000000E+01 0. -1.
          4   -1    0    0  501    0  0.00000000000E+00 -0.00000000000E+00 -0.35145734287E+02  0.35168672687E+02  0.12700000000E+01 0. -1.
         25    2    1    2    0    0  0.00000000000E+00  0.00000000000E+00  0.75936160936E+02  0.14625782763E+03  0.12500020642E+03 0.  0.
    9000005    1    3    3    0    0 -0.35068463654E+02  0.51246844047E+02  0.46177432854E+02  0.77391158880E+02  0.10000000000E+01 0.  0.
    9000005    1    3    3    0    0  0.35068463654E+02 -0.51246844047E+02  0.29758728082E+02  0.68866668751E+02  0.10000000000E+01 0.  0.
<mgrwt>
<rscale>  0 0.12500021E+03</rscale>
<asrwt>0</asrwt>
<pdfrwt beam="2">  1        4 0.54093590E-02 0.12500021E+03</pdfrwt>
<pdfrwt beam="1">  1       -4 0.17091845E-01 0.12500021E+03</pdfrwt>
<totfact> 0.10005448E+04</totfact>
</mgrwt>
</event>
<event>
 5    1  0.3259432E-002  0.1249993E+03  0.7818608E-02  0.1235070E+00
         -4   -1    0    0    0  501 -0.00000000000E+00  0.00000000000E+00  0.16413266025E+03  0.16413757358E+03  0.12700000000E+01 0.  1.
          4   -1    0    0  501    0  0.00000000000E+00 -0.00000000000E+00 -0.23776854313E+02  0.23810747594E+02  0.12700000000E+01 0.  1.
         25    2    1    2    0    0  0.00000000000E+00  0.00000000000E+00  0.14035580594E+03  0.18794832118E+03  0.12499927669E+03 0.  0.
    9000005    1    3    3    0    0 -0.36261230665E+02 -0.36628953104E+02  0.12330926120E+03  0.13365152806E+03  0.10000000000E+01 0.  0.
    9000005    1    3    3    0    0  0.36261230665E+02  0.36628953104E+02  0.17046544734E+02  0.54296793112E+02  0.10000000000E+01 0.  0.
<mgrwt>
<rscale>  0 0.12499928E+03</rscale>
<asrwt>0</asrwt>
<pdfrwt beam="2">  1        4 0.36609628E-02 0.12499928E+03</pdfrwt>
<pdfrwt beam="1">  1       -4 0.25254163E-01 0.12499928E+03</pdfrwt>
<totfact> 0.92207025E+03</totfact>
</mgrwt>
</event>
<event>
 5    1  0.3259432E-002  0.1250069E+03  0.7818608E-02  0.1235059E+00
          4   -1    0    0  501    0  0.00000000000E+00  0.00000000000E+00  0.40892302553E+01  0.42819042587E+01  0.12700000000E+01 0.  1.
         -4   -1    0    0    0  501 -0.00000000000E+00 -0.00000000000E+00 -0.93317643184E+03  0.93317729604E+03  0.12700000000E+01 0.  1.
         25    2    1    2    0    0  0.00000000000E+00  0.00000000000E+00 -0.92908720158E+03  0.93745920029E+03  0.12500689610E+03 0.  0.
    9000005    1    3    3    0    0 -0.33192591746E+02 -0.50307665554E+02 -0.34061923146E+03  0.34591193995E+03  0.10000000000E+01 0.  0.
    9000005    1    3    3    0    0  0.33192591746E+02  0.50307665554E+02 -0.58846797012E+03  0.59154726034E+03  0.10000000000E+01 0.  0.
<mgrwt>
<rscale>  0 0.12500690E+03</rscale>
<asrwt>0</asrwt>
<pdfrwt beam="1">  1        4 0.64400065E-03 0.12500690E+03</pdfrwt>
<pdfrwt beam="2">  1       -4 0.14358033E+00 0.12500690E+03</pdfrwt>
<totfact> 0.32760556E+03</totfact>
</mgrwt>
</event>
<event>
 5    1  0.3259432E-002  0.1249940E+03  0.7818608E-02  0.1235079E+00
          4   -1    0    0  501    0  0.00000000000E+00  0.00000000000E+00  0.16466267110E+03  0.16466756861E+03  0.12700000000E+01 0. -1.
         -4   -1    0    0    0  501 -0.00000000000E+00 -0.00000000000E+00 -0.23698219163E+02  0.23732224748E+02  0.12700000000E+01 0. -1.
         25    2    1    2    0    0  0.00000000000E+00  0.00000000000E+00  0.14096445193E+03  0.18839979336E+03  0.12499402157E+03 0.  0.
    9000005    1    3    3    0    0 -0.37801892036E+02  0.42670758525E+02  0.31903767021E+02  0.65334730616E+02  0.10000000000E+01 0.  0.
    9000005    1    3    3    0    0  0.37801892036E+02 -0.42670758525E+02  0.10906068491E+03  0.12306506274E+03  0.10000000000E+01 0.  0.
<mgrwt>
<rscale>  0 0.12499402E+03</rscale>
<asrwt>0</asrwt>
<pdfrwt beam="1">  1        4 0.25335712E-01 0.12499402E+03</pdfrwt>
<pdfrwt beam="2">  1       -4 0.36488723E-02 0.12499402E+03</pdfrwt>
<totfact> 0.92138832E+03</totfact>
</mgrwt>
</event>
<event>
 5    1  0.3259432E-002  0.1250007E+03  0.7818608E-02  0.1235068E+00
          4   -1    0    0  501    0  0.00000000000E+00  0.00000000000E+00  0.13734570895E+02  0.13793162714E+02  0.12700000000E+01 0.  1.
         -4   -1    0    0    0  501 -0.00000000000E+00 -0.00000000000E+00 -0.28374793899E+03  0.28375078111E+03  0.12700000000E+01 0.  1.
         25    2    1    2    0    0  0.00000000000E+00  0.00000000000E+00 -0.27001336810E+03  0.29754394383E+03  0.12500071823E+03 0.  0.
    9000005    1    3    3    0    0  0.21986681303E+02 -0.31188239893E+02 -0.25280754507E+03  0.25567318066E+03  0.10000000000E+01 0.  0.
    9000005    1    3    3    0    0 -0.21986681303E+02  0.31188239893E+02 -0.17205823025E+02  0.41870763169E+02  0.10000000000E+01 0.  0.
<mgrwt>
<rscale>  0 0.12500072E+03</rscale>
<asrwt>0</asrwt>
<pdfrwt beam="1">  1        4 0.21177368E-02 0.12500072E+03</pdfrwt>
<pdfrwt beam="2">  1       -4 0.43658250E-01 0.12500072E+03</pdfrwt>
<totfact> 0.75906750E+03</totfact>
</mgrwt>
</event>
<event>
 5    1  0.3259432E-002  0.1250000E+03  0.7818608E-02  0.1235069E+00
         -4   -1    0    0    0  501 -0.00000000000E+00  0.00000000000E+00  0.31032152040E+01  0.33530351329E+01  0.12700000000E+01 0. -1.
          4   -1    0    0  501    0  0.00000000000E+00 -0.00000000000E+00 -0.12098177776E+04  0.12098184442E+04  0.12700000000E+01 0. -1.
         25    2    1    2    0    0  0.00000000000E+00  0.00000000000E+00 -0.12067145624E+04  0.12131714793E+04  0.12500001256E+03 0.  0.
    9000005    1    3    3    0    0 -0.17500100639E+02  0.41624027596E+02 -0.10226514971E+04  0.10236483272E+04  0.10000000000E+01 0.  0.
    9000005    1    3    3    0    0  0.17500100639E+02 -0.41624027596E+02 -0.18406306533E+03  0.18952315219E+03  0.10000000000E+01 0.  0.
<mgrwt>
<rscale>  0 0.12500001E+03</rscale>
<asrwt>0</asrwt>
<pdfrwt beam="2">  1        4 0.18614472E+00 0.12500001E+03</pdfrwt>
<pdfrwt beam="1">  1       -4 0.49668688E-03 0.12500001E+03</pdfrwt>
<totfact> 0.24370623E+03</totfact>
</mgrwt>
</event>
<event>
 5    1  0.3259432E-002  0.1249997E+03  0.7818608E-02  0.1235070E+00
         -4   -1    0    0    0  501 -0.00000000000E+00  0.00000000000E+00  0.67611214034E+02  0.67623140737E+02  0.12700000000E+01 0.  1.
          4   -1    0    0  501    0  0.00000000000E+00 -0.00000000000E+00 -0.57750925737E+02  0.57764888328E+02  0.12700000000E+01 0.  1.
         25    2    1    2    0    0  0.00000000000E+00  0.00000000000E+00  0.98602882970E+01  0.12538802907E+03  0.12499973019E+03 0.  0.
    9000005    1    3    3    0    0 -0.13658267416E+02 -0.54030333485E+02  0.33291776745E+02  0.64924322131E+02  0.10000000000E+01 0.  0.
    9000005    1    3    3    0    0  0.13658267416E+02  0.54030333485E+02 -0.23431488448E+02  0.60463706934E+02  0.10000000000E+01 0.  0.
<mgrwt>
<rscale>  0 0.12499973E+03</rscale>
<asrwt>0</asrwt>
<pdfrwt beam="2">  1        4 0.88867493E-02 0.12499973E+03</pdfrwt>
<pdfrwt beam="1">  1       -4 0.10403717E-01 0.12499973E+03</pdfrwt>
<totfact> 0.10444496E+04</totfact>
</mgrwt>
</event>
<event>
 5    1  0.3259432E-002  0.1249909E+03  0.7818608E-02  0.1235084E+00
          4   -1    0    0  501    0  0.00000000000E+00  0.00000000000E+00  0.79730454480E+02  0.79740568543E+02  0.12700000000E+01 0. -1.
         -4   -1    0    0    0  501 -0.00000000000E+00 -0.00000000000E+00 -0.48964600345E+02  0.48981067638E+02  0.12700000000E+01 0. -1.
         25    2    1    2    0    0  0.00000000000E+00  0.00000000000E+00  0.30765854135E+02  0.12872163618E+03  0.12499088703E+03 0.  0.
    9000005    1    3    3    0    0 -0.47790055607E+02 -0.37999320817E+02  0.29078074879E+02  0.67634105569E+02  0.10000000000E+01 0.  0.
    9000005    1    3    3    0    0  0.47790055607E+02  0.37999320817E+02  0.16877792558E+01  0.61087530612E+02  0.10000000000E+01 0.  0.
<mgrwt>
<rscale>  0 0.12499089E+03</rscale>
<asrwt>0</asrwt>
<pdfrwt beam="1">  1        4 0.12268268E-01 0.12499089E+03</pdfrwt>
<pdfrwt beam="2">  1       -4 0.75350602E-02 0.12499089E+03</pdfrwt>
<totfact> 0.10374066E+04</totfact>
</mgrwt>
</event>
<event>
 5    1  0.3259432E-002  0.1249989E+03  0.7818608E-02  0.1235071E+00
          4   -1    0    0  501    0  0.00000000000E+00  0.00000000000E+00  0.26476210368E+02  0.26506652286E+02  0.12700000000E+01 0.  1.
         -4   -1    0    0    0  501 -0.00000000000E+00 -0.00000000000E+00 -0.14741751280E+03  0.14742298322E+03  0.12700000000E+01 0.  1.
         25    2    1    2    0    0  0.00000000000E+00  0.00000000000E+00 -0.12094130243E+03  0.17392963550E+03  0.12499887788E+03 0.  0.
    9000005    1    3    3    0    0  0.35222796662E+02  0.39126728022E+02 -0.13621273075E+02  0.54388283026E+02  0.10000000000E+01 0.  0.
    9000005    1    3    3    0    0 -0.35222796662E+02 -0.39126728022E+02 -0.10732002936E+03  0.11954135248E+03  0.10000000000E+01 0.  0.
<mgrwt>
<rscale>  0 0.12499888E+03</rscale>
<asrwt>0</asrwt>
<pdfrwt beam="1">  1        4 0.40760257E-02 0.12499888E+03</pdfrwt>
<pdfrwt beam="2">  1       -4 0.22682379E-01 0.12499888E+03</pdfrwt>
<totfact> 0.94723627E+03</totfact>
</mgrwt>
</event>
<event>
 5    1  0.3259432E-002  0.1250053E+03  0.7818608E-02  0.1235061E+00
          4   -1    0    0  501    0  0.00000000000E+00  0.00000000000E+00  0.16586749150E+02  0.16635298235E+02  0.12700000000E+01 0. -1.
         -4   -1    0    0    0  501 -0.00000000000E+00 -0.00000000000E+00 -0.23512966932E+03  0.23513309910E+03  0.12700000000E+01 0. -1.
         25    2    1    2    0    0  0.00000000000E+00  0.00000000000E+00 -0.21854292017E+03  0.25176839734E+03  0.12500527166E+03 0.  0.
    9000005    1    3    3    0    0 -0.20770992895E+02  0.10503562067E+02  0.75410335671E+01  0.24487265041E+02  0.10000000000E+01 0.  0.
    9000005    1    3    3    0    0  0.20770992895E+02 -0.10503562067E+02 -0.22608395373E+03  0.22728113230E+03  0.10000000000E+01 0.  0.
<mgrwt>
<rscale>  0 0.12500527E+03</rscale>
<asrwt>0</asrwt>
<pdfrwt beam="1">  1        4 0.25558061E-02 0.12500527E+03</pdfrwt>
<pdfrwt beam="2">  1       -4 0.36177791E-01 0.12500527E+03</pdfrwt>
<totfact> 0.82065674E+03</totfact>
</mgrwt>
</event>
<event>
 5    1  0.3259432E-002  0.1250019E+03  0.7818608E-02  0.1235066E+00
          4   -1    0    0  501    0  0.00000000000E+00  0.00000000000E+00  0.76668083838E+02  0.76678601835E+02  0.12700000000E+01 0.  1.
         -4   -1    0    0    0  501 -0.00000000000E+00 -0.00000000000E+00 -0.50929766934E+02  0.50945599024E+02  0.12700000000E+01 0.  1.
         25    2    1    2    0    0  0.00000000000E+00  0.00000000000E+00  0.25738316904E+02  0.12762420086E+03  0.12500190274E+03 0.  0.
    9000005    1    3    3    0    0  0.52995190020E+02  0.26067411622E+02 -0.79890213324E+01  0.59605575039E+02  0.10000000000E+01 0.  0.
    9000005    1    3    3    0    0 -0.52995190020E+02 -0.26067411622E+02  0.33727338237E+02  0.68018625820E+02  0.10000000000E+01 0.  0.
<mgrwt>
<rscale>  0 0.12500190E+03</rscale>
<asrwt>0</asrwt>
<pdfrwt beam="1">  1        4 0.11797117E-01 0.12500190E+03</pdfrwt>
<pdfrwt beam="2">  1       -4 0.78373757E-02 0.12500190E+03</pdfrwt>
<totfact> 0.10395165E+04</totfact>
</mgrwt>
</event>
<event>
 5    1  0.3259432E-002  0.1250123E+03  0.7818608E-02  0.1235050E+00
          4   -1    0    0  501    0  0.00000000000E+00  0.00000000000E+00  0.96621153045E+02  0.96629499200E+02  0.12700000000E+01 0.  1.
         -4   -1    0    0    0  501 -0.00000000000E+00 -0.00000000000E+00 -0.40416414868E+02  0.40436363472E+02  0.12700000000E+01 0.  1.
         25    2    1    2    0    0  0.00000000000E+00  0.00000000000E+00  0.56204738176E+02  0.13706586267E+03  0.12501231186E+03 0.  0.
    9000005    1    3    3    0    0  0.51825534085E+02 -0.32293192610E+02  0.13503797021E+02  0.62546693007E+02  0.10000000000E+01 0.  0.
    9000005    1    3    3    0    0 -0.51825534085E+02  0.32293192610E+02  0.42700941155E+02  0.74519169665E+02  0.10000000000E+01 0.  0.
<mgrwt>
<rscale>  0 0.12501231E+03</rscale>
<asrwt>0</asrwt>
<pdfrwt beam="1">  1        4 0.14866969E-01 0.12501231E+03</pdfrwt>
<pdfrwt beam="2">  1       -4 0.62200865E-02 0.12501231E+03</pdfrwt>
<totfact> 0.10191879E+04</totfact>
</mgrwt>
</event>
<event>
 5    1  0.3259432E-002  0.1250022E+03  0.7818608E-02  0.1235066E+00
          4   -1    0    0  501    0  0.00000000000E+00  0.00000000000E+00  0.12086041858E+03  0.12086709097E+03  0.12700000000E+01 0.  1.
         -4   -1    0    0    0  501 -0.00000000000E+00 -0.00000000000E+00 -0.32301455211E+02  0.32326411938E+02  0.12700000000E+01 0.  1.
         25    2    1    2    0    0  0.00000000000E+00  0.00000000000E+00  0.88558963371E+02  0.15319350291E+03  0.12500223734E+03 0.  0.
    9000005    1    3    3    0    0 -0.58609695663E+01 -0.16535911827E+02  0.11778655780E+03  0.11909013621E+03  0.10000000000E+01 0.  0.
    9000005    1    3    3    0    0  0.58609695663E+01  0.16535911827E+02 -0.29227594428E+02  0.34103366700E+02  0.10000000000E+01 0.  0.
<mgrwt>
<rscale>  0 0.12500224E+03</rscale>
<asrwt>0</asrwt>
<pdfrwt beam="1">  1        4 0.18596343E-01 0.12500224E+03</pdfrwt>
<pdfrwt beam="2">  1       -4 0.49718877E-02 0.12500224E+03</pdfrwt>
<totfact> 0.98665922E+03</totfact>
</mgrwt>
</event>
<event>
 5    1  0.3259432E-002  0.1250059E+03  0.7818608E-02  0.1235060E+00
          4   -1    0    0  501    0  0.00000000000E+00  0.00000000000E+00  0.26055057283E+01  0.28985444796E+01  0.12700000000E+01 0. -1.
         -4   -1    0    0    0  501 -0.00000000000E+00 -0.00000000000E+00 -0.14192496931E+04  0.14192502613E+04  0.12700000000E+01 0. -1.
         25    2    1    2    0    0  0.00000000000E+00  0.00000000000E+00 -0.14166441873E+04  0.14221488058E+04  0.12500588878E+03 0.  0.
    9000005    1    3    3    0    0  0.51136285037E+02 -0.27435872245E+02 -0.44444959339E+03  0.44822325665E+03  0.10000000000E+01 0.  0.
    9000005    1    3    3    0    0 -0.51136285037E+02  0.27435872245E+02 -0.97219459394E+03  0.97392554911E+03  0.10000000000E+01 0.  0.
<mgrwt>
<rscale>  0 0.12500589E+03</rscale>
<asrwt>0</asrwt>
<pdfrwt beam="1">  1        4 0.42343332E-03 0.12500589E+03</pdfrwt>
<pdfrwt beam="2">  1       -4 0.21836811E+00 0.12500589E+03</pdfrwt>
<totfact> 0.19508127E+03</totfact>
</mgrwt>
</event>
<event>
 5    1  0.3259432E-002  0.1249997E+03  0.7818608E-02  0.1235070E+00
         -4   -1    0    0    0  501 -0.00000000000E+00  0.00000000000E+00  0.45526097603E+03  0.45526274743E+03  0.12700000000E+01 0.  1.
          4   -1    0    0  501    0  0.00000000000E+00 -0.00000000000E+00 -0.85314060182E+01  0.86254152739E+01  0.12700000000E+01 0.  1.
         25    2    1    2    0    0  0.00000000000E+00  0.00000000000E+00  0.44672957001E+03  0.46388816270E+03  0.12499967509E+03 0.  0.
    9000005    1    3    3    0    0 -0.61507651723E+02  0.10991453918E+02  0.22747460544E+03  0.23590188511E+03  0.10000000000E+01 0.  0.
    9000005    1    3    3    0    0  0.61507651723E+02 -0.10991453918E+02  0.21925496458E+03  0.22798627759E+03  0.10000000000E+01 0.  0.
<mgrwt>
<rscale>  0 0.12499968E+03</rscale>
<asrwt>0</asrwt>
<pdfrwt beam="2">  1        4 0.13198923E-02 0.12499968E+03</pdfrwt>
<pdfrwt beam="1">  1       -4 0.70047488E-01 0.12499968E+03</pdfrwt>
<totfact> 0.58779701E+03</totfact>
</mgrwt>
</event>
<event>
 5    1  0.3259432E-002  0.1250044E+03  0.7818608E-02  0.1235062E+00
          4   -1    0    0  501    0  0.00000000000E+00  0.00000000000E+00  0.19788978695E+02  0.19829689301E+02  0.12700000000E+01 0. -1.
         -4   -1    0    0    0  501 -0.00000000000E+00 -0.00000000000E+00 -0.19716347027E+03  0.19716756048E+03  0.12700000000E+01 0. -1.
         25    2    1    2    0    0  0.00000000000E+00  0.00000000000E+00 -0.17737449157E+03  0.21699724979E+03  0.12500438454E+03 0.  0.
    9000005    1    3    3    0    0  0.31913476718E+02  0.40978240189E+01 -0.18168870121E+03  0.18451841725E+03  0.10000000000E+01 0.  0.
    9000005    1    3    3    0    0 -0.31913476718E+02 -0.40978240189E+01  0.43142096390E+01  0.32478832533E+02  0.10000000000E+01 0.  0.
<mgrwt>
<rscale>  0 0.12500438E+03</rscale>
<asrwt>0</asrwt>
<pdfrwt beam="1">  1        4 0.30479046E-02 0.12500438E+03</pdfrwt>
<pdfrwt beam="2">  1       -4 0.30336286E-01 0.12500438E+03</pdfrwt>
<totfact> 0.87337181E+03</totfact>
</mgrwt>
</event>
<event>
 5    1  0.3259432E-002  0.1250533E+03  0.7818608E-02  0.1234986E+00
         -4   -1    0    0    0  501 -0.00000000000E+00  0.00000000000E+00  0.23718576216E+03  0.23718916221E+03  0.12700000000E+01 0.  1.
          4   -1    0    0  501    0  0.00000000000E+00 -0.00000000000E+00 -0.16455222231E+02  0.16504158224E+02  0.12700000000E+01 0.  1.
         25    2    1    2    0    0  0.00000000000E+00  0.00000000000E+00  0.22073053993E+03  0.25369332044E+03  0.12505330694E+03 0.  0.
    9000005    1    3    3    0    0  0.37666400825E+02  0.28629313884E+02  0.27457276353E+02  0.54711035352E+02  0.10000000000E+01 0.  0.
    9000005    1    3    3    0    0 -0.37666400825E+02 -0.28629313884E+02  0.19327326358E+03  0.19898228508E+03  0.10000000000E+01 0.  0.
<mgrwt>
<rscale>  0 0.12505331E+03</rscale>
<asrwt>0</asrwt>
<pdfrwt beam="2">  1        4 0.25355987E-02 0.12505331E+03</pdfrwt>
<pdfrwt beam="1">  1       -4 0.36494140E-01 0.12505331E+03</pdfrwt>
<totfact> 0.81702310E+03</totfact>
</mgrwt>
</event>
<event>
 5    1  0.3259432E-002  0.1250004E+03  0.7818608E-02  0.1235069E+00
         -4   -1    0    0    0  501 -0.00000000000E+00  0.00000000000E+00  0.78608387347E+02  0.78618645761E+02  0.12700000000E+01 0. -1.
          4   -1    0    0  501    0  0.00000000000E+00 -0.00000000000E+00 -0.49671242964E+02  0.49687476064E+02  0.12700000000E+01 0. -1.
         25    2    1    2    0    0  0.00000000000E+00  0.00000000000E+00  0.28937144383E+02  0.12830612183E+03  0.12500041029E+03 0.  0.
    9000005    1    3    3    0    0 -0.21347941985E+02 -0.34009323757E+02  0.63619209294E+02  0.75238105509E+02  0.10000000000E+01 0.  0.
    9000005    1    3    3    0    0  0.21347941985E+02  0.34009323757E+02 -0.34682064910E+02  0.53068016317E+02  0.10000000000E+01 0.  0.
<mgrwt>
<rscale>  0 0.12500041E+03</rscale>
<asrwt>0</asrwt>
<pdfrwt beam="2">  1        4 0.76437675E-02 0.12500041E+03</pdfrwt>
<pdfrwt beam="1">  1       -4 0.12095636E-01 0.12500041E+03</pdfrwt>
<totfact> 0.10380786E+04</totfact>
</mgrwt>
</event>
<event>
 5    1  0.3259432E-002  0.1249995E+03  0.7818608E-02  0.1235070E+00
          4   -1    0    0  501    0  0.00000000000E+00  0.00000000000E+00  0.12055835730E+04  0.12055842419E+04  0.12700000000E+01 0. -1.
         -4   -1    0    0    0  501 -0.00000000000E+00 -0.00000000000E+00 -0.31149606947E+01  0.33639084604E+01  0.12700000000E+01 0. -1.
         25    2    1    2    0    0  0.00000000000E+00  0.00000000000E+00  0.12024686123E+04  0.12089481504E+04  0.12499946700E+03 0.  0.
    9000005    1    3    3    0    0 -0.41061157809E+02 -0.20718255573E+01  0.10564079629E+04  0.10572081608E+04  0.10000000000E+01 0.  0.
    9000005    1    3    3    0    0  0.41061157809E+02  0.20718255573E+01  0.14606064939E+03  0.15173998960E+03  0.10000000000E+01 0.  0.
<mgrwt>
<rscale>  0 0.12499947E+03</rscale>
<asrwt>0</asrwt>
<pdfrwt beam="1">  1        4 0.18549354E+00 0.12499947E+03</pdfrwt>
<pdfrwt beam="2">  1       -4 0.49842615E-03 0.12499947E+03</pdfrwt>
<totfact> 0.24480020E+03</totfact>
</mgrwt>
</event>
<event>
 5    1  0.3259432E-002  0.1250010E+03  0.7818608E-02  0.1235068E+00
         -4   -1    0    0    0  501 -0.00000000000E+00  0.00000000000E+00  0.44913299921E+01  0.46674345307E+01  0.12700000000E+01 0.  1.
          4   -1    0    0  501    0  0.00000000000E+00 -0.00000000000E+00 -0.85284553188E+03  0.85284647748E+03  0.12700000000E+01 0.  1.
         25    2    1    2    0    0  0.00000000000E+00  0.00000000000E+00 -0.84835420189E+03  0.85751391201E+03  0.12500102971E+03 0.  0.
    9000005    1    3    3    0    0 -0.89213630651E+01  0.13207859828E+02 -0.96528722526E+01  0.18660552588E+02  0.10000000000E+01 0.  0.
    9000005    1    3    3    0    0  0.89213630651E+01 -0.13207859828E+02 -0.83870132964E+03  0.83885335943E+03  0.10000000000E+01 0.  0.
<mgrwt>
<rscale>  0 0.12500103E+03</rscale>
<asrwt>0</asrwt>
<pdfrwt beam="2">  1        4 0.13122050E+00 0.12500103E+03</pdfrwt>
<pdfrwt beam="1">  1       -4 0.70459377E-03 0.12500103E+03</pdfrwt>
<totfact> 0.35821031E+03</totfact>
</mgrwt>
</event>
<event>
 5    1  0.3259432E-002  0.1250003E+03  0.7818608E-02  0.1235069E+00
         -4   -1    0    0    0  501 -0.00000000000E+00  0.00000000000E+00  0.17700531976E+02  0.17746034267E+02  0.12700000000E+01 0.  1.
          4   -1    0    0  501    0  0.00000000000E+00 -0.00000000000E+00 -0.22035573381E+03  0.22035939354E+03  0.12700000000E+01 0.  1.
         25    2    1    2    0    0  0.00000000000E+00  0.00000000000E+00 -0.20265520183E+03  0.23810542781E+03  0.12500025569E+03 0.  0.
    9000005    1    3    3    0    0 -0.19899021853E+02 -0.34783914192E+02 -0.19266806703E+03  0.19679399333E+03  0.10000000000E+01 0.  0.
    9000005    1    3    3    0    0  0.19899021853E+02  0.34783914192E+02 -0.99871348017E+01  0.41311434480E+02  0.10000000000E+01 0.  0.
<mgrwt>
<rscale>  0 0.12500026E+03</rscale>
<asrwt>0</asrwt>
<pdfrwt beam="2">  1        4 0.33904662E-01 0.12500026E+03</pdfrwt>
<pdfrwt beam="1">  1       -4 0.27269406E-02 0.12500026E+03</pdfrwt>
<totfact> 0.84079863E+03</totfact>
</mgrwt>
</event>
<event>
 5    1  0.3259432E-002  0.1249994E+03  0.7818608E-02  0.1235070E+00
         -4   -1    0    0    0  501 -0.00000000000E+00  0.00000000000E+00  0.32687547707E+03  0.32687794421E+03  0.12700000000E+01 0. -1.
          4   -1    0    0  501    0  0.00000000000E+00 -0.00000000000E+00 -0.11913887858E+02  0.11981386559E+02  0.12700000000E+01 0. -1.
         25    2    1    2    0    0  0.00000000000E+00  0.00000000000E+00  0.31496158921E+03  0.33885933077E+03  0.12499937347E+03 0.  0.
    9000005    1    3    3    0    0 -0.12854604555E+01  0.60489926177E+02  0.19987195037E+03  0.20883122401E+03  0.10000000000E+01 0.  0.
    9000005    1    3    3    0    0  0.12854604555E+01 -0.60489926177E+02  0.11508963884E+03  0.13002810675E+03  0.10000000000E+01 0.  0.
<mgrwt>
<rscale>  0 0.12499937E+03</rscale>
<asrwt>0</asrwt>
<pdfrwt beam="2">  1        4 0.18382880E-02 0.12499937E+03</pdfrwt>
<pdfrwt beam="1">  1       -4 0.50293911E-01 0.12499937E+03</pdfrwt>
<totfact> 0.70968795E+03</totfact>
</mgrwt>
</event>
<event>
 5    1  0.3259432E-002  0.1249627E+03  0.7818608E-02  0.1235128E+00
         -4   -1    0    0    0  501 -0.00000000000E+00  0.00000000000E+00  0.75375509330E+01  0.76437931728E+01  0.12700000000E+01 0.  1.
          4   -1    0    0  501    0  0.00000000000E+00 -0.00000000000E+00 -0.51419763945E+03  0.51419920781E+03  0.12700000000E+01 0.  1.
         25    2    1    2    0    0  0.00000000000E+00  0.00000000000E+00 -0.50666008851E+03  0.52184300098E+03  0.12496268396E+03 0.  0.
    9000005    1    3    3    0    0 -0.26799691648E+02  0.51862715050E+02 -0.34623559866E+03  0.35112398731E+03  0.10000000000E+01 0.  0.
    9000005    1    3    3    0    0  0.26799691648E+02 -0.51862715050E+02 -0.16042448985E+03  0.17071901367E+03  0.10000000000E+01 0.  0.
<mgrwt>
<rscale>  0 0.12496268E+03</rscale>
<asrwt>0</asrwt>
<pdfrwt beam="2">  1        4 0.79115595E-01 0.12496268E+03</pdfrwt>
<pdfrwt beam="1">  1       -4 0.11679167E-02 0.12496268E+03</pdfrwt>
<totfact> 0.54253056E+03</totfact>
</mgrwt>
</event>
<event>
 5    1  0.3259432E-002  0.1250163E+03  0.7818608E-02  0.1235044E+00
          4   -1    0    0  501    0  0.00000000000E+00  0.00000000000E+00  0.81039754014E+03  0.81039853527E+03  0.12700000000E+01 0.  1.
         -4   -1    0    0    0  501 -0.00000000000E+00 -0.00000000000E+00 -0.47367770095E+01  0.49040754927E+01  0.12700000000E+01 0.  1.
         25    2    1    2    0    0  0.00000000000E+00  0.00000000000E+00  0.80566076313E+03  0.81530261076E+03  0.12501632640E+03 0.  0.
    9000005    1    3    3    0    0  0.36286364265E+02  0.41001926312E+02  0.59938968150E+03  0.60188607600E+03  0.10000000000E+01 0.  0.
    9000005    1    3    3    0    0 -0.36286364265E+02 -0.41001926312E+02  0.20627108164E+03  0.21341653477E+03  0.10000000000E+01 0.  0.
<mgrwt>
<rscale>  0 0.12501633E+03</rscale>
<asrwt>0</asrwt>
<pdfrwt beam="1">  1        4 0.12468955E+00 0.12501633E+03</pdfrwt>
<pdfrwt beam="2">  1       -4 0.74168025E-03 0.12501633E+03</pdfrwt>
<totfact> 0.37577223E+03</totfact>
</mgrwt>
</event>
<event>
 5    1  0.3259432E-002  0.1249810E+03  0.7818608E-02  0.1235099E+00
          4   -1    0    0  501    0  0.00000000000E+00  0.00000000000E+00  0.15681480008E+03  0.15681994268E+03  0.12700000000E+01 0.  1.
         -4   -1    0    0    0  501 -0.00000000000E+00 -0.00000000000E+00 -0.24880654039E+02  0.24913045687E+02  0.12700000000E+01 0.  1.
         25    2    1    2    0    0  0.00000000000E+00  0.00000000000E+00  0.13193414604E+03  0.18173298837E+03  0.12498103925E+03 0.  0.
    9000005    1    3    3    0    0  0.16557571791E+02  0.60248500204E+02  0.65714872515E+02  0.90683402175E+02  0.10000000000E+01 0.  0.
    9000005    1    3    3    0    0 -0.16557571791E+02 -0.60248500204E+02  0.66219273523E+02  0.91049586195E+02  0.10000000000E+01 0.  0.
<mgrwt>
<rscale>  0 0.12498104E+03</rscale>
<asrwt>0</asrwt>
<pdfrwt beam="1">  1        4 0.24128241E-01 0.12498104E+03</pdfrwt>
<pdfrwt beam="2">  1       -4 0.38306802E-02 0.12498104E+03</pdfrwt>
<totfact> 0.93345658E+03</totfact>
</mgrwt>
</event>
<event>
 5    1  0.3259432E-002  0.1249991E+03  0.7818608E-02  0.1235071E+00
          4   -1    0    0  501    0  0.00000000000E+00  0.00000000000E+00  0.60578243925E+02  0.60591554998E+02  0.12700000000E+01 0.  1.
         -4   -1    0    0    0  501 -0.00000000000E+00 -0.00000000000E+00 -0.64455180093E+02  0.64467690674E+02  0.12700000000E+01 0.  1.
         25    2    1    2    0    0  0.00000000000E+00  0.00000000000E+00 -0.38769361679E+01  0.12505924567E+03  0.12499913717E+03 0.  0.
    9000005    1    3    3    0    0 -0.51141703048E+02 -0.17007599289E+02 -0.33583787948E+02  0.63510652942E+02  0.10000000000E+01 0.  0.
    9000005    1    3    3    0    0  0.51141703048E+02  0.17007599289E+02  0.29706851780E+02  0.61548592729E+02  0.10000000000E+01 0.  0.
<mgrwt>
<rscale>  0 0.12499914E+03</rscale>
<asrwt>0</asrwt>
<pdfrwt beam="1">  1        4 0.93217161E-02 0.12499914E+03</pdfrwt>
<pdfrwt beam="2">  1       -4 0.99181679E-02 0.12499914E+03</pdfrwt>
<totfact> 0.10451780E+04</totfact>
</mgrwt>
</event>
<event>
 5    1  0.3259432E-002  0.1250020E+03  0.7818608E-02  0.1235066E+00
          4   -1    0    0  501    0  0.00000000000E+00  0.00000000000E+00  0.16206033504E+03  0.16206531120E+03  0.12700000000E+01 0.  1.
         -4   -1    0    0    0  501 -0.00000000000E+00 -0.00000000000E+00 -0.24082368316E+02  0.24115832221E+02  0.12700000000E+01 0.  1.
         25    2    1    2    0    0  0.00000000000E+00  0.00000000000E+00  0.13797796673E+03  0.18618114342E+03  0.12500199544E+03 0.  0.
    9000005    1    3    3    0    0  0.22485936913E+02 -0.57575472978E+02  0.55271523802E+02  0.82924627168E+02  0.10000000000E+01 0.  0.
    9000005    1    3    3    0    0 -0.22485936913E+02  0.57575472978E+02  0.82706442925E+02  0.10325651625E+03  0.10000000000E+01 0.  0.
<mgrwt>
<rscale>  0 0.12500200E+03</rscale>
<asrwt>0</asrwt>
<pdfrwt beam="1">  1        4 0.24935317E-01 0.12500200E+03</pdfrwt>
<pdfrwt beam="2">  1       -4 0.37079365E-02 0.12500200E+03</pdfrwt>
<totfact> 0.92511923E+03</totfact>
</mgrwt>
</event>
<event>
 5    1  0.3259432E-002  0.1249998E+03  0.7818608E-02  0.1235070E+00
          4   -1    0    0  501    0  0.00000000000E+00  0.00000000000E+00  0.13722151735E+03  0.13722739422E+03  0.12700000000E+01 0. -1.
         -4   -1    0    0    0  501 -0.00000000000E+00 -0.00000000000E+00 -0.28445991882E+02  0.28474327984E+02  0.12700000000E+01 0. -1.
         25    2    1    2    0    0  0.00000000000E+00  0.00000000000E+00  0.10877552547E+03  0.16570172221E+03  0.12499978320E+03 0.  0.
    9000005    1    3    3    0    0 -0.57726513851E+02  0.20649278918E+02  0.38343244305E+02  0.72318375985E+02  0.10000000000E+01 0.  0.
    9000005    1    3    3    0    0  0.57726513851E+02 -0.20649278918E+02  0.70432281166E+02  0.93383346221E+02  0.10000000000E+01 0.  0.
<mgrwt>
<rscale>  0 0.12499978E+03</rscale>
<asrwt>0</asrwt>
<pdfrwt beam="1">  1        4 0.21113634E-01 0.12499978E+03</pdfrwt>
<pdfrwt beam="2">  1       -4 0.43789382E-02 0.12499978E+03</pdfrwt>
<totfact> 0.96255131E+03</totfact>
</mgrwt>
</event>
<event>
 5    1  0.3259432E-002  0.1250016E+03  0.7818608E-02  0.1235067E+00
          4   -1    0    0  501    0  0.00000000000E+00  0.00000000000E+00  0.78417040575E+02  0.78427324017E+02  0.12700000000E+01 0. -1.
         -4   -1    0    0    0  501 -0.00000000000E+00 -0.00000000000E+00 -0.49793383941E+02  0.49809577234E+02  0.12700000000E+01 0. -1.
         25    2    1    2    0    0  0.00000000000E+00  0.00000000000E+00  0.28623656634E+02  0.12823690125E+03  0.12500155648E+03 0.  0.
    9000005    1    3    3    0    0  0.52399009647E+02 -0.33697921189E+02  0.92712912857E+01  0.62993356368E+02  0.10000000000E+01 0.  0.
    9000005    1    3    3    0    0 -0.52399009647E+02  0.33697921189E+02  0.19352365349E+02  0.65243544884E+02  0.10000000000E+01 0.  0.
<mgrwt>
<rscale>  0 0.12500156E+03</rscale>
<asrwt>0</asrwt>
<pdfrwt beam="1">  1        4 0.12066197E-01 0.12500156E+03</pdfrwt>
<pdfrwt beam="2">  1       -4 0.76625573E-02 0.12500156E+03</pdfrwt>
<totfact> 0.10382010E+04</totfact>
</mgrwt>
</event>
<event>
 5    1  0.3259432E-002  0.1250007E+03  0.7818608E-02  0.1235068E+00
          4   -1    0    0  501    0  0.00000000000E+00  0.00000000000E+00  0.10867140428E+03  0.10867882502E+03  0.12700000000E+01 0. -1.
         -4   -1    0    0    0  501 -0.00000000000E+00 -0.00000000000E+00 -0.35926060099E+02  0.35948500584E+02  0.12700000000E+01 0. -1.
         25    2    1    2    0    0  0.00000000000E+00  0.00000000000E+00  0.72745344184E+02  0.14462732561E+03  0.12500071285E+03 0.  0.
    9000005    1    3    3    0    0 -0.22042475805E+02  0.35034188692E+02  0.90542949138E+02  0.99560487923E+02  0.10000000000E+01 0.  0.
    9000005    1    3    3    0    0  0.22042475805E+02 -0.35034188692E+02 -0.17797604954E+02  0.45066837686E+02  0.10000000000E+01 0.  0.
<mgrwt>
<rscale>  0 0.12500071E+03</rscale>
<asrwt>0</asrwt>
<pdfrwt beam="1">  1        4 0.16720975E-01 0.12500071E+03</pdfrwt>
<pdfrwt beam="2">  1       -4 0.55293832E-02 0.12500071E+03</pdfrwt>
<totfact> 0.10038405E+04</totfact>
</mgrwt>
</event>
<event>
 5    1  0.3259432E-002  0.1249999E+03  0.7818608E-02  0.1235069E+00
          4   -1    0    0  501    0  0.00000000000E+00  0.00000000000E+00  0.12646722483E+03  0.12647360142E+03  0.12700000000E+01 0.  1.
         -4   -1    0    0    0  501 -0.00000000000E+00 -0.00000000000E+00 -0.30867199856E+02  0.30893315247E+02  0.12700000000E+01 0.  1.
         25    2    1    2    0    0  0.00000000000E+00  0.00000000000E+00  0.95600024970E+02  0.15736691666E+03  0.12499992674E+03 0.  0.
    9000005    1    3    3    0    0 -0.51908742939E+02  0.14630789765E+02  0.80553425224E+01  0.54538666520E+02  0.10000000000E+01 0.  0.
    9000005    1    3    3    0    0  0.51908742939E+02 -0.14630789765E+02  0.87544682447E+02  0.10282825014E+03  0.10000000000E+01 0.  0.
<mgrwt>
<rscale>  0 0.12499993E+03</rscale>
<asrwt>0</asrwt>
<pdfrwt beam="1">  1        4 0.19458995E-01 0.12499993E+03</pdfrwt>
<pdfrwt beam="2">  1       -4 0.47512994E-02 0.12499993E+03</pdfrwt>
<totfact> 0.97852999E+03</totfact>
</mgrwt>
</event>
<event>
 5    1  0.3259432E-002  0.1250030E+03  0.7818608E-02  0.1235065E+00
         -4   -1    0    0    0  501 -0.00000000000E+00  0.00000000000E+00  0.23807124978E+01  0.26982757452E+01  0.12700000000E+01 0.  1.
          4   -1    0    0  501    0  0.00000000000E+00 -0.00000000000E+00 -0.15379568030E+04  0.15379573273E+04  0.12700000000E+01 0.  1.
         25    2    1    2    0    0  0.00000000000E+00  0.00000000000E+00 -0.15355760905E+04  0.15406556031E+04  0.12500303065E+03 0.  0.
    9000005    1    3    3    0    0  0.62463414527E+02 -0.15012723572E+01 -0.75265571854E+03  0.75524536584E+03  0.10000000000E+01 0.  0.
    9000005    1    3    3    0    0 -0.62463414527E+02  0.15012723572E+01 -0.78292037193E+03  0.78541023724E+03  0.10000000000E+01 0.  0.
<mgrwt>
<rscale>  0 0.12500303E+03</rscale>
<asrwt>0</asrwt>
<pdfrwt beam="2">  1        4 0.23663246E+00 0.12500303E+03</pdfrwt>
<pdfrwt beam="1">  1       -4 0.39073297E-03 0.12500303E+03</pdfrwt>
<totfact> 0.17143887E+03</totfact>
</mgrwt>
</event>
<event>
 5    1  0.3259432E-002  0.1250021E+03  0.7818608E-02  0.1235066E+00
          4   -1    0    0  501    0  0.00000000000E+00  0.00000000000E+00  0.18566082315E+04  0.18566086659E+04  0.12700000000E+01 0. -1.
         -4   -1    0    0    0  501 -0.00000000000E+00 -0.00000000000E+00 -0.19119242234E+01  0.22952895756E+01  0.12700000000E+01 0. -1.
         25    2    1    2    0    0  0.00000000000E+00  0.00000000000E+00  0.18546963073E+04  0.18589039554E+04  0.12500209333E+03 0.  0.
    9000005    1    3    3    0    0  0.48505691494E+02 -0.38075274046E+02  0.77653246271E+03  0.77897765965E+03  0.10000000000E+01 0.  0.
    9000005    1    3    3    0    0 -0.48505691494E+02  0.38075274046E+02  0.10781638446E+04  0.10799262958E+04  0.10000000000E+01 0.  0.
<mgrwt>
<rscale>  0 0.12500209E+03</rscale>
<asrwt>0</asrwt>
<pdfrwt beam="1">  1        4 0.28565946E+00 0.12500209E+03</pdfrwt>
<pdfrwt beam="2">  1       -4 0.32366762E-03 0.12500209E+03</pdfrwt>
<totfact> 0.11817000E+03</totfact>
</mgrwt>
</event>
<event>
 5    1  0.3259432E-002  0.1250019E+03  0.7818608E-02  0.1235066E+00
          4   -1    0    0  501    0  0.00000000000E+00  0.00000000000E+00  0.68111579178E+03  0.68111697579E+03  0.12700000000E+01 0. -1.
         -4   -1    0    0    0  501 -0.00000000000E+00 -0.00000000000E+00 -0.56637347787E+01  0.58043769384E+01  0.12700000000E+01 0. -1.
         25    2    1    2    0    0  0.00000000000E+00  0.00000000000E+00  0.67545205700E+03  0.68692135273E+03  0.12500185410E+03 0.  0.
    9000005    1    3    3    0    0 -0.46945283812E+02 -0.26601069948E+02  0.51097057264E+03  0.51381261438E+03  0.10000000000E+01 0.  0.
    9000005    1    3    3    0    0  0.46945283812E+02  0.26601069948E+02  0.16448148436E+03  0.17310873834E+03  0.10000000000E+01 0.  0.
<mgrwt>
<rscale>  0 0.12500185E+03</rscale>
<asrwt>0</asrwt>
<pdfrwt beam="1">  1        4 0.10479790E+00 0.12500185E+03</pdfrwt>
<pdfrwt beam="2">  1       -4 0.88225395E-03 0.12500185E+03</pdfrwt>
<totfact> 0.43784388E+03</totfact>
</mgrwt>
</event>
<event>
 5    1  0.3259432E-002  0.1249978E+03  0.7818608E-02  0.1235073E+00
          4   -1    0    0  501    0  0.00000000000E+00  0.00000000000E+00  0.56937269188E+02  0.56951431260E+02  0.12700000000E+01 0.  1.
         -4   -1    0    0    0  501 -0.00000000000E+00 -0.00000000000E+00 -0.68575163362E+02  0.68586922442E+02  0.12700000000E+01 0.  1.
         25    2    1    2    0    0  0.00000000000E+00  0.00000000000E+00 -0.11637894174E+02  0.12553835370E+03  0.12499775066E+03 0.  0.
    9000005    1    3    3    0    0 -0.41518368024E+02 -0.35573220268E+02  0.24575457867E+02  0.59951497171E+02  0.10000000000E+01 0.  0.
    9000005    1    3    3    0    0  0.41518368024E+02  0.35573220268E+02 -0.36213352041E+02  0.65586856532E+02  0.10000000000E+01 0.  0.
<mgrwt>
<rscale>  0 0.12499775E+03</rscale>
<asrwt>0</asrwt>
<pdfrwt beam="1">  1        4 0.87615738E-02 0.12499775E+03</pdfrwt>
<pdfrwt beam="2">  1       -4 0.10552019E-01 0.12499775E+03</pdfrwt>
<totfact> 0.10441637E+04</totfact>
</mgrwt>
</event>
<event>
 5    1  0.3259432E-002  0.1250016E+03  0.7818608E-02  0.1235067E+00
          4   -1    0    0  501    0  0.00000000000E+00  0.00000000000E+00  0.14208477023E+03  0.14209044596E+03  0.12700000000E+01 0.  1.
         -4   -1    0    0    0  501 -0.00000000000E+00 -0.00000000000E+00 -0.27472196148E+02  0.27501535615E+02  0.12700000000E+01 0.  1.
         25    2    1    2    0    0  0.00000000000E+00  0.00000000000E+00  0.11461257408E+03  0.16959198157E+03  0.12500159229E+03 0.  0.
    9000005    1    3    3    0    0 -0.15199800793E+02 -0.38653102279E+01  0.13937794843E+03  0.14026113887E+03  0.10000000000E+01 0.  0.
    9000005    1    3    3    0    0  0.15199800793E+02  0.38653102279E+01 -0.24765374346E+02  0.29330842706E+02  0.10000000000E+01 0.  0.
<mgrwt>
<rscale>  0 0.12500159E+03</rscale>
<asrwt>0</asrwt>
<pdfrwt beam="1">  1        4 0.21861889E-01 0.12500159E+03</pdfrwt>
<pdfrwt beam="2">  1       -4 0.42291852E-02 0.12500159E+03</pdfrwt>
<totfact> 0.95521326E+03</totfact>
</mgrwt>
</event>
<event>
 5    1  0.3259432E-002  0.1249977E+03  0.7818608E-02  0.1235073E+00
          4   -1    0    0  501    0  0.00000000000E+00  0.00000000000E+00  0.37217171545E+02  0.37238834002E+02  0.12700000000E+01 0. -1.
         -4   -1    0    0    0  501 -0.00000000000E+00 -0.00000000000E+00 -0.10489833533E+03  0.10490602297E+03  0.12700000000E+01 0. -1.
         25    2    1    2    0    0  0.00000000000E+00  0.00000000000E+00 -0.67681163785E+02  0.14214485697E+03  0.12499768171E+03 0.  0.
    9000005    1    3    3    0    0 -0.28328460942E+02 -0.25135728098E+02 -0.90366531130E+02  0.97986817862E+02  0.10000000000E+01 0.  0.
    9000005    1    3    3    0    0  0.28328460942E+02  0.25135728098E+02  0.22685367345E+02  0.44158039108E+02  0.10000000000E+01 0.  0.
<mgrwt>
<rscale>  0 0.12499768E+03</rscale>
<asrwt>0</asrwt>
<pdfrwt beam="1">  1        4 0.57279764E-02 0.12499768E+03</pdfrwt>
<pdfrwt beam="2">  1       -4 0.16140463E-01 0.12499768E+03</pdfrwt>
<totfact> 0.10089851E+04</totfact>
</mgrwt>
</event>
<event>
 5    1  0.3259432E-002  0.1249999E+03  0.7818608E-02  0.1235069E+00
          4   -1    0    0  501    0  0.00000000000E+00  0.00000000000E+00  0.62201311389E+02  0.62214275199E+02  0.12700000000E+01 0.  1.
         -4   -1    0    0    0  501 -0.00000000000E+00 -0.00000000000E+00 -0.62774078422E+02  0.62786923971E+02  0.12700000000E+01 0.  1.
         25    2    1    2    0    0  0.00000000000E+00  0.00000000000E+00 -0.57276703281E+00  0.12500119917E+03  0.12499988693E+03 0.  0.
    9000005    1    3    3    0    0 -0.41006171613E+02  0.40099174401E+02  0.24529054504E+02  0.62386892957E+02  0.10000000000E+01 0.  0.
    9000005    1    3    3    0    0  0.41006171613E+02 -0.40099174401E+02 -0.25101821536E+02  0.62614306212E+02  0.10000000000E+01 0.  0.
<mgrwt>
<rscale>  0 0.12499989E+03</rscale>
<asrwt>0</asrwt>
<pdfrwt beam="1">  1        4 0.95714178E-02 0.12499989E+03</pdfrwt>
<pdfrwt beam="2">  1       -4 0.96595359E-02 0.12499989E+03</pdfrwt>
<totfact> 0.10452863E+04</totfact>
</mgrwt>
</event>
<event>
 5    1  0.3259432E-002  0.1249997E+03  0.7818608E-02  0.1235070E+00
          4   -1    0    0  501    0  0.00000000000E+00  0.00000000000E+00  0.45679867363E+01  0.47412448600E+01  0.12700000000E+01 0.  1.
         -4   -1    0    0    0  501 -0.00000000000E+00 -0.00000000000E+00 -0.83904284654E+03  0.83904380770E+03  0.12700000000E+01 0.  1.
         25    2    1    2    0    0  0.00000000000E+00  0.00000000000E+00 -0.83447485981E+03  0.84378505256E+03  0.12499969308E+03 0.  0.
    9000005    1    3    3    0    0 -0.50283782295E+02  0.36658840645E+02 -0.37851786639E+03  0.38360018839E+03  0.10000000000E+01 0.  0.
    9000005    1    3    3    0    0  0.50283782295E+02 -0.36658840645E+02 -0.45595699341E+03  0.46018486416E+03  0.10000000000E+01 0.  0.
<mgrwt>
<rscale>  0 0.12499969E+03</rscale>
<asrwt>0</asrwt>
<pdfrwt beam="1">  1        4 0.71616934E-03 0.12499969E+03</pdfrwt>
<pdfrwt beam="2">  1       -4 0.12909680E+00 0.12499969E+03</pdfrwt>
<totfact> 0.36383278E+03</totfact>
</mgrwt>
</event>
<event>
 5    1  0.3259432E-002  0.1250044E+03  0.7818608E-02  0.1235062E+00
          4   -1    0    0  501    0  0.00000000000E+00  0.00000000000E+00  0.28866450237E+02  0.28894374007E+02  0.12700000000E+01 0. -1.
         -4   -1    0    0    0  501 -0.00000000000E+00 -0.00000000000E+00 -0.13523466128E+03  0.13524062448E+03  0.12700000000E+01 0. -1.
         25    2    1    2    0    0  0.00000000000E+00  0.00000000000E+00 -0.10636821104E+03  0.16413499849E+03  0.12500440556E+03 0.  0.
    9000005    1    3    3    0    0 -0.68416450082E+01 -0.60296651066E+02 -0.72793248143E+02  0.94775266875E+02  0.10000000000E+01 0.  0.
    9000005    1    3    3    0    0  0.68416450082E+01  0.60296651066E+02 -0.33574962898E+02  0.69359731615E+02  0.10000000000E+01 0.  0.
<mgrwt>
<rscale>  0 0.12500441E+03</rscale>
<asrwt>0</asrwt>
<pdfrwt beam="1">  1        4 0.44435991E-02 0.12500441E+03</pdfrwt>
<pdfrwt beam="2">  1       -4 0.20807939E-01 0.12500441E+03</pdfrwt>
<totfact> 0.96541905E+03</totfact>
</mgrwt>
</event>
<event>
 5    1  0.3259432E-002  0.1250011E+03  0.7818608E-02  0.1235068E+00
          4   -1    0    0  501    0  0.00000000000E+00  0.00000000000E+00  0.23497751917E+03  0.23498095117E+03  0.12700000000E+01 0.  1.
         -4   -1    0    0    0  501 -0.00000000000E+00 -0.00000000000E+00 -0.16596402485E+02  0.16644923413E+02  0.12700000000E+01 0.  1.
         25    2    1    2    0    0  0.00000000000E+00  0.00000000000E+00  0.21838111668E+03  0.25162587459E+03  0.12500107455E+03 0.  0.
    9000005    1    3    3    0    0  0.56394880979E+02  0.25336534679E+02  0.12752916725E+03  0.14172865303E+03  0.10000000000E+01 0.  0.
    9000005    1    3    3    0    0 -0.56394880979E+02 -0.25336534679E+02  0.90851949437E+02  0.10989722156E+03  0.10000000000E+01 0.  0.
<mgrwt>
<rscale>  0 0.12500107E+03</rscale>
<asrwt>0</asrwt>
<pdfrwt beam="1">  1        4 0.36154381E-01 0.12500107E+03</pdfrwt>
<pdfrwt beam="2">  1       -4 0.25572893E-02 0.12500107E+03</pdfrwt>
<totfact> 0.82093841E+03</totfact>
</mgrwt>
</event>
<event>
 5    1  0.3259432E-002  0.1249992E+03  0.7818608E-02  0.1235070E+00
         -4   -1    0    0    0  501 -0.00000000000E+00  0.00000000000E+00  0.42937607269E+02  0.42956385067E+02  0.12700000000E+01 0.  1.
          4   -1    0    0  501    0  0.00000000000E+00 -0.00000000000E+00 -0.90930822922E+02  0.90939691319E+02  0.12700000000E+01 0.  1.
         25    2    1    2    0    0  0.00000000000E+00  0.00000000000E+00 -0.47993215653E+02  0.13389607639E+03  0.12499924209E+03 0.  0.
    9000005    1    3    3    0    0  0.33005974267E+02 -0.51294649407E+02 -0.38553055222E+02  0.72165597496E+02  0.10000000000E+01 0.  0.
    9000005    1    3    3    0    0 -0.33005974267E+02  0.51294649407E+02 -0.94401604307E+01  0.61730478890E+02  0.10000000000E+01 0.  0.
<mgrwt>
<rscale>  0 0.12499924E+03</rscale>
<asrwt>0</asrwt>
<pdfrwt beam="2">  1        4 0.13991484E-01 0.12499924E+03</pdfrwt>
<pdfrwt beam="1">  1       -4 0.66079124E-02 0.12499924E+03</pdfrwt>
<totfact> 0.10261567E+04</totfact>
</mgrwt>
</event>
<event>
 5    1  0.3259432E-002  0.1249982E+03  0.7818608E-02  0.1235072E+00
          4   -1    0    0  501    0  0.00000000000E+00  0.00000000000E+00  0.85876967367E+01  0.86810964309E+01  0.12700000000E+01 0.  1.
         -4   -1    0    0    0  501 -0.00000000000E+00 -0.00000000000E+00 -0.45229810586E+03  0.45229988887E+03  0.12700000000E+01 0.  1.
         25    2    1    2    0    0  0.00000000000E+00  0.00000000000E+00 -0.44371040913E+03  0.46098098530E+03  0.12499816654E+03 0.  0.
    9000005    1    3    3    0    0 -0.45481130397E+02  0.23172858813E+02 -0.88905402228E+02  0.10252163261E+03  0.10000000000E+01 0.  0.
    9000005    1    3    3    0    0  0.45481130397E+02 -0.23172858813E+02 -0.35480500690E+03  0.35845935269E+03  0.10000000000E+01 0.  0.
<mgrwt>
<rscale>  0 0.12499817E+03</rscale>
<asrwt>0</asrwt>
<pdfrwt beam="1">  1        4 0.13285062E-02 0.12499817E+03</pdfrwt>
<pdfrwt beam="2">  1       -4 0.69591627E-01 0.12499817E+03</pdfrwt>
<totfact> 0.59026570E+03</totfact>
</mgrwt>
</event>
<event>
 5    1  0.3259432E-002  0.1250000E+03  0.7818608E-02  0.1235069E+00
         -4   -1    0    0    0  501 -0.00000000000E+00  0.00000000000E+00  0.17618263935E+03  0.17618721665E+03  0.12700000000E+01 0. -1.
          4   -1    0    0  501    0  0.00000000000E+00 -0.00000000000E+00 -0.22148530648E+02  0.22184911761E+02  0.12700000000E+01 0. -1.
         25    2    1    2    0    0  0.00000000000E+00  0.00000000000E+00  0.15403410871E+03  0.19837212841E+03  0.12499997874E+03 0.  0.
    9000005    1    3    3    0    0  0.11018144924E+02 -0.38823345050E+02  0.12964979332E+01  0.40389757926E+02  0.10000000000E+01 0.  0.
    9000005    1    3    3    0    0 -0.11018144924E+02  0.38823345050E+02  0.15273761077E+03  0.15798237048E+03  0.10000000000E+01 0.  0.
<mgrwt>
<rscale>  0 0.12499998E+03</rscale>
<asrwt>0</asrwt>
<pdfrwt beam="2">  1        4 0.34106169E-02 0.12499998E+03</pdfrwt>
<pdfrwt beam="1">  1       -4 0.27108172E-01 0.12499998E+03</pdfrwt>
<totfact> 0.90410695E+03</totfact>
</mgrwt>
</event>
<event>
 5    1  0.3259432E-002  0.1249967E+03  0.7818608E-02  0.1235075E+00
          4   -1    0    0  501    0  0.00000000000E+00  0.00000000000E+00  0.73893664034E+01  0.74977087063E+01  0.12700000000E+01 0.  1.
         -4   -1    0    0    0  501 -0.00000000000E+00 -0.00000000000E+00 -0.52464683584E+03  0.52464837297E+03  0.12700000000E+01 0.  1.
         25    2    1    2    0    0  0.00000000000E+00  0.00000000000E+00 -0.51725746944E+03  0.53214608167E+03  0.12499665016E+03 0.  0.
    9000005    1    3    3    0    0 -0.52929500860E+02  0.30769997678E+02 -0.20533343443E+03  0.21426885941E+03  0.10000000000E+01 0.  0.
    9000005    1    3    3    0    0  0.52929500860E+02 -0.30769997678E+02 -0.31192403501E+03  0.31787722227E+03  0.10000000000E+01 0.  0.
<mgrwt>
<rscale>  0 0.12499665E+03</rscale>
<asrwt>0</asrwt>
<pdfrwt beam="1">  1        4 0.11452783E-02 0.12499665E+03</pdfrwt>
<pdfrwt beam="2">  1       -4 0.80723321E-01 0.12499665E+03</pdfrwt>
<totfact> 0.53457675E+03</totfact>
</mgrwt>
</event>
<event>
 5    1  0.3259432E-002  0.1250013E+03  0.7818608E-02  0.1235067E+00
         -4   -1    0    0    0  501 -0.00000000000E+00  0.00000000000E+00  0.66410886961E+02  0.66423029191E+02  0.12700000000E+01 0.  1.
          4   -1    0    0  501    0  0.00000000000E+00 -0.00000000000E+00 -0.58796259506E+02  0.58809973915E+02  0.12700000000E+01 0.  1.
         25    2    1    2    0    0  0.00000000000E+00  0.00000000000E+00  0.76146274548E+01  0.12523300311E+03  0.12500129006E+03 0.  0.
    9000005    1    3    3    0    0 -0.14022410383E+02 -0.16319242906E+02  0.62587914031E+02  0.66190578368E+02  0.10000000000E+01 0.  0.
    9000005    1    3    3    0    0  0.14022410383E+02  0.16319242906E+02 -0.54973286576E+02  0.59042424738E+02  0.10000000000E+01 0.  0.
<mgrwt>
<rscale>  0 0.12500129E+03</rscale>
<asrwt>0</asrwt>
<pdfrwt beam="2">  1        4 0.90475674E-02 0.12500129E+03</pdfrwt>
<pdfrwt beam="1">  1       -4 0.10219048E-01 0.12500129E+03</pdfrwt>
<totfact> 0.10447499E+04</totfact>
</mgrwt>
</event>
<event>
 5    1  0.3259432E-002  0.1250036E+03  0.7818608E-02  0.1235064E+00
          4   -1    0    0  501    0  0.00000000000E+00  0.00000000000E+00  0.80734812072E+02  0.80744800329E+02  0.12700000000E+01 0.  1.
         -4   -1    0    0    0  501 -0.00000000000E+00 -0.00000000000E+00 -0.48365177293E+02  0.48381848606E+02  0.12700000000E+01 0.  1.
         25    2    1    2    0    0  0.00000000000E+00  0.00000000000E+00  0.32369634779E+02  0.12912664894E+03  0.12500359279E+03 0.  0.
    9000005    1    3    3    0    0  0.25973322814E+02 -0.30051071156E+02 -0.33653764196E+02  0.52069724602E+02  0.10000000000E+01 0.  0.
    9000005    1    3    3    0    0 -0.25973322814E+02  0.30051071156E+02  0.66023398974E+02  0.77056924333E+02  0.10000000000E+01 0.  0.
<mgrwt>
<rscale>  0 0.12500359E+03</rscale>
<asrwt>0</asrwt>
<pdfrwt beam="1">  1        4 0.12422791E-01 0.12500359E+03</pdfrwt>
<pdfrwt beam="2">  1       -4 0.74428473E-02 0.12500359E+03</pdfrwt>
<totfact> 0.10362386E+04</totfact>
</mgrwt>
</event>
<event>
 5    1  0.3259432E-002  0.1249998E+03  0.7818608E-02  0.1235070E+00
          4   -1    0    0  501    0  0.00000000000E+00  0.00000000000E+00  0.15514824069E+02  0.15566716606E+02  0.12700000000E+01 0.  1.
         -4   -1    0    0    0  501 -0.00000000000E+00 -0.00000000000E+00 -0.25130069034E+03  0.25130389942E+03  0.12700000000E+01 0.  1.
         25    2    1    2    0    0  0.00000000000E+00  0.00000000000E+00 -0.23578586627E+03  0.26687061603E+03  0.12499980387E+03 0.  0.
    9000005    1    3    3    0    0 -0.16910701589E+02 -0.55115631862E+02 -0.16937768487E+03  0.17892318139E+03  0.10000000000E+01 0.  0.
    9000005    1    3    3    0    0  0.16910701589E+02  0.55115631862E+02 -0.66408181392E+02  0.87947434639E+02  0.10000000000E+01 0.  0.
<mgrwt>
<rscale>  0 0.12499980E+03</rscale>
<asrwt>0</asrwt>
<pdfrwt beam="1">  1        4 0.23911348E-02 0.12499980E+03</pdfrwt>
<pdfrwt beam="2">  1       -4 0.38665880E-01 0.12499980E+03</pdfrwt>
<totfact> 0.79951783E+03</totfact>
</mgrwt>
</event>
<event>
 5    1  0.3259432E-002  0.1250004E+03  0.7818608E-02  0.1235069E+00
          4   -1    0    0  501    0  0.00000000000E+00  0.00000000000E+00  0.17819770849E+02  0.17864969440E+02  0.12700000000E+01 0.  1.
         -4   -1    0    0    0  501 -0.00000000000E+00 -0.00000000000E+00 -0.21888536831E+03  0.21888905263E+03  0.12700000000E+01 0.  1.
         25    2    1    2    0    0  0.00000000000E+00  0.00000000000E+00 -0.20106559746E+03  0.23675402207E+03  0.12500036993E+03 0.  0.
    9000005    1    3    3    0    0 -0.12704616657E+02 -0.38285093558E+02 -0.10131613900E+02  0.41602947893E+02  0.10000000000E+01 0.  0.
    9000005    1    3    3    0    0  0.12704616657E+02  0.38285093558E+02 -0.19093398356E+03  0.19515107417E+03  0.10000000000E+01 0.  0.
<mgrwt>
<rscale>  0 0.12500037E+03</rscale>
<asrwt>0</asrwt>
<pdfrwt beam="1">  1        4 0.27452636E-02 0.12500037E+03</pdfrwt>
<pdfrwt beam="2">  1       -4 0.33678430E-01 0.12500037E+03</pdfrwt>
<totfact> 0.84282491E+03</totfact>
</mgrwt>
</event>
<event>
 4    1  0.3259432E-002  0.1249291E+03  0.7818608E-02  0.1235180E+00
         -4   -1    0    0    0  501 -0.00000000000E+00  0.00000000000E+00  0.83209613089E+02  0.83219304313E+02  0.12700000000E+01 0.  1.
          4   -1    0    0  501    0  0.00000000000E+00 -0.00000000000E+00 -0.46870416508E+02  0.46887619301E+02  0.12700000000E+01 0.  1.
    9000005    1    1    2    0    0  0.28129021314E+01  0.55100163760E+02  0.48655314599E+02  0.73568200355E+02  0.10000000000E+01 0.  0.
    9000005    1    1    2    0    0 -0.28129021314E+01 -0.55100163760E+02 -0.12316118019E+02  0.56538723259E+02  0.10000000000E+01 0.  0.
<mgrwt>
<rscale>  0 0.12492908E+03</rscale>
<asrwt>0</asrwt>
<pdfrwt beam="2">  1        4 0.72129021E-02 0.12492908E+03</pdfrwt>
<pdfrwt beam="1">  1       -4 0.12803548E-01 0.12492908E+03</pdfrwt>
<totfact> 0.10358795E+04</totfact>
</mgrwt>
</event>
<event>
 5    1  0.3259432E-002  0.1250002E+03  0.7818608E-02  0.1235069E+00
         -4   -1    0    0    0  501 -0.00000000000E+00  0.00000000000E+00  0.75329671511E+02  0.75340376359E+02  0.12700000000E+01 0.  1.
          4   -1    0    0  501    0  0.00000000000E+00 -0.00000000000E+00 -0.51833430742E+02  0.51848986899E+02  0.12700000000E+01 0.  1.
         25    2    1    2    0    0  0.00000000000E+00  0.00000000000E+00  0.23496240769E+02  0.12718936326E+03  0.12500024318E+03 0.  0.
    9000005    1    3    3    0    0 -0.33691159731E+02  0.52466362514E+02  0.74974292882E+01  0.62809433092E+02  0.10000000000E+01 0.  0.
    9000005    1    3    3    0    0  0.33691159731E+02 -0.52466362514E+02  0.15998811481E+02  0.64379930166E+02  0.10000000000E+01 0.  0.
<mgrwt>
<rscale>  0 0.12500024E+03</rscale>
<asrwt>0</asrwt>
<pdfrwt beam="2">  1        4 0.79763941E-02 0.12500024E+03</pdfrwt>
<pdfrwt beam="1">  1       -4 0.11591200E-01 0.12500024E+03</pdfrwt>
<totfact> 0.10404977E+04</totfact>
</mgrwt>
</event>
<event>
 5    1  0.3259432E-002  0.1250005E+03  0.7818608E-02  0.1235068E+00
          4   -1    0    0  501    0  0.00000000000E+00  0.00000000000E+00  0.51710871847E+01  0.53247575223E+01  0.12700000000E+01 0.  1.
         -4   -1    0    0    0  501 -0.00000000000E+00 -0.00000000000E+00 -0.74419400082E+03  0.74419508448E+03  0.12700000000E+01 0.  1.
         25    2    1    2    0    0  0.00000000000E+00  0.00000000000E+00 -0.73902291364E+03  0.74951984200E+03  0.12500050668E+03 0.  0.
    9000005    1    3    3    0    0  0.28485806130E+02  0.37991032829E+02 -0.12590880480E+03  0.13456889259E+03  0.10000000000E+01 0.  0.
    9000005    1    3    3    0    0 -0.28485806130E+02 -0.37991032829E+02 -0.61311410884E+03  0.61495094941E+03  0.10000000000E+01 0.  0.
<mgrwt>
<rscale>  0 0.12500051E+03</rscale>
<asrwt>0</asrwt>
<pdfrwt beam="1">  1        4 0.80745662E-03 0.12500051E+03</pdfrwt>
<pdfrwt beam="2">  1       -4 0.11450321E+00 0.12500051E+03</pdfrwt>
<totfact> 0.40596687E+03</totfact>
</mgrwt>
</event>
<event>
 5    1  0.3259432E-002  0.1250028E+03  0.7818608E-02  0.1235065E+00
         -4   -1    0    0    0  501 -0.00000000000E+00  0.00000000000E+00  0.14050892139E+02  0.14108170324E+02  0.12700000000E+01 0.  1.
          4   -1    0    0  501    0  0.00000000000E+00 -0.00000000000E+00 -0.27739565101E+03  0.27739855822E+03  0.12700000000E+01 0.  1.
         25    2    1    2    0    0  0.00000000000E+00  0.00000000000E+00 -0.26334475887E+03  0.29150672854E+03  0.12500284300E+03 0.  0.
    9000005    1    3    3    0    0  0.16242122474E+02 -0.31048796118E+02 -0.25234285049E+03  0.25476606618E+03  0.10000000000E+01 0.  0.
    9000005    1    3    3    0    0 -0.16242122474E+02  0.31048796118E+02 -0.11001908386E+02  0.36740662364E+02  0.10000000000E+01 0.  0.
<mgrwt>
<rscale>  0 0.12500284E+03</rscale>
<asrwt>0</asrwt>
<pdfrwt beam="2">  1        4 0.42680880E-01 0.12500284E+03</pdfrwt>
<pdfrwt beam="1">  1       -4 0.21663056E-02 0.12500284E+03</pdfrwt>
<totfact> 0.76671881E+03</totfact>
</mgrwt>
</event>
<event>
 5    1  0.3259432E-002  0.1250013E+03  0.7818608E-02  0.1235067E+00
         -4   -1    0    0    0  501 -0.00000000000E+00  0.00000000000E+00  0.35036484333E+03  0.35036714507E+03  0.12700000000E+01 0.  1.
          4   -1    0    0  501    0  0.00000000000E+00 -0.00000000000E+00 -0.11110806522E+02  0.11183153472E+02  0.12700000000E+01 0.  1.
         25    2    1    2    0    0  0.00000000000E+00  0.00000000000E+00  0.33925403681E+03  0.36155029854E+03  0.12500126752E+03 0.  0.
    9000005    1    3    3    0    0 -0.24527867896E+02 -0.14253823562E+02  0.33068159749E+03  0.33189773532E+03  0.10000000000E+01 0.  0.
    9000005    1    3    3    0    0  0.24527867896E+02  0.14253823562E+02  0.85724393163E+01  0.29652563220E+02  0.10000000000E+01 0.  0.
<mgrwt>
<rscale>  0 0.12500127E+03</rscale>
<asrwt>0</asrwt>
<pdfrwt beam="2">  1        4 0.17150968E-02 0.12500127E+03</pdfrwt>
<pdfrwt beam="1">  1       -4 0.53908033E-01 0.12500127E+03</pdfrwt>
<totfact> 0.68470371E+03</totfact>
</mgrwt>
</event>
<event>
 5    1  0.3259432E-002  0.1249994E+03  0.7818608E-02  0.1235070E+00
         -4   -1    0    0    0  501 -0.00000000000E+00  0.00000000000E+00  0.37639237033E+01  0.39724075375E+01  0.12700000000E+01 0. -1.
          4   -1    0    0  501    0  0.00000000000E+00 -0.00000000000E+00 -0.10096267336E+04  0.10096275323E+04  0.12700000000E+01 0. -1.
         25    2    1    2    0    0  0.00000000000E+00  0.00000000000E+00 -0.10058628099E+04  0.10135999399E+04  0.12499938331E+03 0.  0.
    9000005    1    3    3    0    0  0.47332950290E+02  0.10373897277E+02 -0.82291586338E+03  0.82434188546E+03  0.10000000000E+01 0.  0.
    9000005    1    3    3    0    0 -0.47332950290E+02 -0.10373897277E+02 -0.18294694649E+03  0.18925805440E+03  0.10000000000E+01 0.  0.
<mgrwt>
<rscale>  0 0.12499938E+03</rscale>
<asrwt>0</asrwt>
<pdfrwt beam="2">  1        4 0.15534308E+00 0.12499938E+03</pdfrwt>
<pdfrwt beam="1">  1       -4 0.59516465E-03 0.12499938E+03</pdfrwt>
<totfact> 0.30159500E+03</totfact>
</mgrwt>
</event>
<event>
 5    1  0.3259432E-002  0.1250130E+03  0.7818608E-02  0.1235049E+00
         -4   -1    0    0    0  501 -0.00000000000E+00  0.00000000000E+00  0.58615967698E+02  0.58629724280E+02  0.12700000000E+01 0. -1.
          4   -1    0    0  501    0  0.00000000000E+00 -0.00000000000E+00 -0.66627605177E+02  0.66639707919E+02  0.12700000000E+01 0. -1.
         25    2    1    2    0    0  0.00000000000E+00  0.00000000000E+00 -0.80116374790E+01  0.12526943220E+03  0.12501297656E+03 0.  0.
    9000005    1    3    3    0    0  0.21120438538E+02  0.31400896455E+02  0.45835255056E+02  0.59447117914E+02  0.10000000000E+01 0.  0.
    9000005    1    3    3    0    0 -0.21120438538E+02 -0.31400896455E+02 -0.53846892535E+02  0.65822314285E+02  0.10000000000E+01 0.  0.
<mgrwt>
<rscale>  0 0.12501298E+03</rscale>
<asrwt>0</asrwt>
<pdfrwt beam="2">  1        4 0.10252390E-01 0.12501298E+03</pdfrwt>
<pdfrwt beam="1">  1       -4 0.90198304E-02 0.12501298E+03</pdfrwt>
<totfact> 0.10443950E+04</totfact>
</mgrwt>
</event>
<event>
 5    1  0.3259432E-002  0.1250320E+03  0.7818608E-02  0.1235019E+00
          4   -1    0    0  501    0  0.00000000000E+00  0.00000000000E+00  0.54072959090E+03  0.54073108231E+03  0.12700000000E+01 0. -1.
         -4   -1    0    0    0  501 -0.00000000000E+00 -0.00000000000E+00 -0.71704390733E+01  0.72820393094E+01  0.12700000000E+01 0. -1.
         25    2    1    2    0    0  0.00000000000E+00  0.00000000000E+00  0.53355915183E+03  0.54801312162E+03  0.12503204776E+03 0.  0.
    9000005    1    3    3    0    0  0.42796490383E+02 -0.25077947169E+02  0.43349485240E+03  0.43632468424E+03  0.10000000000E+01 0.  0.
    9000005    1    3    3    0    0 -0.42796490383E+02  0.25077947169E+02  0.10006429943E+03  0.11168843737E+03  0.10000000000E+01 0.  0.
<mgrwt>
<rscale>  0 0.12503205E+03</rscale>
<asrwt>0</asrwt>
<pdfrwt beam="1">  1        4 0.83197897E-01 0.12503205E+03</pdfrwt>
<pdfrwt beam="2">  1       -4 0.11118434E-02 0.12503205E+03</pdfrwt>
<totfact> 0.52285882E+03</totfact>
</mgrwt>
</event>
<event>
 5    1  0.3259432E-002  0.1250030E+03  0.7818608E-02  0.1235065E+00
         -4   -1    0    0    0  501 -0.00000000000E+00  0.00000000000E+00  0.47017053118E+03  0.47017224640E+03  0.12700000000E+01 0. -1.
          4   -1    0    0  501    0  0.00000000000E+00 -0.00000000000E+00 -0.82582778984E+01  0.83553607850E+01  0.12700000000E+01 0. -1.
         25    2    1    2    0    0  0.00000000000E+00  0.00000000000E+00  0.46191225328E+03  0.47852760719E+03  0.12500296441E+03 0.  0.
    9000005    1    3    3    0    0  0.17118524613E+02 -0.58768035349E+02  0.27918288046E+03  0.28581603630E+03  0.10000000000E+01 0.  0.
    9000005    1    3    3    0    0 -0.17118524613E+02  0.58768035349E+02  0.18272937282E+03  0.19271157089E+03  0.10000000000E+01 0.  0.
<mgrwt>
<rscale>  0 0.12500296E+03</rscale>
<asrwt>0</asrwt>
<pdfrwt beam="2">  1        4 0.12781039E-02 0.12500296E+03</pdfrwt>
<pdfrwt beam="1">  1       -4 0.72341541E-01 0.12500296E+03</pdfrwt>
<totfact> 0.57565953E+03</totfact>
</mgrwt>
</event>
<event>
 5    1  0.3259432E-002  0.1249981E+03  0.7818608E-02  0.1235072E+00
          4   -1    0    0  501    0  0.00000000000E+00  0.00000000000E+00  0.42483043040E+01  0.44340714315E+01  0.12700000000E+01 0. -1.
         -4   -1    0    0    0  501 -0.00000000000E+00 -0.00000000000E+00 -0.89959832629E+03  0.89959922274E+03  0.12700000000E+01 0. -1.
         25    2    1    2    0    0  0.00000000000E+00  0.00000000000E+00 -0.89535002198E+03  0.90403329418E+03  0.12499814042E+03 0.  0.
    9000005    1    3    3    0    0 -0.41858659907E+02  0.46399839004E+02 -0.44620506667E+03  0.45056082163E+03  0.10000000000E+01 0.  0.
    9000005    1    3    3    0    0  0.41858659907E+02 -0.46399839004E+02 -0.44914495531E+03  0.45347247254E+03  0.10000000000E+01 0.  0.
<mgrwt>
<rscale>  0 0.12499814E+03</rscale>
<asrwt>0</asrwt>
<pdfrwt beam="1">  1        4 0.66794473E-03 0.12499814E+03</pdfrwt>
<pdfrwt beam="2">  1       -4 0.13841395E+00 0.12499814E+03</pdfrwt>
<totfact> 0.34007364E+03</totfact>
</mgrwt>
</event>
<event>
 5    1  0.3259432E-002  0.1249991E+03  0.7818608E-02  0.1235071E+00
         -4   -1    0    0    0  501 -0.00000000000E+00  0.00000000000E+00  0.58993132633E+02  0.59006801285E+02  0.12700000000E+01 0.  1.
          4   -1    0    0  501    0  0.00000000000E+00 -0.00000000000E+00 -0.66186913950E+02  0.66199097262E+02  0.12700000000E+01 0.  1.
         25    2    1    2    0    0  0.00000000000E+00  0.00000000000E+00 -0.71937813172E+01  0.12520589855E+03  0.12499906616E+03 0.  0.
    9000005    1    3    3    0    0 -0.40377990326E+02 -0.17099934626E+02  0.41000952823E+02  0.60040552957E+02  0.10000000000E+01 0.  0.
    9000005    1    3    3    0    0  0.40377990326E+02  0.17099934626E+02 -0.48194734140E+02  0.65165345590E+02  0.10000000000E+01 0.  0.
<mgrwt>
<rscale>  0 0.12499907E+03</rscale>
<asrwt>0</asrwt>
<pdfrwt beam="2">  1        4 0.10184591E-01 0.12499907E+03</pdfrwt>
<pdfrwt beam="1">  1       -4 0.90778552E-02 0.12499907E+03</pdfrwt>
<totfact> 0.10448613E+04</totfact>
</mgrwt>
</event>
<event>
 5    1  0.3259432E-002  0.1249995E+03  0.7818608E-02  0.1235070E+00
          4   -1    0    0  501    0  0.00000000000E+00  0.00000000000E+00  0.56534171544E+02  0.56548434569E+02  0.12700000000E+01 0.  1.
         -4   -1    0    0    0  501 -0.00000000000E+00 -0.00000000000E+00 -0.69066043476E+02  0.69077718994E+02  0.12700000000E+01 0.  1.
         25    2    1    2    0    0  0.00000000000E+00  0.00000000000E+00 -0.12531871932E+02  0.12562615356E+03  0.12499953058E+03 0.  0.
    9000005    1    3    3    0    0 -0.26863753286E+01 -0.47441275016E+02  0.34524835118E+02  0.58743982053E+02  0.10000000000E+01 0.  0.
    9000005    1    3    3    0    0  0.26863753286E+01  0.47441275016E+02 -0.47056707049E+02  0.66882171510E+02  0.10000000000E+01 0.  0.
<mgrwt>
<rscale>  0 0.12499953E+03</rscale>
<asrwt>0</asrwt>
<pdfrwt beam="1">  1        4 0.86995601E-02 0.12499953E+03</pdfrwt>
<pdfrwt beam="2">  1       -4 0.10627540E-01 0.12499953E+03</pdfrwt>
<totfact> 0.10439281E+04</totfact>
</mgrwt>
</event>
<event>
 5    1  0.3259432E-002  0.1250052E+03  0.7818608E-02  0.1235061E+00
         -4   -1    0    0    0  501 -0.00000000000E+00  0.00000000000E+00  0.34900094459E+01  0.37139017128E+01  0.12700000000E+01 0.  1.
          4   -1    0    0  501    0  0.00000000000E+00 -0.00000000000E+00 -0.10843462476E+04  0.10843469913E+04  0.12700000000E+01 0.  1.
         25    2    1    2    0    0  0.00000000000E+00  0.00000000000E+00 -0.10808562381E+04  0.10880608930E+04  0.12500519745E+03 0.  0.
    9000005    1    3    3    0    0 -0.91470375774E+01  0.49794668359E+02 -0.22151990396E+03  0.22723389963E+03  0.10000000000E+01 0.  0.
    9000005    1    3    3    0    0  0.91470375774E+01 -0.49794668359E+02 -0.85933633415E+03  0.86082699335E+03  0.10000000000E+01 0.  0.
<mgrwt>
<rscale>  0 0.12500520E+03</rscale>
<asrwt>0</asrwt>
<pdfrwt beam="2">  1        4 0.16683952E+00 0.12500520E+03</pdfrwt>
<pdfrwt beam="1">  1       -4 0.55420509E-03 0.12500520E+03</pdfrwt>
<totfact> 0.27832357E+03</totfact>
</mgrwt>
</event>
<event>
 5    1  0.3259432E-002  0.1250014E+03  0.7818608E-02  0.1235067E+00
         -4   -1    0    0    0  501 -0.00000000000E+00  0.00000000000E+00  0.92182825898E+02  0.92191573858E+02  0.12700000000E+01 0. -1.
          4   -1    0    0  501    0  0.00000000000E+00 -0.00000000000E+00 -0.42355717988E+02  0.42374753643E+02  0.12700000000E+01 0. -1.
         25    2    1    2    0    0  0.00000000000E+00  0.00000000000E+00  0.49827107909E+02  0.13456632750E+03  0.12500142325E+03 0.  0.
    9000005    1    3    3    0    0  0.57462706421E+02  0.65941382952E+01  0.50386209265E+02  0.76715157389E+02  0.10000000000E+01 0.  0.
    9000005    1    3    3    0    0 -0.57462706421E+02 -0.65941382952E+01 -0.55910135575E+00  0.57851170113E+02  0.10000000000E+01 0.  0.
<mgrwt>
<rscale>  0 0.12500142E+03</rscale>
<asrwt>0</asrwt>
<pdfrwt beam="2">  1        4 0.65184015E-02 0.12500142E+03</pdfrwt>
<pdfrwt beam="1">  1       -4 0.14184110E-01 0.12500142E+03</pdfrwt>
<totfact> 0.10246891E+04</totfact>
</mgrwt>
</event>
<event>
 5    1  0.3259432E-002  0.1249986E+03  0.7818608E-02  0.1235072E+00
         -4   -1    0    0    0  501 -0.00000000000E+00  0.00000000000E+00  0.24355704385E+03  0.24356035496E+03  0.12700000000E+01 0.  1.
          4   -1    0    0  501    0  0.00000000000E+00 -0.00000000000E+00 -0.16009398445E+02  0.16059692979E+02  0.12700000000E+01 0.  1.
         25    2    1    2    0    0  0.00000000000E+00  0.00000000000E+00  0.22754764541E+03  0.25962004794E+03  0.12499855344E+03 0.  0.
    9000005    1    3    3    0    0 -0.33472625937E+02  0.52703129520E+02  0.10823055306E+03  0.12495154726E+03  0.10000000000E+01 0.  0.
    9000005    1    3    3    0    0  0.33472625937E+02 -0.52703129520E+02  0.11931709235E+03  0.13466850068E+03  0.10000000000E+01 0.  0.
<mgrwt>
<rscale>  0 0.12499855E+03</rscale>
<asrwt>0</asrwt>
<pdfrwt beam="2">  1        4 0.24671080E-02 0.12499855E+03</pdfrwt>
<pdfrwt beam="1">  1       -4 0.37474436E-01 0.12499855E+03</pdfrwt>
<totfact> 0.80962018E+03</totfact>
</mgrwt>
</event>
<event>
 5    1  0.3259432E-002  0.1249945E+03  0.7818608E-02  0.1235078E+00
          4   -1    0    0  501    0  0.00000000000E+00  0.00000000000E+00  0.71533207776E+02  0.71544480672E+02  0.12700000000E+01 0. -1.
         -4   -1    0    0    0  501 -0.00000000000E+00 -0.00000000000E+00 -0.54579700915E+02  0.54594474555E+02  0.12700000000E+01 0. -1.
         25    2    1    2    0    0  0.00000000000E+00  0.00000000000E+00  0.16953506861E+02  0.12613895523E+03  0.12499445840E+03 0.  0.
    9000005    1    3    3    0    0  0.35433944451E+02  0.45917123832E+02  0.31948198778E+02  0.66224120119E+02  0.10000000000E+01 0.  0.
    9000005    1    3    3    0    0 -0.35433944451E+02 -0.45917123832E+02 -0.14994691917E+02  0.59914835108E+02  0.10000000000E+01 0.  0.
<mgrwt>
<rscale>  0 0.12499446E+03</rscale>
<asrwt>0</asrwt>
<pdfrwt beam="1">  1        4 0.11007112E-01 0.12499446E+03</pdfrwt>
<pdfrwt beam="2">  1       -4 0.83988806E-02 0.12499446E+03</pdfrwt>
<totfact> 0.10429218E+04</totfact>
</mgrwt>
</event>
<event>
 5    1  0.3259432E-002  0.1249990E+03  0.7818608E-02  0.1235071E+00
         -4   -1    0    0    0  501 -0.00000000000E+00  0.00000000000E+00  0.40202844225E+01  0.42161103921E+01  0.12700000000E+01 0.  1.
          4   -1    0    0  501    0  0.00000000000E+00 -0.00000000000E+00 -0.94832221845E+03  0.94832306885E+03  0.12700000000E+01 0.  1.
         25    2    1    2    0    0  0.00000000000E+00  0.00000000000E+00 -0.94430193403E+03  0.95253917924E+03  0.12499898150E+03 0.  0.
    9000005    1    3    3    0    0 -0.58948781265E+02  0.14450660506E+02 -0.35876194490E+03  0.36386111844E+03  0.10000000000E+01 0.  0.
    9000005    1    3    3    0    0  0.58948781265E+02 -0.14450660506E+02 -0.58553998913E+03  0.58867806080E+03  0.10000000000E+01 0.  0.
<mgrwt>
<rscale>  0 0.12499898E+03</rscale>
<asrwt>0</asrwt>
<pdfrwt beam="2">  1        4 0.14591068E+00 0.12499898E+03</pdfrwt>
<pdfrwt beam="1">  1       -4 0.63363500E-03 0.12499898E+03</pdfrwt>
<totfact> 0.32226744E+03</totfact>
</mgrwt>
</event>
<event>
 5    1  0.3259432E-002  0.1249998E+03  0.7818608E-02  0.1235070E+00
          4   -1    0    0  501    0  0.00000000000E+00  0.00000000000E+00  0.15642840005E+01  0.20149154906E+01  0.12700000000E+01 0. -1.
         -4   -1    0    0    0  501 -0.00000000000E+00 -0.00000000000E+00 -0.21822919066E+04  0.21822922761E+04  0.12700000000E+01 0. -1.
         25    2    1    2    0    0  0.00000000000E+00  0.00000000000E+00 -0.21807276226E+04  0.21843071916E+04  0.12499977381E+03 0.  0.
    9000005    1    3    3    0    0 -0.32034984581E+02 -0.44198670887E+02 -0.55876207266E+03  0.56142302819E+03  0.10000000000E+01 0.  0.
    9000005    1    3    3    0    0  0.32034984581E+02  0.44198670887E+02 -0.16219655499E+04  0.16228841634E+04  0.10000000000E+01 0.  0.
<mgrwt>
<rscale>  0 0.12499977E+03</rscale>
<asrwt>0</asrwt>
<pdfrwt beam="1">  1        4 0.27535321E-03 0.12499977E+03</pdfrwt>
<pdfrwt beam="2">  1       -4 0.33576978E+00 0.12499977E+03</pdfrwt>
<totfact> 0.76435656E+02</totfact>
</mgrwt>
</event>
<event>
 5    1  0.3259432E-002  0.1249991E+03  0.7818608E-02  0.1235071E+00
         -4   -1    0    0    0  501 -0.00000000000E+00  0.00000000000E+00  0.52696178642E+02  0.52711480186E+02  0.12700000000E+01 0. -1.
          4   -1    0    0  501    0  0.00000000000E+00 -0.00000000000E+00 -0.74095192932E+02  0.74106076105E+02  0.12700000000E+01 0. -1.
         25    2    1    2    0    0  0.00000000000E+00  0.00000000000E+00 -0.21399014290E+02  0.12681755629E+03  0.12499909908E+03 0.  0.
    9000005    1    3    3    0    0 -0.56227345590E+02  0.23913089340E+02  0.26001057472E+01  0.61164620360E+02  0.10000000000E+01 0.  0.
    9000005    1    3    3    0    0  0.56227345590E+02 -0.23913089340E+02 -0.23999120037E+02  0.65652935932E+02  0.10000000000E+01 0.  0.
<mgrwt>
<rscale>  0 0.12499910E+03</rscale>
<asrwt>0</asrwt>
<pdfrwt beam="2">  1        4 0.11401275E-01 0.12499910E+03</pdfrwt>
<pdfrwt beam="1">  1       -4 0.81091185E-02 0.12499910E+03</pdfrwt>
<totfact> 0.10413324E+04</totfact>
</mgrwt>
</event>
<event>
 5    1  0.3259432E-002  0.1249988E+03  0.7818608E-02  0.1235071E+00
         -4   -1    0    0    0  501 -0.00000000000E+00  0.00000000000E+00  0.27496035366E+02  0.27525349422E+02  0.12700000000E+01 0. -1.
          4   -1    0    0  501    0  0.00000000000E+00 -0.00000000000E+00 -0.14195544488E+03  0.14196112578E+03  0.12700000000E+01 0. -1.
         25    2    1    2    0    0  0.00000000000E+00  0.00000000000E+00 -0.11445940952E+03  0.16948647520E+03  0.12499883539E+03 0.  0.
    9000005    1    3    3    0    0 -0.31082405183E+02  0.16039185048E+02  0.12987372362E+02  0.37323494073E+02  0.10000000000E+01 0.  0.
    9000005    1    3    3    0    0  0.31082405183E+02 -0.16039185048E+02 -0.12744678188E+03  0.13216298113E+03  0.10000000000E+01 0.  0.
<mgrwt>
<rscale>  0 0.12499884E+03</rscale>
<asrwt>0</asrwt>
<pdfrwt beam="2">  1        4 0.21841991E-01 0.12499884E+03</pdfrwt>
<pdfrwt beam="1">  1       -4 0.42328513E-02 0.12499884E+03</pdfrwt>
<totfact> 0.95546905E+03</totfact>
</mgrwt>
</event>
<event>
 5    1  0.3259432E-002  0.1249960E+03  0.7818608E-02  0.1235075E+00
          4   -1    0    0  501    0  0.00000000000E+00  0.00000000000E+00  0.28069707710E+03  0.28069995011E+03  0.12700000000E+01 0.  1.
         -4   -1    0    0    0  501 -0.00000000000E+00 -0.00000000000E+00 -0.13883438107E+02  0.13941404293E+02  0.12700000000E+01 0.  1.
         25    2    1    2    0    0  0.00000000000E+00  0.00000000000E+00  0.26681363899E+03  0.29464135440E+03  0.12499603903E+03 0.  0.
    9000005    1    3    3    0    0 -0.47884299987E+02  0.39966169338E+02  0.12433798895E+03  0.13910836198E+03  0.10000000000E+01 0.  0.
    9000005    1    3    3    0    0  0.47884299987E+02 -0.39966169338E+02  0.14247565004E+03  0.15553299242E+03  0.10000000000E+01 0.  0.
<mgrwt>
<rscale>  0 0.12499604E+03</rscale>
<asrwt>0</asrwt>
<pdfrwt beam="1">  1        4 0.43188845E-01 0.12499604E+03</pdfrwt>
<pdfrwt beam="2">  1       -4 0.21405935E-02 0.12499604E+03</pdfrwt>
<totfact> 0.76282680E+03</totfact>
</mgrwt>
</event>
<event>
 5    1  0.3259432E-002  0.1250001E+03  0.7818608E-02  0.1235069E+00
         -4   -1    0    0    0  501 -0.00000000000E+00  0.00000000000E+00  0.15429330061E+02  0.15481509169E+02  0.12700000000E+01 0.  1.
          4   -1    0    0  501    0  0.00000000000E+00 -0.00000000000E+00 -0.25268962264E+03  0.25269281409E+03  0.12700000000E+01 0.  1.
         25    2    1    2    0    0  0.00000000000E+00  0.00000000000E+00 -0.23726029258E+03  0.26817432325E+03  0.12500008487E+03 0.  0.
    9000005    1    3    3    0    0 -0.13786700931E+02 -0.60666125555E+02 -0.13128676430E+03  0.14528477688E+03  0.10000000000E+01 0.  0.
    9000005    1    3    3    0    0  0.13786700931E+02  0.60666125555E+02 -0.10597352828E+03  0.12288954638E+03  0.10000000000E+01 0.  0.
<mgrwt>
<rscale>  0 0.12500008E+03</rscale>
<asrwt>0</asrwt>
<pdfrwt beam="2">  1        4 0.38879583E-01 0.12500008E+03</pdfrwt>
<pdfrwt beam="1">  1       -4 0.23780025E-02 0.12500008E+03</pdfrwt>
<totfact> 0.79772273E+03</totfact>
</mgrwt>
</event>
<event>
 5    1  0.3259432E-002  0.1249907E+03  0.7818608E-02  0.1235084E+00
          4   -1    0    0  501    0  0.00000000000E+00  0.00000000000E+00  0.59709715780E+02  0.59723220430E+02  0.12700000000E+01 0.  1.
         -4   -1    0    0    0  501 -0.00000000000E+00 -0.00000000000E+00 -0.65383884311E+02  0.65396217227E+02  0.12700000000E+01 0.  1.
         25    2    1    2    0    0  0.00000000000E+00  0.00000000000E+00 -0.56741685306E+01  0.12511943766E+03  0.12499070962E+03 0.  0.
    9000005    1    3    3    0    0  0.36136111175E+02 -0.48371910125E+02  0.13273252012E+02  0.61829114817E+02  0.10000000000E+01 0.  0.
    9000005    1    3    3    0    0 -0.36136111175E+02  0.48371910125E+02 -0.18947420543E+02  0.63290322841E+02  0.10000000000E+01 0.  0.
<mgrwt>
<rscale>  0 0.12499071E+03</rscale>
<asrwt>0</asrwt>
<pdfrwt beam="1">  1        4 0.91880977E-02 0.12499071E+03</pdfrwt>
<pdfrwt beam="2">  1       -4 0.10061047E-01 0.12499071E+03</pdfrwt>
<totfact> 0.10452463E+04</totfact>
</mgrwt>
</event>
<event>
 5    1  0.3259432E-002  0.1250030E+03  0.7818608E-02  0.1235065E+00
          4   -1    0    0  501    0  0.00000000000E+00  0.00000000000E+00  0.12625530598E+04  0.12625536986E+04  0.12700000000E+01 0. -1.
         -4   -1    0    0    0  501 -0.00000000000E+00 -0.00000000000E+00 -0.29630892173E+01  0.32237862382E+01  0.12700000000E+01 0. -1.
         25    2    1    2    0    0  0.00000000000E+00  0.00000000000E+00  0.12595899706E+04  0.12657774848E+04  0.12500298793E+03 0.  0.
    9000005    1    3    3    0    0  0.60479816420E+02 -0.15726638546E+02  0.63535408272E+03  0.63842066523E+03  0.10000000000E+01 0.  0.
    9000005    1    3    3    0    0 -0.60479816420E+02  0.15726638546E+02  0.62423588789E+03  0.62735681959E+03  0.10000000000E+01 0.  0.
<mgrwt>
<rscale>  0 0.12500299E+03</rscale>
<asrwt>0</asrwt>
<pdfrwt beam="1">  1        4 0.19425951E+00 0.12500299E+03</pdfrwt>
<pdfrwt beam="2">  1       -4 0.47596146E-03 0.12500299E+03</pdfrwt>
<totfact> 0.23049334E+03</totfact>
</mgrwt>
</event>
<event>
 5    1  0.3259432E-002  0.1250342E+03  0.7818608E-02  0.1235016E+00
          4   -1    0    0  501    0  0.00000000000E+00  0.00000000000E+00  0.27684763556E+02  0.27713877988E+02  0.12700000000E+01 0. -1.
         -4   -1    0    0    0  501 -0.00000000000E+00 -0.00000000000E+00 -0.14106849473E+03  0.14107421134E+03  0.12700000000E+01 0. -1.
         25    2    1    2    0    0  0.00000000000E+00  0.00000000000E+00 -0.11338373118E+03  0.16878808933E+03  0.12503418974E+03 0.  0.
    9000005    1    3    3    0    0 -0.60979558540E+02  0.10323172545E+02 -0.44444394109E+02  0.76166781597E+02  0.10000000000E+01 0.  0.
    9000005    1    3    3    0    0  0.60979558540E+02 -0.10323172545E+02 -0.68939337068E+02  0.92621307735E+02  0.10000000000E+01 0.  0.
<mgrwt>
<rscale>  0 0.12503419E+03</rscale>
<asrwt>0</asrwt>
<pdfrwt beam="1">  1        4 0.42618738E-02 0.12503419E+03</pdfrwt>
<pdfrwt beam="2">  1       -4 0.21705524E-01 0.12503419E+03</pdfrwt>
<totfact> 0.95601343E+03</totfact>
</mgrwt>
</event>
<event>
 5    1  0.3259432E-002  0.1249977E+03  0.7818608E-02  0.1235073E+00
         -4   -1    0    0    0  501 -0.00000000000E+00  0.00000000000E+00  0.21636759751E+01  0.25088630344E+01  0.12700000000E+01 0. -1.
          4   -1    0    0  501    0  0.00000000000E+00 -0.00000000000E+00 -0.16715951503E+04  0.16715956328E+04  0.12700000000E+01 0. -1.
         25    2    1    2    0    0  0.00000000000E+00  0.00000000000E+00 -0.16694314744E+04  0.16741044958E+04  0.12499766125E+03 0.  0.
    9000005    1    3    3    0    0 -0.19908781148E+02  0.59198824696E+02 -0.86230490071E+03  0.86456440026E+03  0.10000000000E+01 0.  0.
    9000005    1    3    3    0    0  0.19908781148E+02 -0.59198824696E+02 -0.80712657365E+03  0.80954009555E+03  0.10000000000E+01 0.  0.
<mgrwt>
<rscale>  0 0.12499766E+03</rscale>
<asrwt>0</asrwt>
<pdfrwt beam="2">  1        4 0.25719412E+00 0.12499766E+03</pdfrwt>
<pdfrwt beam="1">  1       -4 0.35946452E-03 0.12499766E+03</pdfrwt>
<totfact> 0.14745421E+03</totfact>
</mgrwt>
</event>
<event>
 5    1  0.3259432E-002  0.1250001E+03  0.7818608E-02  0.1235069E+00
         -4   -1    0    0    0  501 -0.00000000000E+00  0.00000000000E+00  0.12781287663E+03  0.12781918609E+03  0.12700000000E+01 0.  1.
          4   -1    0    0  501    0  0.00000000000E+00 -0.00000000000E+00 -0.30542065706E+02  0.30568458868E+02  0.12700000000E+01 0.  1.
         25    2    1    2    0    0  0.00000000000E+00  0.00000000000E+00  0.97270810928E+02  0.15838764496E+03  0.12500014167E+03 0.  0.
    9000005    1    3    3    0    0  0.34759182621E+02  0.51928088232E+02  0.49559372722E+02  0.79761259697E+02  0.10000000000E+01 0.  0.
    9000005    1    3    3    0    0 -0.34759182621E+02 -0.51928088232E+02  0.47711438206E+02  0.78626385264E+02  0.10000000000E+01 0.  0.
<mgrwt>
<rscale>  0 0.12500014E+03</rscale>
<asrwt>0</asrwt>
<pdfrwt beam="2">  1        4 0.47012950E-02 0.12500014E+03</pdfrwt>
<pdfrwt beam="1">  1       -4 0.19666035E-01 0.12500014E+03</pdfrwt>
<totfact> 0.97654227E+03</totfact>
</mgrwt>
</event>
<event>
 5    1  0.3259432E-002  0.1249929E+03  0.7818608E-02  0.1235080E+00
          4   -1    0    0  501    0  0.00000000000E+00  0.00000000000E+00  0.17708829535E+03  0.17709284924E+03  0.12700000000E+01 0.  1.
         -4   -1    0    0    0  501 -0.00000000000E+00 -0.00000000000E+00 -0.22032573443E+02  0.22069145714E+02  0.12700000000E+01 0.  1.
         25    2    1    2    0    0  0.00000000000E+00  0.00000000000E+00  0.15505572191E+03  0.19916199495E+03  0.12499289314E+03 0.  0.
    9000005    1    3    3    0    0 -0.47682048508E+02  0.31838036048E+02  0.11712496087E+03  0.13040895195E+03  0.10000000000E+01 0.  0.
    9000005    1    3    3    0    0  0.47682048508E+02 -0.31838036048E+02  0.37930761042E+02  0.68753043006E+02  0.10000000000E+01 0.  0.
<mgrwt>
<rscale>  0 0.12499289E+03</rscale>
<asrwt>0</asrwt>
<pdfrwt beam="1">  1        4 0.27247515E-01 0.12499289E+03</pdfrwt>
<pdfrwt beam="2">  1       -4 0.33927904E-02 0.12499289E+03</pdfrwt>
<totfact> 0.90291396E+03</totfact>
</mgrwt>
</event>
<event>
 5    1  0.3259432E-002  0.1250019E+03  0.7818608E-02  0.1235066E+00
          4   -1    0    0  501    0  0.00000000000E+00  0.00000000000E+00  0.58812055521E+03  0.58812192644E+03  0.12700000000E+01 0. -1.
         -4   -1    0    0    0  501 -0.00000000000E+00 -0.00000000000E+00 -0.65800235981E+01  0.67014633142E+01  0.12700000000E+01 0. -1.
         25    2    1    2    0    0  0.00000000000E+00  0.00000000000E+00  0.58154053161E+03  0.59482338976E+03  0.12500190035E+03 0.  0.
    9000005    1    3    3    0    0  0.57104662886E+02 -0.21285208575E+02  0.35659725278E+03  0.36176871523E+03  0.10000000000E+01 0.  0.
    9000005    1    3    3    0    0 -0.57104662886E+02  0.21285208575E+02  0.22494327883E+03  0.23305467453E+03  0.10000000000E+01 0.  0.
<mgrwt>
<rscale>  0 0.12500190E+03</rscale>
<asrwt>0</asrwt>
<pdfrwt beam="1">  1        4 0.90489550E-01 0.12500190E+03</pdfrwt>
<pdfrwt beam="2">  1       -4 0.10217581E-02 0.12500190E+03</pdfrwt>
<totfact> 0.49193954E+03</totfact>
</mgrwt>
</event>
<event>
 5    1  0.3259432E-002  0.1250028E+03  0.7818608E-02  0.1235065E+00
         -4   -1    0    0    0  501 -0.00000000000E+00  0.00000000000E+00  0.37553696063E+01  0.39643033285E+01  0.12700000000E+01 0.  1.
          4   -1    0    0  501    0  0.00000000000E+00 -0.00000000000E+00 -0.10118607586E+04  0.10118615556E+04  0.12700000000E+01 0.  1.
         25    2    1    2    0    0  0.00000000000E+00  0.00000000000E+00 -0.10081053890E+04  0.10158258589E+04  0.12500280134E+03 0.  0.
    9000005    1    3    3    0    0 -0.41763416972E+01 -0.62350487966E+02 -0.50919169353E+03  0.51301287113E+03  0.10000000000E+01 0.  0.
    9000005    1    3    3    0    0  0.41763416972E+01  0.62350487966E+02 -0.49891369545E+03  0.50281298779E+03  0.10000000000E+01 0.  0.
<mgrwt>
<rscale>  0 0.12500280E+03</rscale>
<asrwt>0</asrwt>
<pdfrwt beam="2">  1        4 0.15568681E+00 0.12500280E+03</pdfrwt>
<pdfrwt beam="1">  1       -4 0.59388311E-03 0.12500280E+03</pdfrwt>
<totfact> 0.30084442E+03</totfact>
</mgrwt>
</event>
<event>
 5    1  0.3259432E-002  0.1250011E+03  0.7818608E-02  0.1235068E+00
         -4   -1    0    0    0  501 -0.00000000000E+00  0.00000000000E+00  0.69165794527E+02  0.69177453210E+02  0.12700000000E+01 0.  1.
          4   -1    0    0  501    0  0.00000000000E+00 -0.00000000000E+00 -0.56454080379E+02  0.56468363633E+02  0.12700000000E+01 0.  1.
         25    2    1    2    0    0  0.00000000000E+00  0.00000000000E+00  0.12711714148E+02  0.12564581684E+03  0.12500113445E+03 0.  0.
    9000005    1    3    3    0    0 -0.44057634530E+02 -0.25344274791E+02 -0.30189784876E+02  0.59125548927E+02  0.10000000000E+01 0.  0.
    9000005    1    3    3    0    0  0.44057634530E+02  0.25344274791E+02  0.42901499024E+02  0.66520267916E+02  0.10000000000E+01 0.  0.
<mgrwt>
<rscale>  0 0.12500113E+03</rscale>
<asrwt>0</asrwt>
<pdfrwt beam="2">  1        4 0.86872387E-02 0.12500113E+03</pdfrwt>
<pdfrwt beam="1">  1       -4 0.10642887E-01 0.12500113E+03</pdfrwt>
<totfact> 0.10438470E+04</totfact>
</mgrwt>
</event>
<event>
 5    1  0.3259432E-002  0.1249963E+03  0.7818608E-02  0.1235075E+00
          4   -1    0    0  501    0  0.00000000000E+00  0.00000000000E+00  0.50013224060E+03  0.50013385307E+03  0.12700000000E+01 0. -1.
         -4   -1    0    0    0  501 -0.00000000000E+00 -0.00000000000E+00 -0.77567020092E+01  0.78599825737E+01  0.12700000000E+01 0. -1.
         25    2    1    2    0    0  0.00000000000E+00  0.00000000000E+00  0.49237553859E+03  0.50799383564E+03  0.12499626415E+03 0.  0.
    9000005    1    3    3    0    0 -0.17596099052E+02  0.55845796566E+02  0.33491501988E+03  0.33999624445E+03  0.10000000000E+01 0.  0.
    9000005    1    3    3    0    0  0.17596099052E+02 -0.55845796566E+02  0.15746051871E+03  0.16799759120E+03  0.10000000000E+01 0.  0.
<mgrwt>
<rscale>  0 0.12499626E+03</rscale>
<asrwt>0</asrwt>
<pdfrwt beam="1">  1        4 0.76951482E-01 0.12499626E+03</pdfrwt>
<pdfrwt beam="2">  1       -4 0.12014076E-02 0.12499626E+03</pdfrwt>
<totfact> 0.55253974E+03</totfact>
</mgrwt>
</event>
<event>
 5    1  0.3259432E-002  0.1249966E+03  0.7818608E-02  0.1235075E+00
          4   -1    0    0  501    0  0.00000000000E+00  0.00000000000E+00  0.28909079318E+02  0.28936961952E+02  0.12700000000E+01 0. -1.
         -4   -1    0    0    0  501 -0.00000000000E+00 -0.00000000000E+00 -0.13501860114E+03  0.13502457389E+03  0.12700000000E+01 0. -1.
         25    2    1    2    0    0  0.00000000000E+00  0.00000000000E+00 -0.10610952182E+03  0.16396153584E+03  0.12499661841E+03 0.  0.
    9000005    1    3    3    0    0 -0.15505368811E+02 -0.64846741629E+00 -0.13245711868E+03  0.13336688218E+03  0.10000000000E+01 0.  0.
    9000005    1    3    3    0    0  0.15505368811E+02  0.64846741629E+00  0.26347596865E+02  0.30594653659E+02  0.10000000000E+01 0.  0.
<mgrwt>
<rscale>  0 0.12499662E+03</rscale>
<asrwt>0</asrwt>
<pdfrwt beam="1">  1        4 0.44501550E-02 0.12499662E+03</pdfrwt>
<pdfrwt beam="2">  1       -4 0.20774696E-01 0.12499662E+03</pdfrwt>
<totfact> 0.96591762E+03</totfact>
</mgrwt>
</event>
<event>
 5    1  0.3259432E-002  0.1249993E+03  0.7818608E-02  0.1235070E+00
         -4   -1    0    0    0  501 -0.00000000000E+00  0.00000000000E+00  0.28210227201E+03  0.28210513071E+03  0.12700000000E+01 0.  1.
          4   -1    0    0  501    0  0.00000000000E+00 -0.00000000000E+00 -0.13814715013E+02  0.13872968352E+02  0.12700000000E+01 0.  1.
         25    2    1    2    0    0  0.00000000000E+00  0.00000000000E+00  0.26828755700E+03  0.29597809906E+03  0.12499928754E+03 0.  0.
    9000005    1    3    3    0    0 -0.45721219355E+02  0.98476964833E+01  0.23228199060E+03  0.23694583808E+03  0.10000000000E+01 0.  0.
    9000005    1    3    3    0    0  0.45721219355E+02 -0.98476964833E+01  0.36005566395E+02  0.59032260983E+02  0.10000000000E+01 0.  0.
<mgrwt>
<rscale>  0 0.12499929E+03</rscale>
<asrwt>0</asrwt>
<pdfrwt beam="2">  1        4 0.21300418E-02 0.12499929E+03</pdfrwt>
<pdfrwt beam="1">  1       -4 0.43405049E-01 0.12499929E+03</pdfrwt>
<totfact> 0.76107328E+03</totfact>
</mgrwt>
</event>
<event>
 5    1  0.3259432E-002  0.1250002E+03  0.7818608E-02  0.1235069E+00
          4   -1    0    0  501    0  0.00000000000E+00  0.00000000000E+00  0.15084307153E+03  0.15084841772E+03  0.12700000000E+01 0.  1.
         -4   -1    0    0    0  501 -0.00000000000E+00 -0.00000000000E+00 -0.25874824324E+02  0.25905972937E+02  0.12700000000E+01 0.  1.
         25    2    1    2    0    0  0.00000000000E+00  0.00000000000E+00  0.12496824720E+03  0.17675439066E+03  0.12500020723E+03 0.  0.
    9000005    1    3    3    0    0  0.36085692160E+02  0.43829325107E+02  0.25554415700E+02  0.62267287397E+02  0.10000000000E+01 0.  0.
    9000005    1    3    3    0    0 -0.36085692160E+02 -0.43829325107E+02  0.99413831504E+02  0.11448710326E+03  0.10000000000E+01 0.  0.
<mgrwt>
<rscale>  0 0.12500021E+03</rscale>
<asrwt>0</asrwt>
<pdfrwt beam="1">  1        4 0.23209434E-01 0.12500021E+03</pdfrwt>
<pdfrwt beam="2">  1       -4 0.39835494E-02 0.12500021E+03</pdfrwt>
<totfact> 0.94204069E+03</totfact>
</mgrwt>
</event>
<event>
 5    1  0.3259432E-002  0.1250035E+03  0.7818608E-02  0.1235064E+00
         -4   -1    0    0    0  501 -0.00000000000E+00  0.00000000000E+00  0.23492587421E+03  0.23492930697E+03  0.12700000000E+01 0. -1.
          4   -1    0    0  501    0  0.00000000000E+00 -0.00000000000E+00 -0.16600715526E+02  0.16649223885E+02  0.12700000000E+01 0. -1.
         25    2    1    2    0    0  0.00000000000E+00  0.00000000000E+00  0.21832515868E+03  0.25157853085E+03  0.12500352904E+03 0.  0.
    9000005    1    3    3    0    0  0.43456132977E+02 -0.34071022279E+02  0.16805223910E+03  0.17689495505E+03  0.10000000000E+01 0.  0.
    9000005    1    3    3    0    0 -0.43456132977E+02  0.34071022279E+02  0.50272919578E+02  0.74683575808E+02  0.10000000000E+01 0.  0.
<mgrwt>
<rscale>  0 0.12500353E+03</rscale>
<asrwt>0</asrwt>
<pdfrwt beam="2">  1        4 0.25579517E-02 0.12500353E+03</pdfrwt>
<pdfrwt beam="1">  1       -4 0.36146438E-01 0.12500353E+03</pdfrwt>
<totfact> 0.82096160E+03</totfact>
</mgrwt>
</event>
<event>
 5    1  0.3259432E-002  0.1250048E+03  0.7818608E-02  0.1235062E+00
          4   -1    0    0  501    0  0.00000000000E+00  0.00000000000E+00  0.87053352036E+02  0.87062615402E+02  0.12700000000E+01 0.  1.
         -4   -1    0    0    0  501 -0.00000000000E+00 -0.00000000000E+00 -0.44854682579E+02  0.44872658148E+02  0.12700000000E+01 0.  1.
         25    2    1    2    0    0  0.00000000000E+00  0.00000000000E+00  0.42198669457E+02  0.13193527355E+03  0.12500475472E+03 0.  0.
    9000005    1    3    3    0    0  0.49087872209E+02  0.14020666655E+02  0.59144307577E+02  0.78136082639E+02  0.10000000000E+01 0.  0.
    9000005    1    3    3    0    0 -0.49087872209E+02 -0.14020666655E+02 -0.16945638120E+02  0.53799190911E+02  0.10000000000E+01 0.  0.
<mgrwt>
<rscale>  0 0.12500475E+03</rscale>
<asrwt>0</asrwt>
<pdfrwt beam="1">  1        4 0.13394918E-01 0.12500475E+03</pdfrwt>
<pdfrwt beam="2">  1       -4 0.69028159E-02 0.12500475E+03</pdfrwt>
<totfact> 0.10301975E+04</totfact>
</mgrwt>
</event>
<event>
 5    1  0.3259432E-002  0.1250008E+03  0.7818608E-02  0.1235068E+00
         -4   -1    0    0    0  501 -0.00000000000E+00  0.00000000000E+00  0.78691868241E+03  0.78691970723E+03  0.12700000000E+01 0. -1.
          4   -1    0    0  501    0  0.00000000000E+00 -0.00000000000E+00 -0.48817716785E+01  0.50442635460E+01  0.12700000000E+01 0. -1.
         25    2    1    2    0    0  0.00000000000E+00  0.00000000000E+00  0.78203691073E+03  0.79196397077E+03  0.12500080504E+03 0.  0.
    9000005    1    3    3    0    0  0.75905663547E+01 -0.78934873727E+01  0.12136812319E+01  0.11063311558E+02  0.10000000000E+01 0.  0.
    9000005    1    3    3    0    0 -0.75905663547E+01  0.78934873727E+01  0.78082322950E+03  0.78090065922E+03  0.10000000000E+01 0.  0.
<mgrwt>
<rscale>  0 0.12500081E+03</rscale>
<asrwt>0</asrwt>
<pdfrwt beam="2">  1        4 0.76362037E-03 0.12500081E+03</pdfrwt>
<pdfrwt beam="1">  1       -4 0.12107693E+00 0.12500081E+03</pdfrwt>
<totfact> 0.38625340E+03</totfact>
</mgrwt>
</event>
<event>
 5    1  0.3259432E-002  0.1250018E+03  0.7818608E-02  0.1235066E+00
         -4   -1    0    0    0  501 -0.00000000000E+00  0.00000000000E+00  0.10000986516E+03  0.10001792854E+03  0.12700000000E+01 0.  1.
          4   -1    0    0  501    0  0.00000000000E+00 -0.00000000000E+00 -0.39039812676E+02  0.39060464332E+02  0.12700000000E+01 0.  1.
         25    2    1    2    0    0  0.00000000000E+00  0.00000000000E+00  0.60970052480E+02  0.13907839287E+03  0.12500180824E+03 0.  0.
    9000005    1    3    3    0    0  0.39592722255E+02  0.48162947835E+02  0.35219812603E+02  0.71614861582E+02  0.10000000000E+01 0.  0.
    9000005    1    3    3    0    0 -0.39592722255E+02 -0.48162947835E+02  0.25750239877E+02  0.67463531285E+02  0.10000000000E+01 0.  0.
<mgrwt>
<rscale>  0 0.12500181E+03</rscale>
<asrwt>0</asrwt>
<pdfrwt beam="2">  1        4 0.60083339E-02 0.12500181E+03</pdfrwt>
<pdfrwt beam="1">  1       -4 0.15388342E-01 0.12500181E+03</pdfrwt>
<totfact> 0.10152309E+04</totfact>
</mgrwt>
</event>
<event>
 5    1  0.3259432E-002  0.1249953E+03  0.7818608E-02  0.1235077E+00
         -4   -1    0    0    0  501 -0.00000000000E+00  0.00000000000E+00  0.29117129918E+01  0.31766291170E+01  0.12700000000E+01 0. -1.
          4   -1    0    0  501    0  0.00000000000E+00 -0.00000000000E+00 -0.12828278953E+04  0.12828285240E+04  0.12700000000E+01 0. -1.
         25    2    1    2    0    0  0.00000000000E+00  0.00000000000E+00 -0.12799161823E+04  0.12860051531E+04  0.12499527983E+03 0.  0.
    9000005    1    3    3    0    0  0.34817263807E+02  0.50876079976E+02 -0.53486611371E+03  0.53840818806E+03  0.10000000000E+01 0.  0.
    9000005    1    3    3    0    0 -0.34817263807E+02 -0.50876079976E+02 -0.74505006862E+03  0.74759696503E+03  0.10000000000E+01 0.  0.
<mgrwt>
<rscale>  0 0.12499528E+03</rscale>
<asrwt>0</asrwt>
<pdfrwt beam="2">  1        4 0.19737813E+00 0.12499528E+03</pdfrwt>
<pdfrwt beam="1">  1       -4 0.46838339E-03 0.12499528E+03</pdfrwt>
<totfact> 0.22563638E+03</totfact>
</mgrwt>
</event>
<event>
 5    1  0.3259432E-002  0.1249989E+03  0.7818608E-02  0.1235071E+00
         -4   -1    0    0    0  501 -0.00000000000E+00  0.00000000000E+00  0.93028105811E+02  0.93036774293E+02  0.12700000000E+01 0.  1.
          4   -1    0    0  501    0  0.00000000000E+00 -0.00000000000E+00 -0.41969050308E+02  0.41988261262E+02  0.12700000000E+01 0.  1.
         25    2    1    2    0    0  0.00000000000E+00  0.00000000000E+00  0.51059055503E+02  0.13502503555E+03  0.12499893231E+03 0.  0.
    9000005    1    3    3    0    0 -0.39944947705E+02  0.38669983202E+02 -0.52936940975E+01  0.55856867485E+02  0.10000000000E+01 0.  0.
    9000005    1    3    3    0    0  0.39944947705E+02 -0.38669983202E+02  0.56352749600E+02  0.79168168070E+02  0.10000000000E+01 0.  0.
<mgrwt>
<rscale>  0 0.12499893E+03</rscale>
<asrwt>0</asrwt>
<pdfrwt beam="2">  1        4 0.64589215E-02 0.12499893E+03</pdfrwt>
<pdfrwt beam="1">  1       -4 0.14314161E-01 0.12499893E+03</pdfrwt>
<totfact> 0.10237790E+04</totfact>
</mgrwt>
</event>
<event>
 5    1  0.3259432E-002  0.1250007E+03  0.7818608E-02  0.1235068E+00
         -4   -1    0    0    0  501 -0.00000000000E+00  0.00000000000E+00  0.32564409217E+03  0.32564656864E+03  0.12700000000E+01 0. -1.
          4   -1    0    0  501    0  0.00000000000E+00 -0.00000000000E+00 -0.11959450299E+02  0.12026693288E+02  0.12700000000E+01 0. -1.
         25    2    1    2    0    0  0.00000000000E+00  0.00000000000E+00  0.31368464188E+03  0.33767326193E+03  0.12500070909E+03 0.  0.
    9000005    1    3    3    0    0  0.53845162549E+02 -0.18113195749E+02  0.22717685133E+03  0.23417453143E+03  0.10000000000E+01 0.  0.
    9000005    1    3    3    0    0 -0.53845162549E+02  0.18113195749E+02  0.86507790550E+02  0.10349873050E+03  0.10000000000E+01 0.  0.
<mgrwt>
<rscale>  0 0.12500071E+03</rscale>
<asrwt>0</asrwt>
<pdfrwt beam="2">  1        4 0.18452785E-02 0.12500071E+03</pdfrwt>
<pdfrwt beam="1">  1       -4 0.50104454E-01 0.12500071E+03</pdfrwt>
<totfact> 0.71101163E+03</totfact>
</mgrwt>
</event>
<event>
 5    1  0.3259432E-002  0.1249967E+03  0.7818608E-02  0.1235074E+00
         -4   -1    0    0    0  501 -0.00000000000E+00  0.00000000000E+00  0.27190526686E+03  0.27190823277E+03  0.12700000000E+01 0. -1.
          4   -1    0    0  501    0  0.00000000000E+00 -0.00000000000E+00 -0.14334343251E+02  0.14390493266E+02  0.12700000000E+01 0. -1.
         25    2    1    2    0    0  0.00000000000E+00  0.00000000000E+00  0.25757092361E+03  0.28629872603E+03  0.12499671931E+03 0.  0.
    9000005    1    3    3    0    0 -0.18531528816E+02  0.33004749753E+02  0.14898867569E+02  0.40690383647E+02  0.10000000000E+01 0.  0.
    9000005    1    3    3    0    0  0.18531528816E+02 -0.33004749753E+02  0.24267205604E+03  0.24560834239E+03  0.10000000000E+01 0.  0.
<mgrwt>
<rscale>  0 0.12499672E+03</rscale>
<asrwt>0</asrwt>
<pdfrwt beam="2">  1        4 0.22098312E-02 0.12499672E+03</pdfrwt>
<pdfrwt beam="1">  1       -4 0.41836123E-01 0.12499672E+03</pdfrwt>
<totfact> 0.77355925E+03</totfact>
</mgrwt>
</event>
<event>
 5    1  0.3259432E-002  0.1249971E+03  0.7818608E-02  0.1235074E+00
         -4   -1    0    0    0  501 -0.00000000000E+00  0.00000000000E+00  0.12260620135E+02  0.12326220268E+02  0.12700000000E+01 0. -1.
          4   -1    0    0  501    0  0.00000000000E+00 -0.00000000000E+00 -0.31766966926E+03  0.31767220789E+03  0.12700000000E+01 0. -1.
         25    2    1    2    0    0  0.00000000000E+00  0.00000000000E+00 -0.30540904913E+03  0.32999842816E+03  0.12499710117E+03 0.  0.
    9000005    1    3    3    0    0  0.61630131511E+02  0.10215666452E+02 -0.15682492437E+03  0.16881258796E+03  0.10000000000E+01 0.  0.
    9000005    1    3    3    0    0 -0.61630131511E+02 -0.10215666452E+02 -0.14858412476E+03  0.16118584020E+03  0.10000000000E+01 0.  0.
<mgrwt>
<rscale>  0 0.12499710E+03</rscale>
<asrwt>0</asrwt>
<pdfrwt beam="2">  1        4 0.48877492E-01 0.12499710E+03</pdfrwt>
<pdfrwt beam="1">  1       -4 0.18914909E-02 0.12499710E+03</pdfrwt>
<totfact> 0.71987141E+03</totfact>
</mgrwt>
</event>
<event>
 4    1  0.3259432E-002  0.1250640E+03  0.7818608E-02  0.1234969E+00
          4   -1    0    0  501    0  0.00000000000E+00  0.00000000000E+00  0.67521761912E+01  0.68705737254E+01  0.12700000000E+01 0.  1.
         -4   -1    0    0    0  501 -0.00000000000E+00 -0.00000000000E+00 -0.57395734952E+03  0.57395875459E+03  0.12700000000E+01 0.  1.
    9000005    1    1    2    0    0 -0.26147390779E+02 -0.49269009572E+02 -0.15239687871E+03  0.16228656749E+03  0.10000000000E+01 0.  0.
    9000005    1    1    2    0    0  0.26147390779E+02  0.49269009572E+02 -0.41480829462E+03  0.41854276082E+03  0.10000000000E+01 0.  0.
<mgrwt>
<rscale>  0 0.12506398E+03</rscale>
<asrwt>0</asrwt>
<pdfrwt beam="1">  1        4 0.10480124E-02 0.12506398E+03</pdfrwt>
<pdfrwt beam="2">  1       -4 0.88310309E-01 0.12506398E+03</pdfrwt>
<totfact> 0.50030275E+03</totfact>
</mgrwt>
</event>
<event>
 5    1  0.3259432E-002  0.1250139E+03  0.7818608E-02  0.1235048E+00
         -4   -1    0    0    0  501 -0.00000000000E+00  0.00000000000E+00  0.12661649269E+03  0.12662286176E+03  0.12700000000E+01 0. -1.
          4   -1    0    0  501    0  0.00000000000E+00 -0.00000000000E+00 -0.30837678594E+02  0.30863818964E+02  0.12700000000E+01 0. -1.
         25    2    1    2    0    0  0.00000000000E+00  0.00000000000E+00  0.95778814094E+02  0.15748668073E+03  0.12501389273E+03 0.  0.
    9000005    1    3    3    0    0 -0.18797797905E+02 -0.28581004817E+02  0.11378170490E+03  0.11881711750E+03  0.10000000000E+01 0.  0.
    9000005    1    3    3    0    0  0.18797797905E+02  0.28581004817E+02 -0.18002890804E+02  0.38669563221E+02  0.10000000000E+01 0.  0.
<mgrwt>
<rscale>  0 0.12501389E+03</rscale>
<asrwt>0</asrwt>
<pdfrwt beam="2">  1        4 0.47467589E-02 0.12501389E+03</pdfrwt>
<pdfrwt beam="1">  1       -4 0.19481962E-01 0.12501389E+03</pdfrwt>
<totfact> 0.97798980E+03</totfact>
</mgrwt>
</event>
<event>
 5    1  0.3259432E-002  0.1249997E+03  0.7818608E-02  0.1235070E+00
         -4   -1    0    0    0  501 -0.00000000000E+00  0.00000000000E+00  0.77230034227E+03  0.77230138649E+03  0.12700000000E+01 0. -1.
          4   -1    0    0  501    0  0.00000000000E+00 -0.00000000000E+00 -0.49771311330E+01  0.51366072767E+01  0.12700000000E+01 0. -1.
         25    2    1    2    0    0  0.00000000000E+00  0.00000000000E+00  0.76732321114E+03  0.77743799377E+03  0.12499969519E+03 0.  0.
    9000005    1    3    3    0    0 -0.89131331425E+01  0.83966776982E+01  0.76479599071E+03  0.76489466957E+03  0.10000000000E+01 0.  0.
    9000005    1    3    3    0    0  0.89131331425E+01 -0.83966776982E+01  0.25272204353E+01  0.12543324197E+02  0.10000000000E+01 0.  0.
<mgrwt>
<rscale>  0 0.12499970E+03</rscale>
<asrwt>0</asrwt>
<pdfrwt beam="2">  1        4 0.77806041E-03 0.12499970E+03</pdfrwt>
<pdfrwt beam="1">  1       -4 0.11882775E+00 0.12499970E+03</pdfrwt>
<totfact> 0.39292273E+03</totfact>
</mgrwt>
</event>
<event>
 5    1  0.3259432E-002  0.1249936E+03  0.7818608E-02  0.1235079E+00
         -4   -1    0    0    0  501 -0.00000000000E+00  0.00000000000E+00  0.66810533717E+02  0.66822603328E+02  0.12700000000E+01 0. -1.
          4   -1    0    0  501    0  0.00000000000E+00 -0.00000000000E+00 -0.58437343997E+02  0.58451142619E+02  0.12700000000E+01 0. -1.
         25    2    1    2    0    0  0.00000000000E+00  0.00000000000E+00  0.83731897200E+01  0.12527374595E+03  0.12499360431E+03 0.  0.
    9000005    1    3    3    0    0  0.31991044961E+02 -0.49542594381E+02  0.24895786799E+02  0.64021057599E+02  0.10000000000E+01 0.  0.
    9000005    1    3    3    0    0 -0.31991044961E+02  0.49542594381E+02 -0.16522597079E+02  0.61252688349E+02  0.10000000000E+01 0.  0.
<mgrwt>
<rscale>  0 0.12499360E+03</rscale>
<asrwt>0</asrwt>
<pdfrwt beam="2">  1        4 0.89923505E-02 0.12499360E+03</pdfrwt>
<pdfrwt beam="1">  1       -4 0.10280533E-01 0.12499360E+03</pdfrwt>
<totfact> 0.10448430E+04</totfact>
</mgrwt>
</event>
<event>
 5    1  0.3259432E-002  0.1249959E+03  0.7818608E-02  0.1235076E+00
         -4   -1    0    0    0  501 -0.00000000000E+00  0.00000000000E+00  0.14211362202E+03  0.14211929659E+03  0.12700000000E+01 0. -1.
          4   -1    0    0  501    0  0.00000000000E+00 -0.00000000000E+00 -0.27464105233E+02  0.27493453335E+02  0.12700000000E+01 0. -1.
         25    2    1    2    0    0  0.00000000000E+00  0.00000000000E+00  0.11464951679E+03  0.16961274993E+03  0.12499589288E+03 0.  0.
    9000005    1    3    3    0    0 -0.52225559671E+02 -0.30087065913E+02  0.34935029083E+02  0.69672066678E+02  0.10000000000E+01 0.  0.
    9000005    1    3    3    0    0  0.52225559671E+02  0.30087065913E+02  0.79714487704E+02  0.99940683248E+02  0.10000000000E+01 0.  0.
<mgrwt>
<rscale>  0 0.12499589E+03</rscale>
<asrwt>0</asrwt>
<pdfrwt beam="2">  1        4 0.42279410E-02 0.12499589E+03</pdfrwt>
<pdfrwt beam="1">  1       -4 0.21866328E-01 0.12499589E+03</pdfrwt>
<totfact> 0.95529670E+03</totfact>
</mgrwt>
</event>
<event>
 5    1  0.3259432E-002  0.1250006E+03  0.7818608E-02  0.1235068E+00
          4   -1    0    0  501    0  0.00000000000E+00  0.00000000000E+00  0.42114933990E+02  0.42134078428E+02  0.12700000000E+01 0.  1.
         -4   -1    0    0    0  501 -0.00000000000E+00 -0.00000000000E+00 -0.92708448566E+02  0.92717146933E+02  0.12700000000E+01 0.  1.
         25    2    1    2    0    0  0.00000000000E+00  0.00000000000E+00 -0.50593514575E+02  0.13485122536E+03  0.12500059706E+03 0.  0.
    9000005    1    3    3    0    0  0.14135535530E+01 -0.50835411880E+02 -0.64477571095E+02  0.82125479657E+02  0.10000000000E+01 0.  0.
    9000005    1    3    3    0    0 -0.14135535530E+01  0.50835411880E+02  0.13884056520E+02  0.52725745704E+02  0.10000000000E+01 0.  0.
<mgrwt>
<rscale>  0 0.12500060E+03</rscale>
<asrwt>0</asrwt>
<pdfrwt beam="1">  1        4 0.64813624E-02 0.12500060E+03</pdfrwt>
<pdfrwt beam="2">  1       -4 0.14264980E-01 0.12500060E+03</pdfrwt>
<totfact> 0.10241070E+04</totfact>
</mgrwt>
</event>
<event>
 5    1  0.3259432E-002  0.1249868E+03  0.7818608E-02  0.1235090E+00
          4   -1    0    0  501    0  0.00000000000E+00  0.00000000000E+00  0.13683401111E+03  0.13683990462E+03  0.12700000000E+01 0.  1.
         -4   -1    0    0    0  501 -0.00000000000E+00 -0.00000000000E+00 -0.28520695445E+02  0.28548957401E+02  0.12700000000E+01 0.  1.
         25    2    1    2    0    0  0.00000000000E+00  0.00000000000E+00  0.10831331566E+03  0.16538886202E+03  0.12498680462E+03 0.  0.
    9000005    1    3    3    0    0  0.48076284949E+02  0.31506259913E+02  0.86581744768E+02  0.10392964984E+03  0.10000000000E+01 0.  0.
    9000005    1    3    3    0    0 -0.48076284949E+02 -0.31506259913E+02  0.21731570893E+02  0.61459212180E+02  0.10000000000E+01 0.  0.
<mgrwt>
<rscale>  0 0.12498680E+03</rscale>
<asrwt>0</asrwt>
<pdfrwt beam="1">  1        4 0.21054014E-01 0.12498680E+03</pdfrwt>
<pdfrwt beam="2">  1       -4 0.43904266E-02 0.12498680E+03</pdfrwt>
<totfact> 0.96342353E+03</totfact>
</mgrwt>
</event>
<event>
 5    1  0.3259432E-002  0.1250011E+03  0.7818608E-02  0.1235068E+00
         -4   -1    0    0    0  501 -0.00000000000E+00  0.00000000000E+00  0.11514666259E+03  0.11515366605E+03  0.12700000000E+01 0. -1.
          4   -1    0    0  501    0  0.00000000000E+00 -0.00000000000E+00 -0.33904797948E+02  0.33928575329E+02  0.12700000000E+01 0. -1.
         25    2    1    2    0    0  0.00000000000E+00  0.00000000000E+00  0.81241864642E+02  0.14908224138E+03  0.12500109650E+03 0.  0.
    9000005    1    3    3    0    0 -0.41126823038E+02  0.40283962052E+02  0.11624501784E+02  0.58739613665E+02  0.10000000000E+01 0.  0.
    9000005    1    3    3    0    0  0.41126823038E+02 -0.40283962052E+02  0.69617362858E+02  0.90342627719E+02  0.10000000000E+01 0.  0.
<mgrwt>
<rscale>  0 0.12500110E+03</rscale>
<asrwt>0</asrwt>
<pdfrwt beam="2">  1        4 0.52184904E-02 0.12500110E+03</pdfrwt>
<pdfrwt beam="1">  1       -4 0.17717239E-01 0.12500110E+03</pdfrwt>
<totfact> 0.99484499E+03</totfact>
</mgrwt>
</event>
<event>
 5    1  0.3259432E-002  0.1250070E+03  0.7818608E-02  0.1235058E+00
         -4   -1    0    0    0  501 -0.00000000000E+00  0.00000000000E+00  0.67350312721E+03  0.67350432461E+03  0.12700000000E+01 0. -1.
          4   -1    0    0  501    0  0.00000000000E+00 -0.00000000000E+00 -0.57298139575E+01  0.58688728038E+01  0.12700000000E+01 0. -1.
         25    2    1    2    0    0  0.00000000000E+00  0.00000000000E+00  0.66777331325E+03  0.67937319741E+03  0.12500697367E+03 0.  0.
    9000005    1    3    3    0    0 -0.59852262876E+02  0.84473533741E+01  0.42016550720E+03  0.42449229038E+03  0.10000000000E+01 0.  0.
    9000005    1    3    3    0    0  0.59852262876E+02 -0.84473533741E+01  0.24760780605E+03  0.25488090703E+03  0.10000000000E+01 0.  0.
<mgrwt>
<rscale>  0 0.12500697E+03</rscale>
<asrwt>0</asrwt>
<pdfrwt beam="2">  1        4 0.89229917E-03 0.12500697E+03</pdfrwt>
<pdfrwt beam="1">  1       -4 0.10362661E+00 0.12500697E+03</pdfrwt>
<totfact> 0.44191426E+03</totfact>
</mgrwt>
</event>
<event>
 5    1  0.3259432E-002  0.1249965E+03  0.7818608E-02  0.1235075E+00
         -4   -1    0    0    0  501 -0.00000000000E+00  0.00000000000E+00  0.44473394665E+01  0.46251192774E+01  0.12700000000E+01 0. -1.
          4   -1    0    0  501    0  0.00000000000E+00 -0.00000000000E+00 -0.86089647214E+03  0.86089740889E+03  0.12700000000E+01 0. -1.
         25    2    1    2    0    0  0.00000000000E+00  0.00000000000E+00 -0.85644913267E+03  0.86552252817E+03  0.12499651962E+03 0.  0.
    9000005    1    3    3    0    0 -0.85053758060E+01  0.61801211761E+02 -0.40297073458E+03  0.40777217183E+03  0.10000000000E+01 0.  0.
    9000005    1    3    3    0    0  0.85053758060E+01 -0.61801211761E+02 -0.45347839809E+03  0.45775035634E+03  0.10000000000E+01 0.  0.
<mgrwt>
<rscale>  0 0.12499652E+03</rscale>
<asrwt>0</asrwt>
<pdfrwt beam="2">  1        4 0.13245923E+00 0.12499652E+03</pdfrwt>
<pdfrwt beam="1">  1       -4 0.69795418E-03 0.12499652E+03</pdfrwt>
<totfact> 0.35503144E+03</totfact>
</mgrwt>
</event>
<event>
 5    1  0.3259432E-002  0.1249988E+03  0.7818608E-02  0.1235071E+00
         -4   -1    0    0    0  501 -0.00000000000E+00  0.00000000000E+00  0.29088847193E+03  0.29089124429E+03  0.12700000000E+01 0. -1.
          4   -1    0    0  501    0  0.00000000000E+00 -0.00000000000E+00 -0.13395567573E+02  0.13455635645E+02  0.12700000000E+01 0. -1.
         25    2    1    2    0    0  0.00000000000E+00  0.00000000000E+00  0.27749290436E+03  0.30434687993E+03  0.12499884541E+03 0.  0.
    9000005    1    3    3    0    0  0.43067628790E+02 -0.32241843605E+02  0.61335944093E+02  0.81593229906E+02  0.10000000000E+01 0.  0.
    9000005    1    3    3    0    0 -0.43067628790E+02  0.32241843605E+02  0.21615696027E+03  0.22275365003E+03  0.10000000000E+01 0.  0.
<mgrwt>
<rscale>  0 0.12499885E+03</rscale>
<asrwt>0</asrwt>
<pdfrwt beam="2">  1        4 0.20656905E-02 0.12499885E+03</pdfrwt>
<pdfrwt beam="1">  1       -4 0.44756905E-01 0.12499885E+03</pdfrwt>
<totfact> 0.75058712E+03</totfact>
</mgrwt>
</event>
<event>
 5    1  0.3259432E-002  0.1250116E+03  0.7818608E-02  0.1235051E+00
         -4   -1    0    0    0  501 -0.00000000000E+00  0.00000000000E+00  0.12255273305E+03  0.12255931331E+03  0.12700000000E+01 0. -1.
          4   -1    0    0  501    0  0.00000000000E+00 -0.00000000000E+00 -0.31859882717E+02  0.31885185066E+02  0.12700000000E+01 0. -1.
         25    2    1    2    0    0  0.00000000000E+00  0.00000000000E+00  0.90692850334E+02  0.15444449837E+03  0.12501163936E+03 0.  0.
    9000005    1    3    3    0    0 -0.57340309265E+02  0.13572805550E+02  0.71079369411E+02  0.92333140708E+02  0.10000000000E+01 0.  0.
    9000005    1    3    3    0    0  0.57340309265E+02 -0.13572805550E+02  0.19613480922E+02  0.62111357665E+02  0.10000000000E+01 0.  0.
<mgrwt>
<rscale>  0 0.12501164E+03</rscale>
<asrwt>0</asrwt>
<pdfrwt beam="2">  1        4 0.49039729E-02 0.12501164E+03</pdfrwt>
<pdfrwt beam="1">  1       -4 0.18856719E-01 0.12501164E+03</pdfrwt>
<totfact> 0.98398900E+03</totfact>
</mgrwt>
</event>
<event>
 5    1  0.3259432E-002  0.1250009E+03  0.7818608E-02  0.1235068E+00
         -4   -1    0    0    0  501 -0.00000000000E+00  0.00000000000E+00  0.59071443563E+01  0.60421233392E+01  0.12700000000E+01 0.  1.
          4   -1    0    0  501    0  0.00000000000E+00 -0.00000000000E+00 -0.65367918212E+03  0.65368041583E+03  0.12700000000E+01 0.  1.
         25    2    1    2    0    0  0.00000000000E+00  0.00000000000E+00 -0.64777203776E+03  0.65972253917E+03  0.12500086310E+03 0.  0.
    9000005    1    3    3    0    0  0.45360870172E+02  0.42540656764E+02 -0.29135699080E+03  0.29792148649E+03  0.10000000000E+01 0.  0.
    9000005    1    3    3    0    0 -0.45360870172E+02 -0.42540656764E+02 -0.35641504696E+03  0.36180105268E+03  0.10000000000E+01 0.  0.
<mgrwt>
<rscale>  0 0.12500086E+03</rscale>
<asrwt>0</asrwt>
<pdfrwt beam="2">  1        4 0.10057645E+00 0.12500086E+03</pdfrwt>
<pdfrwt beam="1">  1       -4 0.91926985E-03 0.12500086E+03</pdfrwt>
<totfact> 0.45298863E+03</totfact>
</mgrwt>
</event>
<event>
 5    1  0.3259432E-002  0.1249982E+03  0.7818608E-02  0.1235072E+00
         -4   -1    0    0    0  501 -0.00000000000E+00  0.00000000000E+00  0.15808965672E+03  0.15809475786E+03  0.12700000000E+01 0.  1.
          4   -1    0    0  501    0  0.00000000000E+00 -0.00000000000E+00 -0.24686539442E+02  0.24719185456E+02  0.12700000000E+01 0.  1.
         25    2    1    2    0    0  0.00000000000E+00  0.00000000000E+00  0.13340311728E+03  0.18281394332E+03  0.12499818467E+03 0.  0.
    9000005    1    3    3    0    0 -0.12359917126E+02 -0.96265376697E+01 -0.21775011865E+02  0.26843787375E+02  0.10000000000E+01 0.  0.
    9000005    1    3    3    0    0  0.12359917126E+02  0.96265376697E+01  0.15517812915E+03  0.15597015594E+03  0.10000000000E+01 0.  0.
<mgrwt>
<rscale>  0 0.12499818E+03</rscale>
<asrwt>0</asrwt>
<pdfrwt beam="2">  1        4 0.38008328E-02 0.12499818E+03</pdfrwt>
<pdfrwt beam="1">  1       -4 0.24324389E-01 0.12499818E+03</pdfrwt>
<totfact> 0.93116711E+03</totfact>
</mgrwt>
</event>
<event>
 5    1  0.3259432E-002  0.1249969E+03  0.7818608E-02  0.1235074E+00
          4   -1    0    0  501    0  0.00000000000E+00  0.00000000000E+00  0.33960177419E+02  0.33983916054E+02  0.12700000000E+01 0.  1.
         -4   -1    0    0    0  501 -0.00000000000E+00 -0.00000000000E+00 -0.11495126580E+03  0.11495828117E+03  0.12700000000E+01 0.  1.
         25    2    1    2    0    0  0.00000000000E+00  0.00000000000E+00 -0.80991088386E+02  0.14894219723E+03  0.12499688683E+03 0.  0.
    9000005    1    3    3    0    0 -0.59559481173E+01 -0.57423086720E+02 -0.11993135350E+02  0.58972192616E+02  0.10000000000E+01 0.  0.
    9000005    1    3    3    0    0  0.59559481173E+01  0.57423086720E+02 -0.68997953036E+02  0.89970004610E+02  0.10000000000E+01 0.  0.
<mgrwt>
<rscale>  0 0.12499689E+03</rscale>
<asrwt>0</asrwt>
<pdfrwt beam="1">  1        4 0.52270084E-02 0.12499689E+03</pdfrwt>
<pdfrwt beam="2">  1       -4 0.17687176E-01 0.12499689E+03</pdfrwt>
<totfact> 0.99521948E+03</totfact>
</mgrwt>
</event>
<event>
 5    1  0.3259432E-002  0.1249993E+03  0.7818608E-02  0.1235070E+00
         -4   -1    0    0    0  501 -0.00000000000E+00  0.00000000000E+00  0.66833498099E+03  0.66833618764E+03  0.12700000000E+01 0.  1.
          4   -1    0    0  501    0  0.00000000000E+00 -0.00000000000E+00 -0.57744650047E+01  0.59124737708E+01  0.12700000000E+01 0.  1.
         25    2    1    2    0    0  0.00000000000E+00  0.00000000000E+00  0.66256051598E+03  0.67424866141E+03  0.12499928031E+03 0.  0.
    9000005    1    3    3    0    0 -0.30837996855E+02  0.87459745083E+01  0.62063970807E+03  0.62146771545E+03  0.10000000000E+01 0.  0.
    9000005    1    3    3    0    0  0.30837996855E+02 -0.87459745083E+01  0.41920807914E+02  0.52780945958E+02  0.10000000000E+01 0.  0.
<mgrwt>
<rscale>  0 0.12499928E+03</rscale>
<asrwt>0</asrwt>
<pdfrwt beam="2">  1        4 0.89908798E-03 0.12499928E+03</pdfrwt>
<pdfrwt beam="1">  1       -4 0.10283149E+00 0.12499928E+03</pdfrwt>
<totfact> 0.44482073E+03</totfact>
</mgrwt>
</event>
<event>
 5    1  0.3259432E-002  0.1250004E+03  0.7818608E-02  0.1235069E+00
         -4   -1    0    0    0  501 -0.00000000000E+00  0.00000000000E+00  0.17393785821E+03  0.17394249458E+03  0.12700000000E+01 0. -1.
          4   -1    0    0  501    0  0.00000000000E+00 -0.00000000000E+00 -0.22434970049E+02  0.22470887412E+02  0.12700000000E+01 0. -1.
         25    2    1    2    0    0  0.00000000000E+00  0.00000000000E+00  0.15150288816E+03  0.19641338199E+03  0.12500036601E+03 0.  0.
    9000005    1    3    3    0    0 -0.25504429394E+02  0.57023794908E+02  0.78510756443E+02  0.10033507852E+03  0.10000000000E+01 0.  0.
    9000005    1    3    3    0    0  0.25504429394E+02 -0.57023794908E+02  0.72992131722E+02  0.96078303470E+02  0.10000000000E+01 0.  0.
<mgrwt>
<rscale>  0 0.12500037E+03</rscale>
<asrwt>0</asrwt>
<pdfrwt beam="2">  1        4 0.34546534E-02 0.12500037E+03</pdfrwt>
<pdfrwt beam="1">  1       -4 0.26762790E-01 0.12500037E+03</pdfrwt>
<totfact> 0.90742483E+03</totfact>
</mgrwt>
</event>
<event>
 5    1  0.3259432E-002  0.1249990E+03  0.7818608E-02  0.1235071E+00
          4   -1    0    0  501    0  0.00000000000E+00  0.00000000000E+00  0.17148265359E+02  0.17195229130E+02  0.12700000000E+01 0.  1.
         -4   -1    0    0    0  501 -0.00000000000E+00 -0.00000000000E+00 -0.22742892503E+03  0.22743247094E+03  0.12700000000E+01 0.  1.
         25    2    1    2    0    0  0.00000000000E+00  0.00000000000E+00 -0.21028065967E+03  0.24462770007E+03  0.12499902325E+03 0.  0.
    9000005    1    3    3    0    0 -0.44549588940E+02  0.28690047551E+02 -0.40309387883E+02  0.66585519858E+02  0.10000000000E+01 0.  0.
    9000005    1    3    3    0    0  0.44549588940E+02 -0.28690047551E+02 -0.16997127178E+03  0.17804218021E+03  0.10000000000E+01 0.  0.
<mgrwt>
<rscale>  0 0.12499902E+03</rscale>
<asrwt>0</asrwt>
<pdfrwt beam="1">  1        4 0.26420802E-02 0.12499902E+03</pdfrwt>
<pdfrwt beam="2">  1       -4 0.34992949E-01 0.12499902E+03</pdfrwt>
<totfact> 0.83114755E+03</totfact>
</mgrwt>
</event>
<event>
 5    1  0.3259432E-002  0.1250139E+03  0.7818608E-02  0.1235048E+00
         -4   -1    0    0    0  501 -0.00000000000E+00  0.00000000000E+00  0.29553847582E+02  0.29581122476E+02  0.12700000000E+01 0. -1.
          4   -1    0    0  501    0  0.00000000000E+00 -0.00000000000E+00 -0.13211210930E+03  0.13211821344E+03  0.12700000000E+01 0. -1.
         25    2    1    2    0    0  0.00000000000E+00  0.00000000000E+00 -0.10255826171E+03  0.16169933592E+03  0.12501391199E+03 0.  0.
    9000005    1    3    3    0    0 -0.13199063880E+02  0.54271657256E+01  0.27424451332E+02  0.30931698078E+02  0.10000000000E+01 0.  0.
    9000005    1    3    3    0    0  0.13199063880E+02 -0.54271657256E+01 -0.12998271305E+03  0.13076763784E+03  0.10000000000E+01 0.  0.
<mgrwt>
<rscale>  0 0.12501391E+03</rscale>
<asrwt>0</asrwt>
<pdfrwt beam="2">  1        4 0.20327507E-01 0.12501391E+03</pdfrwt>
<pdfrwt beam="1">  1       -4 0.45493135E-02 0.12501391E+03</pdfrwt>
<totfact> 0.96985838E+03</totfact>
</mgrwt>
</event>
<event>
 5    1  0.3259432E-002  0.1250001E+03  0.7818608E-02  0.1235069E+00
          4   -1    0    0  501    0  0.00000000000E+00  0.00000000000E+00  0.51595899358E+01  0.53135927870E+01  0.12700000000E+01 0. -1.
         -4   -1    0    0    0  501 -0.00000000000E+00 -0.00000000000E+00 -0.74579963791E+03  0.74580071923E+03  0.12700000000E+01 0. -1.
         25    2    1    2    0    0  0.00000000000E+00  0.00000000000E+00 -0.74064004797E+03  0.75111431201E+03  0.12500011622E+03 0.  0.
    9000005    1    3    3    0    0  0.28112072787E+02 -0.47193158797E+02 -0.19128131943E+03  0.19901514022E+03  0.10000000000E+01 0.  0.
    9000005    1    3    3    0    0 -0.28112072787E+02  0.47193158797E+02 -0.54935872854E+03  0.55209917180E+03  0.10000000000E+01 0.  0.
<mgrwt>
<rscale>  0 0.12500012E+03</rscale>
<asrwt>0</asrwt>
<pdfrwt beam="1">  1        4 0.80571321E-03 0.12500012E+03</pdfrwt>
<pdfrwt beam="2">  1       -4 0.11475025E+00 0.12500012E+03</pdfrwt>
<totfact> 0.40520816E+03</totfact>
</mgrwt>
</event>
<event>
 5    1  0.3259432E-002  0.1250083E+03  0.7818608E-02  0.1235056E+00
         -4   -1    0    0    0  501 -0.00000000000E+00  0.00000000000E+00  0.45659967998E+02  0.45677626663E+02  0.12700000000E+01 0. -1.
          4   -1    0    0  501    0  0.00000000000E+00 -0.00000000000E+00 -0.85523299243E+02  0.85532728318E+02  0.12700000000E+01 0. -1.
         25    2    1    2    0    0  0.00000000000E+00  0.00000000000E+00 -0.39863331245E+02  0.13121035498E+03  0.12500828803E+03 0.  0.
    9000005    1    3    3    0    0  0.30348029850E+02 -0.30410223992E+02 -0.67570503774E+02  0.80078446659E+02  0.10000000000E+01 0.  0.
    9000005    1    3    3    0    0 -0.30348029850E+02  0.30410223992E+02  0.27707172529E+02  0.51131908321E+02  0.10000000000E+01 0.  0.
<mgrwt>
<rscale>  0 0.12500829E+03</rscale>
<asrwt>0</asrwt>
<pdfrwt beam="2">  1        4 0.13159514E-01 0.12500829E+03</pdfrwt>
<pdfrwt beam="1">  1       -4 0.70266941E-02 0.12500829E+03</pdfrwt>
<totfact> 0.10316653E+04</totfact>
</mgrwt>
</event>
<event>
 5    1  0.3259432E-002  0.1250033E+03  0.7818608E-02  0.1235064E+00
          4   -1    0    0  501    0  0.00000000000E+00  0.00000000000E+00  0.31463429129E+02  0.31489050042E+02  0.12700000000E+01 0.  1.
         -4   -1    0    0    0  501 -0.00000000000E+00 -0.00000000000E+00 -0.12407915725E+03  0.12408565655E+03  0.12700000000E+01 0.  1.
         25    2    1    2    0    0  0.00000000000E+00  0.00000000000E+00 -0.92615728116E+02  0.15557470660E+03  0.12500326491E+03 0.  0.
    9000005    1    3    3    0    0 -0.19022742560E+02 -0.51704447185E+02 -0.95934144636E+01  0.55930744625E+02  0.10000000000E+01 0.  0.
    9000005    1    3    3    0    0  0.19022742560E+02  0.51704447185E+02 -0.83022313652E+02  0.99643961972E+02  0.10000000000E+01 0.  0.
<mgrwt>
<rscale>  0 0.12500326E+03</rscale>
<asrwt>0</asrwt>
<pdfrwt beam="1">  1        4 0.48429984E-02 0.12500326E+03</pdfrwt>
<pdfrwt beam="2">  1       -4 0.19091572E-01 0.12500326E+03</pdfrwt>
<totfact> 0.98195585E+03</totfact>
</mgrwt>
</event>
<event>
 5    1  0.3259432E-002  0.1250002E+03  0.7818608E-02  0.1235069E+00
          4   -1    0    0  501    0  0.00000000000E+00  0.00000000000E+00  0.57335179522E+02  0.57349243332E+02  0.12700000000E+01 0. -1.
         -4   -1    0    0    0  501 -0.00000000000E+00 -0.00000000000E+00 -0.68102005802E+02  0.68113846568E+02  0.12700000000E+01 0. -1.
         25    2    1    2    0    0  0.00000000000E+00  0.00000000000E+00 -0.10766826281E+02  0.12546308990E+03  0.12500024952E+03 0.  0.
    9000005    1    3    3    0    0  0.11400838270E+02 -0.16544330543E+02 -0.64776596785E+02  0.67828470995E+02  0.10000000000E+01 0.  0.
    9000005    1    3    3    0    0 -0.11400838270E+02  0.16544330543E+02  0.54009770505E+02  0.57634618905E+02  0.10000000000E+01 0.  0.
<mgrwt>
<rscale>  0 0.12500025E+03</rscale>
<asrwt>0</asrwt>
<pdfrwt beam="1">  1        4 0.88227895E-02 0.12500025E+03</pdfrwt>
<pdfrwt beam="2">  1       -4 0.10479224E-01 0.12500025E+03</pdfrwt>
<totfact> 0.10442711E+04</totfact>
</mgrwt>
</event>
<event>
 5    1  0.3259432E-002  0.1249991E+03  0.7818608E-02  0.1235071E+00
          4   -1    0    0  501    0  0.00000000000E+00  0.00000000000E+00  0.19008825357E+02  0.19051203150E+02  0.12700000000E+01 0. -1.
         -4   -1    0    0    0  501 -0.00000000000E+00 -0.00000000000E+00 -0.20522068004E+03  0.20522460968E+03  0.12700000000E+01 0. -1.
         25    2    1    2    0    0  0.00000000000E+00  0.00000000000E+00 -0.18621185468E+03  0.22427581283E+03  0.12499914157E+03 0.  0.
    9000005    1    3    3    0    0  0.53507118721E+01  0.56511649558E+02 -0.46215340960E+02  0.73205562585E+02  0.10000000000E+01 0.  0.
    9000005    1    3    3    0    0 -0.53507118721E+01 -0.56511649558E+02 -0.13999651372E+03  0.15107025024E+03  0.10000000000E+01 0.  0.
<mgrwt>
<rscale>  0 0.12499914E+03</rscale>
<asrwt>0</asrwt>
<pdfrwt beam="1">  1        4 0.29279969E-02 0.12499914E+03</pdfrwt>
<pdfrwt beam="2">  1       -4 0.31575973E-01 0.12499914E+03</pdfrwt>
<totfact> 0.86197901E+03</totfact>
</mgrwt>
</event>
<event>
 5    1  0.3259432E-002  0.1249531E+03  0.7818608E-02  0.1235143E+00
         -4   -1    0    0    0  501 -0.00000000000E+00  0.00000000000E+00  0.19711148603E+02  0.19752019625E+02  0.12700000000E+01 0.  1.
          4   -1    0    0  501    0  0.00000000000E+00 -0.00000000000E+00 -0.19777804726E+03  0.19778212477E+03  0.12700000000E+01 0.  1.
         25    2    1    2    0    0  0.00000000000E+00  0.00000000000E+00 -0.17806689866E+03  0.21753414440E+03  0.12495312553E+03 0.  0.
    9000005    1    3    3    0    0  0.60597070590E+02  0.11165644018E+02 -0.71139615689E+02  0.94119718926E+02  0.10000000000E+01 0.  0.
    9000005    1    3    3    0    0 -0.60597070590E+02 -0.11165644018E+02 -0.10692728297E+03  0.12341442547E+03  0.10000000000E+01 0.  0.
<mgrwt>
<rscale>  0 0.12495313E+03</rscale>
<asrwt>0</asrwt>
<pdfrwt beam="2">  1        4 0.30430848E-01 0.12495313E+03</pdfrwt>
<pdfrwt beam="1">  1       -4 0.30359421E-02 0.12495313E+03</pdfrwt>
<totfact> 0.87351495E+03</totfact>
</mgrwt>
</event>
<event>
 5    1  0.3259432E-002  0.1250060E+03  0.7818608E-02  0.1235060E+00
         -4   -1    0    0    0  501 -0.00000000000E+00  0.00000000000E+00  0.14191115231E+03  0.14191683498E+03  0.12700000000E+01 0.  1.
          4   -1    0    0  501    0  0.00000000000E+00 -0.00000000000E+00 -0.27507789509E+02  0.27537091053E+02  0.12700000000E+01 0.  1.
         25    2    1    2    0    0  0.00000000000E+00  0.00000000000E+00  0.11440336281E+03  0.16945392604E+03  0.12500601437E+03 0.  0.
    9000005    1    3    3    0    0 -0.54166614313E+02  0.71173834511E+01  0.98339187897E+02  0.11250011169E+03  0.10000000000E+01 0.  0.
    9000005    1    3    3    0    0  0.54166614313E+02 -0.71173834511E+01  0.16064174908E+02  0.56953814348E+02  0.10000000000E+01 0.  0.
<mgrwt>
<rscale>  0 0.12500601E+03</rscale>
<asrwt>0</asrwt>
<pdfrwt beam="2">  1        4 0.42346587E-02 0.12500601E+03</pdfrwt>
<pdfrwt beam="1">  1       -4 0.21835176E-01 0.12500601E+03</pdfrwt>
<totfact> 0.95537572E+03</totfact>
</mgrwt>
</event>
<event>
 5    1  0.3259432E-002  0.1250177E+03  0.7818608E-02  0.1235042E+00
          4   -1    0    0  501    0  0.00000000000E+00  0.00000000000E+00  0.15525950828E+02  0.15577806300E+02  0.12700000000E+01 0. -1.
         -4   -1    0    0    0  501 -0.00000000000E+00 -0.00000000000E+00 -0.25119315706E+03  0.25119636752E+03  0.12700000000E+01 0. -1.
         25    2    1    2    0    0  0.00000000000E+00  0.00000000000E+00 -0.23566720623E+03  0.26677417382E+03  0.12501770964E+03 0.  0.
    9000005    1    3    3    0    0 -0.30246514053E+02 -0.46321512896E+02 -0.55773580523E+02  0.78563518593E+02  0.10000000000E+01 0.  0.
    9000005    1    3    3    0    0  0.30246514053E+02  0.46321512896E+02 -0.17989362571E+03  0.18821065523E+03  0.10000000000E+01 0.  0.
<mgrwt>
<rscale>  0 0.12501771E+03</rscale>
<asrwt>0</asrwt>
<pdfrwt beam="1">  1        4 0.23928438E-02 0.12501771E+03</pdfrwt>
<pdfrwt beam="2">  1       -4 0.38649334E-01 0.12501771E+03</pdfrwt>
<totfact> 0.79933203E+03</totfact>
</mgrwt>
</event>
<event>
 5    1  0.3259432E-002  0.1250078E+03  0.7818608E-02  0.1235057E+00
          4   -1    0    0  501    0  0.00000000000E+00  0.00000000000E+00  0.97787744582E+00  0.16028550462E+01  0.12700000000E+01 0. -1.
         -4   -1    0    0    0  501 -0.00000000000E+00 -0.00000000000E+00 -0.30269941073E+04  0.30269943737E+04  0.12700000000E+01 0. -1.
         25    2    1    2    0    0  0.00000000000E+00  0.00000000000E+00 -0.30260162298E+04  0.30285972288E+04  0.12500780274E+03 0.  0.
    9000005    1    3    3    0    0  0.53043128247E+02  0.12354356188E+02 -0.77039831496E+03  0.77232167344E+03  0.10000000000E+01 0.  0.
    9000005    1    3    3    0    0 -0.53043128247E+02 -0.12354356188E+02 -0.22556179149E+04  0.22562755553E+04  0.10000000000E+01 0.  0.
<mgrwt>
<rscale>  0 0.12500780E+03</rscale>
<asrwt>0</asrwt>
<pdfrwt beam="1">  1        4 0.19854080E-03 0.12500780E+03</pdfrwt>
<pdfrwt beam="2">  1       -4 0.46573381E+00 0.12500780E+03</pdfrwt>
<totfact> 0.17113248E+02</totfact>
</mgrwt>
</event>
<event>
 5    1  0.3259432E-002  0.1249964E+03  0.7818608E-02  0.1235075E+00
          4   -1    0    0  501    0  0.00000000000E+00  0.00000000000E+00  0.22707549747E+03  0.22707904890E+03  0.12700000000E+01 0. -1.
         -4   -1    0    0    0  501 -0.00000000000E+00 -0.00000000000E+00 -0.17174312580E+02  0.17221205317E+02  0.12700000000E+01 0. -1.
         25    2    1    2    0    0  0.00000000000E+00  0.00000000000E+00  0.20990118489E+03  0.24430025422E+03  0.12499642713E+03 0.  0.
    9000005    1    3    3    0    0  0.27707452682E+02 -0.42314284454E+02  0.33223715850E+02  0.60522862605E+02  0.10000000000E+01 0.  0.
    9000005    1    3    3    0    0 -0.27707452682E+02  0.42314284454E+02  0.17667746904E+03  0.18377739162E+03  0.10000000000E+01 0.  0.
<mgrwt>
<rscale>  0 0.12499643E+03</rscale>
<asrwt>0</asrwt>
<pdfrwt beam="1">  1        4 0.34938572E-01 0.12499643E+03</pdfrwt>
<pdfrwt beam="2">  1       -4 0.26460823E-02 0.12499643E+03</pdfrwt>
<totfact> 0.83167682E+03</totfact>
</mgrwt>
</event>
<event>
 5    1  0.3259432E-002  0.1250027E+03  0.7818608E-02  0.1235065E+00
          4   -1    0    0  501    0  0.00000000000E+00  0.00000000000E+00  0.55092586261E+02  0.55107222402E+02  0.12700000000E+01 0.  1.
         -4   -1    0    0    0  501 -0.00000000000E+00 -0.00000000000E+00 -0.70876724548E+02  0.70888101841E+02  0.12700000000E+01 0.  1.
         25    2    1    2    0    0  0.00000000000E+00  0.00000000000E+00 -0.15784138287E+02  0.12599532424E+03  0.12500273081E+03 0.  0.
    9000005    1    3    3    0    0 -0.51670628785E+02  0.19623907383E+02 -0.37286441168E+02  0.66680059351E+02  0.10000000000E+01 0.  0.
    9000005    1    3    3    0    0  0.51670628785E+02 -0.19623907383E+02  0.21502302881E+02  0.59315264892E+02  0.10000000000E+01 0.  0.
<mgrwt>
<rscale>  0 0.12500273E+03</rscale>
<asrwt>0</asrwt>
<pdfrwt beam="1">  1        4 0.84777835E-02 0.12500273E+03</pdfrwt>
<pdfrwt beam="2">  1       -4 0.10906113E-01 0.12500273E+03</pdfrwt>
<totfact> 0.10430417E+04</totfact>
</mgrwt>
</event>
<event>
 5    1  0.3259432E-002  0.1249750E+03  0.7818608E-02  0.1235108E+00
         -4   -1    0    0    0  501 -0.00000000000E+00  0.00000000000E+00  0.33492176767E+03  0.33492417553E+03  0.12700000000E+01 0.  1.
          4   -1    0    0  501    0  0.00000000000E+00 -0.00000000000E+00 -0.11621454640E+02  0.11690641897E+02  0.12700000000E+01 0.  1.
         25    2    1    2    0    0  0.00000000000E+00  0.00000000000E+00  0.32330031303E+03  0.34661481743E+03  0.12497495453E+03 0.  0.
    9000005    1    3    3    0    0  0.54656566576E+02 -0.28843917372E+02  0.18712583855E+03  0.19706950878E+03  0.10000000000E+01 0.  0.
    9000005    1    3    3    0    0 -0.54656566576E+02  0.28843917372E+02  0.13617447448E+03  0.14954530865E+03  0.10000000000E+01 0.  0.
<mgrwt>
<rscale>  0 0.12497495E+03</rscale>
<asrwt>0</asrwt>
<pdfrwt beam="2">  1        4 0.17934238E-02 0.12497495E+03</pdfrwt>
<pdfrwt beam="1">  1       -4 0.51531923E-01 0.12497495E+03</pdfrwt>
<totfact> 0.70137459E+03</totfact>
</mgrwt>
</event>
<event>
 5    1  0.3259432E-002  0.1249995E+03  0.7818608E-02  0.1235070E+00
         -4   -1    0    0    0  501 -0.00000000000E+00  0.00000000000E+00  0.16249300590E+02  0.16298854858E+02  0.12700000000E+01 0. -1.
          4   -1    0    0  501    0  0.00000000000E+00 -0.00000000000E+00 -0.23997564127E+03  0.23997900180E+03  0.12700000000E+01 0. -1.
         25    2    1    2    0    0  0.00000000000E+00  0.00000000000E+00 -0.22372634068E+03  0.25627785666E+03  0.12499945719E+03 0.  0.
    9000005    1    3    3    0    0  0.47366839820E+02 -0.23928960213E+02 -0.44205416052E+02  0.69074825079E+02  0.10000000000E+01 0.  0.
    9000005    1    3    3    0    0 -0.47366839820E+02  0.23928960213E+02 -0.17952092463E+03  0.18720303158E+03  0.10000000000E+01 0.  0.
<mgrwt>
<rscale>  0 0.12499946E+03</rscale>
<asrwt>0</asrwt>
<pdfrwt beam="2">  1        4 0.36923397E-01 0.12499946E+03</pdfrwt>
<pdfrwt beam="1">  1       -4 0.25039630E-02 0.12499946E+03</pdfrwt>
<totfact> 0.81432250E+03</totfact>
</mgrwt>
</event>
<event>
 5    1  0.3259432E-002  0.1249995E+03  0.7818608E-02  0.1235070E+00
          4   -1    0    0  501    0  0.00000000000E+00  0.00000000000E+00  0.11205503456E+02  0.11277242912E+02  0.12700000000E+01 0.  1.
         -4   -1    0    0    0  501 -0.00000000000E+00 -0.00000000000E+00 -0.34741298204E+03  0.34741530333E+03  0.12700000000E+01 0.  1.
         25    2    1    2    0    0  0.00000000000E+00  0.00000000000E+00 -0.33620747858E+03  0.35869254624E+03  0.12499949630E+03 0.  0.
    9000005    1    3    3    0    0 -0.85649635114E+01 -0.60352805079E+02 -0.12861231982E+03  0.14233042012E+03  0.10000000000E+01 0.  0.
    9000005    1    3    3    0    0  0.85649635114E+01  0.60352805079E+02 -0.20759515876E+03  0.21636212612E+03  0.10000000000E+01 0.  0.
<mgrwt>
<rscale>  0 0.12499950E+03</rscale>
<asrwt>0</asrwt>
<pdfrwt beam="1">  1        4 0.17296209E-02 0.12499950E+03</pdfrwt>
<pdfrwt beam="2">  1       -4 0.53453840E-01 0.12499950E+03</pdfrwt>
<totfact> 0.68779508E+03</totfact>
</mgrwt>
</event>
<event>
 5    1  0.3259432E-002  0.1249995E+03  0.7818608E-02  0.1235070E+00
          4   -1    0    0  501    0  0.00000000000E+00  0.00000000000E+00  0.10844344773E+02  0.10918457472E+02  0.12700000000E+01 0. -1.
         -4   -1    0    0    0  501 -0.00000000000E+00 -0.00000000000E+00 -0.35890594579E+03  0.35890819275E+03  0.12700000000E+01 0. -1.
         25    2    1    2    0    0  0.00000000000E+00  0.00000000000E+00 -0.34806160101E+03  0.36982665022E+03  0.12499949245E+03 0.  0.
    9000005    1    3    3    0    0  0.26164025458E+02 -0.10715673989E+02 -0.91465248776E+01  0.29732823857E+02  0.10000000000E+01 0.  0.
    9000005    1    3    3    0    0 -0.26164025458E+02  0.10715673989E+02 -0.33891507614E+03  0.34009382636E+03  0.10000000000E+01 0.  0.
<mgrwt>
<rscale>  0 0.12499949E+03</rscale>
<asrwt>0</asrwt>
<pdfrwt beam="1">  1        4 0.16742348E-02 0.12499949E+03</pdfrwt>
<pdfrwt beam="2">  1       -4 0.55222164E-01 0.12499949E+03</pdfrwt>
<totfact> 0.67597839E+03</totfact>
</mgrwt>
</event>
<event>
 5    1  0.3259432E-002  0.1250003E+03  0.7818608E-02  0.1235069E+00
          4   -1    0    0  501    0  0.00000000000E+00  0.00000000000E+00  0.31479276185E+01  0.33944584681E+01  0.12700000000E+01 0. -1.
         -4   -1    0    0    0  501 -0.00000000000E+00 -0.00000000000E+00 -0.11938945238E+04  0.11938951993E+04  0.12700000000E+01 0. -1.
         25    2    1    2    0    0  0.00000000000E+00  0.00000000000E+00 -0.11907465962E+04  0.11972896577E+04  0.12500027291E+03 0.  0.
    9000005    1    3    3    0    0 -0.26192886329E+02  0.54429909346E+02 -0.74880096271E+03  0.75123402750E+03  0.10000000000E+01 0.  0.
    9000005    1    3    3    0    0  0.26192886329E+02 -0.54429909346E+02 -0.44194563347E+03  0.44605563024E+03  0.10000000000E+01 0.  0.
<mgrwt>
<rscale>  0 0.12500027E+03</rscale>
<asrwt>0</asrwt>
<pdfrwt beam="1">  1        4 0.50331338E-03 0.12500027E+03</pdfrwt>
<pdfrwt beam="2">  1       -4 0.18369475E+00 0.12500027E+03</pdfrwt>
<totfact> 0.24783712E+03</totfact>
</mgrwt>
</event>
<event>
 5    1  0.3259432E-002  0.1249795E+03  0.7818608E-02  0.1235101E+00
         -4   -1    0    0    0  501 -0.00000000000E+00  0.00000000000E+00  0.97356773055E+01  0.98181623839E+01  0.12700000000E+01 0.  1.
          4   -1    0    0  501    0  0.00000000000E+00 -0.00000000000E+00 -0.39932362995E+03  0.39932564949E+03  0.12700000000E+01 0.  1.
         25    2    1    2    0    0  0.00000000000E+00  0.00000000000E+00 -0.38958795265E+03  0.40914381187E+03  0.12497954210E+03 0.  0.
    9000005    1    3    3    0    0  0.61308500671E+02  0.10912134411E+02 -0.21153930700E+03  0.22051685954E+03  0.10000000000E+01 0.  0.
    9000005    1    3    3    0    0 -0.61308500671E+02 -0.10912134411E+02 -0.17804864564E+03  0.18862695233E+03  0.10000000000E+01 0.  0.
<mgrwt>
<rscale>  0 0.12497954E+03</rscale>
<asrwt>0</asrwt>
<pdfrwt beam="2">  1        4 0.61440893E-01 0.12497954E+03</pdfrwt>
<pdfrwt beam="1">  1       -4 0.15042972E-02 0.12497954E+03</pdfrwt>
<totfact> 0.63701844E+03</totfact>
</mgrwt>
</event>
<event>
 5    1  0.3259432E-002  0.1250023E+03  0.7818608E-02  0.1235066E+00
         -4   -1    0    0    0  501 -0.00000000000E+00  0.00000000000E+00  0.24292382057E+03  0.24292714031E+03  0.12700000000E+01 0. -1.
          4   -1    0    0  501    0  0.00000000000E+00 -0.00000000000E+00 -0.16052229482E+02  0.16102390237E+02  0.12700000000E+01 0. -1.
         25    2    1    2    0    0  0.00000000000E+00  0.00000000000E+00  0.22687159109E+03  0.25902953055E+03  0.12500231539E+03 0.  0.
    9000005    1    3    3    0    0  0.30156199296E+01 -0.20670717107E+02 -0.86133549288E+01  0.22617745078E+02  0.10000000000E+01 0.  0.
    9000005    1    3    3    0    0 -0.30156199296E+01  0.20670717107E+02  0.23548494602E+03  0.23641178547E+03  0.10000000000E+01 0.  0.
<mgrwt>
<rscale>  0 0.12500232E+03</rscale>
<asrwt>0</asrwt>
<pdfrwt beam="2">  1        4 0.24736877E-02 0.12500232E+03</pdfrwt>
<pdfrwt beam="1">  1       -4 0.37377008E-01 0.12500232E+03</pdfrwt>
<totfact> 0.81038268E+03</totfact>
</mgrwt>
</event>
<event>
 5    1  0.3259432E-002  0.1249992E+03  0.7818608E-02  0.1235071E+00
          4   -1    0    0  501    0  0.00000000000E+00  0.00000000000E+00  0.53432331138E+02  0.53447421929E+02  0.12700000000E+01 0. -1.
         -4   -1    0    0    0  501 -0.00000000000E+00 -0.00000000000E+00 -0.73074562520E+02  0.73085597675E+02  0.12700000000E+01 0. -1.
         25    2    1    2    0    0  0.00000000000E+00  0.00000000000E+00 -0.19642231382E+02  0.12653301960E+03  0.12499915118E+03 0.  0.
    9000005    1    3    3    0    0  0.10412964516E+02  0.61603268357E+02 -0.84613350313E+01  0.63055425561E+02  0.10000000000E+01 0.  0.
    9000005    1    3    3    0    0 -0.10412964516E+02 -0.61603268357E+02 -0.11180896351E+02  0.63477594043E+02  0.10000000000E+01 0.  0.
<mgrwt>
<rscale>  0 0.12499915E+03</rscale>
<asrwt>0</asrwt>
<pdfrwt beam="1">  1        4 0.82223683E-02 0.12499915E+03</pdfrwt>
<pdfrwt beam="2">  1       -4 0.11244250E-01 0.12499915E+03</pdfrwt>
<totfact> 0.10419508E+04</totfact>
</mgrwt>
</event>
<event>
 5    1  0.3259432E-002  0.1249945E+03  0.7818608E-02  0.1235078E+00
         -4   -1    0    0    0  501 -0.00000000000E+00  0.00000000000E+00  0.42024298783E+03  0.42024490683E+03  0.12700000000E+01 0. -1.
          4   -1    0    0  501    0  0.00000000000E+00 -0.00000000000E+00 -0.92490603717E+01  0.93358458513E+01  0.12700000000E+01 0. -1.
         25    2    1    2    0    0  0.00000000000E+00  0.00000000000E+00  0.41099392746E+03  0.42958075269E+03  0.12499445856E+03 0.  0.
    9000005    1    3    3    0    0  0.30719544312E+02  0.54403768675E+02  0.20962572853E+03  0.21874050039E+03  0.10000000000E+01 0.  0.
    9000005    1    3    3    0    0 -0.30719544312E+02 -0.54403768675E+02  0.20136819893E+03  0.21084025230E+03  0.10000000000E+01 0.  0.
<mgrwt>
<rscale>  0 0.12499446E+03</rscale>
<asrwt>0</asrwt>
<pdfrwt beam="2">  1        4 0.14297557E-02 0.12499446E+03</pdfrwt>
<pdfrwt beam="1">  1       -4 0.64659596E-01 0.12499446E+03</pdfrwt>
<totfact> 0.61781555E+03</totfact>
</mgrwt>
</event>
<event>
 5    1  0.3259432E-002  0.1250029E+03  0.7818608E-02  0.1235065E+00
          4   -1    0    0  501    0  0.00000000000E+00  0.00000000000E+00  0.21068387210E+04  0.21068391037E+04  0.12700000000E+01 0.  1.
         -4   -1    0    0    0  501 -0.00000000000E+00 -0.00000000000E+00 -0.16362685145E+01  0.20712978182E+01  0.12700000000E+01 0.  1.
         25    2    1    2    0    0  0.00000000000E+00  0.00000000000E+00  0.21052024524E+04  0.21089104016E+04  0.12500286399E+03 0.  0.
    9000005    1    3    3    0    0 -0.93238182259E+01 -0.37235137753E+02  0.18846015899E+04  0.18849927166E+04  0.10000000000E+01 0.  0.
    9000005    1    3    3    0    0  0.93238182259E+01  0.37235137753E+02  0.22060086259E+03  0.22391768498E+03  0.10000000000E+01 0.  0.
<mgrwt>
<rscale>  0 0.12500286E+03</rscale>
<asrwt>0</asrwt>
<pdfrwt beam="1">  1        4 0.32416242E+00 0.12500286E+03</pdfrwt>
<pdfrwt beam="2">  1       -4 0.28522695E-03 0.12500286E+03</pdfrwt>
<totfact> 0.85053672E+02</totfact>
</mgrwt>
</event>
<event>
 5    1  0.3259432E-002  0.1249983E+03  0.7818608E-02  0.1235072E+00
          4   -1    0    0  501    0  0.00000000000E+00  0.00000000000E+00  0.55573787350E+03  0.55573932463E+03  0.12700000000E+01 0. -1.
         -4   -1    0    0    0  501 -0.00000000000E+00 -0.00000000000E+00 -0.69699138191E+01  0.70846735031E+01  0.12700000000E+01 0. -1.
         25    2    1    2    0    0  0.00000000000E+00  0.00000000000E+00  0.54876795968E+03  0.56282399814E+03  0.12499831721E+03 0.  0.
    9000005    1    3    3    0    0  0.27023360313E+02 -0.46826610968E+02  0.13327402760E+03  0.14382614481E+03  0.10000000000E+01 0.  0.
    9000005    1    3    3    0    0 -0.27023360313E+02  0.46826610968E+02  0.41549393208E+03  0.41899785333E+03  0.10000000000E+01 0.  0.
<mgrwt>
<rscale>  0 0.12499832E+03</rscale>
<asrwt>0</asrwt>
<pdfrwt beam="1">  1        4 0.85507060E-01 0.12499832E+03</pdfrwt>
<pdfrwt beam="2">  1       -4 0.10812339E-02 0.12499832E+03</pdfrwt>
<totfact> 0.51303523E+03</totfact>
</mgrwt>
</event>
<event>
 5    1  0.3259432E-002  0.1250074E+03  0.7818608E-02  0.1235058E+00
         -4   -1    0    0    0  501 -0.00000000000E+00  0.00000000000E+00  0.82520081141E+02  0.82529853335E+02  0.12700000000E+01 0. -1.
          4   -1    0    0  501    0  0.00000000000E+00 -0.00000000000E+00 -0.47321503871E+02  0.47338542738E+02  0.12700000000E+01 0. -1.
         25    2    1    2    0    0  0.00000000000E+00  0.00000000000E+00  0.35198577270E+02  0.12986839607E+03  0.12500744161E+03 0.  0.
    9000005    1    3    3    0    0 -0.20339581364E+02  0.31237674642E+02  0.69711833211E+02  0.79058399786E+02  0.10000000000E+01 0.  0.
    9000005    1    3    3    0    0  0.20339581364E+02 -0.31237674642E+02 -0.34513255941E+02  0.50809996287E+02  0.10000000000E+01 0.  0.
<mgrwt>
<rscale>  0 0.12500744E+03</rscale>
<asrwt>0</asrwt>
<pdfrwt beam="2">  1        4 0.72822938E-02 0.12500744E+03</pdfrwt>
<pdfrwt beam="1">  1       -4 0.12697459E-01 0.12500744E+03</pdfrwt>
<totfact> 0.10345586E+04</totfact>
</mgrwt>
</event>
<event>
 5    1  0.3259432E-002  0.1249984E+03  0.7818608E-02  0.1235072E+00
         -4   -1    0    0    0  501 -0.00000000000E+00  0.00000000000E+00  0.49088715060E+03  0.49088879344E+03  0.12700000000E+01 0. -1.
          4   -1    0    0  501    0  0.00000000000E+00 -0.00000000000E+00 -0.79049876466E+01  0.80063555812E+01  0.12700000000E+01 0. -1.
         25    2    1    2    0    0  0.00000000000E+00  0.00000000000E+00  0.48298216295E+03  0.49889514902E+03  0.12499839993E+03 0.  0.
    9000005    1    3    3    0    0 -0.34107944540E+02 -0.50338020082E+02  0.18394535016E+03  0.19373734795E+03  0.10000000000E+01 0.  0.
    9000005    1    3    3    0    0  0.34107944540E+02  0.50338020082E+02  0.29903681280E+03  0.30515780107E+03  0.10000000000E+01 0.  0.
<mgrwt>
<rscale>  0 0.12499840E+03</rscale>
<asrwt>0</asrwt>
<pdfrwt beam="2">  1        4 0.12240759E-02 0.12499840E+03</pdfrwt>
<pdfrwt beam="1">  1       -4 0.75529018E-01 0.12499840E+03</pdfrwt>
<totfact> 0.55952161E+03</totfact>
</mgrwt>
</event>
<event>
 5    1  0.3259432E-002  0.1249947E+03  0.7818608E-02  0.1235078E+00
          4   -1    0    0  501    0  0.00000000000E+00  0.00000000000E+00  0.58932785001E+02  0.58946467647E+02  0.12700000000E+01 0. -1.
         -4   -1    0    0    0  501 -0.00000000000E+00 -0.00000000000E+00 -0.66250008670E+02  0.66262180381E+02  0.12700000000E+01 0. -1.
         25    2    1    2    0    0  0.00000000000E+00  0.00000000000E+00 -0.73172236688E+01  0.12520864803E+03  0.12499465500E+03 0.  0.
    9000005    1    3    3    0    0 -0.17269732817E+02  0.55761939057E+01  0.56239899996E+02  0.59103840498E+02  0.10000000000E+01 0.  0.
    9000005    1    3    3    0    0  0.17269732817E+02 -0.55761939057E+01 -0.63557123664E+02  0.66104807530E+02  0.10000000000E+01 0.  0.
<mgrwt>
<rscale>  0 0.12499466E+03</rscale>
<asrwt>0</asrwt>
<pdfrwt beam="1">  1        4 0.90685711E-02 0.12499466E+03</pdfrwt>
<pdfrwt beam="2">  1       -4 0.10194298E-01 0.12499466E+03</pdfrwt>
<totfact> 0.10449595E+04</totfact>
</mgrwt>
</event>
<event>
 5    1  0.3259432E-002  0.1249971E+03  0.7818608E-02  0.1235074E+00
         -4   -1    0    0    0  501 -0.00000000000E+00  0.00000000000E+00  0.46788039711E+02  0.46805272780E+02  0.12700000000E+01 0.  1.
          4   -1    0    0  501    0  0.00000000000E+00 -0.00000000000E+00 -0.83446933697E+02  0.83456597363E+02  0.12700000000E+01 0.  1.
         25    2    1    2    0    0  0.00000000000E+00  0.00000000000E+00 -0.36658893986E+02  0.13026187014E+03  0.12499712119E+03 0.  0.
    9000005    1    3    3    0    0  0.21832549007E+01  0.62179882689E+02 -0.24402923368E+02  0.66840160698E+02  0.10000000000E+01 0.  0.
    9000005    1    3    3    0    0 -0.21832549007E+01 -0.62179882689E+02 -0.12255970618E+02  0.63421709445E+02  0.10000000000E+01 0.  0.
<mgrwt>
<rscale>  0 0.12499712E+03</rscale>
<asrwt>0</asrwt>
<pdfrwt beam="2">  1        4 0.12840059E-01 0.12499712E+03</pdfrwt>
<pdfrwt beam="1">  1       -4 0.72002289E-02 0.12499712E+03</pdfrwt>
<totfact> 0.10339581E+04</totfact>
</mgrwt>
</event>
<event>
 5    1  0.3259432E-002  0.1249999E+03  0.7818608E-02  0.1235069E+00
          4   -1    0    0  501    0  0.00000000000E+00  0.00000000000E+00  0.87221073276E+02  0.87230318831E+02  0.12700000000E+01 0.  1.
         -4   -1    0    0    0  501 -0.00000000000E+00 -0.00000000000E+00 -0.44764940651E+02  0.44782952241E+02  0.12700000000E+01 0.  1.
         25    2    1    2    0    0  0.00000000000E+00  0.00000000000E+00  0.42456132625E+02  0.13201327107E+03  0.12499992217E+03 0.  0.
    9000005    1    3    3    0    0 -0.16414372324E+02 -0.36126537747E+02 -0.29757800453E+02  0.49609324085E+02  0.10000000000E+01 0.  0.
    9000005    1    3    3    0    0  0.16414372324E+02  0.36126537747E+02  0.72213933079E+02  0.82403946987E+02  0.10000000000E+01 0.  0.
<mgrwt>
<rscale>  0 0.12499992E+03</rscale>
<asrwt>0</asrwt>
<pdfrwt beam="1">  1        4 0.13420723E-01 0.12499992E+03</pdfrwt>
<pdfrwt beam="2">  1       -4 0.68890107E-02 0.12499992E+03</pdfrwt>
<totfact> 0.10301433E+04</totfact>
</mgrwt>
</event>
<event>
 5    1  0.3259432E-002  0.1249994E+03  0.7818608E-02  0.1235070E+00
         -4   -1    0    0    0  501 -0.00000000000E+00  0.00000000000E+00  0.63616869610E+02  0.63629545017E+02  0.12700000000E+01 0. -1.
          4   -1    0    0  501    0  0.00000000000E+00 -0.00000000000E+00 -0.61376814961E+02  0.61389952881E+02  0.12700000000E+01 0. -1.
         25    2    1    2    0    0  0.00000000000E+00  0.00000000000E+00  0.22400546491E+01  0.12501949790E+03  0.12499942804E+03 0.  0.
    9000005    1    3    3    0    0  0.53725134035E+00 -0.26495120808E+02  0.57723585456E+02  0.63523951259E+02  0.10000000000E+01 0.  0.
    9000005    1    3    3    0    0 -0.53725134035E+00  0.26495120808E+02 -0.55483530807E+02  0.61495546639E+02  0.10000000000E+01 0.  0.
<mgrwt>
<rscale>  0 0.12499943E+03</rscale>
<asrwt>0</asrwt>
<pdfrwt beam="2">  1        4 0.94445725E-02 0.12499943E+03</pdfrwt>
<pdfrwt beam="1">  1       -4 0.97891964E-02 0.12499943E+03</pdfrwt>
<totfact> 0.10452574E+04</totfact>
</mgrwt>
</event>
<event>
 5    1  0.3259432E-002  0.1250004E+03  0.7818608E-02  0.1235069E+00
         -4   -1    0    0    0  501 -0.00000000000E+00  0.00000000000E+00  0.53069031264E+01  0.54567500211E+01  0.12700000000E+01 0.  1.
          4   -1    0    0  501    0  0.00000000000E+00 -0.00000000000E+00 -0.72567695292E+03  0.72567806422E+03  0.12700000000E+01 0.  1.
         25    2    1    2    0    0  0.00000000000E+00  0.00000000000E+00 -0.72037004979E+03  0.73113481424E+03  0.12500043186E+03 0.  0.
    9000005    1    3    3    0    0 -0.10420780078E+02  0.45401561630E+02 -0.11652540529E+03  0.12549527693E+03  0.10000000000E+01 0.  0.
    9000005    1    3    3    0    0  0.10420780078E+02 -0.45401561630E+02 -0.60384464450E+03  0.60563953731E+03  0.10000000000E+01 0.  0.
<mgrwt>
<rscale>  0 0.12500043E+03</rscale>
<asrwt>0</asrwt>
<pdfrwt beam="2">  1        4 0.11165414E+00 0.12500043E+03</pdfrwt>
<pdfrwt beam="1">  1       -4 0.82805938E-03 0.12500043E+03</pdfrwt>
<totfact> 0.41492752E+03</totfact>
</mgrwt>
</event>
<event>
 5    1  0.3259432E-002  0.1250004E+03  0.7818608E-02  0.1235069E+00
          4   -1    0    0  501    0  0.00000000000E+00  0.00000000000E+00  0.16502234798E+02  0.16551031791E+02  0.12700000000E+01 0. -1.
         -4   -1    0    0    0  501 -0.00000000000E+00 -0.00000000000E+00 -0.23631179304E+03  0.23631520567E+03  0.12700000000E+01 0. -1.
         25    2    1    2    0    0  0.00000000000E+00  0.00000000000E+00 -0.21980955824E+03  0.25286623746E+03  0.12500036861E+03 0.  0.
    9000005    1    3    3    0    0  0.48497222636E+02  0.18182279281E+02 -0.39169022450E+02  0.64944500945E+02  0.10000000000E+01 0.  0.
    9000005    1    3    3    0    0 -0.48497222636E+02 -0.18182279281E+02 -0.18064053579E+03  0.18792173652E+03  0.10000000000E+01 0.  0.
<mgrwt>
<rscale>  0 0.12500037E+03</rscale>
<asrwt>0</asrwt>
<pdfrwt beam="1">  1        4 0.25428216E-02 0.12500037E+03</pdfrwt>
<pdfrwt beam="2">  1       -4 0.36359674E-01 0.12500037E+03</pdfrwt>
<totfact> 0.81917053E+03</totfact>
</mgrwt>
</event>
<event>
 5    1  0.3259432E-002  0.1249990E+03  0.7818608E-02  0.1235071E+00
         -4   -1    0    0    0  501 -0.00000000000E+00  0.00000000000E+00  0.13630621433E+02  0.13689658164E+02  0.12700000000E+01 0.  1.
          4   -1    0    0  501    0  0.00000000000E+00 -0.00000000000E+00 -0.28589481495E+03  0.28589763573E+03  0.12700000000E+01 0.  1.
         25    2    1    2    0    0  0.00000000000E+00  0.00000000000E+00 -0.27226419352E+03  0.29958729389E+03  0.12499902236E+03 0.  0.
    9000005    1    3    3    0    0  0.48425023940E+02 -0.31731105524E+02 -0.19251065210E+03  0.20103033894E+03  0.10000000000E+01 0.  0.
    9000005    1    3    3    0    0 -0.48425023940E+02  0.31731105524E+02 -0.79753541413E+02  0.98556954951E+02  0.10000000000E+01 0.  0.
<mgrwt>
<rscale>  0 0.12499902E+03</rscale>
<asrwt>0</asrwt>
<pdfrwt beam="2">  1        4 0.43988572E-01 0.12499902E+03</pdfrwt>
<pdfrwt beam="1">  1       -4 0.21017772E-02 0.12499902E+03</pdfrwt>
<totfact> 0.75652281E+03</totfact>
</mgrwt>
</event>
<event>
 5    1  0.3259432E-002  0.1250062E+03  0.7818608E-02  0.1235060E+00
          4   -1    0    0  501    0  0.00000000000E+00  0.00000000000E+00  0.16636081795E+03  0.16636566548E+03  0.12700000000E+01 0. -1.
         -4   -1    0    0    0  501 -0.00000000000E+00 -0.00000000000E+00 -0.23460557186E+02  0.23494906757E+02  0.12700000000E+01 0. -1.
         25    2    1    2    0    0  0.00000000000E+00  0.00000000000E+00  0.14290026077E+03  0.18986057223E+03  0.12500620929E+03 0.  0.
    9000005    1    3    3    0    0  0.47572366997E+02 -0.38810672457E+02  0.89177937857E+02  0.10827327925E+03  0.10000000000E+01 0.  0.
    9000005    1    3    3    0    0 -0.47572366997E+02  0.38810672457E+02  0.53722322909E+02  0.81587292988E+02  0.10000000000E+01 0.  0.
<mgrwt>
<rscale>  0 0.12500621E+03</rscale>
<asrwt>0</asrwt>
<pdfrwt beam="1">  1        4 0.25596987E-01 0.12500621E+03</pdfrwt>
<pdfrwt beam="2">  1       -4 0.36123316E-02 0.12500621E+03</pdfrwt>
<totfact> 0.91858802E+03</totfact>
</mgrwt>
</event>
<event>
 5    1  0.3259432E-002  0.1249992E+03  0.7818608E-02  0.1235071E+00
         -4   -1    0    0    0  501 -0.00000000000E+00  0.00000000000E+00  0.24567304643E+02  0.24600108891E+02  0.12700000000E+01 0.  1.
          4   -1    0    0  501    0  0.00000000000E+00 -0.00000000000E+00 -0.15885849903E+03  0.15886357548E+03  0.12700000000E+01 0.  1.
         25    2    1    2    0    0  0.00000000000E+00  0.00000000000E+00 -0.13429119439E+03  0.18346368437E+03  0.12499919437E+03 0.  0.
    9000005    1    3    3    0    0 -0.31729622599E+02 -0.52094216581E+02 -0.87088397832E+02  0.10632951325E+03  0.10000000000E+01 0.  0.
    9000005    1    3    3    0    0  0.31729622599E+02  0.52094216581E+02 -0.47202796554E+02  0.77134171117E+02  0.10000000000E+01 0.  0.
<mgrwt>
<rscale>  0 0.12499919E+03</rscale>
<asrwt>0</asrwt>
<pdfrwt beam="2">  1        4 0.24442682E-01 0.12499919E+03</pdfrwt>
<pdfrwt beam="1">  1       -4 0.37824993E-02 0.12499919E+03</pdfrwt>
<totfact> 0.92998898E+03</totfact>
</mgrwt>
</event>
<event>
 5    1  0.3259432E-002  0.1250025E+03  0.7818608E-02  0.1235065E+00
         -4   -1    0    0    0  501 -0.00000000000E+00  0.00000000000E+00  0.28246932055E+03  0.28247217553E+03  0.12700000000E+01 0. -1.
          4   -1    0    0  501    0  0.00000000000E+00 -0.00000000000E+00 -0.13797398065E+02  0.13855724209E+02  0.12700000000E+01 0. -1.
         25    2    1    2    0    0  0.00000000000E+00  0.00000000000E+00  0.26867192248E+03  0.29632789974E+03  0.12500248892E+03 0.  0.
    9000005    1    3    3    0    0  0.14243607395E+02  0.56304400168E+02  0.79640873650E+02  0.98573498394E+02  0.10000000000E+01 0.  0.
    9000005    1    3    3    0    0 -0.14243607395E+02 -0.56304400168E+02  0.18903104883E+03  0.19775440135E+03  0.10000000000E+01 0.  0.
<mgrwt>
<rscale>  0 0.12500249E+03</rscale>
<asrwt>0</asrwt>
<pdfrwt beam="2">  1        4 0.21273827E-02 0.12500249E+03</pdfrwt>
<pdfrwt beam="1">  1       -4 0.43461529E-01 0.12500249E+03</pdfrwt>
<totfact> 0.76057573E+03</totfact>
</mgrwt>
</event>
<event>
 5    1  0.3259432E-002  0.1250006E+03  0.7818608E-02  0.1235068E+00
         -4   -1    0    0    0  501 -0.00000000000E+00  0.00000000000E+00  0.17608371456E+03  0.17608829442E+03  0.12700000000E+01 0. -1.
          4   -1    0    0  501    0  0.00000000000E+00 -0.00000000000E+00 -0.22161197184E+02  0.22197557538E+02  0.12700000000E+01 0. -1.
         25    2    1    2    0    0  0.00000000000E+00  0.00000000000E+00  0.15392251737E+03  0.19828585196E+03  0.12500055093E+03 0.  0.
    9000005    1    3    3    0    0  0.38682463475E+02  0.47593198114E+02  0.95985968733E+02  0.11391115696E+03  0.10000000000E+01 0.  0.
    9000005    1    3    3    0    0 -0.38682463475E+02 -0.47593198114E+02  0.57936548641E+02  0.84374694996E+02  0.10000000000E+01 0.  0.
<mgrwt>
<rscale>  0 0.12500055E+03</rscale>
<asrwt>0</asrwt>
<pdfrwt beam="2">  1        4 0.34125642E-02 0.12500055E+03</pdfrwt>
<pdfrwt beam="1">  1       -4 0.27092951E-01 0.12500055E+03</pdfrwt>
<totfact> 0.90424141E+03</totfact>
</mgrwt>
</event>
<event>
 5    1  0.3259432E-002  0.1249977E+03  0.7818608E-02  0.1235073E+00
          4   -1    0    0  501    0  0.00000000000E+00  0.00000000000E+00  0.22797272344E+03  0.22797626089E+03  0.12700000000E+01 0.  1.
         -4   -1    0    0    0  501 -0.00000000000E+00 -0.00000000000E+00 -0.17106894879E+02  0.17153971913E+02  0.12700000000E+01 0.  1.
         25    2    1    2    0    0  0.00000000000E+00  0.00000000000E+00  0.21086582856E+03  0.24513023281E+03  0.12499773351E+03 0.  0.
    9000005    1    3    3    0    0 -0.48139328567E+02  0.36663280303E+02  0.74830223018E+02  0.96240081849E+02  0.10000000000E+01 0.  0.
    9000005    1    3    3    0    0  0.48139328567E+02 -0.36663280303E+02  0.13603560554E+03  0.14889015096E+03  0.10000000000E+01 0.  0.
<mgrwt>
<rscale>  0 0.12499773E+03</rscale>
<asrwt>0</asrwt>
<pdfrwt beam="1">  1        4 0.35076619E-01 0.12499773E+03</pdfrwt>
<pdfrwt beam="2">  1       -4 0.26357235E-02 0.12499773E+03</pdfrwt>
<totfact> 0.83043389E+03</totfact>
</mgrwt>
</event>
<event>
 5    1  0.3259432E-002  0.1250021E+03  0.7818608E-02  0.1235066E+00
          4   -1    0    0  501    0  0.00000000000E+00  0.00000000000E+00  0.19157697455E+02  0.19199746659E+02  0.12700000000E+01 0.  1.
         -4   -1    0    0    0  501 -0.00000000000E+00 -0.00000000000E+00 -0.20363906893E+03  0.20364302908E+03  0.12700000000E+01 0.  1.
         25    2    1    2    0    0  0.00000000000E+00  0.00000000000E+00 -0.18448137148E+03  0.22284277574E+03  0.12500210510E+03 0.  0.
    9000005    1    3    3    0    0 -0.13228010867E+02 -0.39058627427E+02 -0.17594894047E+03  0.18071963452E+03  0.10000000000E+01 0.  0.
    9000005    1    3    3    0    0  0.13228010867E+02  0.39058627427E+02 -0.85324310070E+01  0.42123141227E+02  0.10000000000E+01 0.  0.
<mgrwt>
<rscale>  0 0.12500211E+03</rscale>
<asrwt>0</asrwt>
<pdfrwt beam="1">  1        4 0.29508774E-02 0.12500211E+03</pdfrwt>
<pdfrwt beam="2">  1       -4 0.31332625E-01 0.12500211E+03</pdfrwt>
<totfact> 0.86416445E+03</totfact>
</mgrwt>
</event>
<event>
 5    1  0.3259432E-002  0.1249965E+03  0.7818608E-02  0.1235075E+00
          4   -1    0    0  501    0  0.00000000000E+00  0.00000000000E+00  0.78435165269E+03  0.78435268087E+03  0.12700000000E+01 0. -1.
         -4   -1    0    0    0  501 -0.00000000000E+00 -0.00000000000E+00 -0.48979345041E+01  0.50599073516E+01  0.12700000000E+01 0. -1.
         25    2    1    2    0    0  0.00000000000E+00  0.00000000000E+00  0.77945371819E+03  0.78941258822E+03  0.12499654251E+03 0.  0.
    9000005    1    3    3    0    0  0.48140417553E+02  0.95356705716E+01  0.14540650068E+03  0.15346817017E+03  0.10000000000E+01 0.  0.
    9000005    1    3    3    0    0 -0.48140417553E+02 -0.95356705716E+01  0.63404721750E+03  0.63594441804E+03  0.10000000000E+01 0.  0.
<mgrwt>
<rscale>  0 0.12499654E+03</rscale>
<asrwt>0</asrwt>
<pdfrwt beam="1">  1        4 0.12068201E+00 0.12499654E+03</pdfrwt>
<pdfrwt beam="2">  1       -4 0.76606699E-03 0.12499654E+03</pdfrwt>
<totfact> 0.38744699E+03</totfact>
</mgrwt>
</event>
<event>
 5    1  0.3259432E-002  0.1249994E+03  0.7818608E-02  0.1235070E+00
         -4   -1    0    0    0  501 -0.00000000000E+00  0.00000000000E+00  0.13024975474E+02  0.13086744672E+02  0.12700000000E+01 0. -1.
          4   -1    0    0  501    0  0.00000000000E+00 -0.00000000000E+00 -0.29912929719E+03  0.29913199317E+03  0.12700000000E+01 0. -1.
         25    2    1    2    0    0  0.00000000000E+00  0.00000000000E+00 -0.28610432171E+03  0.31221873784E+03  0.12499942942E+03 0.  0.
    9000005    1    3    3    0    0 -0.71835431269E+01  0.84493041030E+01 -0.29666387809E+03  0.29687278520E+03  0.10000000000E+01 0.  0.
    9000005    1    3    3    0    0  0.71835431269E+01 -0.84493041030E+01  0.10559556370E+02  0.15345952640E+02  0.10000000000E+01 0.  0.
<mgrwt>
<rscale>  0 0.12499943E+03</rscale>
<asrwt>0</asrwt>
<pdfrwt beam="2">  1        4 0.46024845E-01 0.12499943E+03</pdfrwt>
<pdfrwt beam="1">  1       -4 0.20088015E-02 0.12499943E+03</pdfrwt>
<totfact> 0.74092202E+03</totfact>
</mgrwt>
</event>
<event>
 5    1  0.3259432E-002  0.1249980E+03  0.7818608E-02  0.1235072E+00
          4   -1    0    0  501    0  0.00000000000E+00  0.00000000000E+00  0.52675806179E+02  0.52691113640E+02  0.12700000000E+01 0. -1.
         -4   -1    0    0    0  501 -0.00000000000E+00 -0.00000000000E+00 -0.74122530760E+02  0.74133409919E+02  0.12700000000E+01 0. -1.
         25    2    1    2    0    0  0.00000000000E+00  0.00000000000E+00 -0.21446724581E+02  0.12682452356E+03  0.12499799111E+03 0.  0.
    9000005    1    3    3    0    0  0.24487503948E+02 -0.57384479573E+02 -0.71350033935E+01  0.62805450551E+02  0.10000000000E+01 0.  0.
    9000005    1    3    3    0    0 -0.24487503948E+02  0.57384479573E+02 -0.14311721188E+02  0.64019073008E+02  0.10000000000E+01 0.  0.
<mgrwt>
<rscale>  0 0.12499799E+03</rscale>
<asrwt>0</asrwt>
<pdfrwt beam="1">  1        4 0.81059845E-02 0.12499799E+03</pdfrwt>
<pdfrwt beam="2">  1       -4 0.11405481E-01 0.12499799E+03</pdfrwt>
<totfact> 0.10413432E+04</totfact>
</mgrwt>
</event>
<event>
 5    1  0.3259432E-002  0.1249978E+03  0.7818608E-02  0.1235073E+00
         -4   -1    0    0    0  501 -0.00000000000E+00  0.00000000000E+00  0.30637396285E+02  0.30663707394E+02  0.12700000000E+01 0. -1.
          4   -1    0    0  501    0  0.00000000000E+00 -0.00000000000E+00 -0.12741078929E+03  0.12741711866E+03  0.12700000000E+01 0. -1.
         25    2    1    2    0    0  0.00000000000E+00  0.00000000000E+00 -0.96773393005E+02  0.15808082605E+03  0.12499783187E+03 0.  0.
    9000005    1    3    3    0    0  0.45174336847E+02 -0.34010333040E+02 -0.82029994473E+02  0.99636055002E+02  0.10000000000E+01 0.  0.
    9000005    1    3    3    0    0 -0.45174336847E+02  0.34010333040E+02 -0.14743398532E+02  0.58444771052E+02  0.10000000000E+01 0.  0.
<mgrwt>
<rscale>  0 0.12499783E+03</rscale>
<asrwt>0</asrwt>
<pdfrwt beam="2">  1        4 0.19604170E-01 0.12499783E+03</pdfrwt>
<pdfrwt beam="1">  1       -4 0.47159565E-02 0.12499783E+03</pdfrwt>
<totfact> 0.97718831E+03</totfact>
</mgrwt>
</event>
<event>
 5    1  0.3259432E-002  0.1250002E+03  0.7818608E-02  0.1235069E+00
          4   -1    0    0  501    0  0.00000000000E+00  0.00000000000E+00  0.38526803435E+03  0.38527012757E+03  0.12700000000E+01 0.  1.
         -4   -1    0    0    0  501 -0.00000000000E+00 -0.00000000000E+00 -0.10097185829E+02  0.10176741210E+02  0.12700000000E+01 0.  1.
         25    2    1    2    0    0  0.00000000000E+00  0.00000000000E+00  0.37517084853E+03  0.39544686878E+03  0.12500024177E+03 0.  0.
    9000005    1    3    3    0    0  0.46546200404E+02 -0.26088317847E+02  0.84678658055E+02  0.10009307783E+03  0.10000000000E+01 0.  0.
    9000005    1    3    3    0    0 -0.46546200404E+02  0.26088317847E+02  0.29049219047E+03  0.29535379094E+03  0.10000000000E+01 0.  0.
<mgrwt>
<rscale>  0 0.12500024E+03</rscale>
<asrwt>0</asrwt>
<pdfrwt beam="1">  1        4 0.59278297E-01 0.12500024E+03</pdfrwt>
<pdfrwt beam="2">  1       -4 0.15596936E-02 0.12500024E+03</pdfrwt>
<totfact> 0.64997688E+03</totfact>
</mgrwt>
</event>
<event>
 5    1  0.3259432E-002  0.1249951E+03  0.7818608E-02  0.1235077E+00
         -4   -1    0    0    0  501 -0.00000000000E+00  0.00000000000E+00  0.39224989298E+03  0.39225194893E+03  0.12700000000E+01 0. -1.
          4   -1    0    0  501    0  0.00000000000E+00 -0.00000000000E+00 -0.99152063274E+01  0.99962101076E+01  0.12700000000E+01 0. -1.
         25    2    1    2    0    0  0.00000000000E+00  0.00000000000E+00  0.38233468665E+03  0.40224815904E+03  0.12499507524E+03 0.  0.
    9000005    1    3    3    0    0 -0.34618086700E+01 -0.41249712413E+02  0.40519157714E+02  0.57933798730E+02  0.10000000000E+01 0.  0.
    9000005    1    3    3    0    0  0.34618086700E+01  0.41249712413E+02  0.34181552894E+03  0.34431436031E+03  0.10000000000E+01 0.  0.
<mgrwt>
<rscale>  0 0.12499508E+03</rscale>
<asrwt>0</asrwt>
<pdfrwt beam="2">  1        4 0.15318061E-02 0.12499508E+03</pdfrwt>
<pdfrwt beam="1">  1       -4 0.60352505E-01 0.12499508E+03</pdfrwt>
<totfact> 0.64341727E+03</totfact>
</mgrwt>
</event>
<event>
 5    1  0.3259432E-002  0.1249986E+03  0.7818608E-02  0.1235072E+00
         -4   -1    0    0    0  501 -0.00000000000E+00  0.00000000000E+00  0.14218804143E+03  0.14219371304E+03  0.12700000000E+01 0.  1.
          4   -1    0    0  501    0  0.00000000000E+00 -0.00000000000E+00 -0.27450895990E+02  0.27480258199E+02  0.12700000000E+01 0.  1.
         25    2    1    2    0    0  0.00000000000E+00  0.00000000000E+00  0.11473714544E+03  0.16967397123E+03  0.12499857587E+03 0.  0.
    9000005    1    3    3    0    0  0.35834477105E+02 -0.19132170490E+02 -0.70905692769E+01  0.41248343842E+02  0.10000000000E+01 0.  0.
    9000005    1    3    3    0    0 -0.35834477105E+02  0.19132170490E+02  0.12182771472E+03  0.12842562739E+03  0.10000000000E+01 0.  0.
<mgrwt>
<rscale>  0 0.12499858E+03</rscale>
<asrwt>0</asrwt>
<pdfrwt beam="2">  1        4 0.42259098E-02 0.12499858E+03</pdfrwt>
<pdfrwt beam="1">  1       -4 0.21877778E-01 0.12499858E+03</pdfrwt>
<totfact> 0.95512492E+03</totfact>
</mgrwt>
</event>
<event>
 5    1  0.3259432E-002  0.1250012E+03  0.7818608E-02  0.1235067E+00
          4   -1    0    0  501    0  0.00000000000E+00  0.00000000000E+00  0.34168977141E+03  0.34169213159E+03  0.12700000000E+01 0. -1.
         -4   -1    0    0    0  501 -0.00000000000E+00 -0.00000000000E+00 -0.11394689600E+02  0.11465245356E+02  0.12700000000E+01 0. -1.
         25    2    1    2    0    0  0.00000000000E+00  0.00000000000E+00  0.33029508181E+03  0.35315737694E+03  0.12500116727E+03 0.  0.
    9000005    1    3    3    0    0 -0.59410980243E+02  0.65985145257E+00  0.11042088306E+03  0.12539486191E+03  0.10000000000E+01 0.  0.
    9000005    1    3    3    0    0  0.59410980243E+02 -0.65985145257E+00  0.21987419875E+03  0.22776251504E+03  0.10000000000E+01 0.  0.
<mgrwt>
<rscale>  0 0.12500117E+03</rscale>
<asrwt>0</asrwt>
<pdfrwt beam="1">  1        4 0.52573258E-01 0.12500117E+03</pdfrwt>
<pdfrwt beam="2">  1       -4 0.17586383E-02 0.12500117E+03</pdfrwt>
<totfact> 0.69376808E+03</totfact>
</mgrwt>
</event>
<event>
 5    1  0.3259432E-002  0.1250009E+03  0.7818608E-02  0.1235068E+00
         -4   -1    0    0    0  501 -0.00000000000E+00  0.00000000000E+00  0.20160116466E+02  0.20200079107E+02  0.12700000000E+01 0. -1.
          4   -1    0    0  501    0  0.00000000000E+00 -0.00000000000E+00 -0.19353023102E+03  0.19353439802E+03  0.12700000000E+01 0. -1.
         25    2    1    2    0    0  0.00000000000E+00  0.00000000000E+00 -0.17337011455E+03  0.21373447713E+03  0.12500092037E+03 0.  0.
    9000005    1    3    3    0    0 -0.26111361418E+02 -0.39165489787E+02 -0.16402216825E+02  0.49857511993E+02  0.10000000000E+01 0.  0.
    9000005    1    3    3    0    0  0.26111361418E+02  0.39165489787E+02 -0.15696789773E+03  0.16387696513E+03  0.10000000000E+01 0.  0.
<mgrwt>
<rscale>  0 0.12500092E+03</rscale>
<asrwt>0</asrwt>
<pdfrwt beam="2">  1        4 0.29777275E-01 0.12500092E+03</pdfrwt>
<pdfrwt beam="1">  1       -4 0.31049511E-02 0.12500092E+03</pdfrwt>
<totfact> 0.87867794E+03</totfact>
</mgrwt>
</event>
<event>
 5    1  0.3259432E-002  0.1250005E+03  0.7818608E-02  0.1235068E+00
         -4   -1    0    0    0  501 -0.00000000000E+00  0.00000000000E+00  0.28408003035E+01  0.31117593680E+01  0.12700000000E+01 0.  1.
          4   -1    0    0  501    0  0.00000000000E+00 -0.00000000000E+00 -0.13121998440E+04  0.13122004586E+04  0.12700000000E+01 0.  1.
         25    2    1    2    0    0  0.00000000000E+00  0.00000000000E+00 -0.13093590437E+04  0.13153122180E+04  0.12500050148E+03 0.  0.
    9000005    1    3    3    0    0 -0.53391142112E+02 -0.31183097358E+02 -0.55923109072E+03  0.56263968261E+03  0.10000000000E+01 0.  0.
    9000005    1    3    3    0    0  0.53391142112E+02  0.31183097358E+02 -0.75012795298E+03  0.75267253535E+03  0.10000000000E+01 0.  0.
<mgrwt>
<rscale>  0 0.12500050E+03</rscale>
<asrwt>0</asrwt>
<pdfrwt beam="2">  1        4 0.20189733E+00 0.12500050E+03</pdfrwt>
<pdfrwt beam="1">  1       -4 0.45793753E-03 0.12500050E+03</pdfrwt>
<totfact> 0.21869813E+03</totfact>
</mgrwt>
</event>
<event>
 5    1  0.3259432E-002  0.1250087E+03  0.7818608E-02  0.1235056E+00
         -4   -1    0    0    0  501 -0.00000000000E+00  0.00000000000E+00  0.56388581484E+03  0.56388724500E+03  0.12700000000E+01 0.  1.
          4   -1    0    0  501    0  0.00000000000E+00 -0.00000000000E+00 -0.68686968572E+01  0.69851196494E+01  0.12700000000E+01 0.  1.
         25    2    1    2    0    0  0.00000000000E+00  0.00000000000E+00  0.55701711798E+03  0.57087236465E+03  0.12500874769E+03 0.  0.
    9000005    1    3    3    0    0  0.11400077315E+02 -0.14946417401E+02  0.55069216666E+03  0.55101381070E+03  0.10000000000E+01 0.  0.
    9000005    1    3    3    0    0 -0.11400077315E+02  0.14946417401E+02  0.63249513167E+01  0.19858553952E+02  0.10000000000E+01 0.  0.
<mgrwt>
<rscale>  0 0.12500875E+03</rscale>
<asrwt>0</asrwt>
<pdfrwt beam="2">  1        4 0.10657881E-02 0.12500875E+03</pdfrwt>
<pdfrwt beam="1">  1       -4 0.86760741E-01 0.12500875E+03</pdfrwt>
<totfact> 0.50749661E+03</totfact>
</mgrwt>
</event>
<event>
 5    1  0.3259432E-002  0.1249992E+03  0.7818608E-02  0.1235070E+00
          4   -1    0    0  501    0  0.00000000000E+00  0.00000000000E+00  0.57319655054E+02  0.57333722673E+02  0.12700000000E+01 0.  1.
         -4   -1    0    0    0  501 -0.00000000000E+00 -0.00000000000E+00 -0.68119328181E+02  0.68131165936E+02  0.12700000000E+01 0.  1.
         25    2    1    2    0    0  0.00000000000E+00  0.00000000000E+00 -0.10799673127E+02  0.12546488861E+03  0.12499922133E+03 0.  0.
    9000005    1    3    3    0    0  0.12759273645E+01  0.44514246148E+02 -0.49404411421E+02  0.66520237286E+02  0.10000000000E+01 0.  0.
    9000005    1    3    3    0    0 -0.12759273645E+01 -0.44514246148E+02  0.38604738295E+02  0.58944651322E+02  0.10000000000E+01 0.  0.
<mgrwt>
<rscale>  0 0.12499922E+03</rscale>
<asrwt>0</asrwt>
<pdfrwt beam="1">  1        4 0.88204012E-02 0.12499922E+03</pdfrwt>
<pdfrwt beam="2">  1       -4 0.10481889E-01 0.12499922E+03</pdfrwt>
<totfact> 0.10442914E+04</totfact>
</mgrwt>
</event>
<event>
 5    1  0.3259432E-002  0.1250008E+03  0.7818608E-02  0.1235068E+00
          4   -1    0    0  501    0  0.00000000000E+00  0.00000000000E+00  0.37138948251E+02  0.37160656307E+02  0.12700000000E+01 0.  1.
         -4   -1    0    0    0  501 -0.00000000000E+00 -0.00000000000E+00 -0.10512447046E+03  0.10513214156E+03  0.12700000000E+01 0.  1.
         25    2    1    2    0    0  0.00000000000E+00  0.00000000000E+00 -0.67985522210E+02  0.14229279787E+03  0.12500083638E+03 0.  0.
    9000005    1    3    3    0    0 -0.24845939021E+02 -0.92320092547E+01 -0.98414379059E+02  0.10192615310E+03  0.10000000000E+01 0.  0.
    9000005    1    3    3    0    0  0.24845939021E+02  0.92320092547E+01  0.30428856849E+02  0.40366644768E+02  0.10000000000E+01 0.  0.
<mgrwt>
<rscale>  0 0.12500084E+03</rscale>
<asrwt>0</asrwt>
<pdfrwt beam="1">  1        4 0.57159443E-02 0.12500084E+03</pdfrwt>
<pdfrwt beam="2">  1       -4 0.16175255E-01 0.12500084E+03</pdfrwt>
<totfact> 0.10086096E+04</totfact>
</mgrwt>
</event>
<event>
 5    1  0.3259432E-002  0.1250016E+03  0.7818608E-02  0.1235067E+00
          4   -1    0    0  501    0  0.00000000000E+00  0.00000000000E+00  0.13351771171E+03  0.13352375160E+03  0.12700000000E+01 0. -1.
         -4   -1    0    0    0  501 -0.00000000000E+00 -0.00000000000E+00 -0.29236675230E+02  0.29264245736E+02  0.12700000000E+01 0. -1.
         25    2    1    2    0    0  0.00000000000E+00  0.00000000000E+00  0.10428103648E+03  0.16278799734E+03  0.12500159002E+03 0.  0.
    9000005    1    3    3    0    0 -0.21754306603E+02 -0.17360647390E+02  0.12500704785E+03  0.12807187024E+03  0.10000000000E+01 0.  0.
    9000005    1    3    3    0    0  0.21754306603E+02  0.17360647390E+02 -0.20726011366E+02  0.34716127099E+02  0.10000000000E+01 0.  0.
<mgrwt>
<rscale>  0 0.12500159E+03</rscale>
<asrwt>0</asrwt>
<pdfrwt beam="1">  1        4 0.20543772E-01 0.12500159E+03</pdfrwt>
<pdfrwt beam="2">  1       -4 0.45005354E-02 0.12500159E+03</pdfrwt>
<totfact> 0.96804499E+03</totfact>
</mgrwt>
</event>
<event>
 5    1  0.3259432E-002  0.1249947E+03  0.7818608E-02  0.1235078E+00
          4   -1    0    0  501    0  0.00000000000E+00  0.00000000000E+00  0.38414969788E+02  0.38435957173E+02  0.12700000000E+01 0. -1.
         -4   -1    0    0    0  501 -0.00000000000E+00 -0.00000000000E+00 -0.10162427699E+03  0.10163221228E+03  0.12700000000E+01 0. -1.
         25    2    1    2    0    0  0.00000000000E+00  0.00000000000E+00 -0.63209307199E+02  0.14006816945E+03  0.12499470220E+03 0.  0.
    9000005    1    3    3    0    0  0.40928912531E+02  0.32450755940E+02 -0.70044278941E+02  0.87380938736E+02  0.10000000000E+01 0.  0.
    9000005    1    3    3    0    0 -0.40928912531E+02 -0.32450755940E+02  0.68349717414E+01  0.52687230718E+02  0.10000000000E+01 0.  0.
<mgrwt>
<rscale>  0 0.12499470E+03</rscale>
<asrwt>0</asrwt>
<pdfrwt beam="1">  1        4 0.59122202E-02 0.12499470E+03</pdfrwt>
<pdfrwt beam="2">  1       -4 0.15636729E-01 0.12499470E+03</pdfrwt>
<totfact> 0.10133383E+04</totfact>
</mgrwt>
</event>
<event>
 5    1  0.3259432E-002  0.1249925E+03  0.7818608E-02  0.1235081E+00
          4   -1    0    0  501    0  0.00000000000E+00  0.00000000000E+00  0.49118614855E+02  0.49135030531E+02  0.12700000000E+01 0.  1.
         -4   -1    0    0    0  501 -0.00000000000E+00 -0.00000000000E+00 -0.79482614696E+02  0.79492760292E+02  0.12700000000E+01 0.  1.
         25    2    1    2    0    0  0.00000000000E+00  0.00000000000E+00 -0.30363999841E+02  0.12862779082E+03  0.12499254412E+03 0.  0.
    9000005    1    3    3    0    0  0.48990595110E+02 -0.21313693227E+02  0.18170983983E+02  0.56440557998E+02  0.10000000000E+01 0.  0.
    9000005    1    3    3    0    0 -0.48990595110E+02  0.21313693227E+02 -0.48534983824E+02  0.72187232825E+02  0.10000000000E+01 0.  0.
<mgrwt>
<rscale>  0 0.12499254E+03</rscale>
<asrwt>0</asrwt>
<pdfrwt beam="1">  1        4 0.75587532E-02 0.12499254E+03</pdfrwt>
<pdfrwt beam="2">  1       -4 0.12230138E-01 0.12499254E+03</pdfrwt>
<totfact> 0.10375698E+04</totfact>
</mgrwt>
</event>
<event>
 5    1  0.3259432E-002  0.1249975E+03  0.7818608E-02  0.1235073E+00
          4   -1    0    0  501    0  0.00000000000E+00  0.00000000000E+00  0.54732320617E+03  0.54732467961E+03  0.12700000000E+01 0.  1.
         -4   -1    0    0    0  501 -0.00000000000E+00 -0.00000000000E+00 -0.70787319785E+01  0.71917554480E+01  0.12700000000E+01 0.  1.
         25    2    1    2    0    0  0.00000000000E+00  0.00000000000E+00  0.54024447419E+03  0.55451643506E+03  0.12499753940E+03 0.  0.
    9000005    1    3    3    0    0  0.38537486783E+02 -0.34174088908E+02  0.42709732235E+03  0.43019312988E+03  0.10000000000E+01 0.  0.
    9000005    1    3    3    0    0 -0.38537486783E+02  0.34174088908E+02  0.11314715185E+03  0.12432330518E+03  0.10000000000E+01 0.  0.
<mgrwt>
<rscale>  0 0.12499754E+03</rscale>
<asrwt>0</asrwt>
<pdfrwt beam="1">  1        4 0.84212402E-01 0.12499754E+03</pdfrwt>
<pdfrwt beam="2">  1       -4 0.10978428E-02 0.12499754E+03</pdfrwt>
<totfact> 0.51873366E+03</totfact>
</mgrwt>
</event>
<event>
 5    1  0.3259432E-002  0.1249968E+03  0.7818608E-02  0.1235074E+00
         -4   -1    0    0    0  501 -0.00000000000E+00  0.00000000000E+00  0.56900269681E+03  0.56900411412E+03  0.12700000000E+01 0. -1.
          4   -1    0    0  501    0  0.00000000000E+00 -0.00000000000E+00 -0.68045518610E+01  0.69220535991E+01  0.12700000000E+01 0. -1.
         25    2    1    2    0    0  0.00000000000E+00  0.00000000000E+00  0.56219814495E+03  0.57592616771E+03  0.12499678584E+03 0.  0.
    9000005    1    3    3    0    0 -0.29423554189E+01 -0.62341370735E+02  0.26656879891E+03  0.27377916011E+03  0.10000000000E+01 0.  0.
    9000005    1    3    3    0    0  0.29423554189E+01  0.62341370735E+02  0.29562934604E+03  0.30214700760E+03  0.10000000000E+01 0.  0.
<mgrwt>
<rscale>  0 0.12499679E+03</rscale>
<asrwt>0</asrwt>
<pdfrwt beam="2">  1        4 0.10560018E-02 0.12499679E+03</pdfrwt>
<pdfrwt beam="1">  1       -4 0.87548023E-01 0.12499679E+03</pdfrwt>
<totfact> 0.50426912E+03</totfact>
</mgrwt>
</event>
<event>
 5    1  0.3259432E-002  0.1249940E+03  0.7818608E-02  0.1235079E+00
          4   -1    0    0  501    0  0.00000000000E+00  0.00000000000E+00  0.15023373633E+03  0.15023910420E+03  0.12700000000E+01 0. -1.
         -4   -1    0    0    0  501 -0.00000000000E+00 -0.00000000000E+00 -0.25977326212E+02  0.26008352065E+02  0.12700000000E+01 0. -1.
         25    2    1    2    0    0  0.00000000000E+00  0.00000000000E+00  0.12425641011E+03  0.17624745626E+03  0.12499404140E+03 0.  0.
    9000005    1    3    3    0    0  0.33344447556E+02  0.47567211397E+02  0.29654675336E+02  0.65229529756E+02  0.10000000000E+01 0.  0.
    9000005    1    3    3    0    0 -0.33344447556E+02 -0.47567211397E+02  0.94601734777E+02  0.11101792651E+03  0.10000000000E+01 0.  0.
<mgrwt>
<rscale>  0 0.12499404E+03</rscale>
<asrwt>0</asrwt>
<pdfrwt beam="1">  1        4 0.23115682E-01 0.12499404E+03</pdfrwt>
<pdfrwt beam="2">  1       -4 0.39993113E-02 0.12499404E+03</pdfrwt>
<totfact> 0.94309472E+03</totfact>
</mgrwt>
</event>
<event>
 5    1  0.3259432E-002  0.1250012E+03  0.7818608E-02  0.1235067E+00
          4   -1    0    0  501    0  0.00000000000E+00  0.00000000000E+00  0.17700330060E+03  0.17700785667E+03  0.12700000000E+01 0.  1.
         -4   -1    0    0    0  501 -0.00000000000E+00 -0.00000000000E+00 -0.22046115078E+02  0.22082664921E+02  0.12700000000E+01 0.  1.
         25    2    1    2    0    0  0.00000000000E+00  0.00000000000E+00  0.15495718552E+03  0.19909052159E+03  0.12500122577E+03 0.  0.
    9000005    1    3    3    0    0  0.46837920239E+02 -0.33114609828E+02  0.11697514631E+03  0.13028642681E+03  0.10000000000E+01 0.  0.
    9000005    1    3    3    0    0 -0.46837920239E+02  0.33114609828E+02  0.37982039216E+02  0.68804094787E+02  0.10000000000E+01 0.  0.
<mgrwt>
<rscale>  0 0.12500123E+03</rscale>
<asrwt>0</asrwt>
<pdfrwt beam="1">  1        4 0.27234440E-01 0.12500123E+03</pdfrwt>
<pdfrwt beam="2">  1       -4 0.33948719E-02 0.12500123E+03</pdfrwt>
<totfact> 0.90286646E+03</totfact>
</mgrwt>
</event>
<event>
 5    1  0.3259432E-002  0.1250094E+03  0.7818608E-02  0.1235055E+00
         -4   -1    0    0    0  501 -0.00000000000E+00  0.00000000000E+00  0.37005646676E+02  0.37027432883E+02  0.12700000000E+01 0. -1.
          4   -1    0    0  501    0  0.00000000000E+00 -0.00000000000E+00 -0.10551747094E+03  0.10552511347E+03  0.12700000000E+01 0. -1.
         25    2    1    2    0    0  0.00000000000E+00  0.00000000000E+00 -0.68511824266E+02  0.14255254636E+03  0.12500943328E+03 0.  0.
    9000005    1    3    3    0    0 -0.54347352363E+02 -0.28358152764E+02 -0.48129618177E+02  0.77944080487E+02  0.10000000000E+01 0.  0.
    9000005    1    3    3    0    0  0.54347352363E+02  0.28358152764E+02 -0.20382206089E+02  0.64608465870E+02  0.10000000000E+01 0.  0.
<mgrwt>
<rscale>  0 0.12500943E+03</rscale>
<asrwt>0</asrwt>
<pdfrwt beam="2">  1        4 0.16235721E-01 0.12500943E+03</pdfrwt>
<pdfrwt beam="1">  1       -4 0.56954402E-02 0.12500943E+03</pdfrwt>
<totfact> 0.10078813E+04</totfact>
</mgrwt>
</event>
<event>
 5    1  0.3259432E-002  0.1249859E+03  0.7818608E-02  0.1235091E+00
         -4   -1    0    0    0  501 -0.00000000000E+00  0.00000000000E+00  0.27326226561E+03  0.27326521679E+03  0.12700000000E+01 0. -1.
          4   -1    0    0  501    0  0.00000000000E+00 -0.00000000000E+00 -0.14260399645E+02  0.14316839666E+02  0.12700000000E+01 0. -1.
         25    2    1    2    0    0  0.00000000000E+00  0.00000000000E+00  0.25900186596E+03  0.28758205645E+03  0.12498588969E+03 0.  0.
    9000005    1    3    3    0    0  0.14993700991E+02 -0.25751427616E+02  0.31301194853E+01  0.29979071727E+02  0.10000000000E+01 0.  0.
    9000005    1    3    3    0    0 -0.14993700991E+02  0.25751427616E+02  0.25587174648E+03  0.25760298473E+03  0.10000000000E+01 0.  0.
<mgrwt>
<rscale>  0 0.12498589E+03</rscale>
<asrwt>0</asrwt>
<pdfrwt beam="2">  1        4 0.21984763E-02 0.12498589E+03</pdfrwt>
<pdfrwt beam="1">  1       -4 0.42044915E-01 0.12498589E+03</pdfrwt>
<totfact> 0.77207603E+03</totfact>
</mgrwt>
</event>
<event>
 5    1  0.3259432E-002  0.1250001E+03  0.7818608E-02  0.1235069E+00
          4   -1    0    0  501    0  0.00000000000E+00  0.00000000000E+00  0.58865756667E+02  0.58879454889E+02  0.12700000000E+01 0. -1.
         -4   -1    0    0    0  501 -0.00000000000E+00 -0.00000000000E+00 -0.66331190141E+02  0.66343346957E+02  0.12700000000E+01 0. -1.
         25    2    1    2    0    0  0.00000000000E+00  0.00000000000E+00 -0.74654334731E+01  0.12522280185E+03  0.12500006962E+03 0.  0.
    9000005    1    3    3    0    0 -0.38641428806E+02 -0.30594895337E+02 -0.42220527855E+02  0.64905936656E+02  0.10000000000E+01 0.  0.
    9000005    1    3    3    0    0  0.38641428806E+02  0.30594895337E+02  0.34755094382E+02  0.60316865190E+02  0.10000000000E+01 0.  0.
<mgrwt>
<rscale>  0 0.12500007E+03</rscale>
<asrwt>0</asrwt>
<pdfrwt beam="1">  1        4 0.90582591E-02 0.12500007E+03</pdfrwt>
<pdfrwt beam="2">  1       -4 0.10206787E-01 0.12500007E+03</pdfrwt>
<totfact> 0.10448009E+04</totfact>
</mgrwt>
</event>
<event>
 5    1  0.3259432E-002  0.1250032E+03  0.7818608E-02  0.1235064E+00
          4   -1    0    0  501    0  0.00000000000E+00  0.00000000000E+00  0.59108055258E+03  0.59108191695E+03  0.12700000000E+01 0.  1.
         -4   -1    0    0    0  501 -0.00000000000E+00 -0.00000000000E+00 -0.65466027132E+01  0.66686510693E+01  0.12700000000E+01 0.  1.
         25    2    1    2    0    0  0.00000000000E+00  0.00000000000E+00  0.58453394987E+03  0.59775056802E+03  0.12500321201E+03 0.  0.
    9000005    1    3    3    0    0  0.16022050854E+02  0.50385734372E+02  0.13294902894E+03  0.14307995191E+03  0.10000000000E+01 0.  0.
    9000005    1    3    3    0    0 -0.16022050854E+02 -0.50385734372E+02  0.45158492093E+03  0.45467061611E+03  0.10000000000E+01 0.  0.
<mgrwt>
<rscale>  0 0.12500321E+03</rscale>
<asrwt>0</asrwt>
<pdfrwt beam="1">  1        4 0.90945015E-01 0.12500321E+03</pdfrwt>
<pdfrwt beam="2">  1       -4 0.10166624E-02 0.12500321E+03</pdfrwt>
<totfact> 0.49006436E+03</totfact>
</mgrwt>
</event>
<event>
 5    1  0.3259432E-002  0.1250014E+03  0.7818608E-02  0.1235067E+00
         -4   -1    0    0    0  501 -0.00000000000E+00  0.00000000000E+00  0.38276616336E+02  0.38297679540E+02  0.12700000000E+01 0. -1.
          4   -1    0    0  501    0  0.00000000000E+00 -0.00000000000E+00 -0.10200236899E+03  0.10201027487E+03  0.12700000000E+01 0. -1.
         25    2    1    2    0    0  0.00000000000E+00  0.00000000000E+00 -0.63725752653E+02  0.14030795441E+03  0.12500140207E+03 0.  0.
    9000005    1    3    3    0    0  0.27655593735E+02 -0.32137062276E+02  0.19668690939E+02  0.46749118065E+02  0.10000000000E+01 0.  0.
    9000005    1    3    3    0    0 -0.27655593735E+02  0.32137062276E+02 -0.83394443593E+02  0.93558836348E+02  0.10000000000E+01 0.  0.
<mgrwt>
<rscale>  0 0.12500140E+03</rscale>
<asrwt>0</asrwt>
<pdfrwt beam="2">  1        4 0.15694900E-01 0.12500140E+03</pdfrwt>
<pdfrwt beam="1">  1       -4 0.58909387E-02 0.12500140E+03</pdfrwt>
<totfact> 0.10126887E+04</totfact>
</mgrwt>
</event>
<event>
 5    1  0.3259432E-002  0.1250024E+03  0.7818608E-02  0.1235066E+00
         -4   -1    0    0    0  501 -0.00000000000E+00  0.00000000000E+00  0.51431423669E+01  0.52976233734E+01  0.12700000000E+01 0. -1.
          4   -1    0    0  501    0  0.00000000000E+00 -0.00000000000E+00 -0.74814252921E+03  0.74814360714E+03  0.12700000000E+01 0. -1.
         25    2    1    2    0    0  0.00000000000E+00  0.00000000000E+00 -0.74299938684E+03  0.75344123052E+03  0.12500239596E+03 0.  0.
    9000005    1    3    3    0    0 -0.40501125673E+02  0.10086030211E+01 -0.84703609888E+02  0.93899201215E+02  0.10000000000E+01 0.  0.
    9000005    1    3    3    0    0  0.40501125673E+02 -0.10086030211E+01 -0.65829577695E+03  0.65954202930E+03  0.10000000000E+01 0.  0.
<mgrwt>
<rscale>  0 0.12500240E+03</rscale>
<asrwt>0</asrwt>
<pdfrwt beam="2">  1        4 0.11511073E+00 0.12500240E+03</pdfrwt>
<pdfrwt beam="1">  1       -4 0.80321934E-03 0.12500240E+03</pdfrwt>
<totfact> 0.40407989E+03</totfact>
</mgrwt>
</event>
<event>
 5    1  0.3259432E-002  0.1249745E+03  0.7818608E-02  0.1235109E+00
         -4   -1    0    0    0  501 -0.00000000000E+00  0.00000000000E+00  0.14091084740E+03  0.14091657041E+03  0.12700000000E+01 0. -1.
          4   -1    0    0  501    0  0.00000000000E+00 -0.00000000000E+00 -0.27689280998E+02  0.27718390686E+02  0.12700000000E+01 0. -1.
         25    2    1    2    0    0  0.00000000000E+00  0.00000000000E+00  0.11322156641E+03  0.16863496110E+03  0.12497450542E+03 0.  0.
    9000005    1    3    3    0    0  0.14251257951E+02  0.58120736165E+02  0.80844326609E+02  0.10058788928E+03  0.10000000000E+01 0.  0.
    9000005    1    3    3    0    0 -0.14251257951E+02 -0.58120736165E+02  0.32377239797E+02  0.68047071813E+02  0.10000000000E+01 0.  0.
<mgrwt>
<rscale>  0 0.12497451E+03</rscale>
<asrwt>0</asrwt>
<pdfrwt beam="2">  1        4 0.42625688E-02 0.12497451E+03</pdfrwt>
<pdfrwt beam="1">  1       -4 0.21681271E-01 0.12497451E+03</pdfrwt>
<totfact> 0.95758193E+03</totfact>
</mgrwt>
</event>
<event>
 5    1  0.3259432E-002  0.1250000E+03  0.7818608E-02  0.1235069E+00
         -4   -1    0    0    0  501 -0.00000000000E+00  0.00000000000E+00  0.52517225970E+02  0.52532579639E+02  0.12700000000E+01 0. -1.
          4   -1    0    0  501    0  0.00000000000E+00 -0.00000000000E+00 -0.74348697486E+02  0.74359543556E+02  0.12700000000E+01 0. -1.
         25    2    1    2    0    0  0.00000000000E+00  0.00000000000E+00 -0.21831471517E+02  0.12689212320E+03  0.12499999112E+03 0.  0.
    9000005    1    3    3    0    0 -0.56281700933E+02  0.22233037346E+02  0.49188286564E+01  0.60721764507E+02  0.10000000000E+01 0.  0.
    9000005    1    3    3    0    0  0.56281700933E+02 -0.22233037346E+02 -0.26750300173E+02  0.66170358688E+02  0.10000000000E+01 0.  0.
<mgrwt>
<rscale>  0 0.12499999E+03</rscale>
<asrwt>0</asrwt>
<pdfrwt beam="2">  1        4 0.11440277E-01 0.12499999E+03</pdfrwt>
<pdfrwt beam="1">  1       -4 0.80815885E-02 0.12499999E+03</pdfrwt>
<totfact> 0.10411492E+04</totfact>
</mgrwt>
</event>
<event>
 5    1  0.3259432E-002  0.1250006E+03  0.7818608E-02  0.1235068E+00
          4   -1    0    0  501    0  0.00000000000E+00  0.00000000000E+00  0.96983839695E+02  0.96992154641E+02  0.12700000000E+01 0.  1.
         -4   -1    0    0    0  501 -0.00000000000E+00 -0.00000000000E+00 -0.40257685221E+02  0.40277712439E+02  0.12700000000E+01 0.  1.
         25    2    1    2    0    0  0.00000000000E+00  0.00000000000E+00  0.56726154474E+02  0.13726986708E+03  0.12500063923E+03 0.  0.
    9000005    1    3    3    0    0  0.23891570896E+02  0.38997828962E+02  0.75130127030E+02  0.87961206285E+02  0.10000000000E+01 0.  0.
    9000005    1    3    3    0    0 -0.23891570896E+02 -0.38997828962E+02 -0.18403972556E+02  0.49308660795E+02  0.10000000000E+01 0.  0.
<mgrwt>
<rscale>  0 0.12500064E+03</rscale>
<asrwt>0</asrwt>
<pdfrwt beam="1">  1        4 0.14922771E-01 0.12500064E+03</pdfrwt>
<pdfrwt beam="2">  1       -4 0.61956701E-02 0.12500064E+03</pdfrwt>
<totfact> 0.10190299E+04</totfact>
</mgrwt>
</event>
<event>
 5    1  0.3259432E-002  0.1250025E+03  0.7818608E-02  0.1235065E+00
          4   -1    0    0  501    0  0.00000000000E+00  0.00000000000E+00  0.61207236508E+01  0.62510925453E+01  0.12700000000E+01 0. -1.
         -4   -1    0    0    0  501 -0.00000000000E+00 -0.00000000000E+00 -0.63136997763E+03  0.63137125493E+03  0.12700000000E+01 0. -1.
         25    2    1    2    0    0  0.00000000000E+00  0.00000000000E+00 -0.62524925398E+03  0.63762234747E+03  0.12500251357E+03 0.  0.
    9000005    1    3    3    0    0 -0.34826764322E+02  0.41062982689E+02 -0.15081063165E+03  0.16013718706E+03  0.10000000000E+01 0.  0.
    9000005    1    3    3    0    0  0.34826764322E+02 -0.41062982689E+02 -0.47443862233E+03  0.47748516041E+03  0.10000000000E+01 0.  0.
<mgrwt>
<rscale>  0 0.12500251E+03</rscale>
<asrwt>0</asrwt>
<pdfrwt beam="1">  1        4 0.95177692E-03 0.12500251E+03</pdfrwt>
<pdfrwt beam="2">  1       -4 0.97143918E-01 0.12500251E+03</pdfrwt>
<totfact> 0.46573185E+03</totfact>
</mgrwt>
</event>
<event>
 5    1  0.3259432E-002  0.1249979E+03  0.7818608E-02  0.1235072E+00
          4   -1    0    0  501    0  0.00000000000E+00  0.00000000000E+00  0.18776874356E+03  0.18777303842E+03  0.12700000000E+01 0.  1.
         -4   -1    0    0    0  501 -0.00000000000E+00 -0.00000000000E+00 -0.20778909745E+02  0.20817684554E+02  0.12700000000E+01 0.  1.
         25    2    1    2    0    0  0.00000000000E+00  0.00000000000E+00  0.16698983381E+03  0.20859072297E+03  0.12499794044E+03 0.  0.
    9000005    1    3    3    0    0 -0.28330582794E+02  0.43972160379E+02  0.14054940528E+03  0.14997102431E+03  0.10000000000E+01 0.  0.
    9000005    1    3    3    0    0  0.28330582794E+02 -0.43972160379E+02  0.26440428536E+02  0.58619698660E+02  0.10000000000E+01 0.  0.
<mgrwt>
<rscale>  0 0.12499794E+03</rscale>
<asrwt>0</asrwt>
<pdfrwt beam="1">  1        4 0.28890812E-01 0.12499794E+03</pdfrwt>
<pdfrwt beam="2">  1       -4 0.32000684E-02 0.12499794E+03</pdfrwt>
<totfact> 0.88710637E+03</totfact>
</mgrwt>
</event>
<event>
 5    1  0.3259432E-002  0.1249985E+03  0.7818608E-02  0.1235072E+00
          4   -1    0    0  501    0  0.00000000000E+00  0.00000000000E+00  0.93651356379E+01  0.94508552796E+01  0.12700000000E+01 0.  1.
         -4   -1    0    0    0  501 -0.00000000000E+00 -0.00000000000E+00 -0.41510836090E+03  0.41511030364E+03  0.12700000000E+01 0.  1.
         25    2    1    2    0    0  0.00000000000E+00  0.00000000000E+00 -0.40574322526E+03  0.42456115892E+03  0.12499845126E+03 0.  0.
    9000005    1    3    3    0    0  0.47623434679E+02  0.22309853695E+02 -0.88220082942E+02  0.10271077907E+03  0.10000000000E+01 0.  0.
    9000005    1    3    3    0    0 -0.47623434679E+02 -0.22309853695E+02 -0.31752314232E+03  0.32185037985E+03  0.10000000000E+01 0.  0.
<mgrwt>
<rscale>  0 0.12499845E+03</rscale>
<asrwt>0</asrwt>
<pdfrwt beam="1">  1        4 0.14475337E-02 0.12499845E+03</pdfrwt>
<pdfrwt beam="2">  1       -4 0.63869554E-01 0.12499845E+03</pdfrwt>
<totfact> 0.62234234E+03</totfact>
</mgrwt>
</event>
<event>
 5    1  0.3259432E-002  0.1250020E+03  0.7818608E-02  0.1235066E+00
         -4   -1    0    0    0  501 -0.00000000000E+00  0.00000000000E+00  0.56713783491E+02  0.56728001356E+02  0.12700000000E+01 0.  1.
          4   -1    0    0  501    0  0.00000000000E+00 -0.00000000000E+00 -0.68850074727E+02  0.68861786862E+02  0.12700000000E+01 0.  1.
         25    2    1    2    0    0  0.00000000000E+00  0.00000000000E+00 -0.12136291236E+02  0.12558978822E+03  0.12500202134E+03 0.  0.
    9000005    1    3    3    0    0 -0.27435695161E+02 -0.55830236969E+02 -0.69846630823E-01  0.62215252210E+02  0.10000000000E+01 0.  0.
    9000005    1    3    3    0    0  0.27435695161E+02  0.55830236969E+02 -0.12066444605E+02  0.63374536009E+02  0.10000000000E+01 0.  0.
<mgrwt>
<rscale>  0 0.12500202E+03</rscale>
<asrwt>0</asrwt>
<pdfrwt beam="2">  1        4 0.10594314E-01 0.12500202E+03</pdfrwt>
<pdfrwt beam="1">  1       -4 0.87271920E-02 0.12500202E+03</pdfrwt>
<totfact> 0.10439496E+04</totfact>
</mgrwt>
</event>
<event>
 5    1  0.3259432E-002  0.1249957E+03  0.7818608E-02  0.1235076E+00
          4   -1    0    0  501    0  0.00000000000E+00  0.00000000000E+00  0.41640222466E+01  0.43533873329E+01  0.12700000000E+01 0. -1.
         -4   -1    0    0    0  501 -0.00000000000E+00 -0.00000000000E+00 -0.91698584240E+03  0.91698672186E+03  0.12700000000E+01 0. -1.
         25    2    1    2    0    0  0.00000000000E+00  0.00000000000E+00 -0.91282182015E+03  0.92134010919E+03  0.12499568574E+03 0.  0.
    9000005    1    3    3    0    0  0.56671735223E+02  0.23920179502E+02 -0.37529005269E+03  0.38029920353E+03  0.10000000000E+01 0.  0.
    9000005    1    3    3    0    0 -0.56671735223E+02 -0.23920179502E+02 -0.53753176746E+03  0.54104090565E+03  0.10000000000E+01 0.  0.
<mgrwt>
<rscale>  0 0.12499569E+03</rscale>
<asrwt>0</asrwt>
<pdfrwt beam="1">  1        4 0.65525373E-03 0.12499569E+03</pdfrwt>
<pdfrwt beam="2">  1       -4 0.14108922E+00 0.12499569E+03</pdfrwt>
<totfact> 0.33359017E+03</totfact>
</mgrwt>
</event>
<event>
 5    1  0.3259432E-002  0.1249699E+03  0.7818608E-02  0.1235116E+00
         -4   -1    0    0    0  501 -0.00000000000E+00  0.00000000000E+00  0.23393375732E+02  0.23427823803E+02  0.12700000000E+01 0. -1.
          4   -1    0    0  501    0  0.00000000000E+00 -0.00000000000E+00 -0.16674086474E+03  0.16674570122E+03  0.12700000000E+01 0. -1.
         25    2    1    2    0    0  0.00000000000E+00  0.00000000000E+00 -0.14334748901E+03  0.19017352502E+03  0.12496986442E+03 0.  0.
    9000005    1    3    3    0    0  0.41272773005E+01 -0.60067641416E+02 -0.46291399500E+02  0.75954260123E+02  0.10000000000E+01 0.  0.
    9000005    1    3    3    0    0 -0.41272773005E+01  0.60067641416E+02 -0.97056089511E+02  0.11421926490E+03  0.10000000000E+01 0.  0.
<mgrwt>
<rscale>  0 0.12496986E+03</rscale>
<asrwt>0</asrwt>
<pdfrwt beam="2">  1        4 0.25655462E-01 0.12496986E+03</pdfrwt>
<pdfrwt beam="1">  1       -4 0.36020029E-02 0.12496986E+03</pdfrwt>
<totfact> 0.91879137E+03</totfact>
</mgrwt>
</event>
<event>
 5    1  0.3259432E-002  0.1250144E+03  0.7818608E-02  0.1235047E+00
          4   -1    0    0  501    0  0.00000000000E+00  0.00000000000E+00  0.16838837924E+03  0.16839316839E+03  0.12700000000E+01 0. -1.
         -4   -1    0    0    0  501 -0.00000000000E+00 -0.00000000000E+00 -0.23180690965E+02  0.23215454629E+02  0.12700000000E+01 0. -1.
         25    2    1    2    0    0  0.00000000000E+00  0.00000000000E+00  0.14520768827E+03  0.19160862302E+03  0.12501436591E+03 0.  0.
    9000005    1    3    3    0    0 -0.26471374217E+02 -0.47502977595E+02  0.11981678916E+03  0.13158392568E+03  0.10000000000E+01 0.  0.
    9000005    1    3    3    0    0  0.26471374217E+02  0.47502977595E+02  0.25390899114E+02  0.60024697343E+02  0.10000000000E+01 0.  0.
<mgrwt>
<rscale>  0 0.12501437E+03</rscale>
<asrwt>0</asrwt>
<pdfrwt beam="1">  1        4 0.25908947E-01 0.12501437E+03</pdfrwt>
<pdfrwt beam="2">  1       -4 0.35693027E-02 0.12501437E+03</pdfrwt>
<totfact> 0.91538715E+03</totfact>
</mgrwt>
</event>
<event>
 5    1  0.3259432E-002  0.1250010E+03  0.7818608E-02  0.1235068E+00
         -4   -1    0    0    0  501 -0.00000000000E+00  0.00000000000E+00  0.17816707523E+03  0.17817160154E+03  0.12700000000E+01 0.  1.
          4   -1    0    0  501    0  0.00000000000E+00 -0.00000000000E+00 -0.21901801396E+02  0.21938591669E+02  0.12700000000E+01 0.  1.
         25    2    1    2    0    0  0.00000000000E+00  0.00000000000E+00  0.15626527383E+03  0.20011019321E+03  0.12500101448E+03 0.  0.
    9000005    1    3    3    0    0 -0.26618816500E+02  0.21285074789E+02 -0.57213653121E+01  0.34573831458E+02  0.10000000000E+01 0.  0.
    9000005    1    3    3    0    0  0.26618816500E+02 -0.21285074789E+02  0.16198663914E+03  0.16553636175E+03  0.10000000000E+01 0.  0.
<mgrwt>
<rscale>  0 0.12500101E+03</rscale>
<asrwt>0</asrwt>
<pdfrwt beam="2">  1        4 0.33726862E-02 0.12500101E+03</pdfrwt>
<pdfrwt beam="1">  1       -4 0.27413497E-01 0.12500101E+03</pdfrwt>
<totfact> 0.90114879E+03</totfact>
</mgrwt>
</event>
<event>
 5    1  0.3259432E-002  0.1249992E+03  0.7818608E-02  0.1235071E+00
         -4   -1    0    0    0  501 -0.00000000000E+00  0.00000000000E+00  0.23605901578E+02  0.23640039960E+02  0.12700000000E+01 0. -1.
          4   -1    0    0  501    0  0.00000000000E+00 -0.00000000000E+00 -0.16531938475E+03  0.16532426281E+03  0.12700000000E+01 0. -1.
         25    2    1    2    0    0  0.00000000000E+00  0.00000000000E+00 -0.14171348317E+03  0.18896430277E+03  0.12499918563E+03 0.  0.
    9000005    1    3    3    0    0 -0.24244365309E+02  0.57011451039E+02 -0.83240366012E+02  0.10376923115E+03  0.10000000000E+01 0.  0.
    9000005    1    3    3    0    0  0.24244365309E+02 -0.57011451039E+02 -0.58473117160E+02  0.85195071625E+02  0.10000000000E+01 0.  0.
<mgrwt>
<rscale>  0 0.12499919E+03</rscale>
<asrwt>0</asrwt>
<pdfrwt beam="2">  1        4 0.25436752E-01 0.12499919E+03</pdfrwt>
<pdfrwt beam="1">  1       -4 0.36346785E-02 0.12499919E+03</pdfrwt>
<totfact> 0.92029514E+03</totfact>
</mgrwt>
</event>
<event>
 5    1  0.3259432E-002  0.1250011E+03  0.7818608E-02  0.1235068E+00
         -4   -1    0    0    0  501 -0.00000000000E+00  0.00000000000E+00  0.93266853928E+02  0.93275500222E+02  0.12700000000E+01 0. -1.
          4   -1    0    0  501    0  0.00000000000E+00 -0.00000000000E+00 -0.41863053864E+02  0.41882313437E+02  0.12700000000E+01 0. -1.
         25    2    1    2    0    0  0.00000000000E+00  0.00000000000E+00  0.51403800064E+02  0.13515781366E+03  0.12500113572E+03 0.  0.
    9000005    1    3    3    0    0  0.13814208387E+02  0.60761757119E+02  0.30830447067E+02  0.69529417860E+02  0.10000000000E+01 0.  0.
    9000005    1    3    3    0    0 -0.13814208387E+02 -0.60761757119E+02  0.20573352997E+02  0.65628395799E+02  0.10000000000E+01 0.  0.
<mgrwt>
<rscale>  0 0.12500114E+03</rscale>
<asrwt>0</asrwt>
<pdfrwt beam="2">  1        4 0.64426164E-02 0.12500114E+03</pdfrwt>
<pdfrwt beam="1">  1       -4 0.14350894E-01 0.12500114E+03</pdfrwt>
<totfact> 0.10234484E+04</totfact>
</mgrwt>
</event>
<event>
 5    1  0.3259432E-002  0.1250014E+03  0.7818608E-02  0.1235067E+00
          4   -1    0    0  501    0  0.00000000000E+00  0.00000000000E+00  0.12660038726E+03  0.12660675714E+03  0.12700000000E+01 0.  1.
         -4   -1    0    0    0  501 -0.00000000000E+00 -0.00000000000E+00 -0.30835442820E+02  0.30861585085E+02  0.12700000000E+01 0.  1.
         25    2    1    2    0    0  0.00000000000E+00  0.00000000000E+00  0.95764944439E+02  0.15746834223E+03  0.12500141687E+03 0.  0.
    9000005    1    3    3    0    0 -0.10636064143E+02  0.50184843155E+01  0.12519995666E+03  0.12575508018E+03  0.10000000000E+01 0.  0.
    9000005    1    3    3    0    0  0.10636064143E+02 -0.50184843155E+01 -0.29435012217E+02  0.31713262044E+02  0.10000000000E+01 0.  0.
<mgrwt>
<rscale>  0 0.12500142E+03</rscale>
<asrwt>0</asrwt>
<pdfrwt beam="1">  1        4 0.19479483E-01 0.12500142E+03</pdfrwt>
<pdfrwt beam="2">  1       -4 0.47464153E-02 0.12500142E+03</pdfrwt>
<totfact> 0.97829984E+03</totfact>
</mgrwt>
</event>
<event>
 5    1  0.3259432E-002  0.1250019E+03  0.7818608E-02  0.1235066E+00
          4   -1    0    0  501    0  0.00000000000E+00  0.00000000000E+00  0.27424523481E+04  0.27424526422E+04  0.12700000000E+01 0.  1.
         -4   -1    0    0    0  501 -0.00000000000E+00 -0.00000000000E+00 -0.11409719826E+01  0.17072542474E+01  0.12700000000E+01 0.  1.
         25    2    1    2    0    0  0.00000000000E+00  0.00000000000E+00  0.27413113761E+04  0.27441598964E+04  0.12500190490E+03 0.  0.
    9000005    1    3    3    0    0 -0.24405299928E+02 -0.35384506543E+02  0.23664793657E+04  0.23668699310E+04  0.10000000000E+01 0.  0.
    9000005    1    3    3    0    0  0.24405299928E+02  0.35384506543E+02  0.37483201039E+03  0.37728996539E+03  0.10000000000E+01 0.  0.
<mgrwt>
<rscale>  0 0.12500190E+03</rscale>
<asrwt>0</asrwt>
<pdfrwt beam="1">  1        4 0.42195616E+00 0.12500190E+03</pdfrwt>
<pdfrwt beam="2">  1       -4 0.21911859E-03 0.12500190E+03</pdfrwt>
<totfact> 0.30226347E+02</totfact>
</mgrwt>
</event>
<event>
 5    1  0.3259432E-002  0.1249992E+03  0.7818608E-02  0.1235071E+00
         -4   -1    0    0    0  501 -0.00000000000E+00  0.00000000000E+00  0.13164347410E+02  0.13225465690E+02  0.12700000000E+01 0. -1.
          4   -1    0    0  501    0  0.00000000000E+00 -0.00000000000E+00 -0.29597596766E+03  0.29597869236E+03  0.12700000000E+01 0. -1.
         25    2    1    2    0    0  0.00000000000E+00  0.00000000000E+00 -0.28281162025E+03  0.30920415805E+03  0.12499919523E+03 0.  0.
    9000005    1    3    3    0    0  0.10674080365E+02 -0.60657431583E+02 -0.16757740483E+03  0.17853976198E+03  0.10000000000E+01 0.  0.
    9000005    1    3    3    0    0 -0.10674080365E+02  0.60657431583E+02 -0.11523421542E+03  0.13066439607E+03  0.10000000000E+01 0.  0.
<mgrwt>
<rscale>  0 0.12499920E+03</rscale>
<asrwt>0</asrwt>
<pdfrwt beam="2">  1        4 0.45539670E-01 0.12499920E+03</pdfrwt>
<pdfrwt beam="1">  1       -4 0.20301954E-02 0.12499920E+03</pdfrwt>
<totfact> 0.74459934E+03</totfact>
</mgrwt>
</event>
<event>
 4    1  0.3259432E-002  0.1248445E+03  0.7818608E-02  0.1235313E+00
          4   -1    0    0  501    0  0.00000000000E+00  0.00000000000E+00  0.63647109335E+02  0.63659778720E+02  0.12700000000E+01 0. -1.
         -4   -1    0    0    0  501 -0.00000000000E+00 -0.00000000000E+00 -0.61195606024E+02  0.61208782839E+02  0.12700000000E+01 0. -1.
    9000005    1    1    2    0    0 -0.51190980501E+01  0.18857266598E+02 -0.58062443995E+02  0.61270295177E+02  0.10000000000E+01 0.  0.
    9000005    1    1    2    0    0  0.51190980501E+01 -0.18857266598E+02  0.60513947306E+02  0.63598266383E+02  0.10000000000E+01 0.  0.
<mgrwt>
<rscale>  0 0.12484449E+03</rscale>
<asrwt>0</asrwt>
<pdfrwt beam="1">  1        4 0.97938512E-02 0.12484449E+03</pdfrwt>
<pdfrwt beam="2">  1       -4 0.94166968E-02 0.12484449E+03</pdfrwt>
<totfact> 0.10492551E+04</totfact>
</mgrwt>
</event>
<event>
 5    1  0.3259432E-002  0.1249988E+03  0.7818608E-02  0.1235071E+00
         -4   -1    0    0    0  501 -0.00000000000E+00  0.00000000000E+00  0.13846336607E+02  0.13904457467E+02  0.12700000000E+01 0. -1.
          4   -1    0    0  501    0  0.00000000000E+00 -0.00000000000E+00 -0.28145868996E+03  0.28146155520E+03  0.12700000000E+01 0. -1.
         25    2    1    2    0    0  0.00000000000E+00  0.00000000000E+00 -0.26761235335E+03  0.29536601266E+03  0.12499883907E+03 0.  0.
    9000005    1    3    3    0    0  0.59048500734E+02 -0.19987894483E+02 -0.12352365688E+03  0.13836666930E+03  0.10000000000E+01 0.  0.
    9000005    1    3    3    0    0 -0.59048500734E+02  0.19987894483E+02 -0.14408869647E+03  0.15699934336E+03  0.10000000000E+01 0.  0.
<mgrwt>
<rscale>  0 0.12499884E+03</rscale>
<asrwt>0</asrwt>
<pdfrwt beam="2">  1        4 0.43306024E-01 0.12499884E+03</pdfrwt>
<pdfrwt beam="1">  1       -4 0.21348971E-02 0.12499884E+03</pdfrwt>
<totfact> 0.76185784E+03</totfact>
</mgrwt>
</event>
<event>
 5    1  0.3259432E-002  0.1250005E+03  0.7818608E-02  0.1235068E+00
         -4   -1    0    0    0  501 -0.00000000000E+00  0.00000000000E+00  0.96744893428E+03  0.96744976786E+03  0.12700000000E+01 0.  1.
          4   -1    0    0  501    0  0.00000000000E+00 -0.00000000000E+00 -0.39369956828E+01  0.41367662499E+01  0.12700000000E+01 0.  1.
         25    2    1    2    0    0  0.00000000000E+00  0.00000000000E+00  0.96351193860E+03  0.97158653411E+03  0.12500054981E+03 0.  0.
    9000005    1    3    3    0    0  0.55203656378E+02  0.78197486758E+00  0.25418438027E+03  0.26011296457E+03  0.10000000000E+01 0.  0.
    9000005    1    3    3    0    0 -0.55203656378E+02 -0.78197486758E+00  0.70932755832E+03  0.71147356954E+03  0.10000000000E+01 0.  0.
<mgrwt>
<rscale>  0 0.12500055E+03</rscale>
<asrwt>0</asrwt>
<pdfrwt beam="2">  1        4 0.62112283E-03 0.12500055E+03</pdfrwt>
<pdfrwt beam="1">  1       -4 0.14885370E+00 0.12500055E+03</pdfrwt>
<totfact> 0.31561376E+03</totfact>
</mgrwt>
</event>
<event>
 5    1  0.3259432E-002  0.1250029E+03  0.7818608E-02  0.1235065E+00
          4   -1    0    0  501    0  0.00000000000E+00  0.00000000000E+00  0.29089186727E+03  0.29089463959E+03  0.12700000000E+01 0.  1.
         -4   -1    0    0    0  501 -0.00000000000E+00 -0.00000000000E+00 -0.13396275195E+02  0.13456340108E+02  0.12700000000E+01 0.  1.
         25    2    1    2    0    0  0.00000000000E+00  0.00000000000E+00  0.27749559207E+03  0.30435097970E+03  0.12500286086E+03 0.  0.
    9000005    1    3    3    0    0 -0.40469218263E+02  0.47216538301E+02  0.15380978146E+03  0.16590843254E+03  0.10000000000E+01 0.  0.
    9000005    1    3    3    0    0  0.40469218263E+02 -0.47216538301E+02  0.12368581061E+03  0.13844254715E+03  0.10000000000E+01 0.  0.
<mgrwt>
<rscale>  0 0.12500286E+03</rscale>
<asrwt>0</asrwt>
<pdfrwt beam="1">  1        4 0.44757429E-01 0.12500286E+03</pdfrwt>
<pdfrwt beam="2">  1       -4 0.20657990E-02 0.12500286E+03</pdfrwt>
<totfact> 0.75051514E+03</totfact>
</mgrwt>
</event>
<event>
 5    1  0.3259432E-002  0.1249987E+03  0.7818608E-02  0.1235071E+00
          4   -1    0    0  501    0  0.00000000000E+00  0.00000000000E+00  0.18324648271E+02  0.18368604581E+02  0.12700000000E+01 0. -1.
         -4   -1    0    0    0  501 -0.00000000000E+00 -0.00000000000E+00 -0.21286366626E+03  0.21286745480E+03  0.12700000000E+01 0. -1.
         25    2    1    2    0    0  0.00000000000E+00  0.00000000000E+00 -0.19453901799E+03  0.23123605939E+03  0.12499874255E+03 0.  0.
    9000005    1    3    3    0    0 -0.48508566591E+02  0.23023195675E+02 -0.15640935861E+03  0.16537241618E+03  0.10000000000E+01 0.  0.
    9000005    1    3    3    0    0  0.48508566591E+02 -0.23023195675E+02 -0.38129659378E+02  0.65863643204E+02  0.10000000000E+01 0.  0.
<mgrwt>
<rscale>  0 0.12499874E+03</rscale>
<asrwt>0</asrwt>
<pdfrwt beam="1">  1        4 0.28228495E-02 0.12499874E+03</pdfrwt>
<pdfrwt beam="2">  1       -4 0.32751927E-01 0.12499874E+03</pdfrwt>
<totfact> 0.85122548E+03</totfact>
</mgrwt>
</event>
<event>
 5    1  0.3259432E-002  0.1250026E+03  0.7818608E-02  0.1235065E+00
          4   -1    0    0  501    0  0.00000000000E+00  0.00000000000E+00  0.83949842338E+02  0.83959448120E+02  0.12700000000E+01 0.  1.
         -4   -1    0    0    0  501 -0.00000000000E+00 -0.00000000000E+00 -0.46511735065E+02  0.46529070469E+02  0.12700000000E+01 0.  1.
         25    2    1    2    0    0  0.00000000000E+00  0.00000000000E+00  0.37438107273E+02  0.13048851859E+03  0.12500256640E+03 0.  0.
    9000005    1    3    3    0    0  0.42728119056E+01  0.32388661490E+02  0.74331162854E+02  0.81199778854E+02  0.10000000000E+01 0.  0.
    9000005    1    3    3    0    0 -0.42728119056E+01 -0.32388661490E+02 -0.36893055581E+02  0.49288739736E+02  0.10000000000E+01 0.  0.
<mgrwt>
<rscale>  0 0.12500257E+03</rscale>
<asrwt>0</asrwt>
<pdfrwt beam="1">  1        4 0.12917433E-01 0.12500257E+03</pdfrwt>
<pdfrwt beam="2">  1       -4 0.71577240E-02 0.12500257E+03</pdfrwt>
<totfact> 0.10333469E+04</totfact>
</mgrwt>
</event>
<event>
 5    1  0.3259432E-002  0.1249819E+03  0.7818608E-02  0.1235098E+00
          4   -1    0    0  501    0  0.00000000000E+00  0.00000000000E+00  0.46353073995E+02  0.46370468714E+02  0.12700000000E+01 0. -1.
         -4   -1    0    0    0  501 -0.00000000000E+00 -0.00000000000E+00 -0.84209190870E+02  0.84218767071E+02  0.12700000000E+01 0. -1.
         25    2    1    2    0    0  0.00000000000E+00  0.00000000000E+00 -0.37856116875E+02  0.13058923578E+03  0.12498185035E+03 0.  0.
    9000005    1    3    3    0    0  0.37009288525E+02  0.19489088188E+02 -0.67428325984E+02  0.79354213124E+02  0.10000000000E+01 0.  0.
    9000005    1    3    3    0    0 -0.37009288525E+02 -0.19489088188E+02  0.29572209108E+02  0.51235022661E+02  0.10000000000E+01 0.  0.
<mgrwt>
<rscale>  0 0.12498185E+03</rscale>
<asrwt>0</asrwt>
<pdfrwt beam="1">  1        4 0.71333168E-02 0.12498185E+03</pdfrwt>
<pdfrwt beam="2">  1       -4 0.12957335E-01 0.12498185E+03</pdfrwt>
<totfact> 0.10336135E+04</totfact>
</mgrwt>
</event>
<event>
 5    1  0.3259432E-002  0.1250296E+03  0.7818608E-02  0.1235023E+00
          4   -1    0    0  501    0  0.00000000000E+00  0.00000000000E+00  0.24661853999E+03  0.24662181000E+03  0.12700000000E+01 0. -1.
         -4   -1    0    0    0  501 -0.00000000000E+00 -0.00000000000E+00 -0.15817916973E+02  0.15868818399E+02  0.12700000000E+01 0. -1.
         25    2    1    2    0    0  0.00000000000E+00  0.00000000000E+00  0.23080062302E+03  0.26249062840E+03  0.12502960614E+03 0.  0.
    9000005    1    3    3    0    0 -0.13365904228E+02  0.60974272126E+02  0.12223276232E+03  0.13725289593E+03  0.10000000000E+01 0.  0.
    9000005    1    3    3    0    0  0.13365904228E+02 -0.60974272126E+02  0.10856786070E+03  0.12523773247E+03  0.10000000000E+01 0.  0.
<mgrwt>
<rscale>  0 0.12502961E+03</rscale>
<asrwt>0</asrwt>
<pdfrwt beam="1">  1        4 0.37945479E-01 0.12502961E+03</pdfrwt>
<pdfrwt beam="2">  1       -4 0.24376928E-02 0.12502961E+03</pdfrwt>
<totfact> 0.80504745E+03</totfact>
</mgrwt>
</event>
<event>
 5    1  0.3259432E-002  0.1249935E+03  0.7818608E-02  0.1235079E+00
         -4   -1    0    0    0  501 -0.00000000000E+00  0.00000000000E+00  0.14838611235E+02  0.14892860148E+02  0.12700000000E+01 0. -1.
          4   -1    0    0  501    0  0.00000000000E+00 -0.00000000000E+00 -0.26268562085E+03  0.26268869085E+03  0.12700000000E+01 0. -1.
         25    2    1    2    0    0  0.00000000000E+00  0.00000000000E+00 -0.24784700962E+03  0.27758155100E+03  0.12499350895E+03 0.  0.
    9000005    1    3    3    0    0 -0.41587958698E+02  0.38614126051E+02 -0.18201410581E+03  0.19065871014E+03  0.10000000000E+01 0.  0.
    9000005    1    3    3    0    0  0.41587958698E+02 -0.38614126051E+02 -0.65832903806E+02  0.86922840858E+02  0.10000000000E+01 0.  0.
<mgrwt>
<rscale>  0 0.12499351E+03</rscale>
<asrwt>0</asrwt>
<pdfrwt beam="2">  1        4 0.40417578E-01 0.12499351E+03</pdfrwt>
<pdfrwt beam="1">  1       -4 0.22872726E-02 0.12499351E+03</pdfrwt>
<totfact> 0.78511201E+03</totfact>
</mgrwt>
</event>
<event>
 5    1  0.3259432E-002  0.1249969E+03  0.7818608E-02  0.1235074E+00
         -4   -1    0    0    0  501 -0.00000000000E+00  0.00000000000E+00  0.49212917043E+02  0.49229301274E+02  0.12700000000E+01 0. -1.
          4   -1    0    0  501    0  0.00000000000E+00 -0.00000000000E+00 -0.79335911104E+02  0.79346075459E+02  0.12700000000E+01 0. -1.
         25    2    1    2    0    0  0.00000000000E+00  0.00000000000E+00 -0.30122994061E+02  0.12857537673E+03  0.12499693089E+03 0.  0.
    9000005    1    3    3    0    0 -0.60267276574E+02  0.88131639662E+01 -0.68858578240E+00  0.60920363058E+02  0.10000000000E+01 0.  0.
    9000005    1    3    3    0    0  0.60267276574E+02 -0.88131639662E+01 -0.29434408278E+02  0.67655013675E+02  0.10000000000E+01 0.  0.
<mgrwt>
<rscale>  0 0.12499693E+03</rscale>
<asrwt>0</asrwt>
<pdfrwt beam="2">  1        4 0.12207567E-01 0.12499693E+03</pdfrwt>
<pdfrwt beam="1">  1       -4 0.75732602E-02 0.12499693E+03</pdfrwt>
<totfact> 0.10375799E+04</totfact>
</mgrwt>
</event>
<event>
 5    1  0.3259432E-002  0.1250051E+03  0.7818608E-02  0.1235061E+00
         -4   -1    0    0    0  501 -0.00000000000E+00  0.00000000000E+00  0.47020773795E+01  0.48705679014E+01  0.12700000000E+01 0. -1.
          4   -1    0    0  501    0  0.00000000000E+00 -0.00000000000E+00 -0.81602584484E+03  0.81602683311E+03  0.12700000000E+01 0. -1.
         25    2    1    2    0    0  0.00000000000E+00  0.00000000000E+00 -0.81132376746E+03  0.82089740101E+03  0.12500514922E+03 0.  0.
    9000005    1    3    3    0    0  0.16934392445E+02  0.40806627738E+02 -0.11540620449E+03  0.12357809898E+03  0.10000000000E+01 0.  0.
    9000005    1    3    3    0    0 -0.16934392445E+02 -0.40806627738E+02 -0.69591756298E+03  0.69731930203E+03  0.10000000000E+01 0.  0.
<mgrwt>
<rscale>  0 0.12500515E+03</rscale>
<asrwt>0</asrwt>
<pdfrwt beam="2">  1        4 0.12555536E+00 0.12500515E+03</pdfrwt>
<pdfrwt beam="1">  1       -4 0.73643400E-03 0.12500515E+03</pdfrwt>
<totfact> 0.37344496E+03</totfact>
</mgrwt>
</event>
<event>
 5    1  0.3259432E-002  0.1250000E+03  0.7818608E-02  0.1235069E+00
         -4   -1    0    0    0  501 -0.00000000000E+00  0.00000000000E+00  0.52446932532E+03  0.52447086296E+03  0.12700000000E+01 0. -1.
          4   -1    0    0  501    0  0.00000000000E+00 -0.00000000000E+00 -0.73923087045E+01  0.75006085075E+01  0.12700000000E+01 0. -1.
         25    2    1    2    0    0  0.00000000000E+00  0.00000000000E+00  0.51707701661E+03  0.53197147147E+03  0.12500002140E+03 0.  0.
    9000005    1    3    3    0    0  0.41013108028E+02 -0.79158645861E+00  0.57904755896E+02  0.70969446909E+02  0.10000000000E+01 0.  0.
    9000005    1    3    3    0    0 -0.41013108028E+02  0.79158645861E+00  0.45917226072E+03  0.46100202456E+03  0.10000000000E+01 0.  0.
<mgrwt>
<rscale>  0 0.12500002E+03</rscale>
<asrwt>0</asrwt>
<pdfrwt beam="2">  1        4 0.11457271E-02 0.12500002E+03</pdfrwt>
<pdfrwt beam="1">  1       -4 0.80696048E-01 0.12500002E+03</pdfrwt>
<totfact> 0.53466355E+03</totfact>
</mgrwt>
</event>
<event>
 5    1  0.3259432E-002  0.1249991E+03  0.7818608E-02  0.1235071E+00
         -4   -1    0    0    0  501 -0.00000000000E+00  0.00000000000E+00  0.94686112230E+02  0.94694628935E+02  0.12700000000E+01 0. -1.
          4   -1    0    0  501    0  0.00000000000E+00 -0.00000000000E+00 -0.41233985599E+02  0.41253538859E+02  0.12700000000E+01 0. -1.
         25    2    1    2    0    0  0.00000000000E+00  0.00000000000E+00  0.53452126630E+02  0.13594816779E+03  0.12499909794E+03 0.  0.
    9000005    1    3    3    0    0  0.59070902582E+02 -0.67274046800E+01  0.47662277886E+02  0.76205788749E+02  0.10000000000E+01 0.  0.
    9000005    1    3    3    0    0 -0.59070902582E+02  0.67274046800E+01  0.57898487440E+01  0.59742379046E+02  0.10000000000E+01 0.  0.
<mgrwt>
<rscale>  0 0.12499910E+03</rscale>
<asrwt>0</asrwt>
<pdfrwt beam="2">  1        4 0.63458493E-02 0.12499910E+03</pdfrwt>
<pdfrwt beam="1">  1       -4 0.14569253E-01 0.12499910E+03</pdfrwt>
<totfact> 0.10218332E+04</totfact>
</mgrwt>
</event>
<event>
 5    1  0.3259432E-002  0.1250035E+03  0.7818608E-02  0.1235064E+00
         -4   -1    0    0    0  501 -0.00000000000E+00  0.00000000000E+00  0.64441899299E+01  0.65681415829E+01  0.12700000000E+01 0. -1.
          4   -1    0    0  501    0  0.00000000000E+00 -0.00000000000E+00 -0.60030130552E+03  0.60030264893E+03  0.12700000000E+01 0. -1.
         25    2    1    2    0    0  0.00000000000E+00  0.00000000000E+00 -0.59385711559E+03  0.60687079051E+03  0.12500353050E+03 0.  0.
    9000005    1    3    3    0    0 -0.27898019897E+01 -0.43398540873E+02 -0.51481545131E+03  0.51664994460E+03  0.10000000000E+01 0.  0.
    9000005    1    3    3    0    0  0.27898019897E+01  0.43398540873E+02 -0.79041664282E+02  0.90220845915E+02  0.10000000000E+01 0.  0.
<mgrwt>
<rscale>  0 0.12500353E+03</rscale>
<asrwt>0</asrwt>
<pdfrwt beam="2">  1        4 0.92363641E-01 0.12500353E+03</pdfrwt>
<pdfrwt beam="1">  1       -4 0.10010524E-02 0.12500353E+03</pdfrwt>
<totfact> 0.48433027E+03</totfact>
</mgrwt>
</event>
<event>
 5    1  0.3259432E-002  0.1250000E+03  0.7818608E-02  0.1235069E+00
          4   -1    0    0  501    0  0.00000000000E+00  0.00000000000E+00  0.84647834631E+02  0.84657361214E+02  0.12700000000E+01 0. -1.
         -4   -1    0    0    0  501 -0.00000000000E+00 -0.00000000000E+00 -0.46126180020E+02  0.46143660272E+02  0.12700000000E+01 0. -1.
         25    2    1    2    0    0  0.00000000000E+00  0.00000000000E+00  0.38521654610E+02  0.13080102149E+03  0.12499995739E+03 0.  0.
    9000005    1    3    3    0    0  0.23618723035E+02 -0.74763049443E+00 -0.41275912103E+02  0.47572092125E+02  0.10000000000E+01 0.  0.
    9000005    1    3    3    0    0 -0.23618723035E+02  0.74763049443E+00  0.79797566714E+02  0.83228929361E+02  0.10000000000E+01 0.  0.
<mgrwt>
<rscale>  0 0.12499996E+03</rscale>
<asrwt>0</asrwt>
<pdfrwt beam="1">  1        4 0.13024821E-01 0.12499996E+03</pdfrwt>
<pdfrwt beam="2">  1       -4 0.70984129E-02 0.12499996E+03</pdfrwt>
<totfact> 0.10327367E+04</totfact>
</mgrwt>
</event>
<event>
 5    1  0.3259432E-002  0.1249964E+03  0.7818608E-02  0.1235075E+00
          4   -1    0    0  501    0  0.00000000000E+00  0.00000000000E+00  0.21824861912E+02  0.21861781663E+02  0.12700000000E+01 0.  1.
         -4   -1    0    0    0  501 -0.00000000000E+00 -0.00000000000E+00 -0.17878105361E+03  0.17878556437E+03  0.12700000000E+01 0.  1.
         25    2    1    2    0    0  0.00000000000E+00  0.00000000000E+00 -0.15695619169E+03  0.20064734604E+03  0.12499644539E+03 0.  0.
    9000005    1    3    3    0    0 -0.19938840428E+02 -0.32150679838E+02 -0.15831770902E+03  0.16277813293E+03  0.10000000000E+01 0.  0.
    9000005    1    3    3    0    0  0.19938840428E+02  0.32150679838E+02  0.13615173266E+01  0.37869213103E+02  0.10000000000E+01 0.  0.
<mgrwt>
<rscale>  0 0.12499645E+03</rscale>
<asrwt>0</asrwt>
<pdfrwt beam="1">  1        4 0.33608581E-02 0.12499645E+03</pdfrwt>
<pdfrwt beam="2">  1       -4 0.27507963E-01 0.12499645E+03</pdfrwt>
<totfact> 0.90033602E+03</totfact>
</mgrwt>
</event>
<event>
 5    1  0.3259432E-002  0.1249970E+03  0.7818608E-02  0.1235074E+00
          4   -1    0    0  501    0  0.00000000000E+00  0.00000000000E+00  0.71862429760E+02  0.71873651021E+02  0.12700000000E+01 0. -1.
         -4   -1    0    0    0  501 -0.00000000000E+00 -0.00000000000E+00 -0.54331795255E+02  0.54346636286E+02  0.12700000000E+01 0. -1.
         25    2    1    2    0    0  0.00000000000E+00  0.00000000000E+00  0.17530634506E+02  0.12622028731E+03  0.12499695109E+03 0.  0.
    9000005    1    3    3    0    0 -0.57723790427E+02  0.23320535393E+02  0.14219671145E+02  0.63867694492E+02  0.10000000000E+01 0.  0.
    9000005    1    3    3    0    0  0.57723790427E+02 -0.23320535393E+02  0.33109633605E+01  0.62352592814E+02  0.10000000000E+01 0.  0.
<mgrwt>
<rscale>  0 0.12499695E+03</rscale>
<asrwt>0</asrwt>
<pdfrwt beam="1">  1        4 0.11057763E-01 0.12499695E+03</pdfrwt>
<pdfrwt beam="2">  1       -4 0.83607425E-02 0.12499695E+03</pdfrwt>
<totfact> 0.10426853E+04</totfact>
</mgrwt>
</event>
<event>
 5    1  0.3259432E-002  0.1250036E+03  0.7818608E-02  0.1235064E+00
          4   -1    0    0  501    0  0.00000000000E+00  0.00000000000E+00  0.19572124198E+02  0.19613284927E+02  0.12700000000E+01 0. -1.
         -4   -1    0    0    0  501 -0.00000000000E+00 -0.00000000000E+00 -0.19934105008E+03  0.19934509562E+03  0.12700000000E+01 0. -1.
         25    2    1    2    0    0  0.00000000000E+00  0.00000000000E+00 -0.17976892589E+03  0.21895838055E+03  0.12500362274E+03 0.  0.
    9000005    1    3    3    0    0  0.69420502079E+01 -0.60176069334E+02 -0.62968495279E+02  0.87380677380E+02  0.10000000000E+01 0.  0.
    9000005    1    3    3    0    0 -0.69420502079E+01  0.60176069334E+02 -0.11680043061E+03  0.13157770317E+03  0.10000000000E+01 0.  0.
<mgrwt>
<rscale>  0 0.12500362E+03</rscale>
<asrwt>0</asrwt>
<pdfrwt beam="1">  1        4 0.30145736E-02 0.12500362E+03</pdfrwt>
<pdfrwt beam="2">  1       -4 0.30671330E-01 0.12500362E+03</pdfrwt>
<totfact> 0.87026399E+03</totfact>
</mgrwt>
</event>
<event>
 5    1  0.3259432E-002  0.1250002E+03  0.7818608E-02  0.1235069E+00
         -4   -1    0    0    0  501 -0.00000000000E+00  0.00000000000E+00  0.59340641985E+02  0.59354230610E+02  0.12700000000E+01 0.  1.
          4   -1    0    0  501    0  0.00000000000E+00 -0.00000000000E+00 -0.65800554922E+02  0.65812809757E+02  0.12700000000E+01 0.  1.
         25    2    1    2    0    0  0.00000000000E+00  0.00000000000E+00 -0.64599129367E+01  0.12516704037E+03  0.12500023008E+03 0.  0.
    9000005    1    3    3    0    0 -0.19960621431E+02 -0.53611323575E+02  0.21956421548E+02  0.61283642766E+02  0.10000000000E+01 0.  0.
    9000005    1    3    3    0    0  0.19960621431E+02  0.53611323575E+02 -0.28416334485E+02  0.63883397600E+02  0.10000000000E+01 0.  0.
<mgrwt>
<rscale>  0 0.12500023E+03</rscale>
<asrwt>0</asrwt>
<pdfrwt beam="2">  1        4 0.10125150E-01 0.12500023E+03</pdfrwt>
<pdfrwt beam="1">  1       -4 0.91313175E-02 0.12500023E+03</pdfrwt>
<totfact> 0.10449181E+04</totfact>
</mgrwt>
</event>
<event>
 5    1  0.3259432E-002  0.1250000E+03  0.7818608E-02  0.1235069E+00
          4   -1    0    0  501    0  0.00000000000E+00  0.00000000000E+00  0.66497765178E+02  0.66509891548E+02  0.12700000000E+01 0. -1.
         -4   -1    0    0    0  501 -0.00000000000E+00 -0.00000000000E+00 -0.58718225580E+02  0.58731958211E+02  0.12700000000E+01 0. -1.
         25    2    1    2    0    0  0.00000000000E+00  0.00000000000E+00  0.77795395985E+01  0.12524184976E+03  0.12499999878E+03 0.  0.
    9000005    1    3    3    0    0  0.12218662845E+02  0.40260402303E+02 -0.42406277982E+02  0.59745193343E+02  0.10000000000E+01 0.  0.
    9000005    1    3    3    0    0 -0.12218662845E+02 -0.40260402303E+02  0.50185817581E+02  0.65496656415E+02  0.10000000000E+01 0.  0.
<mgrwt>
<rscale>  0 0.12500000E+03</rscale>
<asrwt>0</asrwt>
<pdfrwt beam="1">  1        4 0.10232415E-01 0.12500000E+03</pdfrwt>
<pdfrwt beam="2">  1       -4 0.90355623E-02 0.12500000E+03</pdfrwt>
<totfact> 0.10447612E+04</totfact>
</mgrwt>
</event>
<event>
 5    1  0.3259432E-002  0.1250000E+03  0.7818608E-02  0.1235069E+00
         -4   -1    0    0    0  501 -0.00000000000E+00  0.00000000000E+00  0.11470731925E+02  0.11540822800E+02  0.12700000000E+01 0. -1.
          4   -1    0    0  501    0  0.00000000000E+00 -0.00000000000E+00 -0.33943227967E+03  0.33943465554E+03  0.12700000000E+01 0. -1.
         25    2    1    2    0    0  0.00000000000E+00  0.00000000000E+00 -0.32796154775E+03  0.35097547834E+03  0.12500003839E+03 0.  0.
    9000005    1    3    3    0    0  0.20764157545E+02  0.58652202315E+02 -0.18035807126E+03  0.19079115531E+03  0.10000000000E+01 0.  0.
    9000005    1    3    3    0    0 -0.20764157545E+02 -0.58652202315E+02 -0.14760347648E+03  0.16018432303E+03  0.10000000000E+01 0.  0.
<mgrwt>
<rscale>  0 0.12500004E+03</rscale>
<asrwt>0</asrwt>
<pdfrwt beam="2">  1        4 0.52225917E-01 0.12500004E+03</pdfrwt>
<pdfrwt beam="1">  1       -4 0.17703026E-02 0.12500004E+03</pdfrwt>
<totfact> 0.69617319E+03</totfact>
</mgrwt>
</event>
<event>
 5    1  0.3259432E-002  0.1250012E+03  0.7818608E-02  0.1235067E+00
         -4   -1    0    0    0  501 -0.00000000000E+00  0.00000000000E+00  0.80166935207E+03  0.80167035803E+03  0.12700000000E+01 0.  1.
          4   -1    0    0  501    0  0.00000000000E+00 -0.00000000000E+00 -0.47889605817E+01  0.49544972957E+01  0.12700000000E+01 0.  1.
         25    2    1    2    0    0  0.00000000000E+00  0.00000000000E+00  0.79688039149E+03  0.80662485533E+03  0.12500119557E+03 0.  0.
    9000005    1    3    3    0    0 -0.46801214223E+02  0.41111050885E+02  0.43060960254E+03  0.43509321066E+03  0.10000000000E+01 0.  0.
    9000005    1    3    3    0    0  0.46801214223E+02 -0.41111050885E+02  0.36627078894E+03  0.37153164467E+03  0.10000000000E+01 0.  0.
<mgrwt>
<rscale>  0 0.12500120E+03</rscale>
<asrwt>0</asrwt>
<pdfrwt beam="2">  1        4 0.74957361E-03 0.12500120E+03</pdfrwt>
<pdfrwt beam="1">  1       -4 0.12334664E+00 0.12500120E+03</pdfrwt>
<totfact> 0.37969663E+03</totfact>
</mgrwt>
</event>
<event>
 5    1  0.3259432E-002  0.1250031E+03  0.7818608E-02  0.1235064E+00
          4   -1    0    0  501    0  0.00000000000E+00  0.00000000000E+00  0.52426027721E+02  0.52441408091E+02  0.12700000000E+01 0. -1.
         -4   -1    0    0    0  501 -0.00000000000E+00 -0.00000000000E+00 -0.74481719377E+02  0.74492546079E+02  0.12700000000E+01 0. -1.
         25    2    1    2    0    0  0.00000000000E+00  0.00000000000E+00 -0.22055691656E+02  0.12693395417E+03  0.12500310071E+03 0.  0.
    9000005    1    3    3    0    0  0.41580950205E+02 -0.45333393834E+02  0.15829027539E+00  0.61523305116E+02  0.10000000000E+01 0.  0.
    9000005    1    3    3    0    0 -0.41580950205E+02  0.45333393834E+02 -0.22213981931E+02  0.65410649055E+02  0.10000000000E+01 0.  0.
<mgrwt>
<rscale>  0 0.12500310E+03</rscale>
<asrwt>0</asrwt>
<pdfrwt beam="1">  1        4 0.80675587E-02 0.12500310E+03</pdfrwt>
<pdfrwt beam="2">  1       -4 0.11460742E-01 0.12500310E+03</pdfrwt>
<totfact> 0.10409852E+04</totfact>
</mgrwt>
</event>
<event>
 5    1  0.3259432E-002  0.1250007E+03  0.7818608E-02  0.1235068E+00
         -4   -1    0    0    0  501 -0.00000000000E+00  0.00000000000E+00  0.13174905540E+04  0.13174911661E+04  0.12700000000E+01 0. -1.
          4   -1    0    0  501    0  0.00000000000E+00 -0.00000000000E+00 -0.28283117899E+01  0.31003624919E+01  0.12700000000E+01 0. -1.
         25    2    1    2    0    0  0.00000000000E+00  0.00000000000E+00  0.13146622422E+04  0.13205915286E+04  0.12500069729E+03 0.  0.
    9000005    1    3    3    0    0  0.82891434664E+01 -0.11953004898E-01  0.13117086854E+04  0.13117352574E+04  0.10000000000E+01 0.  0.
    9000005    1    3    3    0    0 -0.82891434664E+01  0.11953004898E-01  0.29535567895E+01  0.88562712238E+01  0.10000000000E+01 0.  0.
<mgrwt>
<rscale>  0 0.12500070E+03</rscale>
<asrwt>0</asrwt>
<pdfrwt beam="2">  1        4 0.45609730E-03 0.12500070E+03</pdfrwt>
<pdfrwt beam="1">  1       -4 0.20271256E+00 0.12500070E+03</pdfrwt>
<totfact> 0.21747240E+03</totfact>
</mgrwt>
</event>
<event>
 5    1  0.3259432E-002  0.1250054E+03  0.7818608E-02  0.1235061E+00
         -4   -1    0    0    0  501 -0.00000000000E+00  0.00000000000E+00  0.43095006694E+01  0.44927381427E+01  0.12700000000E+01 0.  1.
          4   -1    0    0  501    0  0.00000000000E+00 -0.00000000000E+00 -0.88745069418E+03  0.88745160291E+03  0.12700000000E+01 0.  1.
         25    2    1    2    0    0  0.00000000000E+00  0.00000000000E+00 -0.88314119351E+03  0.89194434105E+03  0.12500535930E+03 0.  0.
    9000005    1    3    3    0    0  0.48169066074E+02 -0.11942087829E+02 -0.17055203866E+03  0.17762846134E+03  0.10000000000E+01 0.  0.
    9000005    1    3    3    0    0 -0.48169066074E+02  0.11942087829E+02 -0.71258915486E+03  0.71431587971E+03  0.10000000000E+01 0.  0.
<mgrwt>
<rscale>  0 0.12500536E+03</rscale>
<asrwt>0</asrwt>
<pdfrwt beam="2">  1        4 0.13654490E+00 0.12500536E+03</pdfrwt>
<pdfrwt beam="1">  1       -4 0.67716590E-03 0.12500536E+03</pdfrwt>
<totfact> 0.34465573E+03</totfact>
</mgrwt>
</event>
<event>
 5    1  0.3259432E-002  0.1249998E+03  0.7818608E-02  0.1235070E+00
          4   -1    0    0  501    0  0.00000000000E+00  0.00000000000E+00  0.81207140870E+02  0.81217071040E+02  0.12700000000E+01 0. -1.
         -4   -1    0    0    0  501 -0.00000000000E+00 -0.00000000000E+00 -0.48080883888E+02  0.48097653742E+02  0.12700000000E+01 0. -1.
         25    2    1    2    0    0  0.00000000000E+00  0.00000000000E+00  0.33126256981E+02  0.12931472478E+03  0.12499979657E+03 0.  0.
    9000005    1    3    3    0    0 -0.17964625921E+02 -0.50358766996E+02  0.50029539329E+02  0.73230376234E+02  0.10000000000E+01 0.  0.
    9000005    1    3    3    0    0  0.17964625921E+02  0.50358766996E+02 -0.16903282348E+02  0.56084348548E+02  0.10000000000E+01 0.  0.
<mgrwt>
<rscale>  0 0.12499980E+03</rscale>
<asrwt>0</asrwt>
<pdfrwt beam="1">  1        4 0.12495460E-01 0.12499980E+03</pdfrwt>
<pdfrwt beam="2">  1       -4 0.73991130E-02 0.12499980E+03</pdfrwt>
<totfact> 0.10359236E+04</totfact>
</mgrwt>
</event>
<event>
 5    1  0.3259432E-002  0.1250007E+03  0.7818608E-02  0.1235068E+00
          4   -1    0    0  501    0  0.00000000000E+00  0.00000000000E+00  0.20839203602E+02  0.20877866432E+02  0.12700000000E+01 0.  1.
         -4   -1    0    0    0  501 -0.00000000000E+00 -0.00000000000E+00 -0.18723467792E+03  0.18723898504E+03  0.12700000000E+01 0.  1.
         25    2    1    2    0    0  0.00000000000E+00  0.00000000000E+00 -0.16639547432E+03  0.20811685147E+03  0.12500067996E+03 0.  0.
    9000005    1    3    3    0    0  0.42558771637E+02  0.39017285162E+02 -0.12300634917E+03  0.13588656858E+03  0.10000000000E+01 0.  0.
    9000005    1    3    3    0    0 -0.42558771637E+02 -0.39017285162E+02 -0.43389125157E+02  0.72230282892E+02  0.10000000000E+01 0.  0.
<mgrwt>
<rscale>  0 0.12500068E+03</rscale>
<asrwt>0</asrwt>
<pdfrwt beam="1">  1        4 0.32093368E-02 0.12500068E+03</pdfrwt>
<pdfrwt beam="2">  1       -4 0.28808639E-01 0.12500068E+03</pdfrwt>
<totfact> 0.88783001E+03</totfact>
</mgrwt>
</event>
<event>
 5    1  0.3259432E-002  0.1249986E+03  0.7818608E-02  0.1235071E+00
          4   -1    0    0  501    0  0.00000000000E+00  0.00000000000E+00  0.18184311927E+03  0.18184755408E+03  0.12700000000E+01 0. -1.
         -4   -1    0    0    0  501 -0.00000000000E+00 -0.00000000000E+00 -0.21457489730E+02  0.21495040486E+02  0.12700000000E+01 0. -1.
         25    2    1    2    0    0  0.00000000000E+00  0.00000000000E+00  0.16038562954E+03  0.20334259457E+03  0.12499864240E+03 0.  0.
    9000005    1    3    3    0    0 -0.41993648036E+02 -0.42814263591E+02  0.10877184032E+03  0.12421288536E+03  0.10000000000E+01 0.  0.
    9000005    1    3    3    0    0  0.41993648036E+02  0.42814263591E+02  0.51613789220E+02  0.79129709211E+02  0.10000000000E+01 0.  0.
<mgrwt>
<rscale>  0 0.12499864E+03</rscale>
<asrwt>0</asrwt>
<pdfrwt beam="1">  1        4 0.27979093E-01 0.12499864E+03</pdfrwt>
<pdfrwt beam="2">  1       -4 0.33043820E-02 0.12499864E+03</pdfrwt>
<totfact> 0.89577517E+03</totfact>
</mgrwt>
</event>
<event>
 5    1  0.3259432E-002  0.1250016E+03  0.7818608E-02  0.1235067E+00
         -4   -1    0    0    0  501 -0.00000000000E+00  0.00000000000E+00  0.36255531538E+03  0.36255753973E+03  0.12700000000E+01 0. -1.
          4   -1    0    0  501    0  0.00000000000E+00 -0.00000000000E+00 -0.10734803292E+02  0.10809667050E+02  0.12700000000E+01 0. -1.
         25    2    1    2    0    0  0.00000000000E+00  0.00000000000E+00  0.35182051209E+03  0.37336720678E+03  0.12500159346E+03 0.  0.
    9000005    1    3    3    0    0 -0.40650784548E+02 -0.46824193145E+02  0.15270486349E+03  0.16481737373E+03  0.10000000000E+01 0.  0.
    9000005    1    3    3    0    0  0.40650784548E+02  0.46824193145E+02  0.19911564860E+03  0.20854983305E+03  0.10000000000E+01 0.  0.
<mgrwt>
<rscale>  0 0.12500159E+03</rscale>
<asrwt>0</asrwt>
<pdfrwt beam="2">  1        4 0.16574381E-02 0.12500159E+03</pdfrwt>
<pdfrwt beam="1">  1       -4 0.55783670E-01 0.12500159E+03</pdfrwt>
<totfact> 0.67225760E+03</totfact>
</mgrwt>
</event>
<event>
 5    1  0.3259432E-002  0.1249899E+03  0.7818608E-02  0.1235085E+00
          4   -1    0    0  501    0  0.00000000000E+00  0.00000000000E+00  0.10255691898E+03  0.10256478211E+03  0.12700000000E+01 0.  1.
         -4   -1    0    0    0  501 -0.00000000000E+00 -0.00000000000E+00 -0.38062565154E+02  0.38083746745E+02  0.12700000000E+01 0.  1.
         25    2    1    2    0    0  0.00000000000E+00  0.00000000000E+00  0.64494353822E+02  0.14064852886E+03  0.12498994758E+03 0.  0.
    9000005    1    3    3    0    0  0.33119361798E+02 -0.49572311866E+02  0.53308701071E+02  0.79982021977E+02  0.10000000000E+01 0.  0.
    9000005    1    3    3    0    0 -0.33119361798E+02  0.49572311866E+02  0.11185652751E+02  0.60666506881E+02  0.10000000000E+01 0.  0.
<mgrwt>
<rscale>  0 0.12498995E+03</rscale>
<asrwt>0</asrwt>
<pdfrwt beam="1">  1        4 0.15780222E-01 0.12498995E+03</pdfrwt>
<pdfrwt beam="2">  1       -4 0.58580135E-02 0.12498995E+03</pdfrwt>
<totfact> 0.10122455E+04</totfact>
</mgrwt>
</event>
<event>
 5    1  0.3259432E-002  0.1250006E+03  0.7818608E-02  0.1235068E+00
          4   -1    0    0  501    0  0.00000000000E+00  0.00000000000E+00  0.10103801182E+02  0.10183304882E+02  0.12700000000E+01 0. -1.
         -4   -1    0    0    0  501 -0.00000000000E+00 -0.00000000000E+00 -0.38502016060E+03  0.38502225516E+03  0.12700000000E+01 0. -1.
         25    2    1    2    0    0  0.00000000000E+00  0.00000000000E+00 -0.37491635941E+03  0.39520556004E+03  0.12500063251E+03 0.  0.
    9000005    1    3    3    0    0 -0.31413018989E+02  0.33102451392E+01 -0.35793868877E+03  0.35933110136E+03  0.10000000000E+01 0.  0.
    9000005    1    3    3    0    0  0.31413018989E+02 -0.33102451392E+01 -0.16977670640E+02  0.35874458675E+02  0.10000000000E+01 0.  0.
<mgrwt>
<rscale>  0 0.12500063E+03</rscale>
<asrwt>0</asrwt>
<pdfrwt beam="1">  1        4 0.15607080E-02 0.12500063E+03</pdfrwt>
<pdfrwt beam="2">  1       -4 0.59240136E-01 0.12500063E+03</pdfrwt>
<totfact> 0.65020874E+03</totfact>
</mgrwt>
</event>
<event>
 5    1  0.3259432E-002  0.1250007E+03  0.7818608E-02  0.1235068E+00
         -4   -1    0    0    0  501 -0.00000000000E+00  0.00000000000E+00  0.61316487752E+02  0.61329638596E+02  0.12700000000E+01 0.  1.
          4   -1    0    0  501    0  0.00000000000E+00 -0.00000000000E+00 -0.63680765125E+02  0.63693427815E+02  0.12700000000E+01 0.  1.
         25    2    1    2    0    0  0.00000000000E+00  0.00000000000E+00 -0.23642773723E+01  0.12502306641E+03  0.12500070931E+03 0.  0.
    9000005    1    3    3    0    0  0.10963985769E+02  0.56740184319E+02 -0.24969513159E+02  0.62961369806E+02  0.10000000000E+01 0.  0.
    9000005    1    3    3    0    0 -0.10963985769E+02 -0.56740184319E+02  0.22605235787E+02  0.62061696605E+02  0.10000000000E+01 0.  0.
<mgrwt>
<rscale>  0 0.12500071E+03</rscale>
<asrwt>0</asrwt>
<pdfrwt beam="2">  1        4 0.97990265E-02 0.12500071E+03</pdfrwt>
<pdfrwt beam="1">  1       -4 0.94352914E-02 0.12500071E+03</pdfrwt>
<totfact> 0.10452194E+04</totfact>
</mgrwt>
</event>
<event>
 5    1  0.3259432E-002  0.1249995E+03  0.7818608E-02  0.1235070E+00
          4   -1    0    0  501    0  0.00000000000E+00  0.00000000000E+00  0.30940439850E+03  0.30940700494E+03  0.12700000000E+01 0.  1.
         -4   -1    0    0    0  501 -0.00000000000E+00 -0.00000000000E+00 -0.12590364718E+02  0.12654255559E+02  0.12700000000E+01 0.  1.
         25    2    1    2    0    0  0.00000000000E+00  0.00000000000E+00  0.29681403378E+03  0.32206126050E+03  0.12499953948E+03 0.  0.
    9000005    1    3    3    0    0 -0.13174551295E+02 -0.51855421962E+01 -0.84161664695E+01  0.16501227461E+02  0.10000000000E+01 0.  0.
    9000005    1    3    3    0    0  0.13174551295E+02  0.51855421962E+01  0.30523020025E+03  0.30556003304E+03  0.10000000000E+01 0.  0.
<mgrwt>
<rscale>  0 0.12499954E+03</rscale>
<asrwt>0</asrwt>
<pdfrwt beam="1">  1        4 0.47605788E-01 0.12499954E+03</pdfrwt>
<pdfrwt beam="2">  1       -4 0.19420945E-02 0.12499954E+03</pdfrwt>
<totfact> 0.72912380E+03</totfact>
</mgrwt>
</event>
<event>
 5    1  0.3259432E-002  0.1250025E+03  0.7818608E-02  0.1235065E+00
          4   -1    0    0  501    0  0.00000000000E+00  0.00000000000E+00  0.21723808434E+04  0.21723812146E+04  0.12700000000E+01 0. -1.
         -4   -1    0    0    0  501 -0.00000000000E+00 -0.00000000000E+00 -0.15735597919E+01  0.20221252233E+01  0.12700000000E+01 0. -1.
         25    2    1    2    0    0  0.00000000000E+00  0.00000000000E+00  0.21708072836E+04  0.21744033398E+04  0.12500248715E+03 0.  0.
    9000005    1    3    3    0    0 -0.56357179479E+02 -0.27002132359E+02  0.10923314705E+04  0.10941180413E+04  0.10000000000E+01 0.  0.
    9000005    1    3    3    0    0  0.56357179479E+02  0.27002132359E+02  0.10784758130E+04  0.10802852985E+04  0.10000000000E+01 0.  0.
<mgrwt>
<rscale>  0 0.12500249E+03</rscale>
<asrwt>0</asrwt>
<pdfrwt beam="1">  1        4 0.33424680E+00 0.12500249E+03</pdfrwt>
<pdfrwt beam="2">  1       -4 0.27661985E-03 0.12500249E+03</pdfrwt>
<totfact> 0.77527712E+02</totfact>
</mgrwt>
</event>
<event>
 5    1  0.3259432E-002  0.1249996E+03  0.7818608E-02  0.1235070E+00
          4   -1    0    0  501    0  0.00000000000E+00  0.00000000000E+00  0.66936888223E+02  0.66948935055E+02  0.12700000000E+01 0.  1.
         -4   -1    0    0    0  501 -0.00000000000E+00 -0.00000000000E+00 -0.58332661712E+02  0.58346485090E+02  0.12700000000E+01 0.  1.
         25    2    1    2    0    0  0.00000000000E+00  0.00000000000E+00  0.86042265113E+01  0.12529542015E+03  0.12499963838E+03 0.  0.
    9000005    1    3    3    0    0  0.26514443772E+02 -0.51148651856E+02  0.28567391966E+02  0.64314043560E+02  0.10000000000E+01 0.  0.
    9000005    1    3    3    0    0 -0.26514443772E+02  0.51148651856E+02 -0.19963165455E+02  0.60981376585E+02  0.10000000000E+01 0.  0.
<mgrwt>
<rscale>  0 0.12499964E+03</rscale>
<asrwt>0</asrwt>
<pdfrwt beam="1">  1        4 0.10299973E-01 0.12499964E+03</pdfrwt>
<pdfrwt beam="2">  1       -4 0.89762457E-02 0.12499964E+03</pdfrwt>
<totfact> 0.10446535E+04</totfact>
</mgrwt>
</event>
<event>
 5    1  0.3259432E-002  0.1249979E+03  0.7818608E-02  0.1235073E+00
         -4   -1    0    0    0  501 -0.00000000000E+00  0.00000000000E+00  0.13549713728E+03  0.13550308893E+03  0.12700000000E+01 0.  1.
          4   -1    0    0  501    0  0.00000000000E+00 -0.00000000000E+00 -0.28807462882E+02  0.28835443775E+02  0.12700000000E+01 0.  1.
         25    2    1    2    0    0  0.00000000000E+00  0.00000000000E+00  0.10668967440E+03  0.16433853271E+03  0.12499786682E+03 0.  0.
    9000005    1    3    3    0    0  0.40424750584E+02 -0.34227756092E+02  0.97517110855E+01  0.53868317367E+02  0.10000000000E+01 0.  0.
    9000005    1    3    3    0    0 -0.40424750584E+02  0.34227756092E+02  0.96937963311E+02  0.11047021534E+03  0.10000000000E+01 0.  0.
<mgrwt>
<rscale>  0 0.12499787E+03</rscale>
<asrwt>0</asrwt>
<pdfrwt beam="2">  1        4 0.44345277E-02 0.12499787E+03</pdfrwt>
<pdfrwt beam="1">  1       -4 0.20848323E-01 0.12499787E+03</pdfrwt>
<totfact> 0.96517436E+03</totfact>
</mgrwt>
</event>
<event>
 5    1  0.3259432E-002  0.1250016E+03  0.7818608E-02  0.1235067E+00
          4   -1    0    0  501    0  0.00000000000E+00  0.00000000000E+00  0.26798888181E+03  0.26799189106E+03  0.12700000000E+01 0. -1.
         -4   -1    0    0    0  501 -0.00000000000E+00 -0.00000000000E+00 -0.14545773319E+02  0.14601110281E+02  0.12700000000E+01 0. -1.
         25    2    1    2    0    0  0.00000000000E+00  0.00000000000E+00  0.25344310849E+03  0.28259300134E+03  0.12500158065E+03 0.  0.
    9000005    1    3    3    0    0 -0.35540450684E+02  0.50106619414E+02  0.10079204049E+03  0.11804165523E+03  0.10000000000E+01 0.  0.
    9000005    1    3    3    0    0  0.35540450684E+02 -0.50106619414E+02  0.15265106800E+03  0.16455134611E+03  0.10000000000E+01 0.  0.
<mgrwt>
<rscale>  0 0.12500158E+03</rscale>
<asrwt>0</asrwt>
<pdfrwt beam="1">  1        4 0.41233545E-01 0.12500158E+03</pdfrwt>
<pdfrwt beam="2">  1       -4 0.22422996E-02 0.12500158E+03</pdfrwt>
<totfact> 0.77832810E+03</totfact>
</mgrwt>
</event>
<event>
 5    1  0.3259432E-002  0.1249982E+03  0.7818608E-02  0.1235072E+00
          4   -1    0    0  501    0  0.00000000000E+00  0.00000000000E+00  0.34557870293E+02  0.34581198637E+02  0.12700000000E+01 0. -1.
         -4   -1    0    0    0  501 -0.00000000000E+00 -0.00000000000E+00 -0.11296677048E+03  0.11297390908E+03  0.12700000000E+01 0. -1.
         25    2    1    2    0    0  0.00000000000E+00  0.00000000000E+00 -0.78408900191E+02  0.14755510772E+03  0.12499821673E+03 0.  0.
    9000005    1    3    3    0    0  0.20236905336E+02 -0.23049656882E+02 -0.10347513642E+03  0.10793017594E+03  0.10000000000E+01 0.  0.
    9000005    1    3    3    0    0 -0.20236905336E+02  0.23049656882E+02  0.25066236232E+02  0.39624931783E+02  0.10000000000E+01 0.  0.
<mgrwt>
<rscale>  0 0.12499822E+03</rscale>
<asrwt>0</asrwt>
<pdfrwt beam="1">  1        4 0.53189391E-02 0.12499822E+03</pdfrwt>
<pdfrwt beam="2">  1       -4 0.17381847E-01 0.12499822E+03</pdfrwt>
<totfact> 0.99797308E+03</totfact>
</mgrwt>
</event>
<event>
 5    1  0.3259432E-002  0.1250011E+03  0.7818608E-02  0.1235068E+00
         -4   -1    0    0    0  501 -0.00000000000E+00  0.00000000000E+00  0.13580817820E+03  0.13581411622E+03  0.12700000000E+01 0.  1.
          4   -1    0    0  501    0  0.00000000000E+00 -0.00000000000E+00 -0.28742929506E+02  0.28770973160E+02  0.12700000000E+01 0.  1.
         25    2    1    2    0    0  0.00000000000E+00  0.00000000000E+00  0.10706524869E+03  0.16458508938E+03  0.12500113667E+03 0.  0.
    9000005    1    3    3    0    0 -0.35814658508E+02  0.50279043385E+02  0.40723049613E+02  0.73959710231E+02  0.10000000000E+01 0.  0.
    9000005    1    3    3    0    0  0.35814658508E+02 -0.50279043385E+02  0.66342199079E+02  0.90625379151E+02  0.10000000000E+01 0.  0.
<mgrwt>
<rscale>  0 0.12500114E+03</rscale>
<asrwt>0</asrwt>
<pdfrwt beam="2">  1        4 0.44246031E-02 0.12500114E+03</pdfrwt>
<pdfrwt beam="1">  1       -4 0.20896180E-01 0.12500114E+03</pdfrwt>
<totfact> 0.96463564E+03</totfact>
</mgrwt>
</event>
<event>
 5    1  0.3259432E-002  0.1249981E+03  0.7818608E-02  0.1235072E+00
         -4   -1    0    0    0  501 -0.00000000000E+00  0.00000000000E+00  0.17459212065E+02  0.17505341640E+02  0.12700000000E+01 0.  1.
          4   -1    0    0  501    0  0.00000000000E+00 -0.00000000000E+00 -0.22338586117E+03  0.22338947126E+03  0.12700000000E+01 0.  1.
         25    2    1    2    0    0  0.00000000000E+00  0.00000000000E+00 -0.20592664910E+03  0.24089481290E+03  0.12499810427E+03 0.  0.
    9000005    1    3    3    0    0 -0.59990909278E+02 -0.39942098882E+01 -0.70129304569E+02  0.92379555465E+02  0.10000000000E+01 0.  0.
    9000005    1    3    3    0    0  0.59990909278E+02  0.39942098882E+01 -0.13579734454E+03  0.14851525744E+03  0.10000000000E+01 0.  0.
<mgrwt>
<rscale>  0 0.12499810E+03</rscale>
<asrwt>0</asrwt>
<pdfrwt beam="2">  1        4 0.34370880E-01 0.12499810E+03</pdfrwt>
<pdfrwt beam="1">  1       -4 0.26898589E-02 0.12499810E+03</pdfrwt>
<totfact> 0.83667818E+03</totfact>
</mgrwt>
</event>
<event>
 5    1  0.3259432E-002  0.1250093E+03  0.7818608E-02  0.1235055E+00
          4   -1    0    0  501    0  0.00000000000E+00  0.00000000000E+00  0.33778971740E+02  0.33802837630E+02  0.12700000000E+01 0.  1.
         -4   -1    0    0    0  501 -0.00000000000E+00 -0.00000000000E+00 -0.11559046806E+03  0.11559744463E+03  0.12700000000E+01 0.  1.
         25    2    1    2    0    0  0.00000000000E+00  0.00000000000E+00 -0.81811496318E+02  0.14940028226E+03  0.12500929330E+03 0.  0.
    9000005    1    3    3    0    0 -0.53430079390E+02  0.12921633306E+02 -0.53706861579E+01  0.55241164549E+02  0.10000000000E+01 0.  0.
    9000005    1    3    3    0    0  0.53430079390E+02 -0.12921633306E+02 -0.76440810160E+02  0.94159117715E+02  0.10000000000E+01 0.  0.
<mgrwt>
<rscale>  0 0.12500929E+03</rscale>
<asrwt>0</asrwt>
<pdfrwt beam="1">  1        4 0.51991374E-02 0.12500929E+03</pdfrwt>
<pdfrwt beam="2">  1       -4 0.17785521E-01 0.12500929E+03</pdfrwt>
<totfact> 0.99402584E+03</totfact>
</mgrwt>
</event>
<event>
 5    1  0.3259432E-002  0.1250002E+03  0.7818608E-02  0.1235069E+00
         -4   -1    0    0    0  501 -0.00000000000E+00  0.00000000000E+00  0.21655125244E+02  0.21692333884E+02  0.12700000000E+01 0. -1.
          4   -1    0    0  501    0  0.00000000000E+00 -0.00000000000E+00 -0.18019080422E+03  0.18019527970E+03  0.12700000000E+01 0. -1.
         25    2    1    2    0    0  0.00000000000E+00  0.00000000000E+00 -0.15853567897E+03  0.20188761358E+03  0.12500018804E+03 0.  0.
    9000005    1    3    3    0    0  0.45188991254E+02 -0.26850385751E+02 -0.13385419247E+03  0.14380866798E+03  0.10000000000E+01 0.  0.
    9000005    1    3    3    0    0 -0.45188991254E+02  0.26850385751E+02 -0.24681486506E+02  0.58078945597E+02  0.10000000000E+01 0.  0.
<mgrwt>
<rscale>  0 0.12500019E+03</rscale>
<asrwt>0</asrwt>
<pdfrwt beam="2">  1        4 0.27724868E-01 0.12500019E+03</pdfrwt>
<pdfrwt beam="1">  1       -4 0.33347643E-02 0.12500019E+03</pdfrwt>
<totfact> 0.89817741E+03</totfact>
</mgrwt>
</event>
<event>
 5    1  0.3259432E-002  0.1250006E+03  0.7818608E-02  0.1235068E+00
          4   -1    0    0  501    0  0.00000000000E+00  0.00000000000E+00  0.30939578289E+02  0.30965632638E+02  0.12700000000E+01 0.  1.
         -4   -1    0    0    0  501 -0.00000000000E+00 -0.00000000000E+00 -0.12617293008E+03  0.12617932154E+03  0.12700000000E+01 0.  1.
         25    2    1    2    0    0  0.00000000000E+00  0.00000000000E+00 -0.95233351792E+02  0.15714495418E+03  0.12500058132E+03 0.  0.
    9000005    1    3    3    0    0  0.55366575710E+02 -0.49312379205E+01 -0.11715931146E+02  0.56815823992E+02  0.10000000000E+01 0.  0.
    9000005    1    3    3    0    0 -0.55366575710E+02  0.49312379205E+01 -0.83517420647E+02  0.10032913019E+03  0.10000000000E+01 0.  0.
<mgrwt>
<rscale>  0 0.12500058E+03</rscale>
<asrwt>0</asrwt>
<pdfrwt beam="1">  1        4 0.47624310E-02 0.12500058E+03</pdfrwt>
<pdfrwt beam="2">  1       -4 0.19413716E-01 0.12500058E+03</pdfrwt>
<totfact> 0.97894776E+03</totfact>
</mgrwt>
</event>
<event>
 5    1  0.3259432E-002  0.1249997E+03  0.7818608E-02  0.1235070E+00
          4   -1    0    0  501    0  0.00000000000E+00  0.00000000000E+00  0.12232761686E+03  0.12233420922E+03  0.12700000000E+01 0. -1.
         -4   -1    0    0    0  501 -0.00000000000E+00 -0.00000000000E+00 -0.31912472673E+02  0.31937733359E+02  0.12700000000E+01 0. -1.
         25    2    1    2    0    0  0.00000000000E+00  0.00000000000E+00  0.90415144183E+02  0.15427194258E+03  0.12499973588E+03 0.  0.
    9000005    1    3    3    0    0 -0.62710303330E+01  0.42600425735E+02  0.10110250984E+03  0.10989467499E+03  0.10000000000E+01 0.  0.
    9000005    1    3    3    0    0  0.62710303330E+01 -0.42600425735E+02 -0.10687365659E+02  0.44377267593E+02  0.10000000000E+01 0.  0.
<mgrwt>
<rscale>  0 0.12499974E+03</rscale>
<asrwt>0</asrwt>
<pdfrwt beam="1">  1        4 0.18822083E-01 0.12499974E+03</pdfrwt>
<pdfrwt beam="2">  1       -4 0.49120615E-02 0.12499974E+03</pdfrwt>
<totfact> 0.98459201E+03</totfact>
</mgrwt>
</event>
<event>
 5    1  0.3259432E-002  0.1249998E+03  0.7818608E-02  0.1235070E+00
         -4   -1    0    0    0  501 -0.00000000000E+00  0.00000000000E+00  0.16553719145E+03  0.16554206309E+03  0.12700000000E+01 0. -1.
          4   -1    0    0  501    0  0.00000000000E+00 -0.00000000000E+00 -0.23575034328E+02  0.23609217343E+02  0.12700000000E+01 0. -1.
         25    2    1    2    0    0  0.00000000000E+00  0.00000000000E+00  0.14196215712E+03  0.18915128044E+03  0.12499981134E+03 0.  0.
    9000005    1    3    3    0    0 -0.54020967147E+02  0.30432377917E+02  0.59177662751E+02  0.85716919484E+02  0.10000000000E+01 0.  0.
    9000005    1    3    3    0    0  0.54020967147E+02 -0.30432377917E+02  0.82784494372E+02  0.10343436095E+03  0.10000000000E+01 0.  0.
<mgrwt>
<rscale>  0 0.12499981E+03</rscale>
<asrwt>0</asrwt>
<pdfrwt beam="2">  1        4 0.36299326E-02 0.12499981E+03</pdfrwt>
<pdfrwt beam="1">  1       -4 0.25470264E-01 0.12499981E+03</pdfrwt>
<totfact> 0.91995587E+03</totfact>
</mgrwt>
</event>
<event>
 5    1  0.3259432E-002  0.1249984E+03  0.7818608E-02  0.1235072E+00
         -4   -1    0    0    0  501 -0.00000000000E+00  0.00000000000E+00  0.79724224080E+01  0.80729436423E+01  0.12700000000E+01 0. -1.
          4   -1    0    0  501    0  0.00000000000E+00 -0.00000000000E+00 -0.48678661031E+03  0.48678826699E+03  0.12700000000E+01 0. -1.
         25    2    1    2    0    0  0.00000000000E+00  0.00000000000E+00 -0.47881418790E+03  0.49486121063E+03  0.12499836499E+03 0.  0.
    9000005    1    3    3    0    0  0.11714895342E+02 -0.96855770466E+01 -0.47937573197E+03  0.47961770357E+03  0.10000000000E+01 0.  0.
    9000005    1    3    3    0    0 -0.11714895342E+02  0.96855770466E+01  0.56154407298E+00  0.15243507056E+02  0.10000000000E+01 0.  0.
<mgrwt>
<rscale>  0 0.12499836E+03</rscale>
<asrwt>0</asrwt>
<pdfrwt beam="2">  1        4 0.74898085E-01 0.12499836E+03</pdfrwt>
<pdfrwt beam="1">  1       -4 0.12343867E-02 0.12499836E+03</pdfrwt>
<totfact> 0.56267322E+03</totfact>
</mgrwt>
</event>
<event>
 5    1  0.3259432E-002  0.1250069E+03  0.7818608E-02  0.1235059E+00
         -4   -1    0    0    0  501 -0.00000000000E+00  0.00000000000E+00  0.29402286158E+02  0.29429701516E+02  0.12700000000E+01 0. -1.
          4   -1    0    0  501    0  0.00000000000E+00 -0.00000000000E+00 -0.13277758766E+03  0.13278366121E+03  0.12700000000E+01 0. -1.
         25    2    1    2    0    0  0.00000000000E+00  0.00000000000E+00 -0.10337530150E+03  0.16221336273E+03  0.12500688816E+03 0.  0.
    9000005    1    3    3    0    0 -0.34632774186E+02 -0.45102641884E+02 -0.85326284135E+02  0.10254390336E+03  0.10000000000E+01 0.  0.
    9000005    1    3    3    0    0  0.34632774186E+02  0.45102641884E+02 -0.18049017365E+02  0.59669459362E+02  0.10000000000E+01 0.  0.
<mgrwt>
<rscale>  0 0.12500689E+03</rscale>
<asrwt>0</asrwt>
<pdfrwt beam="2">  1        4 0.20429897E-01 0.12500689E+03</pdfrwt>
<pdfrwt beam="1">  1       -4 0.45260048E-02 0.12500689E+03</pdfrwt>
<totfact> 0.96902755E+03</totfact>
</mgrwt>
</event>
<event>
 5    1  0.3259432E-002  0.1249969E+03  0.7818608E-02  0.1235074E+00
          4   -1    0    0  501    0  0.00000000000E+00  0.00000000000E+00  0.80947210241E+03  0.80947309867E+03  0.12700000000E+01 0.  1.
         -4   -1    0    0    0  501 -0.00000000000E+00 -0.00000000000E+00 -0.47408593787E+01  0.49080187090E+01  0.12700000000E+01 0.  1.
         25    2    1    2    0    0  0.00000000000E+00  0.00000000000E+00  0.80473124303E+03  0.81438111738E+03  0.12499692333E+03 0.  0.
    9000005    1    3    3    0    0  0.21731037471E+02  0.56609376036E+02  0.30394535385E+03  0.30993650571E+03  0.10000000000E+01 0.  0.
    9000005    1    3    3    0    0 -0.21731037471E+02 -0.56609376036E+02  0.50078588918E+03  0.50444461167E+03  0.10000000000E+01 0.  0.
<mgrwt>
<rscale>  0 0.12499692E+03</rscale>
<asrwt>0</asrwt>
<pdfrwt beam="1">  1        4 0.12454709E+00 0.12499692E+03</pdfrwt>
<pdfrwt beam="2">  1       -4 0.74229810E-03 0.12499692E+03</pdfrwt>
<totfact> 0.37633257E+03</totfact>
</mgrwt>
</event>
<event>
 5    1  0.3259432E-002  0.1250015E+03  0.7818608E-02  0.1235067E+00
         -4   -1    0    0    0  501 -0.00000000000E+00  0.00000000000E+00  0.21868923434E+03  0.21869292196E+03  0.12700000000E+01 0.  1.
          4   -1    0    0  501    0  0.00000000000E+00 -0.00000000000E+00 -0.17836130081E+02  0.17881287321E+02  0.12700000000E+01 0.  1.
         25    2    1    2    0    0  0.00000000000E+00  0.00000000000E+00  0.20085310426E+03  0.23657420928E+03  0.12500154802E+03 0.  0.
    9000005    1    3    3    0    0 -0.56881842995E+02 -0.24233765711E+02  0.83233586518E+02  0.10369016052E+03  0.10000000000E+01 0.  0.
    9000005    1    3    3    0    0  0.56881842995E+02  0.24233765711E+02  0.11761951774E+03  0.13288404877E+03  0.10000000000E+01 0.  0.
<mgrwt>
<rscale>  0 0.12500155E+03</rscale>
<asrwt>0</asrwt>
<pdfrwt beam="2">  1        4 0.27477772E-02 0.12500155E+03</pdfrwt>
<pdfrwt beam="1">  1       -4 0.33648256E-01 0.12500155E+03</pdfrwt>
<totfact> 0.84307325E+03</totfact>
</mgrwt>
</event>
<event>
 4    1  0.3259432E-002  0.1249363E+03  0.7818608E-02  0.1235169E+00
          4   -1    0    0  501    0  0.00000000000E+00  0.00000000000E+00  0.24352938902E+02  0.24386031517E+02  0.12700000000E+01 0.  1.
         -4   -1    0    0    0  501 -0.00000000000E+00 -0.00000000000E+00 -0.16009362025E+03  0.16009865754E+03  0.12700000000E+01 0.  1.
    9000005    1    1    2    0    0  0.37945706933E+02  0.12520752859E+02  0.30174768925E+01  0.40084299839E+02  0.10000000000E+01 0.  0.
    9000005    1    1    2    0    0 -0.37945706933E+02 -0.12520752859E+02 -0.13875815825E+03  0.14440038922E+03  0.10000000000E+01 0.  0.
<mgrwt>
<rscale>  0 0.12493626E+03</rscale>
<asrwt>0</asrwt>
<pdfrwt beam="1">  1        4 0.37495392E-02 0.12493626E+03</pdfrwt>
<pdfrwt beam="2">  1       -4 0.24632720E-01 0.12493626E+03</pdfrwt>
<totfact> 0.92948642E+03</totfact>
</mgrwt>
</event>
<event>
 5    1  0.3259432E-002  0.1249984E+03  0.7818608E-02  0.1235072E+00
          4   -1    0    0  501    0  0.00000000000E+00  0.00000000000E+00  0.15144164621E+02  0.15197322859E+02  0.12700000000E+01 0. -1.
         -4   -1    0    0    0  501 -0.00000000000E+00 -0.00000000000E+00 -0.25742437704E+03  0.25742750978E+03  0.12700000000E+01 0. -1.
         25    2    1    2    0    0  0.00000000000E+00  0.00000000000E+00 -0.24228021242E+03  0.27262483264E+03  0.12499839217E+03 0.  0.
    9000005    1    3    3    0    0  0.38686415769E+02  0.48837775811E+02 -0.13168653750E+03  0.14568497269E+03  0.10000000000E+01 0.  0.
    9000005    1    3    3    0    0 -0.38686415769E+02 -0.48837775811E+02 -0.11059367492E+03  0.12693985995E+03  0.10000000000E+01 0.  0.
<mgrwt>
<rscale>  0 0.12499839E+03</rscale>
<asrwt>0</asrwt>
<pdfrwt beam="1">  1        4 0.23342017E-02 0.12499839E+03</pdfrwt>
<pdfrwt beam="2">  1       -4 0.39608077E-01 0.12499839E+03</pdfrwt>
<totfact> 0.79169105E+03</totfact>
</mgrwt>
</event>
<event>
 5    1  0.3259432E-002  0.1250021E+03  0.7818608E-02  0.1235066E+00
          4   -1    0    0  501    0  0.00000000000E+00  0.00000000000E+00  0.53153483402E+03  0.53153635123E+03  0.12700000000E+01 0. -1.
         -4   -1    0    0    0  501 -0.00000000000E+00 -0.00000000000E+00 -0.72928425407E+01  0.74025976741E+01  0.12700000000E+01 0. -1.
         25    2    1    2    0    0  0.00000000000E+00  0.00000000000E+00  0.52424199148E+03  0.53893894890E+03  0.12500210004E+03 0.  0.
    9000005    1    3    3    0    0  0.17796810471E+02  0.57134191364E+02  0.18447450601E+03  0.19394041779E+03  0.10000000000E+01 0.  0.
    9000005    1    3    3    0    0 -0.17796810471E+02 -0.57134191364E+02  0.33976748547E+03  0.34499853111E+03  0.10000000000E+01 0.  0.
<mgrwt>
<rscale>  0 0.12500210E+03</rscale>
<asrwt>0</asrwt>
<pdfrwt beam="1">  1        4 0.81783135E-01 0.12500210E+03</pdfrwt>
<pdfrwt beam="2">  1       -4 0.11305354E-02 0.12500210E+03</pdfrwt>
<totfact> 0.52962448E+03</totfact>
</mgrwt>
</event>
<event>
 5    1  0.3259432E-002  0.1250016E+03  0.7818608E-02  0.1235067E+00
         -4   -1    0    0    0  501 -0.00000000000E+00  0.00000000000E+00  0.98499602991E+01  0.99314962566E+01  0.12700000000E+01 0. -1.
          4   -1    0    0  501    0  0.00000000000E+00 -0.00000000000E+00 -0.39486813758E+03  0.39487017990E+03  0.12700000000E+01 0. -1.
         25    2    1    2    0    0  0.00000000000E+00  0.00000000000E+00 -0.38501817728E+03  0.40480167616E+03  0.12500160073E+03 0.  0.
    9000005    1    3    3    0    0 -0.38024453807E+02  0.12013958255E+02 -0.36691372075E+02  0.54198257029E+02  0.10000000000E+01 0.  0.
    9000005    1    3    3    0    0  0.38024453807E+02 -0.12013958255E+02 -0.34832680520E+03  0.35060341913E+03  0.10000000000E+01 0.  0.
<mgrwt>
<rscale>  0 0.12500160E+03</rscale>
<asrwt>0</asrwt>
<pdfrwt beam="2">  1        4 0.60755361E-01 0.12500160E+03</pdfrwt>
<pdfrwt beam="1">  1       -4 0.15218079E-02 0.12500160E+03</pdfrwt>
<totfact> 0.64086189E+03</totfact>
</mgrwt>
</event>
<event>
 5    1  0.3259432E-002  0.1249957E+03  0.7818608E-02  0.1235076E+00
         -4   -1    0    0    0  501 -0.00000000000E+00  0.00000000000E+00  0.43670014597E+02  0.43688477599E+02  0.12700000000E+01 0.  1.
          4   -1    0    0  501    0  0.00000000000E+00 -0.00000000000E+00 -0.89401152943E+02  0.89410173065E+02  0.12700000000E+01 0.  1.
         25    2    1    2    0    0  0.00000000000E+00  0.00000000000E+00 -0.45731138346E+02  0.13309865066E+03  0.12499565510E+03 0.  0.
    9000005    1    3    3    0    0  0.34361504934E+02  0.47617846212E+02 -0.45624125344E+02  0.74368898826E+02  0.10000000000E+01 0.  0.
    9000005    1    3    3    0    0 -0.34361504934E+02 -0.47617846212E+02 -0.10701300206E+00  0.58729751838E+02  0.10000000000E+01 0.  0.
<mgrwt>
<rscale>  0 0.12499566E+03</rscale>
<asrwt>0</asrwt>
<pdfrwt beam="2">  1        4 0.13756138E-01 0.12499566E+03</pdfrwt>
<pdfrwt beam="1">  1       -4 0.67205779E-02 0.12499566E+03</pdfrwt>
<totfact> 0.10279311E+04</totfact>
</mgrwt>
</event>
<event>
 5    1  0.3259432E-002  0.1250068E+03  0.7818608E-02  0.1235059E+00
          4   -1    0    0  501    0  0.00000000000E+00  0.00000000000E+00  0.66277902991E+03  0.66278024668E+03  0.12700000000E+01 0.  1.
         -4   -1    0    0    0  501 -0.00000000000E+00 -0.00000000000E+00 -0.58247396790E+01  0.59615847161E+01  0.12700000000E+01 0.  1.
         25    2    1    2    0    0  0.00000000000E+00  0.00000000000E+00  0.65695429023E+03  0.66874183139E+03  0.12500679024E+03 0.  0.
    9000005    1    3    3    0    0 -0.20353574540E+02 -0.30162841837E+02  0.60029009954E+03  0.60139277400E+03  0.10000000000E+01 0.  0.
    9000005    1    3    3    0    0  0.20353574540E+02  0.30162841837E+02  0.56664190692E+02  0.67349057387E+02  0.10000000000E+01 0.  0.
<mgrwt>
<rscale>  0 0.12500679E+03</rscale>
<asrwt>0</asrwt>
<pdfrwt beam="1">  1        4 0.10197663E+00 0.12500679E+03</pdfrwt>
<pdfrwt beam="2">  1       -4 0.90673390E-03 0.12500679E+03</pdfrwt>
<totfact> 0.44782244E+03</totfact>
</mgrwt>
</event>
<event>
 5    1  0.3259432E-002  0.1250003E+03  0.7818608E-02  0.1235069E+00
          4   -1    0    0  501    0  0.00000000000E+00  0.00000000000E+00  0.53421936615E+02  0.53437030341E+02  0.12700000000E+01 0. -1.
         -4   -1    0    0    0  501 -0.00000000000E+00 -0.00000000000E+00 -0.73090139286E+02  0.73101172089E+02  0.12700000000E+01 0. -1.
         25    2    1    2    0    0  0.00000000000E+00  0.00000000000E+00 -0.19668202671E+02  0.12653820243E+03  0.12500031391E+03 0.  0.
    9000005    1    3    3    0    0 -0.59476577010E+02  0.19173991141E+02 -0.94235622843E+01  0.63205289930E+02  0.10000000000E+01 0.  0.
    9000005    1    3    3    0    0  0.59476577010E+02 -0.19173991141E+02 -0.10244640387E+02  0.63332912500E+02  0.10000000000E+01 0.  0.
<mgrwt>
<rscale>  0 0.12500031E+03</rscale>
<asrwt>0</asrwt>
<pdfrwt beam="1">  1        4 0.82207692E-02 0.12500031E+03</pdfrwt>
<pdfrwt beam="2">  1       -4 0.11246647E-01 0.12500031E+03</pdfrwt>
<totfact> 0.10419121E+04</totfact>
</mgrwt>
</event>
<event>
 5    1  0.3259432E-002  0.1249968E+03  0.7818608E-02  0.1235074E+00
         -4   -1    0    0    0  501 -0.00000000000E+00  0.00000000000E+00  0.38424213041E+02  0.38445195381E+02  0.12700000000E+01 0.  1.
          4   -1    0    0  501    0  0.00000000000E+00 -0.00000000000E+00 -0.10160333088E+03  0.10161126781E+03  0.12700000000E+01 0.  1.
         25    2    1    2    0    0  0.00000000000E+00  0.00000000000E+00 -0.63179117840E+02  0.14005646319E+03  0.12499684776E+03 0.  0.
    9000005    1    3    3    0    0  0.46106341769E+02 -0.37330901949E+02 -0.95852609904E+01  0.60102148213E+02  0.10000000000E+01 0.  0.
    9000005    1    3    3    0    0 -0.46106341769E+02  0.37330901949E+02 -0.53593856849E+02  0.79954314978E+02  0.10000000000E+01 0.  0.
<mgrwt>
<rscale>  0 0.12499685E+03</rscale>
<asrwt>0</asrwt>
<pdfrwt beam="2">  1        4 0.15633506E-01 0.12499685E+03</pdfrwt>
<pdfrwt beam="1">  1       -4 0.59136420E-02 0.12499685E+03</pdfrwt>
<totfact> 0.10133135E+04</totfact>
</mgrwt>
</event>
<event>
 5    1  0.3259432E-002  0.1250010E+03  0.7818608E-02  0.1235068E+00
          4   -1    0    0  501    0  0.00000000000E+00  0.00000000000E+00  0.36515105042E+02  0.36537183748E+02  0.12700000000E+01 0. -1.
         -4   -1    0    0    0  501 -0.00000000000E+00 -0.00000000000E+00 -0.10691983010E+03  0.10692737240E+03  0.12700000000E+01 0. -1.
         25    2    1    2    0    0  0.00000000000E+00  0.00000000000E+00 -0.70404725056E+02  0.14346455615E+03  0.12500101424E+03 0.  0.
    9000005    1    3    3    0    0  0.48624467316E+02 -0.38960638619E+02 -0.40711740131E+02  0.74435985706E+02  0.10000000000E+01 0.  0.
    9000005    1    3    3    0    0 -0.48624467316E+02  0.38960638619E+02 -0.29692984925E+02  0.69028570441E+02  0.10000000000E+01 0.  0.
<mgrwt>
<rscale>  0 0.12500101E+03</rscale>
<asrwt>0</asrwt>
<pdfrwt beam="1">  1        4 0.56199871E-02 0.12500101E+03</pdfrwt>
<pdfrwt beam="2">  1       -4 0.16451483E-01 0.12500101E+03</pdfrwt>
<totfact> 0.10062049E+04</totfact>
</mgrwt>
</event>
<event>
 5    1  0.3259432E-002  0.1249987E+03  0.7818608E-02  0.1235071E+00
          4   -1    0    0  501    0  0.00000000000E+00  0.00000000000E+00  0.18961913325E+03  0.18962338621E+03  0.12700000000E+01 0. -1.
         -4   -1    0    0    0  501 -0.00000000000E+00 -0.00000000000E+00 -0.20576029353E+02  0.20615185760E+02  0.12700000000E+01 0. -1.
         25    2    1    2    0    0  0.00000000000E+00  0.00000000000E+00  0.16904310390E+03  0.21023857197E+03  0.12499874466E+03 0.  0.
    9000005    1    3    3    0    0  0.29835067033E+02 -0.10054313569E+02  0.17531361317E+03  0.17812097970E+03  0.10000000000E+01 0.  0.
    9000005    1    3    3    0    0 -0.29835067033E+02  0.10054313569E+02 -0.62705092728E+01  0.32117592263E+02  0.10000000000E+01 0.  0.
<mgrwt>
<rscale>  0 0.12499874E+03</rscale>
<asrwt>0</asrwt>
<pdfrwt beam="1">  1        4 0.29175515E-01 0.12499874E+03</pdfrwt>
<pdfrwt beam="2">  1       -4 0.31688820E-02 0.12499874E+03</pdfrwt>
<totfact> 0.88439414E+03</totfact>
</mgrwt>
</event>
<event>
 5    1  0.3259432E-002  0.1249897E+03  0.7818608E-02  0.1235085E+00
          4   -1    0    0  501    0  0.00000000000E+00  0.00000000000E+00  0.18699827606E+04  0.18699831919E+04  0.12700000000E+01 0.  1.
         -4   -1    0    0    0  501 -0.00000000000E+00 -0.00000000000E+00 -0.18950436982E+01  0.22812476012E+01  0.12700000000E+01 0.  1.
         25    2    1    2    0    0  0.00000000000E+00  0.00000000000E+00  0.18680877169E+04  0.18722644395E+04  0.12498965251E+03 0.  0.
    9000005    1    3    3    0    0 -0.26614926981E+02  0.54627527307E+02  0.11521888615E+04  0.11537905762E+04  0.10000000000E+01 0.  0.
    9000005    1    3    3    0    0  0.26614926981E+02 -0.54627527307E+02  0.71589885541E+03  0.71847386331E+03  0.10000000000E+01 0.  0.
<mgrwt>
<rscale>  0 0.12498965E+03</rscale>
<asrwt>0</asrwt>
<pdfrwt beam="1">  1        4 0.28771894E+00 0.12498965E+03</pdfrwt>
<pdfrwt beam="2">  1       -4 0.32128686E-03 0.12498965E+03</pdfrwt>
<totfact> 0.11624728E+03</totfact>
</mgrwt>
</event>
<event>
 5    1  0.3259432E-002  0.1249981E+03  0.7818608E-02  0.1235072E+00
         -4   -1    0    0    0  501 -0.00000000000E+00  0.00000000000E+00  0.27408863326E+02  0.27438270515E+02  0.12700000000E+01 0. -1.
          4   -1    0    0  501    0  0.00000000000E+00 -0.00000000000E+00 -0.14240471740E+03  0.14241038037E+03  0.12700000000E+01 0. -1.
         25    2    1    2    0    0  0.00000000000E+00  0.00000000000E+00 -0.11499585407E+03  0.16984865088E+03  0.12499807100E+03 0.  0.
    9000005    1    3    3    0    0  0.28542111603E+02  0.95294538514E+01 -0.13191889250E+03  0.13531096343E+03  0.10000000000E+01 0.  0.
    9000005    1    3    3    0    0 -0.28542111603E+02 -0.95294538514E+01  0.16923038426E+02  0.34537687459E+02  0.10000000000E+01 0.  0.
<mgrwt>
<rscale>  0 0.12499807E+03</rscale>
<asrwt>0</asrwt>
<pdfrwt beam="2">  1        4 0.21911115E-01 0.12499807E+03</pdfrwt>
<pdfrwt beam="1">  1       -4 0.42194460E-02 0.12499807E+03</pdfrwt>
<totfact> 0.95480988E+03</totfact>
</mgrwt>
</event>
<event>
 5    1  0.3259432E-002  0.1250016E+03  0.7818608E-02  0.1235067E+00
          4   -1    0    0  501    0  0.00000000000E+00  0.00000000000E+00  0.18315747022E+02  0.18359724644E+02  0.12700000000E+01 0. -1.
         -4   -1    0    0    0  501 -0.00000000000E+00 -0.00000000000E+00 -0.21297658073E+03  0.21298036727E+03  0.12700000000E+01 0. -1.
         25    2    1    2    0    0  0.00000000000E+00  0.00000000000E+00 -0.19466083371E+03  0.23134009191E+03  0.12500159177E+03 0.  0.
    9000005    1    3    3    0    0 -0.62579461787E+01  0.62164236405E+02 -0.99810149282E+02  0.11775661373E+03  0.10000000000E+01 0.  0.
    9000005    1    3    3    0    0  0.62579461787E+01 -0.62164236405E+02 -0.94850684430E+02  0.11358347818E+03  0.10000000000E+01 0.  0.
<mgrwt>
<rscale>  0 0.12500159E+03</rscale>
<asrwt>0</asrwt>
<pdfrwt beam="1">  1        4 0.28214816E-02 0.12500159E+03</pdfrwt>
<pdfrwt beam="2">  1       -4 0.32769300E-01 0.12500159E+03</pdfrwt>
<totfact> 0.85101227E+03</totfact>
</mgrwt>
</event>
<event>
 5    1  0.3259432E-002  0.1249998E+03  0.7818608E-02  0.1235070E+00
         -4   -1    0    0    0  501 -0.00000000000E+00  0.00000000000E+00  0.19564146231E+02  0.19605323709E+02  0.12700000000E+01 0. -1.
          4   -1    0    0  501    0  0.00000000000E+00 -0.00000000000E+00 -0.19941006299E+03  0.19941410713E+03  0.12700000000E+01 0. -1.
         25    2    1    2    0    0  0.00000000000E+00  0.00000000000E+00 -0.17984591676E+03  0.21901943084E+03  0.12499982924E+03 0.  0.
    9000005    1    3    3    0    0  0.22113899805E+02  0.41672887768E+02 -0.16173119208E+03  0.16847442723E+03  0.10000000000E+01 0.  0.
    9000005    1    3    3    0    0 -0.22113899805E+02 -0.41672887768E+02 -0.18114724683E+02  0.50545003609E+02  0.10000000000E+01 0.  0.
<mgrwt>
<rscale>  0 0.12499983E+03</rscale>
<asrwt>0</asrwt>
<pdfrwt beam="2">  1        4 0.30681948E-01 0.12499983E+03</pdfrwt>
<pdfrwt beam="1">  1       -4 0.30133474E-02 0.12499983E+03</pdfrwt>
<totfact> 0.87024083E+03</totfact>
</mgrwt>
</event>
<event>
 5    1  0.3259432E-002  0.1249987E+03  0.7818608E-02  0.1235071E+00
         -4   -1    0    0    0  501 -0.00000000000E+00  0.00000000000E+00  0.32676127517E+03  0.32676374317E+03  0.12700000000E+01 0.  1.
          4   -1    0    0  501    0  0.00000000000E+00 -0.00000000000E+00 -0.11917944428E+02  0.11985420284E+02  0.12700000000E+01 0.  1.
         25    2    1    2    0    0  0.00000000000E+00  0.00000000000E+00  0.31484333075E+03  0.33874916346E+03  0.12499869131E+03 0.  0.
    9000005    1    3    3    0    0 -0.84284196307E+01  0.16013818838E+02 -0.46749588549E+01  0.18717261861E+02  0.10000000000E+01 0.  0.
    9000005    1    3    3    0    0  0.84284196307E+01 -0.16013818838E+02  0.31951828960E+03  0.32003190160E+03  0.10000000000E+01 0.  0.
<mgrwt>
<rscale>  0 0.12499869E+03</rscale>
<asrwt>0</asrwt>
<pdfrwt beam="2">  1        4 0.18389100E-02 0.12499869E+03</pdfrwt>
<pdfrwt beam="1">  1       -4 0.50276351E-01 0.12499869E+03</pdfrwt>
<totfact> 0.70982333E+03</totfact>
</mgrwt>
</event>
<event>
 5    1  0.3259432E-002  0.1250023E+03  0.7818608E-02  0.1235066E+00
         -4   -1    0    0    0  501 -0.00000000000E+00  0.00000000000E+00  0.20434418212E+03  0.20434812861E+03  0.12700000000E+01 0. -1.
          4   -1    0    0  501    0  0.00000000000E+00 -0.00000000000E+00 -0.19091500062E+02  0.19133694745E+02  0.12700000000E+01 0. -1.
         25    2    1    2    0    0  0.00000000000E+00  0.00000000000E+00  0.18525268205E+03  0.22348182335E+03  0.12500227662E+03 0.  0.
    9000005    1    3    3    0    0  0.33262779099E+02  0.80714008124E+01  0.18610451473E+03  0.18922856652E+03  0.10000000000E+01 0.  0.
    9000005    1    3    3    0    0 -0.33262779099E+02 -0.80714008124E+01 -0.85183267743E+00  0.34253256829E+02  0.10000000000E+01 0.  0.
<mgrwt>
<rscale>  0 0.12500228E+03</rscale>
<asrwt>0</asrwt>
<pdfrwt beam="2">  1        4 0.29407031E-02 0.12500228E+03</pdfrwt>
<pdfrwt beam="1">  1       -4 0.31441116E-01 0.12500228E+03</pdfrwt>
<totfact> 0.86315988E+03</totfact>
</mgrwt>
</event>
<event>
 5    1  0.3259432E-002  0.1249965E+03  0.7818608E-02  0.1235075E+00
         -4   -1    0    0    0  501 -0.00000000000E+00  0.00000000000E+00  0.15285623184E+04  0.15285628460E+04  0.12700000000E+01 0.  1.
          4   -1    0    0  501    0  0.00000000000E+00 -0.00000000000E+00 -0.23970086024E+01  0.27126647858E+01  0.12700000000E+01 0.  1.
         25    2    1    2    0    0  0.00000000000E+00  0.00000000000E+00  0.15261653098E+04  0.15312755108E+04  0.12499654820E+03 0.  0.
    9000005    1    3    3    0    0  0.32770972147E+02  0.38284747428E+02  0.12157523408E+04  0.12167967836E+04  0.10000000000E+01 0.  0.
    9000005    1    3    3    0    0 -0.32770972147E+02 -0.38284747428E+02  0.31041296900E+03  0.31447872714E+03  0.10000000000E+01 0.  0.
<mgrwt>
<rscale>  0 0.12499655E+03</rscale>
<asrwt>0</asrwt>
<pdfrwt beam="2">  1        4 0.39309218E-03 0.12499655E+03</pdfrwt>
<pdfrwt beam="1">  1       -4 0.23518788E+00 0.12499655E+03</pdfrwt>
<totfact> 0.17325027E+03</totfact>
</mgrwt>
</event>
<event>
 5    1  0.3259432E-002  0.1250003E+03  0.7818608E-02  0.1235069E+00
          4   -1    0    0  501    0  0.00000000000E+00  0.00000000000E+00  0.52965561066E+01  0.54466876715E+01  0.12700000000E+01 0.  1.
         -4   -1    0    0    0  501 -0.00000000000E+00 -0.00000000000E+00 -0.72705386316E+03  0.72705497236E+03  0.12700000000E+01 0.  1.
         25    2    1    2    0    0  0.00000000000E+00  0.00000000000E+00 -0.72175730705E+03  0.73250166003E+03  0.12500028667E+03 0.  0.
    9000005    1    3    3    0    0  0.40460679291E+02 -0.47203787252E+02 -0.39794231497E+03  0.40277084073E+03  0.10000000000E+01 0.  0.
    9000005    1    3    3    0    0 -0.40460679291E+02  0.47203787252E+02 -0.32381499209E+03  0.32973081931E+03  0.10000000000E+01 0.  0.
<mgrwt>
<rscale>  0 0.12500029E+03</rscale>
<asrwt>0</asrwt>
<pdfrwt beam="1">  1        4 0.82648927E-03 0.12500029E+03</pdfrwt>
<pdfrwt beam="2">  1       -4 0.11186600E+00 0.12500029E+03</pdfrwt>
<totfact> 0.41425157E+03</totfact>
</mgrwt>
</event>
<event>
 5    1  0.3259432E-002  0.1250001E+03  0.7818608E-02  0.1235069E+00
          4   -1    0    0  501    0  0.00000000000E+00  0.00000000000E+00  0.10824960962E+02  0.10899205468E+02  0.12700000000E+01 0.  1.
         -4   -1    0    0    0  501 -0.00000000000E+00 -0.00000000000E+00 -0.35954799949E+03  0.35955024243E+03  0.12700000000E+01 0.  1.
         25    2    1    2    0    0  0.00000000000E+00  0.00000000000E+00 -0.34872303853E+03  0.37044944790E+03  0.12500014341E+03 0.  0.
    9000005    1    3    3    0    0 -0.40874390743E+02 -0.75722116298E+01 -0.36078746956E+02  0.55052067986E+02  0.10000000000E+01 0.  0.
    9000005    1    3    3    0    0  0.40874390743E+02  0.75722116298E+01 -0.31264429157E+03  0.31539737992E+03  0.10000000000E+01 0.  0.
<mgrwt>
<rscale>  0 0.12500014E+03</rscale>
<asrwt>0</asrwt>
<pdfrwt beam="1">  1        4 0.16712625E-02 0.12500014E+03</pdfrwt>
<pdfrwt beam="2">  1       -4 0.55320951E-01 0.12500014E+03</pdfrwt>
<totfact> 0.67531733E+03</totfact>
</mgrwt>
</event>
<event>
 5    1  0.3259432E-002  0.1250029E+03  0.7818608E-02  0.1235065E+00
          4   -1    0    0  501    0  0.00000000000E+00  0.00000000000E+00  0.12928193594E+03  0.12928817370E+03  0.12700000000E+01 0.  1.
         -4   -1    0    0    0  501 -0.00000000000E+00 -0.00000000000E+00 -0.30196043948E+02  0.30222739289E+02  0.12700000000E+01 0.  1.
         25    2    1    2    0    0  0.00000000000E+00  0.00000000000E+00  0.99085891990E+02  0.15951091299E+03  0.12500286946E+03 0.  0.
    9000005    1    3    3    0    0 -0.50777504042E+01 -0.46779574256E+02 -0.29357402744E+01  0.47156449057E+02  0.10000000000E+01 0.  0.
    9000005    1    3    3    0    0  0.50777504042E+01  0.46779574256E+02  0.10202163226E+03  0.11235446394E+03  0.10000000000E+01 0.  0.
<mgrwt>
<rscale>  0 0.12500287E+03</rscale>
<asrwt>0</asrwt>
<pdfrwt beam="1">  1        4 0.19892063E-01 0.12500287E+03</pdfrwt>
<pdfrwt beam="2">  1       -4 0.46480784E-02 0.12500287E+03</pdfrwt>
<totfact> 0.97430875E+03</totfact>
</mgrwt>
</event>
<event>
 5    1  0.3259432E-002  0.1249927E+03  0.7818608E-02  0.1235081E+00
          4   -1    0    0  501    0  0.00000000000E+00  0.00000000000E+00  0.11625390576E+03  0.11626084253E+03  0.12700000000E+01 0.  1.
         -4   -1    0    0    0  501 -0.00000000000E+00 -0.00000000000E+00 -0.33577158128E+02  0.33601167360E+02  0.12700000000E+01 0.  1.
         25    2    1    2    0    0  0.00000000000E+00  0.00000000000E+00  0.82676747636E+02  0.14986200989E+03  0.12499270942E+03 0.  0.
    9000005    1    3    3    0    0  0.22365542469E+02  0.53068864538E+02  0.12258257703E+02  0.58887916886E+02  0.10000000000E+01 0.  0.
    9000005    1    3    3    0    0 -0.22365542469E+02 -0.53068864538E+02  0.70418489934E+02  0.90974093003E+02  0.10000000000E+01 0.  0.
<mgrwt>
<rscale>  0 0.12499271E+03</rscale>
<asrwt>0</asrwt>
<pdfrwt beam="1">  1        4 0.17887597E-01 0.12499271E+03</pdfrwt>
<pdfrwt beam="2">  1       -4 0.51680971E-02 0.12499271E+03</pdfrwt>
<totfact> 0.99347511E+03</totfact>
</mgrwt>
</event>
<event>
 5    1  0.3259432E-002  0.1249983E+03  0.7818608E-02  0.1235072E+00
         -4   -1    0    0    0  501 -0.00000000000E+00  0.00000000000E+00  0.12579660373E+04  0.12579666784E+04  0.12700000000E+01 0.  1.
          4   -1    0    0  501    0  0.00000000000E+00 -0.00000000000E+00 -0.29745998557E+01  0.32343692278E+01  0.12700000000E+01 0.  1.
         25    2    1    2    0    0  0.00000000000E+00  0.00000000000E+00  0.12549914375E+04  0.12612010476E+04  0.12499829765E+03 0.  0.
    9000005    1    3    3    0    0  0.87831283137E+01  0.34078954580E+02  0.10646754580E+03  0.11213766895E+03  0.10000000000E+01 0.  0.
    9000005    1    3    3    0    0 -0.87831283137E+01 -0.34078954580E+02  0.11485238917E+04  0.11490633787E+04  0.10000000000E+01 0.  0.
<mgrwt>
<rscale>  0 0.12499830E+03</rscale>
<asrwt>0</asrwt>
<pdfrwt beam="2">  1        4 0.47766165E-03 0.12499830E+03</pdfrwt>
<pdfrwt beam="1">  1       -4 0.19355354E+00 0.12499830E+03</pdfrwt>
<totfact> 0.23163976E+03</totfact>
</mgrwt>
</event>
<event>
 5    1  0.3259432E-002  0.1249973E+03  0.7818608E-02  0.1235074E+00
         -4   -1    0    0    0  501 -0.00000000000E+00  0.00000000000E+00  0.77864418003E+02  0.77874774420E+02  0.12700000000E+01 0. -1.
          4   -1    0    0  501    0  0.00000000000E+00 -0.00000000000E+00 -0.50143402311E+02  0.50159482607E+02  0.12700000000E+01 0. -1.
         25    2    1    2    0    0  0.00000000000E+00  0.00000000000E+00  0.27721015691E+02  0.12803425703E+03  0.12499726502E+03 0.  0.
    9000005    1    3    3    0    0  0.22885312965E+02 -0.16489246278E+01 -0.45677666582E+02  0.51126370166E+02  0.10000000000E+01 0.  0.
    9000005    1    3    3    0    0 -0.22885312965E+02  0.16489246278E+01  0.73398682273E+02  0.76907886861E+02  0.10000000000E+01 0.  0.
<mgrwt>
<rscale>  0 0.12499727E+03</rscale>
<asrwt>0</asrwt>
<pdfrwt beam="2">  1        4 0.77164033E-02 0.12499727E+03</pdfrwt>
<pdfrwt beam="1">  1       -4 0.11981175E-01 0.12499727E+03</pdfrwt>
<totfact> 0.10387389E+04</totfact>
</mgrwt>
</event>
<event>
 5    1  0.3259432E-002  0.1250021E+03  0.7818608E-02  0.1235066E+00
         -4   -1    0    0    0  501 -0.00000000000E+00  0.00000000000E+00  0.14002320607E+02  0.14059796669E+02  0.12700000000E+01 0.  1.
          4   -1    0    0  501    0  0.00000000000E+00 -0.00000000000E+00 -0.27835074695E+03  0.27835364418E+03  0.12700000000E+01 0.  1.
         25    2    1    2    0    0  0.00000000000E+00  0.00000000000E+00 -0.26434842635E+03  0.29241344085E+03  0.12500211950E+03 0.  0.
    9000005    1    3    3    0    0  0.22039911291E+02  0.53626066237E+02 -0.18672831705E+03  0.19552487581E+03  0.10000000000E+01 0.  0.
    9000005    1    3    3    0    0 -0.22039911291E+02 -0.53626066237E+02 -0.77620109296E+02  0.96888565047E+02  0.10000000000E+01 0.  0.
<mgrwt>
<rscale>  0 0.12500212E+03</rscale>
<asrwt>0</asrwt>
<pdfrwt beam="2">  1        4 0.42827832E-01 0.12500212E+03</pdfrwt>
<pdfrwt beam="1">  1       -4 0.21588475E-02 0.12500212E+03</pdfrwt>
<totfact> 0.76556843E+03</totfact>
</mgrwt>
</event>
<event>
 5    1  0.3259432E-002  0.1250030E+03  0.7818608E-02  0.1235065E+00
         -4   -1    0    0    0  501 -0.00000000000E+00  0.00000000000E+00  0.49188495564E+02  0.49204887927E+02  0.12700000000E+01 0.  1.
          4   -1    0    0  501    0  0.00000000000E+00 -0.00000000000E+00 -0.79383002992E+02  0.79393161318E+02  0.12700000000E+01 0.  1.
         25    2    1    2    0    0  0.00000000000E+00  0.00000000000E+00 -0.30194507428E+02  0.12859804924E+03  0.12500299993E+03 0.  0.
    9000005    1    3    3    0    0 -0.23276291862E+02  0.56017484253E+02 -0.30552401959E+02  0.67927855629E+02  0.10000000000E+01 0.  0.
    9000005    1    3    3    0    0  0.23276291862E+02 -0.56017484253E+02  0.35789453184E+00  0.60670193615E+02  0.10000000000E+01 0.  0.
<mgrwt>
<rscale>  0 0.12500300E+03</rscale>
<asrwt>0</asrwt>
<pdfrwt beam="2">  1        4 0.12214812E-01 0.12500300E+03</pdfrwt>
<pdfrwt beam="1">  1       -4 0.75695032E-02 0.12500300E+03</pdfrwt>
<totfact> 0.10373890E+04</totfact>
</mgrwt>
</event>
<event>
 5    1  0.3259432E-002  0.1249967E+03  0.7818608E-02  0.1235074E+00
          4   -1    0    0  501    0  0.00000000000E+00  0.00000000000E+00  0.10070324262E+02  0.10150090183E+02  0.12700000000E+01 0.  1.
         -4   -1    0    0    0  501 -0.00000000000E+00 -0.00000000000E+00 -0.38626591090E+03  0.38626799871E+03  0.12700000000E+01 0.  1.
         25    2    1    2    0    0  0.00000000000E+00  0.00000000000E+00 -0.37619558664E+03  0.39641808889E+03  0.12499672712E+03 0.  0.
    9000005    1    3    3    0    0 -0.29075945299E+02  0.22078217574E+01 -0.12813340971E+02  0.31866389484E+02  0.10000000000E+01 0.  0.
    9000005    1    3    3    0    0  0.29075945299E+02 -0.22078217574E+01 -0.36338224567E+03  0.36455169941E+03  0.10000000000E+01 0.  0.
<mgrwt>
<rscale>  0 0.12499673E+03</rscale>
<asrwt>0</asrwt>
<pdfrwt beam="1">  1        4 0.15555774E-02 0.12499673E+03</pdfrwt>
<pdfrwt beam="2">  1       -4 0.59431810E-01 0.12499673E+03</pdfrwt>
<totfact> 0.64907354E+03</totfact>
</mgrwt>
</event>
<event>
 5    1  0.3259432E-002  0.1250002E+03  0.7818608E-02  0.1235069E+00
          4   -1    0    0  501    0  0.00000000000E+00  0.00000000000E+00  0.13623425974E+02  0.13682493751E+02  0.12700000000E+01 0.  1.
         -4   -1    0    0    0  501 -0.00000000000E+00 -0.00000000000E+00 -0.28605033373E+03  0.28605315298E+03  0.12700000000E+01 0.  1.
         25    2    1    2    0    0  0.00000000000E+00  0.00000000000E+00 -0.27242690776E+03  0.29973564673E+03  0.12500015140E+03 0.  0.
    9000005    1    3    3    0    0 -0.13116624636E+02 -0.20531168603E+02  0.17780505930E+01  0.24448643929E+02  0.10000000000E+01 0.  0.
    9000005    1    3    3    0    0  0.13116624636E+02  0.20531168603E+02 -0.27420495835E+03  0.27528700280E+03  0.10000000000E+01 0.  0.
<mgrwt>
<rscale>  0 0.12500015E+03</rscale>
<asrwt>0</asrwt>
<pdfrwt beam="1">  1        4 0.21006724E-02 0.12500015E+03</pdfrwt>
<pdfrwt beam="2">  1       -4 0.44012500E-01 0.12500015E+03</pdfrwt>
<totfact> 0.75631758E+03</totfact>
</mgrwt>
</event>
<event>
 5    1  0.3259432E-002  0.1250000E+03  0.7818608E-02  0.1235069E+00
          4   -1    0    0  501    0  0.00000000000E+00  0.00000000000E+00  0.46040424245E+02  0.46057937043E+02  0.12700000000E+01 0. -1.
         -4   -1    0    0    0  501 -0.00000000000E+00 -0.00000000000E+00 -0.84805484798E+02  0.84814993673E+02  0.12700000000E+01 0. -1.
         25    2    1    2    0    0  0.00000000000E+00  0.00000000000E+00 -0.38765060553E+02  0.13087293072E+03  0.12499997630E+03 0.  0.
    9000005    1    3    3    0    0  0.15578844440E+02  0.38448891129E+02 -0.68314102485E+02  0.79930183419E+02  0.10000000000E+01 0.  0.
    9000005    1    3    3    0    0 -0.15578844440E+02 -0.38448891129E+02  0.29549041932E+02  0.50942747298E+02  0.10000000000E+01 0.  0.
<mgrwt>
<rscale>  0 0.12499998E+03</rscale>
<asrwt>0</asrwt>
<pdfrwt beam="1">  1        4 0.70852208E-02 0.12499998E+03</pdfrwt>
<pdfrwt beam="2">  1       -4 0.13049076E-01 0.12499998E+03</pdfrwt>
<totfact> 0.10325820E+04</totfact>
</mgrwt>
</event>
<event>
 5    1  0.3259432E-002  0.1250022E+03  0.7818608E-02  0.1235066E+00
          4   -1    0    0  501    0  0.00000000000E+00  0.00000000000E+00  0.10603356422E+03  0.10604116956E+03  0.12700000000E+01 0. -1.
         -4   -1    0    0    0  501 -0.00000000000E+00 -0.00000000000E+00 -0.36821194557E+02  0.36843089836E+02  0.12700000000E+01 0. -1.
         25    2    1    2    0    0  0.00000000000E+00  0.00000000000E+00  0.69212369666E+02  0.14288425940E+03  0.12500223785E+03 0.  0.
    9000005    1    3    3    0    0 -0.56450570951E+02 -0.25663293396E+02  0.25743406886E+02  0.67149047548E+02  0.10000000000E+01 0.  0.
    9000005    1    3    3    0    0  0.56450570951E+02  0.25663293396E+02  0.43468962780E+02  0.75735211849E+02  0.10000000000E+01 0.  0.
<mgrwt>
<rscale>  0 0.12500224E+03</rscale>
<asrwt>0</asrwt>
<pdfrwt beam="1">  1        4 0.16315125E-01 0.12500224E+03</pdfrwt>
<pdfrwt beam="2">  1       -4 0.56670685E-02 0.12500224E+03</pdfrwt>
<totfact> 0.10073646E+04</totfact>
</mgrwt>
</event>
<event>
 5    1  0.3259432E-002  0.1249997E+03  0.7818608E-02  0.1235070E+00
          4   -1    0    0  501    0  0.00000000000E+00  0.00000000000E+00  0.80998879487E+01  0.81988465519E+01  0.12700000000E+01 0. -1.
         -4   -1    0    0    0  501 -0.00000000000E+00 -0.00000000000E+00 -0.47922953428E+03  0.47923121709E+03  0.12700000000E+01 0. -1.
         25    2    1    2    0    0  0.00000000000E+00  0.00000000000E+00 -0.47112964634E+03  0.48743006364E+03  0.12499969313E+03 0.  0.
    9000005    1    3    3    0    0 -0.24451126685E+02  0.54155104291E+02 -0.16009279230E+03  0.17076690271E+03  0.10000000000E+01 0.  0.
    9000005    1    3    3    0    0  0.24451126685E+02 -0.54155104291E+02 -0.31103685404E+03  0.31666316093E+03  0.10000000000E+01 0.  0.
<mgrwt>
<rscale>  0 0.12499969E+03</rscale>
<asrwt>0</asrwt>
<pdfrwt beam="1">  1        4 0.12538786E-02 0.12499969E+03</pdfrwt>
<pdfrwt beam="2">  1       -4 0.73735340E-01 0.12499969E+03</pdfrwt>
<totfact> 0.56853394E+03</totfact>
</mgrwt>
</event>
<event>
 5    1  0.3259432E-002  0.1249999E+03  0.7818608E-02  0.1235069E+00
         -4   -1    0    0    0  501 -0.00000000000E+00  0.00000000000E+00  0.36686979055E+03  0.36687198873E+03  0.12700000000E+01 0. -1.
          4   -1    0    0  501    0  0.00000000000E+00 -0.00000000000E+00 -0.10607380512E+02  0.10683137241E+02  0.12700000000E+01 0. -1.
         25    2    1    2    0    0  0.00000000000E+00  0.00000000000E+00  0.35626241004E+03  0.37755512598E+03  0.12499987338E+03 0.  0.
    9000005    1    3    3    0    0  0.20631278138E+02  0.25235396245E+02  0.17088355020E+02  0.36816935486E+02  0.10000000000E+01 0.  0.
    9000005    1    3    3    0    0 -0.20631278138E+02 -0.25235396245E+02  0.33917405502E+03  0.34073819049E+03  0.10000000000E+01 0.  0.
<mgrwt>
<rscale>  0 0.12499987E+03</rscale>
<asrwt>0</asrwt>
<pdfrwt beam="2">  1        4 0.16379012E-02 0.12499987E+03</pdfrwt>
<pdfrwt beam="1">  1       -4 0.56447503E-01 0.12499987E+03</pdfrwt>
<totfact> 0.66796052E+03</totfact>
</mgrwt>
</event>
<event>
 5    1  0.3259432E-002  0.1250008E+03  0.7818608E-02  0.1235068E+00
          4   -1    0    0  501    0  0.00000000000E+00  0.00000000000E+00  0.47280297294E+02  0.47297351006E+02  0.12700000000E+01 0. -1.
         -4   -1    0    0    0  501 -0.00000000000E+00 -0.00000000000E+00 -0.82583253873E+02  0.82593018593E+02  0.12700000000E+01 0. -1.
         25    2    1    2    0    0  0.00000000000E+00  0.00000000000E+00 -0.35302956579E+02  0.12989036960E+03  0.12500083748E+03 0.  0.
    9000005    1    3    3    0    0  0.56218104662E+02  0.24160343231E+02 -0.30840675405E+02  0.68529882068E+02  0.10000000000E+01 0.  0.
    9000005    1    3    3    0    0 -0.56218104662E+02 -0.24160343231E+02 -0.44622811739E+01  0.61360487531E+02  0.10000000000E+01 0.  0.
<mgrwt>
<rscale>  0 0.12500084E+03</rscale>
<asrwt>0</asrwt>
<pdfrwt beam="1">  1        4 0.72759548E-02 0.12500084E+03</pdfrwt>
<pdfrwt beam="2">  1       -4 0.12707179E-01 0.12500084E+03</pdfrwt>
<totfact> 0.10346658E+04</totfact>
</mgrwt>
</event>
<event>
 5    1  0.3259432E-002  0.1250006E+03  0.7818608E-02  0.1235068E+00
          4   -1    0    0  501    0  0.00000000000E+00  0.00000000000E+00  0.35070379947E+01  0.37299082424E+01  0.12700000000E+01 0.  1.
         -4   -1    0    0    0  501 -0.00000000000E+00 -0.00000000000E+00 -0.10793164180E+04  0.10793171652E+04  0.12700000000E+01 0.  1.
         25    2    1    2    0    0  0.00000000000E+00  0.00000000000E+00 -0.10758093800E+04  0.10830470734E+04  0.12500056461E+03 0.  0.
    9000005    1    3    3    0    0 -0.17981033682E+02  0.20462076698E+01 -0.10561581617E+04  0.10563136688E+04  0.10000000000E+01 0.  0.
    9000005    1    3    3    0    0  0.17981033682E+02 -0.20462076698E+01 -0.19651218325E+02  0.26733404567E+02  0.10000000000E+01 0.  0.
<mgrwt>
<rscale>  0 0.12500056E+03</rscale>
<asrwt>0</asrwt>
<pdfrwt beam="1">  1        4 0.55674651E-03 0.12500056E+03</pdfrwt>
<pdfrwt beam="2">  1       -4 0.16606562E+00 0.12500056E+03</pdfrwt>
<totfact> 0.27984628E+03</totfact>
</mgrwt>
</event>
<event>
 5    1  0.3259432E-002  0.1250089E+03  0.7818608E-02  0.1235055E+00
         -4   -1    0    0    0  501 -0.00000000000E+00  0.00000000000E+00  0.18173795913E+02  0.18218116201E+02  0.12700000000E+01 0.  1.
          4   -1    0    0  501    0  0.00000000000E+00 -0.00000000000E+00 -0.21466134200E+03  0.21466509881E+03  0.12700000000E+01 0.  1.
         25    2    1    2    0    0  0.00000000000E+00  0.00000000000E+00 -0.19648754608E+03  0.23288321501E+03  0.12500894395E+03 0.  0.
    9000005    1    3    3    0    0 -0.26447744803E+02  0.36556227118E+02 -0.17684748807E+02  0.48472582834E+02  0.10000000000E+01 0.  0.
    9000005    1    3    3    0    0  0.26447744803E+02 -0.36556227118E+02 -0.17880279728E+03  0.18441063218E+03  0.10000000000E+01 0.  0.
<mgrwt>
<rscale>  0 0.12500894E+03</rscale>
<asrwt>0</asrwt>
<pdfrwt beam="2">  1        4 0.33028518E-01 0.12500894E+03</pdfrwt>
<pdfrwt beam="1">  1       -4 0.27996670E-02 0.12500894E+03</pdfrwt>
<totfact> 0.84851905E+03</totfact>
</mgrwt>
</event>
<event>
 5    1  0.3259432E-002  0.1250333E+03  0.7818608E-02  0.1235017E+00
          4   -1    0    0  501    0  0.00000000000E+00  0.00000000000E+00  0.16651453184E+03  0.16651937489E+03  0.12700000000E+01 0. -1.
         -4   -1    0    0    0  501 -0.00000000000E+00 -0.00000000000E+00 -0.23449059894E+02  0.23483426281E+02  0.12700000000E+01 0. -1.
         25    2    1    2    0    0  0.00000000000E+00  0.00000000000E+00  0.14306547194E+03  0.19000280117E+03  0.12503333631E+03 0.  0.
    9000005    1    3    3    0    0  0.19129405708E+02  0.55398764212E+02  0.38505034326E+02  0.70132694996E+02  0.10000000000E+01 0.  0.
    9000005    1    3    3    0    0 -0.19129405708E+02 -0.55398764212E+02  0.10456043762E+03  0.11987010617E+03  0.10000000000E+01 0.  0.
<mgrwt>
<rscale>  0 0.12503334E+03</rscale>
<asrwt>0</asrwt>
<pdfrwt beam="1">  1        4 0.25620636E-01 0.12503334E+03</pdfrwt>
<pdfrwt beam="2">  1       -4 0.36105638E-02 0.12503334E+03</pdfrwt>
<totfact> 0.91778276E+03</totfact>
</mgrwt>
</event>
<event>
 5    1  0.3259432E-002  0.1249941E+03  0.7818608E-02  0.1235078E+00
          4   -1    0    0  501    0  0.00000000000E+00  0.00000000000E+00  0.10895760857E+02  0.10969526181E+02  0.12700000000E+01 0. -1.
         -4   -1    0    0    0  501 -0.00000000000E+00 -0.00000000000E+00 -0.35719300852E+03  0.35719526626E+03  0.12700000000E+01 0. -1.
         25    2    1    2    0    0  0.00000000000E+00  0.00000000000E+00 -0.34629724766E+03  0.36816479244E+03  0.12499412247E+03 0.  0.
    9000005    1    3    3    0    0 -0.75270464234E+01  0.58132810029E+02 -0.10937403257E+03  0.12409576556E+03  0.10000000000E+01 0.  0.
    9000005    1    3    3    0    0  0.75270464234E+01 -0.58132810029E+02 -0.23692321510E+03  0.24406902688E+03  0.10000000000E+01 0.  0.
<mgrwt>
<rscale>  0 0.12499412E+03</rscale>
<asrwt>0</asrwt>
<pdfrwt beam="1">  1        4 0.16821191E-02 0.12499412E+03</pdfrwt>
<pdfrwt beam="2">  1       -4 0.54958609E-01 0.12499412E+03</pdfrwt>
<totfact> 0.67780184E+03</totfact>
</mgrwt>
</event>
<event>
 5    1  0.3259432E-002  0.1250085E+03  0.7818608E-02  0.1235056E+00
          4   -1    0    0  501    0  0.00000000000E+00  0.00000000000E+00  0.15816261105E+02  0.15867167843E+02  0.12700000000E+01 0. -1.
         -4   -1    0    0    0  501 -0.00000000000E+00 -0.00000000000E+00 -0.24656104402E+03  0.24656431479E+03  0.12700000000E+01 0. -1.
         25    2    1    2    0    0  0.00000000000E+00  0.00000000000E+00 -0.23074478291E+03  0.26243148263E+03  0.12500851265E+03 0.  0.
    9000005    1    3    3    0    0  0.23580129456E+02 -0.49284211347E+02 -0.51668619485E+02  0.75203738157E+02  0.10000000000E+01 0.  0.
    9000005    1    3    3    0    0 -0.23580129456E+02  0.49284211347E+02 -0.17907616343E+03  0.18722774447E+03  0.10000000000E+01 0.  0.
<mgrwt>
<rscale>  0 0.12500851E+03</rscale>
<asrwt>0</asrwt>
<pdfrwt beam="1">  1        4 0.24374386E-02 0.12500851E+03</pdfrwt>
<pdfrwt beam="2">  1       -4 0.37936633E-01 0.12500851E+03</pdfrwt>
<totfact> 0.80550783E+03</totfact>
</mgrwt>
</event>
<event>
 5    1  0.3259432E-002  0.1250036E+03  0.7818608E-02  0.1235064E+00
         -4   -1    0    0    0  501 -0.00000000000E+00  0.00000000000E+00  0.74700559665E+01  0.75772446273E+01  0.12700000000E+01 0.  1.
          4   -1    0    0  501    0  0.00000000000E+00 -0.00000000000E+00 -0.51911786244E+03  0.51911941594E+03  0.12700000000E+01 0.  1.
         25    2    1    2    0    0  0.00000000000E+00  0.00000000000E+00 -0.51164780647E+03  0.52669666057E+03  0.12500357748E+03 0.  0.
    9000005    1    3    3    0    0 -0.12005456948E+02 -0.38123901409E+02 -0.45824120279E+03  0.45998213312E+03  0.10000000000E+01 0.  0.
    9000005    1    3    3    0    0  0.12005456948E+02  0.38123901409E+02 -0.53406603679E+02  0.66714527442E+02  0.10000000000E+01 0.  0.
<mgrwt>
<rscale>  0 0.12500358E+03</rscale>
<asrwt>0</asrwt>
<pdfrwt beam="2">  1        4 0.79872623E-01 0.12500358E+03</pdfrwt>
<pdfrwt beam="1">  1       -4 0.11576046E-02 0.12500358E+03</pdfrwt>
<totfact> 0.53846719E+03</totfact>
</mgrwt>
</event>
<event>
 5    1  0.3259432E-002  0.1250008E+03  0.7818608E-02  0.1235068E+00
         -4   -1    0    0    0  501 -0.00000000000E+00  0.00000000000E+00  0.61921722413E+02  0.61934744745E+02  0.12700000000E+01 0.  1.
          4   -1    0    0  501    0  0.00000000000E+00 -0.00000000000E+00 -0.63058440049E+02  0.63071227683E+02  0.12700000000E+01 0.  1.
         25    2    1    2    0    0  0.00000000000E+00  0.00000000000E+00 -0.11367176354E+01  0.12500597243E+03  0.12500080406E+03 0.  0.
    9000005    1    3    3    0    0 -0.24042457316E+02 -0.50363926548E+02 -0.28689539318E+02  0.62758700730E+02  0.10000000000E+01 0.  0.
    9000005    1    3    3    0    0  0.24042457316E+02  0.50363926548E+02  0.27552821682E+02  0.62247271697E+02  0.10000000000E+01 0.  0.
<mgrwt>
<rscale>  0 0.12500080E+03</rscale>
<asrwt>0</asrwt>
<pdfrwt beam="2">  1        4 0.97032839E-02 0.12500080E+03</pdfrwt>
<pdfrwt beam="1">  1       -4 0.95284041E-02 0.12500080E+03</pdfrwt>
<totfact> 0.10452543E+04</totfact>
</mgrwt>
</event>
<event>
 5    1  0.3259432E-002  0.1250030E+03  0.7818608E-02  0.1235065E+00
         -4   -1    0    0    0  501 -0.00000000000E+00  0.00000000000E+00  0.23955889742E+03  0.23956226379E+03  0.12700000000E+01 0.  1.
          4   -1    0    0  501    0  0.00000000000E+00 -0.00000000000E+00 -0.16278567743E+02  0.16328033187E+02  0.12700000000E+01 0.  1.
         25    2    1    2    0    0  0.00000000000E+00  0.00000000000E+00  0.22328032967E+03  0.25589029698E+03  0.12500295383E+03 0.  0.
    9000005    1    3    3    0    0 -0.22520570436E+02 -0.51051996835E+02  0.54032136441E+02  0.77678531410E+02  0.10000000000E+01 0.  0.
    9000005    1    3    3    0    0  0.22520570436E+02  0.51051996835E+02  0.16924819323E+03  0.17821176557E+03  0.10000000000E+01 0.  0.
<mgrwt>
<rscale>  0 0.12500295E+03</rscale>
<asrwt>0</asrwt>
<pdfrwt beam="2">  1        4 0.25084592E-02 0.12500295E+03</pdfrwt>
<pdfrwt beam="1">  1       -4 0.36859277E-01 0.12500295E+03</pdfrwt>
<totfact> 0.81480922E+03</totfact>
</mgrwt>
</event>
<event>
 5    1  0.3259432E-002  0.1249995E+03  0.7818608E-02  0.1235070E+00
         -4   -1    0    0    0  501 -0.00000000000E+00  0.00000000000E+00  0.47739641730E+02  0.47756531412E+02  0.12700000000E+01 0.  1.
          4   -1    0    0  501    0  0.00000000000E+00 -0.00000000000E+00 -0.81787034321E+02  0.81796894091E+02  0.12700000000E+01 0.  1.
         25    2    1    2    0    0  0.00000000000E+00  0.00000000000E+00 -0.34047392591E+02  0.12955342550E+03  0.12499946047E+03 0.  0.
    9000005    1    3    3    0    0  0.30200294833E+02  0.19925856055E+02  0.35784707128E+02  0.50898357653E+02  0.10000000000E+01 0.  0.
    9000005    1    3    3    0    0 -0.30200294833E+02 -0.19925856055E+02 -0.69832099719E+02  0.78655067851E+02  0.10000000000E+01 0.  0.
<mgrwt>
<rscale>  0 0.12499946E+03</rscale>
<asrwt>0</asrwt>
<pdfrwt beam="2">  1        4 0.12584678E-01 0.12499946E+03</pdfrwt>
<pdfrwt beam="1">  1       -4 0.73466179E-02 0.12499946E+03</pdfrwt>
<totfact> 0.10354196E+04</totfact>
</mgrwt>
</event>
<event>
 5    1  0.3259432E-002  0.1250017E+03  0.7818608E-02  0.1235067E+00
          4   -1    0    0  501    0  0.00000000000E+00  0.00000000000E+00  0.58530382534E+02  0.58544159227E+02  0.12700000000E+01 0. -1.
         -4   -1    0    0    0  501 -0.00000000000E+00 -0.00000000000E+00 -0.66713035304E+02  0.66725122551E+02  0.12700000000E+01 0. -1.
         25    2    1    2    0    0  0.00000000000E+00  0.00000000000E+00 -0.81826527700E+01  0.12526928178E+03  0.12500174859E+03 0.  0.
    9000005    1    3    3    0    0 -0.22680015185E+02 -0.37433481737E+02  0.40610314044E+02  0.59714707154E+02  0.10000000000E+01 0.  0.
    9000005    1    3    3    0    0  0.22680015185E+02  0.37433481737E+02 -0.48792966814E+02  0.65554574624E+02  0.10000000000E+01 0.  0.
<mgrwt>
<rscale>  0 0.12500175E+03</rscale>
<asrwt>0</asrwt>
<pdfrwt beam="1">  1        4 0.90066637E-02 0.12500175E+03</pdfrwt>
<pdfrwt beam="2">  1       -4 0.10265533E-01 0.12500175E+03</pdfrwt>
<totfact> 0.10446604E+04</totfact>
</mgrwt>
</event>
<event>
 5    1  0.3259432E-002  0.1249994E+03  0.7818608E-02  0.1235070E+00
         -4   -1    0    0    0  501 -0.00000000000E+00  0.00000000000E+00  0.41444546991E+03  0.41444741576E+03  0.12700000000E+01 0.  1.
          4   -1    0    0  501    0  0.00000000000E+00 -0.00000000000E+00 -0.93804016671E+01  0.94659830676E+01  0.12700000000E+01 0.  1.
         25    2    1    2    0    0  0.00000000000E+00  0.00000000000E+00  0.40506506825E+03  0.42391339883E+03  0.12499944077E+03 0.  0.
    9000005    1    3    3    0    0 -0.43001360573E+02 -0.88799510460E+01  0.35333181222E+03  0.35605103577E+03  0.10000000000E+01 0.  0.
    9000005    1    3    3    0    0  0.43001360573E+02  0.88799510460E+01  0.51733256024E+02  0.67862363064E+02  0.10000000000E+01 0.  0.
<mgrwt>
<rscale>  0 0.12499944E+03</rscale>
<asrwt>0</asrwt>
<pdfrwt beam="2">  1        4 0.14498721E-02 0.12499944E+03</pdfrwt>
<pdfrwt beam="1">  1       -4 0.63767551E-01 0.12499944E+03</pdfrwt>
<totfact> 0.62292386E+03</totfact>
</mgrwt>
</event>
<event>
 5    1  0.3259432E-002  0.1250001E+03  0.7818608E-02  0.1235069E+00
          4   -1    0    0  501    0  0.00000000000E+00  0.00000000000E+00  0.39044959717E+02  0.39065608651E+02  0.12700000000E+01 0.  1.
         -4   -1    0    0    0  501 -0.00000000000E+00 -0.00000000000E+00 -0.99993890290E+02  0.10000195496E+03  0.12700000000E+01 0.  1.
         25    2    1    2    0    0  0.00000000000E+00  0.00000000000E+00 -0.60948930573E+02  0.13906756361E+03  0.12500006044E+03 0.  0.
    9000005    1    3    3    0    0 -0.54531545684E+02  0.28438610341E+02 -0.18145346489E+02  0.64130317573E+02  0.10000000000E+01 0.  0.
    9000005    1    3    3    0    0  0.54531545684E+02 -0.28438610341E+02 -0.42803584084E+02  0.74937246035E+02  0.10000000000E+01 0.  0.
<mgrwt>
<rscale>  0 0.12500006E+03</rscale>
<asrwt>0</asrwt>
<pdfrwt beam="1">  1        4 0.60091257E-02 0.12500006E+03</pdfrwt>
<pdfrwt beam="2">  1       -4 0.15385884E-01 0.12500006E+03</pdfrwt>
<totfact> 0.10152934E+04</totfact>
</mgrwt>
</event>
<event>
 5    1  0.3259432E-002  0.1250062E+03  0.7818608E-02  0.1235060E+00
         -4   -1    0    0    0  501 -0.00000000000E+00  0.00000000000E+00  0.63457553100E+02  0.63470260323E+02  0.12700000000E+01 0. -1.
          4   -1    0    0  501    0  0.00000000000E+00 -0.00000000000E+00 -0.61537600021E+02  0.61550703622E+02  0.12700000000E+01 0. -1.
         25    2    1    2    0    0  0.00000000000E+00  0.00000000000E+00  0.19199530787E+01  0.12502096394E+03  0.12500622067E+03 0.  0.
    9000005    1    3    3    0    0 -0.69851079911E+01 -0.43785028613E+02 -0.43087451379E+02  0.61834043460E+02  0.10000000000E+01 0.  0.
    9000005    1    3    3    0    0  0.69851079911E+01  0.43785028613E+02  0.45007404458E+02  0.63186920485E+02  0.10000000000E+01 0.  0.
<mgrwt>
<rscale>  0 0.12500622E+03</rscale>
<asrwt>0</asrwt>
<pdfrwt beam="2">  1        4 0.94693085E-02 0.12500622E+03</pdfrwt>
<pdfrwt beam="1">  1       -4 0.97646859E-02 0.12500622E+03</pdfrwt>
<totfact> 0.10450938E+04</totfact>
</mgrwt>
</event>
<event>
 5    1  0.3259432E-002  0.1250002E+03  0.7818608E-02  0.1235069E+00
         -4   -1    0    0    0  501 -0.00000000000E+00  0.00000000000E+00  0.27988433125E+02  0.28017231998E+02  0.12700000000E+01 0.  1.
          4   -1    0    0  501    0  0.00000000000E+00 -0.00000000000E+00 -0.13946348831E+03  0.13946927071E+03  0.12700000000E+01 0.  1.
         25    2    1    2    0    0  0.00000000000E+00  0.00000000000E+00 -0.11147505519E+03  0.16748650271E+03  0.12500016264E+03 0.  0.
    9000005    1    3    3    0    0  0.57339169332E+02  0.20624497425E+02 -0.37166148964E+02  0.71382580946E+02  0.10000000000E+01 0.  0.
    9000005    1    3    3    0    0 -0.57339169332E+02 -0.20624497425E+02 -0.74308906222E+02  0.96103921760E+02  0.10000000000E+01 0.  0.
<mgrwt>
<rscale>  0 0.12500016E+03</rscale>
<asrwt>0</asrwt>
<pdfrwt beam="2">  1        4 0.21458581E-01 0.12500016E+03</pdfrwt>
<pdfrwt beam="1">  1       -4 0.43085730E-02 0.12500016E+03</pdfrwt>
<totfact> 0.95918200E+03</totfact>
</mgrwt>
</event>
<event>
 5    1  0.3259432E-002  0.1250026E+03  0.7818608E-02  0.1235065E+00
          4   -1    0    0  501    0  0.00000000000E+00  0.00000000000E+00  0.20730430721E+03  0.20730819735E+03  0.12700000000E+01 0. -1.
         -4   -1    0    0    0  501 -0.00000000000E+00 -0.00000000000E+00 -0.18818381946E+02  0.18861187636E+02  0.12700000000E+01 0. -1.
         25    2    1    2    0    0  0.00000000000E+00  0.00000000000E+00  0.18848592526E+03  0.22616938498E+03  0.12500258670E+03 0.  0.
    9000005    1    3    3    0    0  0.36317132128E+01  0.43367142989E+02  0.13095253353E+02  0.45457497646E+02  0.10000000000E+01 0.  0.
    9000005    1    3    3    0    0 -0.36317132128E+01 -0.43367142989E+02  0.17539067191E+03  0.18071188734E+03  0.10000000000E+01 0.  0.
<mgrwt>
<rscale>  0 0.12500259E+03</rscale>
<asrwt>0</asrwt>
<pdfrwt beam="1">  1        4 0.31896561E-01 0.12500259E+03</pdfrwt>
<pdfrwt beam="2">  1       -4 0.28987278E-02 0.12500259E+03</pdfrwt>
<totfact> 0.85896325E+03</totfact>
</mgrwt>
</event>
<event>
 5    1  0.3259432E-002  0.1250051E+03  0.7818608E-02  0.1235061E+00
          4   -1    0    0  501    0  0.00000000000E+00  0.00000000000E+00  0.71177484455E+03  0.71177597756E+03  0.12700000000E+01 0. -1.
         -4   -1    0    0    0  501 -0.00000000000E+00 -0.00000000000E+00 -0.54138693827E+01  0.55608346220E+01  0.12700000000E+01 0. -1.
         25    2    1    2    0    0  0.00000000000E+00  0.00000000000E+00  0.70636097517E+03  0.71733681218E+03  0.12500509940E+03 0.  0.
    9000005    1    3    3    0    0 -0.42021415589E+02 -0.36354648474E+02  0.51731539078E+03  0.52029191169E+03  0.10000000000E+01 0.  0.
    9000005    1    3    3    0    0  0.42021415589E+02  0.36354648474E+02  0.18904558439E+03  0.19704490049E+03  0.10000000000E+01 0.  0.
<mgrwt>
<rscale>  0 0.12500510E+03</rscale>
<asrwt>0</asrwt>
<pdfrwt beam="1">  1        4 0.10951513E+00 0.12500510E+03</pdfrwt>
<pdfrwt beam="2">  1       -4 0.84429581E-03 0.12500510E+03</pdfrwt>
<totfact> 0.42182489E+03</totfact>
</mgrwt>
</event>
<event>
 5    1  0.3259432E-002  0.1249889E+03  0.7818608E-02  0.1235087E+00
         -4   -1    0    0    0  501 -0.00000000000E+00  0.00000000000E+00  0.21291995741E+03  0.21292374495E+03  0.12700000000E+01 0.  1.
          4   -1    0    0  501    0  0.00000000000E+00 -0.00000000000E+00 -0.18316907628E+02  0.18360882470E+02  0.12700000000E+01 0.  1.
         25    2    1    2    0    0  0.00000000000E+00  0.00000000000E+00  0.19460304978E+03  0.23128462742E+03  0.12498892709E+03 0.  0.
    9000005    1    3    3    0    0  0.32979649591E+02 -0.35517696410E+02  0.17028010804E+03  0.17704654541E+03  0.10000000000E+01 0.  0.
    9000005    1    3    3    0    0 -0.32979649591E+02  0.35517696410E+02  0.24322941738E+02  0.54238082011E+02  0.10000000000E+01 0.  0.
<mgrwt>
<rscale>  0 0.12498893E+03</rscale>
<asrwt>0</asrwt>
<pdfrwt beam="2">  1        4 0.28216602E-02 0.12498893E+03</pdfrwt>
<pdfrwt beam="1">  1       -4 0.32760586E-01 0.12498893E+03</pdfrwt>
<totfact> 0.85133763E+03</totfact>
</mgrwt>
</event>
<event>
 5    1  0.3259432E-002  0.1249942E+03  0.7818608E-02  0.1235078E+00
          4   -1    0    0  501    0  0.00000000000E+00  0.00000000000E+00  0.15096232359E+03  0.15096766556E+03  0.12700000000E+01 0. -1.
         -4   -1    0    0    0  501 -0.00000000000E+00 -0.00000000000E+00 -0.25851891321E+02  0.25883067532E+02  0.12700000000E+01 0. -1.
         25    2    1    2    0    0  0.00000000000E+00  0.00000000000E+00  0.12511043227E+03  0.17685073309E+03  0.12499424599E+03 0.  0.
    9000005    1    3    3    0    0  0.30240833978E+02  0.51412350328E+02  0.88917136274E+02  0.10707471657E+03  0.10000000000E+01 0.  0.
    9000005    1    3    3    0    0 -0.30240833978E+02 -0.51412350328E+02  0.36193295996E+02  0.69776016517E+02  0.10000000000E+01 0.  0.
<mgrwt>
<rscale>  0 0.12499425E+03</rscale>
<asrwt>0</asrwt>
<pdfrwt beam="1">  1        4 0.23227783E-01 0.12499425E+03</pdfrwt>
<pdfrwt beam="2">  1       -4 0.39800230E-02 0.12499425E+03</pdfrwt>
<totfact> 0.94199128E+03</totfact>
</mgrwt>
</event>
<event>
 5    1  0.3259432E-002  0.1249858E+03  0.7818608E-02  0.1235091E+00
          4   -1    0    0  501    0  0.00000000000E+00  0.00000000000E+00  0.80191560727E+02  0.80201616641E+02  0.12700000000E+01 0. -1.
         -4   -1    0    0    0  501 -0.00000000000E+00 -0.00000000000E+00 -0.48679020803E+02  0.48695584670E+02  0.12700000000E+01 0. -1.
         25    2    1    2    0    0  0.00000000000E+00  0.00000000000E+00  0.31512539924E+02  0.12889720131E+03  0.12498579253E+03 0.  0.
    9000005    1    3    3    0    0 -0.52201389119E+02 -0.29651475617E+02 -0.21112529941E+01  0.60080383000E+02  0.10000000000E+01 0.  0.
    9000005    1    3    3    0    0  0.52201389119E+02  0.29651475617E+02  0.33623792918E+02  0.68816818311E+02  0.10000000000E+01 0.  0.
<mgrwt>
<rscale>  0 0.12498579E+03</rscale>
<asrwt>0</asrwt>
<pdfrwt beam="1">  1        4 0.12339211E-01 0.12498579E+03</pdfrwt>
<pdfrwt beam="2">  1       -4 0.74911278E-02 0.12498579E+03</pdfrwt>
<totfact> 0.10371482E+04</totfact>
</mgrwt>
</event>
<event>
 5    1  0.3259432E-002  0.1249992E+03  0.7818608E-02  0.1235071E+00
          4   -1    0    0  501    0  0.00000000000E+00  0.00000000000E+00  0.21824476487E+02  0.21861396889E+02  0.12700000000E+01 0.  1.
         -4   -1    0    0    0  501 -0.00000000000E+00 -0.00000000000E+00 -0.17879196249E+03  0.17879647298E+03  0.12700000000E+01 0.  1.
         25    2    1    2    0    0  0.00000000000E+00  0.00000000000E+00 -0.15696748600E+03  0.20065786987E+03  0.12499915632E+03 0.  0.
    9000005    1    3    3    0    0 -0.41828147264E+02  0.17567995664E+02 -0.14747259316E+03  0.15429644878E+03  0.10000000000E+01 0.  0.
    9000005    1    3    3    0    0  0.41828147264E+02 -0.17567995664E+02 -0.94948928476E+01  0.46361421089E+02  0.10000000000E+01 0.  0.
<mgrwt>
<rscale>  0 0.12499916E+03</rscale>
<asrwt>0</asrwt>
<pdfrwt beam="1">  1        4 0.33607989E-02 0.12499916E+03</pdfrwt>
<pdfrwt beam="2">  1       -4 0.27509642E-01 0.12499916E+03</pdfrwt>
<totfact> 0.90026370E+03</totfact>
</mgrwt>
</event>
<event>
 5    1  0.3259432E-002  0.1250002E+03  0.7818608E-02  0.1235069E+00
         -4   -1    0    0    0  501 -0.00000000000E+00  0.00000000000E+00  0.12176466840E+02  0.12242517907E+02  0.12700000000E+01 0. -1.
          4   -1    0    0  501    0  0.00000000000E+00 -0.00000000000E+00 -0.31986902790E+03  0.31987154908E+03  0.12700000000E+01 0. -1.
         25    2    1    2    0    0  0.00000000000E+00  0.00000000000E+00 -0.30769256106E+03  0.33211406699E+03  0.12500016543E+03 0.  0.
    9000005    1    3    3    0    0  0.13279581782E+02 -0.58184683206E+02 -0.20308559971E+03  0.21167561376E+03  0.10000000000E+01 0.  0.
    9000005    1    3    3    0    0 -0.13279581782E+02  0.58184683206E+02 -0.10460696135E+03  0.12043845323E+03  0.10000000000E+01 0.  0.
<mgrwt>
<rscale>  0 0.12500017E+03</rscale>
<asrwt>0</asrwt>
<pdfrwt beam="2">  1        4 0.49215888E-01 0.12500017E+03</pdfrwt>
<pdfrwt beam="1">  1       -4 0.18785776E-02 0.12500017E+03</pdfrwt>
<totfact> 0.71737851E+03</totfact>
</mgrwt>
</event>
<event>
 5    1  0.3259432E-002  0.1250148E+03  0.7818608E-02  0.1235046E+00
          4   -1    0    0  501    0  0.00000000000E+00  0.00000000000E+00  0.13882844296E+03  0.13883425180E+03  0.12700000000E+01 0. -1.
         -4   -1    0    0    0  501 -0.00000000000E+00 -0.00000000000E+00 -0.28123189069E+02  0.28151850089E+02  0.12700000000E+01 0. -1.
         25    2    1    2    0    0  0.00000000000E+00  0.00000000000E+00  0.11070525389E+03  0.16698610189E+03  0.12501481907E+03 0.  0.
    9000005    1    3    3    0    0  0.56328519773E+02  0.10966264448E+02  0.22281085753E+02  0.61567912731E+02  0.10000000000E+01 0.  0.
    9000005    1    3    3    0    0 -0.56328519773E+02 -0.10966264448E+02  0.88424168134E+02  0.10541818916E+03  0.10000000000E+01 0.  0.
<mgrwt>
<rscale>  0 0.12501482E+03</rscale>
<asrwt>0</asrwt>
<pdfrwt beam="1">  1        4 0.21360874E-01 0.12501482E+03</pdfrwt>
<pdfrwt beam="2">  1       -4 0.43292959E-02 0.12501482E+03</pdfrwt>
<totfact> 0.95980623E+03</totfact>
</mgrwt>
</event>
<event>
 5    1  0.3259432E-002  0.1249987E+03  0.7818608E-02  0.1235071E+00
         -4   -1    0    0    0  501 -0.00000000000E+00  0.00000000000E+00  0.79571937608E+02  0.79582071817E+02  0.12700000000E+01 0.  1.
          4   -1    0    0  501    0  0.00000000000E+00 -0.00000000000E+00 -0.49068338855E+02  0.49084771345E+02  0.12700000000E+01 0.  1.
         25    2    1    2    0    0  0.00000000000E+00  0.00000000000E+00  0.30503598752E+02  0.12866684316E+03  0.12499874796E+03 0.  0.
    9000005    1    3    3    0    0  0.24631055834E+02  0.46159828930E+02  0.50426991977E+02  0.72672554918E+02  0.10000000000E+01 0.  0.
    9000005    1    3    3    0    0 -0.24631055834E+02 -0.46159828930E+02 -0.19923393225E+02  0.55994288244E+02  0.10000000000E+01 0.  0.
<mgrwt>
<rscale>  0 0.12499875E+03</rscale>
<asrwt>0</asrwt>
<pdfrwt beam="2">  1        4 0.75510189E-02 0.12499875E+03</pdfrwt>
<pdfrwt beam="1">  1       -4 0.12243880E-01 0.12499875E+03</pdfrwt>
<totfact> 0.10373405E+04</totfact>
</mgrwt>
</event>
<event>
 5    1  0.3259432E-002  0.1249784E+03  0.7818608E-02  0.1235103E+00
          4   -1    0    0  501    0  0.00000000000E+00  0.00000000000E+00  0.24659809053E+02  0.24692490408E+02  0.12700000000E+01 0.  1.
         -4   -1    0    0    0  501 -0.00000000000E+00 -0.00000000000E+00 -0.15821069737E+03  0.15821579460E+03  0.12700000000E+01 0.  1.
         25    2    1    2    0    0  0.00000000000E+00  0.00000000000E+00 -0.13355088831E+03  0.18290828501E+03  0.12497840196E+03 0.  0.
    9000005    1    3    3    0    0  0.54081163759E+01 -0.50823449992E+02 -0.14177668386E+02  0.53049760346E+02  0.10000000000E+01 0.  0.
    9000005    1    3    3    0    0 -0.54081163759E+01  0.50823449992E+02 -0.11937321993E+03  0.12985852466E+03  0.10000000000E+01 0.  0.
<mgrwt>
<rscale>  0 0.12497840E+03</rscale>
<asrwt>0</asrwt>
<pdfrwt beam="1">  1        4 0.37967229E-02 0.12497840E+03</pdfrwt>
<pdfrwt beam="2">  1       -4 0.24343013E-01 0.12497840E+03</pdfrwt>
<totfact> 0.93141192E+03</totfact>
</mgrwt>
</event>
<event>
 5    1  0.3259432E-002  0.1249997E+03  0.7818608E-02  0.1235070E+00
         -4   -1    0    0    0  501 -0.00000000000E+00  0.00000000000E+00  0.68327536836E+02  0.68339338526E+02  0.12700000000E+01 0.  1.
          4   -1    0    0  501    0  0.00000000000E+00 -0.00000000000E+00 -0.57145379194E+02  0.57159489704E+02  0.12700000000E+01 0.  1.
         25    2    1    2    0    0  0.00000000000E+00  0.00000000000E+00  0.11182157642E+02  0.12549882823E+03  0.12499966095E+03 0.  0.
    9000005    1    3    3    0    0 -0.39654413468E+02  0.44470858031E+02 -0.13328245156E+02  0.61063670382E+02  0.10000000000E+01 0.  0.
    9000005    1    3    3    0    0  0.39654413468E+02 -0.44470858031E+02  0.24510402799E+02  0.64435157848E+02  0.10000000000E+01 0.  0.
<mgrwt>
<rscale>  0 0.12499966E+03</rscale>
<asrwt>0</asrwt>
<pdfrwt beam="2">  1        4 0.87935901E-02 0.12499966E+03</pdfrwt>
<pdfrwt beam="1">  1       -4 0.10513922E-01 0.12499966E+03</pdfrwt>
<totfact> 0.10442060E+04</totfact>
</mgrwt>
</event>
<event>
 5    1  0.3259432E-002  0.1249999E+03  0.7818608E-02  0.1235069E+00
          4   -1    0    0  501    0  0.00000000000E+00  0.00000000000E+00  0.24945753848E+02  0.24978061075E+02  0.12700000000E+01 0.  1.
         -4   -1    0    0    0  501 -0.00000000000E+00 -0.00000000000E+00 -0.15645331253E+03  0.15645846701E+03  0.12700000000E+01 0.  1.
         25    2    1    2    0    0  0.00000000000E+00  0.00000000000E+00 -0.13150755868E+03  0.18143652809E+03  0.12499990294E+03 0.  0.
    9000005    1    3    3    0    0  0.43752613186E+02  0.38919259974E+02 -0.97429740282E+02  0.11367741310E+03  0.10000000000E+01 0.  0.
    9000005    1    3    3    0    0 -0.43752613186E+02 -0.38919259974E+02 -0.34077818396E+02  0.67759114990E+02  0.10000000000E+01 0.  0.
<mgrwt>
<rscale>  0 0.12499990E+03</rscale>
<asrwt>0</asrwt>
<pdfrwt beam="1">  1        4 0.38406900E-02 0.12499990E+03</pdfrwt>
<pdfrwt beam="2">  1       -4 0.24072621E-01 0.12499990E+03</pdfrwt>
<totfact> 0.93359264E+03</totfact>
</mgrwt>
</event>
<event>
 5    1  0.3259432E-002  0.1249993E+03  0.7818608E-02  0.1235070E+00
          4   -1    0    0  501    0  0.00000000000E+00  0.00000000000E+00  0.26766193953E+01  0.29626325096E+01  0.12700000000E+01 0.  1.
         -4   -1    0    0    0  501 -0.00000000000E+00 -0.00000000000E+00 -0.13850771821E+04  0.13850777644E+04  0.12700000000E+01 0.  1.
         25    2    1    2    0    0  0.00000000000E+00  0.00000000000E+00 -0.13824005627E+04  0.13880403969E+04  0.12499931010E+03 0.  0.
    9000005    1    3    3    0    0  0.18195651386E+02 -0.53434401795E+02 -0.39346817650E+03  0.39749782760E+03  0.10000000000E+01 0.  0.
    9000005    1    3    3    0    0 -0.18195651386E+02  0.53434401795E+02 -0.98893238622E+03  0.99054256927E+03  0.10000000000E+01 0.  0.
<mgrwt>
<rscale>  0 0.12499931E+03</rscale>
<asrwt>0</asrwt>
<pdfrwt beam="1">  1        4 0.43383450E-03 0.12499931E+03</pdfrwt>
<pdfrwt beam="2">  1       -4 0.21311030E+00 0.12499931E+03</pdfrwt>
<totfact> 0.20239414E+03</totfact>
</mgrwt>
</event>
<event>
 5    1  0.3259432E-002  0.1250001E+03  0.7818608E-02  0.1235069E+00
         -4   -1    0    0    0  501 -0.00000000000E+00  0.00000000000E+00  0.18621169705E+02  0.18664427695E+02  0.12700000000E+01 0. -1.
          4   -1    0    0  501    0  0.00000000000E+00 -0.00000000000E+00 -0.20948634318E+03  0.20949019280E+03  0.12700000000E+01 0. -1.
         25    2    1    2    0    0  0.00000000000E+00  0.00000000000E+00 -0.19086517348E+03  0.22815462049E+03  0.12500006563E+03 0.  0.
    9000005    1    3    3    0    0  0.45879418823E+02  0.27349082262E+02 -0.36221730139E+02  0.64543838639E+02  0.10000000000E+01 0.  0.
    9000005    1    3    3    0    0 -0.45879418823E+02 -0.27349082262E+02 -0.15464344334E+03  0.16361078186E+03  0.10000000000E+01 0.  0.
<mgrwt>
<rscale>  0 0.12500007E+03</rscale>
<asrwt>0</asrwt>
<pdfrwt beam="2">  1        4 0.32232290E-01 0.12500007E+03</pdfrwt>
<pdfrwt beam="1">  1       -4 0.28684191E-02 0.12500007E+03</pdfrwt>
<totfact> 0.85593640E+03</totfact>
</mgrwt>
</event>
<event>
 5    1  0.3259432E-002  0.1250008E+03  0.7818608E-02  0.1235068E+00
         -4   -1    0    0    0  501 -0.00000000000E+00  0.00000000000E+00  0.64138008826E+01  0.65383286673E+01  0.12700000000E+01 0.  1.
          4   -1    0    0  501    0  0.00000000000E+00 -0.00000000000E+00 -0.60306560111E+03  0.60306693836E+03  0.12700000000E+01 0.  1.
         25    2    1    2    0    0  0.00000000000E+00  0.00000000000E+00 -0.59665180023E+03  0.60960526702E+03  0.12500084348E+03 0.  0.
    9000005    1    3    3    0    0 -0.43336386459E+02  0.50627795319E+01 -0.80139581366E+02  0.91252543139E+02  0.10000000000E+01 0.  0.
    9000005    1    3    3    0    0  0.43336386459E+02 -0.50627795319E+01 -0.51651221886E+03  0.51835272389E+03  0.10000000000E+01 0.  0.
<mgrwt>
<rscale>  0 0.12500084E+03</rscale>
<asrwt>0</asrwt>
<pdfrwt beam="2">  1        4 0.92788961E-01 0.12500084E+03</pdfrwt>
<pdfrwt beam="1">  1       -4 0.99642100E-03 0.12500084E+03</pdfrwt>
<totfact> 0.48265982E+03</totfact>
</mgrwt>
</event>
<event>
 5    1  0.3259432E-002  0.1249988E+03  0.7818608E-02  0.1235071E+00
         -4   -1    0    0    0  501 -0.00000000000E+00  0.00000000000E+00  0.34395455932E+03  0.34395690395E+03  0.12700000000E+01 0. -1.
          4   -1    0    0  501    0  0.00000000000E+00 -0.00000000000E+00 -0.11318772206E+02  0.11389798253E+02  0.12700000000E+01 0. -1.
         25    2    1    2    0    0  0.00000000000E+00  0.00000000000E+00  0.33263578711E+03  0.35534670221E+03  0.12499884759E+03 0.  0.
    9000005    1    3    3    0    0  0.22175016757E+02  0.30593096439E+02  0.24818719253E+02  0.45217670697E+02  0.10000000000E+01 0.  0.
    9000005    1    3    3    0    0 -0.22175016757E+02 -0.30593096439E+02  0.30781706786E+03  0.31012903151E+03  0.10000000000E+01 0.  0.
<mgrwt>
<rscale>  0 0.12499885E+03</rscale>
<asrwt>0</asrwt>
<pdfrwt beam="2">  1        4 0.17469933E-02 0.12499885E+03</pdfrwt>
<pdfrwt beam="1">  1       -4 0.52921735E-01 0.12499885E+03</pdfrwt>
<totfact> 0.69142089E+03</totfact>
</mgrwt>
</event>
<event>
 5    1  0.3259432E-002  0.1250004E+03  0.7818608E-02  0.1235069E+00
          4   -1    0    0  501    0  0.00000000000E+00  0.00000000000E+00  0.51551778133E+02  0.51567419256E+02  0.12700000000E+01 0.  1.
         -4   -1    0    0    0  501 -0.00000000000E+00 -0.00000000000E+00 -0.75741352830E+02  0.75751999501E+02  0.12700000000E+01 0.  1.
         25    2    1    2    0    0  0.00000000000E+00  0.00000000000E+00 -0.24189574697E+02  0.12731941876E+03  0.12500039547E+03 0.  0.
    9000005    1    3    3    0    0  0.34114917972E+00  0.74819932636E+01  0.51097963926E+02  0.51653639981E+02  0.10000000000E+01 0.  0.
    9000005    1    3    3    0    0 -0.34114917972E+00 -0.74819932636E+01 -0.75287538622E+02  0.75665778776E+02  0.10000000000E+01 0.  0.
<mgrwt>
<rscale>  0 0.12500040E+03</rscale>
<asrwt>0</asrwt>
<pdfrwt beam="1">  1        4 0.79330649E-02 0.12500040E+03</pdfrwt>
<pdfrwt beam="2">  1       -4 0.11654538E-01 0.12500040E+03</pdfrwt>
<totfact> 0.10402121E+04</totfact>
</mgrwt>
</event>
<event>
 5    1  0.3259432E-002  0.1249979E+03  0.7818608E-02  0.1235073E+00
         -4   -1    0    0    0  501 -0.00000000000E+00  0.00000000000E+00  0.26717358981E+01  0.29582212070E+01  0.12700000000E+01 0. -1.
          4   -1    0    0  501    0  0.00000000000E+00 -0.00000000000E+00 -0.13873314993E+04  0.13873320806E+04  0.12700000000E+01 0. -1.
         25    2    1    2    0    0  0.00000000000E+00  0.00000000000E+00 -0.13846597634E+04  0.13902903018E+04  0.12499785159E+03 0.  0.
    9000005    1    3    3    0    0  0.31604036293E+02  0.30753651609E+02 -0.11848090519E+04  0.11856298291E+04  0.10000000000E+01 0.  0.
    9000005    1    3    3    0    0 -0.31604036293E+02 -0.30753651609E+02 -0.19985071150E+03  0.20466047269E+03  0.10000000000E+01 0.  0.
<mgrwt>
<rscale>  0 0.12499785E+03</rscale>
<asrwt>0</asrwt>
<pdfrwt beam="2">  1        4 0.21345715E+00 0.12499785E+03</pdfrwt>
<pdfrwt beam="1">  1       -4 0.43311945E-03 0.12499785E+03</pdfrwt>
<totfact> 0.20191276E+03</totfact>
</mgrwt>
</event>
<event>
 5    1  0.3259432E-002  0.1250013E+03  0.7818608E-02  0.1235067E+00
         -4   -1    0    0    0  501 -0.00000000000E+00  0.00000000000E+00  0.38529145274E+02  0.38550070500E+02  0.12700000000E+01 0.  1.
          4   -1    0    0  501    0  0.00000000000E+00 -0.00000000000E+00 -0.10133403843E+03  0.10134199645E+03  0.12700000000E+01 0.  1.
         25    2    1    2    0    0  0.00000000000E+00  0.00000000000E+00 -0.62804893152E+02  0.13989206695E+03  0.12500134316E+03 0.  0.
    9000005    1    3    3    0    0 -0.14096819378E+02  0.35792162559E+02  0.23714120047E+02  0.45201313109E+02  0.10000000000E+01 0.  0.
    9000005    1    3    3    0    0  0.14096819378E+02 -0.35792162559E+02 -0.86519013199E+02  0.94690753837E+02  0.10000000000E+01 0.  0.
<mgrwt>
<rscale>  0 0.12500134E+03</rscale>
<asrwt>0</asrwt>
<pdfrwt beam="2">  1        4 0.15592074E-01 0.12500134E+03</pdfrwt>
<pdfrwt beam="1">  1       -4 0.59297826E-02 0.12500134E+03</pdfrwt>
<totfact> 0.10135517E+04</totfact>
</mgrwt>
</event>
<event>
 5    1  0.3259432E-002  0.1250010E+03  0.7818608E-02  0.1235068E+00
         -4   -1    0    0    0  501 -0.00000000000E+00  0.00000000000E+00  0.26035133373E+02  0.26066090420E+02  0.12700000000E+01 0.  1.
          4   -1    0    0  501    0  0.00000000000E+00 -0.00000000000E+00 -0.14991736195E+03  0.14992274115E+03  0.12700000000E+01 0.  1.
         25    2    1    2    0    0  0.00000000000E+00  0.00000000000E+00 -0.12388222857E+03  0.17598883157E+03  0.12500104912E+03 0.  0.
    9000005    1    3    3    0    0 -0.65043891568E+01 -0.54733359546E+02 -0.10340290663E+03  0.11718024076E+03  0.10000000000E+01 0.  0.
    9000005    1    3    3    0    0  0.65043891568E+01  0.54733359546E+02 -0.20479321948E+02  0.58808590809E+02  0.10000000000E+01 0.  0.
<mgrwt>
<rscale>  0 0.12500105E+03</rscale>
<asrwt>0</asrwt>
<pdfrwt beam="2">  1        4 0.23067004E-01 0.12500105E+03</pdfrwt>
<pdfrwt beam="1">  1       -4 0.40082003E-02 0.12500105E+03</pdfrwt>
<totfact> 0.94341830E+03</totfact>
</mgrwt>
</event>
<event>
 5    1  0.3259432E-002  0.1249999E+03  0.7818608E-02  0.1235069E+00
          4   -1    0    0  501    0  0.00000000000E+00  0.00000000000E+00  0.43818012453E+03  0.43818196498E+03  0.12700000000E+01 0. -1.
         -4   -1    0    0    0  501 -0.00000000000E+00 -0.00000000000E+00 -0.88675994218E+01  0.89580812401E+01  0.12700000000E+01 0. -1.
         25    2    1    2    0    0  0.00000000000E+00  0.00000000000E+00  0.42931252511E+03  0.44714004622E+03  0.12499990687E+03 0.  0.
    9000005    1    3    3    0    0 -0.20352621609E+02 -0.58735099820E+02  0.19169485987E+03  0.20152409399E+03  0.10000000000E+01 0.  0.
    9000005    1    3    3    0    0  0.20352621609E+02  0.58735099820E+02  0.23761766523E+03  0.24561595223E+03  0.10000000000E+01 0.  0.
<mgrwt>
<rscale>  0 0.12499991E+03</rscale>
<asrwt>0</asrwt>
<pdfrwt beam="1">  1        4 0.67419449E-01 0.12499991E+03</pdfrwt>
<pdfrwt beam="2">  1       -4 0.13713474E-02 0.12499991E+03</pdfrwt>
<totfact> 0.60212466E+03</totfact>
</mgrwt>
</event>
<event>
 5    1  0.3259432E-002  0.1250054E+03  0.7818608E-02  0.1235061E+00
          4   -1    0    0  501    0  0.00000000000E+00  0.00000000000E+00  0.54066291153E+02  0.54081205044E+02  0.12700000000E+01 0. -1.
         -4   -1    0    0    0  501 -0.00000000000E+00 -0.00000000000E+00 -0.72225008958E+02  0.72236173895E+02  0.12700000000E+01 0. -1.
         25    2    1    2    0    0  0.00000000000E+00  0.00000000000E+00 -0.18158717806E+02  0.12631737894E+03  0.12500536464E+03 0.  0.
    9000005    1    3    3    0    0 -0.37644762464E+00  0.45476090788E+02  0.34235072453E+02  0.56932036079E+02  0.10000000000E+01 0.  0.
    9000005    1    3    3    0    0  0.37644762464E+00 -0.45476090788E+02 -0.52393790259E+02  0.69385342861E+02  0.10000000000E+01 0.  0.
<mgrwt>
<rscale>  0 0.12500536E+03</rscale>
<asrwt>0</asrwt>
<pdfrwt beam="1">  1        4 0.83198970E-02 0.12500536E+03</pdfrwt>
<pdfrwt beam="2">  1       -4 0.11113546E-01 0.12500536E+03</pdfrwt>
<totfact> 0.10422752E+04</totfact>
</mgrwt>
</event>
<event>
 5    1  0.3259432E-002  0.1250166E+03  0.7818608E-02  0.1235043E+00
          4   -1    0    0  501    0  0.00000000000E+00  0.00000000000E+00  0.25871298545E+03  0.25871610260E+03  0.12700000000E+01 0.  1.
         -4   -1    0    0    0  501 -0.00000000000E+00 -0.00000000000E+00 -0.15072882046E+02  0.15126290794E+02  0.12700000000E+01 0.  1.
         25    2    1    2    0    0  0.00000000000E+00  0.00000000000E+00  0.24364010341E+03  0.27384239339E+03  0.12501662461E+03 0.  0.
    9000005    1    3    3    0    0 -0.14840858023E+02 -0.56406895995E+02  0.72629980568E+02  0.93156336661E+02  0.10000000000E+01 0.  0.
    9000005    1    3    3    0    0  0.14840858023E+02  0.56406895995E+02  0.17101012284E+03  0.18068605673E+03  0.10000000000E+01 0.  0.
<mgrwt>
<rscale>  0 0.12501662E+03</rscale>
<asrwt>0</asrwt>
<pdfrwt beam="1">  1        4 0.39806344E-01 0.12501662E+03</pdfrwt>
<pdfrwt beam="2">  1       -4 0.23232532E-02 0.12501662E+03</pdfrwt>
<totfact> 0.78972508E+03</totfact>
</mgrwt>
</event>
<event>
 5    1  0.3259432E-002  0.1250039E+03  0.7818608E-02  0.1235063E+00
         -4   -1    0    0    0  501 -0.00000000000E+00  0.00000000000E+00  0.55608169493E+03  0.55608314517E+03  0.12700000000E+01 0.  1.
          4   -1    0    0  501    0  0.00000000000E+00 -0.00000000000E+00 -0.69661618047E+01  0.70809822969E+01  0.12700000000E+01 0.  1.
         25    2    1    2    0    0  0.00000000000E+00  0.00000000000E+00  0.54911553313E+03  0.56316412746E+03  0.12500386290E+03 0.  0.
    9000005    1    3    3    0    0 -0.38386400622E+02  0.13127429686E+02  0.60401010833E+02  0.72767625167E+02  0.10000000000E+01 0.  0.
    9000005    1    3    3    0    0  0.38386400622E+02 -0.13127429686E+02  0.48871452229E+03  0.49039650230E+03  0.10000000000E+01 0.  0.
<mgrwt>
<rscale>  0 0.12500386E+03</rscale>
<asrwt>0</asrwt>
<pdfrwt beam="2">  1        4 0.10806608E-02 0.12500386E+03</pdfrwt>
<pdfrwt beam="1">  1       -4 0.85559996E-01 0.12500386E+03</pdfrwt>
<totfact> 0.51274174E+03</totfact>
</mgrwt>
</event>
<event>
 5    1  0.3259432E-002  0.1249952E+03  0.7818608E-02  0.1235077E+00
         -4   -1    0    0    0  501 -0.00000000000E+00  0.00000000000E+00  0.25391951756E+02  0.25423691982E+02  0.12700000000E+01 0. -1.
          4   -1    0    0  501    0  0.00000000000E+00 -0.00000000000E+00 -0.15369594149E+03  0.15370118845E+03  0.12700000000E+01 0. -1.
         25    2    1    2    0    0  0.00000000000E+00  0.00000000000E+00 -0.12830398973E+03  0.17912488043E+03  0.12499523594E+03 0.  0.
    9000005    1    3    3    0    0  0.23224480144E+02  0.28220837307E+02 -0.13678901820E+03  0.14159105776E+03  0.10000000000E+01 0.  0.
    9000005    1    3    3    0    0 -0.23224480144E+02 -0.28220837307E+02  0.84850284681E+01  0.37533822672E+02  0.10000000000E+01 0.  0.
<mgrwt>
<rscale>  0 0.12499524E+03</rscale>
<asrwt>0</asrwt>
<pdfrwt beam="2">  1        4 0.23648374E-01 0.12499524E+03</pdfrwt>
<pdfrwt beam="1">  1       -4 0.39092994E-02 0.12499524E+03</pdfrwt>
<totfact> 0.93784784E+03</totfact>
</mgrwt>
</event>
<event>
 5    1  0.3259432E-002  0.1250007E+03  0.7818608E-02  0.1235068E+00
          4   -1    0    0  501    0  0.00000000000E+00  0.00000000000E+00  0.79833373292E+01  0.80837228374E+01  0.12700000000E+01 0.  1.
         -4   -1    0    0    0  501 -0.00000000000E+00 -0.00000000000E+00 -0.48614765968E+03  0.48614931854E+03  0.12700000000E+01 0.  1.
         25    2    1    2    0    0  0.00000000000E+00  0.00000000000E+00 -0.47816432235E+03  0.49423304137E+03  0.12500072006E+03 0.  0.
    9000005    1    3    3    0    0  0.20818067265E+02 -0.14959267944E+02 -0.46442072417E+03  0.46512877857E+03  0.10000000000E+01 0.  0.
    9000005    1    3    3    0    0 -0.20818067265E+02  0.14959267944E+02 -0.13743598185E+02  0.29104262800E+02  0.10000000000E+01 0.  0.
<mgrwt>
<rscale>  0 0.12500072E+03</rscale>
<asrwt>0</asrwt>
<pdfrwt beam="1">  1        4 0.12360557E-02 0.12500072E+03</pdfrwt>
<pdfrwt beam="2">  1       -4 0.74799774E-01 0.12500072E+03</pdfrwt>
<totfact> 0.56313722E+03</totfact>
</mgrwt>
</event>
<event>
 5    1  0.3259432E-002  0.1250084E+03  0.7818608E-02  0.1235056E+00
          4   -1    0    0  501    0  0.00000000000E+00  0.00000000000E+00  0.31548230647E+01  0.34008540941E+01  0.12700000000E+01 0.  1.
         -4   -1    0    0    0  501 -0.00000000000E+00 -0.00000000000E+00 -0.11916282859E+04  0.11916289626E+04  0.12700000000E+01 0.  1.
         25    2    1    2    0    0  0.00000000000E+00  0.00000000000E+00 -0.11884734628E+04  0.11950298167E+04  0.12500836402E+03 0.  0.
    9000005    1    3    3    0    0 -0.12186063649E+02 -0.12436323468E+02 -0.11680205860E+04  0.11681507830E+04  0.10000000000E+01 0.  0.
    9000005    1    3    3    0    0  0.12186063649E+02  0.12436323468E+02 -0.20452876745E+02  0.26879033759E+02  0.10000000000E+01 0.  0.
<mgrwt>
<rscale>  0 0.12500836E+03</rscale>
<asrwt>0</asrwt>
<pdfrwt beam="1">  1        4 0.50433587E-03 0.12500836E+03</pdfrwt>
<pdfrwt beam="2">  1       -4 0.18334606E+00 0.12500836E+03</pdfrwt>
<totfact> 0.24838739E+03</totfact>
</mgrwt>
</event>
<event>
 5    1  0.3259432E-002  0.1249964E+03  0.7818608E-02  0.1235075E+00
         -4   -1    0    0    0  501 -0.00000000000E+00  0.00000000000E+00  0.96138666011E+03  0.96138749895E+03  0.12700000000E+01 0. -1.
          4   -1    0    0  501    0  0.00000000000E+00 -0.00000000000E+00 -0.39628009235E+01  0.41613328585E+01  0.12700000000E+01 0. -1.
         25    2    1    2    0    0  0.00000000000E+00  0.00000000000E+00  0.95742385919E+03  0.96554883181E+03  0.12499640182E+03 0.  0.
    9000005    1    3    3    0    0 -0.24587123658E+02 -0.33856960017E+02  0.83723756849E+03  0.83828310641E+03  0.10000000000E+01 0.  0.
    9000005    1    3    3    0    0  0.24587123658E+02  0.33856960017E+02  0.12018629070E+03  0.12726572540E+03  0.10000000000E+01 0.  0.
<mgrwt>
<rscale>  0 0.12499640E+03</rscale>
<asrwt>0</asrwt>
<pdfrwt beam="2">  1        4 0.62499727E-03 0.12499640E+03</pdfrwt>
<pdfrwt beam="1">  1       -4 0.14792112E+00 0.12499640E+03</pdfrwt>
<totfact> 0.31772739E+03</totfact>
</mgrwt>
</event>
<event>
 5    1  0.3259432E-002  0.1250174E+03  0.7818608E-02  0.1235042E+00
         -4   -1    0    0    0  501 -0.00000000000E+00  0.00000000000E+00  0.62507960837E+02  0.62520861063E+02  0.12700000000E+01 0.  1.
          4   -1    0    0  501    0  0.00000000000E+00 -0.00000000000E+00 -0.62483617044E+02  0.62496522294E+02  0.12700000000E+01 0.  1.
         25    2    1    2    0    0  0.00000000000E+00  0.00000000000E+00  0.24343793223E-01  0.12501738336E+03  0.12501738099E+03 0.  0.
    9000005    1    3    3    0    0 -0.16943758178E+02 -0.54233615421E+02  0.26049845181E+02  0.62513761819E+02  0.10000000000E+01 0.  0.
    9000005    1    3    3    0    0  0.16943758178E+02  0.54233615421E+02 -0.26025501388E+02  0.62503621538E+02  0.10000000000E+01 0.  0.
<mgrwt>
<rscale>  0 0.12501738E+03</rscale>
<asrwt>0</asrwt>
<pdfrwt beam="2">  1        4 0.96148492E-02 0.12501738E+03</pdfrwt>
<pdfrwt beam="1">  1       -4 0.96185944E-02 0.12501738E+03</pdfrwt>
<totfact> 0.10448380E+04</totfact>
</mgrwt>
</event>
<event>
 5    1  0.3259432E-002  0.1249963E+03  0.7818608E-02  0.1235075E+00
         -4   -1    0    0    0  501 -0.00000000000E+00  0.00000000000E+00  0.30634017748E+02  0.30660331756E+02  0.12700000000E+01 0.  1.
          4   -1    0    0  501    0  0.00000000000E+00 -0.00000000000E+00 -0.12742168496E+03  0.12742801379E+03  0.12700000000E+01 0.  1.
         25    2    1    2    0    0  0.00000000000E+00  0.00000000000E+00 -0.96787667209E+02  0.15808834554E+03  0.12499628983E+03 0.  0.
    9000005    1    3    3    0    0  0.36426291981E+02 -0.47032949779E+02 -0.24196362781E+02  0.64229565500E+02  0.10000000000E+01 0.  0.
    9000005    1    3    3    0    0 -0.36426291981E+02  0.47032949779E+02 -0.72591304428E+02  0.93858780042E+02  0.10000000000E+01 0.  0.
<mgrwt>
<rscale>  0 0.12499629E+03</rscale>
<asrwt>0</asrwt>
<pdfrwt beam="2">  1        4 0.19605847E-01 0.12499629E+03</pdfrwt>
<pdfrwt beam="1">  1       -4 0.47154368E-02 0.12499629E+03</pdfrwt>
<totfact> 0.97720759E+03</totfact>
</mgrwt>
</event>
<event>
 5    1  0.3259432E-002  0.1250020E+03  0.7818608E-02  0.1235066E+00
          4   -1    0    0  501    0  0.00000000000E+00  0.00000000000E+00  0.15687760728E+03  0.15688274783E+03  0.12700000000E+01 0. -1.
         -4   -1    0    0    0  501 -0.00000000000E+00 -0.00000000000E+00 -0.24879053133E+02  0.24911446863E+02  0.12700000000E+01 0. -1.
         25    2    1    2    0    0  0.00000000000E+00  0.00000000000E+00  0.13199855415E+03  0.18179419469E+03  0.12500204369E+03 0.  0.
    9000005    1    3    3    0    0  0.20070007849E+02  0.58963548802E+02  0.73396717923E+02  0.96268289194E+02  0.10000000000E+01 0.  0.
    9000005    1    3    3    0    0 -0.20070007849E+02 -0.58963548802E+02  0.58601836223E+02  0.85525905497E+02  0.10000000000E+01 0.  0.
<mgrwt>
<rscale>  0 0.12500204E+03</rscale>
<asrwt>0</asrwt>
<pdfrwt beam="1">  1        4 0.24137904E-01 0.12500204E+03</pdfrwt>
<pdfrwt beam="2">  1       -4 0.38304339E-02 0.12500204E+03</pdfrwt>
<totfact> 0.93290761E+03</totfact>
</mgrwt>
</event>
<event>
 5    1  0.3259432E-002  0.1250000E+03  0.7818608E-02  0.1235069E+00
          4   -1    0    0  501    0  0.00000000000E+00  0.00000000000E+00  0.15950830783E+02  0.16001309405E+02  0.12700000000E+01 0.  1.
         -4   -1    0    0    0  501 -0.00000000000E+00 -0.00000000000E+00 -0.24445405402E+03  0.24445735299E+03  0.12700000000E+01 0.  1.
         25    2    1    2    0    0  0.00000000000E+00  0.00000000000E+00 -0.22850322324E+03  0.26045866239E+03  0.12499996713E+03 0.  0.
    9000005    1    3    3    0    0 -0.33926814028E+02  0.52261445397E+02 -0.12423596975E+03  0.13898871740E+03  0.10000000000E+01 0.  0.
    9000005    1    3    3    0    0  0.33926814028E+02 -0.52261445397E+02 -0.10426725349E+03  0.12146994499E+03  0.10000000000E+01 0.  0.
<mgrwt>
<rscale>  0 0.12499997E+03</rscale>
<asrwt>0</asrwt>
<pdfrwt beam="1">  1        4 0.24581109E-02 0.12499997E+03</pdfrwt>
<pdfrwt beam="2">  1       -4 0.37612450E-01 0.12499997E+03</pdfrwt>
<totfact> 0.80841797E+03</totfact>
</mgrwt>
</event>
<event>
 5    1  0.3259432E-002  0.1250015E+03  0.7818608E-02  0.1235067E+00
         -4   -1    0    0    0  501 -0.00000000000E+00  0.00000000000E+00  0.36735569987E+02  0.36757516269E+02  0.12700000000E+01 0.  1.
          4   -1    0    0  501    0  0.00000000000E+00 -0.00000000000E+00 -0.10627938909E+03  0.10628697684E+03  0.12700000000E+01 0.  1.
         25    2    1    2    0    0  0.00000000000E+00  0.00000000000E+00 -0.69543819100E+02  0.14304449310E+03  0.12500153692E+03 0.  0.
    9000005    1    3    3    0    0  0.45012791146E+02  0.43234952784E+02 -0.38378592878E+02  0.73275704707E+02  0.10000000000E+01 0.  0.
    9000005    1    3    3    0    0 -0.45012791146E+02 -0.43234952784E+02 -0.31165226222E+02  0.69768788398E+02  0.10000000000E+01 0.  0.
<mgrwt>
<rscale>  0 0.12500154E+03</rscale>
<asrwt>0</asrwt>
<pdfrwt beam="2">  1        4 0.16352947E-01 0.12500154E+03</pdfrwt>
<pdfrwt beam="1">  1       -4 0.56538980E-02 0.12500154E+03</pdfrwt>
<totfact> 0.10070524E+04</totfact>
</mgrwt>
</event>
<event>
 5    1  0.3259432E-002  0.1249975E+03  0.7818608E-02  0.1235073E+00
          4   -1    0    0  501    0  0.00000000000E+00  0.00000000000E+00  0.12847965985E+03  0.12848593657E+03  0.12700000000E+01 0.  1.
         -4   -1    0    0    0  501 -0.00000000000E+00 -0.00000000000E+00 -0.30382166514E+02  0.30408698461E+02  0.12700000000E+01 0.  1.
         25    2    1    2    0    0  0.00000000000E+00  0.00000000000E+00  0.98097493339E+02  0.15889463503E+03  0.12499754734E+03 0.  0.
    9000005    1    3    3    0    0 -0.42010917142E+02 -0.32545141412E+02  0.72542357233E+01  0.53644452878E+02  0.10000000000E+01 0.  0.
    9000005    1    3    3    0    0  0.42010917142E+02  0.32545141412E+02  0.90843257616E+02  0.10525018215E+03  0.10000000000E+01 0.  0.
<mgrwt>
<rscale>  0 0.12499755E+03</rscale>
<asrwt>0</asrwt>
<pdfrwt beam="1">  1        4 0.19768625E-01 0.12499755E+03</pdfrwt>
<pdfrwt beam="2">  1       -4 0.46767032E-02 0.12499755E+03</pdfrwt>
<totfact> 0.97561693E+03</totfact>
</mgrwt>
</event>
<event>
 5    1  0.3259432E-002  0.1249946E+03  0.7818608E-02  0.1235078E+00
         -4   -1    0    0    0  501 -0.00000000000E+00  0.00000000000E+00  0.38741354443E+03  0.38741562605E+03  0.12700000000E+01 0.  1.
          4   -1    0    0  501    0  0.00000000000E+00 -0.00000000000E+00 -0.10039913120E+02  0.10119918748E+02  0.12700000000E+01 0.  1.
         25    2    1    2    0    0  0.00000000000E+00  0.00000000000E+00  0.37737363131E+03  0.39753554479E+03  0.12499460696E+03 0.  0.
    9000005    1    3    3    0    0 -0.14559039928E+02 -0.52803780034E+02  0.93024930851E+02  0.10795759626E+03  0.10000000000E+01 0.  0.
    9000005    1    3    3    0    0  0.14559039928E+02  0.52803780034E+02  0.28434870045E+03  0.28957794854E+03  0.10000000000E+01 0.  0.
<mgrwt>
<rscale>  0 0.12499461E+03</rscale>
<asrwt>0</asrwt>
<pdfrwt beam="2">  1        4 0.15509167E-02 0.12499461E+03</pdfrwt>
<pdfrwt beam="1">  1       -4 0.59608386E-01 0.12499461E+03</pdfrwt>
<totfact> 0.64800908E+03</totfact>
</mgrwt>
</event>
<event>
 5    1  0.3259432E-002  0.1250001E+03  0.7818608E-02  0.1235069E+00
         -4   -1    0    0    0  501 -0.00000000000E+00  0.00000000000E+00  0.19205366195E+03  0.19205786099E+03  0.12700000000E+01 0. -1.
          4   -1    0    0  501    0  0.00000000000E+00 -0.00000000000E+00 -0.20315149319E+02  0.20354807586E+02  0.12700000000E+01 0. -1.
         25    2    1    2    0    0  0.00000000000E+00  0.00000000000E+00  0.17173851263E+03  0.21241266858E+03  0.12500010021E+03 0.  0.
    9000005    1    3    3    0    0  0.17014206990E+02  0.60062304948E+02  0.80975818861E+02  0.10224992399E+03  0.10000000000E+01 0.  0.
    9000005    1    3    3    0    0 -0.17014206990E+02 -0.60062304948E+02  0.90762693770E+02  0.11016274459E+03  0.10000000000E+01 0.  0.
<mgrwt>
<rscale>  0 0.12500010E+03</rscale>
<asrwt>0</asrwt>
<pdfrwt beam="2">  1        4 0.31287814E-02 0.12500010E+03</pdfrwt>
<pdfrwt beam="1">  1       -4 0.29550089E-01 0.12500010E+03</pdfrwt>
<totfact> 0.88083174E+03</totfact>
</mgrwt>
</event>
<event>
 5    1  0.3259432E-002  0.1249926E+03  0.7818608E-02  0.1235081E+00
          4   -1    0    0  501    0  0.00000000000E+00  0.00000000000E+00  0.11145013171E+03  0.11145736745E+03  0.12700000000E+01 0. -1.
         -4   -1    0    0    0  501 -0.00000000000E+00 -0.00000000000E+00 -0.35025300672E+02  0.35048317893E+02  0.12700000000E+01 0. -1.
         25    2    1    2    0    0  0.00000000000E+00  0.00000000000E+00  0.76424831043E+02  0.14650568534E+03  0.12499264394E+03 0.  0.
    9000005    1    3    3    0    0  0.75985914543E+01 -0.89869508688E+01  0.11014517047E+03  0.11077663317E+03  0.10000000000E+01 0.  0.
    9000005    1    3    3    0    0 -0.75985914543E+01  0.89869508688E+01 -0.33720339430E+02  0.35729052175E+02  0.10000000000E+01 0.  0.
<mgrwt>
<rscale>  0 0.12499264E+03</rscale>
<asrwt>0</asrwt>
<pdfrwt beam="1">  1        4 0.17148501E-01 0.12499264E+03</pdfrwt>
<pdfrwt beam="2">  1       -4 0.53908350E-02 0.12499264E+03</pdfrwt>
<totfact> 0.10002142E+04</totfact>
</mgrwt>
</event>
<event>
 5    1  0.3259432E-002  0.1250023E+03  0.7818608E-02  0.1235066E+00
          4   -1    0    0  501    0  0.00000000000E+00  0.00000000000E+00  0.51960588568E+02  0.51976106667E+02  0.12700000000E+01 0.  1.
         -4   -1    0    0    0  501 -0.00000000000E+00 -0.00000000000E+00 -0.75147864783E+02  0.75158595526E+02  0.12700000000E+01 0.  1.
         25    2    1    2    0    0  0.00000000000E+00  0.00000000000E+00 -0.23187276216E+02  0.12713470219E+03  0.12500233087E+03 0.  0.
    9000005    1    3    3    0    0  0.34101991410E+02 -0.51057291547E+02  0.24987093013E+00  0.61407290070E+02  0.10000000000E+01 0.  0.
    9000005    1    3    3    0    0 -0.34101991410E+02  0.51057291547E+02 -0.23437147146E+02  0.65727412124E+02  0.10000000000E+01 0.  0.
<mgrwt>
<rscale>  0 0.12500233E+03</rscale>
<asrwt>0</asrwt>
<pdfrwt beam="1">  1        4 0.79959559E-02 0.12500233E+03</pdfrwt>
<pdfrwt beam="2">  1       -4 0.11563229E-01 0.12500233E+03</pdfrwt>
<totfact> 0.10405673E+04</totfact>
</mgrwt>
</event>
<event>
 5    1  0.3259432E-002  0.1249995E+03  0.7818608E-02  0.1235070E+00
         -4   -1    0    0    0  501 -0.00000000000E+00  0.00000000000E+00  0.43696524026E+03  0.43696708582E+03  0.12700000000E+01 0.  1.
          4   -1    0    0  501    0  0.00000000000E+00 -0.00000000000E+00 -0.88924403395E+01  0.89826719406E+01  0.12700000000E+01 0.  1.
         25    2    1    2    0    0  0.00000000000E+00  0.00000000000E+00  0.42807279992E+03  0.44594975776E+03  0.12499945768E+03 0.  0.
    9000005    1    3    3    0    0  0.62312085671E+02  0.68290654840E+00  0.19732041799E+03  0.20692899685E+03  0.10000000000E+01 0.  0.
    9000005    1    3    3    0    0 -0.62312085671E+02 -0.68290654840E+00  0.23075238193E+03  0.23902076091E+03  0.10000000000E+01 0.  0.
<mgrwt>
<rscale>  0 0.12499946E+03</rscale>
<asrwt>0</asrwt>
<pdfrwt beam="2">  1        4 0.13751512E-02 0.12499946E+03</pdfrwt>
<pdfrwt beam="1">  1       -4 0.67232474E-01 0.12499946E+03</pdfrwt>
<totfact> 0.60317016E+03</totfact>
</mgrwt>
</event>
<event>
 5    1  0.3259432E-002  0.1249982E+03  0.7818608E-02  0.1235072E+00
          4   -1    0    0  501    0  0.00000000000E+00  0.00000000000E+00  0.69224388448E+02  0.69236037264E+02  0.12700000000E+01 0.  1.
         -4   -1    0    0    0  501 -0.00000000000E+00 -0.00000000000E+00 -0.56403669521E+02  0.56417965538E+02  0.12700000000E+01 0.  1.
         25    2    1    2    0    0  0.00000000000E+00  0.00000000000E+00  0.12820718927E+02  0.12565400280E+03  0.12499823033E+03 0.  0.
    9000005    1    3    3    0    0 -0.40004754919E+02  0.43171758855E+02  0.27519530742E+02  0.64980810637E+02  0.10000000000E+01 0.  0.
    9000005    1    3    3    0    0  0.40004754919E+02 -0.43171758855E+02 -0.14698811815E+02  0.60673192165E+02  0.10000000000E+01 0.  0.
<mgrwt>
<rscale>  0 0.12499823E+03</rscale>
<asrwt>0</asrwt>
<pdfrwt beam="1">  1        4 0.10651902E-01 0.12499823E+03</pdfrwt>
<pdfrwt beam="2">  1       -4 0.86794834E-02 0.12499823E+03</pdfrwt>
<totfact> 0.10438974E+04</totfact>
</mgrwt>
</event>
<event>
 5    1  0.3259432E-002  0.1249968E+03  0.7818608E-02  0.1235074E+00
         -4   -1    0    0    0  501 -0.00000000000E+00  0.00000000000E+00  0.49168425302E+01  0.50782123298E+01  0.12700000000E+01 0. -1.
          4   -1    0    0  501    0  0.00000000000E+00 -0.00000000000E+00 -0.78143442014E+03  0.78143545216E+03  0.12700000000E+01 0. -1.
         25    2    1    2    0    0  0.00000000000E+00  0.00000000000E+00 -0.77651757761E+03  0.78651366449E+03  0.12499678428E+03 0.  0.
    9000005    1    3    3    0    0 -0.45968160345E+02 -0.26241001768E+02 -0.17924671265E+03  0.18690116622E+03  0.10000000000E+01 0.  0.
    9000005    1    3    3    0    0  0.45968160345E+02  0.26241001768E+02 -0.59727086496E+03  0.59961249826E+03  0.10000000000E+01 0.  0.
<mgrwt>
<rscale>  0 0.12499678E+03</rscale>
<asrwt>0</asrwt>
<pdfrwt beam="2">  1        4 0.12023308E+00 0.12499678E+03</pdfrwt>
<pdfrwt beam="1">  1       -4 0.76893038E-03 0.12499678E+03</pdfrwt>
<totfact> 0.38876689E+03</totfact>
</mgrwt>
</event>
<event>
 5    1  0.3259432E-002  0.1249997E+03  0.7818608E-02  0.1235070E+00
          4   -1    0    0  501    0  0.00000000000E+00  0.00000000000E+00  0.20312028166E+03  0.20312425193E+03  0.12700000000E+01 0. -1.
         -4   -1    0    0    0  501 -0.00000000000E+00 -0.00000000000E+00 -0.19206007055E+02  0.19247950722E+02  0.12700000000E+01 0. -1.
         25    2    1    2    0    0  0.00000000000E+00  0.00000000000E+00  0.18391427461E+03  0.22237220265E+03  0.12499974443E+03 0.  0.
    9000005    1    3    3    0    0  0.55822938460E+02  0.26592202713E+02  0.75858750309E+02  0.97871833036E+02  0.10000000000E+01 0.  0.
    9000005    1    3    3    0    0 -0.55822938460E+02 -0.26592202713E+02  0.10805552430E+03  0.12450036962E+03  0.10000000000E+01 0.  0.
<mgrwt>
<rscale>  0 0.12499974E+03</rscale>
<asrwt>0</asrwt>
<pdfrwt beam="1">  1        4 0.31252806E-01 0.12499974E+03</pdfrwt>
<pdfrwt beam="2">  1       -4 0.29583022E-02 0.12499974E+03</pdfrwt>
<totfact> 0.86494859E+03</totfact>
</mgrwt>
</event>
<event>
 5    1  0.3259432E-002  0.1249992E+03  0.7818608E-02  0.1235070E+00
          4   -1    0    0  501    0  0.00000000000E+00  0.00000000000E+00  0.73076670313E+01  0.74172028043E+01  0.12700000000E+01 0.  1.
         -4   -1    0    0    0  501 -0.00000000000E+00 -0.00000000000E+00 -0.53044809890E+03  0.53044961922E+03  0.12700000000E+01 0.  1.
         25    2    1    2    0    0  0.00000000000E+00  0.00000000000E+00 -0.52314043187E+03  0.53786682202E+03  0.12499922710E+03 0.  0.
    9000005    1    3    3    0    0  0.25228088154E+01 -0.61261059914E+02 -0.20959164394E+03  0.21837797333E+03  0.10000000000E+01 0.  0.
    9000005    1    3    3    0    0 -0.25228088154E+01  0.61261059914E+02 -0.31354878793E+03  0.31948884869E+03  0.10000000000E+01 0.  0.
<mgrwt>
<rscale>  0 0.12499923E+03</rscale>
<asrwt>0</asrwt>
<pdfrwt beam="1">  1        4 0.11327997E-02 0.12499923E+03</pdfrwt>
<pdfrwt beam="2">  1       -4 0.81615912E-01 0.12499923E+03</pdfrwt>
<totfact> 0.53042494E+03</totfact>
</mgrwt>
</event>
<event>
 5    1  0.3259432E-002  0.1249990E+03  0.7818608E-02  0.1235071E+00
         -4   -1    0    0    0  501 -0.00000000000E+00  0.00000000000E+00  0.17047982518E+03  0.17048455559E+03  0.12700000000E+01 0.  1.
          4   -1    0    0  501    0  0.00000000000E+00 -0.00000000000E+00 -0.22890253756E+02  0.22925457837E+02  0.12700000000E+01 0.  1.
         25    2    1    2    0    0  0.00000000000E+00  0.00000000000E+00  0.14758957142E+03  0.19341001342E+03  0.12499900679E+03 0.  0.
    9000005    1    3    3    0    0  0.41362491588E+02  0.34555476626E+02  0.24858957362E+02  0.59362483408E+02  0.10000000000E+01 0.  0.
    9000005    1    3    3    0    0 -0.41362491588E+02 -0.34555476626E+02  0.12273061406E+03  0.13404753001E+03  0.10000000000E+01 0.  0.
<mgrwt>
<rscale>  0 0.12499901E+03</rscale>
<asrwt>0</asrwt>
<pdfrwt beam="2">  1        4 0.35246494E-02 0.12499901E+03</pdfrwt>
<pdfrwt beam="1">  1       -4 0.26230738E-01 0.12499901E+03</pdfrwt>
<totfact> 0.91259375E+03</totfact>
</mgrwt>
</event>
<event>
 5    1  0.3259432E-002  0.1250099E+03  0.7818608E-02  0.1235054E+00
         -4   -1    0    0    0  501 -0.00000000000E+00  0.00000000000E+00  0.93031192822E+02  0.93039861016E+02  0.12700000000E+01 0. -1.
          4   -1    0    0  501    0  0.00000000000E+00 -0.00000000000E+00 -0.41975056817E+02  0.41994265022E+02  0.12700000000E+01 0. -1.
         25    2    1    2    0    0  0.00000000000E+00  0.00000000000E+00  0.51056136005E+02  0.13503412604E+03  0.12500994429E+03 0.  0.
    9000005    1    3    3    0    0 -0.50978820762E+02  0.22959117255E+02  0.55694316722E+02  0.78922862002E+02  0.10000000000E+01 0.  0.
    9000005    1    3    3    0    0  0.50978820762E+02 -0.22959117255E+02 -0.46381807166E+01  0.56111264036E+02  0.10000000000E+01 0.  0.
<mgrwt>
<rscale>  0 0.12500994E+03</rscale>
<asrwt>0</asrwt>
<pdfrwt beam="2">  1        4 0.64598455E-02 0.12500994E+03</pdfrwt>
<pdfrwt beam="1">  1       -4 0.14314635E-01 0.12500994E+03</pdfrwt>
<totfact> 0.10235056E+04</totfact>
</mgrwt>
</event>
<event>
 5    1  0.3259432E-002  0.1249985E+03  0.7818608E-02  0.1235072E+00
          4   -1    0    0  501    0  0.00000000000E+00  0.00000000000E+00  0.22522490991E+03  0.22522849052E+03  0.12700000000E+01 0.  1.
         -4   -1    0    0    0  501 -0.00000000000E+00 -0.00000000000E+00 -0.17316395071E+02  0.17362904085E+02  0.12700000000E+01 0.  1.
         25    2    1    2    0    0  0.00000000000E+00  0.00000000000E+00  0.20790851484E+03  0.24259139461E+03  0.12499853677E+03 0.  0.
    9000005    1    3    3    0    0  0.56079031605E+02 -0.19822704184E+02  0.66756472240E+02  0.89416016311E+02  0.10000000000E+01 0.  0.
    9000005    1    3    3    0    0 -0.56079031605E+02  0.19822704184E+02  0.14115204260E+03  0.15317537830E+03  0.10000000000E+01 0.  0.
<mgrwt>
<rscale>  0 0.12499854E+03</rscale>
<asrwt>0</asrwt>
<pdfrwt beam="1">  1        4 0.34653837E-01 0.12499854E+03</pdfrwt>
<pdfrwt beam="2">  1       -4 0.26679140E-02 0.12499854E+03</pdfrwt>
<totfact> 0.83415654E+03</totfact>
</mgrwt>
</event>
<event>
 5    1  0.3259432E-002  0.1250276E+03  0.7818608E-02  0.1235026E+00
          4   -1    0    0  501    0  0.00000000000E+00  0.00000000000E+00  0.18229294835E+02  0.18273480516E+02  0.12700000000E+01 0. -1.
         -4   -1    0    0    0  501 -0.00000000000E+00 -0.00000000000E+00 -0.21407320382E+03  0.21407697095E+03  0.12700000000E+01 0. -1.
         25    2    1    2    0    0  0.00000000000E+00  0.00000000000E+00 -0.19584390898E+03  0.23235045147E+03  0.12502757941E+03 0.  0.
    9000005    1    3    3    0    0  0.44697365623E+02 -0.42862489938E+02 -0.11368288144E+03  0.12945982029E+03  0.10000000000E+01 0.  0.
    9000005    1    3    3    0    0 -0.44697365623E+02  0.42862489938E+02 -0.82161027540E+02  0.10289063118E+03  0.10000000000E+01 0.  0.
<mgrwt>
<rscale>  0 0.12502758E+03</rscale>
<asrwt>0</asrwt>
<pdfrwt beam="1">  1        4 0.28081957E-02 0.12502758E+03</pdfrwt>
<pdfrwt beam="2">  1       -4 0.32938026E-01 0.12502758E+03</pdfrwt>
<totfact> 0.84897744E+03</totfact>
</mgrwt>
</event>
<event>
 5    1  0.3259432E-002  0.1250038E+03  0.7818608E-02  0.1235063E+00
         -4   -1    0    0    0  501 -0.00000000000E+00  0.00000000000E+00  0.32328577063E+01  0.34733656516E+01  0.12700000000E+01 0.  1.
          4   -1    0    0  501    0  0.00000000000E+00 -0.00000000000E+00 -0.11647922827E+04  0.11647929751E+04  0.12700000000E+01 0.  1.
         25    2    1    2    0    0  0.00000000000E+00  0.00000000000E+00 -0.11615594250E+04  0.11682663408E+04  0.12500378009E+03 0.  0.
    9000005    1    3    3    0    0 -0.36532928732E+02 -0.27695509432E+02 -0.18385172540E+03  0.18948391240E+03  0.10000000000E+01 0.  0.
    9000005    1    3    3    0    0  0.36532928732E+02  0.27695509432E+02 -0.97770769964E+03  0.97878242835E+03  0.10000000000E+01 0.  0.
<mgrwt>
<rscale>  0 0.12500378E+03</rscale>
<asrwt>0</asrwt>
<pdfrwt beam="2">  1        4 0.17921704E+00 0.12500378E+03</pdfrwt>
<pdfrwt beam="1">  1       -4 0.51591752E-03 0.12500378E+03</pdfrwt>
<totfact> 0.25556760E+03</totfact>
</mgrwt>
</event>
<event>
 5    1  0.3259432E-002  0.1250015E+03  0.7818608E-02  0.1235067E+00
          4   -1    0    0  501    0  0.00000000000E+00  0.00000000000E+00  0.75923205217E+02  0.75933826392E+02  0.12700000000E+01 0. -1.
         -4   -1    0    0    0  501 -0.00000000000E+00 -0.00000000000E+00 -0.51429173884E+02  0.51444852283E+02  0.12700000000E+01 0. -1.
         25    2    1    2    0    0  0.00000000000E+00  0.00000000000E+00  0.24494031333E+02  0.12737867867E+03  0.12500148083E+03 0.  0.
    9000005    1    3    3    0    0  0.52129558613E+02  0.28265927996E+02  0.32342311462E+02  0.67553524537E+02  0.10000000000E+01 0.  0.
    9000005    1    3    3    0    0 -0.52129558613E+02 -0.28265927996E+02 -0.78482801289E+01  0.59825154138E+02  0.10000000000E+01 0.  0.
<mgrwt>
<rscale>  0 0.12500148E+03</rscale>
<asrwt>0</asrwt>
<pdfrwt beam="1">  1        4 0.11682516E-01 0.12500148E+03</pdfrwt>
<pdfrwt beam="2">  1       -4 0.79142036E-02 0.12500148E+03</pdfrwt>
<totfact> 0.10400581E+04</totfact>
</mgrwt>
</event>
<event>
 5    1  0.3259432E-002  0.1250060E+03  0.7818608E-02  0.1235060E+00
          4   -1    0    0  501    0  0.00000000000E+00  0.00000000000E+00  0.29929253452E+03  0.29929522903E+03  0.12700000000E+01 0. -1.
         -4   -1    0    0    0  501 -0.00000000000E+00 -0.00000000000E+00 -0.13019220501E+02  0.13081016874E+02  0.12700000000E+01 0. -1.
         25    2    1    2    0    0  0.00000000000E+00  0.00000000000E+00  0.28627331402E+03  0.31237624591E+03  0.12500603459E+03 0.  0.
    9000005    1    3    3    0    0  0.27399129763E+02 -0.36585774232E+02  0.36635999527E+02  0.58586923876E+02  0.10000000000E+01 0.  0.
    9000005    1    3    3    0    0 -0.27399129763E+02  0.36585774232E+02  0.24963731450E+03  0.25378932203E+03  0.10000000000E+01 0.  0.
<mgrwt>
<rscale>  0 0.12500603E+03</rscale>
<asrwt>0</asrwt>
<pdfrwt beam="1">  1        4 0.46049963E-01 0.12500603E+03</pdfrwt>
<pdfrwt beam="2">  1       -4 0.20079180E-02 0.12500603E+03</pdfrwt>
<totfact> 0.74062228E+03</totfact>
</mgrwt>
</event>
<event>
 5    1  0.3259432E-002  0.1249958E+03  0.7818608E-02  0.1235076E+00
         -4   -1    0    0    0  501 -0.00000000000E+00  0.00000000000E+00  0.26885929868E+01  0.29734545983E+01  0.12700000000E+01 0.  1.
          4   -1    0    0  501    0  0.00000000000E+00 -0.00000000000E+00 -0.13794224748E+04  0.13794230595E+04  0.12700000000E+01 0.  1.
         25    2    1    2    0    0  0.00000000000E+00  0.00000000000E+00 -0.13767338818E+04  0.13823965141E+04  0.12499576257E+03 0.  0.
    9000005    1    3    3    0    0 -0.12668239856E+02 -0.58266364157E+02 -0.89513364592E+03  0.89711799533E+03  0.10000000000E+01 0.  0.
    9000005    1    3    3    0    0  0.12668239856E+02  0.58266364157E+02 -0.48160023593E+03  0.48527851873E+03  0.10000000000E+01 0.  0.
<mgrwt>
<rscale>  0 0.12499576E+03</rscale>
<asrwt>0</asrwt>
<pdfrwt beam="2">  1        4 0.21224026E+00 0.12499576E+03</pdfrwt>
<pdfrwt beam="1">  1       -4 0.43558819E-03 0.12499576E+03</pdfrwt>
<totfact> 0.20363820E+03</totfact>
</mgrwt>
</event>
<event>
 5    1  0.3259432E-002  0.1249972E+03  0.7818608E-02  0.1235074E+00
          4   -1    0    0  501    0  0.00000000000E+00  0.00000000000E+00  0.57423116844E+01  0.58810750276E+01  0.12700000000E+01 0.  1.
         -4   -1    0    0    0  501 -0.00000000000E+00 -0.00000000000E+00 -0.67196628892E+03  0.67196748906E+03  0.12700000000E+01 0.  1.
         25    2    1    2    0    0  0.00000000000E+00  0.00000000000E+00 -0.66622397724E+03  0.67784856409E+03  0.12499715190E+03 0.  0.
    9000005    1    3    3    0    0 -0.59054165239E+02 -0.11941732787E+02 -0.42305267854E+03  0.42732255760E+03  0.10000000000E+01 0.  0.
    9000005    1    3    3    0    0  0.59054165239E+02  0.11941732787E+02 -0.24317129870E+03  0.25052600649E+03  0.10000000000E+01 0.  0.
<mgrwt>
<rscale>  0 0.12499715E+03</rscale>
<asrwt>0</asrwt>
<pdfrwt beam="1">  1        4 0.89419952E-03 0.12499715E+03</pdfrwt>
<pdfrwt beam="2">  1       -4 0.10339013E+00 0.12499715E+03</pdfrwt>
<totfact> 0.44284904E+03</totfact>
</mgrwt>
</event>
<event>
 5    1  0.3259432E-002  0.1249791E+03  0.7818608E-02  0.1235102E+00
         -4   -1    0    0    0  501 -0.00000000000E+00  0.00000000000E+00  0.13447758308E+02  0.13507594290E+02  0.12700000000E+01 0. -1.
          4   -1    0    0  501    0  0.00000000000E+00 -0.00000000000E+00 -0.28967302757E+03  0.28967581156E+03  0.12700000000E+01 0. -1.
         25    2    1    2    0    0  0.00000000000E+00  0.00000000000E+00 -0.27622526927E+03  0.30318340585E+03  0.12497911106E+03 0.  0.
    9000005    1    3    3    0    0 -0.25542599749E+02 -0.14148940076E+02 -0.41102836727E+01  0.29504429144E+02  0.10000000000E+01 0.  0.
    9000005    1    3    3    0    0  0.25542599749E+02  0.14148940076E+02 -0.27211498559E+03  0.27367897671E+03  0.10000000000E+01 0.  0.
<mgrwt>
<rscale>  0 0.12497911E+03</rscale>
<asrwt>0</asrwt>
<pdfrwt beam="2">  1        4 0.44569893E-01 0.12497911E+03</pdfrwt>
<pdfrwt beam="1">  1       -4 0.20737030E-02 0.12497911E+03</pdfrwt>
<totfact> 0.75236123E+03</totfact>
</mgrwt>
</event>
<event>
 5    1  0.3259432E-002  0.1249955E+03  0.7818608E-02  0.1235076E+00
          4   -1    0    0  501    0  0.00000000000E+00  0.00000000000E+00  0.78054695441E+02  0.78065026615E+02  0.12700000000E+01 0.  1.
         -4   -1    0    0    0  501 -0.00000000000E+00 -0.00000000000E+00 -0.50019749391E+02  0.50035869425E+02  0.12700000000E+01 0.  1.
         25    2    1    2    0    0  0.00000000000E+00  0.00000000000E+00  0.28034946050E+02  0.12810089604E+03  0.12499552539E+03 0.  0.
    9000005    1    3    3    0    0  0.50896837721E+02 -0.34120833576E+02  0.26579691440E+02  0.66799695890E+02  0.10000000000E+01 0.  0.
    9000005    1    3    3    0    0 -0.50896837721E+02  0.34120833576E+02  0.14552546094E+01  0.61301200150E+02  0.10000000000E+01 0.  0.
<mgrwt>
<rscale>  0 0.12499553E+03</rscale>
<asrwt>0</asrwt>
<pdfrwt beam="1">  1        4 0.12010449E-01 0.12499553E+03</pdfrwt>
<pdfrwt beam="2">  1       -4 0.76973809E-02 0.12499553E+03</pdfrwt>
<totfact> 0.10386358E+04</totfact>
</mgrwt>
</event>
<event>
 5    1  0.3259432E-002  0.1249965E+03  0.7818608E-02  0.1235075E+00
         -4   -1    0    0    0  501 -0.00000000000E+00  0.00000000000E+00  0.78347219755E+03  0.78347322688E+03  0.12700000000E+01 0. -1.
          4   -1    0    0  501    0  0.00000000000E+00 -0.00000000000E+00 -0.49036077932E+01  0.50653992329E+01  0.12700000000E+01 0. -1.
         25    2    1    2    0    0  0.00000000000E+00  0.00000000000E+00  0.77856858976E+03  0.78853862611E+03  0.12499646360E+03 0.  0.
    9000005    1    3    3    0    0  0.52455254644E+02 -0.58334611775E+01  0.17821414713E+03  0.18586787040E+03  0.10000000000E+01 0.  0.
    9000005    1    3    3    0    0 -0.52455254644E+02  0.58334611775E+01  0.60035444263E+03  0.60267075571E+03  0.10000000000E+01 0.  0.
<mgrwt>
<rscale>  0 0.12499646E+03</rscale>
<asrwt>0</asrwt>
<pdfrwt beam="2">  1        4 0.76692686E-03 0.12499646E+03</pdfrwt>
<pdfrwt beam="1">  1       -4 0.12054655E+00 0.12499646E+03</pdfrwt>
<totfact> 0.38784585E+03</totfact>
</mgrwt>
</event>
<event>
 5    1  0.3259432E-002  0.1250001E+03  0.7818608E-02  0.1235069E+00
         -4   -1    0    0    0  501 -0.00000000000E+00  0.00000000000E+00  0.39485751626E+03  0.39485955863E+03  0.12700000000E+01 0.  1.
          4   -1    0    0  501    0  0.00000000000E+00 -0.00000000000E+00 -0.98499915505E+01  0.99315272514E+01  0.12700000000E+01 0.  1.
         25    2    1    2    0    0  0.00000000000E+00  0.00000000000E+00  0.38500752471E+03  0.40479108589E+03  0.12500011653E+03 0.  0.
    9000005    1    3    3    0    0  0.42259482211E+02 -0.14643452176E+02  0.33384333266E+03  0.33682735235E+03  0.10000000000E+01 0.  0.
    9000005    1    3    3    0    0 -0.42259482211E+02  0.14643452176E+02  0.51164192042E+02  0.67963733533E+02  0.10000000000E+01 0.  0.
<mgrwt>
<rscale>  0 0.12500012E+03</rscale>
<asrwt>0</asrwt>
<pdfrwt beam="2">  1        4 0.15218125E-02 0.12500012E+03</pdfrwt>
<pdfrwt beam="1">  1       -4 0.60753734E-01 0.12500012E+03</pdfrwt>
<totfact> 0.64089303E+03</totfact>
</mgrwt>
</event>
<event>
 5    1  0.3259432E-002  0.1249802E+03  0.7818608E-02  0.1235100E+00
         -4   -1    0    0    0  501 -0.00000000000E+00  0.00000000000E+00  0.76758504128E+02  0.76769009737E+02  0.12700000000E+01 0.  1.
          4   -1    0    0  501    0  0.00000000000E+00 -0.00000000000E+00 -0.50852051558E+02  0.50867907836E+02  0.12700000000E+01 0.  1.
         25    2    1    2    0    0  0.00000000000E+00  0.00000000000E+00  0.25906452570E+02  0.12763691757E+03  0.12498015220E+03 0.  0.
    9000005    1    3    3    0    0 -0.49699990743E+02 -0.19552303306E+02 -0.20164943000E+02  0.57096467234E+02  0.10000000000E+01 0.  0.
    9000005    1    3    3    0    0  0.49699990743E+02  0.19552303306E+02  0.46071395570E+02  0.70540450340E+02  0.10000000000E+01 0.  0.
<mgrwt>
<rscale>  0 0.12498015E+03</rscale>
<asrwt>0</asrwt>
<pdfrwt beam="2">  1        4 0.78254204E-02 0.12498015E+03</pdfrwt>
<pdfrwt beam="1">  1       -4 0.11811028E-01 0.12498015E+03</pdfrwt>
<totfact> 0.10399996E+04</totfact>
</mgrwt>
</event>
<event>
 5    1  0.3259432E-002  0.1249975E+03  0.7818608E-02  0.1235073E+00
         -4   -1    0    0    0  501 -0.00000000000E+00  0.00000000000E+00  0.31543650635E+03  0.31543906295E+03  0.12700000000E+01 0. -1.
          4   -1    0    0  501    0  0.00000000000E+00 -0.00000000000E+00 -0.12347956132E+02  0.12413094725E+02  0.12700000000E+01 0. -1.
         25    2    1    2    0    0  0.00000000000E+00  0.00000000000E+00  0.30308855022E+03  0.32785215768E+03  0.12499747206E+03 0.  0.
    9000005    1    3    3    0    0  0.45369012596E+01 -0.58672733984E+02  0.20668813936E+03  0.21490476993E+03  0.10000000000E+01 0.  0.
    9000005    1    3    3    0    0 -0.45369012596E+01  0.58672733984E+02  0.96400410856E+02  0.11294738775E+03  0.10000000000E+01 0.  0.
<mgrwt>
<rscale>  0 0.12499747E+03</rscale>
<asrwt>0</asrwt>
<pdfrwt beam="2">  1        4 0.19048932E-02 0.12499747E+03</pdfrwt>
<pdfrwt beam="1">  1       -4 0.48533893E-01 0.12499747E+03</pdfrwt>
<totfact> 0.72235896E+03</totfact>
</mgrwt>
</event>
<event>
 5    1  0.3259432E-002  0.1250065E+03  0.7818608E-02  0.1235059E+00
          4   -1    0    0  501    0  0.00000000000E+00  0.00000000000E+00  0.69060092806E+01  0.70218134541E+01  0.12700000000E+01 0. -1.
         -4   -1    0    0    0  501 -0.00000000000E+00 -0.00000000000E+00 -0.56086906917E+03  0.56087050703E+03  0.12700000000E+01 0. -1.
         25    2    1    2    0    0  0.00000000000E+00  0.00000000000E+00 -0.55396305989E+03  0.56789232048E+03  0.12500646359E+03 0.  0.
    9000005    1    3    3    0    0  0.53347507453E+01 -0.54907975771E+02 -0.41038431280E+03  0.41407684017E+03  0.10000000000E+01 0.  0.
    9000005    1    3    3    0    0 -0.53347507453E+01  0.54907975771E+02 -0.14357874709E+03  0.15381548031E+03  0.10000000000E+01 0.  0.
<mgrwt>
<rscale>  0 0.12500646E+03</rscale>
<asrwt>0</asrwt>
<pdfrwt beam="1">  1        4 0.10714820E-02 0.12500646E+03</pdfrwt>
<pdfrwt beam="2">  1       -4 0.86296532E-01 0.12500646E+03</pdfrwt>
<totfact> 0.50951943E+03</totfact>
</mgrwt>
</event>
<event>
 5    1  0.3259432E-002  0.1249816E+03  0.7818608E-02  0.1235098E+00
         -4   -1    0    0    0  501 -0.00000000000E+00  0.00000000000E+00  0.24809600907E+02  0.24842085202E+02  0.12700000000E+01 0.  1.
          4   -1    0    0  501    0  0.00000000000E+00 -0.00000000000E+00 -0.15726486315E+03  0.15726999104E+03  0.12700000000E+01 0.  1.
         25    2    1    2    0    0  0.00000000000E+00  0.00000000000E+00 -0.13245526224E+03  0.18211207624E+03  0.12498164592E+03 0.  0.
    9000005    1    3    3    0    0  0.25102286463E+02 -0.20041851629E+02 -0.14431981765E+03  0.14785469343E+03  0.10000000000E+01 0.  0.
    9000005    1    3    3    0    0 -0.25102286463E+02  0.20041851629E+02  0.11864555405E+02  0.34257382815E+02  0.10000000000E+01 0.  0.
<mgrwt>
<rscale>  0 0.12498165E+03</rscale>
<asrwt>0</asrwt>
<pdfrwt beam="2">  1        4 0.24197487E-01 0.12498165E+03</pdfrwt>
<pdfrwt beam="1">  1       -4 0.38197550E-02 0.12498165E+03</pdfrwt>
<totfact> 0.93276571E+03</totfact>
</mgrwt>
</event>
<event>
 5    1  0.3259432E-002  0.1250088E+03  0.7818608E-02  0.1235055E+00
         -4   -1    0    0    0  501 -0.00000000000E+00  0.00000000000E+00  0.18574117348E+03  0.18574551523E+03  0.12700000000E+01 0. -1.
          4   -1    0    0  501    0  0.00000000000E+00 -0.00000000000E+00 -0.21009816959E+02  0.21048166396E+02  0.12700000000E+01 0. -1.
         25    2    1    2    0    0  0.00000000000E+00  0.00000000000E+00  0.16473135653E+03  0.20679368162E+03  0.12500882744E+03 0.  0.
    9000005    1    3    3    0    0 -0.11892939894E+02 -0.60660289184E+01  0.18336281930E+03  0.18385092392E+03  0.10000000000E+01 0.  0.
    9000005    1    3    3    0    0  0.11892939894E+02  0.60660289184E+01 -0.18631462769E+02  0.22942757704E+02  0.10000000000E+01 0.  0.
<mgrwt>
<rscale>  0 0.12500883E+03</rscale>
<asrwt>0</asrwt>
<pdfrwt beam="2">  1        4 0.32355634E-02 0.12500883E+03</pdfrwt>
<pdfrwt beam="1">  1       -4 0.28578850E-01 0.12500883E+03</pdfrwt>
<totfact> 0.88984638E+03</totfact>
</mgrwt>
</event>
<event>
 5    1  0.3259432E-002  0.1249983E+03  0.7818608E-02  0.1235072E+00
         -4   -1    0    0    0  501 -0.00000000000E+00  0.00000000000E+00  0.58582592421E+02  0.58596356839E+02  0.12700000000E+01 0.  1.
          4   -1    0    0  501    0  0.00000000000E+00 -0.00000000000E+00 -0.66649891599E+02  0.66661990296E+02  0.12700000000E+01 0.  1.
         25    2    1    2    0    0  0.00000000000E+00  0.00000000000E+00 -0.80672991779E+01  0.12525834713E+03  0.12499828883E+03 0.  0.
    9000005    1    3    3    0    0 -0.91067881213E+01  0.55575338434E+02  0.23107589543E+02  0.60881134405E+02  0.10000000000E+01 0.  0.
    9000005    1    3    3    0    0  0.91067881213E+01 -0.55575338434E+02 -0.31174888721E+02  0.64377212729E+02  0.10000000000E+01 0.  0.
<mgrwt>
<rscale>  0 0.12499829E+03</rscale>
<asrwt>0</asrwt>
<pdfrwt beam="2">  1        4 0.10255819E-01 0.12499829E+03</pdfrwt>
<pdfrwt beam="1">  1       -4 0.90146960E-02 0.12499829E+03</pdfrwt>
<totfact> 0.10447658E+04</totfact>
</mgrwt>
</event>
<event>
 5    1  0.3259432E-002  0.1250027E+03  0.7818608E-02  0.1235065E+00
         -4   -1    0    0    0  501 -0.00000000000E+00  0.00000000000E+00  0.16647777779E+02  0.16696149406E+02  0.12700000000E+01 0. -1.
          4   -1    0    0  501    0  0.00000000000E+00 -0.00000000000E+00 -0.23426047707E+03  0.23426391958E+03  0.12700000000E+01 0. -1.
         25    2    1    2    0    0  0.00000000000E+00  0.00000000000E+00 -0.21761269930E+03  0.25096006899E+03  0.12500267730E+03 0.  0.
    9000005    1    3    3    0    0  0.95574281592E+01 -0.24449025953E+02 -0.22266467791E+03  0.22420896077E+03  0.10000000000E+01 0.  0.
    9000005    1    3    3    0    0 -0.95574281592E+01  0.24449025953E+02  0.50519786112E+01  0.26751108219E+02  0.10000000000E+01 0.  0.
<mgrwt>
<rscale>  0 0.12500268E+03</rscale>
<asrwt>0</asrwt>
<pdfrwt beam="2">  1        4 0.36044057E-01 0.12500268E+03</pdfrwt>
<pdfrwt beam="1">  1       -4 0.25651825E-02 0.12500268E+03</pdfrwt>
<totfact> 0.82186765E+03</totfact>
</mgrwt>
</event>
<event>
 5    1  0.3259432E-002  0.1250017E+03  0.7818608E-02  0.1235067E+00
          4   -1    0    0  501    0  0.00000000000E+00  0.00000000000E+00  0.48117280437E+03  0.48117448038E+03  0.12700000000E+01 0. -1.
         -4   -1    0    0    0  501 -0.00000000000E+00 -0.00000000000E+00 -0.80670432334E+01  0.81663998512E+01  0.12700000000E+01 0. -1.
         25    2    1    2    0    0  0.00000000000E+00  0.00000000000E+00  0.47310576114E+03  0.48934088023E+03  0.12500174335E+03 0.  0.
    9000005    1    3    3    0    0  0.12002049161E+02 -0.60019823130E+02  0.18720151199E+03  0.19695642778E+03  0.10000000000E+01 0.  0.
    9000005    1    3    3    0    0 -0.12002049161E+02  0.60019823130E+02  0.28590424915E+03  0.29238445245E+03  0.10000000000E+01 0.  0.
<mgrwt>
<rscale>  0 0.12500174E+03</rscale>
<asrwt>0</asrwt>
<pdfrwt beam="1">  1        4 0.74034386E-01 0.12500174E+03</pdfrwt>
<pdfrwt beam="2">  1       -4 0.12488548E-02 0.12500174E+03</pdfrwt>
<totfact> 0.56698781E+03</totfact>
</mgrwt>
</event>
<event>
 5    1  0.3259432E-002  0.1249998E+03  0.7818608E-02  0.1235070E+00
         -4   -1    0    0    0  501 -0.00000000000E+00  0.00000000000E+00  0.38228970302E+01  0.40283298901E+01  0.12700000000E+01 0. -1.
          4   -1    0    0  501    0  0.00000000000E+00 -0.00000000000E+00 -0.99485856747E+03  0.99485937808E+03  0.12700000000E+01 0. -1.
         25    2    1    2    0    0  0.00000000000E+00  0.00000000000E+00 -0.99103567044E+03  0.99888770797E+03  0.12499981226E+03 0.  0.
    9000005    1    3    3    0    0 -0.25220093706E+02  0.48645445154E+02 -0.73562464623E+03  0.73766323793E+03  0.10000000000E+01 0.  0.
    9000005    1    3    3    0    0  0.25220093706E+02 -0.48645445154E+02 -0.25541102421E+03  0.26122447004E+03  0.10000000000E+01 0.  0.
<mgrwt>
<rscale>  0 0.12499981E+03</rscale>
<asrwt>0</asrwt>
<pdfrwt beam="2">  1        4 0.15307083E+00 0.12499981E+03</pdfrwt>
<pdfrwt beam="1">  1       -4 0.60400368E-03 0.12499981E+03</pdfrwt>
<totfact> 0.30641404E+03</totfact>
</mgrwt>
</event>
<event>
 5    1  0.3259432E-002  0.1250010E+03  0.7818608E-02  0.1235068E+00
         -4   -1    0    0    0  501 -0.00000000000E+00  0.00000000000E+00  0.24231405215E+01  0.27357832493E+01  0.12700000000E+01 0.  1.
          4   -1    0    0  501    0  0.00000000000E+00 -0.00000000000E+00 -0.15140786206E+04  0.15140791532E+04  0.12700000000E+01 0.  1.
         25    2    1    2    0    0  0.00000000000E+00  0.00000000000E+00 -0.15116554801E+04  0.15168149365E+04  0.12500104435E+03 0.  0.
    9000005    1    3    3    0    0 -0.46654926774E+02 -0.30262783061E+02 -0.40988038689E+03  0.41363685739E+03  0.10000000000E+01 0.  0.
    9000005    1    3    3    0    0  0.46654926774E+02  0.30262783061E+02 -0.11017750932E+04  0.11031780791E+04  0.10000000000E+01 0.  0.
<mgrwt>
<rscale>  0 0.12500104E+03</rscale>
<asrwt>0</asrwt>
<pdfrwt beam="2">  1        4 0.23295855E+00 0.12500104E+03</pdfrwt>
<pdfrwt beam="1">  1       -4 0.39688247E-03 0.12500104E+03</pdfrwt>
<totfact> 0.17601907E+03</totfact>
</mgrwt>
</event>
<event>
 5    1  0.3259432E-002  0.1250048E+03  0.7818608E-02  0.1235062E+00
          4   -1    0    0  501    0  0.00000000000E+00  0.00000000000E+00  0.79309941765E+02  0.79320109447E+02  0.12700000000E+01 0. -1.
         -4   -1    0    0    0  501 -0.00000000000E+00 -0.00000000000E+00 -0.49235246105E+02  0.49251622908E+02  0.12700000000E+01 0. -1.
         25    2    1    2    0    0  0.00000000000E+00  0.00000000000E+00  0.30074695659E+02  0.12857173235E+03  0.12500481207E+03 0.  0.
    9000005    1    3    3    0    0 -0.35567781379E+02  0.46969882191E+02  0.36472205597E+02  0.69299774072E+02  0.10000000000E+01 0.  0.
    9000005    1    3    3    0    0  0.35567781379E+02 -0.46969882191E+02 -0.63975099381E+01  0.59271958283E+02  0.10000000000E+01 0.  0.
<mgrwt>
<rscale>  0 0.12500481E+03</rscale>
<asrwt>0</asrwt>
<pdfrwt beam="1">  1        4 0.12203571E-01 0.12500481E+03</pdfrwt>
<pdfrwt beam="2">  1       -4 0.75766952E-02 0.12500481E+03</pdfrwt>
<totfact> 0.10374032E+04</totfact>
</mgrwt>
</event>
<event>
 5    1  0.3259432E-002  0.1249429E+03  0.7818608E-02  0.1235158E+00
          4   -1    0    0  501    0  0.00000000000E+00  0.00000000000E+00  0.10525546226E+03  0.10526312382E+03  0.12700000000E+01 0. -1.
         -4   -1    0    0    0  501 -0.00000000000E+00 -0.00000000000E+00 -0.37058327566E+02  0.37080082820E+02  0.12700000000E+01 0. -1.
         25    2    1    2    0    0  0.00000000000E+00  0.00000000000E+00  0.68197134699E+02  0.14234320664E+03  0.12494294416E+03 0.  0.
    9000005    1    3    3    0    0  0.51525812834E+02  0.23420754653E+02  0.39942683567E+01  0.56748526998E+02  0.10000000000E+01 0.  0.
    9000005    1    3    3    0    0 -0.51525812834E+02 -0.23420754653E+02  0.64202866342E+02  0.85594679643E+02  0.10000000000E+01 0.  0.
<mgrwt>
<rscale>  0 0.12494294E+03</rscale>
<asrwt>0</asrwt>
<pdfrwt beam="1">  1        4 0.16195411E-01 0.12494294E+03</pdfrwt>
<pdfrwt beam="2">  1       -4 0.57035440E-02 0.12494294E+03</pdfrwt>
<totfact> 0.10098222E+04</totfact>
</mgrwt>
</event>
<event>
 5    1  0.3259432E-002  0.1250051E+03  0.7818608E-02  0.1235061E+00
         -4   -1    0    0    0  501 -0.00000000000E+00  0.00000000000E+00  0.83768846187E+01  0.84726085661E+01  0.12700000000E+01 0.  1.
          4   -1    0    0  501    0  0.00000000000E+00 -0.00000000000E+00 -0.46360484161E+03  0.46360658112E+03  0.12700000000E+01 0.  1.
         25    2    1    2    0    0  0.00000000000E+00  0.00000000000E+00 -0.45522795699E+03  0.47207918969E+03  0.12500507396E+03 0.  0.
    9000005    1    3    3    0    0  0.13316966262E+02 -0.34153037733E+02 -0.36470516183E+02  0.51719146623E+02  0.10000000000E+01 0.  0.
    9000005    1    3    3    0    0 -0.13316966262E+02  0.34153037733E+02 -0.41875744081E+03  0.42036004307E+03  0.10000000000E+01 0.  0.
<mgrwt>
<rscale>  0 0.12500507E+03</rscale>
<asrwt>0</asrwt>
<pdfrwt beam="2">  1        4 0.71331299E-01 0.12500507E+03</pdfrwt>
<pdfrwt beam="1">  1       -4 0.12962490E-02 0.12500507E+03</pdfrwt>
<totfact> 0.58091200E+03</totfact>
</mgrwt>
</event>
<event>
 5    1  0.3259432E-002  0.1250003E+03  0.7818608E-02  0.1235069E+00
          4   -1    0    0  501    0  0.00000000000E+00  0.00000000000E+00  0.29055182443E+02  0.29082925004E+02  0.12700000000E+01 0.  1.
         -4   -1    0    0    0  501 -0.00000000000E+00 -0.00000000000E+00 -0.13434815980E+03  0.13435416235E+03  0.12700000000E+01 0.  1.
         25    2    1    2    0    0  0.00000000000E+00  0.00000000000E+00 -0.10529297736E+03  0.16343708736E+03  0.12500028177E+03 0.  0.
    9000005    1    3    3    0    0  0.34326893557E+02  0.46844738869E+02 -0.22474744347E+02  0.62280649599E+02  0.10000000000E+01 0.  0.
    9000005    1    3    3    0    0 -0.34326893557E+02 -0.46844738869E+02 -0.82818233010E+02  0.10115643776E+03  0.10000000000E+01 0.  0.
<mgrwt>
<rscale>  0 0.12500028E+03</rscale>
<asrwt>0</asrwt>
<pdfrwt beam="1">  1        4 0.44726239E-02 0.12500028E+03</pdfrwt>
<pdfrwt beam="2">  1       -4 0.20671543E-01 0.12500028E+03</pdfrwt>
<totfact> 0.96683592E+03</totfact>
</mgrwt>
</event>
<event>
 5    1  0.3259432E-002  0.1250008E+03  0.7818608E-02  0.1235068E+00
          4   -1    0    0  501    0  0.00000000000E+00  0.00000000000E+00  0.35266378041E+02  0.35289238022E+02  0.12700000000E+01 0.  1.
         -4   -1    0    0    0  501 -0.00000000000E+00 -0.00000000000E+00 -0.11070313762E+03  0.11071042218E+03  0.12700000000E+01 0.  1.
         25    2    1    2    0    0  0.00000000000E+00  0.00000000000E+00 -0.75436759582E+02  0.14599966020E+03  0.12500078433E+03 0.  0.
    9000005    1    3    3    0    0  0.25309276143E+02 -0.30536360625E+02  0.18688040943E+02  0.43855121177E+02  0.10000000000E+01 0.  0.
    9000005    1    3    3    0    0 -0.25309276143E+02  0.30536360625E+02 -0.94124800524E+02  0.10214453903E+03  0.10000000000E+01 0.  0.
<mgrwt>
<rscale>  0 0.12500078E+03</rscale>
<asrwt>0</asrwt>
<pdfrwt beam="1">  1        4 0.54279155E-02 0.12500078E+03</pdfrwt>
<pdfrwt beam="2">  1       -4 0.17033571E-01 0.12500078E+03</pdfrwt>
<totfact> 0.10010540E+04</totfact>
</mgrwt>
</event>
<event>
 5    1  0.3259432E-002  0.1249982E+03  0.7818608E-02  0.1235072E+00
          4   -1    0    0  501    0  0.00000000000E+00  0.00000000000E+00  0.89195332031E+02  0.89204372965E+02  0.12700000000E+01 0. -1.
         -4   -1    0    0    0  501 -0.00000000000E+00 -0.00000000000E+00 -0.43772579992E+02  0.43790999750E+02  0.12700000000E+01 0. -1.
         25    2    1    2    0    0  0.00000000000E+00  0.00000000000E+00  0.45422752039E+02  0.13299537272E+03  0.12499817103E+03 0.  0.
    9000005    1    3    3    0    0  0.38235021012E+01  0.57220579467E+02  0.49125526018E+02  0.75519078314E+02  0.10000000000E+01 0.  0.
    9000005    1    3    3    0    0 -0.38235021012E+01 -0.57220579467E+02 -0.37027739794E+01  0.57476294401E+02  0.10000000000E+01 0.  0.
<mgrwt>
<rscale>  0 0.12499817E+03</rscale>
<asrwt>0</asrwt>
<pdfrwt beam="1">  1        4 0.13724471E-01 0.12499817E+03</pdfrwt>
<pdfrwt beam="2">  1       -4 0.67363555E-02 0.12499817E+03</pdfrwt>
<totfact> 0.10280922E+04</totfact>
</mgrwt>
</event>
<event>
 5    1  0.3259432E-002  0.1249994E+03  0.7818608E-02  0.1235070E+00
          4   -1    0    0  501    0  0.00000000000E+00  0.00000000000E+00  0.56340323222E+01  0.57753978398E+01  0.12700000000E+01 0. -1.
         -4   -1    0    0    0  501 -0.00000000000E+00 -0.00000000000E+00 -0.68459197799E+03  0.68459315599E+03  0.12700000000E+01 0. -1.
         25    2    1    2    0    0  0.00000000000E+00  0.00000000000E+00 -0.67895794567E+03  0.69036855383E+03  0.12499939252E+03 0.  0.
    9000005    1    3    3    0    0  0.45383524922E+02 -0.24164830458E+02 -0.53565025503E+03  0.53811318427E+03  0.10000000000E+01 0.  0.
    9000005    1    3    3    0    0 -0.45383524922E+02  0.24164830458E+02 -0.14330769063E+03  0.15225536956E+03  0.10000000000E+01 0.  0.
<mgrwt>
<rscale>  0 0.12499939E+03</rscale>
<asrwt>0</asrwt>
<pdfrwt beam="1">  1        4 0.87773963E-03 0.12499939E+03</pdfrwt>
<pdfrwt beam="2">  1       -4 0.10533274E+00 0.12499939E+03</pdfrwt>
<totfact> 0.43600622E+03</totfact>
</mgrwt>
</event>
<event>
 5    1  0.3259432E-002  0.1249999E+03  0.7818608E-02  0.1235069E+00
          4   -1    0    0  501    0  0.00000000000E+00  0.00000000000E+00  0.15105863519E+04  0.15105868857E+04  0.12700000000E+01 0.  1.
         -4   -1    0    0    0  501 -0.00000000000E+00 -0.00000000000E+00 -0.24294161910E+01  0.27413432892E+01  0.12700000000E+01 0.  1.
         25    2    1    2    0    0  0.00000000000E+00  0.00000000000E+00  0.15081569357E+04  0.15133282290E+04  0.12499994450E+03 0.  0.
    9000005    1    3    3    0    0  0.20683502568E+02 -0.51833496338E+02  0.10945155404E+04  0.10959378572E+04  0.10000000000E+01 0.  0.
    9000005    1    3    3    0    0 -0.20683502568E+02  0.51833496338E+02  0.41364139530E+03  0.41739037187E+03  0.10000000000E+01 0.  0.
<mgrwt>
<rscale>  0 0.12499994E+03</rscale>
<asrwt>0</asrwt>
<pdfrwt beam="1">  1        4 0.23242204E+00 0.12499994E+03</pdfrwt>
<pdfrwt beam="2">  1       -4 0.39779162E-03 0.12499994E+03</pdfrwt>
<totfact> 0.17669897E+03</totfact>
</mgrwt>
</event>
<event>
 5    1  0.3259432E-002  0.1250005E+03  0.7818608E-02  0.1235069E+00
          4   -1    0    0  501    0  0.00000000000E+00  0.00000000000E+00  0.17649187034E+02  0.17694821360E+02  0.12700000000E+01 0. -1.
         -4   -1    0    0    0  501 -0.00000000000E+00 -0.00000000000E+00 -0.22099585786E+03  0.22099950699E+03  0.12700000000E+01 0. -1.
         25    2    1    2    0    0  0.00000000000E+00  0.00000000000E+00 -0.20334667083E+03  0.23869432835E+03  0.12500045541E+03 0.  0.
    9000005    1    3    3    0    0 -0.46929001375E+02  0.39656873798E+02 -0.12346893405E+03  0.13791510608E+03  0.10000000000E+01 0.  0.
    9000005    1    3    3    0    0  0.46929001375E+02 -0.39656873798E+02 -0.79877736775E+02  0.10077922227E+03  0.10000000000E+01 0.  0.
<mgrwt>
<rscale>  0 0.12500046E+03</rscale>
<asrwt>0</asrwt>
<pdfrwt beam="1">  1        4 0.27190507E-02 0.12500046E+03</pdfrwt>
<pdfrwt beam="2">  1       -4 0.34003152E-01 0.12500046E+03</pdfrwt>
<totfact> 0.83991357E+03</totfact>
</mgrwt>
</event>
<event>
 5    1  0.3259432E-002  0.1250020E+03  0.7818608E-02  0.1235066E+00
         -4   -1    0    0    0  501 -0.00000000000E+00  0.00000000000E+00  0.35135715470E+03  0.35135944993E+03  0.12700000000E+01 0. -1.
          4   -1    0    0  501    0  0.00000000000E+00 -0.00000000000E+00 -0.11079358298E+02  0.11151909267E+02  0.12700000000E+01 0. -1.
         25    2    1    2    0    0  0.00000000000E+00  0.00000000000E+00  0.34027779640E+03  0.36251135920E+03  0.12500202729E+03 0.  0.
    9000005    1    3    3    0    0 -0.39885069780E+02 -0.26970542266E+02  0.54603984546E+02  0.72806758407E+02  0.10000000000E+01 0.  0.
    9000005    1    3    3    0    0  0.39885069780E+02  0.26970542266E+02  0.28567381185E+03  0.28970460079E+03  0.10000000000E+01 0.  0.
<mgrwt>
<rscale>  0 0.12500203E+03</rscale>
<asrwt>0</asrwt>
<pdfrwt beam="2">  1        4 0.17102741E-02 0.12500203E+03</pdfrwt>
<pdfrwt beam="1">  1       -4 0.54060702E-01 0.12500203E+03</pdfrwt>
<totfact> 0.68366669E+03</totfact>
</mgrwt>
</event>
<event>
 5    1  0.3259432E-002  0.1249981E+03  0.7818608E-02  0.1235072E+00
          4   -1    0    0  501    0  0.00000000000E+00  0.00000000000E+00  0.14000523809E+03  0.14001099811E+03  0.12700000000E+01 0. -1.
         -4   -1    0    0    0  501 -0.00000000000E+00 -0.00000000000E+00 -0.27879102179E+02  0.27908013872E+02  0.12700000000E+01 0. -1.
         25    2    1    2    0    0  0.00000000000E+00  0.00000000000E+00  0.11212613591E+03  0.16791901198E+03  0.12499809691E+03 0.  0.
    9000005    1    3    3    0    0  0.36095314748E+02  0.38934219959E+02  0.10034112087E+03  0.11352570532E+03  0.10000000000E+01 0.  0.
    9000005    1    3    3    0    0 -0.36095314748E+02 -0.38934219959E+02  0.11785015040E+02  0.54393306666E+02  0.10000000000E+01 0.  0.
<mgrwt>
<rscale>  0 0.12499810E+03</rscale>
<asrwt>0</asrwt>
<pdfrwt beam="1">  1        4 0.21541935E-01 0.12499810E+03</pdfrwt>
<pdfrwt beam="2">  1       -4 0.42917596E-02 0.12499810E+03</pdfrwt>
<totfact> 0.95841511E+03</totfact>
</mgrwt>
</event>
<event>
 5    1  0.3259432E-002  0.1249936E+03  0.7818608E-02  0.1235079E+00
         -4   -1    0    0    0  501 -0.00000000000E+00  0.00000000000E+00  0.14126991387E+02  0.14183962269E+02  0.12700000000E+01 0. -1.
          4   -1    0    0  501    0  0.00000000000E+00 -0.00000000000E+00 -0.27586637181E+03  0.27586929513E+03  0.12700000000E+01 0. -1.
         25    2    1    2    0    0  0.00000000000E+00  0.00000000000E+00 -0.26173938042E+03  0.29005325740E+03  0.12499355529E+03 0.  0.
    9000005    1    3    3    0    0  0.32605963719E+02 -0.47021218917E+02 -0.18914742779E+03  0.19761551897E+03  0.10000000000E+01 0.  0.
    9000005    1    3    3    0    0 -0.32605963719E+02  0.47021218917E+02 -0.72591952632E+02  0.92437738427E+02  0.10000000000E+01 0.  0.
<mgrwt>
<rscale>  0 0.12499356E+03</rscale>
<asrwt>0</asrwt>
<pdfrwt beam="2">  1        4 0.42445584E-01 0.12499356E+03</pdfrwt>
<pdfrwt beam="1">  1       -4 0.21779907E-02 0.12499356E+03</pdfrwt>
<totfact> 0.76874730E+03</totfact>
</mgrwt>
</event>
<event>
 5    1  0.3259432E-002  0.1250020E+03  0.7818608E-02  0.1235066E+00
          4   -1    0    0  501    0  0.00000000000E+00  0.00000000000E+00  0.17863376067E+02  0.17908464605E+02  0.12700000000E+01 0. -1.
         -4   -1    0    0    0  501 -0.00000000000E+00 -0.00000000000E+00 -0.21835801856E+03  0.21836171177E+03  0.12700000000E+01 0. -1.
         25    2    1    2    0    0  0.00000000000E+00  0.00000000000E+00 -0.20049464249E+03  0.23627017638E+03  0.12500197830E+03 0.  0.
    9000005    1    3    3    0    0 -0.13787319906E+02 -0.47449509548E+02 -0.17256374980E+03  0.17950151502E+03  0.10000000000E+01 0.  0.
    9000005    1    3    3    0    0  0.13787319906E+02  0.47449509548E+02 -0.27930892688E+02  0.56768661363E+02  0.10000000000E+01 0.  0.
<mgrwt>
<rscale>  0 0.12500198E+03</rscale>
<asrwt>0</asrwt>
<pdfrwt beam="1">  1        4 0.27519643E-02 0.12500198E+03</pdfrwt>
<pdfrwt beam="2">  1       -4 0.33597292E-01 0.12500198E+03</pdfrwt>
<totfact> 0.84352292E+03</totfact>
</mgrwt>
</event>
<event>
 5    1  0.3259432E-002  0.1249974E+03  0.7818608E-02  0.1235073E+00
         -4   -1    0    0    0  501 -0.00000000000E+00  0.00000000000E+00  0.41456247474E+02  0.41475695951E+02  0.12700000000E+01 0. -1.
          4   -1    0    0  501    0  0.00000000000E+00 -0.00000000000E+00 -0.94176120554E+02  0.94184683376E+02  0.12700000000E+01 0. -1.
         25    2    1    2    0    0  0.00000000000E+00  0.00000000000E+00 -0.52719873080E+02  0.13566037933E+03  0.12499741398E+03 0.  0.
    9000005    1    3    3    0    0 -0.39296912643E+02 -0.47696121644E+02 -0.36420022493E+02  0.71739705893E+02  0.10000000000E+01 0.  0.
    9000005    1    3    3    0    0  0.39296912643E+02  0.47696121644E+02 -0.16299850587E+02  0.63920673435E+02  0.10000000000E+01 0.  0.
<mgrwt>
<rscale>  0 0.12499741E+03</rscale>
<asrwt>0</asrwt>
<pdfrwt beam="2">  1        4 0.14490789E-01 0.12499741E+03</pdfrwt>
<pdfrwt beam="1">  1       -4 0.63800389E-02 0.12499741E+03</pdfrwt>
<totfact> 0.10224767E+04</totfact>
</mgrwt>
</event>
<event>
 5    1  0.3259432E-002  0.1249979E+03  0.7818608E-02  0.1235073E+00
         -4   -1    0    0    0  501 -0.00000000000E+00  0.00000000000E+00  0.37203063678E+03  0.37203280447E+03  0.12700000000E+01 0. -1.
          4   -1    0    0  501    0  0.00000000000E+00 -0.00000000000E+00 -0.10458841380E+02  0.10535666235E+02  0.12700000000E+01 0. -1.
         25    2    1    2    0    0  0.00000000000E+00  0.00000000000E+00  0.36157179540E+03  0.38256847070E+03  0.12499788618E+03 0.  0.
    9000005    1    3    3    0    0  0.31905164698E+02 -0.51284903974E+02  0.13171722520E+03  0.14490862060E+03  0.10000000000E+01 0.  0.
    9000005    1    3    3    0    0 -0.31905164698E+02  0.51284903974E+02  0.22985457020E+03  0.23765985010E+03  0.10000000000E+01 0.  0.
<mgrwt>
<rscale>  0 0.12499789E+03</rscale>
<asrwt>0</asrwt>
<pdfrwt beam="2">  1        4 0.16151290E-02 0.12499789E+03</pdfrwt>
<pdfrwt beam="1">  1       -4 0.57241553E-01 0.12499789E+03</pdfrwt>
<totfact> 0.66287317E+03</totfact>
</mgrwt>
</event>
<event>
 5    1  0.3259432E-002  0.1249921E+03  0.7818608E-02  0.1235082E+00
         -4   -1    0    0    0  501 -0.00000000000E+00  0.00000000000E+00  0.50424862315E+03  0.50425022246E+03  0.12700000000E+01 0. -1.
          4   -1    0    0  501    0  0.00000000000E+00 -0.00000000000E+00 -0.76920098672E+01  0.77961474972E+01  0.12700000000E+01 0. -1.
         25    2    1    2    0    0  0.00000000000E+00  0.00000000000E+00  0.49655661329E+03  0.51204636996E+03  0.12499205890E+03 0.  0.
    9000005    1    3    3    0    0 -0.17394559244E+02  0.29364418354E+02  0.46271313805E+03  0.46397121450E+03  0.10000000000E+01 0.  0.
    9000005    1    3    3    0    0  0.17394559244E+02 -0.29364418354E+02  0.33843475232E+02  0.48075155459E+02  0.10000000000E+01 0.  0.
<mgrwt>
<rscale>  0 0.12499206E+03</rscale>
<asrwt>0</asrwt>
<pdfrwt beam="2">  1        4 0.11915197E-02 0.12499206E+03</pdfrwt>
<pdfrwt beam="1">  1       -4 0.77584850E-01 0.12499206E+03</pdfrwt>
<totfact> 0.54951269E+03</totfact>
</mgrwt>
</event>
<event>
 5    1  0.3259432E-002  0.1250002E+03  0.7818608E-02  0.1235069E+00
          4   -1    0    0  501    0  0.00000000000E+00  0.00000000000E+00  0.12407455047E+03  0.12408105002E+03  0.12700000000E+01 0. -1.
         -4   -1    0    0    0  501 -0.00000000000E+00 -0.00000000000E+00 -0.31463062322E+02  0.31488683534E+02  0.12700000000E+01 0. -1.
         25    2    1    2    0    0  0.00000000000E+00  0.00000000000E+00  0.92611488149E+02  0.15556973356E+03  0.12500021705E+03 0.  0.
    9000005    1    3    3    0    0 -0.51892604222E+02 -0.34490456955E+02  0.40359219452E+02  0.74244869106E+02  0.10000000000E+01 0.  0.
    9000005    1    3    3    0    0  0.51892604222E+02  0.34490456955E+02  0.52252268697E+02  0.81324864450E+02  0.10000000000E+01 0.  0.
<mgrwt>
<rscale>  0 0.12500022E+03</rscale>
<asrwt>0</asrwt>
<pdfrwt beam="1">  1        4 0.19090863E-01 0.12500022E+03</pdfrwt>
<pdfrwt beam="2">  1       -4 0.48429420E-02 0.12500022E+03</pdfrwt>
<totfact> 0.98203290E+03</totfact>
</mgrwt>
</event>
<event>
 5    1  0.3259432E-002  0.1250098E+03  0.7818608E-02  0.1235054E+00
          4   -1    0    0  501    0  0.00000000000E+00  0.00000000000E+00  0.27434249316E+02  0.27463629322E+02  0.12700000000E+01 0.  1.
         -4   -1    0    0    0  501 -0.00000000000E+00 -0.00000000000E+00 -0.14229978279E+03  0.14230544994E+03  0.12700000000E+01 0.  1.
         25    2    1    2    0    0  0.00000000000E+00  0.00000000000E+00 -0.11486553348E+03  0.16976907926E+03  0.12500979759E+03 0.  0.
    9000005    1    3    3    0    0 -0.59520818598E+02 -0.18946473273E+02 -0.54660995729E+02  0.83009163049E+02  0.10000000000E+01 0.  0.
    9000005    1    3    3    0    0  0.59520818598E+02  0.18946473273E+02 -0.60204537748E+02  0.86759916214E+02  0.10000000000E+01 0.  0.
<mgrwt>
<rscale>  0 0.12500980E+03</rscale>
<asrwt>0</asrwt>
<pdfrwt beam="1">  1        4 0.42233498E-02 0.12500980E+03</pdfrwt>
<pdfrwt beam="2">  1       -4 0.21894970E-01 0.12500980E+03</pdfrwt>
<totfact> 0.95470698E+03</totfact>
</mgrwt>
</event>
<event>
 5    1  0.3259432E-002  0.1249855E+03  0.7818608E-02  0.1235092E+00
          4   -1    0    0  501    0  0.00000000000E+00  0.00000000000E+00  0.80775877945E+01  0.81768162861E+01  0.12700000000E+01 0. -1.
         -4   -1    0    0    0  501 -0.00000000000E+00 -0.00000000000E+00 -0.48042731085E+03  0.48042898946E+03  0.12700000000E+01 0. -1.
         25    2    1    2    0    0  0.00000000000E+00  0.00000000000E+00 -0.47234972306E+03  0.48860580575E+03  0.12498548930E+03 0.  0.
    9000005    1    3    3    0    0  0.28793940870E+02 -0.33184989415E+02 -0.62485368960E+02  0.76392119275E+02  0.10000000000E+01 0.  0.
    9000005    1    3    3    0    0 -0.28793940870E+02  0.33184989415E+02 -0.40986435410E+03  0.41221368647E+03  0.10000000000E+01 0.  0.
<mgrwt>
<rscale>  0 0.12498549E+03</rscale>
<asrwt>0</asrwt>
<pdfrwt beam="1">  1        4 0.12504683E-02 0.12498549E+03</pdfrwt>
<pdfrwt beam="2">  1       -4 0.73919634E-01 0.12498549E+03</pdfrwt>
<totfact> 0.56777511E+03</totfact>
</mgrwt>
</event>
<event>
 5    1  0.3259432E-002  0.1250031E+03  0.7818608E-02  0.1235064E+00
          4   -1    0    0  501    0  0.00000000000E+00  0.00000000000E+00  0.98015239087E+02  0.98023466544E+02  0.12700000000E+01 0.  1.
         -4   -1    0    0    0  501 -0.00000000000E+00 -0.00000000000E+00 -0.39835480118E+02  0.39855719492E+02  0.12700000000E+01 0.  1.
         25    2    1    2    0    0  0.00000000000E+00  0.00000000000E+00  0.58179758969E+02  0.13787918604E+03  0.12500314231E+03 0.  0.
    9000005    1    3    3    0    0  0.56714241565E+02 -0.20676418828E+02  0.11255708696E+02  0.61414252989E+02  0.10000000000E+01 0.  0.
    9000005    1    3    3    0    0 -0.56714241565E+02  0.20676418828E+02  0.46924050273E+02  0.76464933047E+02  0.10000000000E+01 0.  0.
<mgrwt>
<rscale>  0 0.12500314E+03</rscale>
<asrwt>0</asrwt>
<pdfrwt beam="1">  1        4 0.15081457E-01 0.12500314E+03</pdfrwt>
<pdfrwt beam="2">  1       -4 0.61307252E-02 0.12500314E+03</pdfrwt>
<totfact> 0.10177011E+04</totfact>
</mgrwt>
</event>
<event>
 5    1  0.3259432E-002  0.1249960E+03  0.7818608E-02  0.1235076E+00
          4   -1    0    0  501    0  0.00000000000E+00  0.00000000000E+00  0.13623323428E+03  0.13623915378E+03  0.12700000000E+01 0.  1.
         -4   -1    0    0    0  501 -0.00000000000E+00 -0.00000000000E+00 -0.28650786457E+02  0.28678920214E+02  0.12700000000E+01 0.  1.
         25    2    1    2    0    0  0.00000000000E+00  0.00000000000E+00  0.10758244783E+03  0.16491807400E+03  0.12499595214E+03 0.  0.
    9000005    1    3    3    0    0  0.59707973403E+02  0.62145871125E+01  0.76694428482E+02  0.97399684502E+02  0.10000000000E+01 0.  0.
    9000005    1    3    3    0    0 -0.59707973403E+02 -0.62145871125E+01  0.30888019343E+02  0.67518389494E+02  0.10000000000E+01 0.  0.
<mgrwt>
<rscale>  0 0.12499595E+03</rscale>
<asrwt>0</asrwt>
<pdfrwt beam="1">  1        4 0.20961579E-01 0.12499595E+03</pdfrwt>
<pdfrwt beam="2">  1       -4 0.44104327E-02 0.12499595E+03</pdfrwt>
<totfact> 0.96411676E+03</totfact>
</mgrwt>
</event>
<event>
 5    1  0.3259432E-002  0.1249925E+03  0.7818608E-02  0.1235081E+00
         -4   -1    0    0    0  501 -0.00000000000E+00  0.00000000000E+00  0.81817286087E+02  0.81827142212E+02  0.12700000000E+01 0. -1.
          4   -1    0    0  501    0  0.00000000000E+00 -0.00000000000E+00 -0.47716667724E+02  0.47733565535E+02  0.12700000000E+01 0. -1.
         25    2    1    2    0    0  0.00000000000E+00  0.00000000000E+00  0.34100618362E+02  0.12956070775E+03  0.12499249905E+03 0.  0.
    9000005    1    3    3    0    0  0.16098547639E+02  0.68270331694E+01 -0.45134006904E+02  0.48413326649E+02  0.10000000000E+01 0.  0.
    9000005    1    3    3    0    0 -0.16098547639E+02 -0.68270331694E+01  0.79234625267E+02  0.81147381099E+02  0.10000000000E+01 0.  0.
<mgrwt>
<rscale>  0 0.12499250E+03</rscale>
<asrwt>0</asrwt>
<pdfrwt beam="2">  1        4 0.73430839E-02 0.12499250E+03</pdfrwt>
<pdfrwt beam="1">  1       -4 0.12589333E-01 0.12499250E+03</pdfrwt>
<totfact> 0.10355667E+04</totfact>
</mgrwt>
</event>
<event>
 5    1  0.3259432E-002  0.1249993E+03  0.7818608E-02  0.1235070E+00
         -4   -1    0    0    0  501 -0.00000000000E+00  0.00000000000E+00  0.32751824158E+02  0.32776437965E+02  0.12700000000E+01 0.  1.
          4   -1    0    0  501    0  0.00000000000E+00 -0.00000000000E+00 -0.11919395569E+03  0.11920072136E+03  0.12700000000E+01 0.  1.
         25    2    1    2    0    0  0.00000000000E+00  0.00000000000E+00 -0.86442131535E+02  0.15197715933E+03  0.12499925941E+03 0.  0.
    9000005    1    3    3    0    0  0.26284312813E+02  0.35756126768E+02  0.10272973161E+02  0.45562042086E+02  0.10000000000E+01 0.  0.
    9000005    1    3    3    0    0 -0.26284312813E+02 -0.35756126768E+02 -0.96715104696E+02  0.10641511724E+03  0.10000000000E+01 0.  0.
<mgrwt>
<rscale>  0 0.12499926E+03</rscale>
<asrwt>0</asrwt>
<pdfrwt beam="2">  1        4 0.18339945E-01 0.12499926E+03</pdfrwt>
<pdfrwt beam="1">  1       -4 0.50411560E-02 0.12499926E+03</pdfrwt>
<totfact> 0.98912680E+03</totfact>
</mgrwt>
</event>
<event>
 5    1  0.3259432E-002  0.1249996E+03  0.7818608E-02  0.1235070E+00
         -4   -1    0    0    0  501 -0.00000000000E+00  0.00000000000E+00  0.12250284632E+03  0.12250942926E+03  0.12700000000E+01 0. -1.
          4   -1    0    0  501    0  0.00000000000E+00 -0.00000000000E+00 -0.31866715925E+02  0.31892012853E+02  0.12700000000E+01 0. -1.
         25    2    1    2    0    0  0.00000000000E+00  0.00000000000E+00  0.90636130396E+02  0.15440144211E+03  0.12499958877E+03 0.  0.
    9000005    1    3    3    0    0 -0.21146354254E+02  0.54770495275E+02  0.71760013917E+02  0.92722570328E+02  0.10000000000E+01 0.  0.
    9000005    1    3    3    0    0  0.21146354254E+02 -0.54770495275E+02  0.18876116479E+02  0.61678871781E+02  0.10000000000E+01 0.  0.
<mgrwt>
<rscale>  0 0.12499959E+03</rscale>
<asrwt>0</asrwt>
<pdfrwt beam="2">  1        4 0.49050240E-02 0.12499959E+03</pdfrwt>
<pdfrwt beam="1">  1       -4 0.18849044E-01 0.12499959E+03</pdfrwt>
<totfact> 0.98434042E+03</totfact>
</mgrwt>
</event>
<event>
 5    1  0.3259432E-002  0.1249986E+03  0.7818608E-02  0.1235071E+00
          4   -1    0    0  501    0  0.00000000000E+00  0.00000000000E+00  0.35983655686E+02  0.36006060275E+02  0.12700000000E+01 0.  1.
         -4   -1    0    0    0  501 -0.00000000000E+00 -0.00000000000E+00 -0.10849387646E+03  0.10850130934E+03  0.12700000000E+01 0.  1.
         25    2    1    2    0    0  0.00000000000E+00  0.00000000000E+00 -0.72510220776E+02  0.14450736962E+03  0.12499859102E+03 0.  0.
    9000005    1    3    3    0    0 -0.41708399862E+02  0.42219515457E+02 -0.58882361227E+02  0.83607479140E+02  0.10000000000E+01 0.  0.
    9000005    1    3    3    0    0  0.41708399862E+02 -0.42219515457E+02 -0.13627859549E+02  0.60899890479E+02  0.10000000000E+01 0.  0.
<mgrwt>
<rscale>  0 0.12499859E+03</rscale>
<asrwt>0</asrwt>
<pdfrwt beam="1">  1        4 0.55382423E-02 0.12499859E+03</pdfrwt>
<pdfrwt beam="2">  1       -4 0.16693661E-01 0.12499859E+03</pdfrwt>
<totfact> 0.10041326E+04</totfact>
</mgrwt>
</event>
<event>
 5    1  0.3259432E-002  0.1250075E+03  0.7818608E-02  0.1235058E+00
          4   -1    0    0  501    0  0.00000000000E+00  0.00000000000E+00  0.18548649349E+02  0.18592076073E+02  0.12700000000E+01 0. -1.
         -4   -1    0    0    0  501 -0.00000000000E+00 -0.00000000000E+00 -0.21032840437E+03  0.21033223858E+03  0.12700000000E+01 0. -1.
         25    2    1    2    0    0  0.00000000000E+00  0.00000000000E+00 -0.19177975502E+03  0.22892431465E+03  0.12500746939E+03 0.  0.
    9000005    1    3    3    0    0  0.37323434983E+02  0.46364255128E+02 -0.60997581465E+02  0.85231378594E+02  0.10000000000E+01 0.  0.
    9000005    1    3    3    0    0 -0.37323434983E+02 -0.46364255128E+02 -0.13078217356E+03  0.14369293606E+03  0.10000000000E+01 0.  0.
<mgrwt>
<rscale>  0 0.12500747E+03</rscale>
<asrwt>0</asrwt>
<pdfrwt beam="1">  1        4 0.28572740E-02 0.12500747E+03</pdfrwt>
<pdfrwt beam="2">  1       -4 0.32361850E-01 0.12500747E+03</pdfrwt>
<totfact> 0.85460800E+03</totfact>
</mgrwt>
</event>
<event>
 5    1  0.3259432E-002  0.1250023E+03  0.7818608E-02  0.1235066E+00
          4   -1    0    0  501    0  0.00000000000E+00  0.00000000000E+00  0.18766669188E+03  0.18767098907E+03  0.12700000000E+01 0.  1.
         -4   -1    0    0    0  501 -0.00000000000E+00 -0.00000000000E+00 -0.20791689551E+02  0.20830440571E+02  0.12700000000E+01 0.  1.
         25    2    1    2    0    0  0.00000000000E+00  0.00000000000E+00  0.16687500233E+03  0.20850142965E+03  0.12500231903E+03 0.  0.
    9000005    1    3    3    0    0  0.49246866472E+02 -0.28817765871E+02  0.12595227418E+03  0.13827759348E+03  0.10000000000E+01 0.  0.
    9000005    1    3    3    0    0 -0.49246866472E+02  0.28817765871E+02  0.40922728146E+02  0.70223836167E+02  0.10000000000E+01 0.  0.
<mgrwt>
<rscale>  0 0.12500232E+03</rscale>
<asrwt>0</asrwt>
<pdfrwt beam="1">  1        4 0.28875109E-01 0.12500232E+03</pdfrwt>
<pdfrwt beam="2">  1       -4 0.32020330E-02 0.12500232E+03</pdfrwt>
<totfact> 0.88716604E+03</totfact>
</mgrwt>
</event>
<event>
 5    1  0.3259432E-002  0.1250007E+03  0.7818608E-02  0.1235068E+00
         -4   -1    0    0    0  501 -0.00000000000E+00  0.00000000000E+00  0.38284633904E+02  0.38305692700E+02  0.12700000000E+01 0. -1.
          4   -1    0    0  501    0  0.00000000000E+00 -0.00000000000E+00 -0.10197990500E+03  0.10198781263E+03  0.12700000000E+01 0. -1.
         25    2    1    2    0    0  0.00000000000E+00  0.00000000000E+00 -0.63695271100E+02  0.14029350533E+03  0.12500072030E+03 0.  0.
    9000005    1    3    3    0    0 -0.24650187843E+02 -0.47521589171E+02  0.43356859333E+01  0.53719003811E+02  0.10000000000E+01 0.  0.
    9000005    1    3    3    0    0  0.24650187843E+02  0.47521589171E+02 -0.68030957033E+02  0.86574501517E+02  0.10000000000E+01 0.  0.
<mgrwt>
<rscale>  0 0.12500072E+03</rscale>
<asrwt>0</asrwt>
<pdfrwt beam="2">  1        4 0.15691444E-01 0.12500072E+03</pdfrwt>
<pdfrwt beam="1">  1       -4 0.58921719E-02 0.12500072E+03</pdfrwt>
<totfact> 0.10127342E+04</totfact>
</mgrwt>
</event>
<event>
 5    1  0.3259432E-002  0.1249842E+03  0.7818608E-02  0.1235094E+00
         -4   -1    0    0    0  501 -0.00000000000E+00  0.00000000000E+00  0.31931016166E+03  0.31931268725E+03  0.12700000000E+01 0. -1.
          4   -1    0    0  501    0  0.00000000000E+00 -0.00000000000E+00 -0.12194759922E+02  0.12260712441E+02  0.12700000000E+01 0. -1.
         25    2    1    2    0    0  0.00000000000E+00  0.00000000000E+00  0.30711540173E+03  0.33157339969E+03  0.12498419660E+03 0.  0.
    9000005    1    3    3    0    0 -0.37983831377E+01 -0.60926479064E+02  0.18893209193E+03  0.19855175377E+03  0.10000000000E+01 0.  0.
    9000005    1    3    3    0    0  0.37983831377E+01  0.60926479064E+02  0.11818330981E+03  0.13302164592E+03  0.10000000000E+01 0.  0.
<mgrwt>
<rscale>  0 0.12498420E+03</rscale>
<asrwt>0</asrwt>
<pdfrwt beam="2">  1        4 0.18813844E-02 0.12498420E+03</pdfrwt>
<pdfrwt beam="1">  1       -4 0.49129909E-01 0.12498420E+03</pdfrwt>
<totfact> 0.71825581E+03</totfact>
</mgrwt>
</event>
<event>
 5    1  0.3259432E-002  0.1250000E+03  0.7818608E-02  0.1235069E+00
         -4   -1    0    0    0  501 -0.00000000000E+00  0.00000000000E+00  0.95843032262E+01  0.96680798679E+01  0.12700000000E+01 0.  1.
          4   -1    0    0  501    0  0.00000000000E+00 -0.00000000000E+00 -0.40570884795E+03  0.40571083570E+03  0.12700000000E+01 0.  1.
         25    2    1    2    0    0  0.00000000000E+00  0.00000000000E+00 -0.39612454472E+03  0.41537891556E+03  0.12499995426E+03 0.  0.
    9000005    1    3    3    0    0 -0.50065683804E+02 -0.36871614616E+02 -0.21885672628E+03  0.22752001076E+03  0.10000000000E+01 0.  0.
    9000005    1    3    3    0    0  0.50065683804E+02  0.36871614616E+02 -0.17726781844E+03  0.18785890480E+03  0.10000000000E+01 0.  0.
<mgrwt>
<rscale>  0 0.12499995E+03</rscale>
<asrwt>0</asrwt>
<pdfrwt beam="2">  1        4 0.62423330E-01 0.12499995E+03</pdfrwt>
<pdfrwt beam="1">  1       -4 0.14811058E-02 0.12499995E+03</pdfrwt>
<totfact> 0.63084111E+03</totfact>
</mgrwt>
</event>
<event>
 5    1  0.3259432E-002  0.1250002E+03  0.7818608E-02  0.1235069E+00
         -4   -1    0    0    0  501 -0.00000000000E+00  0.00000000000E+00  0.43657073240E+02  0.43675541712E+02  0.12700000000E+01 0.  1.
          4   -1    0    0  501    0  0.00000000000E+00 -0.00000000000E+00 -0.89434129889E+02  0.89443146685E+02  0.12700000000E+01 0.  1.
         25    2    1    2    0    0  0.00000000000E+00  0.00000000000E+00 -0.45777056649E+02  0.13311868840E+03  0.12500018514E+03 0.  0.
    9000005    1    3    3    0    0  0.33015649661E+02 -0.31503625456E+02  0.22578014317E+02  0.50924240494E+02  0.10000000000E+01 0.  0.
    9000005    1    3    3    0    0 -0.33015649661E+02  0.31503625456E+02 -0.68355070966E+02  0.82194447904E+02  0.10000000000E+01 0.  0.
<mgrwt>
<rscale>  0 0.12500019E+03</rscale>
<asrwt>0</asrwt>
<pdfrwt beam="2">  1        4 0.13761211E-01 0.12500019E+03</pdfrwt>
<pdfrwt beam="1">  1       -4 0.67185871E-02 0.12500019E+03</pdfrwt>
<totfact> 0.10277835E+04</totfact>
</mgrwt>
</event>
<event>
 5    1  0.3259432E-002  0.1249969E+03  0.7818608E-02  0.1235074E+00
         -4   -1    0    0    0  501 -0.00000000000E+00  0.00000000000E+00  0.15175664579E+02  0.15228712861E+02  0.12700000000E+01 0.  1.
          4   -1    0    0  501    0  0.00000000000E+00 -0.00000000000E+00 -0.25688574316E+03  0.25688888247E+03  0.12700000000E+01 0.  1.
         25    2    1    2    0    0  0.00000000000E+00  0.00000000000E+00 -0.24171007858E+03  0.27211759533E+03  0.12499689438E+03 0.  0.
    9000005    1    3    3    0    0  0.41560037751E+02 -0.32800274068E+02 -0.19312212646E+03  0.20025046927E+03  0.10000000000E+01 0.  0.
    9000005    1    3    3    0    0 -0.41560037751E+02  0.32800274068E+02 -0.48587952121E+02  0.71867126060E+02  0.10000000000E+01 0.  0.
<mgrwt>
<rscale>  0 0.12499689E+03</rscale>
<asrwt>0</asrwt>
<pdfrwt beam="2">  1        4 0.39525203E-01 0.12499689E+03</pdfrwt>
<pdfrwt beam="1">  1       -4 0.23390399E-02 0.12499689E+03</pdfrwt>
<totfact> 0.79240473E+03</totfact>
</mgrwt>
</event>
<event>
 4    1  0.3259432E-002  0.1249301E+03  0.7818608E-02  0.1235179E+00
          4   -1    0    0  501    0  0.00000000000E+00  0.00000000000E+00  0.46135481463E+02  0.46152958191E+02  0.12700000000E+01 0.  1.
         -4   -1    0    0    0  501 -0.00000000000E+00 -0.00000000000E+00 -0.84536213798E+02  0.84545752959E+02  0.12700000000E+01 0.  1.
    9000005    1    1    2    0    0 -0.31458986030E+02  0.53394407138E+02 -0.11079619332E+02  0.62963389999E+02  0.10000000000E+01 0.  0.
    9000005    1    1    2    0    0  0.31458986030E+02 -0.53394407138E+02 -0.27321113003E+02  0.67735321151E+02  0.10000000000E+01 0.  0.
<mgrwt>
<rscale>  0 0.12493013E+03</rscale>
<asrwt>0</asrwt>
<pdfrwt beam="1">  1        4 0.70998445E-02 0.12493013E+03</pdfrwt>
<pdfrwt beam="2">  1       -4 0.13007650E-01 0.12493013E+03</pdfrwt>
<totfact> 0.10345853E+04</totfact>
</mgrwt>
</event>
<event>
 5    1  0.3259432E-002  0.1250004E+03  0.7818608E-02  0.1235069E+00
          4   -1    0    0  501    0  0.00000000000E+00  0.00000000000E+00  0.64550452541E+02  0.64562944660E+02  0.12700000000E+01 0. -1.
         -4   -1    0    0    0  501 -0.00000000000E+00 -0.00000000000E+00 -0.60490017137E+02  0.60503347621E+02  0.12700000000E+01 0. -1.
         25    2    1    2    0    0  0.00000000000E+00  0.00000000000E+00  0.40604354034E+01  0.12506629228E+03  0.12500036132E+03 0.  0.
    9000005    1    3    3    0    0  0.34424206931E+02 -0.17713497019E+02 -0.47051528684E+02  0.60939645150E+02  0.10000000000E+01 0.  0.
    9000005    1    3    3    0    0 -0.34424206931E+02  0.17713497019E+02  0.51111964087E+02  0.64126647131E+02  0.10000000000E+01 0.  0.
<mgrwt>
<rscale>  0 0.12500036E+03</rscale>
<asrwt>0</asrwt>
<pdfrwt beam="1">  1        4 0.99328253E-02 0.12500036E+03</pdfrwt>
<pdfrwt beam="2">  1       -4 0.93081428E-02 0.12500036E+03</pdfrwt>
<totfact> 0.10451338E+04</totfact>
</mgrwt>
</event>
<event>
 5    1  0.3259432E-002  0.1249987E+03  0.7818608E-02  0.1235071E+00
         -4   -1    0    0    0  501 -0.00000000000E+00  0.00000000000E+00  0.17655976272E+03  0.17656433024E+03  0.12700000000E+01 0.  1.
          4   -1    0    0  501    0  0.00000000000E+00 -0.00000000000E+00 -0.22100700982E+02  0.22137160701E+02  0.12700000000E+01 0.  1.
         25    2    1    2    0    0  0.00000000000E+00  0.00000000000E+00  0.15445906174E+03  0.19870149094E+03  0.12499872299E+03 0.  0.
    9000005    1    3    3    0    0  0.19093376097E+02  0.38446756285E+02  0.14942140695E+03  0.15546854002E+03  0.10000000000E+01 0.  0.
    9000005    1    3    3    0    0 -0.19093376097E+02 -0.38446756285E+02  0.50376547870E+01  0.43232950921E+02  0.10000000000E+01 0.  0.
<mgrwt>
<rscale>  0 0.12499872E+03</rscale>
<asrwt>0</asrwt>
<pdfrwt beam="2">  1        4 0.34032639E-02 0.12499872E+03</pdfrwt>
<pdfrwt beam="1">  1       -4 0.27166195E-01 0.12499872E+03</pdfrwt>
<totfact> 0.90357522E+03</totfact>
</mgrwt>
</event>
<event>
 5    1  0.3259432E-002  0.1250014E+03  0.7818608E-02  0.1235067E+00
         -4   -1    0    0    0  501 -0.00000000000E+00  0.00000000000E+00  0.51362923476E+01  0.52909733585E+01  0.12700000000E+01 0. -1.
          4   -1    0    0  501    0  0.00000000000E+00 -0.00000000000E+00 -0.74909865875E+03  0.74909973531E+03  0.12700000000E+01 0. -1.
         25    2    1    2    0    0  0.00000000000E+00  0.00000000000E+00 -0.74396236640E+03  0.75439070867E+03  0.12500135480E+03 0.  0.
    9000005    1    3    3    0    0  0.52663359199E+02  0.30051690808E+02 -0.28069380903E+03  0.28716989388E+03  0.10000000000E+01 0.  0.
    9000005    1    3    3    0    0 -0.52663359199E+02 -0.30051690808E+02 -0.46326855738E+03  0.46722081479E+03  0.10000000000E+01 0.  0.
<mgrwt>
<rscale>  0 0.12500135E+03</rscale>
<asrwt>0</asrwt>
<pdfrwt beam="2">  1        4 0.11525784E+00 0.12500135E+03</pdfrwt>
<pdfrwt beam="1">  1       -4 0.80218077E-03 0.12500135E+03</pdfrwt>
<totfact> 0.40363834E+03</totfact>
</mgrwt>
</event>
<event>
 5    1  0.3259432E-002  0.1250017E+03  0.7818608E-02  0.1235067E+00
          4   -1    0    0  501    0  0.00000000000E+00  0.00000000000E+00  0.91577203049E+01  0.92453632261E+01  0.12700000000E+01 0. -1.
         -4   -1    0    0    0  501 -0.00000000000E+00 -0.00000000000E+00 -0.42444450482E+03  0.42444640483E+03  0.12700000000E+01 0. -1.
         25    2    1    2    0    0  0.00000000000E+00  0.00000000000E+00 -0.41528678451E+03  0.43369176805E+03  0.12500174513E+03 0.  0.
    9000005    1    3    3    0    0  0.22766772044E+01  0.51292525044E+02 -0.84037507269E+02  0.98485577688E+02  0.10000000000E+01 0.  0.
    9000005    1    3    3    0    0 -0.22766772044E+01 -0.51292525044E+02 -0.33124927724E+03  0.33520619037E+03  0.10000000000E+01 0.  0.
<mgrwt>
<rscale>  0 0.12500175E+03</rscale>
<asrwt>0</asrwt>
<pdfrwt beam="1">  1        4 0.14157683E-02 0.12500175E+03</pdfrwt>
<pdfrwt beam="2">  1       -4 0.65306027E-01 0.12500175E+03</pdfrwt>
<totfact> 0.61400420E+03</totfact>
</mgrwt>
</event>
<event>
 5    1  0.3259432E-002  0.1249996E+03  0.7818608E-02  0.1235070E+00
         -4   -1    0    0    0  501 -0.00000000000E+00  0.00000000000E+00  0.62340296395E+03  0.62340425757E+03  0.12700000000E+01 0.  1.
          4   -1    0    0  501    0  0.00000000000E+00 -0.00000000000E+00 -0.62003079759E+01  0.63290377623E+01  0.12700000000E+01 0.  1.
         25    2    1    2    0    0  0.00000000000E+00  0.00000000000E+00  0.61720265597E+03  0.62973329533E+03  0.12499961885E+03 0.  0.
    9000005    1    3    3    0    0  0.28509010553E+02 -0.53905567105E+02  0.23977340313E+03  0.24740828340E+03  0.10000000000E+01 0.  0.
    9000005    1    3    3    0    0 -0.28509010553E+02  0.53905567105E+02  0.37742925284E+03  0.38232501193E+03  0.10000000000E+01 0.  0.
<mgrwt>
<rscale>  0 0.12499962E+03</rscale>
<asrwt>0</asrwt>
<pdfrwt beam="2">  1        4 0.96389536E-03 0.12499962E+03</pdfrwt>
<pdfrwt beam="1">  1       -4 0.95918148E-01 0.12499962E+03</pdfrwt>
<totfact> 0.47043377E+03</totfact>
</mgrwt>
</event>
<event>
 5    1  0.3259432E-002  0.1249999E+03  0.7818608E-02  0.1235069E+00
          4   -1    0    0  501    0  0.00000000000E+00  0.00000000000E+00  0.11672652501E+02  0.11741538076E+02  0.12700000000E+01 0.  1.
         -4   -1    0    0    0  501 -0.00000000000E+00 -0.00000000000E+00 -0.33359467214E+03  0.33359708958E+03  0.12700000000E+01 0.  1.
         25    2    1    2    0    0  0.00000000000E+00  0.00000000000E+00 -0.32192201963E+03  0.34533862766E+03  0.12499992411E+03 0.  0.
    9000005    1    3    3    0    0 -0.12440815049E+02  0.12297515240E+02 -0.32670621113E+03  0.32717571907E+03  0.10000000000E+01 0.  0.
    9000005    1    3    3    0    0  0.12440815049E+02 -0.12297515240E+02  0.47841914912E+01  0.18162908589E+02  0.10000000000E+01 0.  0.
<mgrwt>
<rscale>  0 0.12499992E+03</rscale>
<asrwt>0</asrwt>
<pdfrwt beam="1">  1        4 0.18012778E-02 0.12499992E+03</pdfrwt>
<pdfrwt beam="2">  1       -4 0.51327735E-01 0.12499992E+03</pdfrwt>
<totfact> 0.70240547E+03</totfact>
</mgrwt>
</event>
<event>
 5    1  0.3259432E-002  0.1249941E+03  0.7818608E-02  0.1235078E+00
          4   -1    0    0  501    0  0.00000000000E+00  0.00000000000E+00  0.64819774974E+01  0.66052200779E+01  0.12700000000E+01 0. -1.
         -4   -1    0    0    0  501 -0.00000000000E+00 -0.00000000000E+00 -0.59677720142E+03  0.59677855276E+03  0.12700000000E+01 0. -1.
         25    2    1    2    0    0  0.00000000000E+00  0.00000000000E+00 -0.59029522392E+03  0.60338377284E+03  0.12499410362E+03 0.  0.
    9000005    1    3    3    0    0 -0.32253649051E+01  0.59059477353E+02 -0.19782557020E+03  0.20648094602E+03  0.10000000000E+01 0.  0.
    9000005    1    3    3    0    0  0.32253649051E+01 -0.59059477353E+02 -0.39246965372E+03  0.39690282681E+03  0.10000000000E+01 0.  0.
<mgrwt>
<rscale>  0 0.12499410E+03</rscale>
<asrwt>0</asrwt>
<pdfrwt beam="1">  1        4 0.10068119E-02 0.12499410E+03</pdfrwt>
<pdfrwt beam="2">  1       -4 0.91821418E-01 0.12499410E+03</pdfrwt>
<totfact> 0.48661019E+03</totfact>
</mgrwt>
</event>
<event>
 5    1  0.3259432E-002  0.1250015E+03  0.7818608E-02  0.1235067E+00
         -4   -1    0    0    0  501 -0.00000000000E+00  0.00000000000E+00  0.62434309054E+02  0.62447224494E+02  0.12700000000E+01 0.  1.
          4   -1    0    0  501    0  0.00000000000E+00 -0.00000000000E+00 -0.62541468508E+02  0.62554361823E+02  0.12700000000E+01 0.  1.
         25    2    1    2    0    0  0.00000000000E+00  0.00000000000E+00 -0.10715945411E+00  0.12500158632E+03  0.12500154039E+03 0.  0.
    9000005    1    3    3    0    0 -0.13143083226E+02  0.12402295841E+02 -0.59876579701E+02  0.62552077308E+02  0.10000000000E+01 0.  0.
    9000005    1    3    3    0    0  0.13143083226E+02 -0.12402295841E+02  0.59769420247E+02  0.62449509009E+02  0.10000000000E+01 0.  0.
<mgrwt>
<rscale>  0 0.12500154E+03</rscale>
<asrwt>0</asrwt>
<pdfrwt beam="2">  1        4 0.96237497E-02 0.12500154E+03</pdfrwt>
<pdfrwt beam="1">  1       -4 0.96072635E-02 0.12500154E+03</pdfrwt>
<totfact> 0.10452464E+04</totfact>
</mgrwt>
</event>
<event>
 5    1  0.3259432E-002  0.1249973E+03  0.7818608E-02  0.1235073E+00
         -4   -1    0    0    0  501 -0.00000000000E+00  0.00000000000E+00  0.11677516965E+04  0.11677523871E+04  0.12700000000E+01 0.  1.
          4   -1    0    0  501    0  0.00000000000E+00 -0.00000000000E+00 -0.32236951612E+01  0.34648391726E+01  0.12700000000E+01 0.  1.
         25    2    1    2    0    0  0.00000000000E+00  0.00000000000E+00  0.11645280013E+04  0.11712172263E+04  0.12499730084E+03 0.  0.
    9000005    1    3    3    0    0 -0.49434621507E+02 -0.29537244166E+02  0.35489072582E+03  0.35953394537E+03  0.10000000000E+01 0.  0.
    9000005    1    3    3    0    0  0.49434621507E+02  0.29537244166E+02  0.80963727552E+03  0.81168328091E+03  0.10000000000E+01 0.  0.
<mgrwt>
<rscale>  0 0.12499730E+03</rscale>
<asrwt>0</asrwt>
<pdfrwt beam="2">  1        4 0.51455581E-03 0.12499730E+03</pdfrwt>
<pdfrwt beam="1">  1       -4 0.17967269E+00 0.12499730E+03</pdfrwt>
<totfact> 0.25480313E+03</totfact>
</mgrwt>
</event>
<event>
 5    1  0.3259432E-002  0.1249895E+03  0.7818608E-02  0.1235086E+00
          4   -1    0    0  501    0  0.00000000000E+00  0.00000000000E+00  0.25376022920E+02  0.25407783044E+02  0.12700000000E+01 0. -1.
         -4   -1    0    0    0  501 -0.00000000000E+00 -0.00000000000E+00 -0.15377811932E+03  0.15378336347E+03  0.12700000000E+01 0. -1.
         25    2    1    2    0    0  0.00000000000E+00  0.00000000000E+00 -0.12840209640E+03  0.17919114652E+03  0.12498947408E+03 0.  0.
    9000005    1    3    3    0    0  0.39955025506E+02  0.40550488142E+02 -0.27262758686E+02  0.63126889381E+02  0.10000000000E+01 0.  0.
    9000005    1    3    3    0    0 -0.39955025506E+02 -0.40550488142E+02 -0.10113933771E+03  0.11606425714E+03  0.10000000000E+01 0.  0.
<mgrwt>
<rscale>  0 0.12498947E+03</rscale>
<asrwt>0</asrwt>
<pdfrwt beam="1">  1        4 0.39068501E-02 0.12498947E+03</pdfrwt>
<pdfrwt beam="2">  1       -4 0.23661018E-01 0.12498947E+03</pdfrwt>
<totfact> 0.93784937E+03</totfact>
</mgrwt>
</event>
<event>
 5    1  0.3259432E-002  0.1249989E+03  0.7818608E-02  0.1235071E+00
         -4   -1    0    0    0  501 -0.00000000000E+00  0.00000000000E+00  0.90804340051E+02  0.90813220800E+02  0.12700000000E+01 0.  1.
          4   -1    0    0  501    0  0.00000000000E+00 -0.00000000000E+00 -0.42997209993E+02  0.43015961772E+02  0.12700000000E+01 0.  1.
         25    2    1    2    0    0  0.00000000000E+00  0.00000000000E+00  0.47807130058E+02  0.13382918257E+03  0.12499891369E+03 0.  0.
    9000005    1    3    3    0    0 -0.22514945056E+02 -0.18566256374E+02  0.83066178687E+02  0.88048956089E+02  0.10000000000E+01 0.  0.
    9000005    1    3    3    0    0  0.22514945056E+02  0.18566256374E+02 -0.35259048629E+02  0.45780226483E+02  0.10000000000E+01 0.  0.
<mgrwt>
<rscale>  0 0.12499891E+03</rscale>
<asrwt>0</asrwt>
<pdfrwt beam="2">  1        4 0.66170810E-02 0.12499891E+03</pdfrwt>
<pdfrwt beam="1">  1       -4 0.13972024E-01 0.12499891E+03</pdfrwt>
<totfact> 0.10263059E+04</totfact>
</mgrwt>
</event>
<event>
 5    1  0.3259432E-002  0.1250077E+03  0.7818608E-02  0.1235057E+00
         -4   -1    0    0    0  501 -0.00000000000E+00  0.00000000000E+00  0.39669289919E+03  0.39669493212E+03  0.12700000000E+01 0.  1.
          4   -1    0    0  501    0  0.00000000000E+00 -0.00000000000E+00 -0.98052343338E+01  0.98871391383E+01  0.12700000000E+01 0.  1.
         25    2    1    2    0    0  0.00000000000E+00  0.00000000000E+00  0.38688766486E+03  0.40658207125E+03  0.12500766156E+03 0.  0.
    9000005    1    3    3    0    0  0.30571900736E+02  0.51843135045E+02  0.13869259164E+03  0.15119188715E+03  0.10000000000E+01 0.  0.
    9000005    1    3    3    0    0 -0.30571900736E+02 -0.51843135045E+02  0.24819507322E+03  0.25539018410E+03  0.10000000000E+01 0.  0.
<mgrwt>
<rscale>  0 0.12500766E+03</rscale>
<asrwt>0</asrwt>
<pdfrwt beam="2">  1        4 0.15149547E-02 0.12500766E+03</pdfrwt>
<pdfrwt beam="1">  1       -4 0.61036121E-01 0.12500766E+03</pdfrwt>
<totfact> 0.63906819E+03</totfact>
</mgrwt>
</event>
<event>
 5    1  0.3259432E-002  0.1250038E+03  0.7818608E-02  0.1235063E+00
         -4   -1    0    0    0  501 -0.00000000000E+00  0.00000000000E+00  0.85946998032E+01  0.86880242119E+01  0.12700000000E+01 0.  1.
          4   -1    0    0  501    0  0.00000000000E+00 -0.00000000000E+00 -0.45197398440E+03  0.45197576868E+03  0.12700000000E+01 0.  1.
         25    2    1    2    0    0  0.00000000000E+00  0.00000000000E+00 -0.44337928460E+03  0.46066379289E+03  0.12500376023E+03 0.  0.
    9000005    1    3    3    0    0 -0.11811442389E+02 -0.61283341867E+02 -0.20984709653E+03  0.21893369335E+03  0.10000000000E+01 0.  0.
    9000005    1    3    3    0    0  0.11811442389E+02  0.61283341867E+02 -0.23353218806E+03  0.24173009954E+03  0.10000000000E+01 0.  0.
<mgrwt>
<rscale>  0 0.12500376E+03</rscale>
<asrwt>0</asrwt>
<pdfrwt beam="2">  1        4 0.69541757E-01 0.12500376E+03</pdfrwt>
<pdfrwt beam="1">  1       -4 0.13295779E-02 0.12500376E+03</pdfrwt>
<totfact> 0.59046116E+03</totfact>
</mgrwt>
</event>
<event>
 5    1  0.3259432E-002  0.1250019E+03  0.7818608E-02  0.1235066E+00
         -4   -1    0    0    0  501 -0.00000000000E+00  0.00000000000E+00  0.10484886377E+02  0.10561521781E+02  0.12700000000E+01 0.  1.
          4   -1    0    0  501    0  0.00000000000E+00 -0.00000000000E+00 -0.37113713682E+03  0.37113930973E+03  0.12700000000E+01 0.  1.
         25    2    1    2    0    0  0.00000000000E+00  0.00000000000E+00 -0.36065225045E+03  0.38170083151E+03  0.12500191609E+03 0.  0.
    9000005    1    3    3    0    0 -0.29423834260E+02 -0.26282728928E+02 -0.32336302845E+02  0.51021371445E+02  0.10000000000E+01 0.  0.
    9000005    1    3    3    0    0  0.29423834260E+02  0.26282728928E+02 -0.32831594760E+03  0.33067946007E+03  0.10000000000E+01 0.  0.
<mgrwt>
<rscale>  0 0.12500192E+03</rscale>
<asrwt>0</asrwt>
<pdfrwt beam="2">  1        4 0.57104073E-01 0.12500192E+03</pdfrwt>
<pdfrwt beam="1">  1       -4 0.16191219E-02 0.12500192E+03</pdfrwt>
<totfact> 0.66369515E+03</totfact>
</mgrwt>
</event>
<event>
 5    1  0.3259432E-002  0.1250020E+03  0.7818608E-02  0.1235066E+00
          4   -1    0    0  501    0  0.00000000000E+00  0.00000000000E+00  0.14862389142E+03  0.14862931744E+03  0.12700000000E+01 0.  1.
         -4   -1    0    0    0  501 -0.00000000000E+00 -0.00000000000E+00 -0.26262363000E+02  0.26293052511E+02  0.12700000000E+01 0.  1.
         25    2    1    2    0    0  0.00000000000E+00  0.00000000000E+00  0.12236152842E+03  0.17492236995E+03  0.12500196747E+03 0.  0.
    9000005    1    3    3    0    0 -0.43722102728E+02  0.32765255923E+02  0.18731814112E+02  0.57767336122E+02  0.10000000000E+01 0.  0.
    9000005    1    3    3    0    0  0.43722102728E+02 -0.32765255923E+02  0.10362971431E+03  0.11715503383E+03  0.10000000000E+01 0.  0.
<mgrwt>
<rscale>  0 0.12500197E+03</rscale>
<asrwt>0</asrwt>
<pdfrwt beam="1">  1        4 0.22867992E-01 0.12500197E+03</pdfrwt>
<pdfrwt beam="2">  1       -4 0.40431416E-02 0.12500197E+03</pdfrwt>
<totfact> 0.94534887E+03</totfact>
</mgrwt>
</event>
<event>
 5    1  0.3259432E-002  0.1250017E+03  0.7818608E-02  0.1235067E+00
         -4   -1    0    0    0  501 -0.00000000000E+00  0.00000000000E+00  0.46911443334E+02  0.46928631087E+02  0.12700000000E+01 0.  1.
          4   -1    0    0  501    0  0.00000000000E+00 -0.00000000000E+00 -0.83233595672E+02  0.83243284104E+02  0.12700000000E+01 0.  1.
         25    2    1    2    0    0  0.00000000000E+00  0.00000000000E+00 -0.36322152337E+02  0.13017191519E+03  0.12500171500E+03 0.  0.
    9000005    1    3    3    0    0 -0.23828331323E+02 -0.49498648739E+02  0.12861199910E+02  0.56429744495E+02  0.10000000000E+01 0.  0.
    9000005    1    3    3    0    0  0.23828331323E+02  0.49498648739E+02 -0.49183352247E+02  0.73742170696E+02  0.10000000000E+01 0.  0.
<mgrwt>
<rscale>  0 0.12500172E+03</rscale>
<asrwt>0</asrwt>
<pdfrwt beam="2">  1        4 0.12807236E-01 0.12500172E+03</pdfrwt>
<pdfrwt beam="1">  1       -4 0.72192125E-02 0.12500172E+03</pdfrwt>
<totfact> 0.10340431E+04</totfact>
</mgrwt>
</event>
<event>
 5    1  0.3259432E-002  0.1250009E+03  0.7818608E-02  0.1235068E+00
          4   -1    0    0  501    0  0.00000000000E+00  0.00000000000E+00  0.13270990976E+02  0.13331620363E+02  0.12700000000E+01 0. -1.
         -4   -1    0    0    0  501 -0.00000000000E+00 -0.00000000000E+00 -0.29361625666E+03  0.29361900326E+03  0.12700000000E+01 0. -1.
         25    2    1    2    0    0  0.00000000000E+00  0.00000000000E+00 -0.28034526568E+03  0.30695062362E+03  0.12500086940E+03 0.  0.
    9000005    1    3    3    0    0  0.46064818117E+02  0.36846363729E+02 -0.19083649669E+03  0.19974781715E+03  0.10000000000E+01 0.  0.
    9000005    1    3    3    0    0 -0.46064818117E+02 -0.36846363729E+02 -0.89508768993E+02  0.10720280647E+03  0.10000000000E+01 0.  0.
<mgrwt>
<rscale>  0 0.12500087E+03</rscale>
<asrwt>0</asrwt>
<pdfrwt beam="1">  1        4 0.20465662E-02 0.12500087E+03</pdfrwt>
<pdfrwt beam="2">  1       -4 0.45176602E-01 0.12500087E+03</pdfrwt>
<totfact> 0.74733716E+03</totfact>
</mgrwt>
</event>
<event>
 5    1  0.3259432E-002  0.1249933E+03  0.7818608E-02  0.1235080E+00
         -4   -1    0    0    0  501 -0.00000000000E+00  0.00000000000E+00  0.33953066725E+04  0.33953069100E+04  0.12700000000E+01 0.  1.
          4   -1    0    0  501    0  0.00000000000E+00 -0.00000000000E+00 -0.79953283164E+00  0.15007174114E+01  0.12700000000E+01 0.  1.
         25    2    1    2    0    0  0.00000000000E+00  0.00000000000E+00  0.33945071396E+04  0.33968076274E+04  0.12499334586E+03 0.  0.
    9000005    1    3    3    0    0 -0.28427438697E+02  0.25153248254E+02  0.34826906150E+03  0.35033290506E+03  0.10000000000E+01 0.  0.
    9000005    1    3    3    0    0  0.28427438697E+02 -0.25153248254E+02  0.30462380781E+04  0.30464747223E+04  0.10000000000E+01 0.  0.
<mgrwt>
<rscale>  0 0.12499335E+03</rscale>
<asrwt>0</asrwt>
<pdfrwt beam="2">  1        4 0.17696098E-03 0.12499335E+03</pdfrwt>
<pdfrwt beam="1">  1       -4 0.52240769E+00 0.12499335E+03</pdfrwt>
<totfact> 0.74358594E+01</totfact>
</mgrwt>
</event>
<event>
 5    1  0.3259432E-002  0.1249900E+03  0.7818608E-02  0.1235085E+00
          4   -1    0    0  501    0  0.00000000000E+00  0.00000000000E+00  0.76046887119E+02  0.76057491021E+02  0.12700000000E+01 0. -1.
         -4   -1    0    0    0  501 -0.00000000000E+00 -0.00000000000E+00 -0.51336114564E+02  0.51351821375E+02  0.12700000000E+01 0. -1.
         25    2    1    2    0    0  0.00000000000E+00  0.00000000000E+00  0.24710772555E+02  0.12740931240E+03  0.12499004202E+03 0.  0.
    9000005    1    3    3    0    0  0.11269055476E+02  0.51814726913E+02  0.46053844614E+02  0.70240402477E+02  0.10000000000E+01 0.  0.
    9000005    1    3    3    0    0 -0.11269055476E+02 -0.51814726913E+02 -0.21343072059E+02  0.57168909919E+02  0.10000000000E+01 0.  0.
<mgrwt>
<rscale>  0 0.12499004E+03</rscale>
<asrwt>0</asrwt>
<pdfrwt beam="1">  1        4 0.11701545E-01 0.12499004E+03</pdfrwt>
<pdfrwt beam="2">  1       -4 0.78998877E-02 0.12499004E+03</pdfrwt>
<totfact> 0.10402603E+04</totfact>
</mgrwt>
</event>
<event>
 5    1  0.3259432E-002  0.1249997E+03  0.7818608E-02  0.1235070E+00
         -4   -1    0    0    0  501 -0.00000000000E+00  0.00000000000E+00  0.18950484103E+03  0.18950909655E+03  0.12700000000E+01 0. -1.
          4   -1    0    0  501    0  0.00000000000E+00 -0.00000000000E+00 -0.20588769128E+02  0.20627901352E+02  0.12700000000E+01 0. -1.
         25    2    1    2    0    0  0.00000000000E+00  0.00000000000E+00  0.16891607190E+03  0.21013699790E+03  0.12499967416E+03 0.  0.
    9000005    1    3    3    0    0 -0.51140343682E+02 -0.36766066286E+01  0.14451774215E+03  0.15334676385E+03  0.10000000000E+01 0.  0.
    9000005    1    3    3    0    0  0.51140343682E+02  0.36766066286E+01  0.24398329752E+02  0.56790234045E+02  0.10000000000E+01 0.  0.
<mgrwt>
<rscale>  0 0.12499967E+03</rscale>
<asrwt>0</asrwt>
<pdfrwt beam="2">  1        4 0.31708404E-02 0.12499967E+03</pdfrwt>
<pdfrwt beam="1">  1       -4 0.29157929E-01 0.12499967E+03</pdfrwt>
<totfact> 0.88454156E+03</totfact>
</mgrwt>
</event>
<event>
 5    1  0.3259432E-002  0.1250016E+03  0.7818608E-02  0.1235067E+00
         -4   -1    0    0    0  501 -0.00000000000E+00  0.00000000000E+00  0.18945328533E+03  0.18945754200E+03  0.12700000000E+01 0. -1.
          4   -1    0    0  501    0  0.00000000000E+00 -0.00000000000E+00 -0.20595029171E+02  0.20634149523E+02  0.12700000000E+01 0. -1.
         25    2    1    2    0    0  0.00000000000E+00  0.00000000000E+00  0.16885825616E+03  0.21009169152E+03  0.12500163269E+03 0.  0.
    9000005    1    3    3    0    0 -0.25658053848E+02  0.37821786612E+02  0.15606232488E+03  0.16262002495E+03  0.10000000000E+01 0.  0.
    9000005    1    3    3    0    0  0.25658053848E+02 -0.37821786612E+02  0.12795931281E+02  0.47471666572E+02  0.10000000000E+01 0.  0.
<mgrwt>
<rscale>  0 0.12500163E+03</rscale>
<asrwt>0</asrwt>
<pdfrwt beam="2">  1        4 0.31718026E-02 0.12500163E+03</pdfrwt>
<pdfrwt beam="1">  1       -4 0.29149997E-01 0.12500163E+03</pdfrwt>
<totfact> 0.88457679E+03</totfact>
</mgrwt>
</event>
<event>
 5    1  0.3259432E-002  0.1249944E+03  0.7818608E-02  0.1235078E+00
         -4   -1    0    0    0  501 -0.00000000000E+00  0.00000000000E+00  0.24713127088E+02  0.24745738026E+02  0.12700000000E+01 0.  1.
          4   -1    0    0  501    0  0.00000000000E+00 -0.00000000000E+00 -0.15791025716E+03  0.15791536409E+03  0.12700000000E+01 0.  1.
         25    2    1    2    0    0  0.00000000000E+00  0.00000000000E+00 -0.13319713007E+03  0.18266110212E+03  0.12499441094E+03 0.  0.
    9000005    1    3    3    0    0 -0.65435961532E+00 -0.26392009191E+02 -0.14936766180E+03  0.15168607295E+03  0.10000000000E+01 0.  0.
    9000005    1    3    3    0    0  0.65435961532E+00  0.26392009191E+02  0.16170531727E+02  0.30975029168E+02  0.10000000000E+01 0.  0.
<mgrwt>
<rscale>  0 0.12499441E+03</rscale>
<asrwt>0</asrwt>
<pdfrwt beam="2">  1        4 0.24296787E-01 0.12499441E+03</pdfrwt>
<pdfrwt beam="1">  1       -4 0.38049210E-02 0.12499441E+03</pdfrwt>
<totfact> 0.93151848E+03</totfact>
</mgrwt>
</event>
<event>
 5    1  0.3259432E-002  0.1250013E+03  0.7818608E-02  0.1235067E+00
         -4   -1    0    0    0  501 -0.00000000000E+00  0.00000000000E+00  0.53755045692E+03  0.53755195715E+03  0.12700000000E+01 0. -1.
          4   -1    0    0  501    0  0.00000000000E+00 -0.00000000000E+00 -0.72099029119E+01  0.73209015838E+01  0.12700000000E+01 0. -1.
         25    2    1    2    0    0  0.00000000000E+00  0.00000000000E+00  0.53034055401E+03  0.54487285874E+03  0.12500131583E+03 0.  0.
    9000005    1    3    3    0    0  0.57454270124E+02  0.28721294279E+01  0.15874703300E+03  0.16885159984E+03  0.10000000000E+01 0.  0.
    9000005    1    3    3    0    0 -0.57454270124E+02 -0.28721294279E+01  0.37159352101E+03  0.37602125889E+03  0.10000000000E+01 0.  0.
<mgrwt>
<rscale>  0 0.12500132E+03</rscale>
<asrwt>0</asrwt>
<pdfrwt beam="2">  1        4 0.11178692E-02 0.12500132E+03</pdfrwt>
<pdfrwt beam="1">  1       -4 0.82708751E-01 0.12500132E+03</pdfrwt>
<totfact> 0.52541935E+03</totfact>
</mgrwt>
</event>
<event>
 5    1  0.3259432E-002  0.1249999E+03  0.7818608E-02  0.1235069E+00
         -4   -1    0    0    0  501 -0.00000000000E+00  0.00000000000E+00  0.96979914209E+02  0.96988229492E+02  0.12700000000E+01 0.  1.
          4   -1    0    0  501    0  0.00000000000E+00 -0.00000000000E+00 -0.40258851445E+02  0.40278878084E+02  0.12700000000E+01 0.  1.
         25    2    1    2    0    0  0.00000000000E+00  0.00000000000E+00  0.56721062763E+02  0.13726710758E+03  0.12499991944E+03 0.  0.
    9000005    1    3    3    0    0 -0.22160185763E+02  0.52605645213E+00  0.92523107253E+02  0.95146602378E+02  0.10000000000E+01 0.  0.
    9000005    1    3    3    0    0  0.22160185763E+02 -0.52605645213E+00 -0.35802044489E+02  0.42120505197E+02  0.10000000000E+01 0.  0.
<mgrwt>
<rscale>  0 0.12499992E+03</rscale>
<asrwt>0</asrwt>
<pdfrwt beam="2">  1        4 0.61958496E-02 0.12499992E+03</pdfrwt>
<pdfrwt beam="1">  1       -4 0.14922167E-01 0.12499992E+03</pdfrwt>
<totfact> 0.10190522E+04</totfact>
</mgrwt>
</event>
<event>
 5    1  0.3259432E-002  0.1249967E+03  0.7818608E-02  0.1235074E+00
         -4   -1    0    0    0  501 -0.00000000000E+00  0.00000000000E+00  0.14735772755E+02  0.14790398869E+02  0.12700000000E+01 0. -1.
          4   -1    0    0  501    0  0.00000000000E+00 -0.00000000000E+00 -0.26452583267E+03  0.26452888131E+03  0.12700000000E+01 0. -1.
         25    2    1    2    0    0  0.00000000000E+00  0.00000000000E+00 -0.24979005991E+03  0.27931928018E+03  0.12499674496E+03 0.  0.
    9000005    1    3    3    0    0 -0.47701745559E+02  0.39616342097E+02 -0.14222379337E+03  0.15515643232E+03  0.10000000000E+01 0.  0.
    9000005    1    3    3    0    0  0.47701745559E+02 -0.39616342097E+02 -0.10756626654E+03  0.12416284786E+03  0.10000000000E+01 0.  0.
<mgrwt>
<rscale>  0 0.12499674E+03</rscale>
<asrwt>0</asrwt>
<pdfrwt beam="2">  1        4 0.40700715E-01 0.12499674E+03</pdfrwt>
<pdfrwt beam="1">  1       -4 0.22714787E-02 0.12499674E+03</pdfrwt>
<totfact> 0.78274116E+03</totfact>
</mgrwt>
</event>
<event>
 5    1  0.3259432E-002  0.1250034E+03  0.7818608E-02  0.1235064E+00
         -4   -1    0    0    0  501 -0.00000000000E+00  0.00000000000E+00  0.19557339848E+01  0.23319081069E+01  0.12700000000E+01 0.  1.
          4   -1    0    0  501    0  0.00000000000E+00 -0.00000000000E+00 -0.18218209065E+04  0.18218213491E+04  0.12700000000E+01 0.  1.
         25    2    1    2    0    0  0.00000000000E+00  0.00000000000E+00 -0.18198651725E+04  0.18241532572E+04  0.12500343943E+03 0.  0.
    9000005    1    3    3    0    0 -0.15019508588E+02 -0.29895021263E+01 -0.25778142620E+02  0.30000589963E+02  0.10000000000E+01 0.  0.
    9000005    1    3    3    0    0  0.15019508588E+02  0.29895021263E+01 -0.17940870299E+04  0.17941526673E+04  0.10000000000E+01 0.  0.
<mgrwt>
<rscale>  0 0.12500344E+03</rscale>
<asrwt>0</asrwt>
<pdfrwt beam="2">  1        4 0.28030787E+00 0.12500344E+03</pdfrwt>
<pdfrwt beam="1">  1       -4 0.32985413E-03 0.12500344E+03</pdfrwt>
<totfact> 0.12334235E+03</totfact>
</mgrwt>
</event>
<event>
 5    1  0.3259432E-002  0.1250021E+03  0.7818608E-02  0.1235066E+00
          4   -1    0    0  501    0  0.00000000000E+00  0.00000000000E+00  0.12110380032E+03  0.12111045930E+03  0.12700000000E+01 0. -1.
         -4   -1    0    0    0  501 -0.00000000000E+00 -0.00000000000E+00 -0.32236429927E+02  0.32261436955E+02  0.12700000000E+01 0. -1.
         25    2    1    2    0    0  0.00000000000E+00  0.00000000000E+00  0.88867370391E+02  0.15337189625E+03  0.12500211614E+03 0.  0.
    9000005    1    3    3    0    0  0.11886721418E+02 -0.60055553151E+00  0.11970638706E+03  0.12030076440E+03  0.10000000000E+01 0.  0.
    9000005    1    3    3    0    0 -0.11886721418E+02  0.60055553151E+00 -0.30839016667E+02  0.33071131852E+02  0.10000000000E+01 0.  0.
<mgrwt>
<rscale>  0 0.12500212E+03</rscale>
<asrwt>0</asrwt>
<pdfrwt beam="1">  1        4 0.18633790E-01 0.12500212E+03</pdfrwt>
<pdfrwt beam="2">  1       -4 0.49618866E-02 0.12500212E+03</pdfrwt>
<totfact> 0.98631062E+03</totfact>
</mgrwt>
</event>
<event>
 5    1  0.3259432E-002  0.1250004E+03  0.7818608E-02  0.1235069E+00
          4   -1    0    0  501    0  0.00000000000E+00  0.00000000000E+00  0.20044802537E+03  0.20045204856E+03  0.12700000000E+01 0. -1.
         -4   -1    0    0    0  501 -0.00000000000E+00 -0.00000000000E+00 -0.19462796802E+02  0.19504188252E+02  0.12700000000E+01 0. -1.
         25    2    1    2    0    0  0.00000000000E+00  0.00000000000E+00  0.18098522856E+03  0.21995623682E+03  0.12500037262E+03 0.  0.
    9000005    1    3    3    0    0  0.41200195682E+02  0.31632789163E+01  0.79990387216E+01  0.42100440357E+02  0.10000000000E+01 0.  0.
    9000005    1    3    3    0    0 -0.41200195682E+02 -0.31632789163E+01  0.17298618984E+03  0.17785579646E+03  0.10000000000E+01 0.  0.
<mgrwt>
<rscale>  0 0.12500037E+03</rscale>
<asrwt>0</asrwt>
<pdfrwt beam="1">  1        4 0.30841651E-01 0.12500037E+03</pdfrwt>
<pdfrwt beam="2">  1       -4 0.29977699E-02 0.12500037E+03</pdfrwt>
<totfact> 0.86874551E+03</totfact>
</mgrwt>
</event>
<event>
 5    1  0.3259432E-002  0.1250002E+03  0.7818608E-02  0.1235069E+00
          4   -1    0    0  501    0  0.00000000000E+00  0.00000000000E+00  0.29124130480E+03  0.29124407380E+03  0.12700000000E+01 0.  1.
         -4   -1    0    0    0  501 -0.00000000000E+00 -0.00000000000E+00 -0.13379552591E+02  0.13439692241E+02  0.12700000000E+01 0.  1.
         25    2    1    2    0    0  0.00000000000E+00  0.00000000000E+00  0.27786175221E+03  0.30468376604E+03  0.12500017579E+03 0.  0.
    9000005    1    3    3    0    0 -0.45250934731E+02  0.60350186703E+01  0.34910933219E+02  0.57479055338E+02  0.10000000000E+01 0.  0.
    9000005    1    3    3    0    0  0.45250934731E+02 -0.60350186703E+01  0.24295081899E+03  0.24720471070E+03  0.10000000000E+01 0.  0.
<mgrwt>
<rscale>  0 0.12500018E+03</rscale>
<asrwt>0</asrwt>
<pdfrwt beam="1">  1        4 0.44811194E-01 0.12500018E+03</pdfrwt>
<pdfrwt beam="2">  1       -4 0.20632318E-02 0.12500018E+03</pdfrwt>
<totfact> 0.75014752E+03</totfact>
</mgrwt>
</event>
<event>
 5    1  0.3259432E-002  0.1250001E+03  0.7818608E-02  0.1235069E+00
          4   -1    0    0  501    0  0.00000000000E+00  0.00000000000E+00  0.17845525049E+03  0.17845976950E+03  0.12700000000E+01 0. -1.
         -4   -1    0    0    0  501 -0.00000000000E+00 -0.00000000000E+00 -0.21866044803E+02  0.21902895136E+02  0.12700000000E+01 0. -1.
         25    2    1    2    0    0  0.00000000000E+00  0.00000000000E+00  0.15658920569E+03  0.20036266463E+03  0.12500007216E+03 0.  0.
    9000005    1    3    3    0    0 -0.66379525369E+01 -0.56960780085E+02  0.11809890347E+03  0.13128954217E+03  0.10000000000E+01 0.  0.
    9000005    1    3    3    0    0  0.66379525369E+01  0.56960780085E+02  0.38490302215E+02  0.69073122460E+02  0.10000000000E+01 0.  0.
<mgrwt>
<rscale>  0 0.12500007E+03</rscale>
<asrwt>0</asrwt>
<pdfrwt beam="1">  1        4 0.27457836E-01 0.12500007E+03</pdfrwt>
<pdfrwt beam="2">  1       -4 0.33671892E-02 0.12500007E+03</pdfrwt>
<totfact> 0.90074231E+03</totfact>
</mgrwt>
</event>
<event>
 5    1  0.3259432E-002  0.1249986E+03  0.7818608E-02  0.1235072E+00
          4   -1    0    0  501    0  0.00000000000E+00  0.00000000000E+00  0.30006872159E+02  0.30033735645E+02  0.12700000000E+01 0.  1.
         -4   -1    0    0    0  501 -0.00000000000E+00 -0.00000000000E+00 -0.13008730700E+03  0.13009350615E+03  0.12700000000E+01 0.  1.
         25    2    1    2    0    0  0.00000000000E+00  0.00000000000E+00 -0.10008043484E+03  0.16012724180E+03  0.12499856050E+03 0.  0.
    9000005    1    3    3    0    0 -0.90569771132E+01 -0.46363663349E+02  0.23654804526E+01  0.47309762326E+02  0.10000000000E+01 0.  0.
    9000005    1    3    3    0    0  0.90569771132E+01  0.46363663349E+02 -0.10244591529E+03  0.11281747947E+03  0.10000000000E+01 0.  0.
<mgrwt>
<rscale>  0 0.12499856E+03</rscale>
<asrwt>0</asrwt>
<pdfrwt beam="1">  1        4 0.46189852E-02 0.12499856E+03</pdfrwt>
<pdfrwt beam="2">  1       -4 0.20015975E-01 0.12499856E+03</pdfrwt>
<totfact> 0.97321408E+03</totfact>
</mgrwt>
</event>
<event>
 4    1  0.3259432E-002  0.1249043E+03  0.7818608E-02  0.1235219E+00
         -4   -1    0    0    0  501 -0.00000000000E+00  0.00000000000E+00  0.48862543844E+02  0.48879045519E+02  0.12700000000E+01 0.  1.
          4   -1    0    0  501    0  0.00000000000E+00 -0.00000000000E+00 -0.79786306051E+02  0.79796413035E+02  0.12700000000E+01 0.  1.
    9000005    1    1    2    0    0 -0.62133513583E+02  0.38582040177E+01 -0.20489217506E+02  0.65545917359E+02  0.10000000000E+01 0.  0.
    9000005    1    1    2    0    0  0.62133513583E+02 -0.38582040177E+01 -0.10434544701E+02  0.63129541196E+02  0.10000000000E+01 0.  0.
<mgrwt>
<rscale>  0 0.12490434E+03</rscale>
<asrwt>0</asrwt>
<pdfrwt beam="2">  1        4 0.12276863E-01 0.12490434E+03</pdfrwt>
<pdfrwt beam="1">  1       -4 0.75193612E-02 0.12490434E+03</pdfrwt>
<totfact> 0.10395357E+04</totfact>
</mgrwt>
</event>
<event>
 5    1  0.3259432E-002  0.1250001E+03  0.7818608E-02  0.1235069E+00
          4   -1    0    0  501    0  0.00000000000E+00  0.00000000000E+00  0.39072094727E+02  0.39092729329E+02  0.12700000000E+01 0.  1.
         -4   -1    0    0    0  501 -0.00000000000E+00 -0.00000000000E+00 -0.99924473722E+02  0.99932543991E+02  0.12700000000E+01 0.  1.
         25    2    1    2    0    0  0.00000000000E+00  0.00000000000E+00 -0.60852378994E+02  0.13902527332E+03  0.12500005837E+03 0.  0.
    9000005    1    3    3    0    0 -0.45716369004E+01 -0.60243164442E+02 -0.48190627504E+02  0.77288261109E+02  0.10000000000E+01 0.  0.
    9000005    1    3    3    0    0  0.45716369004E+01  0.60243164442E+02 -0.12661751490E+02  0.61737012211E+02  0.10000000000E+01 0.  0.
<mgrwt>
<rscale>  0 0.12500006E+03</rscale>
<asrwt>0</asrwt>
<pdfrwt beam="1">  1        4 0.60132996E-02 0.12500006E+03</pdfrwt>
<pdfrwt beam="2">  1       -4 0.15375204E-01 0.12500006E+03</pdfrwt>
<totfact> 0.10153814E+04</totfact>
</mgrwt>
</event>
<event>
 5    1  0.3259432E-002  0.1249970E+03  0.7818608E-02  0.1235074E+00
         -4   -1    0    0    0  501 -0.00000000000E+00  0.00000000000E+00  0.39633277894E+02  0.39653620473E+02  0.12700000000E+01 0. -1.
          4   -1    0    0  501    0  0.00000000000E+00 -0.00000000000E+00 -0.98505319549E+02  0.98513506076E+02  0.12700000000E+01 0. -1.
         25    2    1    2    0    0  0.00000000000E+00  0.00000000000E+00 -0.58872041655E+02  0.13816712655E+03  0.12499695024E+03 0.  0.
    9000005    1    3    3    0    0 -0.11862109859E+02 -0.58946217422E+01  0.38069084900E+02  0.40320112115E+02  0.10000000000E+01 0.  0.
    9000005    1    3    3    0    0  0.11862109859E+02  0.58946217422E+01 -0.96941126556E+02  0.97847014434E+02  0.10000000000E+01 0.  0.
<mgrwt>
<rscale>  0 0.12499695E+03</rscale>
<asrwt>0</asrwt>
<pdfrwt beam="2">  1        4 0.15156859E-01 0.12499695E+03</pdfrwt>
<pdfrwt beam="1">  1       -4 0.60996220E-02 0.12499695E+03</pdfrwt>
<totfact> 0.10172414E+04</totfact>
</mgrwt>
</event>
<event>
 5    1  0.3259432E-002  0.1250025E+03  0.7818608E-02  0.1235065E+00
         -4   -1    0    0    0  501 -0.00000000000E+00  0.00000000000E+00  0.44200468403E+01  0.45988818283E+01  0.12700000000E+01 0.  1.
          4   -1    0    0  501    0  0.00000000000E+00 -0.00000000000E+00 -0.86608936846E+03  0.86609029960E+03  0.12700000000E+01 0.  1.
         25    2    1    2    0    0  0.00000000000E+00  0.00000000000E+00 -0.86166932162E+03  0.87068918143E+03  0.12500252331E+03 0.  0.
    9000005    1    3    3    0    0 -0.61470862725E+01  0.47911015466E+02 -0.70701460462E+03  0.70866346259E+03  0.10000000000E+01 0.  0.
    9000005    1    3    3    0    0  0.61470862725E+01 -0.47911015466E+02 -0.15465471701E+03  0.16202571884E+03  0.10000000000E+01 0.  0.
<mgrwt>
<rscale>  0 0.12500252E+03</rscale>
<asrwt>0</asrwt>
<pdfrwt beam="2">  1        4 0.13325821E+00 0.12500252E+03</pdfrwt>
<pdfrwt beam="1">  1       -4 0.69383606E-03 0.12500252E+03</pdfrwt>
<totfact> 0.35293429E+03</totfact>
</mgrwt>
</event>
<event>
 5    1  0.3259432E-002  0.1250511E+03  0.7818608E-02  0.1234989E+00
         -4   -1    0    0    0  501 -0.00000000000E+00  0.00000000000E+00  0.18476726726E+02  0.18520322096E+02  0.12700000000E+01 0. -1.
          4   -1    0    0  501    0  0.00000000000E+00 -0.00000000000E+00 -0.21129282419E+03  0.21129664090E+03  0.12700000000E+01 0. -1.
         25    2    1    2    0    0  0.00000000000E+00  0.00000000000E+00 -0.19281609747E+03  0.22981696300E+03  0.12505114569E+03 0.  0.
    9000005    1    3    3    0    0  0.54624225233E+02 -0.86930770177E+01 -0.14995892558E+03  0.15983758923E+03  0.10000000000E+01 0.  0.
    9000005    1    3    3    0    0 -0.54624225233E+02  0.86930770177E+01 -0.42857171891E+02  0.69979373767E+02  0.10000000000E+01 0.  0.
<mgrwt>
<rscale>  0 0.12505115E+03</rscale>
<asrwt>0</asrwt>
<pdfrwt beam="2">  1        4 0.32510234E-01 0.12505115E+03</pdfrwt>
<pdfrwt beam="1">  1       -4 0.28462206E-02 0.12505115E+03</pdfrwt>
<totfact> 0.85240400E+03</totfact>
</mgrwt>
</event>
<event>
 5    1  0.3259432E-002  0.1250159E+03  0.7818608E-02  0.1235044E+00
         -4   -1    0    0    0  501 -0.00000000000E+00  0.00000000000E+00  0.36624417928E+02  0.36646430775E+02  0.12700000000E+01 0.  1.
          4   -1    0    0  501    0  0.00000000000E+00 -0.00000000000E+00 -0.10662635624E+03  0.10663391930E+03  0.12700000000E+01 0.  1.
         25    2    1    2    0    0  0.00000000000E+00  0.00000000000E+00 -0.70001938316E+02  0.14328035008E+03  0.12501594838E+03 0.  0.
    9000005    1    3    3    0    0  0.55600584727E+02  0.17510240605E+02 -0.91638419843E+01  0.59017027610E+02  0.10000000000E+01 0.  0.
    9000005    1    3    3    0    0 -0.55600584727E+02 -0.17510240605E+02 -0.60838096332E+02  0.84263322468E+02  0.10000000000E+01 0.  0.
<mgrwt>
<rscale>  0 0.12501595E+03</rscale>
<asrwt>0</asrwt>
<pdfrwt beam="2">  1        4 0.16406330E-01 0.12501595E+03</pdfrwt>
<pdfrwt beam="1">  1       -4 0.56368009E-02 0.12501595E+03</pdfrwt>
<totfact> 0.10062431E+04</totfact>
</mgrwt>
</event>
<event>
 5    1  0.3259432E-002  0.1249800E+03  0.7818608E-02  0.1235101E+00
         -4   -1    0    0    0  501 -0.00000000000E+00  0.00000000000E+00  0.10764826731E+03  0.10765575858E+03  0.12700000000E+01 0.  1.
          4   -1    0    0  501    0  0.00000000000E+00 -0.00000000000E+00 -0.36255690239E+02  0.36277926825E+02  0.12700000000E+01 0.  1.
         25    2    1    2    0    0  0.00000000000E+00  0.00000000000E+00  0.71392577069E+02  0.14393368540E+03  0.12498002133E+03 0.  0.
    9000005    1    3    3    0    0  0.12068734973E+02 -0.61296812583E+02  0.34517411299E+02  0.71382107558E+02  0.10000000000E+01 0.  0.
    9000005    1    3    3    0    0 -0.12068734973E+02  0.61296812583E+02  0.36875165771E+02  0.72551577842E+02  0.10000000000E+01 0.  0.
<mgrwt>
<rscale>  0 0.12498002E+03</rscale>
<asrwt>0</asrwt>
<pdfrwt beam="2">  1        4 0.55800853E-02 0.12498002E+03</pdfrwt>
<pdfrwt beam="1">  1       -4 0.16563559E-01 0.12498002E+03</pdfrwt>
<totfact> 0.10057223E+04</totfact>
</mgrwt>
</event>
<event>
 5    1  0.3259432E-002  0.1250007E+03  0.7818608E-02  0.1235068E+00
          4   -1    0    0  501    0  0.00000000000E+00  0.00000000000E+00  0.10550865940E+02  0.10627025552E+02  0.12700000000E+01 0. -1.
         -4   -1    0    0    0  501 -0.00000000000E+00 -0.00000000000E+00 -0.36882582931E+03  0.36882801583E+03  0.12700000000E+01 0. -1.
         25    2    1    2    0    0  0.00000000000E+00  0.00000000000E+00 -0.35827496337E+03  0.37945504139E+03  0.12500071623E+03 0.  0.
    9000005    1    3    3    0    0 -0.29225572603E+02  0.21117952285E+02 -0.33407898207E+03  0.33602063667E+03  0.10000000000E+01 0.  0.
    9000005    1    3    3    0    0  0.29225572603E+02 -0.21117952285E+02 -0.24195981296E+02  0.43434404722E+02  0.10000000000E+01 0.  0.
<mgrwt>
<rscale>  0 0.12500072E+03</rscale>
<asrwt>0</asrwt>
<pdfrwt beam="1">  1        4 0.16292371E-02 0.12500072E+03</pdfrwt>
<pdfrwt beam="2">  1       -4 0.56748452E-01 0.12500072E+03</pdfrwt>
<totfact> 0.66600178E+03</totfact>
</mgrwt>
</event>
<event>
 5    1  0.3259432E-002  0.1249913E+03  0.7818608E-02  0.1235083E+00
         -4   -1    0    0    0  501 -0.00000000000E+00  0.00000000000E+00  0.52802136053E+02  0.52817406901E+02  0.12700000000E+01 0.  1.
          4   -1    0    0  501    0  0.00000000000E+00 -0.00000000000E+00 -0.73937283166E+02  0.73948189578E+02  0.12700000000E+01 0.  1.
         25    2    1    2    0    0  0.00000000000E+00  0.00000000000E+00 -0.21135147113E+02  0.12676559648E+03  0.12499128773E+03 0.  0.
    9000005    1    3    3    0    0  0.48867228564E+02 -0.31649242976E+02  0.12448740364E+02  0.59545375514E+02  0.10000000000E+01 0.  0.
    9000005    1    3    3    0    0 -0.48867228564E+02  0.31649242976E+02 -0.33583887477E+02  0.67220220965E+02  0.10000000000E+01 0.  0.
<mgrwt>
<rscale>  0 0.12499129E+03</rscale>
<asrwt>0</asrwt>
<pdfrwt beam="2">  1        4 0.11376980E-01 0.12499129E+03</pdfrwt>
<pdfrwt beam="1">  1       -4 0.81254192E-02 0.12499129E+03</pdfrwt>
<totfact> 0.10416291E+04</totfact>
</mgrwt>
</event>
<event>
 5    1  0.3259432E-002  0.1249992E+03  0.7818608E-02  0.1235071E+00
          4   -1    0    0  501    0  0.00000000000E+00  0.00000000000E+00  0.14290301220E+02  0.14346623608E+02  0.12700000000E+01 0.  1.
         -4   -1    0    0    0  501 -0.00000000000E+00 -0.00000000000E+00 -0.27275065546E+03  0.27275361217E+03  0.12700000000E+01 0.  1.
         25    2    1    2    0    0  0.00000000000E+00  0.00000000000E+00 -0.25846035424E+03  0.28710023578E+03  0.12499916269E+03 0.  0.
    9000005    1    3    3    0    0 -0.29327340093E+02 -0.46895773617E+02 -0.62429063764E+02  0.83412795556E+02  0.10000000000E+01 0.  0.
    9000005    1    3    3    0    0  0.29327340093E+02  0.46895773617E+02 -0.19603129047E+03  0.20368744022E+03  0.10000000000E+01 0.  0.
<mgrwt>
<rscale>  0 0.12499916E+03</rscale>
<asrwt>0</asrwt>
<pdfrwt beam="1">  1        4 0.22030680E-02 0.12499916E+03</pdfrwt>
<pdfrwt beam="2">  1       -4 0.41966195E-01 0.12499916E+03</pdfrwt>
<totfact> 0.77247426E+03</totfact>
</mgrwt>
</event>
<event>
 5    1  0.3259432E-002  0.1250033E+03  0.7818608E-02  0.1235064E+00
         -4   -1    0    0    0  501 -0.00000000000E+00  0.00000000000E+00  0.10201391467E+04  0.10201399372E+04  0.12700000000E+01 0.  1.
          4   -1    0    0  501    0  0.00000000000E+00 -0.00000000000E+00 -0.37232221427E+01  0.39338636382E+01  0.12700000000E+01 0.  1.
         25    2    1    2    0    0  0.00000000000E+00  0.00000000000E+00  0.10164159245E+04  0.10240738009E+04  0.12500327167E+03 0.  0.
    9000005    1    3    3    0    0 -0.61122741312E+02  0.49713393485E+00  0.61477746576E+03  0.61780949252E+03  0.10000000000E+01 0.  0.
    9000005    1    3    3    0    0  0.61122741312E+02 -0.49713393485E+00  0.40163845879E+03  0.40626430833E+03  0.10000000000E+01 0.  0.
<mgrwt>
<rscale>  0 0.12500327E+03</rscale>
<asrwt>0</asrwt>
<pdfrwt beam="2">  1        4 0.58906743E-03 0.12500327E+03</pdfrwt>
<pdfrwt beam="1">  1       -4 0.15696074E+00 0.12500327E+03</pdfrwt>
<totfact> 0.29816157E+03</totfact>
</mgrwt>
</event>
<event>
 5    1  0.3259432E-002  0.1249969E+03  0.7818608E-02  0.1235074E+00
         -4   -1    0    0    0  501 -0.00000000000E+00  0.00000000000E+00  0.77069211856E+02  0.77079675117E+02  0.12700000000E+01 0. -1.
          4   -1    0    0  501    0  0.00000000000E+00 -0.00000000000E+00 -0.50660622689E+02  0.50676538864E+02  0.12700000000E+01 0. -1.
         25    2    1    2    0    0  0.00000000000E+00  0.00000000000E+00  0.26408589167E+02  0.12775621398E+03  0.12499694648E+03 0.  0.
    9000005    1    3    3    0    0 -0.35857976438E+02  0.41217507302E+02 -0.17803196995E+02  0.57468523608E+02  0.10000000000E+01 0.  0.
    9000005    1    3    3    0    0  0.35857976438E+02 -0.41217507302E+02  0.44211786162E+02  0.70287690373E+02  0.10000000000E+01 0.  0.
<mgrwt>
<rscale>  0 0.12499695E+03</rscale>
<asrwt>0</asrwt>
<pdfrwt beam="2">  1        4 0.77959712E-02 0.12499695E+03</pdfrwt>
<pdfrwt beam="1">  1       -4 0.11858831E-01 0.12499695E+03</pdfrwt>
<totfact> 0.10393472E+04</totfact>
</mgrwt>
</event>
<event>
 5    1  0.3259432E-002  0.1250016E+03  0.7818608E-02  0.1235067E+00
          4   -1    0    0  501    0  0.00000000000E+00  0.00000000000E+00  0.14272321072E+02  0.14328714136E+02  0.12700000000E+01 0. -1.
         -4   -1    0    0    0  501 -0.00000000000E+00 -0.00000000000E+00 -0.27310368512E+03  0.27310663801E+03  0.12700000000E+01 0. -1.
         25    2    1    2    0    0  0.00000000000E+00  0.00000000000E+00 -0.25883136405E+03  0.28743535215E+03  0.12500162659E+03 0.  0.
    9000005    1    3    3    0    0  0.50407586171E+02  0.33668881495E+02 -0.94479633437E+02  0.11225827123E+03  0.10000000000E+01 0.  0.
    9000005    1    3    3    0    0 -0.50407586171E+02 -0.33668881495E+02 -0.16435173061E+03  0.17517708092E+03  0.10000000000E+01 0.  0.
<mgrwt>
<rscale>  0 0.12500163E+03</rscale>
<asrwt>0</asrwt>
<pdfrwt beam="1">  1        4 0.22003070E-02 0.12500163E+03</pdfrwt>
<pdfrwt beam="2">  1       -4 0.42020513E-01 0.12500163E+03</pdfrwt>
<totfact> 0.77199661E+03</totfact>
</mgrwt>
</event>
<event>
 5    1  0.3259432E-002  0.1249988E+03  0.7818608E-02  0.1235071E+00
         -4   -1    0    0    0  501 -0.00000000000E+00  0.00000000000E+00  0.34418532741E+02  0.34441955462E+02  0.12700000000E+01 0. -1.
          4   -1    0    0  501    0  0.00000000000E+00 -0.00000000000E+00 -0.11342478505E+03  0.11343189483E+03  0.12700000000E+01 0. -1.
         25    2    1    2    0    0  0.00000000000E+00  0.00000000000E+00 -0.79006252312E+02  0.14787385029E+03  0.12499875078E+03 0.  0.
    9000005    1    3    3    0    0  0.34681712245E+02 -0.30028718876E+02 -0.89702414858E+02  0.10075747294E+03  0.10000000000E+01 0.  0.
    9000005    1    3    3    0    0 -0.34681712245E+02  0.30028718876E+02  0.10696162546E+02  0.47116377352E+02  0.10000000000E+01 0.  0.
<mgrwt>
<rscale>  0 0.12499875E+03</rscale>
<asrwt>0</asrwt>
<pdfrwt beam="2">  1        4 0.17452315E-01 0.12499875E+03</pdfrwt>
<pdfrwt beam="1">  1       -4 0.52975076E-02 0.12499875E+03</pdfrwt>
<totfact> 0.99732019E+03</totfact>
</mgrwt>
</event>
<event>
 5    1  0.3259432E-002  0.1250008E+03  0.7818608E-02  0.1235068E+00
         -4   -1    0    0    0  501 -0.00000000000E+00  0.00000000000E+00  0.10817132503E+04  0.10817139959E+04  0.12700000000E+01 0.  1.
          4   -1    0    0  501    0  0.00000000000E+00 -0.00000000000E+00 -0.34987865191E+01  0.37221508710E+01  0.12700000000E+01 0.  1.
         25    2    1    2    0    0  0.00000000000E+00  0.00000000000E+00  0.10782144638E+04  0.10854361467E+04  0.12500079464E+03 0.  0.
    9000005    1    3    3    0    0 -0.20930520662E+02  0.48316252624E+02  0.24685417686E+03  0.25240945227E+03  0.10000000000E+01 0.  0.
    9000005    1    3    3    0    0  0.20930520662E+02 -0.48316252624E+02  0.83136028696E+03  0.83302669447E+03  0.10000000000E+01 0.  0.
<mgrwt>
<rscale>  0 0.12500079E+03</rscale>
<asrwt>0</asrwt>
<pdfrwt beam="2">  1        4 0.55551402E-03 0.12500079E+03</pdfrwt>
<pdfrwt beam="1">  1       -4 0.16643468E+00 0.12500079E+03</pdfrwt>
<totfact> 0.27913098E+03</totfact>
</mgrwt>
</event>
<event>
 5    1  0.3259432E-002  0.1249911E+03  0.7818608E-02  0.1235083E+00
          4   -1    0    0  501    0  0.00000000000E+00  0.00000000000E+00  0.27631221361E+03  0.27631513222E+03  0.12700000000E+01 0. -1.
         -4   -1    0    0    0  501 -0.00000000000E+00 -0.00000000000E+00 -0.14103556179E+02  0.14160621345E+02  0.12700000000E+01 0. -1.
         25    2    1    2    0    0  0.00000000000E+00  0.00000000000E+00  0.26220865744E+03  0.29047575356E+03  0.12499113318E+03 0.  0.
    9000005    1    3    3    0    0  0.44439962746E+01  0.62047949117E+02  0.14485288052E+03  0.15764851438E+03  0.10000000000E+01 0.  0.
    9000005    1    3    3    0    0 -0.44439962746E+01 -0.62047949117E+02  0.11735577692E+03  0.13282723918E+03  0.10000000000E+01 0.  0.
<mgrwt>
<rscale>  0 0.12499113E+03</rscale>
<asrwt>0</asrwt>
<pdfrwt beam="1">  1        4 0.42514186E-01 0.12499113E+03</pdfrwt>
<pdfrwt beam="2">  1       -4 0.21743920E-02 0.12499113E+03</pdfrwt>
<totfact> 0.76824416E+03</totfact>
</mgrwt>
</event>
<event>
 5    1  0.3259432E-002  0.1250093E+03  0.7818608E-02  0.1235055E+00
         -4   -1    0    0    0  501 -0.00000000000E+00  0.00000000000E+00  0.24850578196E+03  0.24850902713E+03  0.12700000000E+01 0.  1.
          4   -1    0    0  501    0  0.00000000000E+00 -0.00000000000E+00 -0.15692280194E+02  0.15743587828E+02  0.12700000000E+01 0.  1.
         25    2    1    2    0    0  0.00000000000E+00  0.00000000000E+00  0.23281350176E+03  0.26425261496E+03  0.12500927130E+03 0.  0.
    9000005    1    3    3    0    0 -0.54757824998E+02 -0.37418998283E+01  0.53223487549E+02  0.76460191209E+02  0.10000000000E+01 0.  0.
    9000005    1    3    3    0    0  0.54757824998E+02  0.37418998283E+01  0.17959001421E+03  0.18779242375E+03  0.10000000000E+01 0.  0.
<mgrwt>
<rscale>  0 0.12500927E+03</rscale>
<asrwt>0</asrwt>
<pdfrwt beam="2">  1        4 0.24183936E-02 0.12500927E+03</pdfrwt>
<pdfrwt beam="1">  1       -4 0.38235851E-01 0.12500927E+03</pdfrwt>
<totfact> 0.80296381E+03</totfact>
</mgrwt>
</event>
<event>
 5    1  0.3259432E-002  0.1249983E+03  0.7818608E-02  0.1235072E+00
          4   -1    0    0  501    0  0.00000000000E+00  0.00000000000E+00  0.19152824656E+03  0.19153245712E+03  0.12700000000E+01 0. -1.
         -4   -1    0    0    0  501 -0.00000000000E+00 -0.00000000000E+00 -0.20370398657E+02  0.20409949570E+02  0.12700000000E+01 0. -1.
         25    2    1    2    0    0  0.00000000000E+00  0.00000000000E+00  0.17115784790E+03  0.21194240669E+03  0.12499829941E+03 0.  0.
    9000005    1    3    3    0    0 -0.43655877333E+02  0.11003623880E+02  0.12095742163E+02  0.46628557159E+02  0.10000000000E+01 0.  0.
    9000005    1    3    3    0    0  0.43655877333E+02 -0.11003623880E+02  0.15906210574E+03  0.16531384953E+03  0.10000000000E+01 0.  0.
<mgrwt>
<rscale>  0 0.12499830E+03</rscale>
<asrwt>0</asrwt>
<pdfrwt beam="1">  1        4 0.29469249E-01 0.12499830E+03</pdfrwt>
<pdfrwt beam="2">  1       -4 0.31372739E-02 0.12499830E+03</pdfrwt>
<totfact> 0.88162991E+03</totfact>
</mgrwt>
</event>
<event>
 5    1  0.3259432E-002  0.1249989E+03  0.7818608E-02  0.1235071E+00
          4   -1    0    0  501    0  0.00000000000E+00  0.00000000000E+00  0.25138443398E+02  0.25170503302E+02  0.12700000000E+01 0.  1.
         -4   -1    0    0    0  501 -0.00000000000E+00 -0.00000000000E+00 -0.15525313861E+03  0.15525833294E+03  0.12700000000E+01 0.  1.
         25    2    1    2    0    0  0.00000000000E+00  0.00000000000E+00 -0.13011469521E+03  0.18042883624E+03  0.12499892415E+03 0.  0.
    9000005    1    3    3    0    0  0.48183608242E+02 -0.84458448035E+01 -0.12118836392E+03  0.13069281521E+03  0.10000000000E+01 0.  0.
    9000005    1    3    3    0    0 -0.48183608242E+02  0.84458448035E+01 -0.89263312857E+01  0.49736021030E+02  0.10000000000E+01 0.  0.
<mgrwt>
<rscale>  0 0.12499892E+03</rscale>
<asrwt>0</asrwt>
<pdfrwt beam="1">  1        4 0.38703186E-02 0.12499892E+03</pdfrwt>
<pdfrwt beam="2">  1       -4 0.23887964E-01 0.12499892E+03</pdfrwt>
<totfact> 0.93542125E+03</totfact>
</mgrwt>
</event>
<event>
 5    1  0.3259432E-002  0.1249981E+03  0.7818608E-02  0.1235072E+00
         -4   -1    0    0    0  501 -0.00000000000E+00  0.00000000000E+00  0.23938032398E+01  0.27098328271E+01  0.12700000000E+01 0.  1.
          4   -1    0    0  501    0  0.00000000000E+00 -0.00000000000E+00 -0.15304079056E+04  0.15304084325E+04  0.12700000000E+01 0.  1.
         25    2    1    2    0    0  0.00000000000E+00  0.00000000000E+00 -0.15280141023E+04  0.15331182653E+04  0.12499807448E+03 0.  0.
    9000005    1    3    3    0    0  0.99787761537E+01 -0.49710573758E+02 -0.12120476736E+04  0.12131081074E+04  0.10000000000E+01 0.  0.
    9000005    1    3    3    0    0 -0.99787761537E+01  0.49710573758E+02 -0.31596642873E+03  0.32001015796E+03  0.10000000000E+01 0.  0.
<mgrwt>
<rscale>  0 0.12499807E+03</rscale>
<asrwt>0</asrwt>
<pdfrwt beam="2">  1        4 0.23547099E+00 0.12499807E+03</pdfrwt>
<pdfrwt beam="1">  1       -4 0.39262915E-03 0.12499807E+03</pdfrwt>
<totfact> 0.17289313E+03</totfact>
</mgrwt>
</event>
<event>
 5    1  0.3259432E-002  0.1249990E+03  0.7818608E-02  0.1235071E+00
         -4   -1    0    0    0  501 -0.00000000000E+00  0.00000000000E+00  0.18130067586E+02  0.18174494509E+02  0.12700000000E+01 0. -1.
          4   -1    0    0  501    0  0.00000000000E+00 -0.00000000000E+00 -0.21514345546E+03  0.21514720385E+03  0.12700000000E+01 0. -1.
         25    2    1    2    0    0  0.00000000000E+00  0.00000000000E+00 -0.19701338787E+03  0.23332169836E+03  0.12499895970E+03 0.  0.
    9000005    1    3    3    0    0  0.48593155583E+01 -0.25774553504E+02 -0.20438104439E+03  0.20605958328E+03  0.10000000000E+01 0.  0.
    9000005    1    3    3    0    0 -0.48593155583E+01  0.25774553504E+02  0.73676565209E+01  0.27262115080E+02  0.10000000000E+01 0.  0.
<mgrwt>
<rscale>  0 0.12499896E+03</rscale>
<asrwt>0</asrwt>
<pdfrwt beam="2">  1        4 0.33102697E-01 0.12499896E+03</pdfrwt>
<pdfrwt beam="1">  1       -4 0.27929471E-02 0.12499896E+03</pdfrwt>
<totfact> 0.84804112E+03</totfact>
</mgrwt>
</event>
<event>
 5    1  0.3259432E-002  0.1250006E+03  0.7818608E-02  0.1235068E+00
         -4   -1    0    0    0  501 -0.00000000000E+00  0.00000000000E+00  0.98841144319E+02  0.98849303033E+02  0.12700000000E+01 0.  1.
          4   -1    0    0  501    0  0.00000000000E+00 -0.00000000000E+00 -0.39500883038E+02  0.39521293765E+02  0.12700000000E+01 0.  1.
         25    2    1    2    0    0  0.00000000000E+00  0.00000000000E+00  0.59340261280E+02  0.13837059680E+03  0.12500062180E+03 0.  0.
    9000005    1    3    3    0    0  0.53858901121E+02 -0.31079621589E+02  0.36544406002E+02  0.72133332920E+02  0.10000000000E+01 0.  0.
    9000005    1    3    3    0    0 -0.53858901121E+02  0.31079621589E+02  0.22795855278E+02  0.66237263878E+02  0.10000000000E+01 0.  0.
<mgrwt>
<rscale>  0 0.12500062E+03</rscale>
<asrwt>0</asrwt>
<pdfrwt beam="2">  1        4 0.60792565E-02 0.12500062E+03</pdfrwt>
<pdfrwt beam="1">  1       -4 0.15208528E-01 0.12500062E+03</pdfrwt>
<totfact> 0.10167326E+04</totfact>
</mgrwt>
</event>
<event>
 5    1  0.3259432E-002  0.1249969E+03  0.7818608E-02  0.1235074E+00
         -4   -1    0    0    0  501 -0.00000000000E+00  0.00000000000E+00  0.70342597465E+03  0.70342712111E+03  0.12700000000E+01 0.  1.
          4   -1    0    0  501    0  0.00000000000E+00 -0.00000000000E+00 -0.54791213829E+01  0.56243818441E+01  0.12700000000E+01 0.  1.
         25    2    1    2    0    0  0.00000000000E+00  0.00000000000E+00  0.69794685326E+03  0.70905150295E+03  0.12499689538E+03 0.  0.
    9000005    1    3    3    0    0 -0.69530428257E+01 -0.58782556188E+02  0.46261184311E+03  0.46638444560E+03  0.10000000000E+01 0.  0.
    9000005    1    3    3    0    0  0.69530428257E+01  0.58782556188E+02  0.23533501016E+03  0.24266705735E+03  0.10000000000E+01 0.  0.
<mgrwt>
<rscale>  0 0.12499690E+03</rscale>
<asrwt>0</asrwt>
<pdfrwt beam="2">  1        4 0.85420449E-03 0.12499690E+03</pdfrwt>
<pdfrwt beam="1">  1       -4 0.10823056E+00 0.12499690E+03</pdfrwt>
<totfact> 0.42616091E+03</totfact>
</mgrwt>
</event>
<event>
 5    1  0.3259432E-002  0.1250011E+03  0.7818608E-02  0.1235068E+00
         -4   -1    0    0    0  501 -0.00000000000E+00  0.00000000000E+00  0.19660785384E+02  0.19701760883E+02  0.12700000000E+01 0. -1.
          4   -1    0    0  501    0  0.00000000000E+00 -0.00000000000E+00 -0.19843594048E+03  0.19844000447E+03  0.12700000000E+01 0. -1.
         25    2    1    2    0    0  0.00000000000E+00  0.00000000000E+00 -0.17877515510E+03  0.21814176535E+03  0.12500109484E+03 0.  0.
    9000005    1    3    3    0    0  0.30673477521E+02  0.41627077601E+02 -0.15063211516E+03  0.15926302123E+03  0.10000000000E+01 0.  0.
    9000005    1    3    3    0    0 -0.30673477521E+02 -0.41627077601E+02 -0.28143039931E+02  0.58878744122E+02  0.10000000000E+01 0.  0.
<mgrwt>
<rscale>  0 0.12500109E+03</rscale>
<asrwt>0</asrwt>
<pdfrwt beam="2">  1        4 0.30532069E-01 0.12500109E+03</pdfrwt>
<pdfrwt beam="1">  1       -4 0.30282009E-02 0.12500109E+03</pdfrwt>
<totfact> 0.87161116E+03</totfact>
</mgrwt>
</event>
<event>
 5    1  0.3259432E-002  0.1249926E+03  0.7818608E-02  0.1235081E+00
         -4   -1    0    0    0  501 -0.00000000000E+00  0.00000000000E+00  0.22598276566E+02  0.22633934783E+02  0.12700000000E+01 0.  1.
          4   -1    0    0  501    0  0.00000000000E+00 -0.00000000000E+00 -0.17266142737E+03  0.17266609801E+03  0.12700000000E+01 0.  1.
         25    2    1    2    0    0  0.00000000000E+00  0.00000000000E+00 -0.15006315080E+03  0.19530003279E+03  0.12499261410E+03 0.  0.
    9000005    1    3    3    0    0 -0.11534643884E+02  0.19672405215E+02  0.15871886011E+02  0.27802307495E+02  0.10000000000E+01 0.  0.
    9000005    1    3    3    0    0  0.11534643884E+02 -0.19672405215E+02 -0.16593503681E+03  0.16749772530E+03  0.10000000000E+01 0.  0.
<mgrwt>
<rscale>  0 0.12499261E+03</rscale>
<asrwt>0</asrwt>
<pdfrwt beam="2">  1        4 0.26566398E-01 0.12499261E+03</pdfrwt>
<pdfrwt beam="1">  1       -4 0.34797603E-02 0.12499261E+03</pdfrwt>
<totfact> 0.90948255E+03</totfact>
</mgrwt>
</event>
<event>
 5    1  0.3259432E-002  0.1250013E+03  0.7818608E-02  0.1235067E+00
         -4   -1    0    0    0  501 -0.00000000000E+00  0.00000000000E+00  0.19268844425E+02  0.19310651607E+02  0.12700000000E+01 0.  1.
          4   -1    0    0  501    0  0.00000000000E+00 -0.00000000000E+00 -0.20246422415E+03  0.20246820728E+03  0.12700000000E+01 0.  1.
         25    2    1    2    0    0  0.00000000000E+00  0.00000000000E+00 -0.18319537973E+03  0.22177885889E+03  0.12500126039E+03 0.  0.
    9000005    1    3    3    0    0  0.13123869260E+02  0.60904163294E+02 -0.10024881563E+03  0.11803549502E+03  0.10000000000E+01 0.  0.
    9000005    1    3    3    0    0 -0.13123869260E+02 -0.60904163294E+02 -0.82946564100E+02  0.10374336387E+03  0.10000000000E+01 0.  0.
<mgrwt>
<rscale>  0 0.12500126E+03</rscale>
<asrwt>0</asrwt>
<pdfrwt beam="2">  1        4 0.31151863E-01 0.12500126E+03</pdfrwt>
<pdfrwt beam="1">  1       -4 0.29679601E-02 0.12500126E+03</pdfrwt>
<totfact> 0.86585212E+03</totfact>
</mgrwt>
</event>
<event>
 5    1  0.3259432E-002  0.1249991E+03  0.7818608E-02  0.1235071E+00
          4   -1    0    0  501    0  0.00000000000E+00  0.00000000000E+00  0.27105154600E+02  0.27134890932E+02  0.12700000000E+01 0.  1.
         -4   -1    0    0    0  501 -0.00000000000E+00 -0.00000000000E+00 -0.14400109442E+03  0.14400669461E+03  0.12700000000E+01 0.  1.
         25    2    1    2    0    0  0.00000000000E+00  0.00000000000E+00 -0.11689593982E+03  0.17114158555E+03  0.12499912623E+03 0.  0.
    9000005    1    3    3    0    0  0.25092082618E+02  0.21498494457E+02 -0.13106928743E+03  0.13517379917E+03  0.10000000000E+01 0.  0.
    9000005    1    3    3    0    0 -0.25092082618E+02 -0.21498494457E+02  0.14173347616E+02  0.35967786374E+02  0.10000000000E+01 0.  0.
<mgrwt>
<rscale>  0 0.12499913E+03</rscale>
<asrwt>0</asrwt>
<pdfrwt beam="1">  1        4 0.41727420E-02 0.12499913E+03</pdfrwt>
<pdfrwt beam="2">  1       -4 0.22156732E-01 0.12499913E+03</pdfrwt>
<totfact> 0.95238155E+03</totfact>
</mgrwt>
</event>
<event>
 5    1  0.3259432E-002  0.1250002E+03  0.7818608E-02  0.1235069E+00
         -4   -1    0    0    0  501 -0.00000000000E+00  0.00000000000E+00  0.94310628984E+03  0.94310714494E+03  0.12700000000E+01 0.  1.
          4   -1    0    0  501    0  0.00000000000E+00 -0.00000000000E+00 -0.40436831801E+01  0.42384282064E+01  0.12700000000E+01 0.  1.
         25    2    1    2    0    0  0.00000000000E+00  0.00000000000E+00  0.93906260666E+03  0.94734557314E+03  0.12500022293E+03 0.  0.
    9000005    1    3    3    0    0 -0.13706568615E+02  0.16048889052E+02  0.91531567476E+03  0.91555951271E+03  0.10000000000E+01 0.  0.
    9000005    1    3    3    0    0  0.13706568615E+02 -0.16048889052E+02  0.23746931900E+02  0.31786060430E+02  0.10000000000E+01 0.  0.
<mgrwt>
<rscale>  0 0.12500022E+03</rscale>
<asrwt>0</asrwt>
<pdfrwt beam="2">  1        4 0.63715079E-03 0.12500022E+03</pdfrwt>
<pdfrwt beam="1">  1       -4 0.14510843E+00 0.12500022E+03</pdfrwt>
<totfact> 0.32410217E+03</totfact>
</mgrwt>
</event>
<event>
 5    1  0.3259432E-002  0.1249943E+03  0.7818608E-02  0.1235078E+00
         -4   -1    0    0    0  501 -0.00000000000E+00  0.00000000000E+00  0.10356232712E+03  0.10357011392E+03  0.12700000000E+01 0. -1.
          4   -1    0    0  501    0  0.00000000000E+00 -0.00000000000E+00 -0.37695522903E+02  0.37716910622E+02  0.12700000000E+01 0. -1.
         25    2    1    2    0    0  0.00000000000E+00  0.00000000000E+00  0.65866804213E+02  0.14128702454E+03  0.12499434950E+03 0.  0.
    9000005    1    3    3    0    0 -0.28217281104E+02  0.43603059151E+02  0.72211224246E+02  0.88954497510E+02  0.10000000000E+01 0.  0.
    9000005    1    3    3    0    0  0.28217281104E+02 -0.43603059151E+02 -0.63444200325E+01  0.52332527034E+02  0.10000000000E+01 0.  0.
<mgrwt>
<rscale>  0 0.12499435E+03</rscale>
<asrwt>0</asrwt>
<pdfrwt beam="2">  1        4 0.58015554E-02 0.12499435E+03</pdfrwt>
<pdfrwt beam="1">  1       -4 0.15934910E-01 0.12499435E+03</pdfrwt>
<totfact> 0.10108268E+04</totfact>
</mgrwt>
</event>
<event>
 5    1  0.3259432E-002  0.1250008E+03  0.7818608E-02  0.1235068E+00
         -4   -1    0    0    0  501 -0.00000000000E+00  0.00000000000E+00  0.24560322405E+02  0.24593135966E+02  0.12700000000E+01 0. -1.
          4   -1    0    0  501    0  0.00000000000E+00 -0.00000000000E+00 -0.15890771978E+03  0.15891279466E+03  0.12700000000E+01 0. -1.
         25    2    1    2    0    0  0.00000000000E+00  0.00000000000E+00 -0.13434739738E+03  0.18350593062E+03  0.12500081357E+03 0.  0.
    9000005    1    3    3    0    0 -0.15123111047E+01 -0.15974500308E+02  0.21491768522E+02  0.26839669506E+02  0.10000000000E+01 0.  0.
    9000005    1    3    3    0    0  0.15123111047E+01  0.15974500308E+02 -0.15583916590E+03  0.15666626112E+03  0.10000000000E+01 0.  0.
<mgrwt>
<rscale>  0 0.12500081E+03</rscale>
<asrwt>0</asrwt>
<pdfrwt beam="2">  1        4 0.24450255E-01 0.12500081E+03</pdfrwt>
<pdfrwt beam="1">  1       -4 0.37814257E-02 0.12500081E+03</pdfrwt>
<totfact> 0.92988009E+03</totfact>
</mgrwt>
</event>
<event>
 5    1  0.3259432E-002  0.1250042E+03  0.7818608E-02  0.1235063E+00
         -4   -1    0    0    0  501 -0.00000000000E+00  0.00000000000E+00  0.23756130502E+03  0.23756469970E+03  0.12700000000E+01 0. -1.
          4   -1    0    0  501    0  0.00000000000E+00 -0.00000000000E+00 -0.16416194474E+02  0.16465246461E+02  0.12700000000E+01 0. -1.
         25    2    1    2    0    0  0.00000000000E+00  0.00000000000E+00  0.22114511055E+03  0.25402994616E+03  0.12500421444E+03 0.  0.
    9000005    1    3    3    0    0  0.27718723308E+02 -0.12455257641E+02 -0.40058916291E+00  0.30407590112E+02  0.10000000000E+01 0.  0.
    9000005    1    3    3    0    0 -0.27718723308E+02  0.12455257641E+02  0.22154569971E+03  0.22362235605E+03  0.10000000000E+01 0.  0.
<mgrwt>
<rscale>  0 0.12500421E+03</rscale>
<asrwt>0</asrwt>
<pdfrwt beam="2">  1        4 0.25296028E-02 0.12500421E+03</pdfrwt>
<pdfrwt beam="1">  1       -4 0.36551926E-01 0.12500421E+03</pdfrwt>
<totfact> 0.81743570E+03</totfact>
</mgrwt>
</event>
<event>
 5    1  0.3259432E-002  0.1249989E+03  0.7818608E-02  0.1235071E+00
         -4   -1    0    0    0  501 -0.00000000000E+00  0.00000000000E+00  0.92886679166E+01  0.93750867550E+01  0.12700000000E+01 0.  1.
          4   -1    0    0  501    0  0.00000000000E+00 -0.00000000000E+00 -0.41849754209E+03  0.41849946910E+03  0.12700000000E+01 0.  1.
         25    2    1    2    0    0  0.00000000000E+00  0.00000000000E+00 -0.40920887417E+03  0.42787455585E+03  0.12499893137E+03 0.  0.
    9000005    1    3    3    0    0 -0.53264857273E+02 -0.29246066310E+02 -0.25452733915E+03  0.26168233374E+03  0.10000000000E+01 0.  0.
    9000005    1    3    3    0    0  0.53264857273E+02  0.29246066310E+02 -0.15468153502E+03  0.16619222212E+03  0.10000000000E+01 0.  0.
<mgrwt>
<rscale>  0 0.12499893E+03</rscale>
<asrwt>0</asrwt>
<pdfrwt beam="2">  1        4 0.64391018E-01 0.12499893E+03</pdfrwt>
<pdfrwt beam="1">  1       -4 0.14358220E-02 0.12499893E+03</pdfrwt>
<totfact> 0.61930589E+03</totfact>
</mgrwt>
</event>
<event>
 5    1  0.3259432E-002  0.1250009E+03  0.7818608E-02  0.1235068E+00
          4   -1    0    0  501    0  0.00000000000E+00  0.00000000000E+00  0.27476570631E+01  0.30269653675E+01  0.12700000000E+01 0. -1.
         -4   -1    0    0    0  501 -0.00000000000E+00 -0.00000000000E+00 -0.13526421756E+04  0.13526427718E+04  0.12700000000E+01 0. -1.
         25    2    1    2    0    0  0.00000000000E+00  0.00000000000E+00 -0.13498945186E+04  0.13556697372E+04  0.12500090042E+03 0.  0.
    9000005    1    3    3    0    0 -0.35664888810E+02 -0.49918714608E+02 -0.54596413470E+03  0.54940121837E+03  0.10000000000E+01 0.  0.
    9000005    1    3    3    0    0  0.35664888810E+02  0.49918714608E+02 -0.80393038387E+03  0.80626851884E+03  0.10000000000E+01 0.  0.
<mgrwt>
<rscale>  0 0.12500090E+03</rscale>
<asrwt>0</asrwt>
<pdfrwt beam="1">  1        4 0.44424867E-03 0.12500090E+03</pdfrwt>
<pdfrwt beam="2">  1       -4 0.20811982E+00 0.12500090E+03</pdfrwt>
<totfact> 0.20951101E+03</totfact>
</mgrwt>
</event>
<event>
 5    1  0.3259432E-002  0.1249996E+03  0.7818608E-02  0.1235070E+00
         -4   -1    0    0    0  501 -0.00000000000E+00  0.00000000000E+00  0.33828933285E+02  0.33852763952E+02  0.12700000000E+01 0. -1.
          4   -1    0    0  501    0  0.00000000000E+00 -0.00000000000E+00 -0.11540200192E+03  0.11540898988E+03  0.12700000000E+01 0. -1.
         25    2    1    2    0    0  0.00000000000E+00  0.00000000000E+00 -0.81573068630E+02  0.14926175384E+03  0.12499962253E+03 0.  0.
    9000005    1    3    3    0    0 -0.74492702726E+01  0.53597743361E+02 -0.78110761949E+02  0.95028947449E+02  0.10000000000E+01 0.  0.
    9000005    1    3    3    0    0  0.74492702726E+01 -0.53597743361E+02 -0.34623066814E+01  0.54232806387E+02  0.10000000000E+01 0.  0.
<mgrwt>
<rscale>  0 0.12499962E+03</rscale>
<asrwt>0</asrwt>
<pdfrwt beam="2">  1        4 0.17756525E-01 0.12499962E+03</pdfrwt>
<pdfrwt beam="1">  1       -4 0.52068220E-02 0.12499962E+03</pdfrwt>
<totfact> 0.99451905E+03</totfact>
</mgrwt>
</event>
<event>
 5    1  0.3259432E-002  0.1250023E+03  0.7818608E-02  0.1235066E+00
         -4   -1    0    0    0  501 -0.00000000000E+00  0.00000000000E+00  0.25028727098E+02  0.25060927360E+02  0.12700000000E+01 0.  1.
          4   -1    0    0  501    0  0.00000000000E+00 -0.00000000000E+00 -0.15594136463E+03  0.15594653604E+03  0.12700000000E+01 0.  1.
         25    2    1    2    0    0  0.00000000000E+00  0.00000000000E+00 -0.13091263753E+03  0.18100746340E+03  0.12500233254E+03 0.  0.
    9000005    1    3    3    0    0 -0.51248128035E+02 -0.10810091701E+01 -0.13693320786E+02  0.53066432348E+02  0.10000000000E+01 0.  0.
    9000005    1    3    3    0    0  0.51248128035E+02  0.10810091701E+01 -0.11721931675E+03  0.12794103105E+03  0.10000000000E+01 0.  0.
<mgrwt>
<rscale>  0 0.12500233E+03</rscale>
<asrwt>0</asrwt>
<pdfrwt beam="2">  1        4 0.23993853E-01 0.12500233E+03</pdfrwt>
<pdfrwt beam="1">  1       -4 0.38534482E-02 0.12500233E+03</pdfrwt>
<totfact> 0.93431084E+03</totfact>
</mgrwt>
</event>
<event>
 5    1  0.3259432E-002  0.1250053E+03  0.7818608E-02  0.1235061E+00
          4   -1    0    0  501    0  0.00000000000E+00  0.00000000000E+00  0.21588593231E+02  0.21625916343E+02  0.12700000000E+01 0. -1.
         -4   -1    0    0    0  501 -0.00000000000E+00 -0.00000000000E+00 -0.18076004635E+03  0.18076450774E+03  0.12700000000E+01 0. -1.
         25    2    1    2    0    0  0.00000000000E+00  0.00000000000E+00 -0.15917145312E+03  0.20239042408E+03  0.12500532897E+03 0.  0.
    9000005    1    3    3    0    0  0.28295086758E+02  0.55246058789E+02 -0.91355274265E+02  0.11045146030E+03  0.10000000000E+01 0.  0.
    9000005    1    3    3    0    0 -0.28295086758E+02 -0.55246058789E+02 -0.67816178857E+02  0.91938963781E+02  0.10000000000E+01 0.  0.
<mgrwt>
<rscale>  0 0.12500533E+03</rscale>
<asrwt>0</asrwt>
<pdfrwt beam="1">  1        4 0.33245364E-02 0.12500533E+03</pdfrwt>
<pdfrwt beam="2">  1       -4 0.27812451E-01 0.12500533E+03</pdfrwt>
<totfact> 0.89723206E+03</totfact>
</mgrwt>
</event>
<event>
 5    1  0.3259432E-002  0.1249993E+03  0.7818608E-02  0.1235070E+00
         -4   -1    0    0    0  501 -0.00000000000E+00  0.00000000000E+00  0.32694935213E+03  0.32695181871E+03  0.12700000000E+01 0. -1.
          4   -1    0    0  501    0  0.00000000000E+00 -0.00000000000E+00 -0.11911166851E+02  0.11978680885E+02  0.12700000000E+01 0. -1.
         25    2    1    2    0    0  0.00000000000E+00  0.00000000000E+00  0.31503818528E+03  0.33893049960E+03  0.12499930149E+03 0.  0.
    9000005    1    3    3    0    0  0.29054863271E+02 -0.49479472955E+02  0.90397305074E+02  0.10707509556E+03  0.10000000000E+01 0.  0.
    9000005    1    3    3    0    0 -0.29054863271E+02  0.49479472955E+02  0.22464088021E+03  0.23185540404E+03  0.10000000000E+01 0.  0.
<mgrwt>
<rscale>  0 0.12499930E+03</rscale>
<asrwt>0</asrwt>
<pdfrwt beam="2">  1        4 0.18378703E-02 0.12499930E+03</pdfrwt>
<pdfrwt beam="1">  1       -4 0.50305283E-01 0.12499930E+03</pdfrwt>
<totfact> 0.70960849E+03</totfact>
</mgrwt>
</event>
<event>
 5    1  0.3259432E-002  0.1249975E+03  0.7818608E-02  0.1235073E+00
          4   -1    0    0  501    0  0.00000000000E+00  0.00000000000E+00  0.22034482558E+03  0.22034848549E+03  0.12700000000E+01 0.  1.
         -4   -1    0    0    0  501 -0.00000000000E+00 -0.00000000000E+00 -0.17700638109E+02  0.17746140129E+02  0.12700000000E+01 0.  1.
         25    2    1    2    0    0  0.00000000000E+00  0.00000000000E+00  0.20264418747E+03  0.23809462562E+03  0.12499753612E+03 0.  0.
    9000005    1    3    3    0    0  0.42280467698E+02  0.31991076385E+02  0.16432528894E+03  0.17266982221E+03  0.10000000000E+01 0.  0.
    9000005    1    3    3    0    0 -0.42280467698E+02 -0.31991076385E+02  0.38318898529E+02  0.65424803412E+02  0.10000000000E+01 0.  0.
<mgrwt>
<rscale>  0 0.12499754E+03</rscale>
<asrwt>0</asrwt>
<pdfrwt beam="1">  1        4 0.33902987E-01 0.12499754E+03</pdfrwt>
<pdfrwt beam="2">  1       -4 0.27269566E-02 0.12499754E+03</pdfrwt>
<totfact> 0.84086577E+03</totfact>
</mgrwt>
</event>
<event>
 5    1  0.3259432E-002  0.1250007E+03  0.7818608E-02  0.1235068E+00
          4   -1    0    0  501    0  0.00000000000E+00  0.00000000000E+00  0.27175002540E+02  0.27204662524E+02  0.12700000000E+01 0.  1.
         -4   -1    0    0    0  501 -0.00000000000E+00 -0.00000000000E+00 -0.14363502367E+03  0.14364063814E+03  0.12700000000E+01 0.  1.
         25    2    1    2    0    0  0.00000000000E+00  0.00000000000E+00 -0.11646002113E+03  0.17084530066E+03  0.12500072094E+03 0.  0.
    9000005    1    3    3    0    0  0.51283815282E+02  0.20850782486E+02 -0.97854348475E+02  0.11243335073E+03  0.10000000000E+01 0.  0.
    9000005    1    3    3    0    0 -0.51283815282E+02 -0.20850782486E+02 -0.18605672652E+02  0.58411949933E+02  0.10000000000E+01 0.  0.
<mgrwt>
<rscale>  0 0.12500072E+03</rscale>
<asrwt>0</asrwt>
<pdfrwt beam="1">  1        4 0.41834831E-02 0.12500072E+03</pdfrwt>
<pdfrwt beam="2">  1       -4 0.22100409E-01 0.12500072E+03</pdfrwt>
<totfact> 0.95289777E+03</totfact>
</mgrwt>
</event>
<event>
 5    1  0.3259432E-002  0.1250016E+03  0.7818608E-02  0.1235067E+00
          4   -1    0    0  501    0  0.00000000000E+00  0.00000000000E+00  0.11124169092E+02  0.11196429698E+02  0.12700000000E+01 0. -1.
         -4   -1    0    0    0  501 -0.00000000000E+00 -0.00000000000E+00 -0.34994838855E+03  0.34995069303E+03  0.12700000000E+01 0. -1.
         25    2    1    2    0    0  0.00000000000E+00  0.00000000000E+00 -0.33882421946E+03  0.36114712272E+03  0.12500157023E+03 0.  0.
    9000005    1    3    3    0    0 -0.18036525896E+02 -0.46338024523E+02 -0.60050621737E+02  0.77971827952E+02  0.10000000000E+01 0.  0.
    9000005    1    3    3    0    0  0.18036525896E+02  0.46338024523E+02 -0.27877359772E+03  0.28317529477E+03  0.10000000000E+01 0.  0.
<mgrwt>
<rscale>  0 0.12500157E+03</rscale>
<asrwt>0</asrwt>
<pdfrwt beam="1">  1        4 0.17171467E-02 0.12500157E+03</pdfrwt>
<pdfrwt beam="2">  1       -4 0.53843941E-01 0.12500157E+03</pdfrwt>
<totfact> 0.68513022E+03</totfact>
</mgrwt>
</event>
<event>
 5    1  0.3259432E-002  0.1250027E+03  0.7818608E-02  0.1235065E+00
         -4   -1    0    0    0  501 -0.00000000000E+00  0.00000000000E+00  0.75081199280E+01  0.76147728038E+01  0.12700000000E+01 0. -1.
          4   -1    0    0  501    0  0.00000000000E+00 -0.00000000000E+00 -0.51651591099E+03  0.51651747231E+03  0.12700000000E+01 0. -1.
         25    2    1    2    0    0  0.00000000000E+00  0.00000000000E+00 -0.50900779106E+03  0.52413224512E+03  0.12500271601E+03 0.  0.
    9000005    1    3    3    0    0 -0.48353683319E+02  0.37004899544E+02 -0.19550682965E+03  0.20477148659E+03  0.10000000000E+01 0.  0.
    9000005    1    3    3    0    0  0.48353683319E+02 -0.37004899544E+02 -0.31350096141E+03  0.31936075852E+03  0.10000000000E+01 0.  0.
<mgrwt>
<rscale>  0 0.12500272E+03</rscale>
<asrwt>0</asrwt>
<pdfrwt beam="2">  1        4 0.79472283E-01 0.12500272E+03</pdfrwt>
<pdfrwt beam="1">  1       -4 0.11634199E-02 0.12500272E+03</pdfrwt>
<totfact> 0.54036225E+03</totfact>
</mgrwt>
</event>
<event>
 5    1  0.3259432E-002  0.1249957E+03  0.7818608E-02  0.1235076E+00
          4   -1    0    0  501    0  0.00000000000E+00  0.00000000000E+00  0.98600617227E+02  0.98608795843E+02  0.12700000000E+01 0.  1.
         -4   -1    0    0    0  501 -0.00000000000E+00 -0.00000000000E+00 -0.39594177399E+02  0.39614540057E+02  0.12700000000E+01 0.  1.
         25    2    1    2    0    0  0.00000000000E+00  0.00000000000E+00  0.59006439828E+02  0.13822333590E+03  0.12499572251E+03 0.  0.
    9000005    1    3    3    0    0  0.33640023793E+02 -0.50237968851E+02  0.46969575567E+02  0.76567915892E+02  0.10000000000E+01 0.  0.
    9000005    1    3    3    0    0 -0.33640023793E+02  0.50237968851E+02  0.12036864261E+02  0.61655420008E+02  0.10000000000E+01 0.  0.
<mgrwt>
<rscale>  0 0.12499572E+03</rscale>
<asrwt>0</asrwt>
<pdfrwt beam="1">  1        4 0.15171521E-01 0.12499572E+03</pdfrwt>
<pdfrwt beam="2">  1       -4 0.60936074E-02 0.12499572E+03</pdfrwt>
<totfact> 0.10171522E+04</totfact>
</mgrwt>
</event>
<event>
 5    1  0.3259432E-002  0.1250118E+03  0.7818608E-02  0.1235051E+00
          4   -1    0    0  501    0  0.00000000000E+00  0.00000000000E+00  0.93900891282E+02  0.93909479200E+02  0.12700000000E+01 0.  1.
         -4   -1    0    0    0  501 -0.00000000000E+00 -0.00000000000E+00 -0.41587399986E+02  0.41606787158E+02  0.12700000000E+01 0.  1.
         25    2    1    2    0    0  0.00000000000E+00  0.00000000000E+00  0.52313491296E+02  0.13551626636E+03  0.12501182774E+03 0.  0.
    9000005    1    3    3    0    0 -0.36159440722E+02  0.37289166436E+02 -0.11520069321E+02  0.53213711428E+02  0.10000000000E+01 0.  0.
    9000005    1    3    3    0    0  0.36159440722E+02 -0.37289166436E+02  0.63833560618E+02  0.82302554929E+02  0.10000000000E+01 0.  0.
<mgrwt>
<rscale>  0 0.12501183E+03</rscale>
<asrwt>0</asrwt>
<pdfrwt beam="1">  1        4 0.14448443E-01 0.12501183E+03</pdfrwt>
<pdfrwt beam="2">  1       -4 0.64002135E-02 0.12501183E+03</pdfrwt>
<totfact> 0.10224473E+04</totfact>
</mgrwt>
</event>
<event>
 5    1  0.3259432E-002  0.1250008E+03  0.7818608E-02  0.1235068E+00
         -4   -1    0    0    0  501 -0.00000000000E+00  0.00000000000E+00  0.29521364111E+02  0.29548668988E+02  0.12700000000E+01 0.  1.
          4   -1    0    0  501    0  0.00000000000E+00 -0.00000000000E+00 -0.13222966898E+03  0.13223576769E+03  0.12700000000E+01 0.  1.
         25    2    1    2    0    0  0.00000000000E+00  0.00000000000E+00 -0.10270830487E+03  0.16178443668E+03  0.12500083226E+03 0.  0.
    9000005    1    3    3    0    0  0.29323309117E+02  0.48649508857E+02 -0.85071502379E+02  0.10229756442E+03  0.10000000000E+01 0.  0.
    9000005    1    3    3    0    0 -0.29323309117E+02 -0.48649508857E+02 -0.17636802487E+02  0.59486872262E+02  0.10000000000E+01 0.  0.
<mgrwt>
<rscale>  0 0.12500083E+03</rscale>
<asrwt>0</asrwt>
<pdfrwt beam="2">  1        4 0.20345595E-01 0.12500083E+03</pdfrwt>
<pdfrwt beam="1">  1       -4 0.45443179E-02 0.12500083E+03</pdfrwt>
<totfact> 0.96998045E+03</totfact>
</mgrwt>
</event>
<event>
 5    1  0.3259432E-002  0.1250017E+03  0.7818608E-02  0.1235067E+00
          4   -1    0    0  501    0  0.00000000000E+00  0.00000000000E+00  0.88917463685E+01  0.89819849411E+01  0.12700000000E+01 0.  1.
         -4   -1    0    0    0  501 -0.00000000000E+00 -0.00000000000E+00 -0.43701487136E+03  0.43701671671E+03  0.12700000000E+01 0.  1.
         25    2    1    2    0    0  0.00000000000E+00  0.00000000000E+00 -0.42812312499E+03  0.44599870165E+03  0.12500172690E+03 0.  0.
    9000005    1    3    3    0    0  0.14975201870E+02  0.20026837511E+02 -0.97201958592E+01  0.26847962665E+02  0.10000000000E+01 0.  0.
    9000005    1    3    3    0    0 -0.14975201870E+02 -0.20026837511E+02 -0.41840292913E+03  0.41915073899E+03  0.10000000000E+01 0.  0.
<mgrwt>
<rscale>  0 0.12500173E+03</rscale>
<asrwt>0</asrwt>
<pdfrwt beam="1">  1        4 0.13750447E-02 0.12500173E+03</pdfrwt>
<pdfrwt beam="2">  1       -4 0.67240124E-01 0.12500173E+03</pdfrwt>
<totfact> 0.60309714E+03</totfact>
</mgrwt>
</event>
<event>
 5    1  0.3259432E-002  0.1250003E+03  0.7818608E-02  0.1235069E+00
         -4   -1    0    0    0  501 -0.00000000000E+00  0.00000000000E+00  0.18917361362E+02  0.18959943589E+02  0.12700000000E+01 0. -1.
          4   -1    0    0  501    0  0.00000000000E+00 -0.00000000000E+00 -0.20621445650E+03  0.20621836720E+03  0.12700000000E+01 0. -1.
         25    2    1    2    0    0  0.00000000000E+00  0.00000000000E+00 -0.18729709514E+03  0.22517831079E+03  0.12500027921E+03 0.  0.
    9000005    1    3    3    0    0  0.49959603669E+01 -0.53687682825E+01 -0.20544541423E+03  0.20557869909E+03  0.10000000000E+01 0.  0.
    9000005    1    3    3    0    0 -0.49959603669E+01  0.53687682825E+01  0.18148319089E+02  0.19599611696E+02  0.10000000000E+01 0.  0.
<mgrwt>
<rscale>  0 0.12500028E+03</rscale>
<asrwt>0</asrwt>
<pdfrwt beam="2">  1        4 0.31728876E-01 0.12500028E+03</pdfrwt>
<pdfrwt beam="1">  1       -4 0.29139398E-02 0.12500028E+03</pdfrwt>
<totfact> 0.86054978E+03</totfact>
</mgrwt>
</event>
<event>
 5    1  0.3259432E-002  0.1249892E+03  0.7818608E-02  0.1235086E+00
          4   -1    0    0  501    0  0.00000000000E+00  0.00000000000E+00  0.40474797272E+03  0.40474996519E+03  0.12700000000E+01 0.  1.
         -4   -1    0    0    0  501 -0.00000000000E+00 -0.00000000000E+00 -0.96055867546E+01  0.96891793718E+01  0.12700000000E+01 0.  1.
         25    2    1    2    0    0  0.00000000000E+00  0.00000000000E+00  0.39514238597E+03  0.41443914457E+03  0.12498919697E+03 0.  0.
    9000005    1    3    3    0    0  0.14112638033E+02 -0.12452198713E+02 -0.14384931546E-03  0.18847381915E+02  0.10000000000E+01 0.  0.
    9000005    1    3    3    0    0 -0.14112638033E+02  0.12452198713E+02  0.39514252982E+03  0.39559176265E+03  0.10000000000E+01 0.  0.
<mgrwt>
<rscale>  0 0.12498920E+03</rscale>
<asrwt>0</asrwt>
<pdfrwt beam="1">  1        4 0.62275503E-01 0.12498920E+03</pdfrwt>
<pdfrwt beam="2">  1       -4 0.14843660E-02 0.12498920E+03</pdfrwt>
<totfact> 0.63187328E+03</totfact>
</mgrwt>
</event>
<event>
 5    1  0.3259432E-002  0.1250006E+03  0.7818608E-02  0.1235068E+00
          4   -1    0    0  501    0  0.00000000000E+00  0.00000000000E+00  0.25819155496E+03  0.25819467839E+03  0.12700000000E+01 0.  1.
         -4   -1    0    0    0  501 -0.00000000000E+00 -0.00000000000E+00 -0.15099534261E+02  0.15152849068E+02  0.12700000000E+01 0.  1.
         25    2    1    2    0    0  0.00000000000E+00  0.00000000000E+00  0.24309202070E+03  0.27334752746E+03  0.12500056097E+03 0.  0.
    9000005    1    3    3    0    0  0.19729914846E+01  0.51314507742E+02  0.43670769772E+02  0.67418154326E+02  0.10000000000E+01 0.  0.
    9000005    1    3    3    0    0 -0.19729914846E+01 -0.51314507742E+02  0.19942125092E+03  0.20592937314E+03  0.10000000000E+01 0.  0.
<mgrwt>
<rscale>  0 0.12500056E+03</rscale>
<asrwt>0</asrwt>
<pdfrwt beam="1">  1        4 0.39726115E-01 0.12500056E+03</pdfrwt>
<pdfrwt beam="2">  1       -4 0.23273469E-02 0.12500056E+03</pdfrwt>
<totfact> 0.79067540E+03</totfact>
</mgrwt>
</event>
<event>
 5    1  0.3259432E-002  0.1249705E+03  0.7818608E-02  0.1235115E+00
          4   -1    0    0  501    0  0.00000000000E+00  0.00000000000E+00  0.30454739117E+02  0.30481207894E+02  0.12700000000E+01 0. -1.
         -4   -1    0    0    0  501 -0.00000000000E+00 -0.00000000000E+00 -0.12811836690E+03  0.12812466132E+03  0.12700000000E+01 0. -1.
         25    2    1    2    0    0  0.00000000000E+00  0.00000000000E+00 -0.97663627787E+02  0.15860586921E+03  0.12497054676E+03 0.  0.
    9000005    1    3    3    0    0 -0.60690730527E+02  0.73325045272E+01 -0.32466276173E+02  0.69225641803E+02  0.10000000000E+01 0.  0.
    9000005    1    3    3    0    0  0.60690730527E+02 -0.73325045272E+01 -0.65197351614E+02  0.89380227411E+02  0.10000000000E+01 0.  0.
<mgrwt>
<rscale>  0 0.12497055E+03</rscale>
<asrwt>0</asrwt>
<pdfrwt beam="1">  1        4 0.46878648E-02 0.12497055E+03</pdfrwt>
<pdfrwt beam="2">  1       -4 0.19713038E-01 0.12497055E+03</pdfrwt>
<totfact> 0.97676898E+03</totfact>
</mgrwt>
</event>
<event>
 5    1  0.3259432E-002  0.1249993E+03  0.7818608E-02  0.1235070E+00
         -4   -1    0    0    0  501 -0.00000000000E+00  0.00000000000E+00  0.85151538419E+03  0.85151633126E+03  0.12700000000E+01 0. -1.
          4   -1    0    0  501    0  0.00000000000E+00 -0.00000000000E+00 -0.44984918380E+01  0.46743265629E+01  0.12700000000E+01 0. -1.
         25    2    1    2    0    0  0.00000000000E+00  0.00000000000E+00  0.84701689235E+03  0.85619065783E+03  0.12499930649E+03 0.  0.
    9000005    1    3    3    0    0  0.18153248108E+02 -0.57489674771E+02  0.53618397709E+03  0.53956358329E+03  0.10000000000E+01 0.  0.
    9000005    1    3    3    0    0 -0.18153248108E+02  0.57489674771E+02  0.31083291526E+03  0.31662707454E+03  0.10000000000E+01 0.  0.
<mgrwt>
<rscale>  0 0.12499931E+03</rscale>
<asrwt>0</asrwt>
<pdfrwt beam="2">  1        4 0.70567431E-03 0.12499931E+03</pdfrwt>
<pdfrwt beam="1">  1       -4 0.13101596E+00 0.12499931E+03</pdfrwt>
<totfact> 0.35875871E+03</totfact>
</mgrwt>
</event>
<event>
 5    1  0.3259432E-002  0.1249987E+03  0.7818608E-02  0.1235071E+00
         -4   -1    0    0    0  501 -0.00000000000E+00  0.00000000000E+00  0.10853541485E+03  0.10854284489E+03  0.12700000000E+01 0. -1.
          4   -1    0    0  501    0  0.00000000000E+00 -0.00000000000E+00 -0.35969956025E+02  0.35992369142E+02  0.12700000000E+01 0. -1.
         25    2    1    2    0    0  0.00000000000E+00  0.00000000000E+00  0.72565458822E+02  0.14453521403E+03  0.12499872911E+03 0.  0.
    9000005    1    3    3    0    0  0.55908877534E+02 -0.25164463119E+02  0.50259910864E+02  0.79285001301E+02  0.10000000000E+01 0.  0.
    9000005    1    3    3    0    0 -0.55908877534E+02  0.25164463119E+02  0.22305547958E+02  0.65250212727E+02  0.10000000000E+01 0.  0.
<mgrwt>
<rscale>  0 0.12499873E+03</rscale>
<asrwt>0</asrwt>
<pdfrwt beam="2">  1        4 0.55361350E-02 0.12499873E+03</pdfrwt>
<pdfrwt beam="1">  1       -4 0.16700052E-01 0.12499873E+03</pdfrwt>
<totfact> 0.10040728E+04</totfact>
</mgrwt>
</event>
<event>
 5    1  0.3259432E-002  0.1249921E+03  0.7818608E-02  0.1235082E+00
          4   -1    0    0  501    0  0.00000000000E+00  0.00000000000E+00  0.12859391495E+02  0.12921952237E+02  0.12700000000E+01 0. -1.
         -4   -1    0    0    0  501 -0.00000000000E+00 -0.00000000000E+00 -0.30292719003E+03  0.30292985221E+03  0.12700000000E+01 0. -1.
         25    2    1    2    0    0  0.00000000000E+00  0.00000000000E+00 -0.29006779853E+03  0.31585180444E+03  0.12499213825E+03 0.  0.
    9000005    1    3    3    0    0 -0.39259423966E+01  0.28269821367E+02 -0.45613878286E+01  0.28920616915E+02  0.10000000000E+01 0.  0.
    9000005    1    3    3    0    0  0.39259423966E+01 -0.28269821367E+02 -0.28550641070E+03  0.28693118753E+03  0.10000000000E+01 0.  0.
<mgrwt>
<rscale>  0 0.12499214E+03</rscale>
<asrwt>0</asrwt>
<pdfrwt beam="1">  1        4 0.19833853E-02 0.12499214E+03</pdfrwt>
<pdfrwt beam="2">  1       -4 0.46609195E-01 0.12499214E+03</pdfrwt>
<totfact> 0.73665072E+03</totfact>
</mgrwt>
</event>
<event>
 5    1  0.3259432E-002  0.1250021E+03  0.7818608E-02  0.1235066E+00
          4   -1    0    0  501    0  0.00000000000E+00  0.00000000000E+00  0.15576398421E+02  0.15628086503E+02  0.12700000000E+01 0. -1.
         -4   -1    0    0    0  501 -0.00000000000E+00 -0.00000000000E+00 -0.25031962398E+03  0.25032284564E+03  0.12700000000E+01 0. -1.
         25    2    1    2    0    0  0.00000000000E+00  0.00000000000E+00 -0.23474322556E+03  0.26595093214E+03  0.12500206543E+03 0.  0.
    9000005    1    3    3    0    0  0.40690874599E+01  0.30344229197E+02 -0.23328134121E+03  0.23528390059E+03  0.10000000000E+01 0.  0.
    9000005    1    3    3    0    0 -0.40690874599E+01 -0.30344229197E+02 -0.14618843428E+01  0.30667031551E+02  0.10000000000E+01 0.  0.
<mgrwt>
<rscale>  0 0.12500207E+03</rscale>
<asrwt>0</asrwt>
<pdfrwt beam="1">  1        4 0.24005930E-02 0.12500207E+03</pdfrwt>
<pdfrwt beam="2">  1       -4 0.38514932E-01 0.12500207E+03</pdfrwt>
<totfact> 0.80074439E+03</totfact>
</mgrwt>
</event>
<event>
 5    1  0.3259432E-002  0.1249988E+03  0.7818608E-02  0.1235071E+00
         -4   -1    0    0    0  501 -0.00000000000E+00  0.00000000000E+00  0.21267491175E+02  0.21305376806E+02  0.12700000000E+01 0.  1.
          4   -1    0    0  501    0  0.00000000000E+00 -0.00000000000E+00 -0.18346533048E+03  0.18346972608E+03  0.12700000000E+01 0.  1.
         25    2    1    2    0    0  0.00000000000E+00  0.00000000000E+00 -0.16219783930E+03  0.20477510289E+03  0.12499881474E+03 0.  0.
    9000005    1    3    3    0    0 -0.44921319137E+02  0.33204817760E+02 -0.35208649175E+02  0.66038881064E+02  0.10000000000E+01 0.  0.
    9000005    1    3    3    0    0  0.44921319137E+02 -0.33204817760E+02 -0.12698919013E+03  0.13873622182E+03  0.10000000000E+01 0.  0.
<mgrwt>
<rscale>  0 0.12499881E+03</rscale>
<asrwt>0</asrwt>
<pdfrwt beam="2">  1        4 0.28228687E-01 0.12499881E+03</pdfrwt>
<pdfrwt beam="1">  1       -4 0.32751742E-02 0.12499881E+03</pdfrwt>
<totfact> 0.89338717E+03</totfact>
</mgrwt>
</event>
<event>
 5    1  0.3259432E-002  0.1250009E+03  0.7818608E-02  0.1235068E+00
          4   -1    0    0  501    0  0.00000000000E+00  0.00000000000E+00  0.13288222020E+03  0.13288828897E+03  0.12700000000E+01 0. -1.
         -4   -1    0    0    0  501 -0.00000000000E+00 -0.00000000000E+00 -0.29376272876E+02  0.29403712488E+02  0.12700000000E+01 0. -1.
         25    2    1    2    0    0  0.00000000000E+00  0.00000000000E+00  0.10350594732E+03  0.16229200146E+03  0.12500085042E+03 0.  0.
    9000005    1    3    3    0    0  0.57662909581E+02 -0.10253814919E+02  0.23452082917E+02  0.63096371170E+02  0.10000000000E+01 0.  0.
    9000005    1    3    3    0    0 -0.57662909581E+02  0.10253814919E+02  0.80053864407E+02  0.99195630288E+02  0.10000000000E+01 0.  0.
<mgrwt>
<rscale>  0 0.12500085E+03</rscale>
<asrwt>0</asrwt>
<pdfrwt beam="1">  1        4 0.20445996E-01 0.12500085E+03</pdfrwt>
<pdfrwt beam="2">  1       -4 0.45220041E-02 0.12500085E+03</pdfrwt>
<totfact> 0.96900864E+03</totfact>
</mgrwt>
</event>
<event>
 5    1  0.3259432E-002  0.1249960E+03  0.7818608E-02  0.1235076E+00
          4   -1    0    0  501    0  0.00000000000E+00  0.00000000000E+00  0.67346908267E+02  0.67358881768E+02  0.12700000000E+01 0. -1.
         -4   -1    0    0    0  501 -0.00000000000E+00 -0.00000000000E+00 -0.57974104239E+02  0.57988013092E+02  0.12700000000E+01 0. -1.
         25    2    1    2    0    0  0.00000000000E+00  0.00000000000E+00  0.93728040272E+01  0.12534689486E+03  0.12499597832E+03 0.  0.
    9000005    1    3    3    0    0  0.19634305173E+02 -0.55705925455E+02  0.25148160471E+02  0.64203473781E+02  0.10000000000E+01 0.  0.
    9000005    1    3    3    0    0 -0.19634305173E+02  0.55705925455E+02 -0.15775356443E+02  0.61143421080E+02  0.10000000000E+01 0.  0.
<mgrwt>
<rscale>  0 0.12499598E+03</rscale>
<asrwt>0</asrwt>
<pdfrwt beam="1">  1        4 0.10363054E-01 0.12499598E+03</pdfrwt>
<pdfrwt beam="2">  1       -4 0.89210839E-02 0.12499598E+03</pdfrwt>
<totfact> 0.10446282E+04</totfact>
</mgrwt>
</event>
<event>
 5    1  0.3259432E-002  0.1250006E+03  0.7818608E-02  0.1235068E+00
         -4   -1    0    0    0  501 -0.00000000000E+00  0.00000000000E+00  0.38492406180E+03  0.38492615688E+03  0.12700000000E+01 0.  1.
          4   -1    0    0  501    0  0.00000000000E+00 -0.00000000000E+00 -0.10106343572E+02  0.10185827428E+02  0.12700000000E+01 0.  1.
         25    2    1    2    0    0  0.00000000000E+00  0.00000000000E+00  0.37481771823E+03  0.39511198431E+03  0.12500063299E+03 0.  0.
    9000005    1    3    3    0    0 -0.34394363403E+02  0.99733732757E+01  0.34928940022E+03  0.35112181008E+03  0.10000000000E+01 0.  0.
    9000005    1    3    3    0    0  0.34394363403E+02 -0.99733732757E+01  0.25528318007E+02  0.43990174229E+02  0.10000000000E+01 0.  0.
<mgrwt>
<rscale>  0 0.12500063E+03</rscale>
<asrwt>0</asrwt>
<pdfrwt beam="2">  1        4 0.15610975E-02 0.12500063E+03</pdfrwt>
<pdfrwt beam="1">  1       -4 0.59225357E-01 0.12500063E+03</pdfrwt>
<totfact> 0.65030076E+03</totfact>
</mgrwt>
</event>
<event>
 5    1  0.3259432E-002  0.1249926E+03  0.7818608E-02  0.1235081E+00
         -4   -1    0    0    0  501 -0.00000000000E+00  0.00000000000E+00  0.52876542366E+02  0.52891791732E+02  0.12700000000E+01 0.  1.
          4   -1    0    0  501    0  0.00000000000E+00 -0.00000000000E+00 -0.73834748878E+02  0.73845670434E+02  0.12700000000E+01 0.  1.
         25    2    1    2    0    0  0.00000000000E+00  0.00000000000E+00 -0.20958206512E+02  0.12673746217E+03  0.12499255136E+03 0.  0.
    9000005    1    3    3    0    0 -0.16755136681E+02 -0.60057491813E+02 -0.62803354262E+01  0.62674393026E+02  0.10000000000E+01 0.  0.
    9000005    1    3    3    0    0  0.16755136681E+02  0.60057491813E+02 -0.14677871086E+02  0.64063069140E+02  0.10000000000E+01 0.  0.
<mgrwt>
<rscale>  0 0.12499255E+03</rscale>
<asrwt>0</asrwt>
<pdfrwt beam="2">  1        4 0.11361205E-01 0.12499255E+03</pdfrwt>
<pdfrwt beam="1">  1       -4 0.81368658E-02 0.12499255E+03</pdfrwt>
<totfact> 0.10416606E+04</totfact>
</mgrwt>
</event>
<event>
 5    1  0.3259432E-002  0.1249997E+03  0.7818608E-02  0.1235070E+00
         -4   -1    0    0    0  501 -0.00000000000E+00  0.00000000000E+00  0.25268619206E+02  0.25300514156E+02  0.12700000000E+01 0. -1.
          4   -1    0    0  501    0  0.00000000000E+00 -0.00000000000E+00 -0.15445633276E+03  0.15446155389E+03  0.12700000000E+01 0. -1.
         25    2    1    2    0    0  0.00000000000E+00  0.00000000000E+00 -0.12918771356E+03  0.17976206805E+03  0.12499974310E+03 0.  0.
    9000005    1    3    3    0    0  0.54144443987E+01  0.76593947377E+01 -0.15344526538E+03  0.15373494074E+03  0.10000000000E+01 0.  0.
    9000005    1    3    3    0    0 -0.54144443987E+01 -0.76593947377E+01  0.24257551820E+02  0.26027127313E+02  0.10000000000E+01 0.  0.
<mgrwt>
<rscale>  0 0.12499974E+03</rscale>
<asrwt>0</asrwt>
<pdfrwt beam="2">  1        4 0.23765367E-01 0.12499974E+03</pdfrwt>
<pdfrwt beam="1">  1       -4 0.38903351E-02 0.12499974E+03</pdfrwt>
<totfact> 0.93660389E+03</totfact>
</mgrwt>
</event>
