<event>
 6    4  0.6376098E-003  0.1424932E+03  0.7818608E-02  0.1210013E+00
         -4   -1    0    0    0  501 -0.00000000000E+00  0.00000000000E+00  0.40936869561E+03  0.40937066559E+03  0.12700000000E+01 0.  1.
         21   -1    0    0  501  502  0.00000000000E+00 -0.00000000000E+00 -0.28875445318E+02  0.28875445318E+02  0.00000000000E+00 0.  1.
         25    2    1    2    0    0  0.55533022540E+02  0.39942965669E+02  0.30324943621E+03  0.33505901476E+03  0.12499986283E+03 0.  0.
    9000005    1    3    3    0    0  0.86661070862E+02  0.43994889847E+02  0.15080123453E+03  0.17940931936E+03  0.10000000000E+01 0.  0.
    9000005    1    3    3    0    0 -0.31128048323E+02 -0.40519241789E+01  0.15244820168E+03  0.15564969540E+03  0.10000000000E+01 0.  0.
         -4    1    1    2    0  502 -0.55533022540E+02 -0.39942965669E+02  0.77243814076E+02  0.10318709615E+03  0.12700000000E+01 0. -1.
<mgrwt>
<rscale>  1 0.14249324E+03</rscale>
<asrwt>0</asrwt>
<pdfrwt beam="2">  1       21 0.44423765E-02 0.14249324E+03</pdfrwt>
<pdfrwt beam="1">  1       -4 0.62982095E-01 0.14249324E+03</pdfrwt>
<totfact> 0.32042400E+04</totfact>
</mgrwt>
</event>
<event>
 6    4  0.6376098E-003  0.1308547E+03  0.7818608E-02  0.1226193E+00
         21   -1    0    0  501  502  0.00000000000E+00  0.00000000000E+00  0.29681166390E+03  0.29681166390E+03  0.00000000000E+00 0. -1.
          4   -1    0    0  502    0 -0.00000000000E+00 -0.00000000000E+00 -0.60087152770E+02  0.60100572610E+02  0.12700000000E+01 0.  1.
         25    2    1    2    0    0 -0.38448276900E+02  0.43840629676E+01  0.14861272520E+02  0.13169589707E+03  0.12500184750E+03 0.  0.
    9000005    1    3    3    0    0  0.73992130057E+01 -0.24986764458E+02 -0.44225089086E+02  0.51341457477E+02  0.10000000000E+01 0.  0.
    9000005    1    3    3    0    0 -0.45847489906E+02  0.29370827425E+02  0.59086361606E+02  0.80354439592E+02  0.10000000000E+01 0.  0.
          4    1    1    2  501    0  0.38448276900E+02 -0.43840629676E+01  0.22186323861E+03  0.22521633944E+03  0.12700000000E+01 0. -1.
<mgrwt>
<rscale>  1 0.13085470E+03</rscale>
<asrwt>0</asrwt>
<pdfrwt beam="1">  1       21 0.45663332E-01 0.13085470E+03</pdfrwt>
<pdfrwt beam="2">  1        4 0.92454188E-02 0.13085470E+03</pdfrwt>
<totfact> 0.16290000E+04</totfact>
</mgrwt>
</event>
<event>
 6    4  0.6376098E-003  0.1273604E+03  0.7818608E-02  0.1231426E+00
         -4   -1    0    0    0  501 -0.00000000000E+00  0.00000000000E+00  0.37563498381E+01  0.39652319108E+01  0.12700000000E+01 0.  1.
         21   -1    0    0  501  502  0.00000000000E+00 -0.00000000000E+00 -0.24534543487E+04  0.24534543487E+04  0.00000000000E+00 0. -1.
         25    2    1    2    0    0 -0.23172306894E+02 -0.76648659468E+01 -0.10770458792E+04  0.10845498998E+04  0.12499981311E+03 0.  0.
    9000005    1    3    3    0    0 -0.66832123075E+02  0.26510010915E+02 -0.60517672259E+03  0.60943349015E+03  0.10000000000E+01 0.  0.
    9000005    1    3    3    0    0  0.43659816181E+02 -0.34174876862E+02 -0.47186915658E+03  0.47511640962E+03  0.10000000000E+01 0.  0.
         -4    1    1    2    0  502  0.23172306894E+02  0.76648659468E+01 -0.13726521197E+04  0.13728696809E+04  0.12700000000E+01 0. -1.
<mgrwt>
<rscale>  1 0.12736035E+03</rscale>
<asrwt>0</asrwt>
<pdfrwt beam="2">  1       21 0.37745450E+00 0.12736035E+03</pdfrwt>
<pdfrwt beam="1">  1       -4 0.59399313E-03 0.12736035E+03</pdfrwt>
<totfact> 0.33924496E+03</totfact>
</mgrwt>
</event>
<event>
 6    4  0.6376098E-003  0.1283281E+03  0.7818608E-02  0.1229958E+00
         -4   -1    0    0    0  501 -0.00000000000E+00  0.00000000000E+00  0.45392910075E+03  0.45393087734E+03  0.12700000000E+01 0. -1.
         21   -1    0    0  501  502  0.00000000000E+00 -0.00000000000E+00 -0.14840512652E+02  0.14840512652E+02  0.00000000000E+00 0. -1.
         25    2    1    2    0    0 -0.81327176496E+01 -0.27836684138E+02  0.40001347967E+03  0.42009388925E+03  0.12500827888E+03 0.  0.
    9000005    1    3    3    0    0  0.57423671825E+02 -0.59819414839E+01  0.21411773719E+03  0.22176714610E+03  0.10000000000E+01 0.  0.
    9000005    1    3    3    0    0 -0.65556389475E+02 -0.21854742654E+02  0.18589574248E+03  0.19832674315E+03  0.10000000000E+01 0.  0.
         -4    1    1    2    0  502  0.81327176496E+01  0.27836684138E+02  0.39075108428E+02  0.48677500746E+02  0.12700000000E+01 0.  1.
<mgrwt>
<rscale>  1 0.12832806E+03</rscale>
<asrwt>0</asrwt>
<pdfrwt beam="2">  1       21 0.22831561E-02 0.12832806E+03</pdfrwt>
<pdfrwt beam="1">  1       -4 0.69839552E-01 0.12832806E+03</pdfrwt>
<totfact> 0.75855602E+04</totfact>
</mgrwt>
</event>
<event>
 6    4  0.6376098E-003  0.1326535E+03  0.7818608E-02  0.1223571E+00
          4   -1    0    0  502    0 -0.00000000000E+00  0.00000000000E+00  0.25201450032E+03  0.25201770032E+03  0.12700000000E+01 0.  1.
         21   -1    0    0  501  502  0.00000000000E+00 -0.00000000000E+00 -0.71768232912E+02  0.71768232912E+02  0.00000000000E+00 0. -1.
         25    2    1    2    0    0 -0.34065651393E+02 -0.28485859394E+02  0.22470296712E+03  0.26093751368E+03  0.12500019929E+03 0.  0.
    9000005    1    3    3    0    0 -0.65551502524E+02 -0.43489801987E+02  0.20774482805E+03  0.22214246766E+03  0.10000000000E+01 0.  0.
    9000005    1    3    3    0    0  0.31485851131E+02  0.15003942593E+02  0.16958139078E+02  0.38795046021E+02  0.10000000000E+01 0.  0.
          4    1    1    2  501    0  0.34065651393E+02  0.28485859394E+02 -0.44456699711E+02  0.62848419546E+02  0.12700000000E+01 0. -1.
<mgrwt>
<rscale>  1 0.13265354E+03</rscale>
<asrwt>0</asrwt>
<pdfrwt beam="2">  1       21 0.11041267E-01 0.13265354E+03</pdfrwt>
<pdfrwt beam="1">  1        4 0.38772572E-01 0.13265354E+03</pdfrwt>
<totfact> 0.17914679E+04</totfact>
</mgrwt>
</event>
<event>
 6    4  0.6376098E-003  0.1267500E+03  0.7818608E-02  0.1232359E+00
          4   -1    0    0  502    0 -0.00000000000E+00  0.00000000000E+00  0.10743446553E+03  0.10744197171E+03  0.12700000000E+01 0.  1.
         21   -1    0    0  501  502  0.00000000000E+00 -0.00000000000E+00 -0.13861092327E+03  0.13861092327E+03  0.00000000000E+00 0. -1.
         25    2    1    2    0    0 -0.10627585307E+02 -0.18083988466E+02  0.68575443656E+02  0.14411158373E+03  0.12500232351E+03 0.  0.
    9000005    1    3    3    0    0 -0.63193652861E+02 -0.15516416727E+02  0.63999148866E+02  0.91274793922E+02  0.10000000000E+01 0.  0.
    9000005    1    3    3    0    0  0.52566067554E+02 -0.25675717394E+01  0.45762947896E+01  0.52836789803E+02  0.10000000000E+01 0.  0.
          4    1    1    2  501    0  0.10627585307E+02  0.18083988466E+02 -0.99751901393E+02  0.10194131125E+03  0.12700000000E+01 0. -1.
<mgrwt>
<rscale>  1 0.12674998E+03</rscale>
<asrwt>0</asrwt>
<pdfrwt beam="2">  1       21 0.21324757E-01 0.12674998E+03</pdfrwt>
<pdfrwt beam="1">  1        4 0.16529404E-01 0.12674998E+03</pdfrwt>
<totfact> 0.26289269E+04</totfact>
</mgrwt>
</event>
<event>
 6    4  0.6376098E-003  0.1279932E+03  0.7818608E-02  0.1230464E+00
         -4   -1    0    0    0  501 -0.00000000000E+00  0.00000000000E+00  0.52055112935E+03  0.52055267858E+03  0.12700000000E+01 0. -1.
         21   -1    0    0  501  502  0.00000000000E+00 -0.00000000000E+00 -0.15943115226E+02  0.15943115226E+02  0.00000000000E+00 0. -1.
         25    2    1    2    0    0  0.27452073546E+02 -0.13452847656E+01  0.48766784898E+03  0.50418467763E+03  0.12500732816E+03 0.  0.
    9000005    1    3    3    0    0  0.77909456817E+01  0.46925328179E+02  0.79115193744E+02  0.92319549070E+02  0.10000000000E+01 0.  0.
    9000005    1    3    3    0    0  0.19661127864E+02 -0.48270612945E+02  0.40855265523E+03  0.41186512856E+03  0.10000000000E+01 0.  0.
         -4    1    1    2    0  502 -0.27452073546E+02  0.13452847656E+01  0.16940165150E+02  0.32311116174E+02  0.12700000000E+01 0.  1.
<mgrwt>
<rscale>  1 0.12799320E+03</rscale>
<asrwt>0</asrwt>
<pdfrwt beam="2">  1       21 0.24527874E-02 0.12799320E+03</pdfrwt>
<pdfrwt beam="1">  1       -4 0.80088786E-01 0.12799320E+03</pdfrwt>
<totfact> 0.50070533E+04</totfact>
</mgrwt>
</event>
<event>
 6    4  0.6376098E-003  0.1281646E+03  0.7818608E-02  0.1230205E+00
         -4   -1    0    0    0  501 -0.00000000000E+00  0.00000000000E+00  0.75292499511E+01  0.76356076920E+01  0.12700000000E+01 0. -1.
         21   -1    0    0  501  502  0.00000000000E+00 -0.00000000000E+00 -0.17206996008E+04  0.17206996008E+04  0.00000000000E+00 0.  1.
         25    2    1    2    0    0  0.21123284783E+02 -0.18832559704E+02 -0.54674434593E+03  0.56156526702E+03  0.12500124341E+03 0.  0.
    9000005    1    3    3    0    0 -0.42809997241E+02  0.22732085399E+02 -0.27859463973E+03  0.28278157093E+03  0.10000000000E+01 0.  0.
    9000005    1    3    3    0    0  0.63933282024E+02 -0.41564645103E+02 -0.26814970620E+03  0.27878369609E+03  0.10000000000E+01 0.  0.
         -4    1    1    2    0  502 -0.21123284783E+02  0.18832559704E+02 -0.11664260049E+04  0.11667699414E+04  0.12700000000E+01 0.  1.
<mgrwt>
<rscale>  1 0.12816462E+03</rscale>
<asrwt>0</asrwt>
<pdfrwt beam="2">  1       21 0.26472339E+00 0.12816462E+03</pdfrwt>
<pdfrwt beam="1">  1       -4 0.11665619E-02 0.12816462E+03</pdfrwt>
<totfact> 0.54238035E+03</totfact>
</mgrwt>
</event>
<event>
 6    4  0.6376098E-003  0.1269974E+03  0.7818608E-02  0.1231980E+00
         21   -1    0    0  501  502  0.00000000000E+00  0.00000000000E+00  0.17963532868E+02  0.17963532868E+02  0.00000000000E+00 0. -1.
         -4   -1    0    0    0  501 -0.00000000000E+00 -0.00000000000E+00 -0.31108702813E+03  0.31108962048E+03  0.12700000000E+01 0.  1.
         25    2    1    2    0    0 -0.18037684005E+02  0.13334390867E+02 -0.25203110766E+03  0.28221981861E+03  0.12500073105E+03 0.  0.
    9000005    1    3    3    0    0  0.40041647108E+02 -0.27714171270E+02 -0.15100691730E+03  0.15866788542E+03  0.10000000000E+01 0.  0.
    9000005    1    3    3    0    0 -0.58079331113E+02  0.41048562138E+02 -0.10102419037E+03  0.12355193319E+03  0.10000000000E+01 0.  0.
         -4    1    1    2    0  502  0.18037684005E+02 -0.13334390867E+02 -0.41092387598E+02  0.46833334737E+02  0.12700000000E+01 0. -1.
<mgrwt>
<rscale>  1 0.12699743E+03</rscale>
<asrwt>0</asrwt>
<pdfrwt beam="1">  1       21 0.27636207E-02 0.12699743E+03</pdfrwt>
<pdfrwt beam="2">  1       -4 0.47863191E-01 0.12699743E+03</pdfrwt>
<totfact> 0.12202550E+05</totfact>
</mgrwt>
</event>
<event>
 6    4  0.6376098E-003  0.1397489E+03  0.7818608E-02  0.1213667E+00
         21   -1    0    0  501  502  0.00000000000E+00  0.00000000000E+00  0.16088974391E+02  0.16088974391E+02  0.00000000000E+00 0. -1.
         -4   -1    0    0    0  501 -0.00000000000E+00 -0.00000000000E+00 -0.81777828900E+03  0.81777927515E+03  0.12700000000E+01 0.  1.
         25    2    1    2    0    0 -0.60083629198E+02  0.17057872844E+02 -0.70525377843E+03  0.71896638244E+03  0.12501501339E+03 0.  0.
    9000005    1    3    3    0    0 -0.69379613004E+02  0.31424629540E+02 -0.20952205294E+03  0.22293839667E+03  0.10000000000E+01 0.  0.
    9000005    1    3    3    0    0  0.92959838063E+01 -0.14366756697E+02 -0.49573172548E+03  0.49602798577E+03  0.10000000000E+01 0.  0.
         -4    1    1    2    0  502  0.60083629198E+02 -0.17057872844E+02 -0.96435536187E+02  0.11490186710E+03  0.12700000000E+01 0. -1.
<mgrwt>
<rscale>  1 0.13974894E+03</rscale>
<asrwt>0</asrwt>
<pdfrwt beam="1">  1       21 0.24752263E-02 0.13974894E+03</pdfrwt>
<pdfrwt beam="2">  1       -4 0.12581600E+00 0.13974894E+03</pdfrwt>
<totfact> 0.17525870E+04</totfact>
</mgrwt>
</event>
<event>
 6    4  0.6376098E-003  0.1304370E+03  0.7818608E-02  0.1226809E+00
         21   -1    0    0  501  502  0.00000000000E+00  0.00000000000E+00  0.61305674812E+02  0.61305674812E+02  0.00000000000E+00 0. -1.
          4   -1    0    0  502    0 -0.00000000000E+00 -0.00000000000E+00 -0.11566917774E+03  0.11567614957E+03  0.12700000000E+01 0. -1.
         25    2    1    2    0    0 -0.19087566382E+02  0.32022438259E+02 -0.48805513082E+02  0.13926875114E+03  0.12499614071E+03 0.  0.
    9000005    1    3    3    0    0 -0.71824792281E+01  0.23967730649E+02 -0.91156755905E+02  0.94533561593E+02  0.10000000000E+01 0.  0.
    9000005    1    3    3    0    0 -0.11905087154E+02  0.80547076102E+01  0.42351242823E+02  0.44735189543E+02  0.10000000000E+01 0.  0.
          4    1    1    2  501    0  0.19087566382E+02 -0.32022438259E+02 -0.55579898445E+01  0.37713073245E+02  0.12700000000E+01 0.  1.
<mgrwt>
<rscale>  1 0.13043698E+03</rscale>
<asrwt>0</asrwt>
<pdfrwt beam="1">  1       21 0.94316424E-02 0.13043698E+03</pdfrwt>
<pdfrwt beam="2">  1        4 0.17796806E-01 0.13043698E+03</pdfrwt>
<totfact> 0.10026888E+05</totfact>
</mgrwt>
</event>
<event>
 6    4  0.6376098E-003  0.1267005E+03  0.7818608E-02  0.1232435E+00
         21   -1    0    0  501  502  0.00000000000E+00  0.00000000000E+00  0.40111060339E+02  0.40111060339E+02  0.00000000000E+00 0. -1.
         -4   -1    0    0    0  501 -0.00000000000E+00 -0.00000000000E+00 -0.14774875684E+03  0.14775421499E+03  0.12700000000E+01 0. -1.
         25    2    1    2    0    0 -0.13316109487E+02 -0.15828373854E+02 -0.10894716971E+03  0.16710030939E+03  0.12500068567E+03 0.  0.
    9000005    1    3    3    0    0  0.40368886938E+02 -0.46331150848E+02 -0.34881458420E+02  0.70667805350E+02  0.10000000000E+01 0.  0.
    9000005    1    3    3    0    0 -0.53684996425E+02  0.30502776995E+02 -0.74065711291E+02  0.96432504035E+02  0.10000000000E+01 0.  0.
         -4    1    1    2    0  502  0.13316109487E+02  0.15828373854E+02  0.13094732068E+01  0.20764965948E+02  0.12700000000E+01 0.  1.
<mgrwt>
<rscale>  1 0.12670054E+03</rscale>
<asrwt>0</asrwt>
<pdfrwt beam="1">  1       21 0.61709322E-02 0.12670054E+03</pdfrwt>
<pdfrwt beam="2">  1       -4 0.22732545E-01 0.12670054E+03</pdfrwt>
<totfact> 0.13333003E+05</totfact>
</mgrwt>
</event>
<event>
 6    4  0.6376098E-003  0.1300846E+03  0.7818608E-02  0.1227330E+00
         21   -1    0    0  501  502  0.00000000000E+00  0.00000000000E+00  0.27841846265E+02  0.27841846265E+02  0.00000000000E+00 0. -1.
          4   -1    0    0  502    0 -0.00000000000E+00 -0.00000000000E+00 -0.33893695087E+03  0.33893933022E+03  0.12700000000E+01 0.  1.
         25    2    1    2    0    0  0.30278441498E+02  0.19494256736E+02 -0.30315047515E+03  0.32988212362E+03  0.12500077932E+03 0.  0.
    9000005    1    3    3    0    0  0.14834867887E+02  0.69666183484E+02 -0.12198194426E+03  0.14125878787E+03  0.10000000000E+01 0.  0.
    9000005    1    3    3    0    0  0.15443573611E+02 -0.50171926748E+02 -0.18116853090E+03  0.18862333574E+03  0.10000000000E+01 0.  0.
          4    1    1    2  501    0 -0.30278441498E+02 -0.19494256736E+02 -0.79446294554E+01  0.36899052866E+02  0.12700000000E+01 0. -1.
<mgrwt>
<rscale>  1 0.13008461E+03</rscale>
<asrwt>0</asrwt>
<pdfrwt beam="1">  1       21 0.42833607E-02 0.13008461E+03</pdfrwt>
<pdfrwt beam="2">  1        4 0.52146561E-01 0.13008461E+03</pdfrwt>
<totfact> 0.49916812E+04</totfact>
</mgrwt>
</event>
<event>
 6    4  0.6376098E-003  0.1305285E+03  0.7818608E-02  0.1226674E+00
          4   -1    0    0  502    0 -0.00000000000E+00  0.00000000000E+00  0.14251981655E+03  0.14252547495E+03  0.12700000000E+01 0. -1.
         21   -1    0    0  501  502  0.00000000000E+00 -0.00000000000E+00 -0.61222920730E+02  0.61222920730E+02  0.00000000000E+00 0.  1.
         25    2    1    2    0    0 -0.18536560880E+02  0.32696531766E+02  0.97375359246E+02  0.16284855258E+03  0.12500009285E+03 0.  0.
    9000005    1    3    3    0    0  0.86511951666E+01 -0.47375327301E+01 -0.27735227810E+02  0.29453866569E+02  0.10000000000E+01 0.  0.
    9000005    1    3    3    0    0 -0.27187756047E+02  0.37434064496E+02  0.12511058706E+03  0.13339468601E+03  0.10000000000E+01 0.  0.
          4    1    1    2  501    0  0.18536560880E+02 -0.32696531766E+02 -0.16078463428E+02  0.40899843092E+02  0.12700000000E+01 0.  1.
<mgrwt>
<rscale>  1 0.13052850E+03</rscale>
<asrwt>0</asrwt>
<pdfrwt beam="2">  1       21 0.94189109E-02 0.13052850E+03</pdfrwt>
<pdfrwt beam="1">  1        4 0.21927574E-01 0.13052850E+03</pdfrwt>
<totfact> 0.69103829E+04</totfact>
</mgrwt>
</event>
<event>
 6    4  0.6376098E-003  0.1365280E+03  0.7818608E-02  0.1218079E+00
         -4   -1    0    0    0  501 -0.00000000000E+00  0.00000000000E+00  0.67987481012E+02  0.67999341720E+02  0.12700000000E+01 0.  1.
         21   -1    0    0  501  502  0.00000000000E+00 -0.00000000000E+00 -0.15590640303E+03  0.15590640303E+03  0.00000000000E+00 0.  1.
         25    2    1    2    0    0  0.46728955272E+02  0.28823686864E+02 -0.98013977808E+02  0.16806737768E+03  0.12500201362E+03 0.  0.
    9000005    1    3    3    0    0  0.49179308274E+02 -0.42055640359E+02 -0.56320347370E+02  0.85791973844E+02  0.10000000000E+01 0.  0.
    9000005    1    3    3    0    0 -0.24503530014E+01  0.70879327223E+02 -0.41693630438E+02  0.82275403837E+02  0.10000000000E+01 0.  0.
         -4    1    1    2    0  502 -0.46728955272E+02 -0.28823686864E+02  0.10095055793E+02  0.55838367067E+02  0.12700000000E+01 0. -1.
<mgrwt>
<rscale>  1 0.13652803E+03</rscale>
<asrwt>0</asrwt>
<pdfrwt beam="2">  1       21 0.23985600E-01 0.13652803E+03</pdfrwt>
<pdfrwt beam="1">  1       -4 0.10460923E-01 0.13652803E+03</pdfrwt>
<totfact> 0.46807837E+04</totfact>
</mgrwt>
</event>
<event>
 6    4  0.6376098E-003  0.1276903E+03  0.7818608E-02  0.1230924E+00
         21   -1    0    0  501  502  0.00000000000E+00  0.00000000000E+00  0.22321459641E+03  0.22321459641E+03  0.00000000000E+00 0.  1.
         -4   -1    0    0    0  501 -0.00000000000E+00 -0.00000000000E+00 -0.42903340680E+02  0.42922133469E+02  0.12700000000E+01 0.  1.
         25    2    1    2    0    0  0.36450220183E+01 -0.25809627813E+02  0.56546767608E+02  0.13965082358E+03  0.12500157009E+03 0.  0.
    9000005    1    3    3    0    0 -0.44367398160E+02 -0.44416122767E+02  0.61528397409E+02  0.87909053395E+02  0.10000000000E+01 0.  0.
    9000005    1    3    3    0    0  0.48012420179E+02  0.18606494954E+02 -0.49816298008E+01  0.51741770180E+02  0.10000000000E+01 0.  0.
         -4    1    1    2    0  502 -0.36450220183E+01  0.25809627813E+02  0.12376448813E+03  0.12648590631E+03  0.12700000000E+01 0. -1.
<mgrwt>
<rscale>  1 0.12769031E+03</rscale>
<asrwt>0</asrwt>
<pdfrwt beam="1">  1       21 0.34340707E-01 0.12769031E+03</pdfrwt>
<pdfrwt beam="2">  1       -4 0.66022376E-02 0.12769031E+03</pdfrwt>
<totfact> 0.50075375E+04</totfact>
</mgrwt>
</event>
<event>
 6    4  0.6376098E-003  0.1292631E+03  0.7818608E-02  0.1228553E+00
         -4   -1    0    0    0  501 -0.00000000000E+00  0.00000000000E+00  0.42740386517E+03  0.42740575202E+03  0.12700000000E+01 0.  1.
         21   -1    0    0  501  502  0.00000000000E+00 -0.00000000000E+00 -0.26376942169E+02  0.26376942169E+02  0.00000000000E+00 0. -1.
         25    2    1    2    0    0 -0.32765206376E+02 -0.32778572857E+01  0.40048055330E+03  0.42082492550E+03  0.12499856500E+03 0.  0.
    9000005    1    3    3    0    0 -0.71237982559E+02 -0.22790305927E+02  0.16152094743E+03  0.17800074343E+03  0.10000000000E+01 0.  0.
    9000005    1    3    3    0    0  0.38472776183E+02  0.19512448641E+02  0.23895960587E+03  0.24282418207E+03  0.10000000000E+01 0.  0.
         -4    1    1    2    0  502  0.32765206376E+02  0.32778572857E+01  0.54636969844E+00  0.32957768691E+02  0.12700000000E+01 0. -1.
<mgrwt>
<rscale>  1 0.12926308E+03</rscale>
<asrwt>0</asrwt>
<pdfrwt beam="2">  1       21 0.40579914E-02 0.12926308E+03</pdfrwt>
<pdfrwt beam="1">  1       -4 0.65756933E-01 0.12926308E+03</pdfrwt>
<totfact> 0.33613986E+04</totfact>
</mgrwt>
</event>
<event>
 6    4  0.6376098E-003  0.1276434E+03  0.7818608E-02  0.1230995E+00
         21   -1    0    0  501  502  0.00000000000E+00  0.00000000000E+00  0.78116367917E+01  0.78116367917E+01  0.00000000000E+00 0. -1.
         -4   -1    0    0    0  501 -0.00000000000E+00 -0.00000000000E+00 -0.80597665282E+03  0.80597765340E+03  0.12700000000E+01 0. -1.
         25    2    1    2    0    0 -0.23989161003E+02 -0.97217447720E+01 -0.72545814746E+03  0.73660189612E+03  0.12499134966E+03 0.  0.
    9000005    1    3    3    0    0 -0.10404447809E+02 -0.67481532002E+02 -0.39336192808E+03  0.39924505778E+03  0.10000000000E+01 0.  0.
    9000005    1    3    3    0    0 -0.13584713194E+02  0.57759787230E+02 -0.33209621938E+03  0.33735683834E+03  0.10000000000E+01 0.  0.
         -4    1    1    2    0  502  0.23989161003E+02  0.97217447720E+01 -0.72706868564E+02  0.77187394071E+02  0.12700000000E+01 0.  1.
<mgrwt>
<rscale>  1 0.12764337E+03</rscale>
<asrwt>0</asrwt>
<pdfrwt beam="1">  1       21 0.12017898E-02 0.12764337E+03</pdfrwt>
<pdfrwt beam="2">  1       -4 0.12400447E+00 0.12764337E+03</pdfrwt>
<totfact> 0.57338799E+04</totfact>
</mgrwt>
</event>
<event>
 6    4  0.6376098E-003  0.1298949E+03  0.7818608E-02  0.1227612E+00
         21   -1    0    0  501  502  0.00000000000E+00  0.00000000000E+00  0.31026174609E+03  0.31026174609E+03  0.00000000000E+00 0.  1.
         -4   -1    0    0    0  501 -0.00000000000E+00 -0.00000000000E+00 -0.30068398204E+02  0.30095206771E+02  0.12700000000E+01 0.  1.
         25    2    1    2    0    0 -0.22959054898E+02 -0.26852738187E+02  0.27563906403E+03  0.30471228775E+03  0.12499798772E+03 0.  0.
    9000005    1    3    3    0    0 -0.48809958887E+02  0.36757706980E+02  0.12343309671E+03  0.13773260497E+03  0.10000000000E+01 0.  0.
    9000005    1    3    3    0    0  0.25850903989E+02 -0.63610445167E+02  0.15220596732E+03  0.16697968277E+03  0.10000000000E+01 0.  0.
         -4    1    1    2    0  502  0.22959054898E+02  0.26852738187E+02  0.45542838588E+01  0.35644665118E+02  0.12700000000E+01 0. -1.
<mgrwt>
<rscale>  1 0.12989490E+03</rscale>
<asrwt>0</asrwt>
<pdfrwt beam="1">  1       21 0.47732574E-01 0.12989490E+03</pdfrwt>
<pdfrwt beam="2">  1       -4 0.46281698E-02 0.12989490E+03</pdfrwt>
<totfact> 0.46057740E+04</totfact>
</mgrwt>
</event>
<event>
 6    4  0.6376098E-003  0.1281588E+03  0.7818608E-02  0.1230214E+00
         -4   -1    0    0    0  501 -0.00000000000E+00  0.00000000000E+00  0.61403713516E+01  0.62703317564E+01  0.12700000000E+01 0. -1.
         21   -1    0    0  501  502  0.00000000000E+00 -0.00000000000E+00 -0.98910855197E+03  0.98910855197E+03  0.00000000000E+00 0. -1.
         25    2    1    2    0    0  0.27366788721E+02 -0.71343105705E+01 -0.78371263325E+03  0.79412226752E+03  0.12499937893E+03 0.  0.
    9000005    1    3    3    0    0  0.52483017906E+02 -0.38218756221E+02 -0.67802341523E+03  0.68112545988E+03  0.10000000000E+01 0.  0.
    9000005    1    3    3    0    0 -0.25116229186E+02  0.31084445651E+02 -0.10568921802E+03  0.11299680763E+03  0.10000000000E+01 0.  0.
         -4    1    1    2    0  502 -0.27366788721E+02  0.71343105705E+01 -0.19925554736E+03  0.20125661621E+03  0.12700000000E+01 0.  1.
<mgrwt>
<rscale>  1 0.12815882E+03</rscale>
<asrwt>0</asrwt>
<pdfrwt beam="2">  1       21 0.15217052E+00 0.12815882E+03</pdfrwt>
<pdfrwt beam="1">  1       -4 0.95473233E-03 0.12815882E+03</pdfrwt>
<totfact> 0.37358980E+04</totfact>
</mgrwt>
</event>
<event>
 6    4  0.6376098E-003  0.1354845E+03  0.7818608E-02  0.1219537E+00
         -4   -1    0    0    0  501 -0.00000000000E+00  0.00000000000E+00  0.15044378613E+03  0.15044914651E+03  0.12700000000E+01 0.  1.
         21   -1    0    0  501  502  0.00000000000E+00 -0.00000000000E+00 -0.11591435305E+03  0.11591435305E+03  0.00000000000E+00 0. -1.
         25    2    1    2    0    0 -0.37426962553E+02  0.36467036207E+02  0.11002927682E+03  0.17453506409E+03  0.12500169832E+03 0.  0.
    9000005    1    3    3    0    0 -0.56229001507E+02  0.73058121495E+02  0.89715236366E+02  0.12864296857E+03  0.10000000000E+01 0.  0.
    9000005    1    3    3    0    0  0.18802038954E+02 -0.36591085289E+02  0.20314040459E+02  0.45892095520E+02  0.10000000000E+01 0.  0.
         -4    1    1    2    0  502  0.37426962553E+02 -0.36467036207E+02 -0.75499843737E+02  0.91828435465E+02  0.12700000000E+01 0. -1.
<mgrwt>
<rscale>  1 0.13548449E+03</rscale>
<asrwt>0</asrwt>
<pdfrwt beam="2">  1       21 0.17832977E-01 0.13548449E+03</pdfrwt>
<pdfrwt beam="1">  1       -4 0.23146146E-01 0.13548449E+03</pdfrwt>
<totfact> 0.20127929E+04</totfact>
</mgrwt>
</event>
<event>
 6    4  0.6376098E-003  0.1299274E+03  0.7818608E-02  0.1227564E+00
         21   -1    0    0  501  502  0.00000000000E+00  0.00000000000E+00  0.21297494442E+03  0.21297494442E+03  0.00000000000E+00 0. -1.
         -4   -1    0    0    0  501 -0.00000000000E+00 -0.00000000000E+00 -0.32566061366E+02  0.32590815468E+02  0.12700000000E+01 0. -1.
         25    2    1    2    0    0 -0.17445151833E+02 -0.30830295378E+02  0.12874355347E+03  0.18290987735E+03  0.12500512084E+03 0.  0.
    9000005    1    3    3    0    0  0.34398956212E+02  0.29243674658E+02  0.73326214122E+02  0.86117445233E+02  0.10000000000E+01 0.  0.
    9000005    1    3    3    0    0 -0.51844108045E+02 -0.60073970036E+02  0.55417339352E+02  0.96792432120E+02  0.10000000000E+01 0.  0.
         -4    1    1    2    0  502  0.17445151833E+02  0.30830295378E+02  0.51665329583E+02  0.62655882537E+02  0.12700000000E+01 0.  1.
<mgrwt>
<rscale>  1 0.12992737E+03</rscale>
<asrwt>0</asrwt>
<pdfrwt beam="1">  1       21 0.32765375E-01 0.12992737E+03</pdfrwt>
<pdfrwt beam="2">  1       -4 0.50123589E-02 0.12992737E+03</pdfrwt>
<totfact> 0.85932336E+04</totfact>
</mgrwt>
</event>
<event>
 6    4  0.6376098E-003  0.1274397E+03  0.7818608E-02  0.1231305E+00
         21   -1    0    0  501  502  0.00000000000E+00  0.00000000000E+00  0.36510474819E+03  0.36510474819E+03  0.00000000000E+00 0. -1.
         -4   -1    0    0    0  501 -0.00000000000E+00 -0.00000000000E+00 -0.16084367708E+02  0.16134428548E+02  0.12700000000E+01 0. -1.
         25    2    1    2    0    0 -0.95348628586E+01  0.22901491418E+02  0.27338265106E+03  0.30162717431E+03  0.12500194583E+03 0.  0.
    9000005    1    3    3    0    0  0.13102893462E+02  0.46287930889E+02  0.26312168831E+03  0.26748510467E+03  0.10000000000E+01 0.  0.
    9000005    1    3    3    0    0 -0.22637756320E+02 -0.23386439471E+02  0.10260962750E+02  0.34142069634E+02  0.10000000000E+01 0.  0.
         -4    1    1    2    0  502  0.95348628586E+01 -0.22901491418E+02  0.75637729420E+02  0.79612002429E+02  0.12700000000E+01 0.  1.
<mgrwt>
<rscale>  1 0.12743970E+03</rscale>
<asrwt>0</asrwt>
<pdfrwt beam="1">  1       21 0.56169955E-01 0.12743970E+03</pdfrwt>
<pdfrwt beam="2">  1       -4 0.24785391E-02 0.12743970E+03</pdfrwt>
<totfact> 0.87634292E+04</totfact>
</mgrwt>
</event>
<event>
 6    4  0.6376098E-003  0.1283916E+03  0.7818608E-02  0.1229862E+00
         21   -1    0    0  501  502  0.00000000000E+00  0.00000000000E+00  0.11347993142E+03  0.11347993142E+03  0.00000000000E+00 0.  1.
         -4   -1    0    0    0  501 -0.00000000000E+00 -0.00000000000E+00 -0.74157919293E+02  0.74168793261E+02  0.12700000000E+01 0.  1.
         25    2    1    2    0    0  0.13626056692E+02  0.25960850483E+02 -0.11559051828E+02  0.12891091107E+03  0.12499910453E+03 0.  0.
    9000005    1    3    3    0    0 -0.91536381391E+01 -0.48591879506E+02 -0.12229877491E+02  0.50946341856E+02  0.10000000000E+01 0.  0.
    9000005    1    3    3    0    0  0.22779694831E+02  0.74552729989E+02  0.67082566220E+00  0.77964569212E+02  0.10000000000E+01 0.  0.
         -4    1    1    2    0  502 -0.13626056692E+02 -0.25960850483E+02  0.50881063956E+02  0.58737813614E+02  0.12700000000E+01 0. -1.
<mgrwt>
<rscale>  1 0.12839163E+03</rscale>
<asrwt>0</asrwt>
<pdfrwt beam="1">  1       21 0.17458451E-01 0.12839163E+03</pdfrwt>
<pdfrwt beam="2">  1       -4 0.11410294E-01 0.12839163E+03</pdfrwt>
<totfact> 0.72260360E+04</totfact>
</mgrwt>
</event>
<event>
 6    4  0.6376098E-003  0.1267348E+03  0.7818608E-02  0.1232383E+00
         -4   -1    0    0    0  501 -0.00000000000E+00  0.00000000000E+00  0.93618626402E+01  0.94476119784E+01  0.12700000000E+01 0.  1.
         21   -1    0    0  501  502  0.00000000000E+00 -0.00000000000E+00 -0.59046627070E+03  0.59046627070E+03  0.00000000000E+00 0.  1.
         25    2    1    2    0    0 -0.17087748555E+02 -0.11989325208E+02 -0.46605741687E+03  0.48298160248E+03  0.12500390973E+03 0.  0.
    9000005    1    3    3    0    0 -0.54091861079E+02 -0.32616472117E+00 -0.41667509428E+03  0.42017278590E+03  0.10000000000E+01 0.  0.
    9000005    1    3    3    0    0  0.37004112524E+02 -0.11663160487E+02 -0.49382322591E+02  0.62808816584E+02  0.10000000000E+01 0.  0.
         -4    1    1    2    0  502  0.17087748555E+02  0.11989325208E+02 -0.11504699118E+03  0.11693228019E+03  0.12700000000E+01 0. -1.
<mgrwt>
<rscale>  1 0.12673481E+03</rscale>
<asrwt>0</asrwt>
<pdfrwt beam="2">  1       21 0.90840962E-01 0.12673481E+03</pdfrwt>
<pdfrwt beam="1">  1       -4 0.14469878E-02 0.12673481E+03</pdfrwt>
<totfact> 0.69844841E+04</totfact>
</mgrwt>
</event>
<event>
 6    4  0.6376098E-003  0.1281644E+03  0.7818608E-02  0.1230205E+00
          4   -1    0    0  502    0 -0.00000000000E+00  0.00000000000E+00  0.25974202018E+02  0.26005231598E+02  0.12700000000E+01 0.  1.
         21   -1    0    0  501  502  0.00000000000E+00 -0.00000000000E+00 -0.26241567966E+03  0.26241567966E+03  0.00000000000E+00 0.  1.
         25    2    1    2    0    0 -0.22344740039E+01  0.28207394964E+02 -0.22268370322E+03  0.25693219484E+03  0.12500188423E+03 0.  0.
    9000005    1    3    3    0    0 -0.56718021382E+02 -0.14257350440E+02 -0.11443606775E+03  0.12851777929E+03  0.10000000000E+01 0.  0.
    9000005    1    3    3    0    0  0.54483547378E+02  0.42464745404E+02 -0.10824763547E+03  0.12841441555E+03  0.10000000000E+01 0.  0.
          4    1    1    2  501    0  0.22344740039E+01 -0.28207394964E+02 -0.13757774427E+02  0.31488716422E+02  0.12700000000E+01 0. -1.
<mgrwt>
<rscale>  1 0.12816443E+03</rscale>
<asrwt>0</asrwt>
<pdfrwt beam="2">  1       21 0.40371644E-01 0.12816443E+03</pdfrwt>
<pdfrwt beam="1">  1        4 0.39986543E-02 0.12816443E+03</pdfrwt>
<totfact> 0.81481946E+04</totfact>
</mgrwt>
</event>
<event>
 6    4  0.6376098E-003  0.1281116E+03  0.7818608E-02  0.1230285E+00
         21   -1    0    0  501  502  0.00000000000E+00  0.00000000000E+00  0.23719131346E+02  0.23719131346E+02  0.00000000000E+00 0. -1.
         -4   -1    0    0    0  501 -0.00000000000E+00 -0.00000000000E+00 -0.26176989553E+03  0.26177297627E+03  0.12700000000E+01 0. -1.
         25    2    1    2    0    0  0.28052686101E+02  0.54745464922E+00 -0.17922021992E+03  0.22030086018E+03  0.12500131545E+03 0.  0.
    9000005    1    3    3    0    0  0.56175529992E+02 -0.11265644916E+02 -0.18087645793E+03  0.18973639071E+03  0.10000000000E+01 0.  0.
    9000005    1    3    3    0    0 -0.28122843891E+02  0.11813099566E+02  0.16562380082E+01  0.30564469474E+02  0.10000000000E+01 0.  0.
         -4    1    1    2    0  502 -0.28052686101E+02 -0.54745464922E+00 -0.58830544260E+02  0.65191247434E+02  0.12700000000E+01 0.  1.
<mgrwt>
<rscale>  1 0.12811160E+03</rscale>
<asrwt>0</asrwt>
<pdfrwt beam="1">  1       21 0.36490973E-02 0.12811160E+03</pdfrwt>
<pdfrwt beam="2">  1       -4 0.40275142E-01 0.12811160E+03</pdfrwt>
<totfact> 0.10915777E+05</totfact>
</mgrwt>
</event>
<event>
 6    4  0.6376098E-003  0.1266095E+03  0.7818608E-02  0.1232575E+00
         21   -1    0    0  501  502  0.00000000000E+00  0.00000000000E+00  0.10717810002E+03  0.10717810002E+03  0.00000000000E+00 0.  1.
          4   -1    0    0  502    0 -0.00000000000E+00 -0.00000000000E+00 -0.54965862127E+02  0.54980532003E+02  0.12700000000E+01 0.  1.
         25    2    1    2    0    0 -0.20032788436E+02  0.18036204480E+01  0.26267195614E+02  0.12930556857E+03  0.12500159535E+03 0.  0.
    9000005    1    3    3    0    0 -0.14321963788E+01  0.56646650168E+02 -0.14473001031E+02  0.58492409085E+02  0.10000000000E+01 0.  0.
    9000005    1    3    3    0    0 -0.18600592057E+02 -0.54843029720E+02  0.40740196646E+02  0.70813159487E+02  0.10000000000E+01 0.  0.
          4    1    1    2  501    0  0.20032788436E+02 -0.18036204480E+01  0.25945042278E+02  0.32853063450E+02  0.12700000000E+01 0. -1.
<mgrwt>
<rscale>  1 0.12660950E+03</rscale>
<asrwt>0</asrwt>
<pdfrwt beam="1">  1       21 0.16488939E-01 0.12660950E+03</pdfrwt>
<pdfrwt beam="2">  1        4 0.84579937E-02 0.12660950E+03</pdfrwt>
<totfact> 0.13235938E+05</totfact>
</mgrwt>
</event>
<event>
 6    4  0.6376098E-003  0.1527673E+03  0.7818608E-02  0.1197113E+00
          4   -1    0    0  502    0 -0.00000000000E+00  0.00000000000E+00  0.11811369522E+02  0.11879450744E+02  0.12700000000E+01 0. -1.
         21   -1    0    0  501  502  0.00000000000E+00 -0.00000000000E+00 -0.12814138723E+04  0.12814138723E+04  0.00000000000E+00 0.  1.
         25    2    1    2    0    0 -0.84754327561E+02 -0.23137133945E+02 -0.66380714182E+03  0.68115914227E+03  0.12497692814E+03 0.  0.
    9000005    1    3    3    0    0  0.51551492356E+01 -0.56034820128E+02 -0.21417699742E+03  0.22144810420E+03  0.10000000000E+01 0.  0.
    9000005    1    3    3    0    0 -0.89909476797E+02  0.32897686183E+02 -0.44963014440E+03  0.45971103807E+03  0.10000000000E+01 0.  0.
          4    1    1    2  501    0  0.84754327561E+02  0.23137133945E+02 -0.60579536101E+03  0.61213418082E+03  0.12700000000E+01 0.  1.
<mgrwt>
<rscale>  1 0.15276732E+03</rscale>
<asrwt>0</asrwt>
<pdfrwt beam="2">  1       21 0.19714054E+00 0.15276732E+03</pdfrwt>
<pdfrwt beam="1">  1        4 0.18224197E-02 0.15276732E+03</pdfrwt>
<totfact> 0.69322709E+03</totfact>
</mgrwt>
</event>
<event>
 6    4  0.6376098E-003  0.1631617E+03  0.7818608E-02  0.1185173E+00
         21   -1    0    0  501  502  0.00000000000E+00  0.00000000000E+00  0.51577756891E+02  0.51577756891E+02  0.00000000000E+00 0.  1.
         -4   -1    0    0    0  501 -0.00000000000E+00 -0.00000000000E+00 -0.90866892721E+03  0.90866981472E+03  0.12700000000E+01 0. -1.
         25    2    1    2    0    0  0.84932190168E+02 -0.61505631123E+02 -0.83789547596E+03  0.85363374901E+03  0.12500131689E+03 0.  0.
    9000005    1    3    3    0    0  0.14017951032E+02 -0.50116921634E+02 -0.10466171209E+03  0.11689004561E+03  0.10000000000E+01 0.  0.
    9000005    1    3    3    0    0  0.70914239136E+02 -0.11388709489E+02 -0.73323376388E+03  0.73674370340E+03  0.10000000000E+01 0.  0.
         -4    1    1    2    0  502 -0.84932190168E+02  0.61505631123E+02 -0.19195694354E+02  0.10661382259E+03  0.12700000000E+01 0.  1.
<mgrwt>
<rscale>  1 0.16316173E+03</rscale>
<asrwt>0</asrwt>
<pdfrwt beam="1">  1       21 0.79350401E-02 0.16316173E+03</pdfrwt>
<pdfrwt beam="2">  1       -4 0.13979648E+00 0.16316173E+03</pdfrwt>
<totfact> 0.19351887E+03</totfact>
</mgrwt>
</event>
<event>
 6    4  0.6376098E-003  0.1286515E+03  0.7818608E-02  0.1229471E+00
         21   -1    0    0  501  502  0.00000000000E+00  0.00000000000E+00  0.59038548374E+03  0.59038548374E+03  0.00000000000E+00 0.  1.
         -4   -1    0    0    0  501 -0.00000000000E+00 -0.00000000000E+00 -0.19517494621E+02  0.19558770316E+02  0.12700000000E+01 0. -1.
         25    2    1    2    0    0 -0.30367769473E+02 -0.22432994606E+01  0.19986414202E+03  0.23769070972E+03  0.12499585754E+03 0.  0.
    9000005    1    3    3    0    0 -0.48549465609E+02  0.48265362296E+02  0.14786641685E+03  0.16294806854E+03  0.10000000000E+01 0.  0.
    9000005    1    3    3    0    0  0.18181696136E+02 -0.50508661757E+02  0.51997725179E+02  0.74742641180E+02  0.10000000000E+01 0.  0.
         -4    1    1    2    0  502  0.30367769473E+02  0.22432994606E+01  0.37100384709E+03  0.37225354434E+03  0.12700000000E+01 0.  1.
<mgrwt>
<rscale>  1 0.12865146E+03</rscale>
<asrwt>0</asrwt>
<pdfrwt beam="1">  1       21 0.90828522E-01 0.12865146E+03</pdfrwt>
<pdfrwt beam="2">  1       -4 0.30059721E-02 0.12865146E+03</pdfrwt>
<totfact> 0.22667806E+04</totfact>
</mgrwt>
</event>
<event>
 6    4  0.6376098E-003  0.1405663E+03  0.7818608E-02  0.1212569E+00
          4   -1    0    0  502    0 -0.00000000000E+00  0.00000000000E+00  0.47828224758E+02  0.47845083170E+02  0.12700000000E+01 0.  1.
         21   -1    0    0  501  502  0.00000000000E+00 -0.00000000000E+00 -0.39002828553E+03  0.39002828553E+03  0.00000000000E+00 0. -1.
         25    2    1    2    0    0  0.43535228298E+02  0.47315574224E+02 -0.67846389227E+02  0.15608332335E+03  0.12499916652E+03 0.  0.
    9000005    1    3    3    0    0  0.32473556859E+02 -0.38540228794E+02 -0.42348465928E+02  0.65835201048E+02  0.10000000000E+01 0.  0.
    9000005    1    3    3    0    0  0.11061671439E+02  0.85855803018E+02 -0.25497923300E+02  0.90248122304E+02  0.10000000000E+01 0.  0.
          4    1    1    2  501    0 -0.43535228298E+02 -0.47315574224E+02 -0.27435367154E+03  0.28179004534E+03  0.12700000000E+01 0. -1.
<mgrwt>
<rscale>  1 0.14056625E+03</rscale>
<asrwt>0</asrwt>
<pdfrwt beam="2">  1       21 0.60004354E-01 0.14056625E+03</pdfrwt>
<pdfrwt beam="1">  1        4 0.73596440E-02 0.14056625E+03</pdfrwt>
<totfact> 0.13553441E+04</totfact>
</mgrwt>
</event>
<event>
 6    4  0.6376098E-003  0.1267876E+03  0.7818608E-02  0.1232302E+00
          4   -1    0    0  502    0 -0.00000000000E+00  0.00000000000E+00  0.40014531413E+02  0.40034680268E+02  0.12700000000E+01 0. -1.
         21   -1    0    0  501  502  0.00000000000E+00 -0.00000000000E+00 -0.49533055550E+03  0.49533055550E+03  0.00000000000E+00 0.  1.
         25    2    1    2    0    0 -0.12732909059E+02 -0.16960080674E+02 -0.61392525345E+02  0.14086921922E+03  0.12500129378E+03 0.  0.
    9000005    1    3    3    0    0  0.13637741490E+02 -0.47075220638E+02  0.17780956380E+02  0.52146206007E+02  0.10000000000E+01 0.  0.
    9000005    1    3    3    0    0 -0.26370650549E+02  0.30115139964E+02 -0.79173481725E+02  0.88723013215E+02  0.10000000000E+01 0.  0.
          4    1    1    2  501    0  0.12732909059E+02  0.16960080674E+02 -0.39392349875E+03  0.39449601655E+03  0.12700000000E+01 0.  1.
<mgrwt>
<rscale>  1 0.12678760E+03</rscale>
<asrwt>0</asrwt>
<pdfrwt beam="2">  1       21 0.76204702E-01 0.12678760E+03</pdfrwt>
<pdfrwt beam="1">  1        4 0.61577568E-02 0.12678760E+03</pdfrwt>
<totfact> 0.10722755E+04</totfact>
</mgrwt>
</event>
<event>
 6    4  0.6376098E-003  0.1268846E+03  0.7818608E-02  0.1232153E+00
          4   -1    0    0  502    0 -0.00000000000E+00  0.00000000000E+00  0.29943964077E+02  0.29970883948E+02  0.12700000000E+01 0. -1.
         21   -1    0    0  501  502  0.00000000000E+00 -0.00000000000E+00 -0.19322208447E+03  0.19322208447E+03  0.00000000000E+00 0. -1.
         25    2    1    2    0    0  0.21521919837E+02 -0.33662622751E+01 -0.15384909269E+03  0.19942230964E+03  0.12500075803E+03 0.  0.
    9000005    1    3    3    0    0  0.19184554556E+02 -0.55117126855E+02 -0.30992742117E+02  0.66087024976E+02  0.10000000000E+01 0.  0.
    9000005    1    3    3    0    0  0.23373652802E+01  0.51750864580E+02 -0.12285635057E+03  0.13333528467E+03  0.10000000000E+01 0.  0.
          4    1    1    2  501    0 -0.21521919837E+02  0.33662622751E+01 -0.94290277041E+01  0.23770658775E+02  0.12700000000E+01 0.  1.
<mgrwt>
<rscale>  1 0.12688465E+03</rscale>
<asrwt>0</asrwt>
<pdfrwt beam="2">  1       21 0.29726475E-01 0.12688465E+03</pdfrwt>
<pdfrwt beam="1">  1        4 0.46091554E-02 0.12688465E+03</pdfrwt>
<totfact> 0.11831907E+05</totfact>
</mgrwt>
</event>
<event>
 6    4  0.6376098E-003  0.1347505E+03  0.7818608E-02  0.1220572E+00
         21   -1    0    0  501  502  0.00000000000E+00  0.00000000000E+00  0.11780416493E+03  0.11780416493E+03  0.00000000000E+00 0. -1.
          4   -1    0    0  502    0 -0.00000000000E+00 -0.00000000000E+00 -0.74505701804E+02  0.74516525021E+02  0.12700000000E+01 0.  1.
         25    2    1    2    0    0  0.44405482121E+02  0.23686475825E+02  0.17904437163E+02  0.13593482795E+03  0.12499925040E+03 0.  0.
    9000005    1    3    3    0    0  0.25637127040E+02  0.18356856946E+02  0.71898514731E+02  0.78515176242E+02  0.10000000000E+01 0.  0.
    9000005    1    3    3    0    0  0.18768355080E+02  0.53296188786E+01 -0.53994077568E+02  0.57419651707E+02  0.10000000000E+01 0.  0.
          4    1    1    2  501    0 -0.44405482121E+02 -0.23686475825E+02  0.25394025968E+02  0.56385862007E+02  0.12700000000E+01 0. -1.
<mgrwt>
<rscale>  1 0.13475054E+03</rscale>
<asrwt>0</asrwt>
<pdfrwt beam="1">  1       21 0.18123718E-01 0.13475054E+03</pdfrwt>
<pdfrwt beam="2">  1        4 0.11463775E-01 0.13475054E+03</pdfrwt>
<totfact> 0.67360657E+04</totfact>
</mgrwt>
</event>
<event>
 6    4  0.6376098E-003  0.1271944E+03  0.7818608E-02  0.1231679E+00
         21   -1    0    0  501  502  0.00000000000E+00  0.00000000000E+00  0.21324653689E+03  0.21324653689E+03  0.00000000000E+00 0. -1.
         -4   -1    0    0    0  501 -0.00000000000E+00 -0.00000000000E+00 -0.80846600474E+02  0.80856574923E+02  0.12700000000E+01 0.  1.
         25    2    1    2    0    0 -0.11664072221E+02  0.20435548871E+02 -0.29439697749E+02  0.13055696443E+03  0.12499905167E+03 0.  0.
    9000005    1    3    3    0    0 -0.49400478855E+02  0.40964660514E+02 -0.51466447315E+02  0.82269714485E+02  0.10000000000E+01 0.  0.
    9000005    1    3    3    0    0  0.37736406634E+02 -0.20529111643E+02  0.22026749566E+02  0.48287249941E+02  0.10000000000E+01 0.  0.
         -4    1    1    2    0  502  0.11664072221E+02 -0.20435548871E+02  0.16183963416E+03  0.16354614739E+03  0.12700000000E+01 0. -1.
<mgrwt>
<rscale>  1 0.12719444E+03</rscale>
<asrwt>0</asrwt>
<pdfrwt beam="1">  1       21 0.32807159E-01 0.12719444E+03</pdfrwt>
<pdfrwt beam="2">  1       -4 0.12438997E-01 0.12719444E+03</pdfrwt>
<totfact> 0.18990707E+04</totfact>
</mgrwt>
</event>
<event>
 6    4  0.6376098E-003  0.1568868E+03  0.7818608E-02  0.1192257E+00
          4   -1    0    0  502    0 -0.00000000000E+00  0.00000000000E+00  0.10257963761E+03  0.10258749900E+03  0.12700000000E+01 0. -1.
         21   -1    0    0  501  502  0.00000000000E+00 -0.00000000000E+00 -0.33799314893E+03  0.33799314893E+03  0.00000000000E+00 0.  1.
         25    2    1    2    0    0  0.63017801108E+02 -0.70826834515E+02  0.29122739755E+02  0.15956690311E+03  0.12500311538E+03 0.  0.
    9000005    1    3    3    0    0  0.54998771596E+02 -0.10633678911E+03  0.28845185539E+02  0.12314796922E+03  0.10000000000E+01 0.  0.
    9000005    1    3    3    0    0  0.80190295121E+01  0.35509954591E+02  0.27755421636E+00  0.36418933890E+02  0.10000000000E+01 0.  0.
          4    1    1    2  501    0 -0.63017801108E+02  0.70826834515E+02 -0.26453625107E+03  0.28101374482E+03  0.12700000000E+01 0.  1.
<mgrwt>
<rscale>  1 0.15688678E+03</rscale>
<asrwt>0</asrwt>
<pdfrwt beam="2">  1       21 0.51998947E-01 0.15688678E+03</pdfrwt>
<pdfrwt beam="1">  1        4 0.15782271E-01 0.15688678E+03</pdfrwt>
<totfact> 0.50443764E+03</totfact>
</mgrwt>
</event>
<event>
 6    4  0.6376098E-003  0.1414430E+03  0.7818608E-02  0.1211400E+00
         21   -1    0    0  501  502  0.00000000000E+00  0.00000000000E+00  0.58966927273E+03  0.58966927273E+03  0.00000000000E+00 0. -1.
          4   -1    0    0  502    0 -0.00000000000E+00 -0.00000000000E+00 -0.37738745244E+02  0.37760108483E+02  0.12700000000E+01 0.  1.
         25    2    1    2    0    0  0.53325871492E+02  0.39210002039E+02  0.10636738247E+03  0.17697494187E+03  0.12500014866E+03 0.  0.
    9000005    1    3    3    0    0  0.86281981671E+02  0.41857348115E+02  0.10726321571E+03  0.14388542455E+03  0.10000000000E+01 0.  0.
    9000005    1    3    3    0    0 -0.32956110180E+02 -0.26473460760E+01 -0.89583323942E+00  0.33089517322E+02  0.10000000000E+01 0.  0.
          4    1    1    2  501    0 -0.53325871492E+02 -0.39210002039E+02  0.44556314501E+03  0.45045443934E+03  0.12700000000E+01 0. -1.
<mgrwt>
<rscale>  1 0.14144296E+03</rscale>
<asrwt>0</asrwt>
<pdfrwt beam="1">  1       21 0.90718343E-01 0.14144296E+03</pdfrwt>
<pdfrwt beam="2">  1        4 0.58077098E-02 0.14144296E+03</pdfrwt>
<totfact> 0.80161627E+03</totfact>
</mgrwt>
</event>
<event>
 6    4  0.6376098E-003  0.1287196E+03  0.7818608E-02  0.1229368E+00
         21   -1    0    0  501  502  0.00000000000E+00  0.00000000000E+00  0.16017827081E+03  0.16017827081E+03  0.00000000000E+00 0.  1.
         -4   -1    0    0    0  501 -0.00000000000E+00 -0.00000000000E+00 -0.42812451680E+02  0.42831284348E+02  0.12700000000E+01 0.  1.
         25    2    1    2    0    0  0.29663470331E+02  0.78710239093E+01  0.69906561282E+02  0.14647754171E+03  0.12500747347E+03 0.  0.
    9000005    1    3    3    0    0  0.22022256359E+02 -0.37537907330E+02 -0.18101465775E+02  0.47145915253E+02  0.10000000000E+01 0.  0.
    9000005    1    3    3    0    0  0.76412139720E+01  0.45408931239E+02  0.88008027057E+02  0.99331626453E+02  0.10000000000E+01 0.  0.
         -4    1    1    2    0  502 -0.29663470331E+02 -0.78710239093E+01  0.47459257849E+02  0.56532013453E+02  0.12700000000E+01 0. -1.
<mgrwt>
<rscale>  1 0.12871963E+03</rscale>
<asrwt>0</asrwt>
<pdfrwt beam="1">  1       21 0.24642811E-01 0.12871963E+03</pdfrwt>
<pdfrwt beam="2">  1       -4 0.65883670E-02 0.12871963E+03</pdfrwt>
<totfact> 0.95183235E+04</totfact>
</mgrwt>
</event>
<event>
 6    4  0.6376098E-003  0.2393654E+03  0.7818608E-02  0.1120216E+00
         21   -1    0    0  501  502  0.00000000000E+00  0.00000000000E+00  0.30026703366E+03  0.30026703366E+03  0.00000000000E+00 0. -1.
          4   -1    0    0  502    0 -0.00000000000E+00 -0.00000000000E+00 -0.17435268538E+03  0.17435731072E+03  0.12700000000E+01 0.  1.
         25    2    1    2    0    0 -0.14841095088E+02  0.20359553120E+03  0.93469628658E+01  0.23954783201E+03  0.12499759868E+03 0.  0.
    9000005    1    3    3    0    0 -0.19675055165E+02  0.21666769497E+03  0.24498811169E+02  0.21893649671E+03  0.10000000000E+01 0.  0.
    9000005    1    3    3    0    0  0.48339600770E+01 -0.13072163776E+02 -0.15151848303E+02  0.20611335299E+02  0.10000000000E+01 0.  0.
          4    1    1    2  501    0  0.14841095088E+02 -0.20359553120E+03  0.11656738541E+03  0.23507651237E+03  0.12700000000E+01 0. -1.
<mgrwt>
<rscale>  1 0.23936541E+03</rscale>
<asrwt>0</asrwt>
<pdfrwt beam="1">  1       21 0.46194928E-01 0.23936541E+03</pdfrwt>
<pdfrwt beam="2">  1        4 0.26824053E-01 0.23936541E+03</pdfrwt>
<totfact> 0.24885821E+03</totfact>
</mgrwt>
</event>
<event>
 6    4  0.6376098E-003  0.1271823E+03  0.7818608E-02  0.1231698E+00
         21   -1    0    0  501  502  0.00000000000E+00  0.00000000000E+00  0.11917832513E+02  0.11917832513E+02  0.00000000000E+00 0. -1.
          4   -1    0    0  502    0 -0.00000000000E+00 -0.00000000000E+00 -0.51044995584E+03  0.51045153572E+03  0.12700000000E+01 0. -1.
         25    2    1    2    0    0 -0.18941685908E+02 -0.13766973999E+02 -0.46003718078E+03  0.47729398093E+03  0.12500807774E+03 0.  0.
    9000005    1    3    3    0    0  0.12079889497E+02 -0.42966967651E+02 -0.58939118202E+02  0.73938512927E+02  0.10000000000E+01 0.  0.
    9000005    1    3    3    0    0 -0.31021575405E+02  0.29199993652E+02 -0.40109806258E+03  0.40335546801E+03  0.10000000000E+01 0.  0.
          4    1    1    2  501    0  0.18941685908E+02  0.13766973999E+02 -0.38494942548E+02  0.45075387296E+02  0.12700000000E+01 0.  1.
<mgrwt>
<rscale>  1 0.12718230E+03</rscale>
<asrwt>0</asrwt>
<pdfrwt beam="1">  1       21 0.18335126E-02 0.12718230E+03</pdfrwt>
<pdfrwt beam="2">  1        4 0.78536091E-01 0.12718230E+03</pdfrwt>
<totfact> 0.83610704E+04</totfact>
</mgrwt>
</event>
<event>
 6    4  0.6376098E-003  0.1321005E+03  0.7818608E-02  0.1224372E+00
         21   -1    0    0  501  502  0.00000000000E+00  0.00000000000E+00  0.39156926084E+03  0.39156926084E+03  0.00000000000E+00 0.  1.
         -4   -1    0    0    0  501 -0.00000000000E+00 -0.00000000000E+00 -0.22500293573E+02  0.22536106826E+02  0.12700000000E+01 0.  1.
         25    2    1    2    0    0  0.47509734657E+01  0.42461552945E+02  0.19979261058E+03  0.23951541074E+03  0.12499995804E+03 0.  0.
    9000005    1    3    3    0    0  0.11416462503E+02  0.86560837264E+02  0.12635080431E+03  0.15358593657E+03  0.10000000000E+01 0.  0.
    9000005    1    3    3    0    0 -0.66654890375E+01 -0.44099284319E+02  0.73441806274E+02  0.85929474165E+02  0.10000000000E+01 0.  0.
         -4    1    1    2    0  502 -0.47509734657E+01 -0.42461552945E+02  0.16927635668E+03  0.17458995693E+03  0.12700000000E+01 0. -1.
<mgrwt>
<rscale>  1 0.13210051E+03</rscale>
<asrwt>0</asrwt>
<pdfrwt beam="1">  1       21 0.60241420E-01 0.13210051E+03</pdfrwt>
<pdfrwt beam="2">  1       -4 0.34644972E-02 0.13210051E+03</pdfrwt>
<totfact> 0.44958688E+04</totfact>
</mgrwt>
</event>
<event>
 6    4  0.6376098E-003  0.1279574E+03  0.7818608E-02  0.1230518E+00
         21   -1    0    0  501  502  0.00000000000E+00  0.00000000000E+00  0.31410317830E+02  0.31410317830E+02  0.00000000000E+00 0. -1.
         -4   -1    0    0    0  501 -0.00000000000E+00 -0.00000000000E+00 -0.19219154263E+03  0.19219573866E+03  0.12700000000E+01 0. -1.
         25    2    1    2    0    0  0.11816934852E+02 -0.24730812917E+02 -0.13178393115E+03  0.18368477149E+03  0.12498735021E+03 0.  0.
    9000005    1    3    3    0    0 -0.42325150506E+02 -0.42263521621E+02 -0.29661802985E+02  0.66771597116E+02  0.10000000000E+01 0.  0.
    9000005    1    3    3    0    0  0.54142085358E+02  0.17532708704E+02 -0.10212212816E+03  0.11691317437E+03  0.10000000000E+01 0.  0.
         -4    1    1    2    0  502 -0.11816934852E+02  0.24730812917E+02 -0.28997293652E+02  0.39921284999E+02  0.12700000000E+01 0.  1.
<mgrwt>
<rscale>  1 0.12795738E+03</rscale>
<asrwt>0</asrwt>
<pdfrwt beam="1">  1       21 0.48323565E-02 0.12795738E+03</pdfrwt>
<pdfrwt beam="2">  1       -4 0.29570228E-01 0.12795738E+03</pdfrwt>
<totfact> 0.12391611E+05</totfact>
</mgrwt>
</event>
<event>
 6    4  0.6376098E-003  0.1518853E+03  0.7818608E-02  0.1198175E+00
         -4   -1    0    0    0  501 -0.00000000000E+00  0.00000000000E+00  0.11158692707E+04  0.11158699934E+04  0.12700000000E+01 0.  1.
         21   -1    0    0  501  502  0.00000000000E+00 -0.00000000000E+00 -0.27899965979E+02  0.27899965979E+02  0.00000000000E+00 0. -1.
         25    2    1    2    0    0 -0.13948352856E+02  0.85159096135E+02  0.10268359898E+04  0.10380083250E+04  0.12499001857E+03 0.  0.
    9000005    1    3    3    0    0 -0.12165505693E+02  0.11491137240E+02  0.12283977586E+02  0.20783211233E+02  0.10000000000E+01 0.  0.
    9000005    1    3    3    0    0 -0.17828471632E+01  0.73667958895E+02  0.10145520122E+04  0.10172251138E+04  0.10000000000E+01 0.  0.
         -4    1    1    2    0  502  0.13948352856E+02 -0.85159096135E+02  0.61133314911E+02  0.10576163432E+03  0.12700000000E+01 0. -1.
<mgrwt>
<rscale>  1 0.15188526E+03</rscale>
<asrwt>0</asrwt>
<pdfrwt beam="2">  1       21 0.42923033E-02 0.15188526E+03</pdfrwt>
<pdfrwt beam="1">  1       -4 0.17167444E+00 0.15188526E+03</pdfrwt>
<totfact> 0.32243780E+03</totfact>
</mgrwt>
</event>
<event>
 6    4  0.6376098E-003  0.1269751E+03  0.7818608E-02  0.1232014E+00
         -4   -1    0    0    0  501 -0.00000000000E+00  0.00000000000E+00  0.70908588446E+02  0.70919960628E+02  0.12700000000E+01 0.  1.
         21   -1    0    0  501  502  0.00000000000E+00 -0.00000000000E+00 -0.12913728079E+03  0.12913728079E+03  0.00000000000E+00 0. -1.
         25    2    1    2    0    0 -0.18110694779E+02 -0.12995292624E+02  0.10871413530E+02  0.12743966484E+03  0.12500322255E+03 0.  0.
    9000005    1    3    3    0    0 -0.46242068292E+02  0.41415632992E+02 -0.96542282552E+01  0.62831422546E+02  0.10000000000E+01 0.  0.
    9000005    1    3    3    0    0  0.28131373512E+02 -0.54410925616E+02  0.20525641785E+02  0.64608242297E+02  0.10000000000E+01 0.  0.
         -4    1    1    2    0  502  0.18110694779E+02  0.12995292624E+02 -0.69100105869E+02  0.72617576570E+02  0.12700000000E+01 0. -1.
<mgrwt>
<rscale>  1 0.12697512E+03</rscale>
<asrwt>0</asrwt>
<pdfrwt beam="2">  1       21 0.19867274E-01 0.12697512E+03</pdfrwt>
<pdfrwt beam="1">  1       -4 0.10910369E-01 0.12697512E+03</pdfrwt>
<totfact> 0.61411949E+04</totfact>
</mgrwt>
</event>
<event>
 6    4  0.6376098E-003  0.1342562E+03  0.7818608E-02  0.1221273E+00
         -4   -1    0    0    0  501 -0.00000000000E+00  0.00000000000E+00  0.94421908771E+01  0.95272172516E+01  0.12700000000E+01 0.  1.
         21   -1    0    0  501  502  0.00000000000E+00 -0.00000000000E+00 -0.26468617306E+04  0.26468617306E+04  0.00000000000E+00 0. -1.
         25    2    1    2    0    0 -0.48911102747E+02  0.27740323635E+01 -0.48025509178E+03  0.49866791408E+03  0.12499897648E+03 0.  0.
    9000005    1    3    3    0    0 -0.52952173675E+02  0.77119494601E+01 -0.48664697992E+03  0.48958113723E+03  0.10000000000E+01 0.  0.
    9000005    1    3    3    0    0  0.40410709278E+01 -0.49379170966E+01  0.63918881417E+01  0.90867768495E+01  0.10000000000E+01 0.  0.
         -4    1    1    2    0  502  0.48911102747E+02 -0.27740323635E+01 -0.21571644480E+04  0.21577210338E+04  0.12700000000E+01 0. -1.
<mgrwt>
<rscale>  1 0.13425623E+03</rscale>
<asrwt>0</asrwt>
<pdfrwt beam="2">  1       21 0.40720962E+00 0.13425623E+03</pdfrwt>
<pdfrwt beam="1">  1       -4 0.14592082E-02 0.13425623E+03</pdfrwt>
<totfact> 0.57706484E+02</totfact>
</mgrwt>
</event>
<event>
 6    4  0.6376098E-003  0.1303571E+03  0.7818608E-02  0.1226927E+00
         21   -1    0    0  501  502  0.00000000000E+00  0.00000000000E+00  0.22953708184E+03  0.22953708184E+03  0.00000000000E+00 0.  1.
          4   -1    0    0  502    0 -0.00000000000E+00 -0.00000000000E+00 -0.30742842890E+02  0.30769063830E+02  0.12700000000E+01 0.  1.
         25    2    1    2    0    0  0.27255889499E+02  0.25020546574E+02  0.16404094438E+03  0.20952902831E+03  0.12499628399E+03 0.  0.
    9000005    1    3    3    0    0  0.45681088476E+02 -0.16843469654E+02  0.15555369324E+03  0.16299820795E+03  0.10000000000E+01 0.  0.
    9000005    1    3    3    0    0 -0.18425198977E+02  0.41864016228E+02  0.84872511383E+01  0.46530820367E+02  0.10000000000E+01 0.  0.
          4    1    1    2  501    0 -0.27255889499E+02 -0.25020546574E+02  0.34753294577E+02  0.50777117358E+02  0.12700000000E+01 0. -1.
<mgrwt>
<rscale>  1 0.13035713E+03</rscale>
<asrwt>0</asrwt>
<pdfrwt beam="1">  1       21 0.35313396E-01 0.13035713E+03</pdfrwt>
<pdfrwt beam="2">  1        4 0.47319555E-02 0.13035713E+03</pdfrwt>
<totfact> 0.81424375E+04</totfact>
</mgrwt>
</event>
<event>
 6    4  0.6376098E-003  0.1332398E+03  0.7818608E-02  0.1222726E+00
         -4   -1    0    0    0  501 -0.00000000000E+00  0.00000000000E+00  0.72365376214E+02  0.72376519498E+02  0.12700000000E+01 0.  1.
         21   -1    0    0  501  502  0.00000000000E+00 -0.00000000000E+00 -0.30861568770E+03  0.30861568770E+03  0.00000000000E+00 0. -1.
         25    2    1    2    0    0 -0.41778050617E+02  0.19656545537E+02  0.69728886461E+01  0.13342217008E+03  0.12498427500E+03 0.  0.
    9000005    1    3    3    0    0 -0.32261274177E+01  0.28634362383E+02 -0.53712121423E+02  0.60961681366E+02  0.10000000000E+01 0.  0.
    9000005    1    3    3    0    0 -0.38551923200E+02 -0.89778168466E+01  0.60685010069E+02  0.72460488715E+02  0.10000000000E+01 0.  0.
         -4    1    1    2    0  502  0.41778050617E+02 -0.19656545537E+02 -0.24322320013E+03  0.24757003711E+03  0.12700000000E+01 0. -1.
<mgrwt>
<rscale>  1 0.13323984E+03</rscale>
<asrwt>0</asrwt>
<pdfrwt beam="2">  1       21 0.47479336E-01 0.13323984E+03</pdfrwt>
<pdfrwt beam="1">  1       -4 0.11134193E-01 0.13323984E+03</pdfrwt>
<totfact> 0.11011479E+04</totfact>
</mgrwt>
</event>
<event>
 6    4  0.6376098E-003  0.1281406E+03  0.7818608E-02  0.1230241E+00
         21   -1    0    0  501  502  0.00000000000E+00  0.00000000000E+00  0.18598668935E+03  0.18598668935E+03  0.00000000000E+00 0.  1.
         -4   -1    0    0    0  501 -0.00000000000E+00 -0.00000000000E+00 -0.47125579477E+03  0.47125750604E+03  0.12700000000E+01 0. -1.
         25    2    1    2    0    0  0.12214754061E+02  0.25400626468E+02 -0.46140241470E+03  0.47886553192E+03  0.12500246931E+03 0.  0.
    9000005    1    3    3    0    0  0.45861685856E+01  0.94802301121E+00 -0.45127919972E+03  0.45130460644E+03  0.10000000000E+01 0.  0.
    9000005    1    3    3    0    0  0.76285854759E+01  0.24452603457E+02 -0.10123214974E+02  0.27560925485E+02  0.10000000000E+01 0.  0.
         -4    1    1    2    0  502 -0.12214754061E+02 -0.25400626468E+02  0.17613330928E+03  0.17837866347E+03  0.12700000000E+01 0.  1.
<mgrwt>
<rscale>  1 0.12814058E+03</rscale>
<asrwt>0</asrwt>
<pdfrwt beam="1">  1       21 0.28613337E-01 0.12814058E+03</pdfrwt>
<pdfrwt beam="2">  1       -4 0.72501356E-01 0.12814058E+03</pdfrwt>
<totfact> 0.86074512E+02</totfact>
</mgrwt>
</event>
<event>
 6    4  0.6376098E-003  0.1418549E+03  0.7818608E-02  0.1210855E+00
          4   -1    0    0  502    0 -0.00000000000E+00  0.00000000000E+00  0.52902406895E+03  0.52902559336E+03  0.12700000000E+01 0. -1.
         21   -1    0    0  501  502  0.00000000000E+00 -0.00000000000E+00 -0.36052040597E+02  0.36052040597E+02  0.00000000000E+00 0.  1.
         25    2    1    2    0    0 -0.22173039026E+02 -0.63294446011E+02  0.47486295693E+03  0.49559827066E+03  0.12499994987E+03 0.  0.
    9000005    1    3    3    0    0  0.38324148065E+02 -0.27899467706E+02  0.68963490384E+02  0.83690403447E+02  0.10000000000E+01 0.  0.
    9000005    1    3    3    0    0 -0.60497187091E+02 -0.35394978305E+02  0.40589946654E+03  0.41190786722E+03  0.10000000000E+01 0.  0.
          4    1    1    2  501    0  0.22173039026E+02  0.63294446011E+02  0.18109071427E+02  0.69479363292E+02  0.12700000000E+01 0.  1.
<mgrwt>
<rscale>  1 0.14185492E+03</rscale>
<asrwt>0</asrwt>
<pdfrwt beam="2">  1       21 0.55464682E-02 0.14185492E+03</pdfrwt>
<pdfrwt beam="1">  1        4 0.81390150E-01 0.14185492E+03</pdfrwt>
<totfact> 0.12639977E+04</totfact>
</mgrwt>
</event>
<event>
 6    4  0.6376098E-003  0.1270097E+03  0.7818608E-02  0.1231961E+00
         21   -1    0    0  501  502  0.00000000000E+00  0.00000000000E+00  0.12759225303E+04  0.12759225303E+04  0.00000000000E+00 0. -1.
         -4   -1    0    0    0  501 -0.00000000000E+00 -0.00000000000E+00 -0.54403430741E+01  0.55866119217E+01  0.12700000000E+01 0. -1.
         25    2    1    2    0    0 -0.18761698865E+02  0.12414755412E+02  0.76077544562E+03  0.77130457262E+03  0.12500135040E+03 0.  0.
    9000005    1    3    3    0    0 -0.60232975831E+02 -0.65894736248E+01  0.20797541015E+03  0.21662456870E+03  0.10000000000E+01 0.  0.
    9000005    1    3    3    0    0  0.41471276965E+02  0.19004229037E+02  0.55280003547E+03  0.55468000392E+03  0.10000000000E+01 0.  0.
         -4    1    1    2    0  502  0.18761698865E+02 -0.12414755412E+02  0.50970674161E+03  0.51020456960E+03  0.12700000000E+01 0.  1.
<mgrwt>
<rscale>  1 0.12700970E+03</rscale>
<asrwt>0</asrwt>
<pdfrwt beam="1">  1       21 0.19629554E+00 0.12700970E+03</pdfrwt>
<pdfrwt beam="2">  1       -4 0.84827694E-03 0.12700970E+03</pdfrwt>
<totfact> 0.22271353E+04</totfact>
</mgrwt>
</event>
<event>
 6    4  0.6376098E-003  0.1267996E+03  0.7818608E-02  0.1232283E+00
         21   -1    0    0  501  502  0.00000000000E+00  0.00000000000E+00  0.66259292176E+02  0.66259292176E+02  0.00000000000E+00 0. -1.
         -4   -1    0    0    0  501 -0.00000000000E+00 -0.00000000000E+00 -0.93109212680E+02  0.93117873611E+02  0.12700000000E+01 0. -1.
         25    2    1    2    0    0 -0.16287681169E+02 -0.13727279601E+02 -0.41585777446E+02  0.13344484728E+03  0.12499769445E+03 0.  0.
    9000005    1    3    3    0    0 -0.45212478801E+02 -0.13462486613E+02  0.30215016760E+02  0.56029938630E+02  0.10000000000E+01 0.  0.
    9000005    1    3    3    0    0  0.28924797632E+02 -0.26479298811E+00 -0.71800794206E+02  0.77414908654E+02  0.10000000000E+01 0.  0.
         -4    1    1    2    0  502  0.16287681169E+02  0.13727279601E+02  0.14735856942E+02  0.25932318503E+02  0.12700000000E+01 0.  1.
<mgrwt>
<rscale>  1 0.12679965E+03</rscale>
<asrwt>0</asrwt>
<pdfrwt beam="1">  1       21 0.10193737E-01 0.12679965E+03</pdfrwt>
<pdfrwt beam="2">  1       -4 0.14326097E-01 0.12679965E+03</pdfrwt>
<totfact> 0.12757149E+05</totfact>
</mgrwt>
</event>
<event>
 6    4  0.6376098E-003  0.1360711E+03  0.7818608E-02  0.1218716E+00
         21   -1    0    0  501  502  0.00000000000E+00  0.00000000000E+00  0.70161585159E+02  0.70161585159E+02  0.00000000000E+00 0.  1.
         -4   -1    0    0    0  501 -0.00000000000E+00 -0.00000000000E+00 -0.12849349603E+03  0.12849977207E+03  0.12700000000E+01 0.  1.
         25    2    1    2    0    0  0.36875388541E+02  0.39125381229E+02 -0.43940553550E+02  0.14298987618E+03  0.12499897083E+03 0.  0.
    9000005    1    3    3    0    0 -0.34579366189E+02 -0.21481493113E+02 -0.32994145334E+01  0.40854292904E+02  0.10000000000E+01 0.  0.
    9000005    1    3    3    0    0  0.71454754731E+02  0.60606874342E+02 -0.40641139016E+02  0.10213558328E+03  0.10000000000E+01 0.  0.
         -4    1    1    2    0  502 -0.36875388541E+02 -0.39125381229E+02 -0.14391357323E+02  0.55671481047E+02  0.12700000000E+01 0. -1.
<mgrwt>
<rscale>  1 0.13607106E+03</rscale>
<asrwt>0</asrwt>
<pdfrwt beam="1">  1       21 0.10794090E-01 0.13607106E+03</pdfrwt>
<pdfrwt beam="2">  1       -4 0.19769597E-01 0.13607106E+03</pdfrwt>
<totfact> 0.65981599E+04</totfact>
</mgrwt>
</event>
<event>
 6    4  0.6376098E-003  0.1331499E+03  0.7818608E-02  0.1222855E+00
         -4   -1    0    0    0  501 -0.00000000000E+00  0.00000000000E+00  0.58492501836E+03  0.58492639708E+03  0.12700000000E+01 0. -1.
         21   -1    0    0  501  502  0.00000000000E+00 -0.00000000000E+00 -0.15034973918E+02  0.15034973918E+02  0.00000000000E+00 0. -1.
         25    2    1    2    0    0  0.43349600295E+02  0.14790973556E+02  0.49096118457E+03  0.50869616095E+03  0.12502375242E+03 0.  0.
    9000005    1    3    3    0    0  0.36787298750E+02  0.25105387290E+02  0.49404432005E+03  0.49604876373E+03  0.10000000000E+01 0.  0.
    9000005    1    3    3    0    0  0.65623015442E+01 -0.10314413734E+02 -0.30831354792E+01  0.12647397227E+02  0.10000000000E+01 0.  0.
         -4    1    1    2    0  502 -0.43349600295E+02 -0.14790973556E+02  0.78928859870E+02  0.91265210046E+02  0.12700000000E+01 0.  1.
<mgrwt>
<rscale>  1 0.13314991E+03</rscale>
<asrwt>0</asrwt>
<pdfrwt beam="2">  1       21 0.23130734E-02 0.13314991E+03</pdfrwt>
<pdfrwt beam="1">  1       -4 0.89992679E-01 0.13314991E+03</pdfrwt>
<totfact> 0.42675241E+04</totfact>
</mgrwt>
</event>
<event>
 6    4  0.6376098E-003  0.1297601E+03  0.7818608E-02  0.1227812E+00
         -4   -1    0    0    0  501 -0.00000000000E+00  0.00000000000E+00  0.70005553107E+02  0.70017071960E+02  0.12700000000E+01 0.  1.
         21   -1    0    0  501  502  0.00000000000E+00 -0.00000000000E+00 -0.19616360359E+03  0.19616360359E+03  0.00000000000E+00 0. -1.
         25    2    1    2    0    0 -0.12643666178E+02  0.32452180644E+02  0.56102789696E+01  0.12988132900E+03  0.12499871227E+03 0.  0.
    9000005    1    3    3    0    0 -0.30912466659E+02 -0.42517305095E+02  0.32003787011E+01  0.52673942811E+02  0.10000000000E+01 0.  0.
    9000005    1    3    3    0    0  0.18268800481E+02  0.74969485739E+02  0.24099002685E+01  0.77207386190E+02  0.10000000000E+01 0.  0.
         -4    1    1    2    0  502  0.12643666178E+02 -0.32452180644E+02 -0.13176832946E+03  0.13629934655E+03  0.12700000000E+01 0. -1.
<mgrwt>
<rscale>  1 0.12976010E+03</rscale>
<asrwt>0</asrwt>
<pdfrwt beam="2">  1       21 0.30179015E-01 0.12976010E+03</pdfrwt>
<pdfrwt beam="1">  1       -4 0.10771288E-01 0.12976010E+03</pdfrwt>
<totfact> 0.28590944E+04</totfact>
</mgrwt>
</event>
<event>
 6    4  0.6376098E-003  0.1277241E+03  0.7818608E-02  0.1230872E+00
         -4   -1    0    0    0  501 -0.00000000000E+00  0.00000000000E+00  0.37642564527E+02  0.37663982320E+02  0.12700000000E+01 0. -1.
         21   -1    0    0  501  502  0.00000000000E+00 -0.00000000000E+00 -0.44867163058E+03  0.44867163058E+03  0.00000000000E+00 0.  1.
         25    2    1    2    0    0 -0.80299016018E+01  0.24821496546E+02 -0.72630873138E+02  0.14693093427E+03  0.12503147484E+03 0.  0.
    9000005    1    3    3    0    0  0.45694857915E+02  0.45211835109E+02 -0.60314949806E+02  0.88153407443E+02  0.10000000000E+01 0.  0.
    9000005    1    3    3    0    0 -0.53724759516E+02 -0.20390338564E+02 -0.12315923332E+02  0.58777526822E+02  0.10000000000E+01 0.  0.
         -4    1    1    2    0  502  0.80299016018E+01 -0.24821496546E+02 -0.33839819292E+03  0.33940467863E+03  0.12700000000E+01 0.  1.
<mgrwt>
<rscale>  1 0.12772414E+03</rscale>
<asrwt>0</asrwt>
<pdfrwt beam="2">  1       21 0.69026404E-01 0.12772414E+03</pdfrwt>
<pdfrwt beam="1">  1       -4 0.57929496E-02 0.12772414E+03</pdfrwt>
<totfact> 0.14717020E+04</totfact>
</mgrwt>
</event>
<event>
 6    4  0.6376098E-003  0.1268698E+03  0.7818608E-02  0.1232176E+00
         -4   -1    0    0    0  501 -0.00000000000E+00  0.00000000000E+00  0.67869773073E+01  0.69047781260E+01  0.12700000000E+01 0. -1.
         21   -1    0    0  501  502  0.00000000000E+00 -0.00000000000E+00 -0.84629573597E+03  0.84629573597E+03  0.00000000000E+00 0. -1.
         25    2    1    2    0    0 -0.12181701565E+02  0.17973758026E+02 -0.63583996571E+03  0.64837366050E+03  0.12499796721E+03 0.  0.
    9000005    1    3    3    0    0 -0.93225567901E+01  0.68794352176E+02 -0.46349567556E+03  0.46866706116E+03  0.10000000000E+01 0.  0.
    9000005    1    3    3    0    0 -0.28591447744E+01 -0.50820594150E+02 -0.17234429015E+03  0.17970659934E+03  0.10000000000E+01 0.  0.
         -4    1    1    2    0  502  0.12181701565E+02 -0.17973758026E+02 -0.20366879296E+03  0.20482685360E+03  0.12700000000E+01 0.  1.
<mgrwt>
<rscale>  1 0.12686978E+03</rscale>
<asrwt>0</asrwt>
<pdfrwt beam="2">  1       21 0.13019935E+00 0.12686978E+03</pdfrwt>
<pdfrwt beam="1">  1       -4 0.10532852E-02 0.12686978E+03</pdfrwt>
<totfact> 0.47869826E+04</totfact>
</mgrwt>
</event>
<event>
 6    4  0.6376098E-003  0.1305064E+03  0.7818608E-02  0.1226706E+00
         21   -1    0    0  501  502  0.00000000000E+00  0.00000000000E+00  0.21625801584E+03  0.21625801584E+03  0.00000000000E+00 0. -1.
          4   -1    0    0  502    0 -0.00000000000E+00 -0.00000000000E+00 -0.53783261297E+02  0.53798253650E+02  0.12700000000E+01 0.  1.
         25    2    1    2    0    0 -0.37487800303E+02 -0.17411232664E+01  0.32119808487E+02  0.13440085477E+03  0.12499416380E+03 0.  0.
    9000005    1    3    3    0    0  0.39895319571E+02 -0.23407831104E+02  0.27677145886E+02  0.53912776640E+02  0.10000000000E+01 0.  0.
    9000005    1    3    3    0    0 -0.77383119874E+02  0.21666707838E+02  0.44426626013E+01  0.80488078129E+02  0.10000000000E+01 0.  0.
          4    1    1    2  501    0  0.37487800303E+02  0.17411232664E+01  0.13035494605E+03  0.13565541472E+03  0.12700000000E+01 0. -1.
<mgrwt>
<rscale>  1 0.13050635E+03</rscale>
<asrwt>0</asrwt>
<pdfrwt beam="1">  1       21 0.33270464E-01 0.13050635E+03</pdfrwt>
<pdfrwt beam="2">  1        4 0.82757881E-02 0.13050635E+03</pdfrwt>
<totfact> 0.36820826E+04</totfact>
</mgrwt>
</event>
<event>
 6    4  0.6376098E-003  0.1281294E+03  0.7818608E-02  0.1230258E+00
         -4   -1    0    0    0  501 -0.00000000000E+00  0.00000000000E+00  0.64607894306E+02  0.64620375321E+02  0.12700000000E+01 0.  1.
         21   -1    0    0  501  502  0.00000000000E+00 -0.00000000000E+00 -0.11445244910E+03  0.11445244910E+03  0.00000000000E+00 0.  1.
         25    2    1    2    0    0 -0.27976407742E+02  0.30760906321E+01 -0.76768557812E+01  0.12835922207E+03  0.12500005620E+03 0.  0.
    9000005    1    3    3    0    0 -0.76236011290E+02  0.15578344393E+02 -0.99109925277E+01  0.78446427607E+02  0.10000000000E+01 0.  0.
    9000005    1    3    3    0    0  0.48259603548E+02 -0.12502253761E+02  0.22341367465E+01  0.49912794459E+02  0.10000000000E+01 0.  0.
         -4    1    1    2    0  502  0.27976407742E+02 -0.30760906321E+01 -0.42167699013E+02  0.50713602355E+02  0.12700000000E+01 0. -1.
<mgrwt>
<rscale>  1 0.12812945E+03</rscale>
<asrwt>0</asrwt>
<pdfrwt beam="2">  1       21 0.17608069E-01 0.12812945E+03</pdfrwt>
<pdfrwt beam="1">  1       -4 0.99411783E-02 0.12812945E+03</pdfrwt>
<totfact> 0.89797681E+04</totfact>
</mgrwt>
</event>
<event>
 6    4  0.6376098E-003  0.1265928E+03  0.7818608E-02  0.1232601E+00
         21   -1    0    0  501  502  0.00000000000E+00  0.00000000000E+00  0.76442973936E+03  0.76442973936E+03  0.00000000000E+00 0. -1.
         -4   -1    0    0    0  501 -0.00000000000E+00 -0.00000000000E+00 -0.69889117784E+01  0.71033645441E+01  0.12700000000E+01 0. -1.
         25    2    1    2    0    0  0.20037193723E+02  0.29270806266E+00  0.64277701276E+03  0.65512443524E+03  0.12499665079E+03 0.  0.
    9000005    1    3    3    0    0 -0.38755903032E+02 -0.25417099370E+01  0.48776863665E+03  0.48931352241E+03  0.10000000000E+01 0.  0.
    9000005    1    3    3    0    0  0.58793096754E+02  0.28344179996E+01  0.15500837611E+03  0.16581091283E+03  0.10000000000E+01 0.  0.
         -4    1    1    2    0  502 -0.20037193723E+02 -0.29270806266E+00  0.11466381483E+03  0.11640866867E+03  0.12700000000E+01 0.  1.
<mgrwt>
<rscale>  1 0.12659280E+03</rscale>
<asrwt>0</asrwt>
<pdfrwt beam="1">  1       21 0.11760451E+00 0.12659280E+03</pdfrwt>
<pdfrwt beam="2">  1       -4 0.10841030E-02 0.12659280E+03</pdfrwt>
<totfact> 0.58849827E+04</totfact>
</mgrwt>
</event>
<event>
 6    4  0.6376098E-003  0.1275564E+03  0.7818608E-02  0.1231127E+00
         21   -1    0    0  501  502  0.00000000000E+00  0.00000000000E+00  0.50394253500E+02  0.50394253500E+02  0.00000000000E+00 0.  1.
         -4   -1    0    0    0  501 -0.00000000000E+00 -0.00000000000E+00 -0.15128972359E+03  0.15129505400E+03  0.12700000000E+01 0.  1.
         25    2    1    2    0    0 -0.20151622896E+02  0.15453024909E+02 -0.11574639958E+03  0.17224364753E+03  0.12500304481E+03 0.  0.
    9000005    1    3    3    0    0  0.28466094384E+01 -0.10583193727E+02 -0.13299201242E+03  0.13344655313E+03  0.10000000000E+01 0.  0.
    9000005    1    3    3    0    0 -0.22998232334E+02  0.26036218635E+02  0.17245612838E+02  0.38797094395E+02  0.10000000000E+01 0.  0.
         -4    1    1    2    0  502  0.20151622896E+02 -0.15453024909E+02  0.14850929494E+02  0.29445659969E+02  0.12700000000E+01 0. -1.
<mgrwt>
<rscale>  1 0.12755644E+03</rscale>
<asrwt>0</asrwt>
<pdfrwt beam="1">  1       21 0.77529621E-02 0.12755644E+03</pdfrwt>
<pdfrwt beam="2">  1       -4 0.23276983E-01 0.12755644E+03</pdfrwt>
<totfact> 0.86538663E+04</totfact>
</mgrwt>
</event>
<event>
 6    4  0.6376098E-003  0.1270841E+03  0.7818608E-02  0.1231848E+00
         21   -1    0    0  501  502  0.00000000000E+00  0.00000000000E+00  0.66241730899E+01  0.66241730899E+01  0.00000000000E+00 0. -1.
         -4   -1    0    0    0  501 -0.00000000000E+00 -0.00000000000E+00 -0.11959833145E+04  0.11959839888E+04  0.12700000000E+01 0. -1.
         25    2    1    2    0    0  0.22627991500E+02 -0.21550449242E+01 -0.11510557642E+04  0.11580499772E+04  0.12503482373E+03 0.  0.
    9000005    1    3    3    0    0 -0.48981996501E+02 -0.20572643886E+02 -0.48294181429E+03  0.48585621911E+03  0.10000000000E+01 0.  0.
    9000005    1    3    3    0    0  0.71609988002E+02  0.18417598962E+02 -0.66811394990E+03  0.67219375807E+03  0.10000000000E+01 0.  0.
         -4    1    1    2    0  502 -0.22627991500E+02  0.21550449242E+01 -0.38303377189E+02  0.44558184681E+02  0.12700000000E+01 0.  1.
<mgrwt>
<rscale>  1 0.12708413E+03</rscale>
<asrwt>0</asrwt>
<pdfrwt beam="1">  1       21 0.10191041E-02 0.12708413E+03</pdfrwt>
<pdfrwt beam="2">  1       -4 0.18400674E+00 0.12708413E+03</pdfrwt>
<totfact> 0.27087820E+04</totfact>
</mgrwt>
</event>
<event>
 6    4  0.6376098E-003  0.1298246E+03  0.7818608E-02  0.1227716E+00
         21   -1    0    0  501  502  0.00000000000E+00  0.00000000000E+00  0.26836611664E+02  0.26836611664E+02  0.00000000000E+00 0. -1.
         -4   -1    0    0    0  501 -0.00000000000E+00 -0.00000000000E+00 -0.25346759768E+03  0.25347077933E+03  0.12700000000E+01 0. -1.
         25    2    1    2    0    0  0.14588201018E+02  0.31894061068E+02 -0.18079870106E+03  0.22258167762E+03  0.12499754464E+03 0.  0.
    9000005    1    3    3    0    0 -0.34333098533E+02  0.13323823513E+02 -0.16328897487E+03  0.16739347432E+03  0.10000000000E+01 0.  0.
    9000005    1    3    3    0    0  0.48921299551E+02  0.18570237555E+02 -0.17509726186E+02  0.55188203302E+02  0.10000000000E+01 0.  0.
         -4    1    1    2    0  502 -0.14588201018E+02 -0.31894061068E+02 -0.45832284957E+02  0.57725713376E+02  0.12700000000E+01 0.  1.
<mgrwt>
<rscale>  1 0.12982462E+03</rscale>
<asrwt>0</asrwt>
<pdfrwt beam="1">  1       21 0.41287094E-02 0.12982462E+03</pdfrwt>
<pdfrwt beam="2">  1       -4 0.38997572E-01 0.12982462E+03</pdfrwt>
<totfact> 0.94938093E+04</totfact>
</mgrwt>
</event>
<event>
 6    4  0.6376098E-003  0.1292277E+03  0.7818608E-02  0.1228606E+00
         -4   -1    0    0    0  501 -0.00000000000E+00  0.00000000000E+00  0.82668200478E+02  0.82677955165E+02  0.12700000000E+01 0. -1.
         21   -1    0    0  501  502  0.00000000000E+00 -0.00000000000E+00 -0.82789863236E+02  0.82789863236E+02  0.00000000000E+00 0. -1.
         25    2    1    2    0    0  0.30719869442E+02 -0.11556362796E+02  0.13455048676E+02  0.12992629490E+03  0.12499017510E+03 0.  0.
    9000005    1    3    3    0    0  0.61127042508E+02  0.37227166949E+02  0.10642991436E+02  0.72364705150E+02  0.10000000000E+01 0.  0.
    9000005    1    3    3    0    0 -0.30407173066E+02 -0.48783529745E+02  0.28120572404E+01  0.57561589746E+02  0.10000000000E+01 0.  0.
         -4    1    1    2    0  502 -0.30719869442E+02  0.11556362796E+02 -0.13576711435E+02  0.35541523504E+02  0.12700000000E+01 0.  1.
<mgrwt>
<rscale>  1 0.12922772E+03</rscale>
<asrwt>0</asrwt>
<pdfrwt beam="2">  1       21 0.12736902E-01 0.12922772E+03</pdfrwt>
<pdfrwt beam="1">  1       -4 0.12719684E-01 0.12922772E+03</pdfrwt>
<totfact> 0.10603078E+05</totfact>
</mgrwt>
</event>
<event>
 6    4  0.6376098E-003  0.1414741E+03  0.7818608E-02  0.1211359E+00
         21   -1    0    0  501  502  0.00000000000E+00  0.00000000000E+00  0.31664215046E+02  0.31664215046E+02  0.00000000000E+00 0.  1.
          4   -1    0    0  502    0 -0.00000000000E+00 -0.00000000000E+00 -0.34289282901E+03  0.34289518090E+03  0.12700000000E+01 0.  1.
         25    2    1    2    0    0 -0.34624870155E+02  0.56490060757E+02 -0.19771533749E+03  0.24311782934E+03  0.12499966266E+03 0.  0.
    9000005    1    3    3    0    0 -0.72484340520E+02  0.47303803373E+02 -0.18115777537E+03  0.20077541934E+03  0.10000000000E+01 0.  0.
    9000005    1    3    3    0    0  0.37859470365E+02  0.91862573847E+01 -0.16557562121E+02  0.42342409998E+02  0.10000000000E+01 0.  0.
          4    1    1    2  501    0  0.34624870155E+02 -0.56490060757E+02 -0.11351327647E+03  0.13144156661E+03  0.12700000000E+01 0. -1.
<mgrwt>
<rscale>  1 0.14147411E+03</rscale>
<asrwt>0</asrwt>
<pdfrwt beam="1">  1       21 0.48714176E-02 0.14147411E+03</pdfrwt>
<pdfrwt beam="2">  1        4 0.52754884E-01 0.14147411E+03</pdfrwt>
<totfact> 0.39706481E+04</totfact>
</mgrwt>
</event>
<event>
 6    4  0.6376098E-003  0.1278294E+03  0.7818608E-02  0.1230713E+00
         21   -1    0    0  501  502  0.00000000000E+00  0.00000000000E+00  0.68821635177E+02  0.68821635177E+02  0.00000000000E+00 0. -1.
          4   -1    0    0  502    0 -0.00000000000E+00 -0.00000000000E+00 -0.12974989403E+03  0.12975610930E+03  0.12700000000E+01 0. -1.
         25    2    1    2    0    0 -0.26756427076E+02  0.23757128858E+00 -0.92043983383E+02  0.15751968750E+03  0.12499757694E+03 0.  0.
    9000005    1    3    3    0    0 -0.66221299953E+01  0.46164371313E+02  0.63515970244E+01  0.47078068877E+02  0.10000000000E+01 0.  0.
    9000005    1    3    3    0    0 -0.20134297081E+02 -0.45926800024E+02 -0.98395580407E+02  0.11044161862E+03  0.10000000000E+01 0.  0.
          4    1    1    2  501    0  0.26756427076E+02 -0.23757128858E+00  0.31115724530E+02  0.41058056981E+02  0.12700000000E+01 0.  1.
<mgrwt>
<rscale>  1 0.12782941E+03</rscale>
<asrwt>0</asrwt>
<pdfrwt beam="1">  1       21 0.10587944E-01 0.12782941E+03</pdfrwt>
<pdfrwt beam="2">  1        4 0.19962901E-01 0.12782941E+03</pdfrwt>
<totfact> 0.66531872E+04</totfact>
</mgrwt>
</event>
<event>
 6    4  0.6376098E-003  0.1289402E+03  0.7818608E-02  0.1229037E+00
         21   -1    0    0  501  502  0.00000000000E+00  0.00000000000E+00  0.37169779105E+02  0.37169779105E+02  0.00000000000E+00 0.  1.
         -4   -1    0    0    0  501 -0.00000000000E+00 -0.00000000000E+00 -0.20564140599E+03  0.20564532758E+03  0.12700000000E+01 0. -1.
         25    2    1    2    0    0 -0.10429475453E+01  0.31613864360E+02 -0.16718654148E+03  0.21113248521E+03  0.12500024999E+03 0.  0.
    9000005    1    3    3    0    0  0.56065963680E+02  0.21129182646E+02 -0.42133372731E+02  0.73253366751E+02  0.10000000000E+01 0.  0.
    9000005    1    3    3    0    0 -0.57108911226E+02  0.10484681714E+02 -0.12505316875E+03  0.13787911846E+03  0.10000000000E+01 0.  0.
         -4    1    1    2    0  502  0.10429475453E+01 -0.31613864360E+02 -0.12850854015E+01  0.31682621480E+02  0.12700000000E+01 0.  1.
<mgrwt>
<rscale>  1 0.12894024E+03</rscale>
<asrwt>0</asrwt>
<pdfrwt beam="1">  1       21 0.57184273E-02 0.12894024E+03</pdfrwt>
<pdfrwt beam="2">  1       -4 0.31639111E-01 0.12894024E+03</pdfrwt>
<totfact> 0.82210927E+04</totfact>
</mgrwt>
</event>
<event>
 6    4  0.6376098E-003  0.1295715E+03  0.7818608E-02  0.1228093E+00
         -4   -1    0    0    0  501 -0.00000000000E+00  0.00000000000E+00  0.13852149913E+03  0.13852732085E+03  0.12700000000E+01 0. -1.
         21   -1    0    0  501  502  0.00000000000E+00 -0.00000000000E+00 -0.71128121405E+02  0.71128121405E+02  0.00000000000E+00 0. -1.
         25    2    1    2    0    0  0.34091252431E+02 -0.16216936479E+01  0.99044680311E+02  0.16309085015E+03  0.12499573322E+03 0.  0.
    9000005    1    3    3    0    0  0.75235263902E+02 -0.15934133637E+02  0.32380036700E+02  0.83448836576E+02  0.10000000000E+01 0.  0.
    9000005    1    3    3    0    0 -0.41144011471E+02  0.14312439989E+02  0.66664643611E+02  0.79642013574E+02  0.10000000000E+01 0.  0.
         -4    1    1    2    0  502 -0.34091252431E+02  0.16216936479E+01 -0.31651302584E+02  0.46564592105E+02  0.12700000000E+01 0.  1.
<mgrwt>
<rscale>  1 0.12957151E+03</rscale>
<asrwt>0</asrwt>
<pdfrwt beam="2">  1       21 0.10942788E-01 0.12957151E+03</pdfrwt>
<pdfrwt beam="1">  1       -4 0.21312320E-01 0.12957151E+03</pdfrwt>
<totfact> 0.55900343E+04</totfact>
</mgrwt>
</event>
<event>
 6    4  0.6376098E-003  0.1279069E+03  0.7818608E-02  0.1230595E+00
          4   -1    0    0  502    0 -0.00000000000E+00  0.00000000000E+00  0.25651640395E+02  0.25683059688E+02  0.12700000000E+01 0.  1.
         21   -1    0    0  501  502  0.00000000000E+00 -0.00000000000E+00 -0.23485818277E+03  0.23485818277E+03  0.00000000000E+00 0.  1.
         25    2    1    2    0    0  0.25261947028E+02  0.98471398948E+01 -0.17786077134E+03  0.21907677100E+03  0.12500018191E+03 0.  0.
    9000005    1    3    3    0    0 -0.45825214745E+02  0.24315699947E+02 -0.99957010586E+02  0.11262152341E+03  0.10000000000E+01 0.  0.
    9000005    1    3    3    0    0  0.71087161772E+02 -0.14468560052E+02 -0.77903760753E+02  0.10645524758E+03  0.10000000000E+01 0.  0.
          4    1    1    2  501    0 -0.25261947028E+02 -0.98471398948E+01 -0.31345771034E+02  0.41464471460E+02  0.12700000000E+01 0. -1.
<mgrwt>
<rscale>  1 0.12790691E+03</rscale>
<asrwt>0</asrwt>
<pdfrwt beam="2">  1       21 0.36132029E-01 0.12790691E+03</pdfrwt>
<pdfrwt beam="1">  1        4 0.39490871E-02 0.12790691E+03</pdfrwt>
<totfact> 0.10356992E+05</totfact>
</mgrwt>
</event>
<event>
 6    4  0.6376098E-003  0.1315960E+03  0.7818608E-02  0.1225107E+00
          4   -1    0    0  502    0 -0.00000000000E+00  0.00000000000E+00  0.29328748471E+03  0.29329023439E+03  0.12700000000E+01 0. -1.
         21   -1    0    0  501  502  0.00000000000E+00 -0.00000000000E+00 -0.25680508312E+02  0.25680508312E+02  0.00000000000E+00 0. -1.
         25    2    1    2    0    0  0.30925335770E+02 -0.27125802995E+02  0.18993449411E+03  0.23106845043E+03  0.12500132461E+03 0.  0.
    9000005    1    3    3    0    0 -0.33502814056E+02  0.23972831675E+02  0.29160524081E+02  0.50482386759E+02  0.10000000000E+01 0.  0.
    9000005    1    3    3    0    0  0.64428149826E+02 -0.51098634670E+02  0.16077397003E+03  0.18058606367E+03  0.10000000000E+01 0.  0.
          4    1    1    2  501    0 -0.30925335770E+02  0.27125802995E+02  0.77672482290E+02  0.87902292267E+02  0.12700000000E+01 0.  1.
<mgrwt>
<rscale>  1 0.13159604E+03</rscale>
<asrwt>0</asrwt>
<pdfrwt beam="2">  1       21 0.39508476E-02 0.13159604E+03</pdfrwt>
<pdfrwt beam="1">  1        4 0.45123776E-01 0.13159604E+03</pdfrwt>
<totfact> 0.76663444E+04</totfact>
</mgrwt>
</event>
<event>
 6    4  0.6376098E-003  0.1344181E+03  0.7818608E-02  0.1221043E+00
          4   -1    0    0  502    0 -0.00000000000E+00  0.00000000000E+00  0.51810978365E+02  0.51826541262E+02  0.12700000000E+01 0. -1.
         21   -1    0    0  501  502  0.00000000000E+00 -0.00000000000E+00 -0.42651067776E+03  0.42651067776E+03  0.00000000000E+00 0.  1.
         25    2    1    2    0    0 -0.34410020518E+02 -0.35635593543E+02 -0.40361920766E+02  0.14034711834E+03  0.12495712841E+03 0.  0.
    9000005    1    3    3    0    0 -0.20395995436E+02 -0.70453845616E+01 -0.83766542800E+02  0.86507038824E+02  0.10000000000E+01 0.  0.
    9000005    1    3    3    0    0 -0.14014025082E+02 -0.28590208982E+02  0.43404622034E+02  0.53840079518E+02  0.10000000000E+01 0.  0.
          4    1    1    2  501    0  0.34410020518E+02  0.35635593543E+02 -0.33433777863E+03  0.33799010068E+03  0.12700000000E+01 0.  1.
<mgrwt>
<rscale>  1 0.13441811E+03</rscale>
<asrwt>0</asrwt>
<pdfrwt beam="2">  1       21 0.65617031E-01 0.13441811E+03</pdfrwt>
<pdfrwt beam="1">  1        4 0.79722619E-02 0.13441811E+03</pdfrwt>
<totfact> 0.97738251E+03</totfact>
</mgrwt>
</event>
<event>
 6    4  0.6376098E-003  0.1269102E+03  0.7818608E-02  0.1232114E+00
         21   -1    0    0  501  502  0.00000000000E+00  0.00000000000E+00  0.37251540343E+02  0.37251540343E+02  0.00000000000E+00 0. -1.
          4   -1    0    0  502    0 -0.00000000000E+00 -0.00000000000E+00 -0.15242133941E+03  0.15242663025E+03  0.12700000000E+01 0. -1.
         25    2    1    2    0    0  0.29871740089E+01 -0.21677718193E+02 -0.10791655912E+03  0.16658988212E+03  0.12500943331E+03 0.  0.
    9000005    1    3    3    0    0  0.23492603076E+02 -0.92949441904E+01  0.22586083621E+02  0.33903238195E+02  0.10000000000E+01 0.  0.
    9000005    1    3    3    0    0 -0.20505429067E+02 -0.12382774003E+02 -0.13050264274E+03  0.13268664393E+03  0.10000000000E+01 0.  0.
          4    1    1    2  501    0 -0.29871740089E+01  0.21677718193E+02 -0.72532399453E+01  0.23088288467E+02  0.12700000000E+01 0.  1.
<mgrwt>
<rscale>  1 0.12691022E+03</rscale>
<asrwt>0</asrwt>
<pdfrwt beam="1">  1       21 0.57310061E-02 0.12691022E+03</pdfrwt>
<pdfrwt beam="2">  1        4 0.23451510E-01 0.12691022E+03</pdfrwt>
<totfact> 0.14280885E+05</totfact>
</mgrwt>
</event>
<event>
 6    4  0.6376098E-003  0.1266998E+03  0.7818608E-02  0.1232436E+00
          4   -1    0    0  502    0 -0.00000000000E+00  0.00000000000E+00  0.13239300439E+02  0.13300074290E+02  0.12700000000E+01 0.  1.
         21   -1    0    0  501  502  0.00000000000E+00 -0.00000000000E+00 -0.11717426938E+04  0.11717426938E+04  0.00000000000E+00 0. -1.
         25    2    1    2    0    0  0.29167239834E+01  0.20509238955E+02 -0.29214822275E+03  0.31843903471E+03  0.12499479433E+03 0.  0.
    9000005    1    3    3    0    0 -0.59415621543E+01  0.49997445872E+02 -0.39720958114E+02  0.64138921631E+02  0.10000000000E+01 0.  0.
    9000005    1    3    3    0    0  0.88582861377E+01 -0.29488206917E+02 -0.25242726464E+03  0.25430011308E+03  0.10000000000E+01 0.  0.
          4    1    1    2  501    0 -0.29167239834E+01 -0.20509238955E+02 -0.86635517058E+03  0.86660373334E+03  0.12700000000E+01 0. -1.
<mgrwt>
<rscale>  1 0.12669978E+03</rscale>
<asrwt>0</asrwt>
<pdfrwt beam="2">  1       21 0.18026811E+00 0.12669978E+03</pdfrwt>
<pdfrwt beam="1">  1        4 0.20415433E-02 0.12669978E+03</pdfrwt>
<totfact> 0.74693712E+03</totfact>
</mgrwt>
</event>
<event>
 6    4  0.6376098E-003  0.1335351E+03  0.7818608E-02  0.1222303E+00
         21   -1    0    0  501  502  0.00000000000E+00  0.00000000000E+00  0.88255034706E+02  0.88255034706E+02  0.00000000000E+00 0.  1.
         -4   -1    0    0    0  501 -0.00000000000E+00 -0.00000000000E+00 -0.92453335016E+02  0.92462057383E+02  0.12700000000E+01 0. -1.
         25    2    1    2    0    0  0.27450688282E+02 -0.38134120453E+02 -0.10245632795E+00  0.13353510116E+03  0.12499544518E+03 0.  0.
    9000005    1    3    3    0    0  0.73255627338E+02 -0.46501206368E+02 -0.34379917012E+01  0.86842207004E+02  0.10000000000E+01 0.  0.
    9000005    1    3    3    0    0 -0.45804939056E+02  0.83670859155E+01  0.33355353733E+01  0.46692894158E+02  0.10000000000E+01 0.  0.
         -4    1    1    2    0  502 -0.27450688282E+02  0.38134120453E+02 -0.40958439818E+01  0.47181990927E+02  0.12700000000E+01 0.  1.
<mgrwt>
<rscale>  1 0.13353506E+03</rscale>
<asrwt>0</asrwt>
<pdfrwt beam="1">  1       21 0.13577698E-01 0.13353506E+03</pdfrwt>
<pdfrwt beam="2">  1       -4 0.14224964E-01 0.13353506E+03</pdfrwt>
<totfact> 0.78330012E+04</totfact>
</mgrwt>
</event>
<event>
 6    4  0.6376098E-003  0.1390955E+03  0.7818608E-02  0.1214551E+00
          4   -1    0    0  502    0 -0.00000000000E+00  0.00000000000E+00  0.14123883341E+03  0.14124454313E+03  0.12700000000E+01 0.  1.
         21   -1    0    0  501  502  0.00000000000E+00 -0.00000000000E+00 -0.85059494923E+02  0.85059494923E+02  0.00000000000E+00 0. -1.
         25    2    1    2    0    0 -0.28155007026E+02 -0.54123073843E+02 -0.59460774773E+01  0.13922251446E+03  0.12500216459E+03 0.  0.
    9000005    1    3    3    0    0  0.27949254356E+02 -0.65141810457E+02 -0.30264709631E+02  0.77081573269E+02  0.10000000000E+01 0.  0.
    9000005    1    3    3    0    0 -0.56104261381E+02  0.11018736613E+02  0.24318632154E+02  0.62140941186E+02  0.10000000000E+01 0.  0.
          4    1    1    2  501    0  0.28155007026E+02  0.54123073843E+02  0.62125415964E+02  0.87081523595E+02  0.12700000000E+01 0. -1.
<mgrwt>
<rscale>  1 0.13909548E+03</rscale>
<asrwt>0</asrwt>
<pdfrwt beam="2">  1       21 0.13086076E-01 0.13909548E+03</pdfrwt>
<pdfrwt beam="1">  1        4 0.21730220E-01 0.13909548E+03</pdfrwt>
<totfact> 0.39633362E+04</totfact>
</mgrwt>
</event>
<event>
 6    4  0.6376098E-003  0.1266351E+03  0.7818608E-02  0.1232536E+00
          4   -1    0    0  502    0 -0.00000000000E+00  0.00000000000E+00  0.25065182240E+03  0.25065503979E+03  0.12700000000E+01 0. -1.
         21   -1    0    0  501  502  0.00000000000E+00 -0.00000000000E+00 -0.55514964056E+02  0.55514964056E+02  0.00000000000E+00 0. -1.
         25    2    1    2    0    0  0.12152960606E+02  0.16241656435E+02  0.23186520469E+03  0.26419298418E+03  0.12499989556E+03 0.  0.
    9000005    1    3    3    0    0 -0.43184888723E+02 -0.78259817527E+01  0.29180045089E+02  0.52712955104E+02  0.10000000000E+01 0.  0.
    9000005    1    3    3    0    0  0.55337849330E+02  0.24067638188E+02  0.20268515960E+03  0.21148002908E+03  0.10000000000E+01 0.  0.
          4    1    1    2  501    0 -0.12152960606E+02 -0.16241656435E+02 -0.36728346342E+02  0.41977019669E+02  0.12700000000E+01 0.  1.
<mgrwt>
<rscale>  1 0.12663514E+03</rscale>
<asrwt>0</asrwt>
<pdfrwt beam="2">  1       21 0.85407639E-02 0.12663514E+03</pdfrwt>
<pdfrwt beam="1">  1        4 0.38563183E-01 0.12663514E+03</pdfrwt>
<totfact> 0.28203645E+04</totfact>
</mgrwt>
</event>
<event>
 6    4  0.6376098E-003  0.1289897E+03  0.7818608E-02  0.1228963E+00
         21   -1    0    0  501  502  0.00000000000E+00  0.00000000000E+00  0.50456789552E+02  0.50456789552E+02  0.00000000000E+00 0. -1.
         -4   -1    0    0    0  501 -0.00000000000E+00 -0.00000000000E+00 -0.13323326148E+03  0.13323931426E+03  0.12700000000E+01 0. -1.
         25    2    1    2    0    0 -0.29940096017E+02 -0.10710640750E+02 -0.79926524966E+02  0.15174516842E+03  0.12500887796E+03 0.  0.
    9000005    1    3    3    0    0  0.90901847948E+01 -0.18640976657E+02  0.29053989039E+02  0.35710667165E+02  0.10000000000E+01 0.  0.
    9000005    1    3    3    0    0 -0.39030280812E+02  0.79303359065E+01 -0.10898051401E+03  0.11603450125E+03  0.10000000000E+01 0.  0.
         -4    1    1    2    0  502  0.29940096017E+02  0.10710640750E+02 -0.28499469588E+01  0.31950935393E+02  0.12700000000E+01 0.  1.
<mgrwt>
<rscale>  1 0.12898972E+03</rscale>
<asrwt>0</asrwt>
<pdfrwt beam="1">  1       21 0.77625831E-02 0.12898972E+03</pdfrwt>
<pdfrwt beam="2">  1       -4 0.20499120E-01 0.12898972E+03</pdfrwt>
<totfact> 0.10893047E+05</totfact>
</mgrwt>
</event>
<event>
 6    4  0.6376098E-003  0.1348329E+03  0.7818608E-02  0.1220456E+00
         21   -1    0    0  501  502  0.00000000000E+00  0.00000000000E+00  0.16258482743E+03  0.16258482743E+03  0.00000000000E+00 0.  1.
          4   -1    0    0  502    0 -0.00000000000E+00 -0.00000000000E+00 -0.60189992294E+02  0.60203389210E+02  0.12700000000E+01 0. -1.
         25    2    1    2    0    0  0.32489756848E+02  0.38629534822E+02  0.36337158262E+02  0.13964343427E+03  0.12502829442E+03 0.  0.
    9000005    1    3    3    0    0  0.67282317319E+02 -0.19543881959E+01  0.50708723806E+02  0.84279917697E+02  0.10000000000E+01 0.  0.
    9000005    1    3    3    0    0 -0.34792560471E+02  0.40583923018E+02 -0.14371565544E+02  0.55363516577E+02  0.10000000000E+01 0.  0.
          4    1    1    2  501    0 -0.32489756848E+02 -0.38629534822E+02  0.66057676873E+02  0.83144782364E+02  0.12700000000E+01 0.  1.
<mgrwt>
<rscale>  1 0.13483286E+03</rscale>
<asrwt>0</asrwt>
<pdfrwt beam="1">  1       21 0.25013050E-01 0.13483286E+03</pdfrwt>
<pdfrwt beam="2">  1        4 0.92614109E-02 0.13483286E+03</pdfrwt>
<totfact> 0.53006210E+04</totfact>
</mgrwt>
</event>
<event>
 6    4  0.6376098E-003  0.1342963E+03  0.7818608E-02  0.1221217E+00
         21   -1    0    0  501  502  0.00000000000E+00  0.00000000000E+00  0.44687676501E+03  0.44687676501E+03  0.00000000000E+00 0.  1.
         -4   -1    0    0    0  501 -0.00000000000E+00 -0.00000000000E+00 -0.19105337782E+02  0.19147501972E+02  0.12700000000E+01 0.  1.
         25    2    1    2    0    0  0.12571848217E+01 -0.49054305975E+02  0.28515219060E+03  0.31519401470E+03  0.12501035816E+03 0.  0.
    9000005    1    3    3    0    0  0.22543396135E+01 -0.85312331918E+02  0.12756472083E+03  0.15348300891E+03  0.10000000000E+01 0.  0.
    9000005    1    3    3    0    0 -0.99715479179E+00  0.36258025943E+02  0.15758746977E+03  0.16171100579E+03  0.10000000000E+01 0.  0.
         -4    1    1    2    0  502 -0.12571848217E+01  0.49054305975E+02  0.14261923663E+03  0.15083025228E+03  0.12700000000E+01 0. -1.
<mgrwt>
<rscale>  1 0.13429630E+03</rscale>
<asrwt>0</asrwt>
<pdfrwt beam="1">  1       21 0.68750264E-01 0.13429630E+03</pdfrwt>
<pdfrwt beam="2">  1       -4 0.29426653E-02 0.13429630E+03</pdfrwt>
<totfact> 0.43797871E+04</totfact>
</mgrwt>
</event>
<event>
 6    4  0.6376098E-003  0.1382293E+03  0.7818608E-02  0.1215732E+00
         -4   -1    0    0    0  501 -0.00000000000E+00  0.00000000000E+00  0.60600256652E+02  0.60613562890E+02  0.12700000000E+01 0.  1.
         21   -1    0    0  501  502  0.00000000000E+00 -0.00000000000E+00 -0.24765925682E+03  0.24765925682E+03  0.00000000000E+00 0. -1.
         25    2    1    2    0    0 -0.44794403212E+01 -0.58842903377E+02 -0.31333991078E+02  0.14173620506E+03  0.12499912065E+03 0.  0.
    9000005    1    3    3    0    0  0.86248104779E+01  0.16935236103E+02 -0.57444909181E+02  0.60515346554E+02  0.10000000000E+01 0.  0.
    9000005    1    3    3    0    0 -0.13104250799E+02 -0.75778139480E+02  0.26110918103E+02  0.81220858505E+02  0.10000000000E+01 0.  0.
         -4    1    1    2    0  502  0.44794403212E+01  0.58842903377E+02 -0.15572500909E+03  0.16653661465E+03  0.12700000000E+01 0. -1.
<mgrwt>
<rscale>  1 0.13822928E+03</rscale>
<asrwt>0</asrwt>
<pdfrwt beam="2">  1       21 0.38101424E-01 0.13822928E+03</pdfrwt>
<pdfrwt beam="1">  1       -4 0.93243904E-02 0.13822928E+03</pdfrwt>
<totfact> 0.23233638E+04</totfact>
</mgrwt>
</event>
<event>
 6    4  0.6376098E-003  0.1267894E+03  0.7818608E-02  0.1232299E+00
          4   -1    0    0  502    0 -0.00000000000E+00  0.00000000000E+00  0.39172503590E+03  0.39172709461E+03  0.12700000000E+01 0.  1.
         21   -1    0    0  501  502  0.00000000000E+00 -0.00000000000E+00 -0.28481045857E+02  0.28481045857E+02  0.00000000000E+00 0. -1.
         25    2    1    2    0    0  0.20922626857E+02  0.36163258591E+01  0.37503536929E+03  0.39588770356E+03  0.12499884593E+03 0.  0.
    9000005    1    3    3    0    0 -0.36396048959E+02 -0.20746195931E+02  0.51425132396E+02  0.66337178621E+02  0.10000000000E+01 0.  0.
    9000005    1    3    3    0    0  0.57318675816E+02  0.24362521791E+02  0.32361023689E+03  0.32955052493E+03  0.10000000000E+01 0.  0.
          4    1    1    2  501    0 -0.20922626857E+02 -0.36163258591E+01 -0.11791379240E+02  0.24320436914E+02  0.12700000000E+01 0. -1.
<mgrwt>
<rscale>  1 0.12678937E+03</rscale>
<asrwt>0</asrwt>
<pdfrwt beam="2">  1       21 0.43816996E-02 0.12678937E+03</pdfrwt>
<pdfrwt beam="1">  1        4 0.60267723E-01 0.12678937E+03</pdfrwt>
<totfact> 0.35483231E+04</totfact>
</mgrwt>
</event>
<event>
 6    4  0.6376098E-003  0.1404571E+03  0.7818608E-02  0.1212715E+00
         21   -1    0    0  501  502  0.00000000000E+00  0.00000000000E+00  0.55897640985E+02  0.55897640985E+02  0.00000000000E+00 0. -1.
         -4   -1    0    0    0  501 -0.00000000000E+00 -0.00000000000E+00 -0.20279738919E+03  0.20280136578E+03  0.12700000000E+01 0.  1.
         25    2    1    2    0    0 -0.57753441978E+02  0.27677981988E+02 -0.13239883990E+03  0.19302237478E+03  0.12500661427E+03 0.  0.
    9000005    1    3    3    0    0 -0.70860353916E+02  0.19233188912E+02 -0.15149249683E+03  0.16835106744E+03  0.10000000000E+01 0.  0.
    9000005    1    3    3    0    0  0.13106911938E+02  0.84447930767E+01  0.19093656933E+02  0.24671307337E+02  0.10000000000E+01 0.  0.
         -4    1    1    2    0  502  0.57753441978E+02 -0.27677981988E+02 -0.14500908307E+02  0.65676631985E+02  0.12700000000E+01 0. -1.
<mgrwt>
<rscale>  1 0.14045706E+03</rscale>
<asrwt>0</asrwt>
<pdfrwt beam="1">  1       21 0.85996372E-02 0.14045706E+03</pdfrwt>
<pdfrwt beam="2">  1       -4 0.31201014E-01 0.14045706E+03</pdfrwt>
<totfact> 0.42430324E+04</totfact>
</mgrwt>
</event>
<event>
 6    4  0.6376098E-003  0.1311010E+03  0.7818608E-02  0.1225831E+00
         21   -1    0    0  501  502  0.00000000000E+00  0.00000000000E+00  0.10991909438E+04  0.10991909438E+04  0.00000000000E+00 0.  1.
         -4   -1    0    0    0  501 -0.00000000000E+00 -0.00000000000E+00 -0.17634021819E+02  0.17679695289E+02  0.12700000000E+01 0. -1.
         25    2    1    2    0    0  0.19466402463E+02  0.34405643409E+02  0.23267341356E+03  0.26706624225E+03  0.12499908499E+03 0.  0.
    9000005    1    3    3    0    0  0.49120472459E+02 -0.59711691081E+01  0.29091905802E+02  0.57409186184E+02  0.10000000000E+01 0.  0.
    9000005    1    3    3    0    0 -0.29654069995E+02  0.40376812517E+02  0.20358150776E+03  0.20965705607E+03  0.10000000000E+01 0.  0.
         -4    1    1    2    0  502 -0.19466402463E+02 -0.34405643409E+02  0.84888350842E+03  0.84980439684E+03  0.12700000000E+01 0.  1.
<mgrwt>
<rscale>  1 0.13110095E+03</rscale>
<asrwt>0</asrwt>
<pdfrwt beam="1">  1       21 0.16910625E+00 0.13110095E+03</pdfrwt>
<pdfrwt beam="2">  1       -4 0.27164971E-02 0.13110095E+03</pdfrwt>
<totfact> 0.57203663E+03</totfact>
</mgrwt>
</event>
<event>
 6    4  0.6376098E-003  0.1361965E+03  0.7818608E-02  0.1218540E+00
         -4   -1    0    0    0  501 -0.00000000000E+00  0.00000000000E+00  0.91321974060E+03  0.91322062369E+03  0.12700000000E+01 0. -1.
         21   -1    0    0  501  502  0.00000000000E+00 -0.00000000000E+00 -0.24323905206E+02  0.24323905206E+02  0.00000000000E+00 0.  1.
         25    2    1    2    0    0 -0.48710524635E+02  0.23496583635E+02  0.86946003558E+03  0.88006263725E+03  0.12499874941E+03 0.  0.
    9000005    1    3    3    0    0 -0.14088962947E+02 -0.31254734216E+02  0.69689436750E+02  0.77672227227E+02  0.10000000000E+01 0.  0.
    9000005    1    3    3    0    0 -0.34621561688E+02  0.54751317851E+02  0.79977059883E+03  0.80239041002E+03  0.10000000000E+01 0.  0.
         -4    1    1    2    0  502  0.48710524635E+02 -0.23496583635E+02  0.19435799818E+02  0.57481891646E+02  0.12700000000E+01 0.  1.
<mgrwt>
<rscale>  1 0.13619652E+03</rscale>
<asrwt>0</asrwt>
<pdfrwt beam="2">  1       21 0.37421400E-02 0.13619652E+03</pdfrwt>
<pdfrwt beam="1">  1       -4 0.14049794E+00 0.13619652E+03</pdfrwt>
<totfact> 0.67537003E+03</totfact>
</mgrwt>
</event>
<event>
 6    4  0.6376098E-003  0.1290465E+03  0.7818608E-02  0.1228877E+00
          4   -1    0    0  502    0 -0.00000000000E+00  0.00000000000E+00  0.15840689666E+03  0.15841198758E+03  0.12700000000E+01 0. -1.
         21   -1    0    0  501  502  0.00000000000E+00 -0.00000000000E+00 -0.40995042512E+02  0.40995042512E+02  0.00000000000E+00 0. -1.
         25    2    1    2    0    0 -0.28339338030E+02  0.14995662814E+02  0.95826930264E+02  0.16073520802E+03  0.12500007420E+03 0.  0.
    9000005    1    3    3    0    0 -0.33156835162E+02  0.24411191151E+02 -0.19042838083E+02  0.45375231720E+02  0.10000000000E+01 0.  0.
    9000005    1    3    3    0    0  0.48174971325E+01 -0.94155283362E+01  0.11486976835E+03  0.11535997630E+03  0.10000000000E+01 0.  0.
          4    1    1    2  501    0  0.28339338030E+02 -0.14995662814E+02  0.21584923885E+02  0.38671822071E+02  0.12700000000E+01 0.  1.
<mgrwt>
<rscale>  1 0.12904653E+03</rscale>
<asrwt>0</asrwt>
<pdfrwt beam="2">  1       21 0.63069297E-02 0.12904653E+03</pdfrwt>
<pdfrwt beam="1">  1        4 0.24372196E-01 0.12904653E+03</pdfrwt>
<totfact> 0.11341632E+05</totfact>
</mgrwt>
</event>
<event>
 6    4  0.6376098E-003  0.1278644E+03  0.7818608E-02  0.1230659E+00
          4   -1    0    0  502    0 -0.00000000000E+00  0.00000000000E+00  0.82797018742E+02  0.82806758254E+02  0.12700000000E+01 0.  1.
         21   -1    0    0  501  502  0.00000000000E+00 -0.00000000000E+00 -0.80849438525E+02  0.80849438525E+02  0.00000000000E+00 0. -1.
         25    2    1    2    0    0  0.20672698485E+02 -0.17261791329E+02  0.22404004052E+02  0.12981231877E+03  0.12499587515E+03 0.  0.
    9000005    1    3    3    0    0  0.23736160939E+02  0.19752526939E+02  0.65794796514E+02  0.72687845648E+02  0.10000000000E+01 0.  0.
    9000005    1    3    3    0    0 -0.30634624544E+01 -0.37014318268E+02 -0.43390792462E+02  0.57124473123E+02  0.10000000000E+01 0.  0.
          4    1    1    2  501    0 -0.20672698485E+02  0.17261791329E+02 -0.20456423835E+02  0.33843878008E+02  0.12700000000E+01 0. -1.
<mgrwt>
<rscale>  1 0.12786438E+03</rscale>
<asrwt>0</asrwt>
<pdfrwt beam="2">  1       21 0.12438375E-01 0.12786438E+03</pdfrwt>
<pdfrwt beam="1">  1        4 0.12739519E-01 0.12786438E+03</pdfrwt>
<totfact> 0.11013356E+05</totfact>
</mgrwt>
</event>
<event>
 6    4  0.6376098E-003  0.1299809E+03  0.7818608E-02  0.1227484E+00
         -4   -1    0    0    0  501 -0.00000000000E+00  0.00000000000E+00  0.24062442307E+02  0.24095933884E+02  0.12700000000E+01 0. -1.
         21   -1    0    0  501  502  0.00000000000E+00 -0.00000000000E+00 -0.68093259901E+03  0.68093259901E+03  0.00000000000E+00 0.  1.
         25    2    1    2    0    0  0.15226706158E+02 -0.32236167831E+02 -0.15672088884E+03  0.20360862289E+03  0.12499604483E+03 0.  0.
    9000005    1    3    3    0    0 -0.33612047849E+02 -0.60311128597E+02 -0.59075393035E+02  0.90874111030E+02  0.10000000000E+01 0.  0.
    9000005    1    3    3    0    0  0.48838754007E+02  0.28074960766E+02 -0.97645495801E+02  0.11273451186E+03  0.10000000000E+01 0.  0.
         -4    1    1    2    0  502 -0.15226706158E+02  0.32236167831E+02 -0.50014926787E+03  0.50141991000E+03  0.12700000000E+01 0.  1.
<mgrwt>
<rscale>  1 0.12998090E+03</rscale>
<asrwt>0</asrwt>
<pdfrwt beam="2">  1       21 0.10475887E+00 0.12998090E+03</pdfrwt>
<pdfrwt beam="1">  1       -4 0.37045814E-02 0.12998090E+03</pdfrwt>
<totfact> 0.11713697E+04</totfact>
</mgrwt>
</event>
<event>
 6    4  0.6376098E-003  0.1268115E+03  0.7818608E-02  0.1232265E+00
         21   -1    0    0  501  502  0.00000000000E+00  0.00000000000E+00  0.20500777425E+04  0.20500777425E+04  0.00000000000E+00 0.  1.
         -4   -1    0    0    0  501 -0.00000000000E+00 -0.00000000000E+00 -0.26504925130E+01  0.29390492615E+01  0.12700000000E+01 0.  1.
         25    2    1    2    0    0 -0.13982591753E+02  0.16180340386E+02  0.15717501704E+04  0.15768575608E+04  0.12499541034E+03 0.  0.
    9000005    1    3    3    0    0  0.55155111165E+02 -0.91783417039E+00  0.74970095758E+03  0.75172831163E+03  0.10000000000E+01 0.  0.
    9000005    1    3    3    0    0 -0.69137702917E+02  0.17098174557E+02  0.82204921286E+03  0.82512924921E+03  0.10000000000E+01 0.  0.
         -4    1    1    2    0  502  0.13982591753E+02 -0.16180340386E+02  0.47567707958E+03  0.47615923096E+03  0.12700000000E+01 0. -1.
<mgrwt>
<rscale>  1 0.12681155E+03</rscale>
<asrwt>0</asrwt>
<pdfrwt beam="1">  1       21 0.31539537E+00 0.12681155E+03</pdfrwt>
<pdfrwt beam="2">  1       -4 0.42999665E-03 0.12681155E+03</pdfrwt>
<totfact> 0.12455377E+04</totfact>
</mgrwt>
</event>
<event>
 6    4  0.6376098E-003  0.1271722E+03  0.7818608E-02  0.1231713E+00
         21   -1    0    0  501  502  0.00000000000E+00  0.00000000000E+00  0.38663101080E+02  0.38663101080E+02  0.00000000000E+00 0. -1.
         -4   -1    0    0    0  501 -0.00000000000E+00 -0.00000000000E+00 -0.14674052143E+03  0.14674601708E+03  0.12700000000E+01 0. -1.
         25    2    1    2    0    0 -0.97727643943E+01 -0.21189942557E+02 -0.88683464641E+02  0.15504040058E+03  0.12501299261E+03 0.  0.
    9000005    1    3    3    0    0 -0.49609245539E+02  0.21461024693E+02 -0.68077588200E+01  0.54488516258E+02  0.10000000000E+01 0.  0.
    9000005    1    3    3    0    0  0.39836481145E+02 -0.42650967250E+02 -0.81875705821E+02  0.10055188432E+03  0.10000000000E+01 0.  0.
         -4    1    1    2    0  502  0.97727643943E+01  0.21189942557E+02 -0.19393955710E+02  0.30368717582E+02  0.12700000000E+01 0.  1.
<mgrwt>
<rscale>  1 0.12717220E+03</rscale>
<asrwt>0</asrwt>
<pdfrwt beam="1">  1       21 0.59481696E-02 0.12717220E+03</pdfrwt>
<pdfrwt beam="2">  1       -4 0.22577491E-01 0.12717220E+03</pdfrwt>
<totfact> 0.14377007E+05</totfact>
</mgrwt>
</event>
<event>
 6    4  0.6376098E-003  0.1268780E+03  0.7818608E-02  0.1232163E+00
         21   -1    0    0  501  502  0.00000000000E+00  0.00000000000E+00  0.30813737310E+02  0.30813737310E+02  0.00000000000E+00 0.  1.
          4   -1    0    0  502    0 -0.00000000000E+00 -0.00000000000E+00 -0.18858972026E+03  0.18859399642E+03  0.12700000000E+01 0.  1.
         25    2    1    2    0    0  0.21715222376E+02  0.12287196504E+01 -0.14954781203E+03  0.19611875927E+03  0.12499983608E+03 0.  0.
    9000005    1    3    3    0    0 -0.50993162600E+02  0.14272374107E+02 -0.64875148379E+02  0.83748362203E+02  0.10000000000E+01 0.  0.
    9000005    1    3    3    0    0  0.72708384976E+02 -0.13043654456E+02 -0.84672663648E+02  0.11237039707E+03  0.10000000000E+01 0.  0.
          4    1    1    2  501    0 -0.21715222376E+02 -0.12287196504E+01 -0.82281709191E+01  0.23288974462E+02  0.12700000000E+01 0. -1.
<mgrwt>
<rscale>  1 0.12687797E+03</rscale>
<asrwt>0</asrwt>
<pdfrwt beam="1">  1       21 0.47405750E-02 0.12687797E+03</pdfrwt>
<pdfrwt beam="2">  1        4 0.29016145E-01 0.12687797E+03</pdfrwt>
<totfact> 0.13242568E+05</totfact>
</mgrwt>
</event>
<event>
 6    4  0.6376098E-003  0.1269119E+03  0.7818608E-02  0.1232111E+00
         21   -1    0    0  501  502  0.00000000000E+00  0.00000000000E+00  0.18108815207E+03  0.18108815207E+03  0.00000000000E+00 0.  1.
         -4   -1    0    0    0  501 -0.00000000000E+00 -0.00000000000E+00 -0.43687355514E+02  0.43705811190E+02  0.12700000000E+01 0. -1.
         25    2    1    2    0    0  0.13169501574E+02  0.17597919027E+02  0.52940392703E+02  0.13751111704E+03  0.12499399827E+03 0.  0.
    9000005    1    3    3    0    0  0.51725695323E+02  0.52867646670E+02  0.23980482900E+02  0.77759881566E+02  0.10000000000E+01 0.  0.
    9000005    1    3    3    0    0 -0.38556193749E+02 -0.35269727643E+02  0.28959909803E+02  0.59751235470E+02  0.10000000000E+01 0.  0.
         -4    1    1    2    0  502 -0.13169501574E+02 -0.17597919027E+02  0.84460403856E+02  0.87282846226E+02  0.12700000000E+01 0.  1.
<mgrwt>
<rscale>  1 0.12691187E+03</rscale>
<asrwt>0</asrwt>
<pdfrwt beam="1">  1       21 0.27859715E-01 0.12691187E+03</pdfrwt>
<pdfrwt beam="2">  1       -4 0.67228940E-02 0.12691187E+03</pdfrwt>
<totfact> 0.72816629E+04</totfact>
</mgrwt>
</event>
<event>
 6    4  0.6376098E-003  0.1268069E+03  0.7818608E-02  0.1232272E+00
         21   -1    0    0  501  502  0.00000000000E+00  0.00000000000E+00  0.68298306094E+02  0.68298306094E+02  0.00000000000E+00 0. -1.
          4   -1    0    0  502    0 -0.00000000000E+00 -0.00000000000E+00 -0.80518031965E+02  0.80528047111E+02  0.12700000000E+01 0. -1.
         25    2    1    2    0    0 -0.13638634160E+02 -0.16402266271E+02 -0.81163143196E+01  0.12706635397E+03  0.12499974828E+03 0.  0.
    9000005    1    3    3    0    0 -0.48700412730E+02 -0.35223733637E+02  0.34044159421E+02  0.69082895148E+02  0.10000000000E+01 0.  0.
    9000005    1    3    3    0    0  0.35061778571E+02  0.18821467366E+02 -0.42160473740E+02  0.57983458817E+02  0.10000000000E+01 0.  0.
          4    1    1    2  501    0  0.13638634160E+02  0.16402266271E+02 -0.41034115521E+01  0.21759999240E+02  0.12700000000E+01 0.  1.
<mgrwt>
<rscale>  1 0.12680688E+03</rscale>
<asrwt>0</asrwt>
<pdfrwt beam="1">  1       21 0.10507432E-01 0.12680688E+03</pdfrwt>
<pdfrwt beam="2">  1        4 0.12389068E-01 0.12680688E+03</pdfrwt>
<totfact> 0.15540647E+05</totfact>
</mgrwt>
</event>
<event>
 6    4  0.6376098E-003  0.1321268E+03  0.7818608E-02  0.1224334E+00
         -4   -1    0    0    0  501 -0.00000000000E+00  0.00000000000E+00  0.62705303046E+01  0.63978473177E+01  0.12700000000E+01 0. -1.
         21   -1    0    0  501  502  0.00000000000E+00 -0.00000000000E+00 -0.18182874878E+04  0.18182874878E+04  0.00000000000E+00 0.  1.
         25    2    1    2    0    0  0.36788226559E+02  0.21873675351E+02 -0.73259760132E+03  0.74441703943E+03  0.12500260735E+03 0.  0.
    9000005    1    3    3    0    0  0.62539380236E+02  0.47349601977E+02 -0.64301539104E+03  0.64778310568E+03  0.10000000000E+01 0.  0.
    9000005    1    3    3    0    0 -0.25751153678E+02 -0.25475926627E+02 -0.89582210275E+02  0.96633933745E+02  0.10000000000E+01 0.  0.
         -4    1    1    2    0  502 -0.36788226559E+02 -0.21873675351E+02 -0.10794193562E+04  0.10802682957E+04  0.12700000000E+01 0.  1.
<mgrwt>
<rscale>  1 0.13212677E+03</rscale>
<asrwt>0</asrwt>
<pdfrwt beam="2">  1       21 0.27973694E+00 0.13212677E+03</pdfrwt>
<pdfrwt beam="1">  1       -4 0.97452331E-03 0.13212677E+03</pdfrwt>
<totfact> 0.58453583E+03</totfact>
</mgrwt>
</event>
<event>
 6    4  0.6376098E-003  0.1363855E+03  0.7818608E-02  0.1218277E+00
         -4   -1    0    0    0  501 -0.00000000000E+00  0.00000000000E+00  0.36435626947E+02  0.36457753784E+02  0.12700000000E+01 0. -1.
         21   -1    0    0  501  502  0.00000000000E+00 -0.00000000000E+00 -0.38565083590E+03  0.38565083590E+03  0.00000000000E+00 0.  1.
         25    2    1    2    0    0  0.30087493426E+02 -0.45503346459E+02 -0.10568663482E+03  0.17254178276E+03  0.12500076087E+03 0.  0.
    9000005    1    3    3    0    0  0.75118822208E+02 -0.48943797567E+02 -0.57626621204E+02  0.10658405247E+03  0.10000000000E+01 0.  0.
    9000005    1    3    3    0    0 -0.45031328782E+02  0.34404511079E+01 -0.48060013617E+02  0.65957730287E+02  0.10000000000E+01 0.  0.
         -4    1    1    2    0  502 -0.30087493426E+02  0.45503346459E+02 -0.24352857413E+03  0.24956680692E+03  0.12700000000E+01 0.  1.
<mgrwt>
<rscale>  1 0.13638549E+03</rscale>
<asrwt>0</asrwt>
<pdfrwt beam="2">  1       21 0.59330895E-01 0.13638549E+03</pdfrwt>
<pdfrwt beam="1">  1       -4 0.56073443E-02 0.13638549E+03</pdfrwt>
<totfact> 0.21592629E+04</totfact>
</mgrwt>
</event>
<event>
 6    4  0.6376098E-003  0.1266727E+03  0.7818608E-02  0.1232478E+00
         -4   -1    0    0    0  501 -0.00000000000E+00  0.00000000000E+00  0.26080145870E+02  0.26111049550E+02  0.12700000000E+01 0.  1.
         21   -1    0    0  501  502  0.00000000000E+00 -0.00000000000E+00 -0.48642108570E+03  0.48642108570E+03  0.00000000000E+00 0. -1.
         25    2    1    2    0    0  0.11533922596E+02 -0.16942484734E+02 -0.12984649680E+03  0.18140033530E+03  0.12500355898E+03 0.  0.
    9000005    1    3    3    0    0  0.53896889811E+01  0.50366685253E+02 -0.89031056071E+02  0.10243720357E+03  0.10000000000E+01 0.  0.
    9000005    1    3    3    0    0  0.61442336146E+01 -0.67309169987E+02 -0.40815440725E+02  0.78963131730E+02  0.10000000000E+01 0.  0.
         -4    1    1    2    0  502 -0.11533922596E+02  0.16942484734E+02 -0.33049444304E+03  0.33113179995E+03  0.12700000000E+01 0. -1.
<mgrwt>
<rscale>  1 0.12667268E+03</rscale>
<asrwt>0</asrwt>
<pdfrwt beam="2">  1       21 0.74834004E-01 0.12667268E+03</pdfrwt>
<pdfrwt beam="1">  1       -4 0.40148354E-02 0.12667268E+03</pdfrwt>
<totfact> 0.22174762E+04</totfact>
</mgrwt>
</event>
<event>
 6    4  0.6376098E-003  0.1449429E+03  0.7818608E-02  0.1206828E+00
         21   -1    0    0  501  502  0.00000000000E+00  0.00000000000E+00  0.12002934768E+03  0.12002934768E+03  0.00000000000E+00 0. -1.
          4   -1    0    0  502    0 -0.00000000000E+00 -0.00000000000E+00 -0.33960557119E+03  0.33960794585E+03  0.12700000000E+01 0.  1.
         25    2    1    2    0    0 -0.50870783178E+02  0.52877871159E+02 -0.31057634698E+03  0.34273331065E+03  0.12499819633E+03 0.  0.
    9000005    1    3    3    0    0  0.10796212191E+02 -0.21067363688E+02 -0.17411705307E+03  0.17572176923E+03  0.10000000000E+01 0.  0.
    9000005    1    3    3    0    0 -0.61666995369E+02  0.73945234846E+02 -0.13645929391E+03  0.16701154143E+03  0.10000000000E+01 0.  0.
          4    1    1    2  501    0  0.50870783178E+02 -0.52877871159E+02  0.91000123471E+02  0.11690398287E+03  0.12700000000E+01 0. -1.
<mgrwt>
<rscale>  1 0.14494294E+03</rscale>
<asrwt>0</asrwt>
<pdfrwt beam="1">  1       21 0.18466054E-01 0.14494294E+03</pdfrwt>
<pdfrwt beam="2">  1        4 0.52247709E-01 0.14494294E+03</pdfrwt>
<totfact> 0.39315563E+03</totfact>
</mgrwt>
</event>
<event>
 6    4  0.6376098E-003  0.1320272E+03  0.7818608E-02  0.1224478E+00
         -4   -1    0    0    0  501 -0.00000000000E+00  0.00000000000E+00  0.11336765173E+04  0.11336772287E+04  0.12700000000E+01 0. -1.
         21   -1    0    0  501  502  0.00000000000E+00 -0.00000000000E+00 -0.11731080097E+02  0.11731080097E+02  0.00000000000E+00 0.  1.
         25    2    1    2    0    0  0.35635512841E+02  0.23133599366E+02  0.10707894183E+04  0.10788981263E+04  0.12500454191E+03 0.  0.
    9000005    1    3    3    0    0  0.10833537161E+02  0.73176138762E+02  0.51081911702E+03  0.51614850878E+03  0.10000000000E+01 0.  0.
    9000005    1    3    3    0    0  0.24801975681E+02 -0.50042539396E+02  0.55997030127E+03  0.56274961755E+03  0.10000000000E+01 0.  0.
         -4    1    1    2    0  502 -0.35635512841E+02 -0.23133599366E+02  0.51156018941E+02  0.66510182445E+02  0.12700000000E+01 0.  1.
<mgrwt>
<rscale>  1 0.13202723E+03</rscale>
<asrwt>0</asrwt>
<pdfrwt beam="2">  1       21 0.18047824E-02 0.13202723E+03</pdfrwt>
<pdfrwt beam="1">  1       -4 0.17441703E+00 0.13202723E+03</pdfrwt>
<totfact> 0.12661193E+04</totfact>
</mgrwt>
</event>
<event>
 6    4  0.6376098E-003  0.1269952E+03  0.7818608E-02  0.1231984E+00
         21   -1    0    0  501  502  0.00000000000E+00  0.00000000000E+00  0.95769291632E+02  0.95769291632E+02  0.00000000000E+00 0.  1.
         -4   -1    0    0    0  501 -0.00000000000E+00 -0.00000000000E+00 -0.83393917313E+02  0.83403587122E+02  0.12700000000E+01 0.  1.
         25    2    1    2    0    0  0.12931121623E+02 -0.18338336739E+02 -0.30640710614E+02  0.13063933403E+03  0.12499709576E+03 0.  0.
    9000005    1    3    3    0    0  0.32393378734E+01 -0.66762016803E+02 -0.43302940614E+02  0.79648006022E+02  0.10000000000E+01 0.  0.
    9000005    1    3    3    0    0  0.96917837500E+01  0.48423680064E+02  0.12662229999E+02  0.50991328005E+02  0.10000000000E+01 0.  0.
         -4    1    1    2    0  502 -0.12931121623E+02  0.18338336739E+02  0.43016084934E+02  0.48533544727E+02  0.12700000000E+01 0. -1.
<mgrwt>
<rscale>  1 0.12699521E+03</rscale>
<asrwt>0</asrwt>
<pdfrwt beam="1">  1       21 0.14733737E-01 0.12699521E+03</pdfrwt>
<pdfrwt beam="2">  1       -4 0.12831225E-01 0.12699521E+03</pdfrwt>
<totfact> 0.80292758E+04</totfact>
</mgrwt>
</event>
<event>
 6    4  0.6376098E-003  0.1442757E+03  0.7818608E-02  0.1207689E+00
         21   -1    0    0  501  502  0.00000000000E+00  0.00000000000E+00  0.30304487120E+03  0.30304487120E+03  0.00000000000E+00 0. -1.
         -4   -1    0    0    0  501 -0.00000000000E+00 -0.00000000000E+00 -0.64799704436E+02  0.64812148514E+02  0.12700000000E+01 0.  1.
         25    2    1    2    0    0 -0.67294567792E+02  0.25732566718E+02  0.29817202532E+02  0.14732458895E+03  0.12499898039E+03 0.  0.
    9000005    1    3    3    0    0  0.19469244095E+02  0.31037632494E+01 -0.32570123408E+02  0.38085400756E+02  0.10000000000E+01 0.  0.
    9000005    1    3    3    0    0 -0.86763811887E+02  0.22628803469E+02  0.62387325940E+02  0.10923918820E+03  0.10000000000E+01 0.  0.
         -4    1    1    2    0  502  0.67294567792E+02 -0.25732566718E+02  0.20842796423E+03  0.22053243076E+03  0.12700000000E+01 0. -1.
<mgrwt>
<rscale>  1 0.14427567E+03</rscale>
<asrwt>0</asrwt>
<pdfrwt beam="1">  1       21 0.46622287E-01 0.14427567E+03</pdfrwt>
<pdfrwt beam="2">  1       -4 0.99703474E-02 0.14427567E+03</pdfrwt>
<totfact> 0.13862155E+04</totfact>
</mgrwt>
</event>
<event>
 6    4  0.6376098E-003  0.1269145E+03  0.7818608E-02  0.1232107E+00
          4   -1    0    0  502    0 -0.00000000000E+00  0.00000000000E+00  0.11901427051E+03  0.11902104639E+03  0.12700000000E+01 0. -1.
         21   -1    0    0  501  502  0.00000000000E+00 -0.00000000000E+00 -0.14812550806E+03  0.14812550806E+03  0.00000000000E+00 0.  1.
         25    2    1    2    0    0 -0.74744476721E+01 -0.20687902614E+02  0.83813726757E+02  0.15209214495E+03  0.12499369216E+03 0.  0.
    9000005    1    3    3    0    0 -0.58012726611E+02 -0.29218245357E+02  0.15682028362E+02  0.66828948249E+02  0.10000000000E+01 0.  0.
    9000005    1    3    3    0    0  0.50538278938E+02  0.85303427428E+01  0.68131698395E+02  0.85263196700E+02  0.10000000000E+01 0.  0.
          4    1    1    2  501    0  0.74744476721E+01  0.20687902614E+02 -0.11292496431E+03  0.11505440951E+03  0.12700000000E+01 0.  1.
<mgrwt>
<rscale>  1 0.12691446E+03</rscale>
<asrwt>0</asrwt>
<pdfrwt beam="2">  1       21 0.22788540E-01 0.12691446E+03</pdfrwt>
<pdfrwt beam="1">  1        4 0.18310828E-01 0.12691446E+03</pdfrwt>
<totfact> 0.19382235E+04</totfact>
</mgrwt>
</event>
<event>
 6    4  0.6376098E-003  0.1267451E+03  0.7818608E-02  0.1232367E+00
          4   -1    0    0  502    0 -0.00000000000E+00  0.00000000000E+00  0.27493805185E+02  0.27523121617E+02  0.12700000000E+01 0. -1.
         21   -1    0    0  501  502  0.00000000000E+00 -0.00000000000E+00 -0.20286802124E+03  0.20286802124E+03  0.00000000000E+00 0. -1.
         25    2    1    2    0    0 -0.14721595817E+02 -0.14910308116E+02 -0.13690431553E+03  0.18656661984E+03  0.12500107742E+03 0.  0.
    9000005    1    3    3    0    0 -0.72873092363E+01 -0.68380020323E+02 -0.99211612305E+02  0.12071816794E+03  0.10000000000E+01 0.  0.
    9000005    1    3    3    0    0 -0.74342865811E+01  0.53469712208E+02 -0.37692703227E+02  0.65848451896E+02  0.10000000000E+01 0.  0.
          4    1    1    2  501    0  0.14721595817E+02  0.14910308116E+02 -0.38469900527E+02  0.43824523022E+02  0.12700000000E+01 0.  1.
<mgrwt>
<rscale>  1 0.12674507E+03</rscale>
<asrwt>0</asrwt>
<pdfrwt beam="2">  1       21 0.31210466E-01 0.12674507E+03</pdfrwt>
<pdfrwt beam="1">  1        4 0.42323770E-02 0.12674507E+03</pdfrwt>
<totfact> 0.12336273E+05</totfact>
</mgrwt>
</event>
<event>
 6    4  0.6376098E-003  0.1305068E+03  0.7818608E-02  0.1226706E+00
         21   -1    0    0  501  502  0.00000000000E+00  0.00000000000E+00  0.32416791203E+02  0.32416791203E+02  0.00000000000E+00 0.  1.
         -4   -1    0    0    0  501 -0.00000000000E+00 -0.00000000000E+00 -0.44140965168E+03  0.44141147867E+03  0.12700000000E+01 0. -1.
         25    2    1    2    0    0 -0.28121395964E+02  0.25012264002E+02 -0.41558842328E+03  0.43559816903E+03  0.12496239851E+03 0.  0.
    9000005    1    3    3    0    0  0.26009479342E+02  0.49448421002E+02 -0.10078659777E+03  0.11524138859E+03  0.10000000000E+01 0.  0.
    9000005    1    3    3    0    0 -0.54130875305E+02 -0.24436157000E+02 -0.31480182551E+03  0.32035678044E+03  0.10000000000E+01 0.  0.
         -4    1    1    2    0  502  0.28121395964E+02 -0.25012264002E+02  0.65955627966E+01  0.38230100838E+02  0.12700000000E+01 0.  1.
<mgrwt>
<rscale>  1 0.13050681E+03</rscale>
<asrwt>0</asrwt>
<pdfrwt beam="1">  1       21 0.49871988E-02 0.13050681E+03</pdfrwt>
<pdfrwt beam="2">  1       -4 0.67911229E-01 0.13050681E+03</pdfrwt>
<totfact> 0.22256372E+04</totfact>
</mgrwt>
</event>
<event>
 6    4  0.6376098E-003  0.1321702E+03  0.7818608E-02  0.1224271E+00
         21   -1    0    0  501  502  0.00000000000E+00  0.00000000000E+00  0.10310181788E+04  0.10310181788E+04  0.00000000000E+00 0. -1.
         -4   -1    0    0    0  501 -0.00000000000E+00 -0.00000000000E+00 -0.74095584331E+01  0.75176097380E+01  0.12700000000E+01 0. -1.
         25    2    1    2    0    0  0.71937174840E+01  0.42191659430E+02  0.80405269429E+03  0.81484335846E+03  0.12504830243E+03 0.  0.
    9000005    1    3    3    0    0  0.42982227505E+02 -0.27614372939E+02  0.39944708402E+03  0.40270212118E+03  0.10000000000E+01 0.  0.
    9000005    1    3    3    0    0 -0.35788510021E+02  0.69806032369E+02  0.40460561027E+03  0.41214123728E+03  0.10000000000E+01 0.  0.
         -4    1    1    2    0  502 -0.71937174840E+01 -0.42191659430E+02  0.21955592606E+03  0.22369243005E+03  0.12700000000E+01 0.  1.
<mgrwt>
<rscale>  1 0.13217021E+03</rscale>
<asrwt>0</asrwt>
<pdfrwt beam="1">  1       21 0.15861807E+00 0.13217021E+03</pdfrwt>
<pdfrwt beam="2">  1       -4 0.11483047E-02 0.13217021E+03</pdfrwt>
<totfact> 0.25423730E+04</totfact>
</mgrwt>
</event>
<event>
 6    4  0.6376098E-003  0.1355988E+03  0.7818608E-02  0.1219377E+00
         21   -1    0    0  501  502  0.00000000000E+00  0.00000000000E+00  0.21536592496E+03  0.21536592496E+03  0.00000000000E+00 0. -1.
         -4   -1    0    0    0  501 -0.00000000000E+00 -0.00000000000E+00 -0.51813868673E+02  0.51829430702E+02  0.12700000000E+01 0.  1.
         25    2    1    2    0    0 -0.36058405749E+02 -0.38238464208E+02  0.54517762038E+02  0.14614793110E+03  0.12499857046E+03 0.  0.
    9000005    1    3    3    0    0  0.78641512193E+01  0.41734362533E+02  0.62999539207E+01  0.42945212887E+02  0.10000000000E+01 0.  0.
    9000005    1    3    3    0    0 -0.43922556969E+02 -0.79972826741E+02  0.48217808118E+02  0.10320271822E+03  0.10000000000E+01 0.  0.
         -4    1    1    2    0  502  0.36058405749E+02  0.38238464208E+02  0.10903429425E+03  0.12104742456E+03  0.12700000000E+01 0. -1.
<mgrwt>
<rscale>  1 0.13559879E+03</rscale>
<asrwt>0</asrwt>
<pdfrwt beam="1">  1       21 0.33133219E-01 0.13559879E+03</pdfrwt>
<pdfrwt beam="2">  1       -4 0.79728497E-02 0.13559879E+03</pdfrwt>
<totfact> 0.39647758E+04</totfact>
</mgrwt>
</event>
<event>
 6    4  0.6376098E-003  0.1272578E+03  0.7818608E-02  0.1231582E+00
          4   -1    0    0  502    0 -0.00000000000E+00  0.00000000000E+00  0.25825189942E+03  0.25825502212E+03  0.12700000000E+01 0.  1.
         21   -1    0    0  501  502  0.00000000000E+00 -0.00000000000E+00 -0.25076003232E+02  0.25076003232E+02  0.00000000000E+00 0.  1.
         25    2    1    2    0    0 -0.56723544467E+01  0.23197547280E+02  0.22417795344E+03  0.25777955420E+03  0.12499696776E+03 0.  0.
    9000005    1    3    3    0    0  0.59261566941E+02  0.17430109633E+02  0.10053139016E+03  0.11799704422E+03  0.10000000000E+01 0.  0.
    9000005    1    3    3    0    0 -0.64933921388E+02  0.57674376467E+01  0.12364656328E+03  0.13978250997E+03  0.10000000000E+01 0.  0.
          4    1    1    2  501    0  0.56723544467E+01 -0.23197547280E+02  0.89979427481E+01  0.25551471160E+02  0.12700000000E+01 0. -1.
<mgrwt>
<rscale>  1 0.12725778E+03</rscale>
<asrwt>0</asrwt>
<pdfrwt beam="2">  1       21 0.38578468E-02 0.12725778E+03</pdfrwt>
<pdfrwt beam="1">  1        4 0.39733774E-01 0.12725778E+03</pdfrwt>
<totfact> 0.10213280E+05</totfact>
</mgrwt>
</event>
<event>
 6    4  0.6376098E-003  0.1724560E+03  0.7818608E-02  0.1175311E+00
         21   -1    0    0  501  502  0.00000000000E+00  0.00000000000E+00  0.83070489267E+02  0.83070489267E+02  0.00000000000E+00 0. -1.
          4   -1    0    0  502    0 -0.00000000000E+00 -0.00000000000E+00 -0.51307199281E+03  0.51307356461E+03  0.12700000000E+01 0.  1.
         25    2    1    2    0    0 -0.98124755162E+02 -0.66989223685E+02 -0.44417951618E+03  0.47648348139E+03  0.12500016714E+03 0.  0.
    9000005    1    3    3    0    0 -0.85886875575E+02 -0.31312250072E+02 -0.42390329785E+03  0.43364964929E+03  0.10000000000E+01 0.  0.
    9000005    1    3    3    0    0 -0.12237879587E+02 -0.35676973613E+02 -0.20276218324E+02  0.42833832102E+02  0.10000000000E+01 0.  0.
          4    1    1    2  501    0  0.98124755162E+02  0.66989223685E+02  0.14178012636E+02  0.11966057249E+03  0.12700000000E+01 0. -1.
<mgrwt>
<rscale>  1 0.17245598E+03</rscale>
<asrwt>0</asrwt>
<pdfrwt beam="1">  1       21 0.12780075E-01 0.17245598E+03</pdfrwt>
<pdfrwt beam="2">  1        4 0.78935020E-01 0.17245598E+03</pdfrwt>
<totfact> 0.32108795E+03</totfact>
</mgrwt>
</event>
<event>
 6    4  0.6376098E-003  0.1281187E+03  0.7818608E-02  0.1230274E+00
         -4   -1    0    0    0  501 -0.00000000000E+00  0.00000000000E+00  0.27271033006E+03  0.27271328721E+03  0.12700000000E+01 0. -1.
         21   -1    0    0  501  502  0.00000000000E+00 -0.00000000000E+00 -0.27852163750E+02  0.27852163750E+02  0.00000000000E+00 0. -1.
         25    2    1    2    0    0 -0.21258002601E+02 -0.18391558823E+02  0.23993662452E+03  0.27199997208E+03  0.12499699560E+03 0.  0.
    9000005    1    3    3    0    0 -0.18851906838E+02  0.48487697384E+02  0.15716158358E+03  0.16555124446E+03  0.10000000000E+01 0.  0.
    9000005    1    3    3    0    0 -0.24060957634E+01 -0.66879256207E+02  0.82775040949E+02  0.10644872762E+03  0.10000000000E+01 0.  0.
         -4    1    1    2    0  502  0.21258002601E+02  0.18391558823E+02  0.49215417887E+01  0.28565478889E+02  0.12700000000E+01 0.  1.
<mgrwt>
<rscale>  1 0.12811870E+03</rscale>
<asrwt>0</asrwt>
<pdfrwt beam="2">  1       21 0.42849485E-02 0.12811870E+03</pdfrwt>
<pdfrwt beam="1">  1       -4 0.41957888E-01 0.12811870E+03</pdfrwt>
<totfact> 0.77122112E+04</totfact>
</mgrwt>
</event>
<event>
 6    4  0.6376098E-003  0.1457607E+03  0.7818608E-02  0.1205781E+00
         21   -1    0    0  501  502  0.00000000000E+00  0.00000000000E+00  0.48923792711E+02  0.48923792711E+02  0.00000000000E+00 0. -1.
         -4   -1    0    0    0  501 -0.00000000000E+00 -0.00000000000E+00 -0.32740594557E+03  0.32740840871E+03  0.12700000000E+01 0. -1.
         25    2    1    2    0    0  0.74828946195E+02 -0.46141599362E+01 -0.26160909858E+03  0.29947535709E+03  0.12500202951E+03 0.  0.
    9000005    1    3    3    0    0 -0.15905792770E+01  0.44404323198E+02 -0.14517005742E+03  0.15182101117E+03  0.10000000000E+01 0.  0.
    9000005    1    3    3    0    0  0.76419525472E+02 -0.49018483134E+02 -0.11643904116E+03  0.14765434592E+03  0.10000000000E+01 0.  0.
         -4    1    1    2    0  502 -0.74828946195E+02  0.46141599362E+01 -0.16873054280E+02  0.76856844336E+02  0.12700000000E+01 0.  1.
<mgrwt>
<rscale>  1 0.14576066E+03</rscale>
<asrwt>0</asrwt>
<pdfrwt beam="1">  1       21 0.75267372E-02 0.14576066E+03</pdfrwt>
<pdfrwt beam="2">  1       -4 0.50371604E-01 0.14576066E+03</pdfrwt>
<totfact> 0.20890921E+04</totfact>
</mgrwt>
</event>
<event>
 6    4  0.6376098E-003  0.1266824E+03  0.7818608E-02  0.1232463E+00
         -4   -1    0    0    0  501 -0.00000000000E+00  0.00000000000E+00  0.95333714536E+03  0.95333799128E+03  0.12700000000E+01 0. -1.
         21   -1    0    0  501  502  0.00000000000E+00 -0.00000000000E+00 -0.58931882486E+01  0.58931882486E+01  0.00000000000E+00 0. -1.
         25    2    1    2    0    0  0.16410270594E+02  0.12454438335E+02  0.86578531802E+03  0.87500436519E+03  0.12499604871E+03 0.  0.
    9000005    1    3    3    0    0  0.54404570088E+02 -0.20524018213E+02  0.68135822571E+03  0.68383559743E+03  0.10000000000E+01 0.  0.
    9000005    1    3    3    0    0 -0.37994299494E+02  0.32978456548E+02  0.18442709231E+03  0.19116876776E+03  0.10000000000E+01 0.  0.
         -4    1    1    2    0  502 -0.16410270594E+02 -0.12454438335E+02  0.81658639093E+02  0.84226814339E+02  0.12700000000E+01 0.  1.
<mgrwt>
<rscale>  1 0.12668237E+03</rscale>
<asrwt>0</asrwt>
<pdfrwt beam="2">  1       21 0.90664511E-03 0.12668237E+03</pdfrwt>
<pdfrwt beam="1">  1       -4 0.14667772E+00 0.12668237E+03</pdfrwt>
<totfact> 0.59022380E+04</totfact>
</mgrwt>
</event>
<event>
 6    4  0.6376098E-003  0.1294116E+03  0.7818608E-02  0.1228331E+00
         21   -1    0    0  501  502  0.00000000000E+00  0.00000000000E+00  0.12663690054E+02  0.12663690054E+02  0.00000000000E+00 0.  1.
          4   -1    0    0  502    0 -0.00000000000E+00 -0.00000000000E+00 -0.52451038023E+03  0.52451191776E+03  0.12700000000E+01 0.  1.
         25    2    1    2    0    0 -0.26499196037E+02 -0.20478931361E+02 -0.41317575751E+03  0.43296831501E+03  0.12500304471E+03 0.  0.
    9000005    1    3    3    0    0 -0.27289035445E+00  0.48334723133E+02 -0.97668315000E+02  0.10897898735E+03  0.10000000000E+01 0.  0.
    9000005    1    3    3    0    0 -0.26226305683E+02 -0.68813654494E+02 -0.31550744251E+03  0.32398932766E+03  0.10000000000E+01 0.  0.
          4    1    1    2  501    0  0.26499196037E+02  0.20478931361E+02 -0.98670932664E+02  0.10420729280E+03  0.12700000000E+01 0. -1.
<mgrwt>
<rscale>  1 0.12941157E+03</rscale>
<asrwt>0</asrwt>
<pdfrwt beam="1">  1       21 0.19482600E-02 0.12941157E+03</pdfrwt>
<pdfrwt beam="2">  1        4 0.80698922E-01 0.12941157E+03</pdfrwt>
<totfact> 0.71596743E+04</totfact>
</mgrwt>
</event>
<event>
 6    4  0.6376098E-003  0.1366211E+03  0.7818608E-02  0.1217949E+00
         21   -1    0    0  501  502  0.00000000000E+00  0.00000000000E+00  0.60228382467E+02  0.60228382467E+02  0.00000000000E+00 0.  1.
         -4   -1    0    0    0  501 -0.00000000000E+00 -0.00000000000E+00 -0.20998747024E+03  0.20999131067E+03  0.12700000000E+01 0. -1.
         25    2    1    2    0    0 -0.54394931109E+02 -0.90124917391E+01 -0.16381178165E+03  0.21330638501E+03  0.12500112215E+03 0.  0.
    9000005    1    3    3    0    0 -0.82585607459E+02 -0.34121138622E+02 -0.74518629097E+02  0.11635575079E+03  0.10000000000E+01 0.  0.
    9000005    1    3    3    0    0  0.28190676349E+02  0.25108646883E+02 -0.89293152554E+02  0.96950634213E+02  0.10000000000E+01 0.  0.
         -4    1    1    2    0  502  0.54394931109E+02  0.90124917391E+01  0.14052693875E+02  0.56913308135E+02  0.12700000000E+01 0.  1.
<mgrwt>
<rscale>  1 0.13662106E+03</rscale>
<asrwt>0</asrwt>
<pdfrwt beam="1">  1       21 0.92659051E-02 0.13662106E+03</pdfrwt>
<pdfrwt beam="2">  1       -4 0.32307090E-01 0.13662106E+03</pdfrwt>
<totfact> 0.34762974E+04</totfact>
</mgrwt>
</event>
<event>
 6    4  0.6376098E-003  0.1294609E+03  0.7818608E-02  0.1228258E+00
         -4   -1    0    0    0  501 -0.00000000000E+00  0.00000000000E+00  0.27970703882E+02  0.27999520990E+02  0.12700000000E+01 0.  1.
         21   -1    0    0  501  502  0.00000000000E+00 -0.00000000000E+00 -0.37231803270E+03  0.37231803270E+03  0.00000000000E+00 0. -1.
         25    2    1    2    0    0  0.44611464325E+00 -0.33710418932E+02 -0.13048659264E+03  0.18381208322E+03  0.12499415873E+03 0.  0.
    9000005    1    3    3    0    0  0.46266859878E+02 -0.10629536693E+02 -0.44036483302E+01  0.47686491713E+02  0.10000000000E+01 0.  0.
    9000005    1    3    3    0    0 -0.45820745235E+02 -0.23080882239E+02 -0.12608294431E+03  0.13612559151E+03  0.10000000000E+01 0.  0.
         -4    1    1    2    0  502 -0.44611464325E+00  0.33710418932E+02 -0.21386073619E+03  0.21650547047E+03  0.12700000000E+01 0. -1.
<mgrwt>
<rscale>  1 0.12946092E+03</rscale>
<asrwt>0</asrwt>
<pdfrwt beam="2">  1       21 0.57279695E-01 0.12946092E+03</pdfrwt>
<pdfrwt beam="1">  1       -4 0.43055687E-02 0.12946092E+03</pdfrwt>
<totfact> 0.35377665E+04</totfact>
</mgrwt>
</event>
<event>
 6    4  0.6376098E-003  0.1283798E+03  0.7818608E-02  0.1229880E+00
          4   -1    0    0  502    0 -0.00000000000E+00  0.00000000000E+00  0.17115656137E+02  0.17162709139E+02  0.12700000000E+01 0.  1.
         21   -1    0    0  501  502  0.00000000000E+00 -0.00000000000E+00 -0.48703296503E+03  0.48703296503E+03  0.00000000000E+00 0.  1.
         25    2    1    2    0    0 -0.29143553693E+02 -0.26714489680E+01 -0.23783345865E+03  0.27027045149E+03  0.12499951814E+03 0.  0.
    9000005    1    3    3    0    0  0.21693601166E+02 -0.46680329893E+02 -0.54405524304E+02  0.74904116077E+02  0.10000000000E+01 0.  0.
    9000005    1    3    3    0    0 -0.50837154859E+02  0.44008880925E+02 -0.18342793435E+03  0.19536633542E+03  0.10000000000E+01 0.  0.
          4    1    1    2  501    0  0.29143553693E+02  0.26714489680E+01 -0.23208385024E+03  0.23392522268E+03  0.12700000000E+01 0. -1.
<mgrwt>
<rscale>  1 0.12837976E+03</rscale>
<asrwt>0</asrwt>
<pdfrwt beam="2">  1       21 0.74928134E-01 0.12837976E+03</pdfrwt>
<pdfrwt beam="1">  1        4 0.26369252E-02 0.12837976E+03</pdfrwt>
<totfact> 0.42848284E+04</totfact>
</mgrwt>
</event>
<event>
 6    4  0.6376098E-003  0.1305002E+03  0.7818608E-02  0.1226715E+00
          4   -1    0    0  502    0 -0.00000000000E+00  0.00000000000E+00  0.11902210545E+03  0.11902888089E+03  0.12700000000E+01 0. -1.
         21   -1    0    0  501  502  0.00000000000E+00 -0.00000000000E+00 -0.59303470687E+02  0.59303470687E+02  0.00000000000E+00 0. -1.
         25    2    1    2    0    0 -0.36297961135E+02 -0.93296102234E+01  0.44833143954E+02  0.13798666598E+03  0.12500290229E+03 0.  0.
    9000005    1    3    3    0    0  0.15885482435E+02 -0.21253898109E+02  0.72866221303E+02  0.77553613352E+02  0.10000000000E+01 0.  0.
    9000005    1    3    3    0    0 -0.52183443569E+02  0.11924287885E+02 -0.28033077349E+02  0.60433052628E+02  0.10000000000E+01 0.  0.
          4    1    1    2  501    0  0.36297961135E+02  0.93296102234E+01  0.14885490807E+02  0.40345685594E+02  0.12700000000E+01 0.  1.
<mgrwt>
<rscale>  1 0.13050023E+03</rscale>
<asrwt>0</asrwt>
<pdfrwt beam="2">  1       21 0.91236109E-02 0.13050023E+03</pdfrwt>
<pdfrwt beam="1">  1        4 0.18312660E-01 0.13050023E+03</pdfrwt>
<totfact> 0.10098395E+05</totfact>
</mgrwt>
</event>
<event>
 6    4  0.6376098E-003  0.1277248E+03  0.7818608E-02  0.1230871E+00
          4   -1    0    0  502    0 -0.00000000000E+00  0.00000000000E+00  0.17377606603E+03  0.17378070671E+03  0.12700000000E+01 0.  1.
         21   -1    0    0  501  502  0.00000000000E+00 -0.00000000000E+00 -0.54143588207E+02  0.54143588207E+02  0.00000000000E+00 0.  1.
         25    2    1    2    0    0 -0.15685444032E+02  0.21027562572E+02  0.14372959791E+03  0.19228056281E+03  0.12500170390E+03 0.  0.
    9000005    1    3    3    0    0  0.54309727930E+02 -0.89472557274E+00  0.63650954504E+02  0.83682680950E+02  0.10000000000E+01 0.  0.
    9000005    1    3    3    0    0 -0.69995171961E+02  0.21922288145E+02  0.80078643405E+02  0.10859788186E+03  0.10000000000E+01 0.  0.
          4    1    1    2  501    0  0.15685444032E+02 -0.21027562572E+02 -0.24097120084E+02  0.35643732107E+02  0.12700000000E+01 0. -1.
<mgrwt>
<rscale>  1 0.12772477E+03</rscale>
<asrwt>0</asrwt>
<pdfrwt beam="2">  1       21 0.83297829E-02 0.12772477E+03</pdfrwt>
<pdfrwt beam="1">  1        4 0.26736282E-01 0.12772477E+03</pdfrwt>
<totfact> 0.59242645E+04</totfact>
</mgrwt>
</event>
<event>
 6    4  0.6376098E-003  0.1269023E+03  0.7818608E-02  0.1232126E+00
          4   -1    0    0  502    0 -0.00000000000E+00  0.00000000000E+00  0.31489344343E+02  0.31514944188E+02  0.12700000000E+01 0.  1.
         21   -1    0    0  501  502  0.00000000000E+00 -0.00000000000E+00 -0.18184746806E+03  0.18184746806E+03  0.00000000000E+00 0.  1.
         25    2    1    2    0    0  0.17773090110E+02 -0.12737695235E+02 -0.11232422792E+03  0.16947253025E+03  0.12500429881E+03 0.  0.
    9000005    1    3    3    0    0 -0.85783695876E+01  0.48890323720E+02 -0.82092661959E+02  0.95937778407E+02  0.10000000000E+01 0.  0.
    9000005    1    3    3    0    0  0.26351459698E+02 -0.61628018955E+02 -0.30231565960E+02  0.73534751845E+02  0.10000000000E+01 0.  0.
          4    1    1    2  501    0 -0.17773090110E+02  0.12737695235E+02 -0.38033895799E+02  0.43889881996E+02  0.12700000000E+01 0. -1.
<mgrwt>
<rscale>  1 0.12690235E+03</rscale>
<asrwt>0</asrwt>
<pdfrwt beam="2">  1       21 0.27976533E-01 0.12690235E+03</pdfrwt>
<pdfrwt beam="1">  1        4 0.48468249E-02 0.12690235E+03</pdfrwt>
<totfact> 0.12265748E+05</totfact>
</mgrwt>
</event>
<event>
 6    4  0.6376098E-003  0.1273720E+03  0.7818608E-02  0.1231408E+00
         21   -1    0    0  501  502  0.00000000000E+00  0.00000000000E+00  0.17920308323E+02  0.17920308323E+02  0.00000000000E+00 0.  1.
          4   -1    0    0  502    0 -0.00000000000E+00 -0.00000000000E+00 -0.38513272580E+03  0.38513481974E+03  0.12700000000E+01 0.  1.
         25    2    1    2    0    0 -0.98606288167E+00 -0.24454544766E+02 -0.35169195725E+03  0.37404660061E+03  0.12499851820E+03 0.  0.
    9000005    1    3    3    0    0 -0.44017591265E+02  0.15979196288E+02 -0.26527341488E+03  0.26937681358E+03  0.10000000000E+01 0.  0.
    9000005    1    3    3    0    0  0.43031528383E+02 -0.40433741054E+02 -0.86418542375E+02  0.10466978703E+03  0.10000000000E+01 0.  0.
          4    1    1    2  501    0  0.98606288167E+00  0.24454544766E+02 -0.15520460221E+02  0.29008527456E+02  0.12700000000E+01 0. -1.
<mgrwt>
<rscale>  1 0.12737200E+03</rscale>
<asrwt>0</asrwt>
<pdfrwt beam="1">  1       21 0.27569706E-02 0.12737200E+03</pdfrwt>
<pdfrwt beam="2">  1        4 0.59254809E-01 0.12737200E+03</pdfrwt>
<totfact> 0.79023533E+04</totfact>
</mgrwt>
</event>
<event>
 6    4  0.6376098E-003  0.1276692E+03  0.7818608E-02  0.1230956E+00
         -4   -1    0    0    0  501 -0.00000000000E+00  0.00000000000E+00  0.88965954608E+03  0.88966045255E+03  0.12700000000E+01 0.  1.
         21   -1    0    0  501  502  0.00000000000E+00 -0.00000000000E+00 -0.95245443816E+01  0.95245443816E+01  0.00000000000E+00 0.  1.
         25    2    1    2    0    0 -0.25869172061E+02  0.21626220935E+01  0.84936844440E+03  0.85890988122E+03  0.12500215487E+03 0.  0.
    9000005    1    3    3    0    0  0.41510508122E+02 -0.29950309508E+01  0.56859446475E+03  0.57011644235E+03  0.10000000000E+01 0.  0.
    9000005    1    3    3    0    0 -0.67379680183E+02  0.51576530444E+01  0.28077397964E+03  0.28879343887E+03  0.10000000000E+01 0.  0.
         -4    1    1    2    0  502  0.25869172061E+02 -0.21626220935E+01  0.30766557303E+02  0.40275115713E+02  0.12700000000E+01 0. -1.
<mgrwt>
<rscale>  1 0.12766922E+03</rscale>
<asrwt>0</asrwt>
<pdfrwt beam="2">  1       21 0.14653152E-02 0.12766922E+03</pdfrwt>
<pdfrwt beam="1">  1       -4 0.13687722E+00 0.12766922E+03</pdfrwt>
<totfact> 0.32863941E+04</totfact>
</mgrwt>
</event>
<event>
 6    4  0.6376098E-003  0.1275397E+03  0.7818608E-02  0.1231153E+00
          4   -1    0    0  502    0 -0.00000000000E+00  0.00000000000E+00  0.11453809348E+03  0.11454513416E+03  0.12700000000E+01 0.  1.
         21   -1    0    0  501  502  0.00000000000E+00 -0.00000000000E+00 -0.14467788334E+03  0.14467788334E+03  0.00000000000E+00 0.  1.
         25    2    1    2    0    0 -0.81716127411E+01 -0.23979638313E+02  0.77094185554E+02  0.14902983853E+03  0.12499832406E+03 0.  0.
    9000005    1    3    3    0    0  0.35021400784E+01  0.28185961304E+02 -0.22329002790E+02  0.36142741531E+02  0.10000000000E+01 0.  0.
    9000005    1    3    3    0    0 -0.11673752820E+02 -0.52165599617E+02  0.99423188344E+02  0.11288709700E+03  0.10000000000E+01 0.  0.
          4    1    1    2  501    0  0.81716127411E+01  0.23979638313E+02 -0.10723397542E+03  0.11019317897E+03  0.12700000000E+01 0. -1.
<mgrwt>
<rscale>  1 0.12753972E+03</rscale>
<asrwt>0</asrwt>
<pdfrwt beam="2">  1       21 0.22258136E-01 0.12753972E+03</pdfrwt>
<pdfrwt beam="1">  1        4 0.17622216E-01 0.12753972E+03</pdfrwt>
<totfact> 0.21691840E+04</totfact>
</mgrwt>
</event>
<event>
 6    4  0.6376098E-003  0.1271931E+03  0.7818608E-02  0.1231681E+00
         -4   -1    0    0    0  501 -0.00000000000E+00  0.00000000000E+00  0.12074510042E+03  0.12075177918E+03  0.12700000000E+01 0. -1.
         21   -1    0    0  501  502  0.00000000000E+00 -0.00000000000E+00 -0.70597608686E+02  0.70597608686E+02  0.00000000000E+00 0.  1.
         25    2    1    2    0    0  0.19019448084E+02  0.13814891781E+02  0.82302025078E+02  0.15149819522E+03  0.12500195672E+03 0.  0.
    9000005    1    3    3    0    0 -0.17935143609E+02 -0.46475796433E+02  0.10909163579E+02  0.51006655255E+02  0.10000000000E+01 0.  0.
    9000005    1    3    3    0    0  0.36954591693E+02  0.60290688214E+02  0.71392861499E+02  0.10049153997E+03  0.10000000000E+01 0.  0.
         -4    1    1    2    0  502 -0.19019448084E+02 -0.13814891781E+02 -0.32154533344E+02  0.39851192641E+02  0.12700000000E+01 0.  1.
<mgrwt>
<rscale>  1 0.12719308E+03</rscale>
<asrwt>0</asrwt>
<pdfrwt beam="2">  1       21 0.10861171E-01 0.12719308E+03</pdfrwt>
<pdfrwt beam="1">  1       -4 0.18577562E-01 0.12719308E+03</pdfrwt>
<totfact> 0.72307077E+04</totfact>
</mgrwt>
</event>
<event>
 6    4  0.6376098E-003  0.1341034E+03  0.7818608E-02  0.1221491E+00
         21   -1    0    0  501  502  0.00000000000E+00  0.00000000000E+00  0.32397761686E+03  0.32397761686E+03  0.00000000000E+00 0. -1.
         -4   -1    0    0    0  501 -0.00000000000E+00 -0.00000000000E+00 -0.12489700476E+03  0.12490346151E+03  0.12700000000E+01 0.  1.
         25    2    1    2    0    0 -0.32014146515E+02 -0.36511293891E+02 -0.86249965011E+02  0.15944519377E+03  0.12500293274E+03 0.  0.
    9000005    1    3    3    0    0  0.46089379358E+02 -0.26051982873E+02 -0.49518187399E+02  0.72498190215E+02  0.10000000000E+01 0.  0.
    9000005    1    3    3    0    0 -0.78103525873E+02 -0.10459311018E+02 -0.36731777613E+02  0.86947003556E+02  0.10000000000E+01 0.  0.
         -4    1    1    2    0  502  0.32014146515E+02  0.36511293891E+02  0.28533057711E+03  0.28943588460E+03  0.12700000000E+01 0. -1.
<mgrwt>
<rscale>  1 0.13410337E+03</rscale>
<asrwt>0</asrwt>
<pdfrwt beam="1">  1       21 0.49842710E-01 0.13410337E+03</pdfrwt>
<pdfrwt beam="2">  1       -4 0.19215612E-01 0.13410337E+03</pdfrwt>
<totfact> 0.38521437E+03</totfact>
</mgrwt>
</event>
<event>
 6    4  0.6376098E-003  0.1456975E+03  0.7818608E-02  0.1205862E+00
          4   -1    0    0  502    0 -0.00000000000E+00  0.00000000000E+00  0.93187353333E+02  0.93196007002E+02  0.12700000000E+01 0.  1.
         21   -1    0    0  501  502  0.00000000000E+00 -0.00000000000E+00 -0.14038781235E+03  0.14038781235E+03  0.00000000000E+00 0. -1.
         25    2    1    2    0    0  0.74516517401E+02  0.68768301119E+01 -0.11395960494E+01  0.14570197734E+03  0.12501106097E+03 0.  0.
    9000005    1    3    3    0    0 -0.74969162463E+01 -0.11220470468E+02  0.46988379866E+02  0.48897960624E+02  0.10000000000E+01 0.  0.
    9000005    1    3    3    0    0  0.82013433647E+02  0.18097300580E+02 -0.48127975915E+02  0.96804016717E+02  0.10000000000E+01 0.  0.
          4    1    1    2  501    0 -0.74516517401E+02 -0.68768301119E+01 -0.46060862966E+02  0.87881842010E+02  0.12700000000E+01 0. -1.
<mgrwt>
<rscale>  1 0.14569752E+03</rscale>
<asrwt>0</asrwt>
<pdfrwt beam="2">  1       21 0.21598125E-01 0.14569752E+03</pdfrwt>
<pdfrwt beam="1">  1        4 0.14337624E-01 0.14569752E+03</pdfrwt>
<totfact> 0.33414707E+04</totfact>
</mgrwt>
</event>
<event>
 6    4  0.6376098E-003  0.1489960E+03  0.7818608E-02  0.1201712E+00
          4   -1    0    0  502    0 -0.00000000000E+00  0.00000000000E+00  0.12790041310E+03  0.12790671825E+03  0.12700000000E+01 0.  1.
         21   -1    0    0  501  502  0.00000000000E+00 -0.00000000000E+00 -0.14023345581E+03  0.14023345581E+03  0.00000000000E+00 0. -1.
         25    2    1    2    0    0  0.55742156997E+02 -0.58917231329E+02  0.58870828997E+02  0.16020485797E+03  0.12498557435E+03 0.  0.
    9000005    1    3    3    0    0  0.41379502582E+02  0.30224759582E+02 -0.20254838938E+01  0.51292318242E+02  0.10000000000E+01 0.  0.
    9000005    1    3    3    0    0  0.14362654416E+02 -0.89141990910E+02  0.60896312891E+02  0.10891253972E+03  0.10000000000E+01 0.  0.
          4    1    1    2  501    0 -0.55742156997E+02  0.58917231329E+02 -0.71203871705E+02  0.10793531609E+03  0.12700000000E+01 0. -1.
<mgrwt>
<rscale>  1 0.14899605E+03</rscale>
<asrwt>0</asrwt>
<pdfrwt beam="2">  1       21 0.21574378E-01 0.14899605E+03</pdfrwt>
<pdfrwt beam="1">  1        4 0.19677914E-01 0.14899605E+03</pdfrwt>
<totfact> 0.19165307E+04</totfact>
</mgrwt>
</event>
<event>
 6    4  0.6376098E-003  0.1282829E+03  0.7818608E-02  0.1230026E+00
          4   -1    0    0  502    0 -0.00000000000E+00  0.00000000000E+00  0.73708999486E+01  0.74795097467E+01  0.12700000000E+01 0. -1.
         21   -1    0    0  501  502  0.00000000000E+00 -0.00000000000E+00 -0.86876282935E+03  0.86876282935E+03  0.00000000000E+00 0. -1.
         25    2    1    2    0    0 -0.19665477871E+02 -0.21122089204E+02 -0.62031083020E+03  0.63343669055E+03  0.12499456470E+03 0.  0.
    9000005    1    3    3    0    0  0.27409648257E+02 -0.12254337305E+02 -0.53297680304E+03  0.53382275165E+03  0.10000000000E+01 0.  0.
    9000005    1    3    3    0    0 -0.47075126129E+02 -0.88677518985E+01 -0.87334027153E+02  0.99613938896E+02  0.10000000000E+01 0.  0.
          4    1    1    2  501    0  0.19665477871E+02  0.21122089204E+02 -0.24108109920E+03  0.24280564854E+03  0.12700000000E+01 0.  1.
<mgrwt>
<rscale>  1 0.12828295E+03</rscale>
<asrwt>0</asrwt>
<pdfrwt beam="2">  1       21 0.13365580E+00 0.12828295E+03</pdfrwt>
<pdfrwt beam="1">  1        4 0.11424108E-02 0.12828295E+03</pdfrwt>
<totfact> 0.39710578E+04</totfact>
</mgrwt>
</event>
<event>
 6    4  0.6376098E-003  0.1354472E+03  0.7818608E-02  0.1219590E+00
          4   -1    0    0  502    0 -0.00000000000E+00  0.00000000000E+00  0.26653862106E+03  0.26654164668E+03  0.12700000000E+01 0.  1.
         21   -1    0    0  501  502  0.00000000000E+00 -0.00000000000E+00 -0.33953525496E+02  0.33953525496E+02  0.00000000000E+00 0. -1.
         25    2    1    2    0    0 -0.51039982020E+02 -0.10735982668E+02  0.18894006732E+03  0.23247427481E+03  0.12500239326E+03 0.  0.
    9000005    1    3    3    0    0 -0.14673541538E+02 -0.33569490951E+02  0.18583003826E+03  0.18940967943E+03  0.10000000000E+01 0.  0.
    9000005    1    3    3    0    0 -0.36366440482E+02  0.22833508284E+02  0.31100290584E+01  0.43064595373E+02  0.10000000000E+01 0.  0.
          4    1    1    2  501    0  0.51039982020E+02  0.10735982668E+02  0.43645028243E+02  0.68020897368E+02  0.12700000000E+01 0. -1.
<mgrwt>
<rscale>  1 0.13544718E+03</rscale>
<asrwt>0</asrwt>
<pdfrwt beam="2">  1       21 0.52236195E-02 0.13544718E+03</pdfrwt>
<pdfrwt beam="1">  1        4 0.41008000E-01 0.13544718E+03</pdfrwt>
<totfact> 0.58338144E+04</totfact>
</mgrwt>
</event>
<event>
 6    4  0.6376098E-003  0.1378833E+03  0.7818608E-02  0.1216206E+00
         21   -1    0    0  501  502  0.00000000000E+00  0.00000000000E+00  0.13915168413E+03  0.13915168413E+03  0.00000000000E+00 0.  1.
          4   -1    0    0  502    0 -0.00000000000E+00 -0.00000000000E+00 -0.16988776614E+03  0.16989251303E+03  0.12700000000E+01 0. -1.
         25    2    1    2    0    0  0.53198371739E+02  0.23591860858E+02 -0.13287198299E+03  0.19148571034E+03  0.12500068299E+03 0.  0.
    9000005    1    3    3    0    0 -0.27754681459E+01 -0.46972962781E+02 -0.55255658686E+02  0.72583402184E+02  0.10000000000E+01 0.  0.
    9000005    1    3    3    0    0  0.55973839885E+02  0.70564823639E+02 -0.77616324303E+02  0.11890230816E+03  0.10000000000E+01 0.  0.
          4    1    1    2  501    0 -0.53198371739E+02 -0.23591860858E+02  0.10213590098E+03  0.11755848682E+03  0.12700000000E+01 0.  1.
<mgrwt>
<rscale>  1 0.13788333E+03</rscale>
<asrwt>0</asrwt>
<pdfrwt beam="1">  1       21 0.21407951E-01 0.13788333E+03</pdfrwt>
<pdfrwt beam="2">  1        4 0.26137390E-01 0.13788333E+03</pdfrwt>
<totfact> 0.11497144E+04</totfact>
</mgrwt>
</event>
<event>
 6    4  0.6376098E-003  0.1267895E+03  0.7818608E-02  0.1232299E+00
         21   -1    0    0  501  502  0.00000000000E+00  0.00000000000E+00  0.44413706702E+03  0.44413706702E+03  0.00000000000E+00 0. -1.
          4   -1    0    0  502    0 -0.00000000000E+00 -0.00000000000E+00 -0.59040780728E+02  0.59054438351E+02  0.12700000000E+01 0.  1.
         25    2    1    2    0    0  0.14388455939E+02 -0.15554176408E+02  0.96614053445E+01  0.12715703514E+03  0.12500643489E+03 0.  0.
    9000005    1    3    3    0    0  0.36726786484E+02 -0.46680868850E+02 -0.34490011341E+02  0.68691493246E+02  0.10000000000E+01 0.  0.
    9000005    1    3    3    0    0 -0.22338330545E+02  0.31126692442E+02  0.44151416685E+02  0.58465541897E+02  0.10000000000E+01 0.  0.
          4    1    1    2  501    0 -0.14388455939E+02  0.15554176408E+02  0.37543488095E+03  0.37603447023E+03  0.12700000000E+01 0. -1.
<mgrwt>
<rscale>  1 0.12678947E+03</rscale>
<asrwt>0</asrwt>
<pdfrwt beam="1">  1       21 0.68328777E-01 0.12678947E+03</pdfrwt>
<pdfrwt beam="2">  1        4 0.90843876E-02 0.12678947E+03</pdfrwt>
<totfact> 0.71778740E+03</totfact>
</mgrwt>
</event>
<event>
 6    4  0.6376098E-003  0.1382867E+03  0.7818608E-02  0.1215653E+00
         21   -1    0    0  501  502  0.00000000000E+00  0.00000000000E+00  0.49409608465E+02  0.49409608465E+02  0.00000000000E+00 0.  1.
          4   -1    0    0  502    0 -0.00000000000E+00 -0.00000000000E+00 -0.52301308584E+03  0.52301462777E+03  0.12700000000E+01 0. -1.
         25    2    1    2    0    0  0.43857284811E+02 -0.39690229506E+02 -0.49152329868E+03  0.51060588422E+03  0.12499776043E+03 0.  0.
    9000005    1    3    3    0    0  0.67342998889E+02  0.42077245350E+01 -0.40658618390E+03  0.41214816436E+03  0.10000000000E+01 0.  0.
    9000005    1    3    3    0    0 -0.23485714078E+02 -0.43897954041E+02 -0.84937114778E+02  0.98457719868E+02  0.10000000000E+01 0.  0.
          4    1    1    2  501    0 -0.43857284811E+02  0.39690229506E+02  0.17919821305E+02  0.61818352007E+02  0.12700000000E+01 0.  1.
<mgrwt>
<rscale>  1 0.13828672E+03</rscale>
<asrwt>0</asrwt>
<pdfrwt beam="1">  1       21 0.76014784E-02 0.13828672E+03</pdfrwt>
<pdfrwt beam="2">  1        4 0.80464924E-01 0.13828672E+03</pdfrwt>
<totfact> 0.75537351E+03</totfact>
</mgrwt>
</event>
<event>
 6    4  0.6376098E-003  0.1441975E+03  0.7818608E-02  0.1207790E+00
         -4   -1    0    0    0  501 -0.00000000000E+00  0.00000000000E+00  0.11961191021E+03  0.11961865224E+03  0.12700000000E+01 0.  1.
         21   -1    0    0  501  502  0.00000000000E+00 -0.00000000000E+00 -0.11286075309E+03  0.11286075309E+03  0.00000000000E+00 0. -1.
         25    2    1    2    0    0 -0.56217535803E+02 -0.44764389531E+02  0.45007316772E+02  0.15105822533E+03  0.12501466704E+03 0.  0.
    9000005    1    3    3    0    0 -0.38301250308E+02 -0.11946744208E+02  0.86402131043E+02  0.95268246132E+02  0.10000000000E+01 0.  0.
    9000005    1    3    3    0    0 -0.17916285494E+02 -0.32817645323E+02 -0.41394814271E+02  0.55789979198E+02  0.10000000000E+01 0.  0.
         -4    1    1    2    0  502  0.56217535803E+02  0.44764389531E+02 -0.38256159651E+02  0.81421180003E+02  0.12700000000E+01 0. -1.
<mgrwt>
<rscale>  1 0.14419753E+03</rscale>
<asrwt>0</asrwt>
<pdfrwt beam="2">  1       21 0.17363193E-01 0.14419753E+03</pdfrwt>
<pdfrwt beam="1">  1       -4 0.18402901E-01 0.14419753E+03</pdfrwt>
<totfact> 0.32185792E+04</totfact>
</mgrwt>
</event>
<event>
 6    4  0.6376098E-003  0.1269310E+03  0.7818608E-02  0.1232082E+00
         -4   -1    0    0    0  501 -0.00000000000E+00  0.00000000000E+00  0.95366508796E+02  0.95374964745E+02  0.12700000000E+01 0.  1.
         21   -1    0    0  501  502  0.00000000000E+00 -0.00000000000E+00 -0.76500516872E+02  0.76500516872E+02  0.00000000000E+00 0.  1.
         25    2    1    2    0    0  0.22036501908E+02  0.81318985289E+00 -0.18695958356E+02  0.12830046925E+03  0.12500081142E+03 0.  0.
    9000005    1    3    3    0    0  0.50527278306E+02 -0.47474090569E+02 -0.20150089789E+02  0.72206795018E+02  0.10000000000E+01 0.  0.
    9000005    1    3    3    0    0 -0.28490776398E+02  0.48287280422E+02  0.14541314335E+01  0.56093674229E+02  0.10000000000E+01 0.  0.
         -4    1    1    2    0  502 -0.22036501908E+02 -0.81318985289E+00  0.37561950281E+02  0.43575012369E+02  0.12700000000E+01 0. -1.
<mgrwt>
<rscale>  1 0.12693097E+03</rscale>
<asrwt>0</asrwt>
<pdfrwt beam="2">  1       21 0.11769310E-01 0.12693097E+03</pdfrwt>
<pdfrwt beam="1">  1       -4 0.14673232E-01 0.12693097E+03</pdfrwt>
<totfact> 0.95044521E+04</totfact>
</mgrwt>
</event>
<event>
 6    4  0.6376098E-003  0.1297199E+03  0.7818608E-02  0.1227872E+00
         21   -1    0    0  501  502  0.00000000000E+00  0.00000000000E+00  0.22617096033E+03  0.22617096033E+03  0.00000000000E+00 0. -1.
         -4   -1    0    0    0  501 -0.00000000000E+00 -0.00000000000E+00 -0.61214218195E+02  0.61227391005E+02  0.12700000000E+01 0.  1.
         25    2    1    2    0    0  0.24070379399E+02 -0.24973883042E+02  0.11684167887E+02  0.13024500929E+03  0.12499665863E+03 0.  0.
    9000005    1    3    3    0    0  0.66925001554E+02  0.12110135173E+02 -0.11538904661E+02  0.68990995990E+02  0.10000000000E+01 0.  0.
    9000005    1    3    3    0    0 -0.42854622155E+02 -0.37084018215E+02  0.23223072548E+02  0.61254013302E+02  0.10000000000E+01 0.  0.
         -4    1    1    2    0  502 -0.24070379399E+02  0.24973883042E+02  0.15327257425E+03  0.15715334205E+03  0.12700000000E+01 0. -1.
<mgrwt>
<rscale>  1 0.12971986E+03</rscale>
<asrwt>0</asrwt>
<pdfrwt beam="1">  1       21 0.34795532E-01 0.12971986E+03</pdfrwt>
<pdfrwt beam="2">  1       -4 0.94188597E-02 0.12971986E+03</pdfrwt>
<totfact> 0.27165676E+04</totfact>
</mgrwt>
</event>
<event>
 6    4  0.6376098E-003  0.1358648E+03  0.7818608E-02  0.1219004E+00
         21   -1    0    0  501  502  0.00000000000E+00  0.00000000000E+00  0.28994835580E+02  0.28994835580E+02  0.00000000000E+00 0. -1.
         -4   -1    0    0    0  501 -0.00000000000E+00 -0.00000000000E+00 -0.54057038803E+03  0.54057187988E+03  0.12700000000E+01 0.  1.
         25    2    1    2    0    0  0.14565790555E+02  0.51193839789E+02 -0.49573998634E+03  0.51402079265E+03  0.12500507885E+03 0.  0.
    9000005    1    3    3    0    0  0.80708824877E+01  0.93015396479E+02 -0.35241975246E+03  0.36457877756E+03  0.10000000000E+01 0.  0.
    9000005    1    3    3    0    0  0.64949080675E+01 -0.41821556690E+02 -0.14332023388E+03  0.14944201509E+03  0.10000000000E+01 0.  0.
         -4    1    1    2    0  502 -0.14565790555E+02 -0.51193839789E+02 -0.15835566119E+02  0.55545922813E+02  0.12700000000E+01 0. -1.
<mgrwt>
<rscale>  1 0.13586479E+03</rscale>
<asrwt>0</asrwt>
<pdfrwt beam="1">  1       21 0.44607440E-02 0.13586479E+03</pdfrwt>
<pdfrwt beam="2">  1       -4 0.83166928E-01 0.13586479E+03</pdfrwt>
<totfact> 0.17307307E+04</totfact>
</mgrwt>
</event>
<event>
 6    4  0.6376098E-003  0.1390185E+03  0.7818608E-02  0.1214656E+00
          4   -1    0    0  502    0 -0.00000000000E+00  0.00000000000E+00  0.41360907762E+03  0.41361102741E+03  0.12700000000E+01 0. -1.
         21   -1    0    0  501  502  0.00000000000E+00 -0.00000000000E+00 -0.38356391344E+02  0.38356391344E+02  0.00000000000E+00 0.  1.
         25    2    1    2    0    0  0.40735829023E+02  0.45171289996E+02  0.36459735398E+03  0.39020171458E+03  0.12500517718E+03 0.  0.
    9000005    1    3    3    0    0  0.16263145136E+02 -0.10439137208E+02  0.30320544427E+03  0.30382232787E+03  0.10000000000E+01 0.  0.
    9000005    1    3    3    0    0  0.24472683886E+02  0.55610427204E+02  0.61391909709E+02  0.86379386708E+02  0.10000000000E+01 0.  0.
          4    1    1    2  501    0 -0.40735829023E+02 -0.45171289996E+02  0.10655332301E+02  0.61765704177E+02  0.12700000000E+01 0.  1.
<mgrwt>
<rscale>  1 0.13901852E+03</rscale>
<asrwt>0</asrwt>
<pdfrwt beam="2">  1       21 0.59009836E-02 0.13901852E+03</pdfrwt>
<pdfrwt beam="1">  1        4 0.63633930E-01 0.13901852E+03</pdfrwt>
<totfact> 0.19376753E+04</totfact>
</mgrwt>
</event>
<event>
 6    4  0.6376098E-003  0.1269555E+03  0.7818608E-02  0.1232045E+00
         21   -1    0    0  501  502  0.00000000000E+00  0.00000000000E+00  0.52141171053E+03  0.52141171053E+03  0.00000000000E+00 0. -1.
         -4   -1    0    0    0  501 -0.00000000000E+00 -0.00000000000E+00 -0.22859998672E+02  0.22895249274E+02  0.12700000000E+01 0.  1.
         25    2    1    2    0    0 -0.20728018666E+02  0.82347128228E+01  0.15646648545E+03  0.20149305069E+03  0.12498090716E+03 0.  0.
    9000005    1    3    3    0    0 -0.47096270117E+01 -0.44039362126E+02  0.10371306946E+02  0.45499560556E+02  0.10000000000E+01 0.  0.
    9000005    1    3    3    0    0 -0.16018391655E+02  0.52274074949E+02  0.14609517850E+03  0.15599349013E+03  0.10000000000E+01 0.  0.
         -4    1    1    2    0  502  0.20728018666E+02 -0.82347128228E+01  0.34208522641E+03  0.34281390911E+03  0.12700000000E+01 0. -1.
<mgrwt>
<rscale>  1 0.12695546E+03</rscale>
<asrwt>0</asrwt>
<pdfrwt beam="1">  1       21 0.80217177E-01 0.12695546E+03</pdfrwt>
<pdfrwt beam="2">  1       -4 0.35197538E-02 0.12695546E+03</pdfrwt>
<totfact> 0.23406950E+04</totfact>
</mgrwt>
</event>
<event>
 6    4  0.6376098E-003  0.1285199E+03  0.7818608E-02  0.1229669E+00
         21   -1    0    0  501  502  0.00000000000E+00  0.00000000000E+00  0.27089963242E+03  0.27089963242E+03  0.00000000000E+00 0.  1.
          4   -1    0    0  502    0 -0.00000000000E+00 -0.00000000000E+00 -0.23580608794E+02  0.23614783740E+02  0.12700000000E+01 0.  1.
         25    2    1    2    0    0 -0.29808862798E+02 -0.21700219378E+01  0.18347996762E+03  0.22401395327E+03  0.12499630172E+03 0.  0.
    9000005    1    3    3    0    0  0.39479733333E+01  0.52469670928E+02  0.13062962099E+03  0.14083234977E+03  0.10000000000E+01 0.  0.
    9000005    1    3    3    0    0 -0.33756836131E+02 -0.54639692866E+02  0.52850346633E+02  0.83181603503E+02  0.10000000000E+01 0.  0.
          4    1    1    2  501    0  0.29808862798E+02  0.21700219378E+01  0.63839056004E+02  0.70500462892E+02  0.12700000000E+01 0. -1.
<mgrwt>
<rscale>  1 0.12851985E+03</rscale>
<asrwt>0</asrwt>
<pdfrwt beam="1">  1       21 0.41676864E-01 0.12851985E+03</pdfrwt>
<pdfrwt beam="2">  1        4 0.36306440E-02 0.12851985E+03</pdfrwt>
<totfact> 0.89093425E+04</totfact>
</mgrwt>
</event>
<event>
 6    4  0.6376098E-003  0.1376058E+03  0.7818608E-02  0.1216587E+00
         21   -1    0    0  501  502  0.00000000000E+00  0.00000000000E+00  0.24423648274E+03  0.24423648274E+03  0.00000000000E+00 0. -1.
         -4   -1    0    0    0  501 -0.00000000000E+00 -0.00000000000E+00 -0.65812613894E+02  0.65824866483E+02  0.12700000000E+01 0.  1.
         25    2    1    2    0    0 -0.55981718010E+02  0.13284825636E+02  0.16959173884E+02  0.13864693920E+03  0.12499968331E+03 0.  0.
    9000005    1    3    3    0    0 -0.33747031162E+02 -0.55333406470E+02  0.13204156895E+01  0.64833567551E+02  0.10000000000E+01 0.  0.
    9000005    1    3    3    0    0 -0.22234686848E+02  0.68618232106E+02  0.15638758194E+02  0.73813371651E+02  0.10000000000E+01 0.  0.
         -4    1    1    2    0  502  0.55981718010E+02 -0.13284825636E+02  0.16146469496E+03  0.17141441002E+03  0.12700000000E+01 0. -1.
<mgrwt>
<rscale>  1 0.13760581E+03</rscale>
<asrwt>0</asrwt>
<pdfrwt beam="1">  1       21 0.37574843E-01 0.13760581E+03</pdfrwt>
<pdfrwt beam="2">  1       -4 0.10126214E-01 0.13760581E+03</pdfrwt>
<totfact> 0.20782543E+04</totfact>
</mgrwt>
</event>
<event>
 6    4  0.6376098E-003  0.1267713E+03  0.7818608E-02  0.1232327E+00
          4   -1    0    0  502    0 -0.00000000000E+00  0.00000000000E+00  0.38152728354E+02  0.38173859915E+02  0.12700000000E+01 0. -1.
         21   -1    0    0  501  502  0.00000000000E+00 -0.00000000000E+00 -0.17071618781E+03  0.17071618781E+03  0.00000000000E+00 0.  1.
         25    2    1    2    0    0  0.11112671334E+01 -0.21083879610E+02 -0.74378846135E+02  0.14698021796E+03  0.12500082730E+03 0.  0.
    9000005    1    3    3    0    0 -0.28760037000E+02 -0.65357489144E+02 -0.29705764809E+02  0.77344512271E+02  0.10000000000E+01 0.  0.
    9000005    1    3    3    0    0  0.29871304133E+02  0.44273609535E+02 -0.44673081326E+02  0.69635705690E+02  0.10000000000E+01 0.  0.
          4    1    1    2  501    0 -0.11112671334E+01  0.21083879610E+02 -0.58184613318E+02  0.61909829761E+02  0.12700000000E+01 0.  1.
<mgrwt>
<rscale>  1 0.12677134E+03</rscale>
<asrwt>0</asrwt>
<pdfrwt beam="2">  1       21 0.26264029E-01 0.12677134E+03</pdfrwt>
<pdfrwt beam="1">  1        4 0.58716394E-02 0.12677134E+03</pdfrwt>
<totfact> 0.10154860E+05</totfact>
</mgrwt>
</event>
<event>
 6    4  0.6376098E-003  0.1268828E+03  0.7818608E-02  0.1232156E+00
         21   -1    0    0  501  502  0.00000000000E+00  0.00000000000E+00  0.47419688625E+03  0.47419688625E+03  0.00000000000E+00 0. -1.
         -4   -1    0    0    0  501 -0.00000000000E+00 -0.00000000000E+00 -0.28054029207E+02  0.28082760811E+02  0.12700000000E+01 0.  1.
         25    2    1    2    0    0 -0.15252965882E+02  0.15546273589E+02  0.11755839609E+03  0.17297173572E+03  0.12499962111E+03 0.  0.
    9000005    1    3    3    0    0 -0.53798454469E+02 -0.29890933165E+02  0.33936535581E+02  0.70288192721E+02  0.10000000000E+01 0.  0.
    9000005    1    3    3    0    0  0.38545488587E+02  0.45437206755E+02  0.83621860508E+02  0.10268354300E+03  0.10000000000E+01 0.  0.
         -4    1    1    2    0  502  0.15252965882E+02 -0.15546273589E+02  0.32858446095E+03  0.32930791134E+03  0.12700000000E+01 0. -1.
<mgrwt>
<rscale>  1 0.12688280E+03</rscale>
<asrwt>0</asrwt>
<pdfrwt beam="1">  1       21 0.72953361E-01 0.12688280E+03</pdfrwt>
<pdfrwt beam="2">  1       -4 0.43183458E-02 0.12688280E+03</pdfrwt>
<totfact> 0.20890203E+04</totfact>
</mgrwt>
</event>
<event>
 6    4  0.6376098E-003  0.1288969E+03  0.7818608E-02  0.1229102E+00
         -4   -1    0    0    0  501 -0.00000000000E+00  0.00000000000E+00  0.92619337708E+03  0.92619424780E+03  0.12700000000E+01 0.  1.
         21   -1    0    0  501  502  0.00000000000E+00 -0.00000000000E+00 -0.86599967086E+01  0.86599967086E+01  0.00000000000E+00 0.  1.
         25    2    1    2    0    0 -0.22183746989E+02  0.22295414614E+02  0.50745149192E+03  0.52356605809E+03  0.12500078557E+03 0.  0.
    9000005    1    3    3    0    0  0.81757490145E+00 -0.34090637310E+02  0.41827873333E+02  0.53976022163E+02  0.10000000000E+01 0.  0.
    9000005    1    3    3    0    0 -0.23001321890E+02  0.56386051924E+02  0.46562361858E+03  0.46959003593E+03  0.10000000000E+01 0.  0.
         -4    1    1    2    0  502  0.22183746989E+02 -0.22295414614E+02  0.41008188846E+03  0.41128818641E+03  0.12700000000E+01 0. -1.
<mgrwt>
<rscale>  1 0.12889686E+03</rscale>
<asrwt>0</asrwt>
<pdfrwt beam="2">  1       21 0.13323079E-02 0.12889686E+03</pdfrwt>
<pdfrwt beam="1">  1       -4 0.14249844E+00 0.12889686E+03</pdfrwt>
<totfact> 0.34627605E+04</totfact>
</mgrwt>
</event>
<event>
 6    4  0.6376098E-003  0.1346494E+03  0.7818608E-02  0.1220715E+00
         21   -1    0    0  501  502  0.00000000000E+00  0.00000000000E+00  0.21851303216E+03  0.21851303216E+03  0.00000000000E+00 0.  1.
         -4   -1    0    0    0  501 -0.00000000000E+00 -0.00000000000E+00 -0.39297684431E+02  0.39318200641E+02  0.12700000000E+01 0.  1.
         25    2    1    2    0    0 -0.28346193083E+02 -0.41254577271E+02  0.12081923406E+03  0.18090811664E+03  0.12500005016E+03 0.  0.
    9000005    1    3    3    0    0 -0.24280518564E+02  0.34647571348E+02  0.53420562028E+01  0.42656011845E+02  0.10000000000E+01 0.  0.
    9000005    1    3    3    0    0 -0.40656745191E+01 -0.75902148619E+02  0.11547717785E+03  0.13825210479E+03  0.10000000000E+01 0.  0.
         -4    1    1    2    0  502  0.28346193083E+02  0.41254577271E+02  0.58396113669E+02  0.76923116160E+02  0.12700000000E+01 0. -1.
<mgrwt>
<rscale>  1 0.13464939E+03</rscale>
<asrwt>0</asrwt>
<pdfrwt beam="1">  1       21 0.33617389E-01 0.13464939E+03</pdfrwt>
<pdfrwt beam="2">  1       -4 0.60476598E-02 0.13464939E+03</pdfrwt>
<totfact> 0.60602933E+04</totfact>
</mgrwt>
</event>
<event>
 6    4  0.6376098E-003  0.1268777E+03  0.7818608E-02  0.1232164E+00
         21   -1    0    0  501  502  0.00000000000E+00  0.00000000000E+00  0.55753639547E+02  0.55753639547E+02  0.00000000000E+00 0.  1.
          4   -1    0    0  502    0 -0.00000000000E+00 -0.00000000000E+00 -0.18721143942E+03  0.18721574707E+03  0.12700000000E+01 0. -1.
         25    2    1    2    0    0 -0.18111393332E+02 -0.12031325125E+02 -0.16180315055E+03  0.20561662822E+03  0.12500065168E+03 0.  0.
    9000005    1    3    3    0    0  0.15848399929E+02 -0.47674427850E+02 -0.17607602305E+02  0.53245192366E+02  0.10000000000E+01 0.  0.
    9000005    1    3    3    0    0 -0.33959793261E+02  0.35643102725E+02 -0.14419554824E+03  0.15237143585E+03  0.10000000000E+01 0.  0.
          4    1    1    2  501    0  0.18111393332E+02  0.12031325125E+02  0.30345350672E+02  0.37352758400E+02  0.12700000000E+01 0.  1.
<mgrwt>
<rscale>  1 0.12687765E+03</rscale>
<asrwt>0</asrwt>
<pdfrwt beam="1">  1       21 0.85774828E-02 0.12687765E+03</pdfrwt>
<pdfrwt beam="2">  1        4 0.28803205E-01 0.12687765E+03</pdfrwt>
<totfact> 0.48958728E+04</totfact>
</mgrwt>
</event>
<event>
 6    4  0.6376098E-003  0.1397355E+03  0.7818608E-02  0.1213685E+00
         21   -1    0    0  501  502  0.00000000000E+00  0.00000000000E+00  0.24872239285E+02  0.24872239285E+02  0.00000000000E+00 0.  1.
          4   -1    0    0  502    0 -0.00000000000E+00 -0.00000000000E+00 -0.62114833835E+03  0.62114963667E+03  0.12700000000E+01 0. -1.
         25    2    1    2    0    0  0.43724245201E+02 -0.44695307729E+02 -0.55196013932E+03  0.56937334473E+03  0.12496611595E+03 0.  0.
    9000005    1    3    3    0    0  0.45514730609E+02  0.26200180569E+02 -0.11166442762E+03  0.12340172025E+03  0.10000000000E+01 0.  0.
    9000005    1    3    3    0    0 -0.17904854084E+01 -0.70895488298E+02 -0.44029571170E+03  0.44597162448E+03  0.10000000000E+01 0.  0.
          4    1    1    2  501    0 -0.43724245201E+02  0.44695307729E+02 -0.44315959745E+02  0.76648531228E+02  0.12700000000E+01 0.  1.
<mgrwt>
<rscale>  1 0.13973550E+03</rscale>
<asrwt>0</asrwt>
<pdfrwt beam="1">  1       21 0.38264984E-02 0.13973550E+03</pdfrwt>
<pdfrwt beam="2">  1        4 0.95563875E-01 0.13973550E+03</pdfrwt>
<totfact> 0.16378146E+04</totfact>
</mgrwt>
</event>
<event>
 6    4  0.6376098E-003  0.1281703E+03  0.7818608E-02  0.1230196E+00
          4   -1    0    0  502    0 -0.00000000000E+00  0.00000000000E+00  0.52901045493E+02  0.52916287798E+02  0.12700000000E+01 0. -1.
         21   -1    0    0  501  502  0.00000000000E+00 -0.00000000000E+00 -0.14020701272E+03  0.14020701272E+03  0.00000000000E+00 0. -1.
         25    2    1    2    0    0 -0.17040325000E+02  0.22629458759E+02 -0.33775050634E+02  0.13254577159E+03  0.12500064976E+03 0.  0.
    9000005    1    3    3    0    0 -0.58830499403E+02  0.49661442443E+02 -0.29959571725E+02  0.82618777911E+02  0.10000000000E+01 0.  0.
    9000005    1    3    3    0    0  0.41790174403E+02 -0.27031983683E+02 -0.38154789087E+01  0.49926993679E+02  0.10000000000E+01 0.  0.
          4    1    1    2  501    0  0.17040325000E+02 -0.22629458759E+02 -0.53530916597E+02  0.60577528932E+02  0.12700000000E+01 0.  1.
<mgrwt>
<rscale>  1 0.12817031E+03</rscale>
<asrwt>0</asrwt>
<pdfrwt beam="2">  1       21 0.21570310E-01 0.12817031E+03</pdfrwt>
<pdfrwt beam="1">  1        4 0.81402374E-02 0.12817031E+03</pdfrwt>
<totfact> 0.86222598E+04</totfact>
</mgrwt>
</event>
<event>
 6    4  0.6376098E-003  0.1272084E+03  0.7818608E-02  0.1231658E+00
         21   -1    0    0  501  502  0.00000000000E+00  0.00000000000E+00  0.16096491859E+03  0.16096491859E+03  0.00000000000E+00 0. -1.
          4   -1    0    0  502    0 -0.00000000000E+00 -0.00000000000E+00 -0.69571074600E+02  0.69582665377E+02  0.12700000000E+01 0.  1.
         25    2    1    2    0    0 -0.20997616298E+02 -0.10795619003E+02 -0.88855732138E+01  0.12751836629E+03  0.12499814019E+03 0.  0.
    9000005    1    3    3    0    0 -0.69275316013E+02 -0.28303931923E+02  0.25981186685E+01  0.74886128165E+02  0.10000000000E+01 0.  0.
    9000005    1    3    3    0    0  0.48277699715E+02  0.17508312920E+02 -0.11483691882E+02  0.52632238128E+02  0.10000000000E+01 0.  0.
          4    1    1    2  501    0  0.20997616298E+02  0.10795619003E+02  0.10027941721E+03  0.10302921768E+03  0.12700000000E+01 0. -1.
<mgrwt>
<rscale>  1 0.12720841E+03</rscale>
<asrwt>0</asrwt>
<pdfrwt beam="1">  1       21 0.24763834E-01 0.12720841E+03</pdfrwt>
<pdfrwt beam="2">  1        4 0.10704519E-01 0.12720841E+03</pdfrwt>
<totfact> 0.42048431E+04</totfact>
</mgrwt>
</event>
<event>
 6    4  0.6376098E-003  0.1320646E+03  0.7818608E-02  0.1224424E+00
          4   -1    0    0  502    0 -0.00000000000E+00  0.00000000000E+00  0.28752490501E+03  0.28752770979E+03  0.12700000000E+01 0. -1.
         21   -1    0    0  501  502  0.00000000000E+00 -0.00000000000E+00 -0.31245999499E+02  0.31245999499E+02  0.00000000000E+00 0. -1.
         25    2    1    2    0    0 -0.42210766598E+02  0.58332984270E+01  0.12927370514E+03  0.18480464567E+03  0.12500116013E+03 0.  0.
    9000005    1    3    3    0    0  0.31720941218E+02  0.22407454079E+02  0.48876305888E+01  0.39156111182E+02  0.10000000000E+01 0.  0.
    9000005    1    3    3    0    0 -0.73931707817E+02 -0.16574155652E+02  0.12438607455E+03  0.14564853449E+03  0.10000000000E+01 0.  0.
          4    1    1    2  501    0  0.42210766598E+02 -0.58332984270E+01  0.12700520037E+03  0.13396906362E+03  0.12700000000E+01 0.  1.
<mgrwt>
<rscale>  1 0.13206463E+03</rscale>
<asrwt>0</asrwt>
<pdfrwt beam="2">  1       21 0.48070771E-02 0.13206463E+03</pdfrwt>
<pdfrwt beam="1">  1        4 0.44236800E-01 0.13206463E+03</pdfrwt>
<totfact> 0.57525315E+04</totfact>
</mgrwt>
</event>
<event>
 6    4  0.6376098E-003  0.1758164E+03  0.7818608E-02  0.1171915E+00
         21   -1    0    0  501  502  0.00000000000E+00  0.00000000000E+00  0.48658648161E+02  0.48658648161E+02  0.00000000000E+00 0. -1.
          4   -1    0    0  502    0 -0.00000000000E+00 -0.00000000000E+00 -0.57546224877E+03  0.57546365017E+03  0.12700000000E+01 0.  1.
         25    2    1    2    0    0 -0.83963459562E+02  0.90750673077E+02 -0.43778209931E+03  0.47176748941E+03  0.12500340149E+03 0.  0.
    9000005    1    3    3    0    0 -0.66371835356E+02  0.50271971984E+02 -0.41265082568E+03  0.42096816463E+03  0.10000000000E+01 0.  0.
    9000005    1    3    3    0    0 -0.17591624206E+02  0.40478701093E+02 -0.25131273634E+02  0.50799324788E+02  0.10000000000E+01 0.  0.
          4    1    1    2  501    0  0.83963459562E+02 -0.90750673077E+02 -0.89021501301E+02  0.15235480891E+03  0.12700000000E+01 0. -1.
<mgrwt>
<rscale>  1 0.17581637E+03</rscale>
<asrwt>0</asrwt>
<pdfrwt beam="1">  1       21 0.74859460E-02 0.17581637E+03</pdfrwt>
<pdfrwt beam="2">  1        4 0.88534035E-01 0.17581637E+03</pdfrwt>
<totfact> 0.63713280E+03</totfact>
</mgrwt>
</event>
<event>
 6    4  0.6376098E-003  0.1266054E+03  0.7818608E-02  0.1232581E+00
         21   -1    0    0  501  502  0.00000000000E+00  0.00000000000E+00  0.42292716225E+03  0.42292716225E+03  0.00000000000E+00 0.  1.
          4   -1    0    0  502    0 -0.00000000000E+00 -0.00000000000E+00 -0.13081811953E+02  0.13143314041E+02  0.12700000000E+01 0.  1.
         25    2    1    2    0    0  0.20028950355E+02  0.12030918381E+01  0.32295664256E+03  0.34688602297E+03  0.12500525459E+03 0.  0.
    9000005    1    3    3    0    0  0.58978514197E+02  0.13231689181E+02  0.78644150433E+02  0.99193977301E+02  0.10000000000E+01 0.  0.
    9000005    1    3    3    0    0 -0.38949563843E+02 -0.12028597343E+02  0.24431249213E+03  0.24769204567E+03  0.10000000000E+01 0.  0.
          4    1    1    2  501    0 -0.20028950355E+02 -0.12030918381E+01  0.86888707739E+02  0.89184453325E+02  0.12700000000E+01 0. -1.
<mgrwt>
<rscale>  1 0.12660537E+03</rscale>
<asrwt>0</asrwt>
<pdfrwt beam="1">  1       21 0.65065707E-01 0.12660537E+03</pdfrwt>
<pdfrwt beam="2">  1        4 0.20174644E-02 0.12660537E+03</pdfrwt>
<totfact> 0.88050642E+04</totfact>
</mgrwt>
</event>
<event>
 6    4  0.6376098E-003  0.1269787E+03  0.7818608E-02  0.1232009E+00
          4   -1    0    0  502    0 -0.00000000000E+00  0.00000000000E+00  0.54289757841E+02  0.54304610361E+02  0.12700000000E+01 0. -1.
         21   -1    0    0  501  502  0.00000000000E+00 -0.00000000000E+00 -0.10307985370E+03  0.10307985370E+03  0.00000000000E+00 0. -1.
         25    2    1    2    0    0 -0.44153047348E+01 -0.21762174275E+02 -0.37264894136E+02  0.13233390878E+03  0.12502201379E+03 0.  0.
    9000005    1    3    3    0    0 -0.52264002037E+01  0.25336780414E+01 -0.81572862901E+02  0.81785492267E+02  0.10000000000E+01 0.  0.
    9000005    1    3    3    0    0  0.81109546897E+00 -0.24295852317E+02  0.44307968766E+02  0.50548416511E+02  0.10000000000E+01 0.  0.
          4    1    1    2  501    0  0.44153047348E+01  0.21762174275E+02 -0.11525201719E+02  0.25050555278E+02  0.12700000000E+01 0.  1.
<mgrwt>
<rscale>  1 0.12697870E+03</rscale>
<asrwt>0</asrwt>
<pdfrwt beam="2">  1       21 0.15858439E-01 0.12697870E+03</pdfrwt>
<pdfrwt beam="1">  1        4 0.83540149E-02 0.12697870E+03</pdfrwt>
<totfact> 0.14506259E+05</totfact>
</mgrwt>
</event>
<event>
 6    4  0.6376098E-003  0.1293580E+03  0.7818608E-02  0.1228412E+00
         21   -1    0    0  501  502  0.00000000000E+00  0.00000000000E+00  0.26295137084E+02  0.26295137084E+02  0.00000000000E+00 0. -1.
          4   -1    0    0  502    0 -0.00000000000E+00 -0.00000000000E+00 -0.58921837782E+03  0.58921974650E+03  0.12700000000E+01 0. -1.
         25    2    1    2    0    0 -0.29771258074E+02  0.14911229463E+02 -0.56734182056E+03  0.58190224728E+03  0.12499924588E+03 0.  0.
    9000005    1    3    3    0    0 -0.45279239236E+02 -0.37481635232E+02 -0.15186459360E+03  0.16284636095E+03  0.10000000000E+01 0.  0.
    9000005    1    3    3    0    0  0.15507981162E+02  0.52392864695E+02 -0.41547722696E+03  0.41905588633E+03  0.10000000000E+01 0.  0.
          4    1    1    2  501    0  0.29771258074E+02 -0.14911229463E+02  0.44185798180E+01  0.33612636299E+02  0.12700000000E+01 0.  1.
<mgrwt>
<rscale>  1 0.12935797E+03</rscale>
<asrwt>0</asrwt>
<pdfrwt beam="1">  1       21 0.40454056E-02 0.12935797E+03</pdfrwt>
<pdfrwt beam="2">  1        4 0.90651449E-01 0.12935797E+03</pdfrwt>
<totfact> 0.16703796E+04</totfact>
</mgrwt>
</event>
<event>
 6    4  0.6376098E-003  0.1335138E+03  0.7818608E-02  0.1222333E+00
         21   -1    0    0  501  502  0.00000000000E+00  0.00000000000E+00  0.11485726964E+03  0.11485726964E+03  0.00000000000E+00 0. -1.
          4   -1    0    0  502    0 -0.00000000000E+00 -0.00000000000E+00 -0.89665040735E+02  0.89674034313E+02  0.12700000000E+01 0. -1.
         25    2    1    2    0    0 -0.41313185228E+02  0.22201294343E+02 -0.24990006803E+02  0.13583234890E+03  0.12500499920E+03 0.  0.
    9000005    1    3    3    0    0 -0.73439179907E+02  0.51567022946E+02 -0.13023303255E+02  0.90681185637E+02  0.10000000000E+01 0.  0.
    9000005    1    3    3    0    0  0.32125994679E+02 -0.29365728603E+02 -0.11966703548E+02  0.45151163266E+02  0.10000000000E+01 0.  0.
          4    1    1    2  501    0  0.41313185228E+02 -0.22201294343E+02  0.50182235704E+02  0.68698955046E+02  0.12700000000E+01 0. -1.
<mgrwt>
<rscale>  1 0.13351377E+03</rscale>
<asrwt>0</asrwt>
<pdfrwt beam="1">  1       21 0.17670349E-01 0.13351377E+03</pdfrwt>
<pdfrwt beam="2">  1        4 0.13795854E-01 0.13351377E+03</pdfrwt>
<totfact> 0.51283125E+04</totfact>
</mgrwt>
</event>
<event>
 6    4  0.6376098E-003  0.1265895E+03  0.7818608E-02  0.1232606E+00
         -4   -1    0    0    0  501 -0.00000000000E+00  0.00000000000E+00  0.12225503239E+04  0.12225509836E+04  0.12700000000E+01 0.  1.
         21   -1    0    0  501  502  0.00000000000E+00 -0.00000000000E+00 -0.44176651099E+01  0.44176651099E+01  0.00000000000E+00 0.  1.
         25    2    1    2    0    0  0.16510098745E+02  0.11298295706E+02  0.10786626407E+04  0.10860653708E+04  0.12499865000E+03 0.  0.
    9000005    1    3    3    0    0  0.96211485845E+01 -0.54207326158E+02  0.33547205528E+03  0.33996102803E+03  0.10000000000E+01 0.  0.
    9000005    1    3    3    0    0  0.68889501606E+01  0.65505621864E+02  0.74319058539E+03  0.74610434280E+03  0.10000000000E+01 0.  0.
         -4    1    1    2    0  502 -0.16510098745E+02 -0.11298295706E+02  0.13947001814E+03  0.14090327784E+03  0.12700000000E+01 0. -1.
<mgrwt>
<rscale>  1 0.12658948E+03</rscale>
<asrwt>0</asrwt>
<pdfrwt beam="2">  1       21 0.67964176E-03 0.12658948E+03</pdfrwt>
<pdfrwt beam="1">  1       -4 0.18809849E+00 0.12658948E+03</pdfrwt>
<totfact> 0.48070906E+04</totfact>
</mgrwt>
</event>
<event>
 6    4  0.6376098E-003  0.1314573E+03  0.7818608E-02  0.1225309E+00
         21   -1    0    0  501  502  0.00000000000E+00  0.00000000000E+00  0.29031010090E+02  0.29031010090E+02  0.00000000000E+00 0. -1.
          4   -1    0    0  502    0 -0.00000000000E+00 -0.00000000000E+00 -0.31493048827E+03  0.31493304899E+03  0.12700000000E+01 0.  1.
         25    2    1    2    0    0  0.23595387066E+02 -0.33151209128E+02 -0.26991995067E+03  0.30022959718E+03  0.12500114519E+03 0.  0.
    9000005    1    3    3    0    0  0.72624645012E+02 -0.67492018423E+00 -0.15037905396E+03  0.16700195942E+03  0.10000000000E+01 0.  0.
    9000005    1    3    3    0    0 -0.49029257946E+02 -0.32476288943E+02 -0.11954089670E+03  0.13322763776E+03  0.10000000000E+01 0.  0.
          4    1    1    2  501    0 -0.23595387066E+02  0.33151209128E+02 -0.15979527515E+02  0.43734461893E+02  0.12700000000E+01 0. -1.
<mgrwt>
<rscale>  1 0.13145734E+03</rscale>
<asrwt>0</asrwt>
<pdfrwt beam="1">  1       21 0.44663092E-02 0.13145734E+03</pdfrwt>
<pdfrwt beam="2">  1        4 0.48453179E-01 0.13145734E+03</pdfrwt>
<totfact> 0.54141913E+04</totfact>
</mgrwt>
</event>
<event>
 6    4  0.6376098E-003  0.1278057E+03  0.7818608E-02  0.1230748E+00
         21   -1    0    0  501  502  0.00000000000E+00  0.00000000000E+00  0.12027330703E+02  0.12027330703E+02  0.00000000000E+00 0.  1.
          4   -1    0    0  502    0 -0.00000000000E+00 -0.00000000000E+00 -0.76857433567E+03  0.76857538495E+03  0.12700000000E+01 0.  1.
         25    2    1    2    0    0  0.17778024789E+01  0.26558881265E+02 -0.73583488813E+03  0.74685157582E+03  0.12500303585E+03 0.  0.
    9000005    1    3    3    0    0  0.30232233262E+02 -0.11170171835E+02 -0.50681631719E+02  0.60069863164E+02  0.10000000000E+01 0.  0.
    9000005    1    3    3    0    0 -0.28454430783E+02  0.37729053101E+02 -0.68515325641E+03  0.68678171266E+03  0.10000000000E+01 0.  0.
          4    1    1    2  501    0 -0.17778024789E+01 -0.26558881265E+02 -0.20712116839E+02  0.33751139828E+02  0.12700000000E+01 0. -1.
<mgrwt>
<rscale>  1 0.12780569E+03</rscale>
<asrwt>0</asrwt>
<pdfrwt beam="1">  1       21 0.18503585E-02 0.12780569E+03</pdfrwt>
<pdfrwt beam="2">  1        4 0.11824745E+00 0.12780569E+03</pdfrwt>
<totfact> 0.32290210E+04</totfact>
</mgrwt>
</event>
<event>
 6    4  0.6376098E-003  0.1273918E+03  0.7818608E-02  0.1231378E+00
         -4   -1    0    0    0  501 -0.00000000000E+00  0.00000000000E+00  0.66810128334E+02  0.66822198018E+02  0.12700000000E+01 0. -1.
         21   -1    0    0  501  502  0.00000000000E+00 -0.00000000000E+00 -0.17234007974E+03  0.17234007974E+03  0.00000000000E+00 0. -1.
         25    2    1    2    0    0  0.23569008236E+02 -0.69791088778E+01  0.34488875712E+01  0.12743848282E+03  0.12499786386E+03 0.  0.
    9000005    1    3    3    0    0  0.35863173788E+02 -0.61642565525E+02  0.33254538202E+01  0.71400502532E+02  0.10000000000E+01 0.  0.
    9000005    1    3    3    0    0 -0.12294165552E+02  0.54663456647E+02  0.12343375105E+00  0.56037980291E+02  0.10000000000E+01 0.  0.
         -4    1    1    2    0  502 -0.23569008236E+02  0.69791088778E+01 -0.10897883898E+03  0.11172379494E+03  0.12700000000E+01 0.  1.
<mgrwt>
<rscale>  1 0.12739181E+03</rscale>
<asrwt>0</asrwt>
<pdfrwt beam="2">  1       21 0.26513858E-01 0.12739181E+03</pdfrwt>
<pdfrwt beam="1">  1       -4 0.10279770E-01 0.12739181E+03</pdfrwt>
<totfact> 0.39569349E+04</totfact>
</mgrwt>
</event>
<event>
 6    4  0.6376098E-003  0.1271862E+03  0.7818608E-02  0.1231692E+00
          4   -1    0    0  502    0 -0.00000000000E+00  0.00000000000E+00  0.59016639807E+03  0.59016776455E+03  0.12700000000E+01 0.  1.
         21   -1    0    0  501  502  0.00000000000E+00 -0.00000000000E+00 -0.11376725914E+02  0.11376725914E+02  0.00000000000E+00 0. -1.
         25    2    1    2    0    0  0.23473744284E+02  0.92214235400E+00  0.54923734155E+03  0.56377121735E+03  0.12499784455E+03 0.  0.
    9000005    1    3    3    0    0 -0.21496850500E+02 -0.50049186994E+02  0.32224252453E+03  0.32681536120E+03  0.10000000000E+01 0.  0.
    9000005    1    3    3    0    0  0.44970594784E+02  0.50971329348E+02  0.22699481702E+03  0.23695585616E+03  0.10000000000E+01 0.  0.
          4    1    1    2  501    0 -0.23473744284E+02 -0.92214235400E+00  0.29552330605E+02  0.37773273109E+02  0.12700000000E+01 0. -1.
<mgrwt>
<rscale>  1 0.12718619E+03</rscale>
<asrwt>0</asrwt>
<pdfrwt beam="2">  1       21 0.17502660E-02 0.12718619E+03</pdfrwt>
<pdfrwt beam="1">  1        4 0.90800364E-01 0.12718619E+03</pdfrwt>
<totfact> 0.65189729E+04</totfact>
</mgrwt>
</event>
<event>
 6    4  0.6376098E-003  0.1291774E+03  0.7818608E-02  0.1228681E+00
         21   -1    0    0  501  502  0.00000000000E+00  0.00000000000E+00  0.17232432132E+03  0.17232432132E+03  0.00000000000E+00 0.  1.
         -4   -1    0    0    0  501 -0.00000000000E+00 -0.00000000000E+00 -0.12505836554E+03  0.12506481396E+03  0.12700000000E+01 0.  1.
         25    2    1    2    0    0 -0.30353319875E+02 -0.11830506510E+02 -0.89265244128E+02  0.15701938654E+03  0.12500207610E+03 0.  0.
    9000005    1    3    3    0    0 -0.19776422152E+02  0.20338210801E+02 -0.11244377902E+03  0.11597134617E+03  0.10000000000E+01 0.  0.
    9000005    1    3    3    0    0 -0.10576897723E+02 -0.32168717311E+02  0.23178534890E+02  0.41048040373E+02  0.10000000000E+01 0.  0.
         -4    1    1    2    0  502  0.30353319875E+02  0.11830506510E+02  0.13653119991E+03  0.14036974874E+03  0.12700000000E+01 0. -1.
<mgrwt>
<rscale>  1 0.12917741E+03</rscale>
<asrwt>0</asrwt>
<pdfrwt beam="1">  1       21 0.26511434E-01 0.12917741E+03</pdfrwt>
<pdfrwt beam="2">  1       -4 0.19240604E-01 0.12917741E+03</pdfrwt>
<totfact> 0.13360039E+04</totfact>
</mgrwt>
</event>
<event>
 6    4  0.6376098E-003  0.1301612E+03  0.7818608E-02  0.1227217E+00
         -4   -1    0    0    0  501 -0.00000000000E+00  0.00000000000E+00  0.61649306379E+02  0.61662386242E+02  0.12700000000E+01 0. -1.
         21   -1    0    0  501  502  0.00000000000E+00 -0.00000000000E+00 -0.23898608224E+03  0.23898608224E+03  0.00000000000E+00 0.  1.
         25    2    1    2    0    0 -0.16447621492E+02  0.32353778957E+02 -0.11260090989E+02  0.13064738194E+03  0.12499862997E+03 0.  0.
    9000005    1    3    3    0    0 -0.38613690072E+02 -0.11173658725E+02 -0.52904114145E+02  0.66450831476E+02  0.10000000000E+01 0.  0.
    9000005    1    3    3    0    0  0.22166068580E+02  0.43527437682E+02  0.41644023156E+02  0.64196550469E+02  0.10000000000E+01 0.  0.
         -4    1    1    2    0  502  0.16447621492E+02 -0.32353778957E+02 -0.16607668487E+03  0.17000108654E+03  0.12700000000E+01 0.  1.
<mgrwt>
<rscale>  1 0.13016124E+03</rscale>
<asrwt>0</asrwt>
<pdfrwt beam="2">  1       21 0.36767089E-01 0.13016124E+03</pdfrwt>
<pdfrwt beam="1">  1       -4 0.94857745E-02 0.13016124E+03</pdfrwt>
<totfact> 0.24091429E+04</totfact>
</mgrwt>
</event>
<event>
 6    4  0.6376098E-003  0.1267872E+03  0.7818608E-02  0.1232302E+00
         21   -1    0    0  501  502  0.00000000000E+00  0.00000000000E+00  0.65719512578E+03  0.65719512578E+03  0.00000000000E+00 0.  1.
          4   -1    0    0  502    0 -0.00000000000E+00 -0.00000000000E+00 -0.83214540684E+01  0.84178083735E+01  0.12700000000E+01 0.  1.
         25    2    1    2    0    0  0.85659614692E+01  0.19494148440E+02  0.56742486324E+03  0.58141721680E+03  0.12498642746E+03 0.  0.
    9000005    1    3    3    0    0 -0.34209062223E+02 -0.98839567241E+01  0.49977780744E+02  0.61373700449E+02  0.10000000000E+01 0.  0.
    9000005    1    3    3    0    0  0.42775023692E+02  0.29378105164E+02  0.51744708250E+03  0.52004351635E+03  0.10000000000E+01 0.  0.
          4    1    1    2  501    0 -0.85659614692E+01 -0.19494148440E+02  0.81448808470E+02  0.84195717352E+02  0.12700000000E+01 0. -1.
<mgrwt>
<rscale>  1 0.12678724E+03</rscale>
<asrwt>0</asrwt>
<pdfrwt beam="1">  1       21 0.10110690E+00 0.12678724E+03</pdfrwt>
<pdfrwt beam="2">  1        4 0.12877305E-02 0.12678724E+03</pdfrwt>
<totfact> 0.65058363E+04</totfact>
</mgrwt>
</event>
<event>
 6    4  0.6376098E-003  0.1336561E+03  0.7818608E-02  0.1222129E+00
         21   -1    0    0  501  502  0.00000000000E+00  0.00000000000E+00  0.38551805298E+03  0.38551805298E+03  0.00000000000E+00 0.  1.
         -4   -1    0    0    0  501 -0.00000000000E+00 -0.00000000000E+00 -0.41098960090E+02  0.41118577559E+02  0.12700000000E+01 0. -1.
         25    2    1    2    0    0 -0.46176903215E+02 -0.10325405481E+02  0.75343688033E+02  0.15342955379E+03  0.12500014504E+03 0.  0.
    9000005    1    3    3    0    0 -0.58966851060E+01  0.28029248346E+02  0.91189919018E+02  0.95587713587E+02  0.10000000000E+01 0.  0.
    9000005    1    3    3    0    0 -0.40280218109E+02 -0.38354653827E+02 -0.15846230986E+02  0.57841840199E+02  0.10000000000E+01 0.  0.
         -4    1    1    2    0  502  0.46176903215E+02  0.10325405481E+02  0.26907540486E+03  0.27320707675E+03  0.12700000000E+01 0.  1.
<mgrwt>
<rscale>  1 0.13365611E+03</rscale>
<asrwt>0</asrwt>
<pdfrwt beam="1">  1       21 0.59310467E-01 0.13365611E+03</pdfrwt>
<pdfrwt beam="2">  1       -4 0.63245872E-02 0.13365611E+03</pdfrwt>
<totfact> 0.17741307E+04</totfact>
</mgrwt>
</event>
<event>
 6    4  0.6376098E-003  0.1290719E+03  0.7818608E-02  0.1228839E+00
         -4   -1    0    0    0  501 -0.00000000000E+00  0.00000000000E+00  0.16134091711E+03  0.16134591546E+03  0.12700000000E+01 0.  1.
         21   -1    0    0  501  502  0.00000000000E+00 -0.00000000000E+00 -0.14439749158E+03  0.14439749158E+03  0.00000000000E+00 0. -1.
         25    2    1    2    0    0  0.29245055474E+02 -0.13384209726E+02  0.13298362336E+03  0.18532185269E+03  0.12500053865E+03 0.  0.
    9000005    1    3    3    0    0  0.28329781470E+02 -0.11663009564E+02  0.15762774296E+03  0.16058053325E+03  0.10000000000E+01 0.  0.
    9000005    1    3    3    0    0  0.91527400368E+00 -0.17212001622E+01 -0.24644119600E+02  0.24741319435E+02  0.10000000000E+01 0.  0.
         -4    1    1    2    0  502 -0.29245055474E+02  0.13384209726E+02 -0.11604019783E+03  0.12042155435E+03  0.12700000000E+01 0. -1.
<mgrwt>
<rscale>  1 0.12907186E+03</rscale>
<asrwt>0</asrwt>
<pdfrwt beam="2">  1       21 0.22214999E-01 0.12907186E+03</pdfrwt>
<pdfrwt beam="1">  1       -4 0.24822494E-01 0.12907186E+03</pdfrwt>
<totfact> 0.11738679E+04</totfact>
</mgrwt>
</event>
<event>
 6    4  0.6376098E-003  0.1266335E+03  0.7818608E-02  0.1232538E+00
         21   -1    0    0  501  502  0.00000000000E+00  0.00000000000E+00  0.15903863702E+03  0.15903863702E+03  0.00000000000E+00 0.  1.
          4   -1    0    0  502    0 -0.00000000000E+00 -0.00000000000E+00 -0.92931798052E+02  0.92940475516E+02  0.12700000000E+01 0. -1.
         25    2    1    2    0    0  0.19962566616E+02  0.34669193408E+01 -0.48488574914E+02  0.13559936611E+03  0.12500209037E+03 0.  0.
    9000005    1    3    3    0    0 -0.22632930244E+02 -0.16189300621E+02 -0.76183788711E+02  0.81112962271E+02  0.10000000000E+01 0.  0.
    9000005    1    3    3    0    0  0.42595496860E+02  0.19656219961E+02  0.27695213797E+02  0.54486403837E+02  0.10000000000E+01 0.  0.
          4    1    1    2  501    0 -0.19962566616E+02 -0.34669193408E+01  0.11459541388E+03  0.11637974643E+03  0.12700000000E+01 0.  1.
<mgrwt>
<rscale>  1 0.12663351E+03</rscale>
<asrwt>0</asrwt>
<pdfrwt beam="1">  1       21 0.24467483E-01 0.12663351E+03</pdfrwt>
<pdfrwt beam="2">  1        4 0.14298257E-01 0.12663351E+03</pdfrwt>
<totfact> 0.26184259E+04</totfact>
</mgrwt>
</event>
<event>
 6    4  0.6376098E-003  0.1309092E+03  0.7818608E-02  0.1226113E+00
         21   -1    0    0  501  502  0.00000000000E+00  0.00000000000E+00  0.12571777426E+03  0.12571777426E+03  0.00000000000E+00 0. -1.
         -4   -1    0    0    0  501 -0.00000000000E+00 -0.00000000000E+00 -0.63753563748E+02  0.63766211982E+02  0.12700000000E+01 0. -1.
         25    2    1    2    0    0 -0.38578802528E+02 -0.48398885248E+01  0.71870500316E+02  0.14934054340E+03  0.12500192223E+03 0.  0.
    9000005    1    3    3    0    0 -0.10013620755E+01 -0.60992100291E+02  0.48165659019E+02  0.77730108277E+02  0.10000000000E+01 0.  0.
    9000005    1    3    3    0    0 -0.37577440453E+02  0.56152211767E+02  0.23704841298E+02  0.71610435121E+02  0.10000000000E+01 0.  0.
         -4    1    1    2    0  502  0.38578802528E+02  0.48398885248E+01 -0.99062898074E+01  0.40143442842E+02  0.12700000000E+01 0.  1.
<mgrwt>
<rscale>  1 0.13090924E+03</rscale>
<asrwt>0</asrwt>
<pdfrwt beam="1">  1       21 0.19341196E-01 0.13090924E+03</pdfrwt>
<pdfrwt beam="2">  1       -4 0.98097070E-02 0.13090924E+03</pdfrwt>
<totfact> 0.77520843E+04</totfact>
</mgrwt>
</event>
<event>
 6    4  0.6376098E-003  0.1266980E+03  0.7818608E-02  0.1232439E+00
         -4   -1    0    0    0  501 -0.00000000000E+00  0.00000000000E+00  0.98309720022E+03  0.98309802054E+03  0.12700000000E+01 0.  1.
         21   -1    0    0  501  502  0.00000000000E+00 -0.00000000000E+00 -0.67134931678E+01  0.67134931678E+01  0.00000000000E+00 0.  1.
         25    2    1    2    0    0  0.17203488653E+01  0.20592622253E+02  0.93492607578E+03  0.94347185701E+03  0.12500144843E+03 0.  0.
    9000005    1    3    3    0    0  0.43880917814E+02 -0.32434096183E+02  0.54268767502E+03  0.54542498858E+03  0.10000000000E+01 0.  0.
    9000005    1    3    3    0    0 -0.42160568949E+02  0.53026718436E+02  0.39223840076E+03  0.39804686843E+03  0.10000000000E+01 0.  0.
         -4    1    1    2    0  502 -0.17203488653E+01 -0.20592622253E+02  0.41457631271E+02  0.46339656690E+02  0.12700000000E+01 0. -1.
<mgrwt>
<rscale>  1 0.12669798E+03</rscale>
<asrwt>0</asrwt>
<pdfrwt beam="2">  1       21 0.10328459E-02 0.12669798E+03</pdfrwt>
<pdfrwt beam="1">  1       -4 0.15125491E+00 0.12669798E+03</pdfrwt>
<totfact> 0.44476217E+04</totfact>
</mgrwt>
</event>
<event>
 6    4  0.6376098E-003  0.1506041E+03  0.7818608E-02  0.1199733E+00
          4   -1    0    0  502    0 -0.00000000000E+00  0.00000000000E+00  0.57002359804E+03  0.57002501281E+03  0.12700000000E+01 0.  1.
         21   -1    0    0  501  502  0.00000000000E+00 -0.00000000000E+00 -0.49262480472E+02  0.49262480472E+02  0.00000000000E+00 0. -1.
         25    2    1    2    0    0 -0.73859623675E+02  0.40015107422E+02  0.51330769607E+03  0.53494521904E+03  0.12500057479E+03 0.  0.
    9000005    1    3    3    0    0 -0.14180831133E+02 -0.69289507135E+01  0.38870767039E+03  0.38902925256E+03  0.10000000000E+01 0.  0.
    9000005    1    3    3    0    0 -0.59678792542E+02  0.46944058136E+02  0.12460002568E+03  0.14591596648E+03  0.10000000000E+01 0.  0.
          4    1    1    2  501    0  0.73859623675E+02 -0.40015107422E+02  0.74534214995E+01  0.84342274237E+02  0.12700000000E+01 0. -1.
<mgrwt>
<rscale>  1 0.15060411E+03</rscale>
<asrwt>0</asrwt>
<pdfrwt beam="2">  1       21 0.75788435E-02 0.15060411E+03</pdfrwt>
<pdfrwt beam="1">  1        4 0.87697302E-01 0.15060411E+03</pdfrwt>
<totfact> 0.63066120E+03</totfact>
</mgrwt>
</event>
<event>
 6    4  0.6376098E-003  0.1266708E+03  0.7818608E-02  0.1232481E+00
         21   -1    0    0  501  502  0.00000000000E+00  0.00000000000E+00  0.43324679248E+02  0.43324679248E+02  0.00000000000E+00 0.  1.
         -4   -1    0    0    0  501 -0.00000000000E+00 -0.00000000000E+00 -0.40913474189E+03  0.40913671299E+03  0.12700000000E+01 0. -1.
         25    2    1    2    0    0 -0.19583851792E+02 -0.66778139136E+01 -0.39604124990E+03  0.41580545093E+03  0.12496952009E+03 0.  0.
    9000005    1    3    3    0    0  0.10264405564E+02 -0.44679732014E+02 -0.56148293532E+02  0.72493222724E+02  0.10000000000E+01 0.  0.
    9000005    1    3    3    0    0 -0.29848257356E+02  0.38001918100E+02 -0.33989295637E+03  0.34331222821E+03  0.10000000000E+01 0.  0.
         -4    1    1    2    0  502  0.19583851792E+02  0.66778139136E+01  0.30231187265E+02  0.36655941308E+02  0.12700000000E+01 0.  1.
<mgrwt>
<rscale>  1 0.12667084E+03</rscale>
<asrwt>0</asrwt>
<pdfrwt beam="1">  1       21 0.66653353E-02 0.12667084E+03</pdfrwt>
<pdfrwt beam="2">  1       -4 0.62945389E-01 0.12667084E+03</pdfrwt>
<totfact> 0.15961977E+04</totfact>
</mgrwt>
</event>
<event>
 6    4  0.6376098E-003  0.1304956E+03  0.7818608E-02  0.1226722E+00
         21   -1    0    0  501  502  0.00000000000E+00  0.00000000000E+00  0.16125933023E+04  0.16125933023E+04  0.00000000000E+00 0. -1.
         -4   -1    0    0    0  501 -0.00000000000E+00 -0.00000000000E+00 -0.80466177295E+01  0.81462234737E+01  0.12700000000E+01 0.  1.
         25    2    1    2    0    0 -0.14245052514E+02 -0.34673386773E+02  0.54042663252E+03  0.55595867351E+03  0.12499574490E+03 0.  0.
    9000005    1    3    3    0    0 -0.59634194409E+02 -0.75149370795E+01  0.42190402207E+03  0.42616512675E+03  0.10000000000E+01 0.  0.
    9000005    1    3    3    0    0  0.45389141895E+02 -0.27158449693E+02  0.11852261045E+03  0.12979354676E+03  0.10000000000E+01 0.  0.
         -4    1    1    2    0  502  0.14245052514E+02  0.34673386773E+02  0.10641200520E+04  0.10647808522E+04  0.12700000000E+01 0. -1.
<mgrwt>
<rscale>  1 0.13049560E+03</rscale>
<asrwt>0</asrwt>
<pdfrwt beam="1">  1       21 0.24809102E+00 0.13049560E+03</pdfrwt>
<pdfrwt beam="2">  1       -4 0.12456429E-02 0.13049560E+03</pdfrwt>
<totfact> 0.61092173E+03</totfact>
</mgrwt>
</event>
<event>
 6    4  0.6376098E-003  0.1284563E+03  0.7818608E-02  0.1229764E+00
         -4   -1    0    0    0  501 -0.00000000000E+00  0.00000000000E+00  0.16459796108E+02  0.16508718543E+02  0.12700000000E+01 0. -1.
         21   -1    0    0  501  502  0.00000000000E+00 -0.00000000000E+00 -0.49999245926E+03  0.49999245926E+03  0.00000000000E+00 0.  1.
         25    2    1    2    0    0  0.11661877268E+02 -0.27204917120E+02 -0.24975087637E+03  0.28084964773E+03  0.12499966993E+03 0.  0.
    9000005    1    3    3    0    0 -0.79991432848E+01  0.42898514986E+02 -0.41472938026E+02  0.60210243894E+02  0.10000000000E+01 0.  0.
    9000005    1    3    3    0    0  0.19661020553E+02 -0.70103432106E+02 -0.20827793835E+03  0.22063940383E+03  0.10000000000E+01 0.  0.
         -4    1    1    2    0  502 -0.11661877268E+02  0.27204917120E+02 -0.23378178678E+03  0.23565153007E+03  0.12700000000E+01 0.  1.
<mgrwt>
<rscale>  1 0.12845631E+03</rscale>
<asrwt>0</asrwt>
<pdfrwt beam="2">  1       21 0.76921934E-01 0.12845631E+03</pdfrwt>
<pdfrwt beam="1">  1       -4 0.25361631E-02 0.12845631E+03</pdfrwt>
<totfact> 0.42956853E+04</totfact>
</mgrwt>
</event>
<event>
 6    4  0.6376098E-003  0.1289828E+03  0.7818608E-02  0.1228973E+00
         21   -1    0    0  501  502  0.00000000000E+00  0.00000000000E+00  0.12364576486E+04  0.12364576486E+04  0.00000000000E+00 0. -1.
         -4   -1    0    0    0  501 -0.00000000000E+00 -0.00000000000E+00 -0.53053274829E+01  0.54552176584E+01  0.12700000000E+01 0. -1.
         25    2    1    2    0    0  0.30834673999E+02 -0.77745266053E+01  0.89311245426E+03  0.90237820696E+03  0.12500140817E+03 0.  0.
    9000005    1    3    3    0    0  0.45931496872E+02  0.40329574645E+01  0.11326222901E+03  0.12229186265E+03  0.10000000000E+01 0.  0.
    9000005    1    3    3    0    0 -0.15096822873E+02 -0.11807484070E+02  0.77985022526E+03  0.78008634431E+03  0.10000000000E+01 0.  0.
         -4    1    1    2    0  502 -0.30834673999E+02  0.77745266053E+01  0.33803986683E+03  0.33953465928E+03  0.12700000000E+01 0.  1.
<mgrwt>
<rscale>  1 0.12898284E+03</rscale>
<asrwt>0</asrwt>
<pdfrwt beam="1">  1       21 0.19022403E+00 0.12898284E+03</pdfrwt>
<pdfrwt beam="2">  1       -4 0.82778540E-03 0.12898284E+03</pdfrwt>
<totfact> 0.25282211E+04</totfact>
</mgrwt>
</event>
<event>
 6    4  0.6376098E-003  0.1805231E+03  0.7818608E-02  0.1167298E+00
         21   -1    0    0  501  502  0.00000000000E+00  0.00000000000E+00  0.31041383940E+02  0.31041383940E+02  0.00000000000E+00 0. -1.
         -4   -1    0    0    0  501 -0.00000000000E+00 -0.00000000000E+00 -0.77863034783E+03  0.77863138356E+03  0.12700000000E+01 0.  1.
         25    2    1    2    0    0  0.80721279495E+01  0.12999423730E+03 -0.44706620606E+03  0.48213772837E+03  0.12499974216E+03 0.  0.
    9000005    1    3    3    0    0  0.25093630506E+02 -0.15696907341E+01 -0.20116528594E+03  0.20273289444E+03  0.10000000000E+01 0.  0.
    9000005    1    3    3    0    0 -0.17021502557E+02  0.13156392803E+03 -0.24590092012E+03  0.27940483393E+03  0.10000000000E+01 0.  0.
         -4    1    1    2    0  502 -0.80721279495E+01 -0.12999423730E+03 -0.30052275783E+03  0.32753503913E+03  0.12700000000E+01 0. -1.
<mgrwt>
<rscale>  1 0.18052312E+03</rscale>
<asrwt>0</asrwt>
<pdfrwt beam="1">  1       21 0.47755976E-02 0.18052312E+03</pdfrwt>
<pdfrwt beam="2">  1       -4 0.11979136E+00 0.18052312E+03</pdfrwt>
<totfact> 0.67793413E+03</totfact>
</mgrwt>
</event>
<event>
 6    4  0.6376098E-003  0.1276717E+03  0.7818608E-02  0.1230952E+00
         21   -1    0    0  501  502  0.00000000000E+00  0.00000000000E+00  0.14206200780E+03  0.14206200780E+03  0.00000000000E+00 0. -1.
          4   -1    0    0  502    0 -0.00000000000E+00 -0.00000000000E+00 -0.46514508750E+02  0.46531843121E+02  0.12700000000E+01 0. -1.
         25    2    1    2    0    0 -0.24626010415E+02 -0.82221318447E+01  0.51951480305E+02  0.13783688498E+03  0.12500402679E+03 0.  0.
    9000005    1    3    3    0    0 -0.60045821565E+02 -0.43277868825E+02  0.47143838345E+02  0.87761130983E+02  0.10000000000E+01 0.  0.
    9000005    1    3    3    0    0  0.35419811151E+02  0.35055736980E+02  0.48076419600E+01  0.50075753997E+02  0.10000000000E+01 0.  0.
          4    1    1    2  501    0  0.24626010415E+02  0.82221318447E+01  0.43596018743E+02  0.50756965938E+02  0.12700000000E+01 0.  1.
<mgrwt>
<rscale>  1 0.12767165E+03</rscale>
<asrwt>0</asrwt>
<pdfrwt beam="1">  1       21 0.21855693E-01 0.12767165E+03</pdfrwt>
<pdfrwt beam="2">  1        4 0.71578484E-02 0.12767165E+03</pdfrwt>
<totfact> 0.10396143E+05</totfact>
</mgrwt>
</event>
<event>
 6    4  0.6376098E-003  0.1275895E+03  0.7818608E-02  0.1231077E+00
          4   -1    0    0  502    0 -0.00000000000E+00  0.00000000000E+00  0.13143268338E+03  0.13143881907E+03  0.12700000000E+01 0.  1.
         21   -1    0    0  501  502  0.00000000000E+00 -0.00000000000E+00 -0.11724974875E+03  0.11724974875E+03  0.00000000000E+00 0. -1.
         25    2    1    2    0    0  0.23467322707E+01 -0.25458089008E+02  0.98107123555E+02  0.16094744955E+03  0.12500180949E+03 0.  0.
    9000005    1    3    3    0    0  0.70212597005E+01  0.50405766718E+02  0.31357220841E+02  0.59785572717E+02  0.10000000000E+01 0.  0.
    9000005    1    3    3    0    0 -0.46745274298E+01 -0.75863855726E+02  0.66749902714E+02  0.10116187683E+03  0.10000000000E+01 0.  0.
          4    1    1    2  501    0 -0.23467322707E+01  0.25458089008E+02 -0.83924188932E+02  0.87741118275E+02  0.12700000000E+01 0. -1.
<mgrwt>
<rscale>  1 0.12758947E+03</rscale>
<asrwt>0</asrwt>
<pdfrwt beam="2">  1       21 0.18038423E-01 0.12758947E+03</pdfrwt>
<pdfrwt beam="1">  1        4 0.20221414E-01 0.12758947E+03</pdfrwt>
<totfact> 0.25027414E+04</totfact>
</mgrwt>
</event>
<event>
 6    4  0.6376098E-003  0.1402962E+03  0.7818608E-02  0.1212931E+00
          4   -1    0    0  502    0 -0.00000000000E+00  0.00000000000E+00  0.83400480696E+03  0.83400577392E+03  0.12700000000E+01 0. -1.
         21   -1    0    0  501  502  0.00000000000E+00 -0.00000000000E+00 -0.13549756567E+02  0.13549756567E+02  0.00000000000E+00 0.  1.
         25    2    1    2    0    0  0.15209591353E+02  0.61911662973E+02  0.66295077659E+03  0.67763321045E+03  0.12497459759E+03 0.  0.
    9000005    1    3    3    0    0  0.31206269660E+02 -0.29404173204E+02  0.13643980780E+03  0.14302187882E+03  0.10000000000E+01 0.  0.
    9000005    1    3    3    0    0 -0.15996678307E+02  0.91315836177E+02  0.52651096879E+03  0.53461133163E+03  0.10000000000E+01 0.  0.
          4    1    1    2  501    0 -0.15209591353E+02 -0.61911662973E+02  0.15750427381E+03  0.16992232004E+03  0.12700000000E+01 0.  1.
<mgrwt>
<rscale>  1 0.14029624E+03</rscale>
<asrwt>0</asrwt>
<pdfrwt beam="2">  1       21 0.20845786E-02 0.14029624E+03</pdfrwt>
<pdfrwt beam="1">  1        4 0.12831304E+00 0.14029624E+03</pdfrwt>
<totfact> 0.22091830E+04</totfact>
</mgrwt>
</event>
<event>
 6    4  0.6376098E-003  0.1270999E+03  0.7818608E-02  0.1231823E+00
         21   -1    0    0  501  502  0.00000000000E+00  0.00000000000E+00  0.13073564963E+02  0.13073564963E+02  0.00000000000E+00 0.  1.
          4   -1    0    0  502    0 -0.00000000000E+00 -0.00000000000E+00 -0.44391249619E+03  0.44391431287E+03  0.12700000000E+01 0.  1.
         25    2    1    2    0    0 -0.21522144692E+02  0.81909282489E+01 -0.38867278635E+03  0.40892655563E+03  0.12499639610E+03 0.  0.
    9000005    1    3    3    0    0 -0.60319762419E+02  0.43280228805E+02 -0.24611909283E+03  0.25707442463E+03  0.10000000000E+01 0.  0.
    9000005    1    3    3    0    0  0.38797617727E+02 -0.35089300557E+02 -0.14255369352E+03  0.15185213101E+03  0.10000000000E+01 0.  0.
          4    1    1    2  501    0  0.21522144692E+02 -0.81909282489E+01 -0.42166144880E+02  0.48061322201E+02  0.12700000000E+01 0. -1.
<mgrwt>
<rscale>  1 0.12709993E+03</rscale>
<asrwt>0</asrwt>
<pdfrwt beam="1">  1       21 0.20113179E-02 0.12709993E+03</pdfrwt>
<pdfrwt beam="2">  1        4 0.68299109E-01 0.12709993E+03</pdfrwt>
<totfact> 0.97554489E+04</totfact>
</mgrwt>
</event>
<event>
 6    4  0.6376098E-003  0.1266329E+03  0.7818608E-02  0.1232539E+00
         21   -1    0    0  501  502  0.00000000000E+00  0.00000000000E+00  0.84620316966E+01  0.84620316966E+01  0.00000000000E+00 0.  1.
         -4   -1    0    0    0  501 -0.00000000000E+00 -0.00000000000E+00 -0.98133456355E+03  0.98133538534E+03  0.12700000000E+01 0. -1.
         25    2    1    2    0    0 -0.20185670271E+02  0.22127389737E+01 -0.95293114267E+03  0.96130830683E+03  0.12499416225E+03 0.  0.
    9000005    1    3    3    0    0 -0.25414031059E+02 -0.16073567418E+02 -0.93389878287E+03  0.93438330956E+03  0.10000000000E+01 0.  0.
    9000005    1    3    3    0    0  0.52283607871E+01  0.18286306391E+02 -0.19032359808E+02  0.26924997267E+02  0.10000000000E+01 0.  0.
         -4    1    1    2    0  502  0.20185670271E+02 -0.22127389737E+01 -0.19941389178E+02  0.28489110208E+02  0.12700000000E+01 0.  1.
<mgrwt>
<rscale>  1 0.12663293E+03</rscale>
<asrwt>0</asrwt>
<pdfrwt beam="1">  1       21 0.13018517E-02 0.12663293E+03</pdfrwt>
<pdfrwt beam="2">  1       -4 0.15098187E+00 0.12663293E+03</pdfrwt>
<totfact> 0.30974633E+04</totfact>
</mgrwt>
</event>
<event>
 6    4  0.6376098E-003  0.1319345E+03  0.7818608E-02  0.1224613E+00
         -4   -1    0    0    0  501 -0.00000000000E+00  0.00000000000E+00  0.24147335466E+02  0.24180709463E+02  0.12700000000E+01 0. -1.
         21   -1    0    0  501  502  0.00000000000E+00 -0.00000000000E+00 -0.34300412940E+03  0.34300412940E+03  0.00000000000E+00 0. -1.
         25    2    1    2    0    0 -0.38510153540E+02  0.17281869129E+02 -0.18794329508E+03  0.22962884296E+03  0.12500011371E+03 0.  0.
    9000005    1    3    3    0    0 -0.77593752220E+02  0.39293451485E+02 -0.12001487561E+03  0.14822056565E+03  0.10000000000E+01 0.  0.
    9000005    1    3    3    0    0  0.39083598680E+02 -0.22011582356E+02 -0.67928419470E+02  0.81408277314E+02  0.10000000000E+01 0.  0.
         -4    1    1    2    0  502  0.38510153540E+02 -0.17281869129E+02 -0.13091349885E+03  0.13755599590E+03  0.12700000000E+01 0.  1.
<mgrwt>
<rscale>  1 0.13193454E+03</rscale>
<asrwt>0</asrwt>
<pdfrwt beam="2">  1       21 0.52769861E-01 0.13193454E+03</pdfrwt>
<pdfrwt beam="1">  1       -4 0.37177232E-02 0.13193454E+03</pdfrwt>
<totfact> 0.53131056E+04</totfact>
</mgrwt>
</event>
<event>
 6    4  0.6376098E-003  0.1289568E+03  0.7818608E-02  0.1229012E+00
         21   -1    0    0  501  502  0.00000000000E+00  0.00000000000E+00  0.11525227573E+02  0.11525227573E+02  0.00000000000E+00 0. -1.
          4   -1    0    0  502    0 -0.00000000000E+00 -0.00000000000E+00 -0.10642698267E+04  0.10642705844E+04  0.12700000000E+01 0.  1.
         25    2    1    2    0    0 -0.28952548894E+02 -0.12812557563E+02 -0.10267347069E+04  0.10348014330E+04  0.12500974220E+03 0.  0.
    9000005    1    3    3    0    0  0.24119284796E+02 -0.17320443179E+02 -0.84238715379E+03  0.84291094103E+03  0.10000000000E+01 0.  0.
    9000005    1    3    3    0    0 -0.53071833689E+02  0.45078856159E+01 -0.18434755311E+03  0.19189049195E+03  0.10000000000E+01 0.  0.
          4    1    1    2  501    0  0.28952548894E+02  0.12812557563E+02 -0.26009892233E+02  0.40994379038E+02  0.12700000000E+01 0. -1.
<mgrwt>
<rscale>  1 0.12895677E+03</rscale>
<asrwt>0</asrwt>
<pdfrwt beam="1">  1       21 0.17731126E-02 0.12895677E+03</pdfrwt>
<pdfrwt beam="2">  1        4 0.16373920E+00 0.12895677E+03</pdfrwt>
<totfact> 0.15365445E+04</totfact>
</mgrwt>
</event>
<event>
 6    4  0.6376098E-003  0.1273178E+03  0.7818608E-02  0.1231491E+00
          4   -1    0    0  502    0 -0.00000000000E+00  0.00000000000E+00  0.24215972004E+03  0.24216305026E+03  0.12700000000E+01 0. -1.
         21   -1    0    0  501  502  0.00000000000E+00 -0.00000000000E+00 -0.26769557779E+02  0.26769557779E+02  0.00000000000E+00 0. -1.
         25    2    1    2    0    0 -0.24308020495E+02 -0.99498936112E+00  0.13782382102E+03  0.18763057819E+03  0.12497183029E+03 0.  0.
    9000005    1    3    3    0    0 -0.15886848891E+02 -0.62830554117E+02  0.66728027635E+02  0.93025266301E+02  0.10000000000E+01 0.  0.
    9000005    1    3    3    0    0 -0.84211716043E+01  0.61835564756E+02  0.71095793388E+02  0.94605311888E+02  0.10000000000E+01 0.  0.
          4    1    1    2  501    0  0.24308020495E+02  0.99498936112E+00  0.77566341241E+02  0.81302029850E+02  0.12700000000E+01 0.  1.
<mgrwt>
<rscale>  1 0.12731782E+03</rscale>
<asrwt>0</asrwt>
<pdfrwt beam="2">  1       21 0.41183937E-02 0.12731782E+03</pdfrwt>
<pdfrwt beam="1">  1        4 0.37257914E-01 0.12731782E+03</pdfrwt>
<totfact> 0.10391177E+05</totfact>
</mgrwt>
</event>
<event>
 6    4  0.6376098E-003  0.1274330E+03  0.7818608E-02  0.1231315E+00
         21   -1    0    0  501  502  0.00000000000E+00  0.00000000000E+00  0.56333991676E+02  0.56333991676E+02  0.00000000000E+00 0. -1.
         -4   -1    0    0    0  501 -0.00000000000E+00 -0.00000000000E+00 -0.17533234653E+03  0.17533694602E+03  0.12700000000E+01 0.  1.
         25    2    1    2    0    0  0.22640975569E+02 -0.10024310609E+02 -0.14681654288E+03  0.19440748290E+03  0.12500428618E+03 0.  0.
    9000005    1    3    3    0    0  0.70805564726E+02  0.63288989853E+01 -0.56757070583E+02  0.90971688012E+02  0.10000000000E+01 0.  0.
    9000005    1    3    3    0    0 -0.48164589157E+02 -0.16353209594E+02 -0.90059472299E+02  0.10343579488E+03  0.10000000000E+01 0.  0.
         -4    1    1    2    0  502 -0.22640975569E+02  0.10024310609E+02  0.27818188032E+02  0.37263454795E+02  0.12700000000E+01 0. -1.
<mgrwt>
<rscale>  1 0.12743301E+03</rscale>
<asrwt>0</asrwt>
<pdfrwt beam="1">  1       21 0.86667680E-02 0.12743301E+03</pdfrwt>
<pdfrwt beam="2">  1       -4 0.26975662E-01 0.12743301E+03</pdfrwt>
<totfact> 0.54388542E+04</totfact>
</mgrwt>
</event>
<event>
 6    4  0.6376098E-003  0.1339327E+03  0.7818608E-02  0.1221734E+00
         21   -1    0    0  501  502  0.00000000000E+00  0.00000000000E+00  0.15944736383E+03  0.15944736383E+03  0.00000000000E+00 0.  1.
          4   -1    0    0  502    0 -0.00000000000E+00 -0.00000000000E+00 -0.48563834384E+03  0.48564000443E+03  0.12700000000E+01 0. -1.
         25    2    1    2    0    0 -0.22321091751E+02  0.42530236209E+02 -0.47248710920E+03  0.49110288059E+03  0.12502367310E+03 0.  0.
    9000005    1    3    3    0    0 -0.14031506082E+02  0.15526320105E+01 -0.43411732512E+03  0.43434795475E+03  0.10000000000E+01 0.  0.
    9000005    1    3    3    0    0 -0.82895856696E+01  0.40977604199E+02 -0.38369784077E+02  0.56754925835E+02  0.10000000000E+01 0.  0.
          4    1    1    2  501    0  0.22321091751E+02 -0.42530236209E+02  0.14629612919E+03  0.15398448767E+03  0.12700000000E+01 0.  1.
<mgrwt>
<rscale>  1 0.13393271E+03</rscale>
<asrwt>0</asrwt>
<pdfrwt beam="1">  1       21 0.24530364E-01 0.13393271E+03</pdfrwt>
<pdfrwt beam="2">  1        4 0.74714106E-01 0.13393271E+03</pdfrwt>
<totfact> 0.10822265E+03</totfact>
</mgrwt>
</event>
<event>
 6    4  0.6376098E-003  0.1293878E+03  0.7818608E-02  0.1228367E+00
         -4   -1    0    0    0  501 -0.00000000000E+00  0.00000000000E+00  0.18828897373E+03  0.18829325672E+03  0.12700000000E+01 0. -1.
         21   -1    0    0  501  502  0.00000000000E+00 -0.00000000000E+00 -0.20286750902E+03  0.20286750902E+03  0.00000000000E+00 0.  1.
         25    2    1    2    0    0  0.19214883696E+02  0.27324749841E+02  0.16433093983E+03  0.20915508754E+03  0.12500135659E+03 0.  0.
    9000005    1    3    3    0    0  0.25134235273E+02  0.29515146393E+02 -0.55316395849E+01  0.39172345932E+02  0.10000000000E+01 0.  0.
    9000005    1    3    3    0    0 -0.59193515768E+01 -0.21903965518E+01  0.16986257941E+03  0.16998274161E+03  0.10000000000E+01 0.  0.
         -4    1    1    2    0  502 -0.19214883696E+02 -0.27324749841E+02 -0.17890947512E+03  0.18200567820E+03  0.12700000000E+01 0.  1.
<mgrwt>
<rscale>  1 0.12938776E+03</rscale>
<asrwt>0</asrwt>
<pdfrwt beam="2">  1       21 0.31210386E-01 0.12938776E+03</pdfrwt>
<pdfrwt beam="1">  1       -4 0.28968169E-01 0.12938776E+03</pdfrwt>
<totfact> 0.46149414E+03</totfact>
</mgrwt>
</event>
<event>
 6    4  0.6376098E-003  0.1313931E+03  0.7818608E-02  0.1225403E+00
         21   -1    0    0  501  502  0.00000000000E+00  0.00000000000E+00  0.10158312471E+03  0.10158312471E+03  0.00000000000E+00 0. -1.
          4   -1    0    0  502    0 -0.00000000000E+00 -0.00000000000E+00 -0.10075383213E+03  0.10076183597E+03  0.12700000000E+01 0.  1.
         25    2    1    2    0    0  0.35703068783E+02  0.18888350452E+02 -0.47166064970E+02  0.13960226270E+03  0.12503069689E+03 0.  0.
    9000005    1    3    3    0    0  0.78369360946E+02  0.30970305894E+02 -0.44167998746E+02  0.95145828576E+02  0.10000000000E+01 0.  0.
    9000005    1    3    3    0    0 -0.42666292164E+02 -0.12081955442E+02 -0.29980662239E+01  0.44456434128E+02  0.10000000000E+01 0.  0.
          4    1    1    2  501    0 -0.35703068783E+02 -0.18888350452E+02  0.47995357546E+02  0.62742697976E+02  0.12700000000E+01 0. -1.
<mgrwt>
<rscale>  1 0.13139313E+03</rscale>
<asrwt>0</asrwt>
<pdfrwt beam="1">  1       21 0.15628173E-01 0.13139313E+03</pdfrwt>
<pdfrwt beam="2">  1        4 0.15501816E-01 0.13139313E+03</pdfrwt>
<totfact> 0.52241315E+04</totfact>
</mgrwt>
</event>
<event>
 6    4  0.6376098E-003  0.1278834E+03  0.7818608E-02  0.1230631E+00
         -4   -1    0    0    0  501 -0.00000000000E+00  0.00000000000E+00  0.14398408221E+03  0.14398968306E+03  0.12700000000E+01 0.  1.
         21   -1    0    0  501  502  0.00000000000E+00 -0.00000000000E+00 -0.73777751240E+02  0.73777751240E+02  0.00000000000E+00 0.  1.
         25    2    1    2    0    0 -0.26300627163E+02 -0.67700402881E+01 -0.14595880058E+02  0.12871360604E+03  0.12496638040E+03 0.  0.
    9000005    1    3    3    0    0  0.20602543885E+02  0.46934063157E+02 -0.24322652788E+02  0.56743832595E+02  0.10000000000E+01 0.  0.
    9000005    1    3    3    0    0 -0.46903171048E+02 -0.53704103445E+02  0.97267727298E+01  0.71969773440E+02  0.10000000000E+01 0.  0.
         -4    1    1    2    0  502  0.26300627163E+02  0.67700402881E+01  0.84802211025E+02  0.89053828270E+02  0.12700000000E+01 0. -1.
<mgrwt>
<rscale>  1 0.12788336E+03</rscale>
<asrwt>0</asrwt>
<pdfrwt beam="2">  1       21 0.11350423E-01 0.12788336E+03</pdfrwt>
<pdfrwt beam="1">  1       -4 0.22152669E-01 0.12788336E+03</pdfrwt>
<totfact> 0.48778522E+04</totfact>
</mgrwt>
</event>
<event>
 6    4  0.6376098E-003  0.1278848E+03  0.7818608E-02  0.1230628E+00
         -4   -1    0    0    0  501 -0.00000000000E+00  0.00000000000E+00  0.79418436732E+01  0.80427471009E+01  0.12700000000E+01 0.  1.
         21   -1    0    0  501  502  0.00000000000E+00 -0.00000000000E+00 -0.82459122157E+03  0.82459122157E+03  0.00000000000E+00 0.  1.
         25    2    1    2    0    0  0.21160399810E+02  0.16522681752E+02 -0.55185291687E+03  0.56647698453E+03  0.12503507754E+03 0.  0.
    9000005    1    3    3    0    0 -0.15093420915E+02 -0.43239584322E+02 -0.34731147867E+03  0.35031947737E+03  0.10000000000E+01 0.  0.
    9000005    1    3    3    0    0  0.36253820724E+02  0.59762266074E+02 -0.20454143819E+03  0.21615750716E+03  0.10000000000E+01 0.  0.
         -4    1    1    2    0  502 -0.21160399810E+02 -0.16522681752E+02 -0.26479646103E+03  0.26615698414E+03  0.12700000000E+01 0. -1.
<mgrwt>
<rscale>  1 0.12788484E+03</rscale>
<asrwt>0</asrwt>
<pdfrwt beam="2">  1       21 0.12686009E+00 0.12788484E+03</pdfrwt>
<pdfrwt beam="1">  1       -4 0.12296601E-02 0.12788484E+03</pdfrwt>
<totfact> 0.40442608E+04</totfact>
</mgrwt>
</event>
<event>
 6    4  0.6376098E-003  0.1307095E+03  0.7818608E-02  0.1226407E+00
         21   -1    0    0  501  502  0.00000000000E+00  0.00000000000E+00  0.56427505062E+02  0.56427505062E+02  0.00000000000E+00 0. -1.
          4   -1    0    0  502    0 -0.00000000000E+00 -0.00000000000E+00 -0.14339477242E+03  0.14340039629E+03  0.12700000000E+01 0.  1.
         25    2    1    2    0    0  0.35425758463E+02 -0.14303718109E+02 -0.93948783610E+02  0.16097001691E+03  0.12500156674E+03 0.  0.
    9000005    1    3    3    0    0  0.59025487524E+02  0.39655058932E+02 -0.59567848336E+02  0.92767776904E+02  0.10000000000E+01 0.  0.
    9000005    1    3    3    0    0 -0.23599729061E+02 -0.53958777041E+02 -0.34380935274E+02  0.68202240006E+02  0.10000000000E+01 0.  0.
          4    1    1    2  501    0 -0.35425758463E+02  0.14303718109E+02  0.69815162531E+01  0.38857884446E+02  0.12700000000E+01 0. -1.
<mgrwt>
<rscale>  1 0.13070950E+03</rscale>
<asrwt>0</asrwt>
<pdfrwt beam="1">  1       21 0.86811546E-02 0.13070950E+03</pdfrwt>
<pdfrwt beam="2">  1        4 0.22062266E-01 0.13070950E+03</pdfrwt>
<totfact> 0.78763972E+04</totfact>
</mgrwt>
</event>
<event>
 6    4  0.6376098E-003  0.1269673E+03  0.7818608E-02  0.1232026E+00
         21   -1    0    0  501  502  0.00000000000E+00  0.00000000000E+00  0.26478823014E+03  0.26478823014E+03  0.00000000000E+00 0.  1.
         -4   -1    0    0    0  501 -0.00000000000E+00 -0.00000000000E+00 -0.51757993895E+02  0.51773572719E+02  0.12700000000E+01 0. -1.
         25    2    1    2    0    0 -0.20486246741E+01 -0.22155641170E+02  0.27773654271E+02  0.12996951105E+03  0.12500251450E+03 0.  0.
    9000005    1    3    3    0    0  0.60494311799E+02 -0.61751731989E+01  0.32335412015E+01  0.60902793965E+02  0.10000000000E+01 0.  0.
    9000005    1    3    3    0    0 -0.62542936473E+02 -0.15980467971E+02  0.24540113070E+02  0.69066717083E+02  0.10000000000E+01 0.  0.
         -4    1    1    2    0  502  0.20486246741E+01  0.22155641170E+02  0.18525658197E+03  0.18659229181E+03  0.12700000000E+01 0.  1.
<mgrwt>
<rscale>  1 0.12696731E+03</rscale>
<asrwt>0</asrwt>
<pdfrwt beam="1">  1       21 0.40736650E-01 0.12696731E+03</pdfrwt>
<pdfrwt beam="2">  1       -4 0.79642011E-02 0.12696731E+03</pdfrwt>
<totfact> 0.26218214E+04</totfact>
</mgrwt>
</event>
<event>
 6    4  0.6376098E-003  0.1278418E+03  0.7818608E-02  0.1230694E+00
         -4   -1    0    0    0  501 -0.00000000000E+00  0.00000000000E+00  0.46546944648E+02  0.46564266944E+02  0.12700000000E+01 0. -1.
         21   -1    0    0  501  502  0.00000000000E+00 -0.00000000000E+00 -0.13987552199E+03  0.13987552199E+03  0.00000000000E+00 0. -1.
         25    2    1    2    0    0 -0.13373377802E+02 -0.23236931790E+02 -0.53893880661E+02  0.13873747835E+03  0.12499894117E+03 0.  0.
    9000005    1    3    3    0    0 -0.12258060425E+02 -0.28201010168E+02 -0.93686264928E+02  0.98608687528E+02  0.10000000000E+01 0.  0.
    9000005    1    3    3    0    0 -0.11153173763E+01  0.49640783773E+01  0.39792384267E+02  0.40128790820E+02  0.10000000000E+01 0.  0.
         -4    1    1    2    0  502  0.13373377802E+02  0.23236931790E+02 -0.39434696678E+02  0.47702310583E+02  0.12700000000E+01 0.  1.
<mgrwt>
<rscale>  1 0.12784185E+03</rscale>
<asrwt>0</asrwt>
<pdfrwt beam="2">  1       21 0.21519311E-01 0.12784185E+03</pdfrwt>
<pdfrwt beam="1">  1       -4 0.71628446E-02 0.12784185E+03</pdfrwt>
<totfact> 0.10690595E+05</totfact>
</mgrwt>
</event>
<event>
 6    4  0.6376098E-003  0.1309495E+03  0.7818608E-02  0.1226054E+00
         21   -1    0    0  501  502  0.00000000000E+00  0.00000000000E+00  0.40020438752E+02  0.40020438752E+02  0.00000000000E+00 0. -1.
         -4   -1    0    0    0  501 -0.00000000000E+00 -0.00000000000E+00 -0.27226248424E+03  0.27226544625E+03  0.12700000000E+01 0. -1.
         25    2    1    2    0    0 -0.44791747809E+01 -0.38763088124E+02 -0.23913406816E+03  0.27264054626E+03  0.12500049962E+03 0.  0.
    9000005    1    3    3    0    0  0.14741398251E+01  0.64775129622E+01  0.13944977118E+02  0.15478812914E+02  0.10000000000E+01 0.  0.
    9000005    1    3    3    0    0 -0.59533146059E+01 -0.45240601086E+02 -0.25307904527E+03  0.25716173335E+03  0.10000000000E+01 0.  0.
         -4    1    1    2    0  502  0.44791747809E+01  0.38763088124E+02  0.68920226709E+01  0.39645338744E+02  0.12700000000E+01 0.  1.
<mgrwt>
<rscale>  1 0.13094947E+03</rscale>
<asrwt>0</asrwt>
<pdfrwt beam="1">  1       21 0.61569906E-02 0.13094947E+03</pdfrwt>
<pdfrwt beam="2">  1       -4 0.41888314E-01 0.13094947E+03</pdfrwt>
<totfact> 0.42177298E+04</totfact>
</mgrwt>
</event>
<event>
 6    4  0.6376098E-003  0.1277056E+03  0.7818608E-02  0.1230901E+00
         -4   -1    0    0    0  501 -0.00000000000E+00  0.00000000000E+00  0.87189348929E+02  0.87198597848E+02  0.12700000000E+01 0.  1.
         21   -1    0    0  501  502  0.00000000000E+00 -0.00000000000E+00 -0.73940108529E+02  0.73940108529E+02  0.00000000000E+00 0.  1.
         25    2    1    2    0    0  0.18255148968E+01  0.26245073321E+02  0.28298596930E+02  0.13080337367E+03  0.12496629785E+03 0.  0.
    9000005    1    3    3    0    0  0.21720253002E+02 -0.47411436974E+01  0.71001613571E+02  0.74407506098E+02  0.10000000000E+01 0.  0.
    9000005    1    3    3    0    0 -0.19894738106E+02  0.30986217018E+02 -0.42703016641E+02  0.56395867576E+02  0.10000000000E+01 0.  0.
         -4    1    1    2    0  502 -0.18255148968E+01 -0.26245073321E+02 -0.15049356530E+02  0.30335332704E+02  0.12700000000E+01 0. -1.
<mgrwt>
<rscale>  1 0.12770557E+03</rscale>
<asrwt>0</asrwt>
<pdfrwt beam="2">  1       21 0.11375401E-01 0.12770557E+03</pdfrwt>
<pdfrwt beam="1">  1       -4 0.13415296E-01 0.12770557E+03</pdfrwt>
<totfact> 0.11799588E+05</totfact>
</mgrwt>
</event>
<event>
 6    4  0.6376098E-003  0.1349571E+03  0.7818608E-02  0.1220280E+00
         21   -1    0    0  501  502  0.00000000000E+00  0.00000000000E+00  0.10789354648E+04  0.10789354648E+04  0.00000000000E+00 0. -1.
          4   -1    0    0  502    0 -0.00000000000E+00 -0.00000000000E+00 -0.99836629309E+01  0.10064115735E+02  0.12700000000E+01 0.  1.
         25    2    1    2    0    0 -0.46896483598E+02 -0.19732629773E+02  0.50387151227E+03  0.52163197180E+03  0.12499902508E+03 0.  0.
    9000005    1    3    3    0    0 -0.25733344860E+02  0.52609548429E+02  0.18932208133E+03  0.19817623496E+03  0.10000000000E+01 0.  0.
    9000005    1    3    3    0    0 -0.21163138737E+02 -0.72342178202E+02  0.31454943094E+03  0.32345573684E+03  0.10000000000E+01 0.  0.
          4    1    1    2  501    0  0.46896483598E+02  0.19732629773E+02  0.56508028959E+03  0.56736760873E+03  0.12700000000E+01 0. -1.
<mgrwt>
<rscale>  1 0.13495708E+03</rscale>
<asrwt>0</asrwt>
<pdfrwt beam="1">  1       21 0.16598998E+00 0.13495708E+03</pdfrwt>
<pdfrwt beam="2">  1        4 0.15421952E-02 0.13495708E+03</pdfrwt>
<totfact> 0.14409536E+04</totfact>
</mgrwt>
</event>
<event>
 6    4  0.6376098E-003  0.1278473E+03  0.7818608E-02  0.1230685E+00
         21   -1    0    0  501  502  0.00000000000E+00  0.00000000000E+00  0.56868028688E+02  0.56868028688E+02  0.00000000000E+00 0.  1.
         -4   -1    0    0    0  501 -0.00000000000E+00 -0.00000000000E+00 -0.11475761194E+03  0.11476463915E+03  0.12700000000E+01 0.  1.
         25    2    1    2    0    0 -0.25609499068E+02  0.80066495206E+01 -0.65587528667E+02  0.14368943712E+03  0.12499991018E+03 0.  0.
    9000005    1    3    3    0    0  0.38995488925E+02 -0.29920204867E+02 -0.94306617398E+01  0.50058008317E+02  0.10000000000E+01 0.  0.
    9000005    1    3    3    0    0 -0.64604987993E+02  0.37926854388E+02 -0.56156866927E+02  0.93631428806E+02  0.10000000000E+01 0.  0.
         -4    1    1    2    0  502  0.25609499068E+02 -0.80066495206E+01  0.76979454133E+01  0.27943230712E+02  0.12700000000E+01 0. -1.
<mgrwt>
<rscale>  1 0.12784729E+03</rscale>
<asrwt>0</asrwt>
<pdfrwt beam="1">  1       21 0.87489275E-02 0.12784729E+03</pdfrwt>
<pdfrwt beam="2">  1       -4 0.17656649E-01 0.12784729E+03</pdfrwt>
<totfact> 0.11553557E+05</totfact>
</mgrwt>
</event>
<event>
 6    4  0.6376098E-003  0.1306031E+03  0.7818608E-02  0.1226564E+00
         -4   -1    0    0    0  501 -0.00000000000E+00  0.00000000000E+00  0.81467429766E+03  0.81467528757E+03  0.12700000000E+01 0. -1.
         21   -1    0    0  501  502  0.00000000000E+00 -0.00000000000E+00 -0.21089609873E+02  0.21089609873E+02  0.00000000000E+00 0.  1.
         25    2    1    2    0    0  0.30003704506E+02  0.23076012681E+02  0.78645676001E+03  0.79722731968E+03  0.12499775689E+03 0.  0.
    9000005    1    3    3    0    0  0.44539504694E+02 -0.32311532337E+02  0.59087881524E+03  0.59343624502E+03  0.10000000000E+01 0.  0.
    9000005    1    3    3    0    0 -0.14535800188E+02  0.55387545019E+02  0.19557794477E+03  0.20379107466E+03  0.10000000000E+01 0.  0.
         -4    1    1    2    0  502 -0.30003704506E+02 -0.23076012681E+02  0.71279277783E+01  0.38537577762E+02  0.12700000000E+01 0.  1.
<mgrwt>
<rscale>  1 0.13060308E+03</rscale>
<asrwt>0</asrwt>
<pdfrwt beam="2">  1       21 0.32445560E-02 0.13060308E+03</pdfrwt>
<pdfrwt beam="1">  1       -4 0.12533750E+00 0.13060308E+03</pdfrwt>
<totfact> 0.11281070E+04</totfact>
</mgrwt>
</event>
<event>
 6    4  0.6376098E-003  0.1278253E+03  0.7818608E-02  0.1230719E+00
         21   -1    0    0  501  502  0.00000000000E+00  0.00000000000E+00  0.15761123397E+04  0.15761123397E+04  0.00000000000E+00 0. -1.
         -4   -1    0    0    0  501 -0.00000000000E+00 -0.00000000000E+00 -0.84261878657E+01  0.85213579873E+01  0.12700000000E+01 0.  1.
         25    2    1    2    0    0 -0.17683763868E+02  0.20060067664E+02  0.48333262039E+03  0.49994972718E+03  0.12499674378E+03 0.  0.
    9000005    1    3    3    0    0  0.21237148564E+02  0.62471115397E+02  0.19316658479E+03  0.20412737743E+03  0.10000000000E+01 0.  0.
    9000005    1    3    3    0    0 -0.38920912432E+02 -0.42411047733E+02  0.29016603560E+03  0.29582234975E+03  0.10000000000E+01 0.  0.
         -4    1    1    2    0  502  0.17683763868E+02 -0.20060067664E+02  0.10843535314E+04  0.10846839705E+04  0.12700000000E+01 0. -1.
<mgrwt>
<rscale>  1 0.12782530E+03</rscale>
<asrwt>0</asrwt>
<pdfrwt beam="1">  1       21 0.24247859E+00 0.12782530E+03</pdfrwt>
<pdfrwt beam="2">  1       -4 0.13036980E-02 0.12782530E+03</pdfrwt>
<totfact> 0.61445996E+03</totfact>
</mgrwt>
</event>
<event>
 6    4  0.6376098E-003  0.1276350E+03  0.7818608E-02  0.1231008E+00
          4   -1    0    0  502    0 -0.00000000000E+00  0.00000000000E+00  0.51816056127E+02  0.51831617498E+02  0.12700000000E+01 0.  1.
         21   -1    0    0  501  502  0.00000000000E+00 -0.00000000000E+00 -0.11399481965E+03  0.11399481965E+03  0.00000000000E+00 0.  1.
         25    2    1    2    0    0  0.59423028249E+01 -0.25098870689E+02 -0.55315118388E+02  0.13910590577E+03  0.12500170569E+03 0.  0.
    9000005    1    3    3    0    0  0.52747930701E+02  0.25579951705E+02 -0.26268138560E+02  0.64247126207E+02  0.10000000000E+01 0.  0.
    9000005    1    3    3    0    0 -0.46805627876E+02 -0.50678822393E+02 -0.29046979828E+02  0.74858779560E+02  0.10000000000E+01 0.  0.
          4    1    1    2  501    0 -0.59423028249E+01  0.25098870689E+02 -0.68636451334E+01  0.26720531380E+02  0.12700000000E+01 0. -1.
<mgrwt>
<rscale>  1 0.12763499E+03</rscale>
<asrwt>0</asrwt>
<pdfrwt beam="2">  1       21 0.17537664E-01 0.12763499E+03</pdfrwt>
<pdfrwt beam="1">  1        4 0.79734423E-02 0.12763499E+03</pdfrwt>
<totfact> 0.13060775E+05</totfact>
</mgrwt>
</event>
<event>
 6    4  0.6376098E-003  0.1266920E+03  0.7818608E-02  0.1232448E+00
         21   -1    0    0  501  502  0.00000000000E+00  0.00000000000E+00  0.96269475688E+03  0.96269475688E+03  0.00000000000E+00 0. -1.
          4   -1    0    0  502    0 -0.00000000000E+00 -0.00000000000E+00 -0.39793604709E+02  0.39813865371E+02  0.12700000000E+01 0.  1.
         25    2    1    2    0    0  0.17931567393E+02 -0.10260651737E+02  0.61449041603E+02  0.14080787734E+03  0.12499620603E+03 0.  0.
    9000005    1    3    3    0    0  0.31366533223E+02  0.38595381564E+02  0.73466443972E+02  0.88723059429E+02  0.10000000000E+01 0.  0.
    9000005    1    3    3    0    0 -0.13434965830E+02 -0.48856033302E+02 -0.12017402369E+02  0.52084817908E+02  0.10000000000E+01 0.  0.
          4    1    1    2  501    0 -0.17931567393E+02  0.10260651737E+02  0.86145211057E+03  0.86170074492E+03  0.12700000000E+01 0. -1.
<mgrwt>
<rscale>  1 0.12669204E+03</rscale>
<asrwt>0</asrwt>
<pdfrwt beam="1">  1       21 0.14810687E+00 0.12669204E+03</pdfrwt>
<pdfrwt beam="2">  1        4 0.61237167E-02 0.12669204E+03</pdfrwt>
<totfact> 0.22283612E+03</totfact>
</mgrwt>
</event>
<event>
 6    4  0.6376098E-003  0.1580471E+03  0.7818608E-02  0.1190919E+00
         -4   -1    0    0    0  501 -0.00000000000E+00  0.00000000000E+00  0.10725740295E+03  0.10726492152E+03  0.12700000000E+01 0. -1.
         21   -1    0    0  501  502  0.00000000000E+00 -0.00000000000E+00 -0.15517194314E+03  0.15517194314E+03  0.00000000000E+00 0.  1.
         25    2    1    2    0    0 -0.91227716361E+02 -0.32116915465E+02 -0.93997256819E+01  0.15832636409E+03  0.12499956093E+03 0.  0.
    9000005    1    3    3    0    0 -0.13242916737E+02 -0.19084633513E+02  0.52819039729E+02  0.57710042782E+02  0.10000000000E+01 0.  0.
    9000005    1    3    3    0    0 -0.77984799624E+02 -0.13032281952E+02 -0.62218765411E+02  0.10061632131E+03  0.10000000000E+01 0.  0.
         -4    1    1    2    0  502  0.91227716361E+02  0.32116915465E+02 -0.38514814505E+02  0.10411050056E+03  0.12700000000E+01 0.  1.
<mgrwt>
<rscale>  1 0.15804709E+03</rscale>
<asrwt>0</asrwt>
<pdfrwt beam="2">  1       21 0.23872606E-01 0.15804709E+03</pdfrwt>
<pdfrwt beam="1">  1       -4 0.16502117E-01 0.15804709E+03</pdfrwt>
<totfact> 0.21804383E+04</totfact>
</mgrwt>
</event>
<event>
 6    4  0.6376098E-003  0.1276415E+03  0.7818608E-02  0.1230998E+00
         -4   -1    0    0    0  501 -0.00000000000E+00  0.00000000000E+00  0.83490608703E+02  0.83500267315E+02  0.12700000000E+01 0.  1.
         21   -1    0    0  501  502  0.00000000000E+00 -0.00000000000E+00 -0.25430071878E+03  0.25430071878E+03  0.00000000000E+00 0. -1.
         25    2    1    2    0    0  0.24836794799E+02 -0.71175349498E+01  0.33416063807E+02  0.13194310143E+03  0.12499929206E+03 0.  0.
    9000005    1    3    3    0    0 -0.21888682123E+02 -0.53062533227E+02 -0.20090933049E+01  0.57443740246E+02  0.10000000000E+01 0.  0.
    9000005    1    3    3    0    0  0.46725476922E+02  0.45944998277E+02  0.35425157112E+02  0.74499361183E+02  0.10000000000E+01 0.  0.
         -4    1    1    2    0  502 -0.24836794799E+02  0.71175349498E+01 -0.20422617389E+03  0.20585788467E+03  0.12700000000E+01 0. -1.
<mgrwt>
<rscale>  1 0.12764149E+03</rscale>
<asrwt>0</asrwt>
<pdfrwt beam="2">  1       21 0.39123187E-01 0.12764149E+03</pdfrwt>
<pdfrwt beam="1">  1       -4 0.12845696E-01 0.12764149E+03</pdfrwt>
<totfact> 0.12708701E+04</totfact>
</mgrwt>
</event>
<event>
 6    4  0.6376098E-003  0.1373988E+03  0.7818608E-02  0.1216873E+00
         -4   -1    0    0    0  501 -0.00000000000E+00  0.00000000000E+00  0.40707826556E+03  0.40708024662E+03  0.12700000000E+01 0.  1.
         21   -1    0    0  501  502  0.00000000000E+00 -0.00000000000E+00 -0.58328020669E+02  0.58328020669E+02  0.00000000000E+00 0. -1.
         25    2    1    2    0    0 -0.47065169302E+02 -0.32219361976E+02  0.37735273426E+03  0.40158873466E+03  0.12500083322E+03 0.  0.
    9000005    1    3    3    0    0  0.26503346719E+02 -0.53272284092E+01  0.25418345879E+03  0.25561893019E+03  0.10000000000E+01 0.  0.
    9000005    1    3    3    0    0 -0.73568516021E+02 -0.26892133567E+02  0.12316927547E+03  0.14596980447E+03  0.10000000000E+01 0.  0.
         -4    1    1    2    0  502  0.47065169302E+02  0.32219361976E+02 -0.28602489366E+02  0.63819532633E+02  0.12700000000E+01 0. -1.
<mgrwt>
<rscale>  1 0.13739878E+03</rscale>
<asrwt>0</asrwt>
<pdfrwt beam="2">  1       21 0.89735419E-02 0.13739878E+03</pdfrwt>
<pdfrwt beam="1">  1       -4 0.62628640E-01 0.13739878E+03</pdfrwt>
<totfact> 0.97448668E+03</totfact>
</mgrwt>
</event>
<event>
 6    4  0.6376098E-003  0.1270390E+03  0.7818608E-02  0.1231917E+00
         21   -1    0    0  501  502  0.00000000000E+00  0.00000000000E+00  0.43431769608E+02  0.43431769608E+02  0.00000000000E+00 0. -1.
         -4   -1    0    0    0  501 -0.00000000000E+00 -0.00000000000E+00 -0.18356817327E+03  0.18357256641E+03  0.12700000000E+01 0. -1.
         25    2    1    2    0    0 -0.79126668265E+00 -0.22568717843E+02 -0.15464332021E+03  0.20013359625E+03  0.12501570594E+03 0.  0.
    9000005    1    3    3    0    0 -0.26527365142E+02 -0.48108995143E+01  0.12751658899E+02  0.29840419906E+02  0.10000000000E+01 0.  0.
    9000005    1    3    3    0    0  0.25736098459E+02 -0.17757818329E+02 -0.16739497911E+03  0.17029317634E+03  0.10000000000E+01 0.  0.
         -4    1    1    2    0  502  0.79126668265E+00  0.22568717843E+02  0.14506916551E+02  0.26870739771E+02  0.12700000000E+01 0.  1.
<mgrwt>
<rscale>  1 0.12703897E+03</rscale>
<asrwt>0</asrwt>
<pdfrwt beam="1">  1       21 0.66818108E-02 0.12703897E+03</pdfrwt>
<pdfrwt beam="2">  1       -4 0.28243023E-01 0.12703897E+03</pdfrwt>
<totfact> 0.78023275E+04</totfact>
</mgrwt>
</event>
<event>
 6    4  0.6376098E-003  0.1465416E+03  0.7818608E-02  0.1204788E+00
         21   -1    0    0  501  502  0.00000000000E+00  0.00000000000E+00  0.13854186992E+03  0.13854186992E+03  0.00000000000E+00 0.  1.
         -4   -1    0    0    0  501 -0.00000000000E+00 -0.00000000000E+00 -0.11868984448E+03  0.11869663888E+03  0.12700000000E+01 0. -1.
         25    2    1    2    0    0 -0.70366023220E+01 -0.76080540168E+02 -0.48860693433E+02  0.15447269250E+03  0.12504672327E+03 0.  0.
    9000005    1    3    3    0    0  0.35630412900E+02  0.51811654068E+01  0.18621817690E+02  0.40548031919E+02  0.10000000000E+01 0.  0.
    9000005    1    3    3    0    0 -0.42667015222E+02 -0.81261705575E+02 -0.67482511124E+02  0.11392466058E+03  0.10000000000E+01 0.  0.
         -4    1    1    2    0  502  0.70366023220E+01  0.76080540168E+02  0.68712718874E+02  0.10276581630E+03  0.12700000000E+01 0.  1.
<mgrwt>
<rscale>  1 0.14654162E+03</rscale>
<asrwt>0</asrwt>
<pdfrwt beam="1">  1       21 0.21314134E-01 0.14654162E+03</pdfrwt>
<pdfrwt beam="2">  1       -4 0.18260946E-01 0.14654162E+03</pdfrwt>
<totfact> 0.22378607E+04</totfact>
</mgrwt>
</event>
<event>
 6    4  0.6376098E-003  0.1295722E+03  0.7818608E-02  0.1228092E+00
         21   -1    0    0  501  502  0.00000000000E+00  0.00000000000E+00  0.90030385486E+02  0.90030385486E+02  0.00000000000E+00 0. -1.
          4   -1    0    0  502    0 -0.00000000000E+00 -0.00000000000E+00 -0.12956472512E+03  0.12957094927E+03  0.12700000000E+01 0. -1.
         25    2    1    2    0    0 -0.71878387016E+01 -0.33292334128E+02 -0.90671787372E+02  0.15814650583E+03  0.12501559800E+03 0.  0.
    9000005    1    3    3    0    0 -0.15253155834E+02 -0.32327614438E+02  0.24074853346E+02  0.43108374845E+02  0.10000000000E+01 0.  0.
    9000005    1    3    3    0    0  0.80653171325E+01 -0.96471969027E+00 -0.11474664072E+03  0.11503813099E+03  0.10000000000E+01 0.  0.
          4    1    1    2  501    0  0.71878387016E+01  0.33292334128E+02  0.51137447740E+02  0.61454828925E+02  0.12700000000E+01 0.  1.
<mgrwt>
<rscale>  1 0.12957216E+03</rscale>
<asrwt>0</asrwt>
<pdfrwt beam="1">  1       21 0.13850829E-01 0.12957216E+03</pdfrwt>
<pdfrwt beam="2">  1        4 0.19934202E-01 0.12957216E+03</pdfrwt>
<totfact> 0.41500929E+04</totfact>
</mgrwt>
</event>
<event>
 6    4  0.6376098E-003  0.1294883E+03  0.7818608E-02  0.1228217E+00
         -4   -1    0    0    0  501 -0.00000000000E+00  0.00000000000E+00  0.26309810520E+02  0.26340444749E+02  0.12700000000E+01 0. -1.
         21   -1    0    0  501  502  0.00000000000E+00 -0.00000000000E+00 -0.26581984092E+03  0.26581984092E+03  0.00000000000E+00 0.  1.
         25    2    1    2    0    0  0.11905578014E+02  0.31636153806E+02 -0.16055684136E+03  0.20626611837E+03  0.12499849306E+03 0.  0.
    9000005    1    3    3    0    0 -0.55502830064E+02  0.15215196121E+02 -0.52839141556E+02  0.78134763189E+02  0.10000000000E+01 0.  0.
    9000005    1    3    3    0    0  0.67408408078E+02  0.16420957685E+02 -0.10771769980E+03  0.12813135518E+03  0.10000000000E+01 0.  0.
         -4    1    1    2    0  502 -0.11905578014E+02 -0.31636153806E+02 -0.78953189040E+02  0.85894167294E+02  0.12700000000E+01 0.  1.
<mgrwt>
<rscale>  1 0.12948827E+03</rscale>
<asrwt>0</asrwt>
<pdfrwt beam="2">  1       21 0.40895360E-01 0.12948827E+03</pdfrwt>
<pdfrwt beam="1">  1       -4 0.40502530E-02 0.12948827E+03</pdfrwt>
<totfact> 0.77904349E+04</totfact>
</mgrwt>
</event>
<event>
 6    4  0.6376098E-003  0.1278825E+03  0.7818608E-02  0.1230632E+00
         21   -1    0    0  501  502  0.00000000000E+00  0.00000000000E+00  0.12646594713E+03  0.12646594713E+03  0.00000000000E+00 0.  1.
         -4   -1    0    0    0  501 -0.00000000000E+00 -0.00000000000E+00 -0.49303134644E+02  0.49319488903E+02  0.12700000000E+01 0.  1.
         25    2    1    2    0    0  0.21958638764E+02  0.15713935142E+02  0.75929710767E+02  0.14872544686E+03  0.12499931197E+03 0.  0.
    9000005    1    3    3    0    0 -0.52497712976E+01 -0.19266016755E+02  0.97429290789E+02  0.99459570701E+02  0.10000000000E+01 0.  0.
    9000005    1    3    3    0    0  0.27208410062E+02  0.34979951897E+02 -0.21499580022E+02  0.49265876161E+02  0.10000000000E+01 0.  0.
         -4    1    1    2    0  502 -0.21958638764E+02 -0.15713935142E+02  0.12331017173E+01  0.27059989170E+02  0.12700000000E+01 0. -1.
<mgrwt>
<rscale>  1 0.12788251E+03</rscale>
<asrwt>0</asrwt>
<pdfrwt beam="1">  1       21 0.19456299E-01 0.12788251E+03</pdfrwt>
<pdfrwt beam="2">  1       -4 0.75868462E-02 0.12788251E+03</pdfrwt>
<totfact> 0.11722316E+05</totfact>
</mgrwt>
</event>
<event>
 6    4  0.6376098E-003  0.1420390E+03  0.7818608E-02  0.1210611E+00
         21   -1    0    0  501  502  0.00000000000E+00  0.00000000000E+00  0.41161127510E+03  0.41161127510E+03  0.00000000000E+00 0. -1.
         -4   -1    0    0    0  501 -0.00000000000E+00 -0.00000000000E+00 -0.31595961007E+03  0.31596216244E+03  0.12700000000E+01 0.  1.
         25    2    1    2    0    0 -0.47391073615E+02 -0.48031082214E+02 -0.29697189555E+03  0.32919199729E+03  0.12498866194E+03 0.  0.
    9000005    1    3    3    0    0 -0.65016744385E+02  0.22292510394E+02 -0.12720119643E+03  0.14458657421E+03  0.10000000000E+01 0.  0.
    9000005    1    3    3    0    0  0.17625670771E+02 -0.70323592608E+02 -0.16977069912E+03  0.18460542307E+03  0.10000000000E+01 0.  0.
         -4    1    1    2    0  502  0.47391073615E+02  0.48031082214E+02  0.39262356058E+03  0.39838144025E+03  0.12700000000E+01 0. -1.
<mgrwt>
<rscale>  1 0.14203895E+03</rscale>
<asrwt>0</asrwt>
<pdfrwt beam="1">  1       21 0.63324812E-01 0.14203895E+03</pdfrwt>
<pdfrwt beam="2">  1       -4 0.48609518E-01 0.14203895E+03</pdfrwt>
<totfact> 0.39955556E+02</totfact>
</mgrwt>
</event>
<event>
 6    4  0.6376098E-003  0.1478004E+03  0.7818608E-02  0.1203202E+00
         -4   -1    0    0    0  501 -0.00000000000E+00  0.00000000000E+00  0.23139446188E+03  0.23139794703E+03  0.12700000000E+01 0. -1.
         21   -1    0    0  501  502  0.00000000000E+00 -0.00000000000E+00 -0.76352606198E+02  0.76352606198E+02  0.00000000000E+00 0.  1.
         25    2    1    2    0    0  0.31532552954E+02  0.72334264699E+02  0.17225854141E+03  0.22697571238E+03  0.12497368194E+03 0.  0.
    9000005    1    3    3    0    0  0.45226567431E+02 -0.21709704190E+02  0.80566638470E+02  0.94914366099E+02  0.10000000000E+01 0.  0.
    9000005    1    3    3    0    0 -0.13694014477E+02  0.94043968889E+02  0.91691902944E+02  0.13206134628E+03  0.10000000000E+01 0.  0.
         -4    1    1    2    0  502 -0.31532552954E+02 -0.72334264699E+02 -0.17216685733E+02  0.80774840842E+02  0.12700000000E+01 0.  1.
<mgrwt>
<rscale>  1 0.14780044E+03</rscale>
<asrwt>0</asrwt>
<pdfrwt beam="2">  1       21 0.11746555E-01 0.14780044E+03</pdfrwt>
<pdfrwt beam="1">  1       -4 0.35600228E-01 0.14780044E+03</pdfrwt>
<totfact> 0.19160615E+04</totfact>
</mgrwt>
</event>
<event>
 6    4  0.6376098E-003  0.1296764E+03  0.7818608E-02  0.1227937E+00
         21   -1    0    0  501  502  0.00000000000E+00  0.00000000000E+00  0.21505578789E+02  0.21505578789E+02  0.00000000000E+00 0. -1.
          4   -1    0    0  502    0 -0.00000000000E+00 -0.00000000000E+00 -0.11365228647E+04  0.11365235742E+04  0.12700000000E+01 0.  1.
         25    2    1    2    0    0  0.69771510426E+01  0.33779807690E+02 -0.11159903821E+04  0.11234992260E+04  0.12500488758E+03 0.  0.
    9000005    1    3    3    0    0 -0.19312959090E+02 -0.14057504556E+02 -0.43639635211E+02  0.49759638107E+02  0.10000000000E+01 0.  0.
    9000005    1    3    3    0    0  0.26290110132E+02  0.47837312246E+02 -0.10723507469E+04  0.10737395879E+04  0.10000000000E+01 0.  0.
          4    1    1    2  501    0 -0.69771510426E+01 -0.33779807690E+02  0.97309619224E+00  0.34529927027E+02  0.12700000000E+01 0. -1.
<mgrwt>
<rscale>  1 0.12967644E+03</rscale>
<asrwt>0</asrwt>
<pdfrwt beam="1">  1       21 0.33085502E-02 0.12967644E+03</pdfrwt>
<pdfrwt beam="2">  1        4 0.17485263E+00 0.12967644E+03</pdfrwt>
<totfact> 0.46845003E+03</totfact>
</mgrwt>
</event>
<event>
 6    4  0.6376098E-003  0.1277888E+03  0.7818608E-02  0.1230774E+00
         21   -1    0    0  501  502  0.00000000000E+00  0.00000000000E+00  0.63901461993E+02  0.63901461993E+02  0.00000000000E+00 0. -1.
          4   -1    0    0  502    0 -0.00000000000E+00 -0.00000000000E+00 -0.19138401298E+03  0.19138822671E+03  0.12700000000E+01 0.  1.
         25    2    1    2    0    0 -0.23468009237E+02  0.12425973827E+02 -0.16537905352E+03  0.20899811185E+03  0.12499930851E+03 0.  0.
    9000005    1    3    3    0    0 -0.33079693110E+02 -0.56887161133E+01 -0.18043819704E+03  0.18353629216E+03  0.10000000000E+01 0.  0.
    9000005    1    3    3    0    0  0.96116838733E+01  0.18114689940E+02  0.15059143518E+02  0.25461819692E+02  0.10000000000E+01 0.  0.
          4    1    1    2  501    0  0.23468009237E+02 -0.12425973827E+02  0.37896502539E+02  0.46291576855E+02  0.12700000000E+01 0. -1.
<mgrwt>
<rscale>  1 0.12778881E+03</rscale>
<asrwt>0</asrwt>
<pdfrwt beam="1">  1       21 0.98309941E-02 0.12778881E+03</pdfrwt>
<pdfrwt beam="2">  1        4 0.29444989E-01 0.12778881E+03</pdfrwt>
<totfact> 0.37086792E+04</totfact>
</mgrwt>
</event>
<event>
 6    4  0.6376098E-003  0.1447045E+03  0.7818608E-02  0.1207135E+00
         21   -1    0    0  501  502  0.00000000000E+00  0.00000000000E+00  0.40148124262E+03  0.40148124262E+03  0.00000000000E+00 0. -1.
          4   -1    0    0  502    0 -0.00000000000E+00 -0.00000000000E+00 -0.30814518450E+02  0.30840678451E+02  0.12700000000E+01 0.  1.
         25    2    1    2    0    0  0.69702615555E+02  0.21315670941E+02  0.28652700206E+03  0.32099394534E+03  0.12500631022E+03 0.  0.
    9000005    1    3    3    0    0 -0.34904762093E+02 -0.71078055381E+01  0.58269263994E+02  0.68302052991E+02  0.10000000000E+01 0.  0.
    9000005    1    3    3    0    0  0.10460737765E+03  0.28423476479E+02  0.22825773806E+03  0.25269189235E+03  0.10000000000E+01 0.  0.
          4    1    1    2  501    0 -0.69702615555E+02 -0.21315670941E+02  0.84139722113E+02  0.11132797573E+03  0.12700000000E+01 0. -1.
<mgrwt>
<rscale>  1 0.14470449E+03</rscale>
<asrwt>0</asrwt>
<pdfrwt beam="1">  1       21 0.61766341E-01 0.14470449E+03</pdfrwt>
<pdfrwt beam="2">  1        4 0.47428623E-02 0.14470449E+03</pdfrwt>
<totfact> 0.26089291E+04</totfact>
</mgrwt>
</event>
<event>
 6    4  0.6376098E-003  0.1290081E+03  0.7818608E-02  0.1228935E+00
         21   -1    0    0  501  502  0.00000000000E+00  0.00000000000E+00  0.13190151510E+03  0.13190151510E+03  0.00000000000E+00 0.  1.
         -4   -1    0    0    0  501 -0.00000000000E+00 -0.00000000000E+00 -0.51987869948E+02  0.52003379907E+02  0.12700000000E+01 0. -1.
         25    2    1    2    0    0  0.29876229509E+02 -0.11253918594E+02  0.45130177624E+02  0.13667416045E+03  0.12499541363E+03 0.  0.
    9000005    1    3    3    0    0 -0.33806016716E+02 -0.30311530566E+02  0.52923112266E+02  0.69738737179E+02  0.10000000000E+01 0.  0.
    9000005    1    3    3    0    0  0.63682246225E+02  0.19057611972E+02 -0.77929346419E+01  0.66935423272E+02  0.10000000000E+01 0.  0.
         -4    1    1    2    0  502 -0.29876229509E+02  0.11253918594E+02  0.34783467531E+02  0.47230734558E+02  0.12700000000E+01 0.  1.
<mgrwt>
<rscale>  1 0.12900811E+03</rscale>
<asrwt>0</asrwt>
<pdfrwt beam="1">  1       21 0.20292541E-01 0.12900811E+03</pdfrwt>
<pdfrwt beam="2">  1       -4 0.79997973E-02 0.12900811E+03</pdfrwt>
<totfact> 0.99484681E+04</totfact>
</mgrwt>
</event>
<event>
 6    4  0.6376098E-003  0.1268546E+03  0.7818608E-02  0.1232199E+00
          4   -1    0    0  502    0 -0.00000000000E+00  0.00000000000E+00  0.22530050007E+03  0.22530407948E+03  0.12700000000E+01 0. -1.
         21   -1    0    0  501  502  0.00000000000E+00 -0.00000000000E+00 -0.26283724101E+02  0.26283724101E+02  0.00000000000E+00 0. -1.
         25    2    1    2    0    0 -0.78373967134E+00  0.21603321866E+02  0.18924969486E+03  0.22783224556E+03  0.12499906939E+03 0.  0.
    9000005    1    3    3    0    0 -0.52259309470E+02  0.25147203227E+02  0.15601763331E+03  0.16645095121E+03  0.10000000000E+01 0.  0.
    9000005    1    3    3    0    0  0.51475569798E+02 -0.35438813610E+01  0.33232061556E+02  0.61381294353E+02  0.10000000000E+01 0.  0.
          4    1    1    2  501    0  0.78373967134E+00 -0.21603321866E+02  0.97670811078E+01  0.23755558021E+02  0.12700000000E+01 0.  1.
<mgrwt>
<rscale>  1 0.12685458E+03</rscale>
<asrwt>0</asrwt>
<pdfrwt beam="2">  1       21 0.40436500E-02 0.12685458E+03</pdfrwt>
<pdfrwt beam="1">  1        4 0.34664249E-01 0.12685458E+03</pdfrwt>
<totfact> 0.12310256E+05</totfact>
</mgrwt>
</event>
<event>
 6    4  0.6376098E-003  0.1310361E+03  0.7818608E-02  0.1225926E+00
         21   -1    0    0  501  502  0.00000000000E+00  0.00000000000E+00  0.10866926754E+03  0.10866926754E+03  0.00000000000E+00 0.  1.
          4   -1    0    0  502    0 -0.00000000000E+00 -0.00000000000E+00 -0.98510564864E+02  0.98518750956E+02  0.12700000000E+01 0. -1.
         25    2    1    2    0    0  0.20019150800E+02  0.33833908756E+02 -0.45781666257E+02  0.13880353519E+03  0.12499984254E+03 0.  0.
    9000005    1    3    3    0    0  0.82391946167E+01  0.59441571250E+02 -0.76412439461E+02  0.97165043226E+02  0.10000000000E+01 0.  0.
    9000005    1    3    3    0    0  0.11779956183E+02 -0.25607662495E+02  0.30630773204E+02  0.41638491966E+02  0.10000000000E+01 0.  0.
          4    1    1    2  501    0 -0.20019150800E+02 -0.33833908756E+02  0.55940368932E+02  0.68384483304E+02  0.12700000000E+01 0.  1.
<mgrwt>
<rscale>  1 0.13103610E+03</rscale>
<asrwt>0</asrwt>
<pdfrwt beam="1">  1       21 0.16718349E-01 0.13103610E+03</pdfrwt>
<pdfrwt beam="2">  1        4 0.15156672E-01 0.13103610E+03</pdfrwt>
<totfact> 0.48064617E+04</totfact>
</mgrwt>
</event>
<event>
 6    4  0.6376098E-003  0.1299713E+03  0.7818608E-02  0.1227498E+00
         21   -1    0    0  501  502  0.00000000000E+00  0.00000000000E+00  0.16079262084E+03  0.16079262084E+03  0.00000000000E+00 0. -1.
         -4   -1    0    0    0  501 -0.00000000000E+00 -0.00000000000E+00 -0.57522277793E+02  0.57536295870E+02  0.12700000000E+01 0.  1.
         25    2    1    2    0    0 -0.25829258939E+02 -0.24497045802E+02  0.25027449439E+02  0.13235904309E+03  0.12500114876E+03 0.  0.
    9000005    1    3    3    0    0 -0.26234375167E+02  0.44083648180E+02 -0.14339865876E+02  0.53275155847E+02  0.10000000000E+01 0.  0.
    9000005    1    3    3    0    0  0.40511622706E+00 -0.68580693982E+02  0.39367315315E+02  0.79083887242E+02  0.10000000000E+01 0.  0.
         -4    1    1    2    0  502  0.25829258939E+02  0.24497045802E+02  0.78242893612E+02  0.85969873626E+02  0.12700000000E+01 0. -1.
<mgrwt>
<rscale>  1 0.12997132E+03</rscale>
<asrwt>0</asrwt>
<pdfrwt beam="1">  1       21 0.24737326E-01 0.12997132E+03</pdfrwt>
<pdfrwt beam="2">  1       -4 0.88510454E-02 0.12997132E+03</pdfrwt>
<totfact> 0.58133985E+04</totfact>
</mgrwt>
</event>
<event>
 6    4  0.6376098E-003  0.1547674E+03  0.7818608E-02  0.1194734E+00
          4   -1    0    0  502    0 -0.00000000000E+00  0.00000000000E+00  0.41108508920E+02  0.41128121835E+02  0.12700000000E+01 0. -1.
         21   -1    0    0  501  502  0.00000000000E+00 -0.00000000000E+00 -0.36854701444E+03  0.36854701444E+03  0.00000000000E+00 0.  1.
         25    2    1    2    0    0  0.34515710931E+02  0.84475250336E+02 -0.19843763207E+03  0.25165538918E+03  0.12500215543E+03 0.  0.
    9000005    1    3    3    0    0  0.25210269045E+02 -0.18468932089E+02 -0.40979346864E+01  0.31534935968E+02  0.10000000000E+01 0.  0.
    9000005    1    3    3    0    0  0.93054418855E+01  0.10294418243E+03 -0.19433969738E+03  0.22012045321E+03  0.10000000000E+01 0.  0.
          4    1    1    2  501    0 -0.34515710931E+02 -0.84475250336E+02 -0.12900087345E+03  0.15801974709E+03  0.12700000000E+01 0.  1.
<mgrwt>
<rscale>  1 0.15476738E+03</rscale>
<asrwt>0</asrwt>
<pdfrwt beam="2">  1       21 0.56699541E-01 0.15476738E+03</pdfrwt>
<pdfrwt beam="1">  1        4 0.63260630E-02 0.15476738E+03</pdfrwt>
<totfact> 0.19741613E+04</totfact>
</mgrwt>
</event>
<event>
 6    4  0.6376098E-003  0.1276411E+03  0.7818608E-02  0.1230998E+00
         21   -1    0    0  501  502  0.00000000000E+00  0.00000000000E+00  0.28694786279E+02  0.28694786279E+02  0.00000000000E+00 0. -1.
         -4   -1    0    0    0  501 -0.00000000000E+00 -0.00000000000E+00 -0.30590600257E+03  0.30590863883E+03  0.12700000000E+01 0. -1.
         25    2    1    2    0    0  0.10426993205E+02 -0.23635603347E+02 -0.28083992062E+03  0.30848553224E+03  0.12499959462E+03 0.  0.
    9000005    1    3    3    0    0  0.36851817337E+02 -0.65946674436E+02 -0.19605920039E+03  0.21011242316E+03  0.10000000000E+01 0.  0.
    9000005    1    3    3    0    0 -0.26424824132E+02  0.42311071089E+02 -0.84780720229E+02  0.98373109078E+02  0.10000000000E+01 0.  0.
         -4    1    1    2    0  502 -0.10426993205E+02  0.23635603347E+02  0.36287043228E+01  0.26117892869E+02  0.12700000000E+01 0.  1.
<mgrwt>
<rscale>  1 0.12764115E+03</rscale>
<asrwt>0</asrwt>
<pdfrwt beam="1">  1       21 0.44145827E-02 0.12764115E+03</pdfrwt>
<pdfrwt beam="2">  1       -4 0.47064824E-01 0.12764115E+03</pdfrwt>
<totfact> 0.58310587E+04</totfact>
</mgrwt>
</event>
<event>
 6    4  0.6376098E-003  0.1338387E+03  0.7818608E-02  0.1221868E+00
         -4   -1    0    0    0  501 -0.00000000000E+00  0.00000000000E+00  0.19156158591E+03  0.19156579574E+03  0.12700000000E+01 0.  1.
         21   -1    0    0  501  502  0.00000000000E+00 -0.00000000000E+00 -0.62490947322E+02  0.62490947322E+02  0.00000000000E+00 0. -1.
         25    2    1    2    0    0 -0.44950486641E+02  0.16329081917E+02  0.15070082130E+03  0.20155281111E+03  0.12500245181E+03 0.  0.
    9000005    1    3    3    0    0 -0.70449405452E+01  0.50427253165E+02  0.14063735091E+03  0.14957407369E+03  0.10000000000E+01 0.  0.
    9000005    1    3    3    0    0 -0.37905546096E+02 -0.34098171249E+02  0.10063470392E+02  0.51978737419E+02  0.10000000000E+01 0.  0.
         -4    1    1    2    0  502  0.44950486641E+02 -0.16329081917E+02 -0.21630182717E+02  0.52503931947E+02  0.12700000000E+01 0. -1.
<mgrwt>
<rscale>  1 0.13383870E+03</rscale>
<asrwt>0</asrwt>
<pdfrwt beam="2">  1       21 0.96139919E-02 0.13383870E+03</pdfrwt>
<pdfrwt beam="1">  1       -4 0.29472330E-01 0.13383870E+03</pdfrwt>
<totfact> 0.38709443E+04</totfact>
</mgrwt>
</event>
<event>
 6    4  0.6376098E-003  0.1281260E+03  0.7818608E-02  0.1230263E+00
         -4   -1    0    0    0  501 -0.00000000000E+00  0.00000000000E+00  0.27013144963E+02  0.27042982468E+02  0.12700000000E+01 0. -1.
         21   -1    0    0  501  502  0.00000000000E+00 -0.00000000000E+00 -0.30558802232E+03  0.30558802232E+03  0.00000000000E+00 0. -1.
         25    2    1    2    0    0  0.11503053969E+02  0.25689467555E+02 -0.13423796407E+03  0.18556970318E+03  0.12499605892E+03 0.  0.
    9000005    1    3    3    0    0 -0.32461063683E+02  0.52867979582E+02 -0.29358767379E+02  0.68641686624E+02  0.10000000000E+01 0.  0.
    9000005    1    3    3    0    0  0.43964117653E+02 -0.27178512027E+02 -0.10487919669E+03  0.11692801656E+03  0.10000000000E+01 0.  0.
         -4    1    1    2    0  502 -0.11503053969E+02 -0.25689467555E+02 -0.14433691328E+03  0.14706130160E+03  0.12700000000E+01 0.  1.
<mgrwt>
<rscale>  1 0.12812605E+03</rscale>
<asrwt>0</asrwt>
<pdfrwt beam="2">  1       21 0.47013542E-01 0.12812605E+03</pdfrwt>
<pdfrwt beam="1">  1       -4 0.41583666E-02 0.12812605E+03</pdfrwt>
<totfact> 0.56266420E+04</totfact>
</mgrwt>
</event>
<event>
 6    4  0.6376098E-003  0.1304235E+03  0.7818608E-02  0.1226829E+00
         21   -1    0    0  501  502  0.00000000000E+00  0.00000000000E+00  0.15863469285E+03  0.15863469285E+03  0.00000000000E+00 0.  1.
         -4   -1    0    0    0  501 -0.00000000000E+00 -0.00000000000E+00 -0.17175874995E+03  0.17176344513E+03  0.12700000000E+01 0. -1.
         25    2    1    2    0    0 -0.17589841192E+02  0.32807320661E+02 -0.14402417577E+03  0.19430193388E+03  0.12499822200E+03 0.  0.
    9000005    1    3    3    0    0  0.21604509526E+02  0.37287268731E+02  0.18886468704E+01  0.43146984000E+02  0.10000000000E+01 0.  0.
    9000005    1    3    3    0    0 -0.39194350718E+02 -0.44799480708E+01 -0.14591282264E+03  0.15115494988E+03  0.10000000000E+01 0.  0.
         -4    1    1    2    0  502  0.17589841192E+02 -0.32807320661E+02  0.13090011867E+03  0.13609620410E+03  0.12700000000E+01 0.  1.
<mgrwt>
<rscale>  1 0.13042346E+03</rscale>
<asrwt>0</asrwt>
<pdfrwt beam="1">  1       21 0.24405337E-01 0.13042346E+03</pdfrwt>
<pdfrwt beam="2">  1       -4 0.26425175E-01 0.13042346E+03</pdfrwt>
<totfact> 0.87722685E+03</totfact>
</mgrwt>
</event>
<event>
 6    4  0.6376098E-003  0.1295252E+03  0.7818608E-02  0.1228162E+00
         -4   -1    0    0    0  501 -0.00000000000E+00  0.00000000000E+00  0.16607320639E+03  0.16607806232E+03  0.12700000000E+01 0.  1.
         21   -1    0    0  501  502  0.00000000000E+00 -0.00000000000E+00 -0.52756722749E+02  0.52756722749E+02  0.00000000000E+00 0. -1.
         25    2    1    2    0    0 -0.27751481394E+02  0.19567552215E+02  0.12774170818E+03  0.18191956026E+03  0.12499499421E+03 0.  0.
    9000005    1    3    3    0    0 -0.52327525422E+02  0.60839870535E+02  0.67510425316E+02  0.10487286250E+03  0.10000000000E+01 0.  0.
    9000005    1    3    3    0    0  0.24576044028E+02 -0.41272318320E+02  0.60231282867E+02  0.77046697758E+02  0.10000000000E+01 0.  0.
         -4    1    1    2    0  502  0.27751481394E+02 -0.19567552215E+02 -0.14425224537E+02  0.36915224802E+02  0.12700000000E+01 0. -1.
<mgrwt>
<rscale>  1 0.12952522E+03</rscale>
<asrwt>0</asrwt>
<pdfrwt beam="2">  1       21 0.81164190E-02 0.12952522E+03</pdfrwt>
<pdfrwt beam="1">  1       -4 0.25551273E-01 0.12952522E+03</pdfrwt>
<totfact> 0.67517896E+04</totfact>
</mgrwt>
</event>
<event>
 6    4  0.6376098E-003  0.1318931E+03  0.7818608E-02  0.1224674E+00
         21   -1    0    0  501  502  0.00000000000E+00  0.00000000000E+00  0.14016068270E+02  0.14016068270E+02  0.00000000000E+00 0. -1.
          4   -1    0    0  502    0 -0.00000000000E+00 -0.00000000000E+00 -0.57597491258E+03  0.57597631272E+03  0.12700000000E+01 0. -1.
         25    2    1    2    0    0 -0.39379923405E+02  0.14827629862E+02 -0.48083154007E+03  0.49859276739E+03  0.12500056316E+03 0.  0.
    9000005    1    3    3    0    0 -0.36879072951E+02  0.23230843055E+02 -0.48627440599E+03  0.48822488263E+03  0.10000000000E+01 0.  0.
    9000005    1    3    3    0    0 -0.25008504544E+01 -0.84032131927E+01  0.54428659232E+01  0.10367884761E+02  0.10000000000E+01 0.  0.
          4    1    1    2  501    0  0.39379923405E+02 -0.14827629862E+02 -0.81127304234E+02  0.91399613605E+02  0.12700000000E+01 0.  1.
<mgrwt>
<rscale>  1 0.13189305E+03</rscale>
<asrwt>0</asrwt>
<pdfrwt beam="1">  1       21 0.21563188E-02 0.13189305E+03</pdfrwt>
<pdfrwt beam="2">  1        4 0.88616035E-01 0.13189305E+03</pdfrwt>
<totfact> 0.49449403E+04</totfact>
</mgrwt>
</event>
<event>
 6    4  0.6376098E-003  0.1326233E+03  0.7818608E-02  0.1223614E+00
         21   -1    0    0  501  502  0.00000000000E+00  0.00000000000E+00  0.15049377638E+03  0.15049377638E+03  0.00000000000E+00 0. -1.
         -4   -1    0    0    0  501 -0.00000000000E+00 -0.00000000000E+00 -0.85213345553E+02  0.85222808920E+02  0.12700000000E+01 0.  1.
         25    2    1    2    0    0  0.12390940808E+02  0.42574931371E+02 -0.25154769913E+02  0.13498774818E+03  0.12499107773E+03 0.  0.
    9000005    1    3    3    0    0 -0.38689183668E+02  0.25329795956E+02  0.32128585834E+02  0.56317825986E+02  0.10000000000E+01 0.  0.
    9000005    1    3    3    0    0  0.51080124476E+02  0.17245135415E+02 -0.57283355747E+02  0.78669922192E+02  0.10000000000E+01 0.  0.
         -4    1    1    2    0  502 -0.12390940808E+02 -0.42574931371E+02  0.90435200744E+02  0.10072883713E+03  0.12700000000E+01 0. -1.
<mgrwt>
<rscale>  1 0.13262326E+03</rscale>
<asrwt>0</asrwt>
<pdfrwt beam="1">  1       21 0.23152889E-01 0.13262326E+03</pdfrwt>
<pdfrwt beam="2">  1       -4 0.13110886E-01 0.13262326E+03</pdfrwt>
<totfact> 0.33919559E+04</totfact>
</mgrwt>
</event>
<event>
 6    4  0.6376098E-003  0.1310374E+03  0.7818608E-02  0.1225925E+00
          4   -1    0    0  502    0 -0.00000000000E+00  0.00000000000E+00  0.25023801637E+02  0.25056008229E+02  0.12700000000E+01 0. -1.
         21   -1    0    0  501  502  0.00000000000E+00 -0.00000000000E+00 -0.46673660985E+03  0.46673660985E+03  0.00000000000E+00 0.  1.
         25    2    1    2    0    0 -0.35186155093E+02  0.17567630343E+02 -0.15756359311E+03  0.20493189144E+03  0.12499642838E+03 0.  0.
    9000005    1    3    3    0    0  0.40637443450E+02 -0.12994325451E+02 -0.25812852346E+02  0.49875421305E+02  0.10000000000E+01 0.  0.
    9000005    1    3    3    0    0 -0.75823598544E+02  0.30561955794E+02 -0.13175074077E+03  0.15505647013E+03  0.10000000000E+01 0.  0.
          4    1    1    2  501    0  0.35186155093E+02 -0.17567630343E+02 -0.28414921510E+03  0.28686072664E+03  0.12700000000E+01 0.  1.
<mgrwt>
<rscale>  1 0.13103738E+03</rscale>
<asrwt>0</asrwt>
<pdfrwt beam="2">  1       21 0.71805628E-01 0.13103738E+03</pdfrwt>
<pdfrwt beam="1">  1        4 0.38524262E-02 0.13103738E+03</pdfrwt>
<totfact> 0.26003653E+04</totfact>
</mgrwt>
</event>
<event>
 6    4  0.6376098E-003  0.1272572E+03  0.7818608E-02  0.1231583E+00
         21   -1    0    0  501  502  0.00000000000E+00  0.00000000000E+00  0.67312764022E+01  0.67312764022E+01  0.00000000000E+00 0.  1.
         -4   -1    0    0    0  501 -0.00000000000E+00 -0.00000000000E+00 -0.16905783133E+04  0.16905787904E+04  0.12700000000E+01 0. -1.
         25    2    1    2    0    0  0.71975241798E+01  0.22793252256E+02 -0.16547347167E+04  0.16596208536E+04  0.12499223246E+03 0.  0.
    9000005    1    3    3    0    0  0.15366757936E+02 -0.40808120988E+02 -0.27869371789E+03  0.28208620735E+03  0.10000000000E+01 0.  0.
    9000005    1    3    3    0    0 -0.81692337557E+01  0.63601373243E+02 -0.13760409989E+04  0.13775346462E+04  0.10000000000E+01 0.  0.
         -4    1    1    2    0  502 -0.71975241798E+01 -0.22793252256E+02 -0.29112320189E+02  0.37689213172E+02  0.12700000000E+01 0.  1.
<mgrwt>
<rscale>  1 0.12725720E+03</rscale>
<asrwt>0</asrwt>
<pdfrwt beam="1">  1       21 0.10355790E-02 0.12725720E+03</pdfrwt>
<pdfrwt beam="2">  1       -4 0.26009872E+00 0.12725720E+03</pdfrwt>
<totfact> 0.92555868E+03</totfact>
</mgrwt>
</event>
<event>
 6    4  0.6376098E-003  0.1298941E+03  0.7818608E-02  0.1227613E+00
         21   -1    0    0  501  502  0.00000000000E+00  0.00000000000E+00  0.18284445078E+03  0.18284445078E+03  0.00000000000E+00 0.  1.
         -4   -1    0    0    0  501 -0.00000000000E+00 -0.00000000000E+00 -0.10616381523E+03  0.10617141123E+03  0.12700000000E+01 0. -1.
         25    2    1    2    0    0  0.11800877106E+02  0.33304500713E+02 -0.63400967614E+02  0.14454123132E+03  0.12499613749E+03 0.  0.
    9000005    1    3    3    0    0  0.98379773216E+01 -0.41397525523E+02  0.54699541885E+01  0.42912251351E+02  0.10000000000E+01 0.  0.
    9000005    1    3    3    0    0  0.19628997846E+01  0.74702026236E+02 -0.68870921802E+02  0.10162897997E+03  0.10000000000E+01 0.  0.
         -4    1    1    2    0  502 -0.11800877106E+02 -0.33304500713E+02  0.14008160317E+03  0.14447463070E+03  0.12700000000E+01 0.  1.
<mgrwt>
<rscale>  1 0.12989413E+03</rscale>
<asrwt>0</asrwt>
<pdfrwt beam="1">  1       21 0.28129916E-01 0.12989413E+03</pdfrwt>
<pdfrwt beam="2">  1       -4 0.16333818E-01 0.12989413E+03</pdfrwt>
<totfact> 0.15962109E+04</totfact>
</mgrwt>
</event>
<event>
 6    4  0.6376098E-003  0.1290259E+03  0.7818608E-02  0.1228908E+00
         21   -1    0    0  501  502  0.00000000000E+00  0.00000000000E+00  0.56858575450E+02  0.56858575450E+02  0.00000000000E+00 0.  1.
          4   -1    0    0  502    0 -0.00000000000E+00 -0.00000000000E+00 -0.11771657697E+03  0.11772342755E+03  0.12700000000E+01 0. -1.
         25    2    1    2    0    0  0.28755972979E+02  0.14009649734E+02 -0.60648399994E+02  0.14256898845E+03  0.12499804710E+03 0.  0.
    9000005    1    3    3    0    0  0.50954924458E+01  0.68903901357E+02 -0.35846193623E+02  0.77843826105E+02  0.10000000000E+01 0.  0.
    9000005    1    3    3    0    0  0.23660480533E+02 -0.54894251622E+02 -0.24802206371E+02  0.64725162349E+02  0.10000000000E+01 0.  0.
          4    1    1    2  501    0 -0.28755972979E+02 -0.14009649734E+02 -0.20960152977E+00  0.32013014548E+02  0.12700000000E+01 0.  1.
<mgrwt>
<rscale>  1 0.12902592E+03</rscale>
<asrwt>0</asrwt>
<pdfrwt beam="1">  1       21 0.87474733E-02 0.12902592E+03</pdfrwt>
<pdfrwt beam="2">  1        4 0.18111860E-01 0.12902592E+03</pdfrwt>
<totfact> 0.11061263E+05</totfact>
</mgrwt>
</event>
<event>
 6    4  0.6376098E-003  0.1285543E+03  0.7818608E-02  0.1229617E+00
         -4   -1    0    0    0  501 -0.00000000000E+00  0.00000000000E+00  0.37853727402E+02  0.37875025785E+02  0.12700000000E+01 0.  1.
         21   -1    0    0  501  502  0.00000000000E+00 -0.00000000000E+00 -0.30485777889E+03  0.30485777889E+03  0.00000000000E+00 0. -1.
         25    2    1    2    0    0 -0.23268830062E+02 -0.19341107488E+02 -0.75992474842E+02  0.14933541016E+03  0.12494275331E+03 0.  0.
    9000005    1    3    3    0    0  0.35410335651E+02 -0.43056318361E+02 -0.64053657006E+02  0.84921195220E+02  0.10000000000E+01 0.  0.
    9000005    1    3    3    0    0 -0.58679165713E+02  0.23715210873E+02 -0.11938817837E+02  0.64414214944E+02  0.10000000000E+01 0.  0.
         -4    1    1    2    0  502  0.23268830062E+02  0.19341107488E+02 -0.19101157665E+03  0.19339739451E+03  0.12700000000E+01 0. -1.
<mgrwt>
<rscale>  1 0.12855430E+03</rscale>
<asrwt>0</asrwt>
<pdfrwt beam="2">  1       21 0.46901196E-01 0.12855430E+03</pdfrwt>
<pdfrwt beam="1">  1       -4 0.58254922E-02 0.12855430E+03</pdfrwt>
<totfact> 0.32930943E+04</totfact>
</mgrwt>
</event>
<event>
 6    4  0.6376098E-003  0.2011038E+03  0.7818608E-02  0.1148811E+00
         -4   -1    0    0    0  501 -0.00000000000E+00  0.00000000000E+00  0.24220685551E+02  0.24253958617E+02  0.12700000000E+01 0. -1.
         21   -1    0    0  501  502  0.00000000000E+00 -0.00000000000E+00 -0.13679522682E+04  0.13679522682E+04  0.00000000000E+00 0.  1.
         25    2    1    2    0    0  0.13200165399E+03 -0.85983300353E+02 -0.87099958126E+03  0.89391442212E+03  0.12500063563E+03 0.  0.
    9000005    1    3    3    0    0  0.15506609243E+03 -0.86492914369E+02 -0.78843653804E+03  0.80818295687E+03  0.10000000000E+01 0.  0.
    9000005    1    3    3    0    0 -0.23064438437E+02  0.50961401644E+00 -0.82563043219E+02  0.85731465242E+02  0.10000000000E+01 0.  0.
         -4    1    1    2    0  502 -0.13200165399E+03  0.85983300353E+02 -0.47273200135E+03  0.49829180467E+03  0.12700000000E+01 0.  1.
<mgrwt>
<rscale>  1 0.20110376E+03</rscale>
<asrwt>0</asrwt>
<pdfrwt beam="2">  1       21 0.21045422E+00 0.20110376E+03</pdfrwt>
<pdfrwt beam="1">  1       -4 0.37288636E-02 0.20110376E+03</pdfrwt>
<totfact> 0.18543635E+03</totfact>
</mgrwt>
</event>
<event>
 6    4  0.6376098E-003  0.1310387E+03  0.7818608E-02  0.1225923E+00
          4   -1    0    0  502    0 -0.00000000000E+00  0.00000000000E+00  0.62040113534E+03  0.62040243522E+03  0.12700000000E+01 0.  1.
         21   -1    0    0  501  502  0.00000000000E+00 -0.00000000000E+00 -0.19880302207E+02  0.19880302207E+02  0.00000000000E+00 0. -1.
         25    2    1    2    0    0  0.16214865770E+02 -0.35826120552E+02  0.58240982598E+03  0.59696929534E+03  0.12499880556E+03 0.  0.
    9000005    1    3    3    0    0  0.26304032458E+02  0.27921609507E+01  0.53202209142E+03  0.53268020804E+03  0.10000000000E+01 0.  0.
    9000005    1    3    3    0    0 -0.10089166688E+02 -0.38618281503E+02  0.50387734565E+02  0.64289087295E+02  0.10000000000E+01 0.  0.
          4    1    1    2  501    0 -0.16214865770E+02  0.35826120552E+02  0.18111007153E+02  0.43313442092E+02  0.12700000000E+01 0. -1.
<mgrwt>
<rscale>  1 0.13103867E+03</rscale>
<asrwt>0</asrwt>
<pdfrwt beam="2">  1       21 0.30585085E-02 0.13103867E+03</pdfrwt>
<pdfrwt beam="1">  1        4 0.95449534E-01 0.13103867E+03</pdfrwt>
<totfact> 0.23614347E+04</totfact>
</mgrwt>
</event>
<event>
 6    4  0.6376098E-003  0.1288136E+03  0.7818608E-02  0.1229227E+00
         -4   -1    0    0    0  501 -0.00000000000E+00  0.00000000000E+00  0.11948822142E+02  0.12016124608E+02  0.12700000000E+01 0. -1.
         21   -1    0    0  501  502  0.00000000000E+00 -0.00000000000E+00 -0.95642659096E+03  0.95642659096E+03  0.00000000000E+00 0. -1.
         25    2    1    2    0    0  0.15975665603E+02  0.26669213148E+02 -0.34671190994E+03  0.36986765448E+03  0.12500585791E+03 0.  0.
    9000005    1    3    3    0    0  0.42459494800E+02  0.26809292342E+02 -0.33837808558E+03  0.34208518771E+03  0.10000000000E+01 0.  0.
    9000005    1    3    3    0    0 -0.26483829197E+02 -0.14007919417E+00 -0.83338243687E+01  0.27782466768E+02  0.10000000000E+01 0.  0.
         -4    1    1    2    0  502 -0.15975665603E+02 -0.26669213148E+02 -0.59776585887E+03  0.59857506109E+03  0.12700000000E+01 0.  1.
<mgrwt>
<rscale>  1 0.12881356E+03</rscale>
<asrwt>0</asrwt>
<pdfrwt beam="2">  1       21 0.14714252E+00 0.12881356E+03</pdfrwt>
<pdfrwt beam="1">  1       -4 0.18435228E-02 0.12881356E+03</pdfrwt>
<totfact> 0.15020806E+04</totfact>
</mgrwt>
</event>
<event>
 6    4  0.6376098E-003  0.1273185E+03  0.7818608E-02  0.1231490E+00
         -4   -1    0    0    0  501 -0.00000000000E+00  0.00000000000E+00  0.31071064823E+02  0.31097009008E+02  0.12700000000E+01 0.  1.
         21   -1    0    0  501  502  0.00000000000E+00 -0.00000000000E+00 -0.56537978014E+03  0.56537978014E+03  0.00000000000E+00 0.  1.
         25    2    1    2    0    0  0.11969641950E+02  0.21017233654E+02 -0.10106079508E+03  0.16255240665E+03  0.12500001667E+03 0.  0.
    9000005    1    3    3    0    0  0.26345259524E+02 -0.48103336768E+02 -0.58095747972E+02  0.79900686105E+02  0.10000000000E+01 0.  0.
    9000005    1    3    3    0    0 -0.14375617574E+02  0.69120570422E+02 -0.42965047112E+02  0.82651720547E+02  0.10000000000E+01 0.  0.
         -4    1    1    2    0  502 -0.11969641950E+02 -0.21017233654E+02 -0.43324792023E+03  0.43392438250E+03  0.12700000000E+01 0. -1.
<mgrwt>
<rscale>  1 0.12731850E+03</rscale>
<asrwt>0</asrwt>
<pdfrwt beam="2">  1       21 0.86981505E-01 0.12731850E+03</pdfrwt>
<pdfrwt beam="1">  1       -4 0.47822692E-02 0.12731850E+03</pdfrwt>
<totfact> 0.11989934E+04</totfact>
</mgrwt>
</event>
<event>
 6    4  0.6376098E-003  0.1285472E+03  0.7818608E-02  0.1229628E+00
         -4   -1    0    0    0  501 -0.00000000000E+00  0.00000000000E+00  0.77052278845E+03  0.77052383508E+03  0.12700000000E+01 0.  1.
         21   -1    0    0  501  502  0.00000000000E+00 -0.00000000000E+00 -0.15127228059E+02  0.15127228059E+02  0.00000000000E+00 0. -1.
         25    2    1    2    0    0  0.27886042471E+02  0.11286043110E+02  0.74137464369E+03  0.75243653109E+03  0.12497745750E+03 0.  0.
    9000005    1    3    3    0    0 -0.41948858126E+02  0.12523344266E+02  0.47642946557E+03  0.47843764120E+03  0.10000000000E+01 0.  0.
    9000005    1    3    3    0    0  0.69834900597E+02 -0.12373011555E+01  0.26494517811E+03  0.27399888989E+03  0.10000000000E+01 0.  0.
         -4    1    1    2    0  502 -0.27886042471E+02 -0.11286043110E+02  0.14020916704E+02  0.33214532045E+02  0.12700000000E+01 0. -1.
<mgrwt>
<rscale>  1 0.12854715E+03</rscale>
<asrwt>0</asrwt>
<pdfrwt beam="2">  1       21 0.23272665E-02 0.12854715E+03</pdfrwt>
<pdfrwt beam="1">  1       -4 0.11854612E+00 0.12854715E+03</pdfrwt>
<totfact> 0.22174247E+04</totfact>
</mgrwt>
</event>
<event>
 6    4  0.6376098E-003  0.1273020E+03  0.7818608E-02  0.1231515E+00
          4   -1    0    0  502    0 -0.00000000000E+00  0.00000000000E+00  0.11818877139E+03  0.11819559460E+03  0.12700000000E+01 0.  1.
         21   -1    0    0  501  502  0.00000000000E+00 -0.00000000000E+00 -0.73929299319E+02  0.73929299319E+02  0.00000000000E+00 0.  1.
         25    2    1    2    0    0  0.22456215414E+02  0.87372788906E+01  0.79003048107E+02  0.14982417727E+03  0.12500072333E+03 0.  0.
    9000005    1    3    3    0    0 -0.49043718864E+02 -0.15372036708E+02  0.25993244558E+02  0.57604119950E+02  0.10000000000E+01 0.  0.
    9000005    1    3    3    0    0  0.71499934278E+02  0.24109315599E+02  0.53009803549E+02  0.92220057323E+02  0.10000000000E+01 0.  0.
          4    1    1    2  501    0 -0.22456215414E+02 -0.87372788906E+01 -0.34743576035E+02  0.42300716647E+02  0.12700000000E+01 0. -1.
<mgrwt>
<rscale>  1 0.12730201E+03</rscale>
<asrwt>0</asrwt>
<pdfrwt beam="2">  1       21 0.11373738E-01 0.12730201E+03</pdfrwt>
<pdfrwt beam="1">  1        4 0.18184252E-01 0.12730201E+03</pdfrwt>
<totfact> 0.69262276E+04</totfact>
</mgrwt>
</event>
<event>
 6    4  0.6376098E-003  0.1278253E+03  0.7818608E-02  0.1230719E+00
         -4   -1    0    0    0  501 -0.00000000000E+00  0.00000000000E+00  0.18640165553E+03  0.18640598189E+03  0.12700000000E+01 0. -1.
         21   -1    0    0  501  502  0.00000000000E+00 -0.00000000000E+00 -0.48197851122E+02  0.48197851122E+02  0.00000000000E+00 0.  1.
         25    2    1    2    0    0  0.25651172115E+02  0.75659769131E+01  0.15658019118E+03  0.20213028795E+03  0.12499628154E+03 0.  0.
    9000005    1    3    3    0    0 -0.30740307288E+02 -0.38018733281E+00  0.13923259960E+03  0.14258971851E+03  0.10000000000E+01 0.  0.
    9000005    1    3    3    0    0  0.56391479403E+02  0.79461642459E+01  0.17347591583E+02  0.59540569439E+02  0.10000000000E+01 0.  0.
         -4    1    1    2    0  502 -0.25651172115E+02 -0.75659769131E+01 -0.18376386778E+02  0.32473545056E+02  0.12700000000E+01 0.  1.
<mgrwt>
<rscale>  1 0.12782526E+03</rscale>
<asrwt>0</asrwt>
<pdfrwt beam="2">  1       21 0.74150542E-02 0.12782526E+03</pdfrwt>
<pdfrwt beam="1">  1       -4 0.28678797E-01 0.12782526E+03</pdfrwt>
<totfact> 0.63499762E+04</totfact>
</mgrwt>
</event>
<event>
 6    4  0.6376098E-003  0.1320909E+03  0.7818608E-02  0.1224386E+00
         21   -1    0    0  501  502  0.00000000000E+00  0.00000000000E+00  0.12746614482E+02  0.12746614482E+02  0.00000000000E+00 0. -1.
          4   -1    0    0  502    0 -0.00000000000E+00 -0.00000000000E+00 -0.61165551866E+03  0.61165683713E+03  0.12700000000E+01 0.  1.
         25    2    1    2    0    0  0.13525131369E+02 -0.40511839142E+02 -0.48760084682E+03  0.50517579198E+03  0.12499542668E+03 0.  0.
    9000005    1    3    3    0    0  0.46853868663E+02 -0.37151147771E+02 -0.10288782730E+03  0.11900587295E+03  0.10000000000E+01 0.  0.
    9000005    1    3    3    0    0 -0.33328737294E+02 -0.33606913710E+01 -0.38471301952E+03  0.38616991903E+03  0.10000000000E+01 0.  0.
          4    1    1    2  501    0 -0.13525131369E+02  0.40511839142E+02 -0.11130805736E+03  0.11922765963E+03  0.12700000000E+01 0. -1.
<mgrwt>
<rscale>  1 0.13209086E+03</rscale>
<asrwt>0</asrwt>
<pdfrwt beam="1">  1       21 0.19610183E-02 0.13209086E+03</pdfrwt>
<pdfrwt beam="2">  1        4 0.94105784E-01 0.13209086E+03</pdfrwt>
<totfact> 0.50322649E+04</totfact>
</mgrwt>
</event>
<event>
 6    4  0.6376098E-003  0.1281339E+03  0.7818608E-02  0.1230251E+00
         -4   -1    0    0    0  501 -0.00000000000E+00  0.00000000000E+00  0.10867428163E+03  0.10868170218E+03  0.12700000000E+01 0.  1.
         21   -1    0    0  501  502  0.00000000000E+00 -0.00000000000E+00 -0.71627084369E+02  0.71627084369E+02  0.00000000000E+00 0.  1.
         25    2    1    2    0    0  0.26900701145E+02  0.83935267010E+01  0.62274389504E+02  0.14246538368E+03  0.12499674774E+03 0.  0.
    9000005    1    3    3    0    0 -0.18516381791E+02 -0.42981190329E+02  0.56893426620E+02  0.73675648007E+02  0.10000000000E+01 0.  0.
    9000005    1    3    3    0    0  0.45417082936E+02  0.51374717030E+02  0.53809628830E+01  0.68789735672E+02  0.10000000000E+01 0.  0.
         -4    1    1    2    0  502 -0.26900701145E+02 -0.83935267010E+01 -0.25227192238E+02  0.37843402870E+02  0.12700000000E+01 0. -1.
<mgrwt>
<rscale>  1 0.12813386E+03</rscale>
<asrwt>0</asrwt>
<pdfrwt beam="2">  1       21 0.11019551E-01 0.12813386E+03</pdfrwt>
<pdfrwt beam="1">  1       -4 0.16720557E-01 0.12813386E+03</pdfrwt>
<totfact> 0.85036916E+04</totfact>
</mgrwt>
</event>
<event>
 6    4  0.6376098E-003  0.1287433E+03  0.7818608E-02  0.1229332E+00
         21   -1    0    0  501  502  0.00000000000E+00  0.00000000000E+00  0.13037413564E+03  0.13037413564E+03  0.00000000000E+00 0.  1.
          4   -1    0    0  502    0 -0.00000000000E+00 -0.00000000000E+00 -0.77571904843E+02  0.77582300307E+02  0.12700000000E+01 0. -1.
         25    2    1    2    0    0 -0.23298687214E+02 -0.20171974926E+02 -0.18691500017E+02  0.13009306944E+03  0.12500038858E+03 0.  0.
    9000005    1    3    3    0    0  0.50909082510E+01 -0.56707061106E+02 -0.48706260713E+02  0.74932689521E+02  0.10000000000E+01 0.  0.
    9000005    1    3    3    0    0 -0.28389595466E+02  0.36535086181E+02  0.30014760696E+02  0.55160379917E+02  0.10000000000E+01 0.  0.
          4    1    1    2  501    0  0.23298687214E+02  0.20171974926E+02  0.71493730812E+02  0.77863366507E+02  0.12700000000E+01 0.  1.
<mgrwt>
<rscale>  1 0.12874329E+03</rscale>
<asrwt>0</asrwt>
<pdfrwt beam="1">  1       21 0.20057559E-01 0.12874329E+03</pdfrwt>
<pdfrwt beam="2">  1        4 0.11935415E-01 0.12874329E+03</pdfrwt>
<totfact> 0.51881964E+04</totfact>
</mgrwt>
</event>
<event>
 6    4  0.6376098E-003  0.1269924E+03  0.7818608E-02  0.1231988E+00
         21   -1    0    0  501  502  0.00000000000E+00  0.00000000000E+00  0.13968603853E+03  0.13968603853E+03  0.00000000000E+00 0.  1.
          4   -1    0    0  502    0 -0.00000000000E+00 -0.00000000000E+00 -0.89311449057E+02  0.89320478238E+02  0.12700000000E+01 0. -1.
         25    2    1    2    0    0 -0.19798832941E+02 -0.10479803100E+02 -0.42146523768E+02  0.13380363155E+03  0.12500104916E+03 0.  0.
    9000005    1    3    3    0    0  0.51392541510E+02 -0.15708131859E+02 -0.29466729166E+02  0.61296222210E+02  0.10000000000E+01 0.  0.
    9000005    1    3    3    0    0 -0.71191374451E+02  0.52283287588E+01 -0.12679794602E+02  0.72507409339E+02  0.10000000000E+01 0.  0.
          4    1    1    2  501    0  0.19798832941E+02  0.10479803100E+02  0.92521113238E+02  0.95202885217E+02  0.12700000000E+01 0.  1.
<mgrwt>
<rscale>  1 0.12699245E+03</rscale>
<asrwt>0</asrwt>
<pdfrwt beam="1">  1       21 0.21490160E-01 0.12699245E+03</pdfrwt>
<pdfrwt beam="2">  1        4 0.13741362E-01 0.12699245E+03</pdfrwt>
<totfact> 0.35775292E+04</totfact>
</mgrwt>
</event>
<event>
 6    4  0.6376098E-003  0.1300697E+03  0.7818608E-02  0.1227352E+00
         21   -1    0    0  501  502  0.00000000000E+00  0.00000000000E+00  0.11323789234E+03  0.11323789234E+03  0.00000000000E+00 0. -1.
          4   -1    0    0  502    0 -0.00000000000E+00 -0.00000000000E+00 -0.17470999768E+03  0.17471461355E+03  0.12700000000E+01 0.  1.
         25    2    1    2    0    0  0.35553912782E+02 -0.54572925985E+01 -0.14632694287E+03  0.19577973817E+03  0.12499707561E+03 0.  0.
    9000005    1    3    3    0    0 -0.27775492547E+02  0.17767372480E+02  0.17771704747E+01  0.33035069940E+02  0.10000000000E+01 0.  0.
    9000005    1    3    3    0    0  0.63329405329E+02 -0.23224665079E+02 -0.14810411335E+03  0.16274466823E+03  0.10000000000E+01 0.  0.
          4    1    1    2  501    0 -0.35553912782E+02  0.54572925985E+01  0.84854837536E+02  0.92172767724E+02  0.12700000000E+01 0. -1.
<mgrwt>
<rscale>  1 0.13006972E+03</rscale>
<asrwt>0</asrwt>
<pdfrwt beam="1">  1       21 0.17421214E-01 0.13006972E+03</pdfrwt>
<pdfrwt beam="2">  1        4 0.26879364E-01 0.13006972E+03</pdfrwt>
<totfact> 0.15879067E+04</totfact>
</mgrwt>
</event>
<event>
 6    4  0.6376098E-003  0.1477511E+03  0.7818608E-02  0.1203264E+00
         21   -1    0    0  501  502  0.00000000000E+00  0.00000000000E+00  0.12977950056E+03  0.12977950056E+03  0.00000000000E+00 0. -1.
         -4   -1    0    0    0  501 -0.00000000000E+00 -0.00000000000E+00 -0.61093038418E+03  0.61093170422E+03  0.12700000000E+01 0.  1.
         25    2    1    2    0    0  0.20842217148E+02 -0.75975300043E+02 -0.58894197213E+03  0.60719275701E+03  0.12499501350E+03 0.  0.
    9000005    1    3    3    0    0  0.24220127854E+02 -0.59503658022E+02 -0.10597009464E+03  0.12392724022E+03  0.10000000000E+01 0.  0.
    9000005    1    3    3    0    0 -0.33779107066E+01 -0.16471642021E+02 -0.48297187749E+03  0.48326551679E+03  0.10000000000E+01 0.  0.
         -4    1    1    2    0  502 -0.20842217148E+02  0.75975300043E+02  0.10779108851E+03  0.13351844777E+03  0.12700000000E+01 0. -1.
<mgrwt>
<rscale>  1 0.14775113E+03</rscale>
<asrwt>0</asrwt>
<pdfrwt beam="1">  1       21 0.19966077E-01 0.14775113E+03</pdfrwt>
<pdfrwt beam="2">  1       -4 0.93989869E-01 0.14775113E+03</pdfrwt>
<totfact> 0.95593146E+02</totfact>
</mgrwt>
</event>
<event>
 6    4  0.6376098E-003  0.1268882E+03  0.7818608E-02  0.1232147E+00
         -4   -1    0    0    0  501 -0.00000000000E+00  0.00000000000E+00  0.49847498265E+03  0.49847660048E+03  0.12700000000E+01 0. -1.
         21   -1    0    0  501  502  0.00000000000E+00 -0.00000000000E+00 -0.11600127553E+02  0.11600127553E+02  0.00000000000E+00 0. -1.
         25    2    1    2    0    0 -0.21287638125E+02  0.47120220259E+01  0.44642324452E+03  0.46410595050E+03  0.12500101342E+03 0.  0.
    9000005    1    3    3    0    0 -0.50856315494E+02 -0.27410618484E+02  0.10454944483E+03  0.11945414704E+03  0.10000000000E+01 0.  0.
    9000005    1    3    3    0    0  0.29568677370E+02  0.32122640510E+02  0.34187379969E+03  0.34465180346E+03  0.10000000000E+01 0.  0.
         -4    1    1    2    0  502  0.21287638125E+02 -0.47120220259E+01  0.40451610582E+02  0.45970777535E+02  0.12700000000E+01 0.  1.
<mgrwt>
<rscale>  1 0.12688822E+03</rscale>
<asrwt>0</asrwt>
<pdfrwt beam="2">  1       21 0.17846354E-02 0.12688822E+03</pdfrwt>
<pdfrwt beam="1">  1       -4 0.76693914E-01 0.12688822E+03</pdfrwt>
<totfact> 0.91959860E+04</totfact>
</mgrwt>
</event>
<event>
 6    4  0.6376098E-003  0.1282529E+03  0.7818608E-02  0.1230071E+00
         -4   -1    0    0    0  501 -0.00000000000E+00  0.00000000000E+00  0.13403931841E+02  0.13463962597E+02  0.12700000000E+01 0.  1.
         21   -1    0    0  501  502  0.00000000000E+00 -0.00000000000E+00 -0.58382573213E+03  0.58382573213E+03  0.00000000000E+00 0. -1.
         25    2    1    2    0    0  0.15907535495E+02  0.23895755445E+02 -0.31282338158E+03  0.33809360094E+03  0.12499903247E+03 0.  0.
    9000005    1    3    3    0    0 -0.37034764634E+02  0.18727739964E+02 -0.32378322893E+02  0.52646536724E+02  0.10000000000E+01 0.  0.
    9000005    1    3    3    0    0  0.52942300129E+02  0.51680154807E+01 -0.28044505869E+03  0.28544706421E+03  0.10000000000E+01 0.  0.
         -4    1    1    2    0  502 -0.15907535495E+02 -0.23895755445E+02 -0.25759841871E+03  0.25919609379E+03  0.12700000000E+01 0. -1.
<mgrwt>
<rscale>  1 0.12825293E+03</rscale>
<asrwt>0</asrwt>
<pdfrwt beam="2">  1       21 0.89819312E-01 0.12825293E+03</pdfrwt>
<pdfrwt beam="1">  1       -4 0.20668681E-02 0.12825293E+03</pdfrwt>
<totfact> 0.41582773E+04</totfact>
</mgrwt>
</event>
<event>
 6    4  0.6376098E-003  0.1288845E+03  0.7818608E-02  0.1229120E+00
         21   -1    0    0  501  502  0.00000000000E+00  0.00000000000E+00  0.13945582354E+04  0.13945582354E+04  0.00000000000E+00 0. -1.
         -4   -1    0    0    0  501 -0.00000000000E+00 -0.00000000000E+00 -0.68536139507E+01  0.69702886730E+01  0.12700000000E+01 0.  1.
         25    2    1    2    0    0  0.30395471051E+02 -0.79013293704E+01  0.62369166876E+03  0.63686930557E+03  0.12499959612E+03 0.  0.
    9000005    1    3    3    0    0 -0.81522853454E+00  0.17379784064E+02  0.56762847389E+03  0.56789594634E+03  0.10000000000E+01 0.  0.
    9000005    1    3    3    0    0  0.31210699585E+02 -0.25281113434E+02  0.56063194866E+02  0.68973359231E+02  0.10000000000E+01 0.  0.
         -4    1    1    2    0  502 -0.30395471051E+02  0.79013293704E+01  0.76401295270E+03  0.76465921852E+03  0.12700000000E+01 0. -1.
<mgrwt>
<rscale>  1 0.12888450E+03</rscale>
<asrwt>0</asrwt>
<pdfrwt beam="1">  1       21 0.21454720E+00 0.12888450E+03</pdfrwt>
<pdfrwt beam="2">  1       -4 0.10634227E-02 0.12888450E+03</pdfrwt>
<totfact> 0.12228666E+04</totfact>
</mgrwt>
</event>
<event>
 6    4  0.6376098E-003  0.1266841E+03  0.7818608E-02  0.1232461E+00
         21   -1    0    0  501  502  0.00000000000E+00  0.00000000000E+00  0.61135531947E+03  0.61135531947E+03  0.00000000000E+00 0.  1.
          4   -1    0    0  502    0 -0.00000000000E+00 -0.00000000000E+00 -0.24104875038E+02  0.24138307741E+02  0.12700000000E+01 0. -1.
         25    2    1    2    0    0  0.48071606602E+01 -0.20015313526E+02  0.14412144470E+03  0.19188496536E+03  0.12500051015E+03 0.  0.
    9000005    1    3    3    0    0 -0.56798265743E+02 -0.10335553175E+02  0.10005116167E+03  0.11551667240E+03  0.10000000000E+01 0.  0.
    9000005    1    3    3    0    0  0.61605426403E+02 -0.96797603515E+01  0.44070283031E+02  0.76368292957E+02  0.10000000000E+01 0.  0.
          4    1    1    2  501    0 -0.48071606602E+01  0.20015313526E+02  0.44312899973E+03  0.44360866185E+03  0.12700000000E+01 0.  1.
<mgrwt>
<rscale>  1 0.12668405E+03</rscale>
<asrwt>0</asrwt>
<pdfrwt beam="1">  1       21 0.94054653E-01 0.12668405E+03</pdfrwt>
<pdfrwt beam="2">  1        4 0.37111160E-02 0.12668405E+03</pdfrwt>
<totfact> 0.15001787E+04</totfact>
</mgrwt>
</event>
<event>
 6    4  0.6376098E-003  0.1277891E+03  0.7818608E-02  0.1230774E+00
         21   -1    0    0  501  502  0.00000000000E+00  0.00000000000E+00  0.88205169938E+02  0.88205169938E+02  0.00000000000E+00 0.  1.
         -4   -1    0    0    0  501 -0.00000000000E+00 -0.00000000000E+00 -0.68314144043E+02  0.68325948046E+02  0.12700000000E+01 0.  1.
         25    2    1    2    0    0 -0.17724380307E+02 -0.19765211212E+02  0.10030082369E+02  0.12818207322E+03  0.12500089645E+03 0.  0.
    9000005    1    3    3    0    0 -0.23220230729E+02  0.50090704369E+02 -0.80618574737E+01  0.55805477555E+02  0.10000000000E+01 0.  0.
    9000005    1    3    3    0    0  0.54958504219E+01 -0.69855915581E+02  0.18091939842E+02  0.72376595670E+02  0.10000000000E+01 0.  0.
         -4    1    1    2    0  502  0.17724380307E+02  0.19765211212E+02  0.98609435258E+01  0.28349044759E+02  0.12700000000E+01 0. -1.
<mgrwt>
<rscale>  1 0.12778905E+03</rscale>
<asrwt>0</asrwt>
<pdfrwt beam="1">  1       21 0.13570026E-01 0.12778905E+03</pdfrwt>
<pdfrwt beam="2">  1       -4 0.10511480E-01 0.12778905E+03</pdfrwt>
<totfact> 0.13082278E+05</totfact>
</mgrwt>
</event>
<event>
 6    4  0.6376098E-003  0.1290212E+03  0.7818608E-02  0.1228915E+00
         21   -1    0    0  501  502  0.00000000000E+00  0.00000000000E+00  0.10775637847E+03  0.10775637847E+03  0.00000000000E+00 0. -1.
         -4   -1    0    0    0  501 -0.00000000000E+00 -0.00000000000E+00 -0.60214628815E+02  0.60228020251E+02  0.12700000000E+01 0. -1.
         25    2    1    2    0    0  0.27673798079E+02 -0.15983626720E+02  0.40578140119E+02  0.13525184335E+03  0.12500064100E+03 0.  0.
    9000005    1    3    3    0    0  0.63015403733E+01 -0.63767243948E+02 -0.70523578828E+01  0.64472525649E+02  0.10000000000E+01 0.  0.
    9000005    1    3    3    0    0  0.21372257705E+02  0.47783617228E+02  0.47630498001E+02  0.70779317704E+02  0.10000000000E+01 0.  0.
         -4    1    1    2    0  502 -0.27673798079E+02  0.15983626720E+02  0.69636095373E+01  0.32732555370E+02  0.12700000000E+01 0.  1.
<mgrwt>
<rscale>  1 0.12902122E+03</rscale>
<asrwt>0</asrwt>
<pdfrwt beam="1">  1       21 0.16577904E-01 0.12902122E+03</pdfrwt>
<pdfrwt beam="2">  1       -4 0.92653948E-02 0.12902122E+03</pdfrwt>
<totfact> 0.11289615E+05</totfact>
</mgrwt>
</event>
<event>
 6    4  0.6376098E-003  0.1279289E+03  0.7818608E-02  0.1230562E+00
          4   -1    0    0  502    0 -0.00000000000E+00  0.00000000000E+00  0.29028779591E+03  0.29029057400E+03  0.12700000000E+01 0. -1.
         21   -1    0    0  501  502  0.00000000000E+00 -0.00000000000E+00 -0.20770660189E+02  0.20770660189E+02  0.00000000000E+00 0. -1.
         25    2    1    2    0    0  0.26349720956E+02 -0.68467906648E+01  0.22673226624E+03  0.26033309315E+03  0.12499844998E+03 0.  0.
    9000005    1    3    3    0    0 -0.12848991527E+02  0.86962094385E+01  0.21633224815E+03  0.21689020779E+03  0.10000000000E+01 0.  0.
    9000005    1    3    3    0    0  0.39198712483E+02 -0.15543000103E+02  0.10400018086E+02  0.43442885364E+02  0.10000000000E+01 0.  0.
          4    1    1    2  501    0 -0.26349720956E+02  0.68467906648E+01  0.42784869479E+02  0.50728141039E+02  0.12700000000E+01 0.  1.
<mgrwt>
<rscale>  1 0.12792888E+03</rscale>
<asrwt>0</asrwt>
<pdfrwt beam="2">  1       21 0.31954864E-02 0.12792888E+03</pdfrwt>
<pdfrwt beam="1">  1        4 0.44662858E-01 0.12792888E+03</pdfrwt>
<totfact> 0.11065659E+05</totfact>
</mgrwt>
</event>
<event>
 6    4  0.6376098E-003  0.1361256E+03  0.7818608E-02  0.1218639E+00
         21   -1    0    0  501  502  0.00000000000E+00  0.00000000000E+00  0.64184896068E+02  0.64184896068E+02  0.00000000000E+00 0. -1.
          4   -1    0    0  502    0 -0.00000000000E+00 -0.00000000000E+00 -0.39426532089E+03  0.39426736633E+03  0.12700000000E+01 0.  1.
         25    2    1    2    0    0 -0.53691176065E+02  0.44843666124E+01 -0.36812268689E+03  0.39248500890E+03  0.12500927037E+03 0.  0.
    9000005    1    3    3    0    0  0.22278746952E+02 -0.39413924333E+01 -0.25471500974E+03  0.25571979455E+03  0.10000000000E+01 0.  0.
    9000005    1    3    3    0    0 -0.75969923018E+02  0.84257590457E+01 -0.11340767715E+03  0.13676521435E+03  0.10000000000E+01 0.  0.
          4    1    1    2  501    0  0.53691176065E+02 -0.44843666124E+01  0.38042262069E+02  0.65967253501E+02  0.12700000000E+01 0. -1.
<mgrwt>
<rscale>  1 0.13612557E+03</rscale>
<asrwt>0</asrwt>
<pdfrwt beam="1">  1       21 0.98745994E-02 0.13612557E+03</pdfrwt>
<pdfrwt beam="2">  1        4 0.60657327E-01 0.13612557E+03</pdfrwt>
<totfact> 0.88151149E+03</totfact>
</mgrwt>
</event>
<event>
 6    4  0.6376098E-003  0.1280581E+03  0.7818608E-02  0.1230366E+00
         -4   -1    0    0    0  501 -0.00000000000E+00  0.00000000000E+00  0.11887727288E+03  0.11888405657E+03  0.12700000000E+01 0.  1.
         21   -1    0    0  501  502  0.00000000000E+00 -0.00000000000E+00 -0.66370913485E+02  0.66370913485E+02  0.00000000000E+00 0.  1.
         25    2    1    2    0    0 -0.82473054135E+01 -0.26596900402E+02  0.25918240479E+01  0.12808428792E+03  0.12499381625E+03 0.  0.
    9000005    1    3    3    0    0 -0.83382239561E+01 -0.59446201857E+02  0.44569599490E+02  0.74771826865E+02  0.10000000000E+01 0.  0.
    9000005    1    3    3    0    0  0.90918542602E-01  0.32849301455E+02 -0.41977775442E+02  0.53312461051E+02  0.10000000000E+01 0.  0.
         -4    1    1    2    0  502  0.82473054135E+01  0.26596900402E+02  0.49914535344E+02  0.57170682139E+02  0.12700000000E+01 0. -1.
<mgrwt>
<rscale>  1 0.12805806E+03</rscale>
<asrwt>0</asrwt>
<pdfrwt beam="2">  1       21 0.10210910E-01 0.12805806E+03</pdfrwt>
<pdfrwt beam="1">  1       -4 0.18290268E-01 0.12805806E+03</pdfrwt>
<totfact> 0.82925947E+04</totfact>
</mgrwt>
</event>
<event>
 6    4  0.6376098E-003  0.1471623E+03  0.7818608E-02  0.1204004E+00
         21   -1    0    0  501  502  0.00000000000E+00  0.00000000000E+00  0.46504789648E+03  0.46504789648E+03  0.00000000000E+00 0.  1.
          4   -1    0    0  502    0 -0.00000000000E+00 -0.00000000000E+00 -0.19738445874E+03  0.19738854438E+03  0.12700000000E+01 0. -1.
         25    2    1    2    0    0  0.43621762965E+02 -0.64252437195E+02 -0.16601891849E+03  0.22185360767E+03  0.12500203219E+03 0.  0.
    9000005    1    3    3    0    0 -0.18455731925E+02 -0.59429627331E+02 -0.14212415955E+03  0.15515402468E+03  0.10000000000E+01 0.  0.
    9000005    1    3    3    0    0  0.62077494890E+02 -0.48228098646E+01 -0.23894758935E+02  0.66699582993E+02  0.10000000000E+01 0.  0.
          4    1    1    2  501    0 -0.43621762965E+02  0.64252437195E+02  0.43368235623E+03  0.44058283318E+03  0.12700000000E+01 0.  1.
<mgrwt>
<rscale>  1 0.14716230E+03</rscale>
<asrwt>0</asrwt>
<pdfrwt beam="1">  1       21 0.71545830E-01 0.14716230E+03</pdfrwt>
<pdfrwt beam="2">  1        4 0.30367288E-01 0.14716230E+03</pdfrwt>
<totfact> 0.77083866E+02</totfact>
</mgrwt>
</event>
<event>
 6    4  0.6376098E-003  0.1275642E+03  0.7818608E-02  0.1231115E+00
         21   -1    0    0  501  502  0.00000000000E+00  0.00000000000E+00  0.66640935096E+02  0.66640935096E+02  0.00000000000E+00 0.  1.
         -4   -1    0    0    0  501 -0.00000000000E+00 -0.00000000000E+00 -0.14051255651E+03  0.14051829573E+03  0.12700000000E+01 0. -1.
         25    2    1    2    0    0 -0.19809857634E+02  0.15920454750E+02 -0.10622283124E+03  0.16599972383E+03  0.12500690819E+03 0.  0.
    9000005    1    3    3    0    0 -0.23775976997E+02  0.30081893928E+02 -0.13136771915E+03  0.13685282262E+03  0.10000000000E+01 0.  0.
    9000005    1    3    3    0    0  0.39661193624E+01 -0.14161439178E+02  0.25144887905E+02  0.29146901210E+02  0.10000000000E+01 0.  0.
         -4    1    1    2    0  502  0.19809857634E+02 -0.15920454750E+02  0.32351209833E+02  0.41159507002E+02  0.12700000000E+01 0.  1.
<mgrwt>
<rscale>  1 0.12756417E+03</rscale>
<asrwt>0</asrwt>
<pdfrwt beam="1">  1       21 0.10252452E-01 0.12756417E+03</pdfrwt>
<pdfrwt beam="2">  1       -4 0.21618689E-01 0.12756417E+03</pdfrwt>
<totfact> 0.60952643E+04</totfact>
</mgrwt>
</event>
<event>
 6    4  0.6376098E-003  0.1305345E+03  0.7818608E-02  0.1226665E+00
         21   -1    0    0  501  502  0.00000000000E+00  0.00000000000E+00  0.19104097705E+02  0.19104097705E+02  0.00000000000E+00 0. -1.
         -4   -1    0    0    0  501 -0.00000000000E+00 -0.00000000000E+00 -0.38214539255E+03  0.38214750287E+03  0.12700000000E+01 0. -1.
         25    2    1    2    0    0  0.16480906447E+02 -0.33788595314E+02 -0.24859620761E+03  0.28078342908E+03  0.12500388056E+03 0.  0.
    9000005    1    3    3    0    0 -0.24111017498E+02  0.27455739200E+02 -0.16709847621E+03  0.17104987440E+03  0.10000000000E+01 0.  0.
    9000005    1    3    3    0    0  0.40591923945E+02 -0.61244334513E+02 -0.81497731401E+02  0.10973355468E+03  0.10000000000E+01 0.  0.
         -4    1    1    2    0  502 -0.16480906447E+02  0.33788595314E+02 -0.11444508724E+03  0.12046817149E+03  0.12700000000E+01 0.  1.
<mgrwt>
<rscale>  1 0.13053452E+03</rscale>
<asrwt>0</asrwt>
<pdfrwt beam="1">  1       21 0.29390919E-02 0.13053452E+03</pdfrwt>
<pdfrwt beam="2">  1       -4 0.58795008E-01 0.13053452E+03</pdfrwt>
<totfact> 0.72596751E+04</totfact>
</mgrwt>
</event>
<event>
 6    4  0.6376098E-003  0.1267451E+03  0.7818608E-02  0.1232367E+00
         21   -1    0    0  501  502  0.00000000000E+00  0.00000000000E+00  0.15203356712E+02  0.15203356712E+02  0.00000000000E+00 0.  1.
          4   -1    0    0  502    0 -0.00000000000E+00 -0.00000000000E+00 -0.98618542348E+03  0.98618624122E+03  0.12700000000E+01 0. -1.
         25    2    1    2    0    0 -0.13683869143E+02 -0.15891696372E+02 -0.97212134859E+03  0.98034903826E+03  0.12499810456E+03 0.  0.
    9000005    1    3    3    0    0  0.25325178641E+02  0.29539886495E+02 -0.12062609386E+03  0.12675024295E+03  0.10000000000E+01 0.  0.
    9000005    1    3    3    0    0 -0.39009047784E+02 -0.45431582867E+02 -0.85149525473E+03  0.85359879531E+03  0.10000000000E+01 0.  0.
          4    1    1    2  501    0  0.13683869143E+02  0.15891696372E+02  0.11392818274E+01  0.21040559674E+02  0.12700000000E+01 0.  1.
<mgrwt>
<rscale>  1 0.12674510E+03</rscale>
<asrwt>0</asrwt>
<pdfrwt beam="1">  1       21 0.23389783E-02 0.12674510E+03</pdfrwt>
<pdfrwt beam="2">  1        4 0.15172495E+00 0.12674510E+03</pdfrwt>
<totfact> 0.11944867E+04</totfact>
</mgrwt>
</event>
<event>
 6    4  0.6376098E-003  0.1323643E+03  0.7818608E-02  0.1223989E+00
         21   -1    0    0  501  502  0.00000000000E+00  0.00000000000E+00  0.24295387212E+03  0.24295387212E+03  0.00000000000E+00 0.  1.
          4   -1    0    0  502    0 -0.00000000000E+00 -0.00000000000E+00 -0.76946460065E+02  0.76956940016E+02  0.12700000000E+01 0. -1.
         25    2    1    2    0    0 -0.30471606223E+02  0.31099982638E+02 -0.15482686399E+02  0.13326677542E+03  0.12499836857E+03 0.  0.
    9000005    1    3    3    0    0  0.42168785153E+02  0.20280515851E+02  0.20951225054E+02  0.51278256559E+02  0.10000000000E+01 0.  0.
    9000005    1    3    3    0    0 -0.72640391375E+02  0.10819466787E+02 -0.36433911453E+02  0.81988518858E+02  0.10000000000E+01 0.  0.
          4    1    1    2  501    0  0.30471606223E+02 -0.31099982638E+02  0.18149009845E+03  0.18664403672E+03  0.12700000000E+01 0.  1.
<mgrwt>
<rscale>  1 0.13236435E+03</rscale>
<asrwt>0</asrwt>
<pdfrwt beam="1">  1       21 0.37377519E-01 0.13236435E+03</pdfrwt>
<pdfrwt beam="2">  1        4 0.11838978E-01 0.13236435E+03</pdfrwt>
<totfact> 0.16054073E+04</totfact>
</mgrwt>
</event>
<event>
 6    4  0.6376098E-003  0.1387991E+03  0.7818608E-02  0.1214954E+00
         21   -1    0    0  501  502  0.00000000000E+00  0.00000000000E+00  0.35036571102E+03  0.35036571102E+03  0.00000000000E+00 0. -1.
          4   -1    0    0  502    0 -0.00000000000E+00 -0.00000000000E+00 -0.34512082669E+02  0.34535441943E+02  0.12700000000E+01 0.  1.
         25    2    1    2    0    0  0.55672688013E+02  0.23247956049E+02  0.13256433217E+03  0.19193355298E+03  0.12500108377E+03 0.  0.
    9000005    1    3    3    0    0  0.72144576296E+02  0.52159847828E+02  0.13127603846E+03  0.15861868707E+03  0.10000000000E+01 0.  0.
    9000005    1    3    3    0    0 -0.16471888282E+02 -0.28911891779E+02  0.12882937164E+01  0.33314865909E+02  0.10000000000E+01 0.  0.
          4    1    1    2  501    0 -0.55672688013E+02 -0.23247956049E+02  0.18328929618E+03  0.19296759999E+03  0.12700000000E+01 0. -1.
<mgrwt>
<rscale>  1 0.13879909E+03</rscale>
<asrwt>0</asrwt>
<pdfrwt beam="1">  1       21 0.53902415E-01 0.13879909E+03</pdfrwt>
<pdfrwt beam="2">  1        4 0.53115254E-02 0.13879909E+03</pdfrwt>
<totfact> 0.28894231E+04</totfact>
</mgrwt>
</event>
<event>
 6    4  0.6376098E-003  0.1343529E+03  0.7818608E-02  0.1221136E+00
         -4   -1    0    0    0  501 -0.00000000000E+00  0.00000000000E+00  0.42021992210E+03  0.42022184121E+03  0.12700000000E+01 0.  1.
         21   -1    0    0  501  502  0.00000000000E+00 -0.00000000000E+00 -0.21084243361E+02  0.21084243361E+02  0.00000000000E+00 0.  1.
         25    2    1    2    0    0 -0.10041982686E+02 -0.48216904976E+02  0.24411448055E+03  0.27864417714E+03  0.12499994599E+03 0.  0.
    9000005    1    3    3    0    0  0.92842158144E+01  0.39310663256E+02  0.11131946500E+03  0.11842528530E+03  0.10000000000E+01 0.  0.
    9000005    1    3    3    0    0 -0.19326198500E+02 -0.87527568232E+02  0.13279501555E+03  0.16021889184E+03  0.10000000000E+01 0.  0.
         -4    1    1    2    0  502  0.10041982686E+02  0.48216904976E+02  0.15502119819E+03  0.16266190744E+03  0.12700000000E+01 0. -1.
<mgrwt>
<rscale>  1 0.13435289E+03</rscale>
<asrwt>0</asrwt>
<pdfrwt beam="2">  1       21 0.32437301E-02 0.13435289E+03</pdfrwt>
<pdfrwt beam="1">  1       -4 0.64652302E-01 0.13435289E+03</pdfrwt>
<totfact> 0.50728257E+04</totfact>
</mgrwt>
</event>
<event>
 6    4  0.6376098E-003  0.1273531E+03  0.7818608E-02  0.1231437E+00
         -4   -1    0    0    0  501 -0.00000000000E+00  0.00000000000E+00  0.94053014230E+02  0.94061588259E+02  0.12700000000E+01 0.  1.
         21   -1    0    0  501  502  0.00000000000E+00 -0.00000000000E+00 -0.22066104545E+03  0.22066104545E+03  0.00000000000E+00 0. -1.
         25    2    1    2    0    0 -0.11488613483E+02 -0.21492267936E+02  0.49719465438E+02  0.13671447435E+03  0.12499966573E+03 0.  0.
    9000005    1    3    3    0    0  0.21163898193E+02 -0.36410643425E+02  0.79558150235E+02  0.90023023779E+02  0.10000000000E+01 0.  0.
    9000005    1    3    3    0    0 -0.32652511676E+02  0.14918375489E+02 -0.29838684798E+02  0.46691450571E+02  0.10000000000E+01 0.  0.
         -4    1    1    2    0  502  0.11488613483E+02  0.21492267936E+02 -0.17632749666E+03  0.17800815936E+03  0.12700000000E+01 0. -1.
<mgrwt>
<rscale>  1 0.12735314E+03</rscale>
<asrwt>0</asrwt>
<pdfrwt beam="2">  1       21 0.33947852E-01 0.12735314E+03</pdfrwt>
<pdfrwt beam="1">  1       -4 0.14470636E-01 0.12735314E+03</pdfrwt>
<totfact> 0.13684875E+04</totfact>
</mgrwt>
</event>
<event>
 6    4  0.6376098E-003  0.1298850E+03  0.7818608E-02  0.1227626E+00
         21   -1    0    0  501  502  0.00000000000E+00  0.00000000000E+00  0.41313560320E+02  0.41313560320E+02  0.00000000000E+00 0.  1.
         -4   -1    0    0    0  501 -0.00000000000E+00 -0.00000000000E+00 -0.19429184284E+03  0.19429599351E+03  0.12700000000E+01 0.  1.
         25    2    1    2    0    0  0.35014628292E+02 -0.43857453418E+01 -0.15247267765E+03  0.20029486152E+03  0.12499942066E+03 0.  0.
    9000005    1    3    3    0    0  0.31092478196E+01  0.22314131436E+02 -0.15683809749E+03  0.15845118084E+03  0.10000000000E+01 0.  0.
    9000005    1    3    3    0    0  0.31905380472E+02 -0.26699876778E+02  0.43654198408E+01  0.41843680687E+02  0.10000000000E+01 0.  0.
         -4    1    1    2    0  502 -0.35014628292E+02  0.43857453418E+01 -0.50560487195E+00  0.35314692310E+02  0.12700000000E+01 0. -1.
<mgrwt>
<rscale>  1 0.12988500E+03</rscale>
<asrwt>0</asrwt>
<pdfrwt beam="1">  1       21 0.63559323E-02 0.12988500E+03</pdfrwt>
<pdfrwt beam="2">  1       -4 0.29892874E-01 0.12988500E+03</pdfrwt>
<totfact> 0.76598863E+04</totfact>
</mgrwt>
</event>
<event>
 6    4  0.6376098E-003  0.1296771E+03  0.7818608E-02  0.1227936E+00
         21   -1    0    0  501  502  0.00000000000E+00  0.00000000000E+00  0.32827415495E+03  0.32827415495E+03  0.00000000000E+00 0. -1.
          4   -1    0    0  502    0 -0.00000000000E+00 -0.00000000000E+00 -0.34333911336E+02  0.34357391747E+02  0.12700000000E+01 0.  1.
         25    2    1    2    0    0  0.33838137211E+02  0.68322140340E+01  0.95095062968E+02  0.16080806579E+03  0.12499785736E+03 0.  0.
    9000005    1    3    3    0    0 -0.37859967270E+02 -0.96549764516E+01 -0.18217077621E+01  0.39126900096E+02  0.10000000000E+01 0.  0.
    9000005    1    3    3    0    0  0.71698104481E+02  0.16487190486E+02  0.96916770730E+02  0.12168116570E+03  0.10000000000E+01 0.  0.
          4    1    1    2  501    0 -0.33838137211E+02 -0.68322140340E+01  0.19884518064E+03  0.20182348090E+03  0.12700000000E+01 0. -1.
<mgrwt>
<rscale>  1 0.12967715E+03</rscale>
<asrwt>0</asrwt>
<pdfrwt beam="1">  1       21 0.50503714E-01 0.12967715E+03</pdfrwt>
<pdfrwt beam="2">  1        4 0.52841356E-02 0.12967715E+03</pdfrwt>
<totfact> 0.33142508E+04</totfact>
</mgrwt>
</event>
<event>
 6    4  0.6376098E-003  0.1302474E+03  0.7818608E-02  0.1227089E+00
         21   -1    0    0  501  502  0.00000000000E+00  0.00000000000E+00  0.94382190598E+03  0.94382190598E+03  0.00000000000E+00 0.  1.
          4   -1    0    0  502    0 -0.00000000000E+00 -0.00000000000E+00 -0.75449056459E+01  0.76510457590E+01  0.12700000000E+01 0.  1.
         25    2    1    2    0    0 -0.33294269601E+02 -0.14683656629E+02  0.65276190495E+03  0.66562939248E+03  0.12506104676E+03 0.  0.
    9000005    1    3    3    0    0 -0.27656869998E+02  0.22758100620E+02  0.59784117241E+03  0.59891393458E+03  0.10000000000E+01 0.  0.
    9000005    1    3    3    0    0 -0.56373996027E+01 -0.37441757249E+02  0.54920732536E+02  0.66715457897E+02  0.10000000000E+01 0.  0.
          4    1    1    2  501    0  0.33294269601E+02  0.14683656629E+02  0.28351509538E+03  0.28584355926E+03  0.12700000000E+01 0. -1.
<mgrwt>
<rscale>  1 0.13024739E+03</rscale>
<asrwt>0</asrwt>
<pdfrwt beam="1">  1       21 0.14520328E+00 0.13024739E+03</pdfrwt>
<pdfrwt beam="2">  1        4 0.11689858E-02 0.13024739E+03</pdfrwt>
<totfact> 0.31117554E+04</totfact>
</mgrwt>
</event>
<event>
 6    4  0.6376098E-003  0.1270590E+03  0.7818608E-02  0.1231886E+00
         21   -1    0    0  501  502  0.00000000000E+00  0.00000000000E+00  0.17473671235E+02  0.17473671235E+02  0.00000000000E+00 0. -1.
         -4   -1    0    0    0  501 -0.00000000000E+00 -0.00000000000E+00 -0.50724624724E+03  0.50724783709E+03  0.12700000000E+01 0. -1.
         25    2    1    2    0    0 -0.10209959566E+02  0.20360683199E+02 -0.48506272967E+03  0.50142781289E+03  0.12500079652E+03 0.  0.
    9000005    1    3    3    0    0  0.44197846992E+01  0.57139930053E+02 -0.42888756860E+03  0.43270088122E+03  0.10000000000E+01 0.  0.
    9000005    1    3    3    0    0 -0.14629744265E+02 -0.36779246854E+02 -0.56175161066E+02  0.68726931673E+02  0.10000000000E+01 0.  0.
         -4    1    1    2    0  502  0.10209959566E+02 -0.20360683199E+02 -0.47098463307E+01  0.23293695438E+02  0.12700000000E+01 0.  1.
<mgrwt>
<rscale>  1 0.12705904E+03</rscale>
<asrwt>0</asrwt>
<pdfrwt beam="1">  1       21 0.26882572E-02 0.12705904E+03</pdfrwt>
<pdfrwt beam="2">  1       -4 0.78041553E-01 0.12705904E+03</pdfrwt>
<totfact> 0.45612369E+04</totfact>
</mgrwt>
</event>
<event>
 6    4  0.6376098E-003  0.1275044E+03  0.7818608E-02  0.1231207E+00
         21   -1    0    0  501  502  0.00000000000E+00  0.00000000000E+00  0.31915628663E+02  0.31915628663E+02  0.00000000000E+00 0. -1.
          4   -1    0    0  502    0 -0.00000000000E+00 -0.00000000000E+00 -0.27420513712E+03  0.27420807815E+03  0.12700000000E+01 0.  1.
         25    2    1    2    0    0 -0.23367155520E+02 -0.92797917892E+01 -0.24928045660E+03  0.27999661840E+03  0.12500088712E+03 0.  0.
    9000005    1    3    3    0    0 -0.34466998353E+02  0.50056803109E+02 -0.81402431698E+02  0.10159238849E+03  0.10000000000E+01 0.  0.
    9000005    1    3    3    0    0  0.11099842834E+02 -0.59336594898E+02 -0.16787802490E+03  0.17840422991E+03  0.10000000000E+01 0.  0.
          4    1    1    2  501    0  0.23367155520E+02  0.92797917892E+01  0.69909481468E+01  0.26127088409E+02  0.12700000000E+01 0. -1.
<mgrwt>
<rscale>  1 0.12750435E+03</rscale>
<asrwt>0</asrwt>
<pdfrwt beam="1">  1       21 0.49100966E-02 0.12750435E+03</pdfrwt>
<pdfrwt beam="2">  1        4 0.42187577E-01 0.12750435E+03</pdfrwt>
<totfact> 0.60715085E+04</totfact>
</mgrwt>
</event>
<event>
 6    4  0.6376098E-003  0.1320032E+03  0.7818608E-02  0.1224513E+00
          4   -1    0    0  502    0 -0.00000000000E+00  0.00000000000E+00  0.78339412512E+02  0.78349706143E+02  0.12700000000E+01 0. -1.
         21   -1    0    0  501  502  0.00000000000E+00 -0.00000000000E+00 -0.10220282249E+03  0.10220282249E+03  0.00000000000E+00 0. -1.
         25    2    1    2    0    0 -0.22763149336E+02 -0.35797249633E+02 -0.28816745259E+00  0.13200349147E+03  0.12500093868E+03 0.  0.
    9000005    1    3    3    0    0 -0.40595964518E+02 -0.44488530682E+02 -0.50119252593E+02  0.78359435793E+02  0.10000000000E+01 0.  0.
    9000005    1    3    3    0    0  0.17832815182E+02  0.86912810496E+01  0.49831085140E+02  0.53644055680E+02  0.10000000000E+01 0.  0.
          4    1    1    2  501    0  0.22763149336E+02  0.35797249633E+02 -0.23575242524E+02  0.48549037159E+02  0.12700000000E+01 0.  1.
<mgrwt>
<rscale>  1 0.13200318E+03</rscale>
<asrwt>0</asrwt>
<pdfrwt beam="2">  1       21 0.15723511E-01 0.13200318E+03</pdfrwt>
<pdfrwt beam="1">  1        4 0.12053616E-01 0.13200318E+03</pdfrwt>
<totfact> 0.79892886E+04</totfact>
</mgrwt>
</event>
<event>
 6    4  0.6376098E-003  0.1281270E+03  0.7818608E-02  0.1230262E+00
         21   -1    0    0  501  502  0.00000000000E+00  0.00000000000E+00  0.13606118446E+02  0.13606118446E+02  0.00000000000E+00 0.  1.
          4   -1    0    0  502    0 -0.00000000000E+00 -0.00000000000E+00 -0.44994304196E+03  0.44994483429E+03  0.12700000000E+01 0.  1.
         25    2    1    2    0    0  0.13935874472E+00 -0.28124617856E+02 -0.36660843705E+03  0.38835329137E+03  0.12500207700E+03 0.  0.
    9000005    1    3    3    0    0  0.44179341554E+02  0.15080552275E+02 -0.62319220485E+02  0.77871191842E+02  0.10000000000E+01 0.  0.
    9000005    1    3    3    0    0 -0.44039982809E+02 -0.43205170132E+02 -0.30428921656E+03  0.31048209953E+03  0.10000000000E+01 0.  0.
          4    1    1    2  501    0 -0.13935874472E+00  0.28124617856E+02 -0.69728486461E+02  0.75197661364E+02  0.12700000000E+01 0. -1.
<mgrwt>
<rscale>  1 0.12812702E+03</rscale>
<asrwt>0</asrwt>
<pdfrwt beam="1">  1       21 0.20932493E-02 0.12812702E+03</pdfrwt>
<pdfrwt beam="2">  1        4 0.69226693E-01 0.12812702E+03</pdfrwt>
<totfact> 0.88958018E+04</totfact>
</mgrwt>
</event>
<event>
 6    4  0.6376098E-003  0.1278430E+03  0.7818608E-02  0.1230692E+00
         21   -1    0    0  501  502  0.00000000000E+00  0.00000000000E+00  0.47588506830E+02  0.47588506830E+02  0.00000000000E+00 0.  1.
          4   -1    0    0  502    0 -0.00000000000E+00 -0.00000000000E+00 -0.12611149110E+03  0.12611788568E+03  0.12700000000E+01 0.  1.
         25    2    1    2    0    0 -0.18461728273E+02  0.19443373667E+02 -0.60994481199E+02  0.14164798471E+03  0.12499977858E+03 0.  0.
    9000005    1    3    3    0    0  0.18558776431E+02 -0.33894191989E+02 -0.66036734138E+02  0.76518590479E+02  0.10000000000E+01 0.  0.
    9000005    1    3    3    0    0 -0.37020504704E+02  0.53337565656E+02  0.50422529392E+01  0.65129394234E+02  0.10000000000E+01 0.  0.
          4    1    1    2  501    0  0.18461728273E+02 -0.19443373667E+02 -0.17528503075E+02  0.32058407796E+02  0.12700000000E+01 0. -1.
<mgrwt>
<rscale>  1 0.12784297E+03</rscale>
<asrwt>0</asrwt>
<pdfrwt beam="1">  1       21 0.73213089E-02 0.12784297E+03</pdfrwt>
<pdfrwt beam="2">  1        4 0.19403563E-01 0.12784297E+03</pdfrwt>
<totfact> 0.13276516E+05</totfact>
</mgrwt>
</event>
<event>
 6    4  0.6376098E-003  0.1285046E+03  0.7818608E-02  0.1229692E+00
         21   -1    0    0  501  502  0.00000000000E+00  0.00000000000E+00  0.76343554676E+01  0.76343554676E+01  0.00000000000E+00 0. -1.
          4   -1    0    0  502    0 -0.00000000000E+00 -0.00000000000E+00 -0.83611423630E+03  0.83611520082E+03  0.12700000000E+01 0. -1.
         25    2    1    2    0    0  0.25610249703E+02 -0.15131294166E+02 -0.62215587422E+03  0.63528840989E+03  0.12501436302E+03 0.  0.
    9000005    1    3    3    0    0 -0.46117173291E+02  0.11076528029E+02 -0.16071859090E+03  0.16757371097E+03  0.10000000000E+01 0.  0.
    9000005    1    3    3    0    0  0.71727422994E+02 -0.26207822195E+02 -0.46143728332E+03  0.46771469892E+03  0.10000000000E+01 0.  0.
          4    1    1    2  501    0 -0.25610249703E+02  0.15131294166E+02 -0.20632400662E+03  0.20846114640E+03  0.12700000000E+01 0.  1.
<mgrwt>
<rscale>  1 0.12850460E+03</rscale>
<asrwt>0</asrwt>
<pdfrwt beam="1">  1       21 0.11745172E-02 0.12850460E+03</pdfrwt>
<pdfrwt beam="2">  1        4 0.12864105E+00 0.12850460E+03</pdfrwt>
<totfact> 0.54437728E+04</totfact>
</mgrwt>
</event>
<event>
 6    4  0.6376098E-003  0.1308210E+03  0.7818608E-02  0.1226243E+00
         -4   -1    0    0    0  501 -0.00000000000E+00  0.00000000000E+00  0.99743070662E+02  0.99751155608E+02  0.12700000000E+01 0. -1.
         21   -1    0    0  501  502  0.00000000000E+00 -0.00000000000E+00 -0.15516201951E+03  0.15516201951E+03  0.00000000000E+00 0.  1.
         25    2    1    2    0    0 -0.20030405421E+02  0.33143071794E+02  0.51956438842E+02  0.14076078955E+03  0.12495778482E+03 0.  0.
    9000005    1    3    3    0    0 -0.30265205832E+02  0.10649552285E+02 -0.36677665309E+02  0.48740607100E+02  0.10000000000E+01 0.  0.
    9000005    1    3    3    0    0  0.10234800411E+02  0.22493519509E+02  0.88634104151E+02  0.92020182450E+02  0.10000000000E+01 0.  0.
         -4    1    1    2    0  502  0.20030405421E+02 -0.33143071794E+02 -0.10737538769E+03  0.11415238557E+03  0.12700000000E+01 0.  1.
<mgrwt>
<rscale>  1 0.13082098E+03</rscale>
<asrwt>0</asrwt>
<pdfrwt beam="2">  1       21 0.23871080E-01 0.13082098E+03</pdfrwt>
<pdfrwt beam="1">  1       -4 0.15346110E-01 0.13082098E+03</pdfrwt>
<totfact> 0.24333674E+04</totfact>
</mgrwt>
</event>
<event>
 6    4  0.6376098E-003  0.1321755E+03  0.7818608E-02  0.1224263E+00
          4   -1    0    0  502    0 -0.00000000000E+00  0.00000000000E+00  0.37586899783E+03  0.37587114339E+03  0.12700000000E+01 0.  1.
         21   -1    0    0  501  502  0.00000000000E+00 -0.00000000000E+00 -0.44720258597E+02  0.44720258597E+02  0.00000000000E+00 0. -1.
         25    2    1    2    0    0  0.10419553914E+02  0.41674253562E+02  0.34965268311E+03  0.37380123899E+03  0.12500022781E+03 0.  0.
    9000005    1    3    3    0    0  0.27523011414E+02  0.13052714087E+01  0.31925184741E+03  0.32044026271E+03  0.10000000000E+01 0.  0.
    9000005    1    3    3    0    0 -0.17103457500E+02  0.40368982153E+02  0.30400835701E+02  0.53360976283E+02  0.10000000000E+01 0.  0.
          4    1    1    2  501    0 -0.10419553914E+02 -0.41674253562E+02 -0.18503943876E+02  0.46790162991E+02  0.12700000000E+01 0. -1.
<mgrwt>
<rscale>  1 0.13217552E+03</rscale>
<asrwt>0</asrwt>
<pdfrwt beam="2">  1       21 0.68800400E-02 0.13217552E+03</pdfrwt>
<pdfrwt beam="1">  1        4 0.57827550E-01 0.13217552E+03</pdfrwt>
<totfact> 0.18151055E+04</totfact>
</mgrwt>
</event>
<event>
 6    4  0.6376098E-003  0.1326892E+03  0.7818608E-02  0.1223519E+00
         21   -1    0    0  501  502  0.00000000000E+00  0.00000000000E+00  0.34089081325E+03  0.34089081325E+03  0.00000000000E+00 0. -1.
         -4   -1    0    0    0  501 -0.00000000000E+00 -0.00000000000E+00 -0.23031545213E+02  0.23066533656E+02  0.12700000000E+01 0.  1.
         25    2    1    2    0    0 -0.40886059178E+02 -0.17616197627E+02  0.23384415662E+03  0.26886711555E+03  0.12499774391E+03 0.  0.
    9000005    1    3    3    0    0 -0.74766569940E+02 -0.12603119898E+02  0.76043828050E+02  0.10738967546E+03  0.10000000000E+01 0.  0.
    9000005    1    3    3    0    0  0.33880510762E+02 -0.50130777294E+01  0.15780032857E+03  0.16147744008E+03  0.10000000000E+01 0.  0.
         -4    1    1    2    0  502  0.40886059178E+02  0.17616197627E+02  0.84015111412E+02  0.95090231357E+02  0.12700000000E+01 0. -1.
<mgrwt>
<rscale>  1 0.13268925E+03</rscale>
<asrwt>0</asrwt>
<pdfrwt beam="1">  1       21 0.52444737E-01 0.13268925E+03</pdfrwt>
<pdfrwt beam="2">  1       -4 0.35461883E-02 0.13268925E+03</pdfrwt>
<totfact> 0.58025032E+04</totfact>
</mgrwt>
</event>
<event>
 6    4  0.6376098E-003  0.1286125E+03  0.7818608E-02  0.1229529E+00
         21   -1    0    0  501  502  0.00000000000E+00  0.00000000000E+00  0.14400353734E+02  0.14400353734E+02  0.00000000000E+00 0. -1.
         -4   -1    0    0    0  501 -0.00000000000E+00 -0.00000000000E+00 -0.56690195355E+03  0.56690337610E+03  0.12700000000E+01 0.  1.
         25    2    1    2    0    0  0.26645350646E+01 -0.30147262569E+02 -0.52454849348E+03  0.54008545426E+03  0.12500087482E+03 0.  0.
    9000005    1    3    3    0    0  0.31032252164E+02 -0.17787036672E+02 -0.36704699107E+02  0.51260260285E+02  0.10000000000E+01 0.  0.
    9000005    1    3    3    0    0 -0.28367717100E+02 -0.12360225898E+02 -0.48784379438E+03  0.48882519398E+03  0.10000000000E+01 0.  0.
         -4    1    1    2    0  502 -0.26645350646E+01  0.30147262569E+02 -0.27953106329E+02  0.41218275570E+02  0.12700000000E+01 0. -1.
<mgrwt>
<rscale>  1 0.12861250E+03</rscale>
<asrwt>0</asrwt>
<pdfrwt beam="1">  1       21 0.22154393E-02 0.12861250E+03</pdfrwt>
<pdfrwt beam="2">  1       -4 0.87220092E-01 0.12861250E+03</pdfrwt>
<totfact> 0.48882954E+04</totfact>
</mgrwt>
</event>
<event>
 6    4  0.6376098E-003  0.1314515E+03  0.7818608E-02  0.1225318E+00
         21   -1    0    0  501  502  0.00000000000E+00  0.00000000000E+00  0.64953822104E+01  0.64953822104E+01  0.00000000000E+00 0.  1.
          4   -1    0    0  502    0 -0.00000000000E+00 -0.00000000000E+00 -0.19020074205E+04  0.19020078445E+04  0.12700000000E+01 0. -1.
         25    2    1    2    0    0 -0.40664894068E+02 -0.25401329006E-01 -0.17986054360E+04  0.18034026239E+04  0.12500350000E+03 0.  0.
    9000005    1    3    3    0    0 -0.27039838180E+02 -0.30858164491E+02 -0.16682743083E+04  0.16687790588E+04  0.10000000000E+01 0.  0.
    9000005    1    3    3    0    0 -0.13625055888E+02  0.30832763162E+02 -0.13033112770E+03  0.13462356510E+03  0.10000000000E+01 0.  0.
          4    1    1    2  501    0  0.40664894068E+02  0.25401329006E-01 -0.96906602211E+02  0.10510060279E+03  0.12700000000E+01 0.  1.
<mgrwt>
<rscale>  1 0.13145155E+03</rscale>
<asrwt>0</asrwt>
<pdfrwt beam="1">  1       21 0.99928796E-03 0.13145155E+03</pdfrwt>
<pdfrwt beam="2">  1        4 0.29262658E+00 0.13145155E+03</pdfrwt>
<totfact> 0.63855861E+03</totfact>
</mgrwt>
</event>
<event>
 6    4  0.6376098E-003  0.1419040E+03  0.7818608E-02  0.1210790E+00
         21   -1    0    0  501  502  0.00000000000E+00  0.00000000000E+00  0.24130355909E+03  0.24130355909E+03  0.00000000000E+00 0. -1.
          4   -1    0    0  502    0 -0.00000000000E+00 -0.00000000000E+00 -0.24581459045E+03  0.24581787115E+03  0.12700000000E+01 0.  1.
         25    2    1    2    0    0 -0.63790735789E+02 -0.21029416535E+02 -0.21978171776E+03  0.26161183918E+03  0.12500102641E+03 0.  0.
    9000005    1    3    3    0    0  0.57167036964E+01 -0.60250077466E+01  0.14518840965E+02  0.16756436449E+02  0.10000000000E+01 0.  0.
    9000005    1    3    3    0    0 -0.69507439485E+02 -0.15004408788E+02 -0.23430055873E+03  0.24485540273E+03  0.10000000000E+01 0.  0.
          4    1    1    2  501    0  0.63790735789E+02  0.21029416535E+02  0.21527068640E+03  0.22550959105E+03  0.12700000000E+01 0. -1.
<mgrwt>
<rscale>  1 0.14190402E+03</rscale>
<asrwt>0</asrwt>
<pdfrwt beam="1">  1       21 0.37123624E-01 0.14190402E+03</pdfrwt>
<pdfrwt beam="2">  1        4 0.37818139E-01 0.14190402E+03</pdfrwt>
<totfact> 0.19803113E+03</totfact>
</mgrwt>
</event>
<event>
 6    4  0.6376098E-003  0.1269228E+03  0.7818608E-02  0.1232095E+00
         21   -1    0    0  501  502  0.00000000000E+00  0.00000000000E+00  0.61645372237E+02  0.61645372237E+02  0.00000000000E+00 0.  1.
         -4   -1    0    0    0  501 -0.00000000000E+00 -0.00000000000E+00 -0.10069371328E+03  0.10070172190E+03  0.12700000000E+01 0.  1.
         25    2    1    2    0    0  0.10551763028E+02  0.19323961293E+02 -0.51555083432E+02  0.13699385592E+03  0.12499853899E+03 0.  0.
    9000005    1    3    3    0    0  0.37442326199E+02 -0.20153056285E+02  0.23068890908E+02  0.48386436080E+02  0.10000000000E+01 0.  0.
    9000005    1    3    3    0    0 -0.26890563170E+02  0.39477017578E+02 -0.74623974340E+02  0.88607419841E+02  0.10000000000E+01 0.  0.
         -4    1    1    2    0  502 -0.10551763028E+02 -0.19323961293E+02  0.12506742388E+02  0.25353238219E+02  0.12700000000E+01 0. -1.
<mgrwt>
<rscale>  1 0.12692277E+03</rscale>
<asrwt>0</asrwt>
<pdfrwt beam="1">  1       21 0.94839035E-02 0.12692277E+03</pdfrwt>
<pdfrwt beam="2">  1       -4 0.15492963E-01 0.12692277E+03</pdfrwt>
<totfact> 0.12627414E+05</totfact>
</mgrwt>
</event>
<event>
 6    4  0.6376098E-003  0.1265904E+03  0.7818608E-02  0.1232605E+00
         21   -1    0    0  501  502  0.00000000000E+00  0.00000000000E+00  0.33988437987E+03  0.33988437987E+03  0.00000000000E+00 0.  1.
          4   -1    0    0  502    0 -0.00000000000E+00 -0.00000000000E+00 -0.32923495666E+02  0.32947981226E+02  0.12700000000E+01 0. -1.
         25    2    1    2    0    0 -0.11664398782E+02 -0.16250990884E+02  0.90905155882E+02  0.15584885125E+03  0.12499985667E+03 0.  0.
    9000005    1    3    3    0    0 -0.17601551167E+02 -0.50953803527E+02 -0.45439026141E+01  0.54108703073E+02  0.10000000000E+01 0.  0.
    9000005    1    3    3    0    0  0.59371523853E+01  0.34702812642E+02  0.95449058496E+02  0.10174014818E+03  0.10000000000E+01 0.  0.
          4    1    1    2  501    0  0.11664398782E+02  0.16250990884E+02  0.21605572832E+03  0.21698350985E+03  0.12700000000E+01 0.  1.
<mgrwt>
<rscale>  1 0.12659035E+03</rscale>
<asrwt>0</asrwt>
<pdfrwt beam="1">  1       21 0.52289902E-01 0.12659035E+03</pdfrwt>
<pdfrwt beam="2">  1        4 0.50672194E-02 0.12659035E+03</pdfrwt>
<totfact> 0.32911284E+04</totfact>
</mgrwt>
</event>
<event>
 6    4  0.6376098E-003  0.1268021E+03  0.7818608E-02  0.1232280E+00
         -4   -1    0    0    0  501 -0.00000000000E+00  0.00000000000E+00  0.90411093452E+02  0.90420012825E+02  0.12700000000E+01 0.  1.
         21   -1    0    0  501  502  0.00000000000E+00 -0.00000000000E+00 -0.21800808359E+03  0.21800808359E+03  0.00000000000E+00 0. -1.
         25    2    1    2    0    0 -0.18023425850E+02 -0.11329129294E+02  0.44976135919E+02  0.13454224366E+03  0.12500227789E+03 0.  0.
    9000005    1    3    3    0    0  0.50228910611E+02  0.26327055051E+01  0.40749949416E+02  0.64741277226E+02  0.10000000000E+01 0.  0.
    9000005    1    3    3    0    0 -0.68252336461E+02 -0.13961834799E+02  0.42261865028E+01  0.69800966438E+02  0.10000000000E+01 0.  0.
         -4    1    1    2    0  502  0.18023425850E+02  0.11329129294E+02 -0.17257312605E+03  0.17388585275E+03  0.12700000000E+01 0. -1.
<mgrwt>
<rscale>  1 0.12680206E+03</rscale>
<asrwt>0</asrwt>
<pdfrwt beam="2">  1       21 0.33539705E-01 0.12680206E+03</pdfrwt>
<pdfrwt beam="1">  1       -4 0.13910370E-01 0.12680206E+03</pdfrwt>
<totfact> 0.14999757E+04</totfact>
</mgrwt>
</event>
<event>
 6    4  0.6376098E-003  0.1402514E+03  0.7818608E-02  0.1212991E+00
          4   -1    0    0  502    0 -0.00000000000E+00  0.00000000000E+00  0.36203154662E+03  0.36203377418E+03  0.12700000000E+01 0.  1.
         21   -1    0    0  501  502  0.00000000000E+00 -0.00000000000E+00 -0.28795547999E+02  0.28795547999E+02  0.00000000000E+00 0.  1.
         25    2    1    2    0    0  0.18352708274E+02 -0.60903816557E+02  0.23942585467E+03  0.27748007084E+03  0.12499741219E+03 0.  0.
    9000005    1    3    3    0    0 -0.51738494560E+02 -0.15705300257E+02  0.68362807684E+02  0.87166517367E+02  0.10000000000E+01 0.  0.
    9000005    1    3    3    0    0  0.70091202833E+02 -0.45198516299E+02  0.17106304699E+03  0.19031355347E+03  0.10000000000E+01 0.  0.
          4    1    1    2  501    0 -0.18352708274E+02  0.60903816557E+02  0.93810143951E+02  0.11334925134E+03  0.12700000000E+01 0. -1.
<mgrwt>
<rscale>  1 0.14025138E+03</rscale>
<asrwt>0</asrwt>
<pdfrwt beam="2">  1       21 0.44300846E-02 0.14025138E+03</pdfrwt>
<pdfrwt beam="1">  1        4 0.55699484E-01 0.14025138E+03</pdfrwt>
<totfact> 0.41576907E+04</totfact>
</mgrwt>
</event>
<event>
 6    4  0.6376098E-003  0.1278820E+03  0.7818608E-02  0.1230633E+00
         21   -1    0    0  501  502  0.00000000000E+00  0.00000000000E+00  0.34486869764E+03  0.34486869764E+03  0.00000000000E+00 0. -1.
         -4   -1    0    0    0  501 -0.00000000000E+00 -0.00000000000E+00 -0.23477561096E+02  0.23511885824E+02  0.12700000000E+01 0. -1.
         25    2    1    2    0    0  0.51949353933E+01 -0.26483701438E+02  0.16040421187E+03  0.20514217924E+03  0.12500171489E+03 0.  0.
    9000005    1    3    3    0    0 -0.43029955787E+02 -0.53648025320E+02  0.63872499411E+02  0.93863645235E+02  0.10000000000E+01 0.  0.
    9000005    1    3    3    0    0  0.48224891181E+02  0.27164323881E+02  0.96531712454E+02  0.11127853401E+03  0.10000000000E+01 0.  0.
         -4    1    1    2    0  502 -0.51949353933E+01  0.26483701438E+02  0.16098692468E+03  0.16323840422E+03  0.12700000000E+01 0.  1.
<mgrwt>
<rscale>  1 0.12788199E+03</rscale>
<asrwt>0</asrwt>
<pdfrwt beam="1">  1       21 0.53056719E-01 0.12788199E+03</pdfrwt>
<pdfrwt beam="2">  1       -4 0.36147530E-02 0.12788199E+03</pdfrwt>
<totfact> 0.54728084E+04</totfact>
</mgrwt>
</event>
<event>
 6    4  0.6376098E-003  0.1320802E+03  0.7818608E-02  0.1224401E+00
         -4   -1    0    0    0  501 -0.00000000000E+00  0.00000000000E+00  0.82810395443E+03  0.82810492828E+03  0.12700000000E+01 0. -1.
         21   -1    0    0  501  502  0.00000000000E+00 -0.00000000000E+00 -0.19250091154E+02  0.19250091154E+02  0.00000000000E+00 0.  1.
         25    2    1    2    0    0  0.40776561787E+02  0.12577901352E+02  0.78951675290E+03  0.80048852467E+03  0.12499697369E+03 0.  0.
    9000005    1    3    3    0    0 -0.44069422198E+02  0.16350352344E+01  0.34549023985E+03  0.34829483652E+03  0.10000000000E+01 0.  0.
    9000005    1    3    3    0    0  0.84845983985E+02  0.10942866117E+02  0.44402651305E+03  0.45219368815E+03  0.10000000000E+01 0.  0.
         -4    1    1    2    0  502 -0.40776561787E+02 -0.12577901352E+02  0.19337110379E+02  0.46866494763E+02  0.12700000000E+01 0.  1.
<mgrwt>
<rscale>  1 0.13208018E+03</rscale>
<asrwt>0</asrwt>
<pdfrwt beam="2">  1       21 0.29615531E-02 0.13208018E+03</pdfrwt>
<pdfrwt beam="1">  1       -4 0.12740388E+00 0.13208018E+03</pdfrwt>
<totfact> 0.12609445E+04</totfact>
</mgrwt>
</event>
<event>
 6    4  0.6376098E-003  0.1276163E+03  0.7818608E-02  0.1231036E+00
         21   -1    0    0  501  502  0.00000000000E+00  0.00000000000E+00  0.39879270451E+02  0.39879270451E+02  0.00000000000E+00 0.  1.
         -4   -1    0    0    0  501 -0.00000000000E+00 -0.00000000000E+00 -0.31734569387E+03  0.31734823510E+03  0.12700000000E+01 0. -1.
         25    2    1    2    0    0  0.73641385841E+01 -0.24623196554E+02 -0.29808488628E+03  0.32425378486E+03  0.12500154087E+03 0.  0.
    9000005    1    3    3    0    0 -0.39844052369E+02 -0.48820811940E+02 -0.22677965096E+03  0.23537423453E+03  0.10000000000E+01 0.  0.
    9000005    1    3    3    0    0  0.47208190953E+02  0.24197615386E+02 -0.71305235316E+02  0.88879550330E+02  0.10000000000E+01 0.  0.
         -4    1    1    2    0  502 -0.73641385841E+01  0.24623196554E+02  0.20618462859E+02  0.32973720692E+02  0.12700000000E+01 0.  1.
<mgrwt>
<rscale>  1 0.12761629E+03</rscale>
<asrwt>0</asrwt>
<pdfrwt beam="1">  1       21 0.61352723E-02 0.12761629E+03</pdfrwt>
<pdfrwt beam="2">  1       -4 0.48824166E-01 0.12761629E+03</pdfrwt>
<totfact> 0.31117567E+04</totfact>
</mgrwt>
</event>
<event>
 6    4  0.6376098E-003  0.1308772E+03  0.7818608E-02  0.1226160E+00
          4   -1    0    0  502    0 -0.00000000000E+00  0.00000000000E+00  0.16850052542E+03  0.16850531140E+03  0.12700000000E+01 0. -1.
         21   -1    0    0  501  502  0.00000000000E+00 -0.00000000000E+00 -0.97175032775E+02  0.97175032775E+02  0.00000000000E+00 0.  1.
         25    2    1    2    0    0 -0.37236659555E+02  0.10813398526E+02  0.13695934425E+03  0.18943787714E+03  0.12500139565E+03 0.  0.
    9000005    1    3    3    0    0 -0.10575284746E+02 -0.53254609390E+02  0.30294083051E+02  0.62182164136E+02  0.10000000000E+01 0.  0.
    9000005    1    3    3    0    0 -0.26661374809E+02  0.64068007916E+02  0.10666526120E+03  0.12725571300E+03  0.10000000000E+01 0.  0.
          4    1    1    2  501    0  0.37236659555E+02 -0.10813398526E+02 -0.65633851603E+02  0.76242467029E+02  0.12700000000E+01 0.  1.
<mgrwt>
<rscale>  1 0.13087722E+03</rscale>
<asrwt>0</asrwt>
<pdfrwt beam="2">  1       21 0.14950005E-01 0.13087722E+03</pdfrwt>
<pdfrwt beam="1">  1        4 0.25924164E-01 0.13087722E+03</pdfrwt>
<totfact> 0.22428914E+04</totfact>
</mgrwt>
</event>
<event>
 6    4  0.6376098E-003  0.1270481E+03  0.7818608E-02  0.1231903E+00
         21   -1    0    0  501  502  0.00000000000E+00  0.00000000000E+00  0.16241117354E+02  0.16241117354E+02  0.00000000000E+00 0. -1.
          4   -1    0    0  502    0 -0.00000000000E+00 -0.00000000000E+00 -0.48330278521E+03  0.48330445383E+03  0.12700000000E+01 0. -1.
         25    2    1    2    0    0  0.19006617418E+02 -0.12415128665E+02 -0.45761456418E+03  0.47492347555E+03  0.12500332538E+03 0.  0.
    9000005    1    3    3    0    0  0.20908307814E+02  0.20498633573E+02 -0.18668609385E+02  0.34740009936E+02  0.10000000000E+01 0.  0.
    9000005    1    3    3    0    0 -0.19016903960E+01 -0.32913762238E+02 -0.43894595479E+03  0.44018346561E+03  0.10000000000E+01 0.  0.
          4    1    1    2  501    0 -0.19006617418E+02  0.12415128665E+02 -0.94471036756E+01  0.24622095632E+02  0.12700000000E+01 0.  1.
<mgrwt>
<rscale>  1 0.12704809E+03</rscale>
<asrwt>0</asrwt>
<pdfrwt beam="1">  1       21 0.24986332E-02 0.12704809E+03</pdfrwt>
<pdfrwt beam="2">  1        4 0.74358228E-01 0.12704809E+03</pdfrwt>
<totfact> 0.57118298E+04</totfact>
</mgrwt>
</event>
<event>
 6    4  0.6376098E-003  0.1266278E+03  0.7818608E-02  0.1232547E+00
          4   -1    0    0  502    0 -0.00000000000E+00  0.00000000000E+00  0.21913744660E+02  0.21950514915E+02  0.12700000000E+01 0.  1.
         21   -1    0    0  501  502  0.00000000000E+00 -0.00000000000E+00 -0.41495788199E+03  0.41495788199E+03  0.00000000000E+00 0. -1.
         25    2    1    2    0    0 -0.15131288039E+02 -0.13414862781E+02 -0.16511590601E+03  0.20808137500E+03  0.12500272710E+03 0.  0.
    9000005    1    3    3    0    0 -0.50026566334E+02  0.13158696928E+02 -0.15451355030E+03  0.16294553038E+03  0.10000000000E+01 0.  0.
    9000005    1    3    3    0    0  0.34895278294E+02 -0.26573559709E+02 -0.10602355705E+02  0.45135844618E+02  0.10000000000E+01 0.  0.
          4    1    1    2  501    0  0.15131288039E+02  0.13414862781E+02 -0.22792823132E+03  0.22882702191E+03  0.12700000000E+01 0. -1.
<mgrwt>
<rscale>  1 0.12662779E+03</rscale>
<asrwt>0</asrwt>
<pdfrwt beam="2">  1       21 0.63839679E-01 0.12662779E+03</pdfrwt>
<pdfrwt beam="1">  1        4 0.33743231E-02 0.12662779E+03</pdfrwt>
<totfact> 0.41221079E+04</totfact>
</mgrwt>
</event>
<event>
 6    4  0.6376098E-003  0.1267453E+03  0.7818608E-02  0.1232367E+00
          4   -1    0    0  502    0 -0.00000000000E+00  0.00000000000E+00  0.17013750685E+03  0.17014224677E+03  0.12700000000E+01 0. -1.
         21   -1    0    0  501  502  0.00000000000E+00 -0.00000000000E+00 -0.71768160118E+02  0.71768160118E+02  0.00000000000E+00 0.  1.
         25    2    1    2    0    0 -0.20905397900E+02  0.12783802740E+01  0.14391096382E+03  0.19176739437E+03  0.12500279244E+03 0.  0.
    9000005    1    3    3    0    0 -0.61764096749E+02  0.35573108840E+02  0.64720564100E+02  0.96280845120E+02  0.10000000000E+01 0.  0.
    9000005    1    3    3    0    0  0.40858698849E+02 -0.34294728566E+02  0.79190399724E+02  0.95486549249E+02  0.10000000000E+01 0.  0.
          4    1    1    2  501    0  0.20905397900E+02 -0.12783802740E+01 -0.45541617092E+02  0.50143012522E+02  0.12700000000E+01 0.  1.
<mgrwt>
<rscale>  1 0.12674529E+03</rscale>
<asrwt>0</asrwt>
<pdfrwt beam="2">  1       21 0.11041255E-01 0.12674529E+03</pdfrwt>
<pdfrwt beam="1">  1        4 0.26176230E-01 0.12674529E+03</pdfrwt>
<totfact> 0.37656992E+04</totfact>
</mgrwt>
</event>
<event>
 6    4  0.6376098E-003  0.1286140E+03  0.7818608E-02  0.1229527E+00
         21   -1    0    0  501  502  0.00000000000E+00  0.00000000000E+00  0.13896639055E+04  0.13896639055E+04  0.00000000000E+00 0. -1.
          4   -1    0    0  502    0 -0.00000000000E+00 -0.00000000000E+00 -0.60084722248E+01  0.61412245096E+01  0.12700000000E+01 0.  1.
         25    2    1    2    0    0 -0.95914254106E+01 -0.28711316333E+02  0.71580051105E+03  0.72726332491E+03  0.12500094804E+03 0.  0.
    9000005    1    3    3    0    0  0.32896099076E+02  0.29297123517E+02  0.13454047454E+03  0.14157193956E+03  0.10000000000E+01 0.  0.
    9000005    1    3    3    0    0 -0.42487524486E+02 -0.58008439850E+02  0.58126003650E+03  0.58569138535E+03  0.10000000000E+01 0.  0.
          4    1    1    2  501    0  0.95914254106E+01  0.28711316333E+02  0.66785492221E+03  0.66854180509E+03  0.12700000000E+01 0. -1.
<mgrwt>
<rscale>  1 0.12861404E+03</rscale>
<asrwt>0</asrwt>
<pdfrwt beam="1">  1       21 0.21379419E+00 0.12861404E+03</pdfrwt>
<pdfrwt beam="2">  1        4 0.93463780E-03 0.12861404E+03</pdfrwt>
<totfact> 0.15005518E+04</totfact>
</mgrwt>
</event>
<event>
 6    4  0.6376098E-003  0.1379042E+03  0.7818608E-02  0.1216177E+00
         21   -1    0    0  501  502  0.00000000000E+00  0.00000000000E+00  0.22108950029E+03  0.22108950029E+03  0.00000000000E+00 0.  1.
         -4   -1    0    0    0  501 -0.00000000000E+00 -0.00000000000E+00 -0.44601129456E+02  0.44619207173E+02  0.12700000000E+01 0.  1.
         25    2    1    2    0    0 -0.45022130758E+02 -0.36957074369E+02  0.14229074163E+03  0.19815200278E+03  0.12499897379E+03 0.  0.
    9000005    1    3    3    0    0 -0.28880819177E+02 -0.16079854838E+02  0.16191035971E+03  0.16525322396E+03  0.10000000000E+01 0.  0.
    9000005    1    3    3    0    0 -0.16141311582E+02 -0.20877219531E+02 -0.19619618075E+02  0.32898778827E+02  0.10000000000E+01 0.  0.
         -4    1    1    2    0  502  0.45022130758E+02  0.36957074369E+02  0.34197629199E+02  0.67556704677E+02  0.12700000000E+01 0. -1.
<mgrwt>
<rscale>  1 0.13790417E+03</rscale>
<asrwt>0</asrwt>
<pdfrwt beam="1">  1       21 0.34013769E-01 0.13790417E+03</pdfrwt>
<pdfrwt beam="2">  1       -4 0.68633835E-02 0.13790417E+03</pdfrwt>
<totfact> 0.48299304E+04</totfact>
</mgrwt>
</event>
<event>
 6    4  0.6376098E-003  0.1284620E+03  0.7818608E-02  0.1229756E+00
          4   -1    0    0  502    0 -0.00000000000E+00  0.00000000000E+00  0.42397948812E+02  0.42416965515E+02  0.12700000000E+01 0. -1.
         21   -1    0    0  501  502  0.00000000000E+00 -0.00000000000E+00 -0.16975266777E+03  0.16975266777E+03  0.00000000000E+00 0. -1.
         25    2    1    2    0    0 -0.11671935534E+02  0.27234829476E+02 -0.12953346442E+03  0.18243194932E+03  0.12499811084E+03 0.  0.
    9000005    1    3    3    0    0 -0.38757806780E+02  0.18530412572E+02  0.64924014312E+01  0.43459119329E+02  0.10000000000E+01 0.  0.
    9000005    1    3    3    0    0  0.27085871247E+02  0.87044169038E+01 -0.13602586586E+03  0.13897282999E+03  0.10000000000E+01 0.  0.
          4    1    1    2  501    0  0.11671935534E+02 -0.27234829476E+02  0.21787454649E+01  0.29737683963E+02  0.12700000000E+01 0.  1.
<mgrwt>
<rscale>  1 0.12846205E+03</rscale>
<asrwt>0</asrwt>
<pdfrwt beam="2">  1       21 0.26115795E-01 0.12846205E+03</pdfrwt>
<pdfrwt beam="1">  1        4 0.65245895E-02 0.12846205E+03</pdfrwt>
<totfact> 0.86622140E+04</totfact>
</mgrwt>
</event>
<event>
 6    4  0.6376098E-003  0.1366947E+03  0.7818608E-02  0.1217847E+00
         21   -1    0    0  501  502  0.00000000000E+00  0.00000000000E+00  0.20874610819E+03  0.20874610819E+03  0.00000000000E+00 0.  1.
         -4   -1    0    0    0  501 -0.00000000000E+00 -0.00000000000E+00 -0.13826739142E+03  0.13827322383E+03  0.12700000000E+01 0. -1.
         25    2    1    2    0    0 -0.25489248569E+02 -0.49105180802E+02 -0.98970533811E+02  0.16876198436E+03  0.12499768089E+03 0.  0.
    9000005    1    3    3    0    0 -0.10846214494E+02 -0.79266067107E+02 -0.10763758911E+03  0.13411785993E+03  0.10000000000E+01 0.  0.
    9000005    1    3    3    0    0 -0.14643034075E+02  0.30160886306E+02  0.86670552972E+01  0.34644124425E+02  0.10000000000E+01 0.  0.
         -4    1    1    2    0  502  0.25489248569E+02  0.49105180802E+02  0.16944925058E+03  0.17825734766E+03  0.12700000000E+01 0.  1.
<mgrwt>
<rscale>  1 0.13669470E+03</rscale>
<asrwt>0</asrwt>
<pdfrwt beam="1">  1       21 0.32114786E-01 0.13669470E+03</pdfrwt>
<pdfrwt beam="2">  1       -4 0.21272652E-01 0.13669470E+03</pdfrwt>
<totfact> 0.77448938E+03</totfact>
</mgrwt>
</event>
<event>
 6    4  0.6376098E-003  0.1292198E+03  0.7818608E-02  0.1228618E+00
          4   -1    0    0  502    0 -0.00000000000E+00  0.00000000000E+00  0.90945081508E+02  0.90953948515E+02  0.12700000000E+01 0.  1.
         21   -1    0    0  501  502  0.00000000000E+00 -0.00000000000E+00 -0.73402225983E+02  0.73402225983E+02  0.00000000000E+00 0.  1.
         25    2    1    2    0    0  0.58801466950E+01  0.32221332817E+02  0.51782214274E+01  0.12932351131E+03  0.12499986475E+03 0.  0.
    9000005    1    3    3    0    0 -0.14478704480E+01  0.26138735220E+02  0.64299545208E+02  0.69431702569E+02  0.10000000000E+01 0.  0.
    9000005    1    3    3    0    0  0.73280171430E+01  0.60825975969E+01 -0.59121323780E+02  0.59891808741E+02  0.10000000000E+01 0.  0.
          4    1    1    2  501    0 -0.58801466950E+01 -0.32221332817E+02  0.12364634098E+02  0.35032663188E+02  0.12700000000E+01 0. -1.
<mgrwt>
<rscale>  1 0.12921980E+03</rscale>
<asrwt>0</asrwt>
<pdfrwt beam="2">  1       21 0.11292650E-01 0.12921980E+03</pdfrwt>
<pdfrwt beam="1">  1        4 0.13993078E-01 0.12921980E+03</pdfrwt>
<totfact> 0.11131045E+05</totfact>
</mgrwt>
</event>
<event>
 6    4  0.6376098E-003  0.1276854E+03  0.7818608E-02  0.1230931E+00
         -4   -1    0    0    0  501 -0.00000000000E+00  0.00000000000E+00  0.69309960355E+03  0.69310076709E+03  0.12700000000E+01 0. -1.
         21   -1    0    0  501  502  0.00000000000E+00 -0.00000000000E+00 -0.92914500925E+01  0.92914500925E+01  0.00000000000E+00 0. -1.
         25    2    1    2    0    0 -0.17549771432E+02 -0.19245681938E+02  0.62721984415E+03  0.64008459003E+03  0.12500063501E+03 0.  0.
    9000005    1    3    3    0    0 -0.58650146313E+02  0.27601579178E+02  0.29064771815E+03  0.29778983008E+03  0.10000000000E+01 0.  0.
    9000005    1    3    3    0    0  0.41100374881E+02 -0.46847261116E+02  0.33657212600E+03  0.34229475995E+03  0.10000000000E+01 0.  0.
         -4    1    1    2    0  502  0.17549771432E+02  0.19245681938E+02  0.56588309311E+02  0.62307627151E+02  0.12700000000E+01 0.  1.
<mgrwt>
<rscale>  1 0.12768535E+03</rscale>
<asrwt>0</asrwt>
<pdfrwt beam="2">  1       21 0.14294544E-02 0.12768535E+03</pdfrwt>
<pdfrwt beam="1">  1       -4 0.10663743E+00 0.12768535E+03</pdfrwt>
<totfact> 0.62289378E+04</totfact>
</mgrwt>
</event>
<event>
 6    4  0.6376098E-003  0.1274200E+03  0.7818608E-02  0.1231335E+00
         21   -1    0    0  501  502  0.00000000000E+00  0.00000000000E+00  0.90429351045E+01  0.90429351045E+01  0.00000000000E+00 0. -1.
          4   -1    0    0  502    0 -0.00000000000E+00 -0.00000000000E+00 -0.19675260083E+04  0.19675264181E+04  0.12700000000E+01 0.  1.
         25    2    1    2    0    0  0.13435760321E+02  0.20741163872E+02 -0.19434353248E+04  0.19476079450E+04  0.12500052153E+03 0.  0.
    9000005    1    3    3    0    0 -0.47009766938E+02 -0.17811377399E+02 -0.53787951497E+03  0.54022452367E+03  0.10000000000E+01 0.  0.
    9000005    1    3    3    0    0  0.60445527260E+02  0.38552541271E+02 -0.14055558098E+04  0.14073834214E+04  0.10000000000E+01 0.  0.
          4    1    1    2  501    0 -0.13435760321E+02 -0.20741163872E+02 -0.15047748346E+02  0.28961408192E+02  0.12700000000E+01 0. -1.
<mgrwt>
<rscale>  1 0.12741996E+03</rscale>
<asrwt>0</asrwt>
<pdfrwt beam="1">  1       21 0.13912187E-02 0.12741996E+03</pdfrwt>
<pdfrwt beam="2">  1        4 0.30270366E+00 0.12741996E+03</pdfrwt>
<totfact> 0.33030412E+03</totfact>
</mgrwt>
</event>
<event>
 6    4  0.6376098E-003  0.1270433E+03  0.7818608E-02  0.1231910E+00
         21   -1    0    0  501  502  0.00000000000E+00  0.00000000000E+00  0.55951163555E+03  0.55951163555E+03  0.00000000000E+00 0. -1.
         -4   -1    0    0    0  501 -0.00000000000E+00 -0.00000000000E+00 -0.11141022765E+02  0.11213174763E+02  0.12700000000E+01 0. -1.
         25    2    1    2    0    0 -0.36598950009E+01  0.22398614429E+02  0.37647822097E+03  0.39733594094E+03  0.12499962534E+03 0.  0.
    9000005    1    3    3    0    0  0.14167539204E+02  0.20425043122E+01 -0.47748671334E+01  0.15122511270E+02  0.10000000000E+01 0.  0.
    9000005    1    3    3    0    0 -0.17827434205E+02  0.20356110117E+02  0.38125308810E+03  0.38221342967E+03  0.10000000000E+01 0.  0.
         -4    1    1    2    0  502  0.36598950009E+01 -0.22398614429E+02  0.17189239181E+03  0.17338886937E+03  0.12700000000E+01 0.  1.
<mgrwt>
<rscale>  1 0.12704330E+03</rscale>
<asrwt>0</asrwt>
<pdfrwt beam="1">  1       21 0.86078692E-01 0.12704330E+03</pdfrwt>
<pdfrwt beam="2">  1       -4 0.17196650E-02 0.12704330E+03</pdfrwt>
<totfact> 0.60692509E+04</totfact>
</mgrwt>
</event>
<event>
 6    4  0.6376098E-003  0.1273026E+03  0.7818608E-02  0.1231514E+00
         -4   -1    0    0    0  501 -0.00000000000E+00  0.00000000000E+00  0.10394359550E+02  0.10471657484E+02  0.12700000000E+01 0.  1.
         21   -1    0    0  501  502  0.00000000000E+00 -0.00000000000E+00 -0.92254689798E+03  0.92254689798E+03  0.00000000000E+00 0. -1.
         25    2    1    2    0    0  0.10273983149E+01 -0.24075239753E+02 -0.38881007736E+03  0.40912007562E+03  0.12500114923E+03 0.  0.
    9000005    1    3    3    0    0  0.24203347807E+02 -0.54846677975E+02 -0.34746769054E+03  0.35260283053E+03  0.10000000000E+01 0.  0.
    9000005    1    3    3    0    0 -0.23175949492E+02  0.30771438223E+02 -0.41342386818E+02  0.56517245093E+02  0.10000000000E+01 0.  0.
         -4    1    1    2    0  502 -0.10273983149E+01  0.24075239753E+02 -0.52334246107E+03  0.52389847983E+03  0.12700000000E+01 0. -1.
<mgrwt>
<rscale>  1 0.12730263E+03</rscale>
<asrwt>0</asrwt>
<pdfrwt beam="2">  1       21 0.14193025E+00 0.12730263E+03</pdfrwt>
<pdfrwt beam="1">  1       -4 0.16051460E-02 0.12730263E+03</pdfrwt>
<totfact> 0.20349654E+04</totfact>
</mgrwt>
</event>
<event>
 6    4  0.6376098E-003  0.1276990E+03  0.7818608E-02  0.1230911E+00
          4   -1    0    0  502    0 -0.00000000000E+00  0.00000000000E+00  0.14462231243E+03  0.14462788857E+03  0.12700000000E+01 0.  1.
         21   -1    0    0  501  502  0.00000000000E+00 -0.00000000000E+00 -0.51126010424E+02  0.51126010424E+02  0.00000000000E+00 0. -1.
         25    2    1    2    0    0 -0.24588823200E+02 -0.88646790460E+01  0.10673099780E+03  0.16642877609E+03  0.12499535535E+03 0.  0.
    9000005    1    3    3    0    0  0.42709036768E+02  0.22837023548E+02  0.65194834785E+02  0.81221659358E+02  0.10000000000E+01 0.  0.
    9000005    1    3    3    0    0 -0.67297859968E+02 -0.31701702594E+02  0.41536163012E+02  0.85207116729E+02  0.10000000000E+01 0.  0.
          4    1    1    2  501    0  0.24588823200E+02  0.88646790460E+01 -0.13234695790E+02  0.29325122909E+02  0.12700000000E+01 0. -1.
<mgrwt>
<rscale>  1 0.12769899E+03</rscale>
<asrwt>0</asrwt>
<pdfrwt beam="2">  1       21 0.78655402E-02 0.12769899E+03</pdfrwt>
<pdfrwt beam="1">  1        4 0.22251229E-01 0.12769899E+03</pdfrwt>
<totfact> 0.91661941E+04</totfact>
</mgrwt>
</event>
<event>
 6    4  0.6376098E-003  0.1300775E+03  0.7818608E-02  0.1227341E+00
          4   -1    0    0  502    0 -0.00000000000E+00  0.00000000000E+00  0.84613293170E+01  0.85561085670E+01  0.12700000000E+01 0.  1.
         21   -1    0    0  501  502  0.00000000000E+00 -0.00000000000E+00 -0.12830836352E+04  0.12830836352E+04  0.00000000000E+00 0. -1.
         25    2    1    2    0    0  0.31087831544E+02 -0.18107979635E+02 -0.51528961195E+03  0.53145417092E+03  0.12500319757E+03 0.  0.
    9000005    1    3    3    0    0  0.34824866737E+02 -0.27827320775E+02 -0.51857583043E+03  0.52048921510E+03  0.10000000000E+01 0.  0.
    9000005    1    3    3    0    0 -0.37370351927E+01  0.97193411400E+01  0.32862184799E+01  0.10964955820E+02  0.10000000000E+01 0.  0.
          4    1    1    2  501    0 -0.31087831544E+02  0.18107979635E+02 -0.75933269393E+03  0.76018557285E+03  0.12700000000E+01 0. -1.
<mgrwt>
<rscale>  1 0.13007748E+03</rscale>
<asrwt>0</asrwt>
<pdfrwt beam="2">  1       21 0.19739749E+00 0.13007748E+03</pdfrwt>
<pdfrwt beam="1">  1        4 0.13090820E-02 0.13007748E+03</pdfrwt>
<totfact> 0.11409454E+04</totfact>
</mgrwt>
</event>
<event>
 6    4  0.6376098E-003  0.1274164E+03  0.7818608E-02  0.1231341E+00
         21   -1    0    0  501  502  0.00000000000E+00  0.00000000000E+00  0.85573579092E+03  0.85573579092E+03  0.00000000000E+00 0. -1.
          4   -1    0    0  502    0 -0.00000000000E+00 -0.00000000000E+00 -0.88602690088E+01  0.89508249289E+01  0.12700000000E+01 0.  1.
         25    2    1    2    0    0 -0.19275968838E+02  0.15454394397E+02  0.46893231227E+03  0.48593460741E+03  0.12499811162E+03 0.  0.
    9000005    1    3    3    0    0  0.45587003374E+02  0.62453641774E+01  0.87005342774E+02  0.98428192717E+02  0.10000000000E+01 0.  0.
    9000005    1    3    3    0    0 -0.64862972212E+02  0.92090302193E+01  0.38192696949E+03  0.38750641469E+03  0.10000000000E+01 0.  0.
          4    1    1    2  501    0  0.19275968838E+02 -0.15454394397E+02  0.37794320965E+03  0.37875200844E+03  0.12700000000E+01 0. -1.
<mgrwt>
<rscale>  1 0.12741636E+03</rscale>
<asrwt>0</asrwt>
<pdfrwt beam="1">  1       21 0.13165160E+00 0.12741636E+03</pdfrwt>
<pdfrwt beam="2">  1        4 0.13701573E-02 0.12741636E+03</pdfrwt>
<totfact> 0.31298821E+04</totfact>
</mgrwt>
</event>
<event>
 6    4  0.6376098E-003  0.1280648E+03  0.7818608E-02  0.1230356E+00
          4   -1    0    0  502    0 -0.00000000000E+00  0.00000000000E+00  0.20121444701E+04  0.20121448709E+04  0.12700000000E+01 0.  1.
         21   -1    0    0  501  502  0.00000000000E+00 -0.00000000000E+00 -0.42766786821E+01  0.42766786821E+01  0.00000000000E+00 0. -1.
         25    2    1    2    0    0 -0.20919804530E+02  0.18370862871E+02  0.19194011305E+04  0.19236687069E+04  0.12500186977E+03 0.  0.
    9000005    1    3    3    0    0 -0.67716016617E+02  0.34620531598E+02  0.97108573399E+03  0.97405982510E+03  0.10000000000E+01 0.  0.
    9000005    1    3    3    0    0  0.46796212087E+02 -0.16249668727E+02  0.94831539648E+03  0.94960888180E+03  0.10000000000E+01 0.  0.
          4    1    1    2  501    0  0.20919804530E+02 -0.18370862871E+02  0.88466660961E+02  0.92752842683E+02  0.12700000000E+01 0. -1.
<mgrwt>
<rscale>  1 0.12806480E+03</rscale>
<asrwt>0</asrwt>
<pdfrwt beam="2">  1       21 0.65795218E-03 0.12806480E+03</pdfrwt>
<pdfrwt beam="1">  1        4 0.30957447E+00 0.12806480E+03</pdfrwt>
<totfact> 0.97930008E+03</totfact>
</mgrwt>
</event>
<event>
 6    4  0.6376098E-003  0.1276595E+03  0.7818608E-02  0.1230971E+00
         21   -1    0    0  501  502  0.00000000000E+00  0.00000000000E+00  0.18004042884E+02  0.18004042884E+02  0.00000000000E+00 0. -1.
          4   -1    0    0  502    0 -0.00000000000E+00 -0.00000000000E+00 -0.35606746695E+03  0.35606973182E+03  0.12700000000E+01 0. -1.
         25    2    1    2    0    0  0.10008964613E+02  0.23888311501E+02 -0.31290105719E+03  0.33794084781E+03  0.12500445685E+03 0.  0.
    9000005    1    3    3    0    0 -0.47274456453E+02  0.28217938579E+02 -0.23366778079E+03  0.24006823628E+03  0.10000000000E+01 0.  0.
    9000005    1    3    3    0    0  0.57283421066E+02 -0.43296270780E+01 -0.79233276404E+02  0.97872611539E+02  0.10000000000E+01 0.  0.
          4    1    1    2  501    0 -0.10008964613E+02 -0.23888311501E+02 -0.25162366876E+02  0.36132926892E+02  0.12700000000E+01 0.  1.
<mgrwt>
<rscale>  1 0.12765949E+03</rscale>
<asrwt>0</asrwt>
<pdfrwt beam="1">  1       21 0.27698530E-02 0.12765949E+03</pdfrwt>
<pdfrwt beam="2">  1        4 0.54783224E-01 0.12765949E+03</pdfrwt>
<totfact> 0.92347750E+04</totfact>
</mgrwt>
</event>
<event>
 6    4  0.6376098E-003  0.1267710E+03  0.7818608E-02  0.1232327E+00
         21   -1    0    0  501  502  0.00000000000E+00  0.00000000000E+00  0.12556524422E+03  0.12556524422E+03  0.00000000000E+00 0.  1.
         -4   -1    0    0    0  501 -0.00000000000E+00 -0.00000000000E+00 -0.63199107537E+02  0.63211866714E+02  0.12700000000E+01 0. -1.
         25    2    1    2    0    0  0.19801207167E+02 -0.73069050564E+01  0.41488752082E+01  0.12683890705E+03  0.12500166603E+03 0.  0.
    9000005    1    3    3    0    0 -0.32915027074E+02  0.26888259374E+02  0.36612405465E+02  0.56105665787E+02  0.10000000000E+01 0.  0.
    9000005    1    3    3    0    0  0.52716234241E+02 -0.34195164431E+02 -0.32463530257E+02  0.70733241264E+02  0.10000000000E+01 0.  0.
         -4    1    1    2    0  502 -0.19801207167E+02  0.73069050564E+01  0.58217261474E+02  0.61938203883E+02  0.12700000000E+01 0.  1.
<mgrwt>
<rscale>  1 0.12677103E+03</rscale>
<asrwt>0</asrwt>
<pdfrwt beam="1">  1       21 0.19317730E-01 0.12677103E+03</pdfrwt>
<pdfrwt beam="2">  1       -4 0.97244152E-02 0.12677103E+03</pdfrwt>
<totfact> 0.78509150E+04</totfact>
</mgrwt>
</event>
<event>
 6    4  0.6376098E-003  0.1266876E+03  0.7818608E-02  0.1232455E+00
         21   -1    0    0  501  502  0.00000000000E+00  0.00000000000E+00  0.25658814796E+02  0.25658814796E+02  0.00000000000E+00 0.  1.
         -4   -1    0    0    0  501 -0.00000000000E+00 -0.00000000000E+00 -0.29784083241E+03  0.29784354005E+03  0.12700000000E+01 0. -1.
         25    2    1    2    0    0  0.16791469029E+02  0.11931089083E+02 -0.27489885211E+03  0.30268653374E+03  0.12500181798E+03 0.  0.
    9000005    1    3    3    0    0 -0.16732221340E+02  0.63098626432E+02 -0.15082596995E+03  0.16434986188E+03  0.10000000000E+01 0.  0.
    9000005    1    3    3    0    0  0.33523690368E+02 -0.51167537349E+02 -0.12407288215E+03  0.13833667186E+03  0.10000000000E+01 0.  0.
         -4    1    1    2    0  502 -0.16791469029E+02 -0.11931089083E+02  0.27168344922E+01  0.20815821111E+02  0.12700000000E+01 0.  1.
<mgrwt>
<rscale>  1 0.12668764E+03</rscale>
<asrwt>0</asrwt>
<pdfrwt beam="1">  1       21 0.39475100E-02 0.12668764E+03</pdfrwt>
<pdfrwt beam="2">  1       -4 0.45824293E-01 0.12668764E+03</pdfrwt>
<totfact> 0.74033413E+04</totfact>
</mgrwt>
</event>
<event>
 6    4  0.6376098E-003  0.1363435E+03  0.7818608E-02  0.1218336E+00
         21   -1    0    0  501  502  0.00000000000E+00  0.00000000000E+00  0.33485058989E+02  0.33485058989E+02  0.00000000000E+00 0. -1.
          4   -1    0    0  502    0 -0.00000000000E+00 -0.00000000000E+00 -0.72437005871E+03  0.72437117202E+03  0.12700000000E+01 0.  1.
         25    2    1    2    0    0 -0.23443519245E+02  0.49145331080E+02 -0.69004350647E+03  0.70338437431E+03  0.12499870016E+03 0.  0.
    9000005    1    3    3    0    0  0.37590365057E+02  0.48290845137E+02 -0.50108259200E+03  0.50480670090E+03  0.10000000000E+01 0.  0.
    9000005    1    3    3    0    0 -0.61033884302E+02  0.85448594323E+00 -0.18896091447E+03  0.19857767341E+03  0.10000000000E+01 0.  0.
          4    1    1    2  501    0  0.23443519245E+02 -0.49145331080E+02 -0.84149325158E+00  0.54471856701E+02  0.12700000000E+01 0. -1.
<mgrwt>
<rscale>  1 0.13634345E+03</rscale>
<asrwt>0</asrwt>
<pdfrwt beam="1">  1       21 0.51515478E-02 0.13634345E+03</pdfrwt>
<pdfrwt beam="2">  1        4 0.11144348E+00 0.13634345E+03</pdfrwt>
<totfact> 0.69478599E+03</totfact>
</mgrwt>
</event>
<event>
 6    4  0.6376098E-003  0.1275239E+03  0.7818608E-02  0.1231177E+00
         21   -1    0    0  501  502  0.00000000000E+00  0.00000000000E+00  0.20439005986E+04  0.20439005986E+04  0.00000000000E+00 0. -1.
         -4   -1    0    0    0  501 -0.00000000000E+00 -0.00000000000E+00 -0.28205288379E+01  0.30932641215E+01  0.12700000000E+01 0. -1.
         25    2    1    2    0    0 -0.22439115823E+02 -0.11661191790E+02  0.15383619995E+04  0.15436385524E+04  0.12499136684E+03 0.  0.
    9000005    1    3    3    0    0 -0.23769436008E+02 -0.55428706651E+02  0.12924311559E+04  0.12938379421E+04  0.10000000000E+01 0.  0.
    9000005    1    3    3    0    0  0.13303201858E+01  0.43767514861E+02  0.24593084355E+03  0.24980061032E+03  0.10000000000E+01 0.  0.
         -4    1    1    2    0  502  0.22439115823E+02  0.11661191790E+02  0.50271807033E+03  0.50335531035E+03  0.12700000000E+01 0.  1.
<mgrwt>
<rscale>  1 0.12752388E+03</rscale>
<asrwt>0</asrwt>
<pdfrwt beam="1">  1       21 0.31444512E+00 0.12752388E+03</pdfrwt>
<pdfrwt beam="2">  1       -4 0.45493913E-03 0.12752388E+03</pdfrwt>
<totfact> 0.11602495E+04</totfact>
</mgrwt>
</event>
<event>
 6    4  0.6376098E-003  0.1284405E+03  0.7818608E-02  0.1229788E+00
          4   -1    0    0  502    0 -0.00000000000E+00  0.00000000000E+00  0.31012343657E+02  0.31038336925E+02  0.12700000000E+01 0. -1.
         21   -1    0    0  501  502  0.00000000000E+00 -0.00000000000E+00 -0.21108575111E+03  0.21108575111E+03  0.00000000000E+00 0. -1.
         25    2    1    2    0    0  0.21387228200E+02 -0.20306164100E+02 -0.12283815632E+03  0.17772501426E+03  0.12500885655E+03 0.  0.
    9000005    1    3    3    0    0  0.56037465080E+02 -0.25675694656E+02 -0.13786425328E+02  0.63170438593E+02  0.10000000000E+01 0.  0.
    9000005    1    3    3    0    0 -0.34650236880E+02  0.53695305565E+01 -0.10905173099E+03  0.11455457566E+03  0.10000000000E+01 0.  0.
          4    1    1    2  501    0 -0.21387228200E+02  0.20306164100E+02 -0.57235251136E+02  0.64399073775E+02  0.12700000000E+01 0.  1.
<mgrwt>
<rscale>  1 0.12844052E+03</rscale>
<asrwt>0</asrwt>
<pdfrwt beam="2">  1       21 0.32474732E-01 0.12844052E+03</pdfrwt>
<pdfrwt beam="1">  1        4 0.47734230E-02 0.12844052E+03</pdfrwt>
<totfact> 0.94422211E+04</totfact>
</mgrwt>
</event>
<event>
 6    4  0.6376098E-003  0.1266124E+03  0.7818608E-02  0.1232571E+00
         21   -1    0    0  501  502  0.00000000000E+00  0.00000000000E+00  0.11650244991E+03  0.11650244991E+03  0.00000000000E+00 0. -1.
          4   -1    0    0  502    0 -0.00000000000E+00 -0.00000000000E+00 -0.46273227135E+02  0.46290651858E+02  0.12700000000E+01 0. -1.
         25    2    1    2    0    0  0.54802520624E+01  0.19362590058E+02  0.58589653395E+02  0.13951144522E+03  0.12500301118E+03 0.  0.
    9000005    1    3    3    0    0  0.32979697628E+02  0.39728757488E+02 -0.18743451479E+02  0.54939526759E+02  0.10000000000E+01 0.  0.
    9000005    1    3    3    0    0 -0.27499445566E+02 -0.20366167431E+02  0.77333104873E+02  0.84571918457E+02  0.10000000000E+01 0.  0.
          4    1    1    2  501    0 -0.54802520624E+01 -0.19362590058E+02  0.11639569380E+02  0.23281656551E+02  0.12700000000E+01 0.  1.
<mgrwt>
<rscale>  1 0.12661238E+03</rscale>
<asrwt>0</asrwt>
<pdfrwt beam="1">  1       21 0.17923454E-01 0.12661238E+03</pdfrwt>
<pdfrwt beam="2">  1        4 0.71208309E-02 0.12661238E+03</pdfrwt>
<totfact> 0.15104591E+05</totfact>
</mgrwt>
</event>
<event>
 6    4  0.6376098E-003  0.1384950E+03  0.7818608E-02  0.1215369E+00
         -4   -1    0    0    0  501 -0.00000000000E+00  0.00000000000E+00  0.86078031613E+03  0.86078125301E+03  0.12700000000E+01 0. -1.
         21   -1    0    0  501  502  0.00000000000E+00 -0.00000000000E+00 -0.26517771784E+02  0.26517771784E+02  0.00000000000E+00 0.  1.
         25    2    1    2    0    0  0.33926654707E+02 -0.49032946735E+02  0.81186414926E+03  0.82359228443E+03  0.12500242540E+03 0.  0.
    9000005    1    3    3    0    0  0.33673799379E+02 -0.63662423785E+01  0.73398534014E+03  0.73478563769E+03  0.10000000000E+01 0.  0.
    9000005    1    3    3    0    0  0.25285532777E+00 -0.42666704356E+02  0.77878809120E+02  0.88806646746E+02  0.10000000000E+01 0.  0.
         -4    1    1    2    0  502 -0.33926654707E+02  0.49032946735E+02  0.22398395082E+02  0.63706740360E+02  0.12700000000E+01 0.  1.
<mgrwt>
<rscale>  1 0.13849496E+03</rscale>
<asrwt>0</asrwt>
<pdfrwt beam="2">  1       21 0.40796579E-02 0.13849496E+03</pdfrwt>
<pdfrwt beam="1">  1       -4 0.13243013E+00 0.13849496E+03</pdfrwt>
<totfact> 0.67835922E+03</totfact>
</mgrwt>
</event>
<event>
 6    4  0.6376098E-003  0.1468653E+03  0.7818608E-02  0.1204379E+00
         21   -1    0    0  501  502  0.00000000000E+00  0.00000000000E+00  0.31104906086E+03  0.31104906086E+03  0.00000000000E+00 0. -1.
         -4   -1    0    0    0  501 -0.00000000000E+00 -0.00000000000E+00 -0.10438732844E+03  0.10439505371E+03  0.12700000000E+01 0.  1.
         25    2    1    2    0    0 -0.77089554944E+02 -0.59212243333E+00 -0.43901356123E+02  0.15328648197E+03  0.12500506547E+03 0.  0.
    9000005    1    3    3    0    0 -0.42058034880E+02 -0.59072337151E+02 -0.44538174191E+02  0.85106217603E+02  0.10000000000E+01 0.  0.
    9000005    1    3    3    0    0 -0.35031520064E+02  0.58480214718E+02  0.63681806801E+00  0.68180264364E+02  0.10000000000E+01 0.  0.
         -4    1    1    2    0  502  0.77089554944E+02  0.59212243333E+00  0.25056308854E+03  0.26215763260E+03  0.12700000000E+01 0. -1.
<mgrwt>
<rscale>  1 0.14686530E+03</rscale>
<asrwt>0</asrwt>
<pdfrwt beam="1">  1       21 0.47853701E-01 0.14686530E+03</pdfrwt>
<pdfrwt beam="2">  1       -4 0.16060383E-01 0.14686530E+03</pdfrwt>
<totfact> 0.57887760E+03</totfact>
</mgrwt>
</event>
<event>
 6    4  0.6376098E-003  0.1590379E+03  0.7818608E-02  0.1189787E+00
         -4   -1    0    0    0  501 -0.00000000000E+00  0.00000000000E+00  0.45858583557E+02  0.45876165772E+02  0.12700000000E+01 0.  1.
         21   -1    0    0  501  502  0.00000000000E+00 -0.00000000000E+00 -0.40860572510E+03  0.40860572510E+03  0.00000000000E+00 0. -1.
         25    2    1    2    0    0  0.55299012507E+02 -0.81279718364E+02 -0.14353437424E+03  0.21423155549E+03  0.12501467665E+03 0.  0.
    9000005    1    3    3    0    0  0.20344284001E+02  0.28191626811E+02 -0.64912423030E+01  0.35380700112E+02  0.10000000000E+01 0.  0.
    9000005    1    3    3    0    0  0.34954728506E+02 -0.10947134517E+03 -0.13704313194E+03  0.17885085538E+03  0.10000000000E+01 0.  0.
         -4    1    1    2    0  502 -0.55299012507E+02  0.81279718364E+02 -0.21921276730E+03  0.24025033538E+03  0.12700000000E+01 0. -1.
<mgrwt>
<rscale>  1 0.15903787E+03</rscale>
<asrwt>0</asrwt>
<pdfrwt beam="2">  1       21 0.62862418E-01 0.15903787E+03</pdfrwt>
<pdfrwt beam="1">  1       -4 0.70566712E-02 0.15903787E+03</pdfrwt>
<totfact> 0.13265977E+04</totfact>
</mgrwt>
</event>
<event>
 6    4  0.6376098E-003  0.1433087E+03  0.7818608E-02  0.1208945E+00
         21   -1    0    0  501  502  0.00000000000E+00  0.00000000000E+00  0.73405969249E+02  0.73405969249E+02  0.00000000000E+00 0. -1.
         -4   -1    0    0    0  501 -0.00000000000E+00 -0.00000000000E+00 -0.15689453196E+03  0.15689967195E+03  0.12700000000E+01 0.  1.
         25    2    1    2    0    0  0.58413730530E+02  0.38743542171E+02 -0.67450673234E+02  0.15838865591E+03  0.12499658806E+03 0.  0.
    9000005    1    3    3    0    0  0.36682974699E+02 -0.27007177352E+02 -0.75995275543E+02  0.88607619121E+02  0.10000000000E+01 0.  0.
    9000005    1    3    3    0    0  0.21730755831E+02  0.65750719524E+02  0.85446023093E+01  0.69781036790E+02  0.10000000000E+01 0.  0.
         -4    1    1    2    0  502 -0.58413730530E+02 -0.38743542171E+02 -0.16037889478E+02  0.71916985291E+02  0.12700000000E+01 0. -1.
<mgrwt>
<rscale>  1 0.14330866E+03</rscale>
<asrwt>0</asrwt>
<pdfrwt beam="1">  1       21 0.11293226E-01 0.14330866E+03</pdfrwt>
<pdfrwt beam="2">  1       -4 0.24138861E-01 0.14330866E+03</pdfrwt>
<totfact> 0.42636874E+04</totfact>
</mgrwt>
</event>
<event>
 6    4  0.6376098E-003  0.1270776E+03  0.7818608E-02  0.1231858E+00
         21   -1    0    0  501  502  0.00000000000E+00  0.00000000000E+00  0.74134302993E+01  0.74134302993E+01  0.00000000000E+00 0. -1.
         -4   -1    0    0    0  501 -0.00000000000E+00 -0.00000000000E+00 -0.82428224429E+03  0.82428322265E+03  0.12700000000E+01 0. -1.
         25    2    1    2    0    0 -0.12545711116E+02  0.19174093131E+02 -0.75676983677E+03  0.76736516240E+03  0.12499466347E+03 0.  0.
    9000005    1    3    3    0    0  0.52692740145E+02  0.16953388382E+02 -0.23018675477E+03  0.23675067965E+03  0.10000000000E+01 0.  0.
    9000005    1    3    3    0    0 -0.65238451261E+02  0.22207047488E+01 -0.52658308200E+03  0.53061448275E+03  0.10000000000E+01 0.  0.
         -4    1    1    2    0  502  0.12545711116E+02 -0.19174093131E+02 -0.60098977214E+02  0.64331490555E+02  0.12700000000E+01 0.  1.
<mgrwt>
<rscale>  1 0.12707756E+03</rscale>
<asrwt>0</asrwt>
<pdfrwt beam="1">  1       21 0.11405281E-02 0.12707756E+03</pdfrwt>
<pdfrwt beam="2">  1       -4 0.12682106E+00 0.12707756E+03</pdfrwt>
<totfact> 0.58951387E+04</totfact>
</mgrwt>
</event>
<event>
 6    4  0.6376098E-003  0.1266378E+03  0.7818608E-02  0.1232532E+00
         -4   -1    0    0    0  501 -0.00000000000E+00  0.00000000000E+00  0.19288616521E+02  0.19330380940E+02  0.12700000000E+01 0.  1.
         21   -1    0    0  501  502  0.00000000000E+00 -0.00000000000E+00 -0.53914727491E+03  0.53914727491E+03  0.00000000000E+00 0.  1.
         25    2    1    2    0    0 -0.41637578211E+00  0.20353857042E+02 -0.19210644558E+03  0.23009133037E+03  0.12499072370E+03 0.  0.
    9000005    1    3    3    0    0  0.30895368643E+02  0.62809783947E+02 -0.80767671837E+02  0.10688315853E+03  0.10000000000E+01 0.  0.
    9000005    1    3    3    0    0 -0.31311744425E+02 -0.42455926905E+02 -0.11133877375E+03  0.12320817184E+03  0.10000000000E+01 0.  0.
         -4    1    1    2    0  502  0.41637578211E+00 -0.20353857042E+02 -0.32775221281E+03  0.32838632549E+03  0.12700000000E+01 0. -1.
<mgrwt>
<rscale>  1 0.12663781E+03</rscale>
<asrwt>0</asrwt>
<pdfrwt beam="2">  1       21 0.82945725E-01 0.12663781E+03</pdfrwt>
<pdfrwt beam="1">  1       -4 0.29708075E-02 0.12663781E+03</pdfrwt>
<totfact> 0.28332379E+04</totfact>
</mgrwt>
</event>
<event>
 6    4  0.6376098E-003  0.1285462E+03  0.7818608E-02  0.1229629E+00
         21   -1    0    0  501  502  0.00000000000E+00  0.00000000000E+00  0.48961242081E+03  0.48961242081E+03  0.00000000000E+00 0.  1.
         -4   -1    0    0    0  501 -0.00000000000E+00 -0.00000000000E+00 -0.27665756808E+02  0.27694891222E+02  0.12700000000E+01 0. -1.
         25    2    1    2    0    0  0.29242142338E+02 -0.67143129054E+01  0.12592970185E+03  0.17995112542E+03  0.12499573132E+03 0.  0.
    9000005    1    3    3    0    0  0.18292975469E+02 -0.58079665780E+02  0.10882647771E+03  0.12470799004E+03  0.10000000000E+01 0.  0.
    9000005    1    3    3    0    0  0.10949166869E+02  0.51365352874E+02  0.17103224131E+02  0.55243135381E+02  0.10000000000E+01 0.  0.
         -4    1    1    2    0  502 -0.29242142338E+02  0.67143129054E+01  0.33601696216E+03  0.33735618661E+03  0.12700000000E+01 0.  1.
<mgrwt>
<rscale>  1 0.12854617E+03</rscale>
<asrwt>0</asrwt>
<pdfrwt beam="1">  1       21 0.75324981E-01 0.12854617E+03</pdfrwt>
<pdfrwt beam="2">  1       -4 0.42586385E-02 0.12854617E+03</pdfrwt>
<totfact> 0.19927819E+04</totfact>
</mgrwt>
</event>
<event>
 6    4  0.6376098E-003  0.1271661E+03  0.7818608E-02  0.1231722E+00
         -4   -1    0    0    0  501 -0.00000000000E+00  0.00000000000E+00  0.64975859120E+02  0.64988269467E+02  0.12700000000E+01 0. -1.
         21   -1    0    0  501  502  0.00000000000E+00 -0.00000000000E+00 -0.10390177583E+03  0.10390177583E+03  0.00000000000E+00 0. -1.
         25    2    1    2    0    0 -0.23037554350E+02  0.38503669156E+01 -0.44705565375E+01  0.12724464963E+03  0.12500264296E+03 0.  0.
    9000005    1    3    3    0    0 -0.21179395811E+02  0.67847746814E-01 -0.64070371331E+02  0.67487657336E+02  0.10000000000E+01 0.  0.
    9000005    1    3    3    0    0 -0.18581585385E+01  0.37825191688E+01  0.59599814793E+02  0.59756992292E+02  0.10000000000E+01 0.  0.
         -4    1    1    2    0  502  0.23037554350E+02 -0.38503669156E+01 -0.34455360171E+02  0.41645395668E+02  0.12700000000E+01 0.  1.
<mgrwt>
<rscale>  1 0.12716609E+03</rscale>
<asrwt>0</asrwt>
<pdfrwt beam="2">  1       21 0.15984889E-01 0.12716609E+03</pdfrwt>
<pdfrwt beam="1">  1       -4 0.99978377E-02 0.12716609E+03</pdfrwt>
<totfact> 0.10593913E+05</totfact>
</mgrwt>
</event>
<event>
 6    4  0.6376098E-003  0.1299286E+03  0.7818608E-02  0.1227562E+00
         -4   -1    0    0    0  501 -0.00000000000E+00  0.00000000000E+00  0.27628641346E+02  0.27657814856E+02  0.12700000000E+01 0. -1.
         21   -1    0    0  501  502  0.00000000000E+00 -0.00000000000E+00 -0.63906294537E+03  0.63906294537E+03  0.00000000000E+00 0.  1.
         25    2    1    2    0    0 -0.33782028245E+02 -0.10732459439E+02 -0.12936596590E+03  0.18334936406E+03  0.12500010019E+03 0.  0.
    9000005    1    3    3    0    0 -0.14876481393E+02  0.52898451507E+02 -0.92006668823E+02  0.10717174524E+03  0.10000000000E+01 0.  0.
    9000005    1    3    3    0    0 -0.18905546853E+02 -0.63630910946E+02 -0.37359297081E+02  0.76177618813E+02  0.10000000000E+01 0.  0.
         -4    1    1    2    0  502  0.33782028245E+02  0.10732459439E+02 -0.48206833812E+03  0.48337139617E+03  0.12700000000E+01 0.  1.
<mgrwt>
<rscale>  1 0.12992858E+03</rscale>
<asrwt>0</asrwt>
<pdfrwt beam="2">  1       21 0.98317377E-01 0.12992858E+03</pdfrwt>
<pdfrwt beam="1">  1       -4 0.42529013E-02 0.12992858E+03</pdfrwt>
<totfact> 0.10925455E+04</totfact>
</mgrwt>
</event>
<event>
 6    4  0.6376098E-003  0.1322490E+03  0.7818608E-02  0.1224156E+00
         -4   -1    0    0    0  501 -0.00000000000E+00  0.00000000000E+00  0.50695041384E+03  0.50695200463E+03  0.12700000000E+01 0.  1.
         21   -1    0    0  501  502  0.00000000000E+00 -0.00000000000E+00 -0.16137312091E+02  0.16137312091E+02  0.00000000000E+00 0.  1.
         25    2    1    2    0    0  0.27259053826E+02  0.33493559948E+02  0.41802077030E+03  0.43844174739E+03  0.12499970755E+03 0.  0.
    9000005    1    3    3    0    0 -0.33629555389E+02  0.37217709925E+02  0.76297951805E+02  0.91315291038E+02  0.10000000000E+01 0.  0.
    9000005    1    3    3    0    0  0.60888609216E+02 -0.37241499771E+01  0.34172281849E+03  0.34712645636E+03  0.10000000000E+01 0.  0.
         -4    1    1    2    0  502 -0.27259053826E+02 -0.33493559948E+02  0.72792331459E+02  0.84647569325E+02  0.12700000000E+01 0. -1.
<mgrwt>
<rscale>  1 0.13224901E+03</rscale>
<asrwt>0</asrwt>
<pdfrwt beam="2">  1       21 0.24826638E-02 0.13224901E+03</pdfrwt>
<pdfrwt beam="1">  1       -4 0.77996325E-01 0.13224901E+03</pdfrwt>
<totfact> 0.52275258E+04</totfact>
</mgrwt>
</event>
<event>
 6    4  0.6376098E-003  0.1365389E+03  0.7818608E-02  0.1218064E+00
         21   -1    0    0  501  502  0.00000000000E+00  0.00000000000E+00  0.30539586289E+02  0.30539586289E+02  0.00000000000E+00 0.  1.
          4   -1    0    0  502    0 -0.00000000000E+00 -0.00000000000E+00 -0.12556104010E+04  0.12556110432E+04  0.12700000000E+01 0. -1.
         25    2    1    2    0    0  0.54923561192E+02 -0.13475094983E+01 -0.12235810880E+04  0.12311756758E+04  0.12499780919E+03 0.  0.
    9000005    1    3    3    0    0  0.25393093877E+02  0.10898799996E+02 -0.49822280351E+02  0.56981160723E+02  0.10000000000E+01 0.  0.
    9000005    1    3    3    0    0  0.29530467315E+02 -0.12246309494E+02 -0.11737588077E+04  0.11741945150E+04  0.10000000000E+01 0.  0.
          4    1    1    2  501    0 -0.54923561192E+02  0.13475094983E+01 -0.14897266633E+01  0.54974953765E+02  0.12700000000E+01 0.  1.
<mgrwt>
<rscale>  1 0.13653888E+03</rscale>
<asrwt>0</asrwt>
<pdfrwt beam="1">  1       21 0.46983980E-02 0.13653888E+03</pdfrwt>
<pdfrwt beam="2">  1        4 0.19317291E+00 0.13653888E+03</pdfrwt>
<totfact> 0.19950892E+03</totfact>
</mgrwt>
</event>
<event>
 6    4  0.6376098E-003  0.1419135E+03  0.7818608E-02  0.1210777E+00
         21   -1    0    0  501  502  0.00000000000E+00  0.00000000000E+00  0.14579976283E+03  0.14579976283E+03  0.00000000000E+00 0. -1.
          4   -1    0    0  502    0 -0.00000000000E+00 -0.00000000000E+00 -0.77680591018E+02  0.77690971939E+02  0.12700000000E+01 0.  1.
         25    2    1    2    0    0 -0.63451849523E+01  0.66889910639E+02  0.26273378784E+02  0.14432505527E+03  0.12499963851E+03 0.  0.
    9000005    1    3    3    0    0 -0.24659419721E+02  0.94943658093E+02 -0.53491707561E+01  0.98244586726E+02  0.10000000000E+01 0.  0.
    9000005    1    3    3    0    0  0.18314234769E+02 -0.28053747455E+02  0.31622549540E+02  0.46080468540E+02  0.10000000000E+01 0.  0.
          4    1    1    2  501    0  0.63451849523E+01 -0.66889910639E+02  0.41845793031E+02  0.79165679506E+02  0.12700000000E+01 0. -1.
<mgrwt>
<rscale>  1 0.14191346E+03</rscale>
<asrwt>0</asrwt>
<pdfrwt beam="1">  1       21 0.22430733E-01 0.14191346E+03</pdfrwt>
<pdfrwt beam="2">  1        4 0.11952084E-01 0.14191346E+03</pdfrwt>
<totfact> 0.42501621E+04</totfact>
</mgrwt>
</event>
<event>
 6    4  0.6376098E-003  0.1309174E+03  0.7818608E-02  0.1226101E+00
          4   -1    0    0  502    0 -0.00000000000E+00  0.00000000000E+00  0.89110933045E+01  0.90011379215E+01  0.12700000000E+01 0. -1.
         21   -1    0    0  501  502  0.00000000000E+00 -0.00000000000E+00 -0.80645932532E+03  0.80645932532E+03  0.00000000000E+00 0. -1.
         25    2    1    2    0    0 -0.25472246566E+02 -0.29455054035E+02 -0.62605934958E+03  0.63960118640E+03  0.12499173129E+03 0.  0.
    9000005    1    3    3    0    0 -0.53373338820E+02  0.28102340310E+02 -0.20440351319E+03  0.21312027363E+03  0.10000000000E+01 0.  0.
    9000005    1    3    3    0    0  0.27901092254E+02 -0.57557394345E+02 -0.42165583639E+03  0.42648091277E+03  0.10000000000E+01 0.  0.
          4    1    1    2  501    0  0.25472246566E+02  0.29455054035E+02 -0.17148888244E+03  0.17585927685E+03  0.12700000000E+01 0.  1.
<mgrwt>
<rscale>  1 0.13091741E+03</rscale>
<asrwt>0</asrwt>
<pdfrwt beam="2">  1       21 0.12407065E+00 0.13091741E+03</pdfrwt>
<pdfrwt beam="1">  1        4 0.13779410E-02 0.13091741E+03</pdfrwt>
<totfact> 0.36020907E+04</totfact>
</mgrwt>
</event>
<event>
 6    4  0.6376098E-003  0.1298136E+03  0.7818608E-02  0.1227733E+00
          4   -1    0    0  502    0 -0.00000000000E+00  0.00000000000E+00  0.12991654437E+03  0.12992275167E+03  0.12700000000E+01 0. -1.
         21   -1    0    0  501  502  0.00000000000E+00 -0.00000000000E+00 -0.57353114315E+02  0.57353114315E+02  0.00000000000E+00 0.  1.
         25    2    1    2    0    0  0.34423383222E+02 -0.64552845089E+01  0.78539538082E+02  0.15172355554E+03  0.12499975302E+03 0.  0.
    9000005    1    3    3    0    0  0.28587992180E+02  0.31959639605E+02 -0.18859945437E+02  0.46854982686E+02  0.10000000000E+01 0.  0.
    9000005    1    3    3    0    0  0.58353910420E+01 -0.38414924114E+02  0.97399483520E+02  0.10486857286E+03  0.10000000000E+01 0.  0.
          4    1    1    2  501    0 -0.34423383222E+02  0.64552845089E+01 -0.59761080259E+01  0.35552310441E+02  0.12700000000E+01 0.  1.
<mgrwt>
<rscale>  1 0.12981363E+03</rscale>
<asrwt>0</asrwt>
<pdfrwt beam="2">  1       21 0.88235561E-02 0.12981363E+03</pdfrwt>
<pdfrwt beam="1">  1        4 0.19988720E-01 0.12981363E+03</pdfrwt>
<totfact> 0.91437976E+04</totfact>
</mgrwt>
</event>
<event>
 6    4  0.6376098E-003  0.1292581E+03  0.7818608E-02  0.1228561E+00
          4   -1    0    0  502    0 -0.00000000000E+00  0.00000000000E+00  0.38807018854E+03  0.38807226664E+03  0.12700000000E+01 0. -1.
         21   -1    0    0  501  502  0.00000000000E+00 -0.00000000000E+00 -0.16984076058E+02  0.16984076058E+02  0.00000000000E+00 0.  1.
         25    2    1    2    0    0 -0.79036892525E+01  0.31943256466E+02  0.30329345725E+03  0.32968859799E+03  0.12499924201E+03 0.  0.
    9000005    1    3    3    0    0  0.35217036174E+02 -0.33218049808E+02  0.84928056656E+02  0.97762228274E+02  0.10000000000E+01 0.  0.
    9000005    1    3    3    0    0 -0.43120725426E+02  0.65161306273E+02  0.21836540059E+03  0.23192636972E+03  0.10000000000E+01 0.  0.
          4    1    1    2  501    0  0.79036892525E+01 -0.31943256466E+02  0.67792655236E+02  0.75367744702E+02  0.12700000000E+01 0.  1.
<mgrwt>
<rscale>  1 0.12925808E+03</rscale>
<asrwt>0</asrwt>
<pdfrwt beam="2">  1       21 0.26129351E-02 0.12925808E+03</pdfrwt>
<pdfrwt beam="1">  1        4 0.59706912E-01 0.12925808E+03</pdfrwt>
<totfact> 0.85076201E+04</totfact>
</mgrwt>
</event>
<event>
 6    4  0.6376098E-003  0.1278387E+03  0.7818608E-02  0.1230698E+00
         21   -1    0    0  501  502  0.00000000000E+00  0.00000000000E+00  0.20793558892E+02  0.20793558892E+02  0.00000000000E+00 0.  1.
          4   -1    0    0  502    0 -0.00000000000E+00 -0.00000000000E+00 -0.41148394789E+03  0.41148590775E+03  0.12700000000E+01 0.  1.
         25    2    1    2    0    0  0.48396662716E+01 -0.26352306032E+02 -0.38387798808E+03  0.40460478309E+03  0.12499941748E+03 0.  0.
    9000005    1    3    3    0    0 -0.27832376558E+02 -0.51205387459E+02 -0.33818676308E+03  0.34317330842E+03  0.10000000000E+01 0.  0.
    9000005    1    3    3    0    0  0.32672042829E+02  0.24853081427E+02 -0.45691224995E+02  0.61431474674E+02  0.10000000000E+01 0.  0.
          4    1    1    2  501    0 -0.48396662716E+01  0.26352306032E+02 -0.68124009260E+01  0.27674683543E+02  0.12700000000E+01 0. -1.
<mgrwt>
<rscale>  1 0.12783865E+03</rscale>
<asrwt>0</asrwt>
<pdfrwt beam="1">  1       21 0.31990092E-02 0.12783865E+03</pdfrwt>
<pdfrwt beam="2">  1        4 0.63308354E-01 0.12783865E+03</pdfrwt>
<totfact> 0.53908309E+04</totfact>
</mgrwt>
</event>
<event>
 6    4  0.6376098E-003  0.1484574E+03  0.7818608E-02  0.1202381E+00
         21   -1    0    0  501  502  0.00000000000E+00  0.00000000000E+00  0.76610575371E+03  0.76610575371E+03  0.00000000000E+00 0.  1.
          4   -1    0    0  502    0 -0.00000000000E+00 -0.00000000000E+00 -0.27959656046E+02  0.27988484528E+02  0.12700000000E+01 0. -1.
         25    2    1    2    0    0  0.59460680536E+02 -0.53672464016E+02  0.19504643756E+03  0.24511777278E+03  0.12499321503E+03 0.  0.
    9000005    1    3    3    0    0 -0.12716654546E+02 -0.26965633430E+02  0.15597523557E+03  0.15880218135E+03  0.10000000000E+01 0.  0.
    9000005    1    3    3    0    0  0.72177335081E+02 -0.26706830587E+02  0.39071201991E+02  0.86315591433E+02  0.10000000000E+01 0.  0.
          4    1    1    2  501    0 -0.59460680536E+02  0.53672464016E+02  0.54309966010E+03  0.54897646546E+03  0.12700000000E+01 0.  1.
<mgrwt>
<rscale>  1 0.14845743E+03</rscale>
<asrwt>0</asrwt>
<pdfrwt beam="1">  1       21 0.11786241E+00 0.14845743E+03</pdfrwt>
<pdfrwt beam="2">  1        4 0.43037847E-02 0.14845743E+03</pdfrwt>
<totfact> 0.70079675E+03</totfact>
</mgrwt>
</event>
<event>
 6    4  0.6376098E-003  0.1333012E+03  0.7818608E-02  0.1222638E+00
         21   -1    0    0  501  502  0.00000000000E+00  0.00000000000E+00  0.19862888438E+02  0.19862888438E+02  0.00000000000E+00 0. -1.
          4   -1    0    0  502    0 -0.00000000000E+00 -0.00000000000E+00 -0.41038132413E+03  0.41038328925E+03  0.12700000000E+01 0. -1.
         25    2    1    2    0    0 -0.63248193510E+01  0.45926857881E+02 -0.30754088895E+03  0.33518742860E+03  0.12497973556E+03 0.  0.
    9000005    1    3    3    0    0 -0.55465180659E+02  0.16043119955E+01 -0.21073399730E+03  0.21791919994E+03  0.10000000000E+01 0.  0.
    9000005    1    3    3    0    0  0.49140361308E+02  0.44322545885E+02 -0.96806891646E+02  0.11726822866E+03  0.10000000000E+01 0.  0.
          4    1    1    2  501    0  0.63248193510E+01 -0.45926857881E+02 -0.82977546751E+02  0.95058749094E+02  0.12700000000E+01 0.  1.
<mgrwt>
<rscale>  1 0.13330121E+03</rscale>
<asrwt>0</asrwt>
<pdfrwt beam="1">  1       21 0.30558290E-02 0.13330121E+03</pdfrwt>
<pdfrwt beam="2">  1        4 0.63138862E-01 0.13330121E+03</pdfrwt>
<totfact> 0.58786762E+04</totfact>
</mgrwt>
</event>
<event>
 6    4  0.6376098E-003  0.1485374E+03  0.7818608E-02  0.1202282E+00
         -4   -1    0    0    0  501 -0.00000000000E+00  0.00000000000E+00  0.10969106995E+02  0.11042382364E+02  0.12700000000E+01 0. -1.
         21   -1    0    0  501  502  0.00000000000E+00 -0.00000000000E+00 -0.14776486489E+04  0.14776486489E+04  0.00000000000E+00 0.  1.
         25    2    1    2    0    0  0.74417801737E+02 -0.30005462465E+02 -0.59247629181E+03  0.61081218292E+03  0.12500011781E+03 0.  0.
    9000005    1    3    3    0    0  0.83245788967E+02  0.27247940514E+02 -0.41404749061E+03  0.42321228258E+03  0.10000000000E+01 0.  0.
    9000005    1    3    3    0    0 -0.88279872302E+01 -0.57253402980E+02 -0.17842880120E+03  0.18759990034E+03  0.10000000000E+01 0.  0.
         -4    1    1    2    0  502 -0.74417801737E+02  0.30005462465E+02 -0.87420325011E+03  0.87787884836E+03  0.12700000000E+01 0.  1.
<mgrwt>
<rscale>  1 0.14853742E+03</rscale>
<asrwt>0</asrwt>
<pdfrwt beam="2">  1       21 0.22733050E+00 0.14853742E+03</pdfrwt>
<pdfrwt beam="1">  1       -4 0.16932339E-02 0.14853742E+03</pdfrwt>
<totfact> 0.50570737E+03</totfact>
</mgrwt>
</event>
<event>
 6    4  0.6376098E-003  0.1287295E+03  0.7818608E-02  0.1229353E+00
         21   -1    0    0  501  502  0.00000000000E+00  0.00000000000E+00  0.15467222910E+04  0.15467222910E+04  0.00000000000E+00 0.  1.
         -4   -1    0    0    0  501 -0.00000000000E+00 -0.00000000000E+00 -0.29274438993E+02  0.29301973966E+02  0.12700000000E+01 0. -1.
         25    2    1    2    0    0 -0.19902992301E+01  0.30715091442E+02  0.11315136633E+03  0.17138993152E+03  0.12499559508E+03 0.  0.
    9000005    1    3    3    0    0  0.85646521498E+01 -0.32127770938E+01  0.13120144990E+03  0.13152374561E+03  0.10000000000E+01 0.  0.
    9000005    1    3    3    0    0 -0.10554951380E+02  0.33927868536E+02 -0.18050083566E+02  0.39866185907E+02  0.10000000000E+01 0.  0.
         -4    1    1    2    0  502  0.19902992301E+01 -0.30715091442E+02  0.14042964857E+04  0.14046343335E+04  0.12700000000E+01 0.  1.
<mgrwt>
<rscale>  1 0.12872947E+03</rscale>
<asrwt>0</asrwt>
<pdfrwt beam="1">  1       21 0.23795721E+00 0.12872947E+03</pdfrwt>
<pdfrwt beam="2">  1       -4 0.45059192E-02 0.12872947E+03</pdfrwt>
<totfact> 0.95184310E+02</totfact>
</mgrwt>
</event>
<event>
 6    4  0.6376098E-003  0.1331424E+03  0.7818608E-02  0.1222866E+00
         21   -1    0    0  501  502  0.00000000000E+00  0.00000000000E+00  0.14104084025E+04  0.14104084025E+04  0.00000000000E+00 0.  1.
          4   -1    0    0  502    0 -0.00000000000E+00 -0.00000000000E+00 -0.56902094505E+02  0.56916265329E+02  0.12700000000E+01 0. -1.
         25    2    1    2    0    0 -0.26098750043E+01 -0.45782283310E+02  0.21903695410E+02  0.13493209818E+03  0.12499628128E+03 0.  0.
    9000005    1    3    3    0    0 -0.35681982794E+02  0.10045546258E+02  0.51617464354E+02  0.63556899878E+02  0.10000000000E+01 0.  0.
    9000005    1    3    3    0    0  0.33072107790E+02 -0.55827829568E+02 -0.29713768944E+02  0.71375198303E+02  0.10000000000E+01 0.  0.
          4    1    1    2  501    0  0.26098750043E+01  0.45782283310E+02  0.13316026126E+04  0.13323925697E+04  0.12700000000E+01 0.  1.
<mgrwt>
<rscale>  1 0.13314240E+03</rscale>
<asrwt>0</asrwt>
<pdfrwt beam="1">  1       21 0.21698588E+00 0.13314240E+03</pdfrwt>
<pdfrwt beam="2">  1        4 0.87553035E-02 0.13314240E+03</pdfrwt>
<totfact> 0.42856501E+02</totfact>
</mgrwt>
</event>
<event>
 6    4  0.6376098E-003  0.1315120E+03  0.7818608E-02  0.1225229E+00
          4   -1    0    0  502    0 -0.00000000000E+00  0.00000000000E+00  0.42051612491E+02  0.42070785743E+02  0.12700000000E+01 0.  1.
         21   -1    0    0  501  502  0.00000000000E+00 -0.00000000000E+00 -0.18681288521E+03  0.18681288521E+03  0.00000000000E+00 0.  1.
         25    2    1    2    0    0  0.38136720115E+02 -0.14720032778E+02 -0.13127571578E+03  0.18581904589E+03  0.12499726187E+03 0.  0.
    9000005    1    3    3    0    0  0.72782528965E+02 -0.38943834306E+02 -0.11253177613E+03  0.13956474982E+03  0.10000000000E+01 0.  0.
    9000005    1    3    3    0    0 -0.34645808850E+02  0.24223801528E+02 -0.18743939651E+02  0.46254296070E+02  0.10000000000E+01 0.  0.
          4    1    1    2  501    0 -0.38136720115E+02  0.14720032778E+02 -0.13485556939E+02  0.43064625066E+02  0.12700000000E+01 0. -1.
<mgrwt>
<rscale>  1 0.13151199E+03</rscale>
<asrwt>0</asrwt>
<pdfrwt beam="2">  1       21 0.28740444E-01 0.13151199E+03</pdfrwt>
<pdfrwt beam="1">  1        4 0.64712858E-02 0.13151199E+03</pdfrwt>
<totfact> 0.73340294E+04</totfact>
</mgrwt>
</event>
<event>
 6    4  0.6376098E-003  0.1399546E+03  0.7818608E-02  0.1213390E+00
         -4   -1    0    0    0  501 -0.00000000000E+00  0.00000000000E+00  0.93739346701E+02  0.93747949417E+02  0.12700000000E+01 0. -1.
         21   -1    0    0  501  502  0.00000000000E+00 -0.00000000000E+00 -0.11096077043E+03  0.11096077043E+03  0.00000000000E+00 0. -1.
         25    2    1    2    0    0 -0.62637439017E+01  0.62636314998E+02 -0.21623600169E+01  0.13997132150E+03  0.12499901039E+03 0.  0.
    9000005    1    3    3    0    0 -0.34470166178E+02 -0.26301549182E+02 -0.14766550671E+02  0.45815006978E+02  0.10000000000E+01 0.  0.
    9000005    1    3    3    0    0  0.28206422276E+02  0.88937864180E+02  0.12604190654E+02  0.94156314523E+02  0.10000000000E+01 0.  0.
         -4    1    1    2    0  502  0.62637439017E+01 -0.62636314998E+02 -0.15059063707E+02  0.64737398341E+02  0.12700000000E+01 0.  1.
<mgrwt>
<rscale>  1 0.13995462E+03</rscale>
<asrwt>0</asrwt>
<pdfrwt beam="2">  1       21 0.17070888E-01 0.13995462E+03</pdfrwt>
<pdfrwt beam="1">  1       -4 0.14422659E-01 0.13995462E+03</pdfrwt>
<totfact> 0.50842002E+04</totfact>
</mgrwt>
</event>
<event>
 6    4  0.6376098E-003  0.1266478E+03  0.7818608E-02  0.1232516E+00
          4   -1    0    0  502    0 -0.00000000000E+00  0.00000000000E+00  0.94602572798E+03  0.94602658044E+03  0.12700000000E+01 0.  1.
         21   -1    0    0  501  502  0.00000000000E+00 -0.00000000000E+00 -0.26568807920E+02  0.26568807920E+02  0.00000000000E+00 0. -1.
         25    2    1    2    0    0  0.27381682298E+01 -0.20184436167E+02  0.93709891111E+03  0.94561832816E+03  0.12499897722E+03 0.  0.
    9000005    1    3    3    0    0 -0.22776791630E+02 -0.60971174718E+02  0.31468490940E+03  0.32134694426E+03  0.10000000000E+01 0.  0.
    9000005    1    3    3    0    0  0.25514959860E+02  0.40786738551E+02  0.62241400172E+03  0.62427138390E+03  0.10000000000E+01 0.  0.
          4    1    1    2  501    0 -0.27381682298E+01  0.20184436167E+02 -0.17641991057E+02  0.26977060201E+02  0.12700000000E+01 0. -1.
<mgrwt>
<rscale>  1 0.12664775E+03</rscale>
<asrwt>0</asrwt>
<pdfrwt beam="2">  1       21 0.40875096E-02 0.12664775E+03</pdfrwt>
<pdfrwt beam="1">  1        4 0.14554479E+00 0.12664775E+03</pdfrwt>
<totfact> 0.53077834E+03</totfact>
</mgrwt>
</event>
<event>
 6    4  0.6376098E-003  0.1294431E+03  0.7818608E-02  0.1228284E+00
         -4   -1    0    0    0  501 -0.00000000000E+00  0.00000000000E+00  0.12727416989E+02  0.12790623253E+02  0.12700000000E+01 0.  1.
         21   -1    0    0  501  502  0.00000000000E+00 -0.00000000000E+00 -0.88907039347E+03  0.88907039347E+03  0.00000000000E+00 0. -1.
         25    2    1    2    0    0 -0.13500212761E+02  0.30791581838E+02 -0.32994313688E+03  0.35442629470E+03  0.12500059018E+03 0.  0.
    9000005    1    3    3    0    0 -0.12392582336E+01  0.78091626044E+02 -0.23502914077E+03  0.24766819503E+03  0.10000000000E+01 0.  0.
    9000005    1    3    3    0    0 -0.12260954528E+02 -0.47300044206E+02 -0.94913996106E+02  0.10675809967E+03  0.10000000000E+01 0.  0.
         -4    1    1    2    0  502  0.13500212761E+02 -0.30791581838E+02 -0.54639983961E+03  0.54743472203E+03  0.12700000000E+01 0. -1.
<mgrwt>
<rscale>  1 0.12944313E+03</rscale>
<asrwt>0</asrwt>
<pdfrwt beam="2">  1       21 0.13678005E+00 0.12944313E+03</pdfrwt>
<pdfrwt beam="1">  1       -4 0.19629961E-02 0.12944313E+03</pdfrwt>
<totfact> 0.16439923E+04</totfact>
</mgrwt>
</event>
<event>
 6    4  0.6376098E-003  0.1307265E+03  0.7818608E-02  0.1226382E+00
         -4   -1    0    0    0  501 -0.00000000000E+00  0.00000000000E+00  0.71004888340E+02  0.71016245101E+02  0.12700000000E+01 0. -1.
         21   -1    0    0  501  502  0.00000000000E+00 -0.00000000000E+00 -0.22616316906E+03  0.22616316906E+03  0.00000000000E+00 0.  1.
         25    2    1    2    0    0 -0.22195695870E+02 -0.31173628929E+02  0.66569102299E+01  0.13089588227E+03  0.12499989394E+03 0.  0.
    9000005    1    3    3    0    0  0.30633208775E+02 -0.60753401875E+02  0.15249769633E+02  0.69734674252E+02  0.10000000000E+01 0.  0.
    9000005    1    3    3    0    0 -0.52828904645E+02  0.29579772946E+02 -0.85928594030E+01  0.61161208018E+02  0.10000000000E+01 0.  0.
         -4    1    1    2    0  502  0.22195695870E+02  0.31173628929E+02 -0.16181519095E+03  0.16628353189E+03  0.12700000000E+01 0.  1.
<mgrwt>
<rscale>  1 0.13072650E+03</rscale>
<asrwt>0</asrwt>
<pdfrwt beam="2">  1       21 0.34794334E-01 0.13072650E+03</pdfrwt>
<pdfrwt beam="1">  1       -4 0.10924977E-01 0.13072650E+03</pdfrwt>
<totfact> 0.21174151E+04</totfact>
</mgrwt>
</event>
<event>
 6    4  0.6376098E-003  0.1369918E+03  0.7818608E-02  0.1217435E+00
         21   -1    0    0  501  502  0.00000000000E+00  0.00000000000E+00  0.77050235279E+03  0.77050235279E+03  0.00000000000E+00 0. -1.
          4   -1    0    0  502    0 -0.00000000000E+00 -0.00000000000E+00 -0.14652599838E+02  0.14707534872E+02  0.12700000000E+01 0. -1.
         25    2    1    2    0    0  0.11665071636E+02 -0.54819920104E+02  0.35598402275E+03  0.38143332491E+03  0.12500183744E+03 0.  0.
    9000005    1    3    3    0    0 -0.24511349827E+02  0.33501703330E+02  0.10493846970E+03  0.11285500795E+03  0.10000000000E+01 0.  0.
    9000005    1    3    3    0    0  0.36176421462E+02 -0.88321623434E+02  0.25104555305E+03  0.26857831696E+03  0.10000000000E+01 0.  0.
          4    1    1    2  501    0 -0.11665071636E+02  0.54819920104E+02  0.39986573020E+03  0.40377656275E+03  0.12700000000E+01 0.  1.
<mgrwt>
<rscale>  1 0.13699181E+03</rscale>
<asrwt>0</asrwt>
<pdfrwt beam="1">  1       21 0.11853879E+00 0.13699181E+03</pdfrwt>
<pdfrwt beam="2">  1        4 0.22585530E-02 0.13699181E+03</pdfrwt>
<totfact> 0.18950844E+04</totfact>
</mgrwt>
</event>
<event>
 6    4  0.6376098E-003  0.1377585E+03  0.7818608E-02  0.1216377E+00
         21   -1    0    0  501  502  0.00000000000E+00  0.00000000000E+00  0.35456784475E+02  0.35456784475E+02  0.00000000000E+00 0.  1.
          4   -1    0    0  502    0 -0.00000000000E+00 -0.00000000000E+00 -0.27695600726E+03  0.27695891908E+03  0.12700000000E+01 0.  1.
         25    2    1    2    0    0 -0.54217654154E+02  0.20332611869E+02 -0.14605186016E+03  0.20076991967E+03  0.12499778262E+03 0.  0.
    9000005    1    3    3    0    0  0.20494215439E+01  0.18495194957E+02 -0.14318335832E+03  0.14439095008E+03  0.10000000000E+01 0.  0.
    9000005    1    3    3    0    0 -0.56267075698E+02  0.18374169123E+01 -0.28685018353E+01  0.56378969584E+02  0.10000000000E+01 0.  0.
          4    1    1    2  501    0  0.54217654154E+02 -0.20332611869E+02 -0.95447362628E+02  0.11164578389E+03  0.12700000000E+01 0. -1.
<mgrwt>
<rscale>  1 0.13775854E+03</rscale>
<asrwt>0</asrwt>
<pdfrwt beam="1">  1       21 0.54548898E-02 0.13775854E+03</pdfrwt>
<pdfrwt beam="2">  1        4 0.42610591E-01 0.13775854E+03</pdfrwt>
<totfact> 0.50365677E+04</totfact>
</mgrwt>
</event>
<event>
 6    4  0.6376098E-003  0.1275933E+03  0.7818608E-02  0.1231071E+00
         21   -1    0    0  501  502  0.00000000000E+00  0.00000000000E+00  0.65568569965E+02  0.65568569965E+02  0.00000000000E+00 0.  1.
          4   -1    0    0  502    0 -0.00000000000E+00 -0.00000000000E+00 -0.12959834730E+03  0.12960456984E+03  0.12700000000E+01 0. -1.
         25    2    1    2    0    0 -0.12514726246E+02  0.22312627027E+02 -0.91957838204E+02  0.15727774191E+03  0.12500228955E+03 0.  0.
    9000005    1    3    3    0    0  0.38696929573E+02  0.65493262911E+01  0.11374594850E+02  0.40874532918E+02  0.10000000000E+01 0.  0.
    9000005    1    3    3    0    0 -0.51211655819E+02  0.15763300736E+02 -0.10333243305E+03  0.11640320899E+03  0.10000000000E+01 0.  0.
          4    1    1    2  501    0  0.12514726246E+02 -0.22312627027E+02  0.27928060870E+02  0.37895397897E+02  0.12700000000E+01 0.  1.
<mgrwt>
<rscale>  1 0.12759328E+03</rscale>
<asrwt>0</asrwt>
<pdfrwt beam="1">  1       21 0.10087472E-01 0.12759328E+03</pdfrwt>
<pdfrwt beam="2">  1        4 0.19939632E-01 0.12759328E+03</pdfrwt>
<totfact> 0.72558895E+04</totfact>
</mgrwt>
</event>
<event>
 6    4  0.6376098E-003  0.1267055E+03  0.7818608E-02  0.1232428E+00
          4   -1    0    0  502    0 -0.00000000000E+00  0.00000000000E+00  0.45090958561E+02  0.45108839976E+02  0.12700000000E+01 0.  1.
         21   -1    0    0  501  502  0.00000000000E+00 -0.00000000000E+00 -0.14524855896E+03  0.14524855896E+03  0.00000000000E+00 0.  1.
         25    2    1    2    0    0  0.26013722867E+01  0.20555306306E+02 -0.50252116278E+02  0.13630688552E+03  0.12500001638E+03 0.  0.
    9000005    1    3    3    0    0 -0.39785553215E+01  0.56954273943E+02 -0.73145594118E+02  0.92794914525E+02  0.10000000000E+01 0.  0.
    9000005    1    3    3    0    0  0.65799276082E+01 -0.36398967637E+02  0.22893477840E+02  0.43511970997E+02  0.10000000000E+01 0.  0.
          4    1    1    2  501    0 -0.26013722867E+01 -0.20555306306E+02 -0.49905484125E+02  0.54050513419E+02  0.12700000000E+01 0. -1.
<mgrwt>
<rscale>  1 0.12670553E+03</rscale>
<asrwt>0</asrwt>
<pdfrwt beam="2">  1       21 0.22345932E-01 0.12670553E+03</pdfrwt>
<pdfrwt beam="1">  1        4 0.69388732E-02 0.12670553E+03</pdfrwt>
<totfact> 0.10485145E+05</totfact>
</mgrwt>
</event>
<event>
 6    4  0.6376098E-003  0.1267321E+03  0.7818608E-02  0.1232387E+00
         -4   -1    0    0    0  501 -0.00000000000E+00  0.00000000000E+00  0.95019134922E+03  0.95019219794E+03  0.12700000000E+01 0. -1.
         21   -1    0    0  501  502  0.00000000000E+00 -0.00000000000E+00 -0.14931726208E+02  0.14931726208E+02  0.00000000000E+00 0.  1.
         25    2    1    2    0    0 -0.11905926444E+01 -0.20794748326E+02  0.93570833929E+03  0.94425161438E+03  0.12500870363E+03 0.  0.
    9000005    1    3    3    0    0 -0.17352015972E+02 -0.21760121003E+02  0.92357483829E+03  0.92399463053E+03  0.10000000000E+01 0.  0.
    9000005    1    3    3    0    0  0.16161423327E+02  0.96537267686E+00  0.12133500995E+02  0.20256983852E+02  0.10000000000E+01 0.  0.
         -4    1    1    2    0  502  0.11905926444E+01  0.20794748326E+02 -0.44871627515E+00  0.20872309769E+02  0.12700000000E+01 0.  1.
<mgrwt>
<rscale>  1 0.12673206E+03</rscale>
<asrwt>0</asrwt>
<pdfrwt beam="2">  1       21 0.22971894E-02 0.12673206E+03</pdfrwt>
<pdfrwt beam="1">  1       -4 0.14618746E+00 0.12673206E+03</pdfrwt>
<totfact> 0.13514930E+04</totfact>
</mgrwt>
</event>
<event>
 6    4  0.6376098E-003  0.1306586E+03  0.7818608E-02  0.1226482E+00
          4   -1    0    0  502    0 -0.00000000000E+00  0.00000000000E+00  0.87675972206E+03  0.87676064187E+03  0.12700000000E+01 0. -1.
         21   -1    0    0  501  502  0.00000000000E+00 -0.00000000000E+00 -0.23159689260E+02  0.23159689260E+02  0.00000000000E+00 0.  1.
         25    2    1    2    0    0 -0.32305056124E+02 -0.20064326132E+02  0.85186904378E+03  0.86183092240E+03  0.12500190888E+03 0.  0.
    9000005    1    3    3    0    0  0.11328712087E+02  0.85123528648E+01  0.71822872107E+03  0.71836919174E+03  0.10000000000E+01 0.  0.
    9000005    1    3    3    0    0 -0.43633768212E+02 -0.28576678997E+02  0.13364032270E+03  0.14346173066E+03  0.10000000000E+01 0.  0.
          4    1    1    2  501    0  0.32305056124E+02  0.20064326132E+02  0.17309890235E+01  0.38089408729E+02  0.12700000000E+01 0.  1.
<mgrwt>
<rscale>  1 0.13065860E+03</rscale>
<asrwt>0</asrwt>
<pdfrwt beam="2">  1       21 0.35630298E-02 0.13065860E+03</pdfrwt>
<pdfrwt beam="1">  1        4 0.13488883E+00 0.13065860E+03</pdfrwt>
<totfact> 0.80782399E+03</totfact>
</mgrwt>
</event>
<event>
 6    4  0.6376098E-003  0.1276981E+03  0.7818608E-02  0.1230912E+00
          4   -1    0    0  502    0 -0.00000000000E+00  0.00000000000E+00  0.27554284853E+01  0.30340214465E+01  0.12700000000E+01 0. -1.
         21   -1    0    0  501  502  0.00000000000E+00 -0.00000000000E+00 -0.28472404271E+04  0.28472404271E+04  0.00000000000E+00 0. -1.
         25    2    1    2    0    0 -0.24957321917E+02 -0.76723774745E+01 -0.14686621784E+04  0.14742033099E+04  0.12500028460E+03 0.  0.
    9000005    1    3    3    0    0 -0.65629200399E+01  0.56039213697E+02 -0.47711957421E+03  0.48044516179E+03  0.10000000000E+01 0.  0.
    9000005    1    3    3    0    0 -0.18394401877E+02 -0.63711591171E+02 -0.99154260422E+03  0.99375814807E+03  0.10000000000E+01 0.  0.
          4    1    1    2  501    0  0.24957321917E+02  0.76723774745E+01 -0.13758228202E+04  0.13760711387E+04  0.12700000000E+01 0.  1.
<mgrwt>
<rscale>  1 0.12769810E+03</rscale>
<asrwt>0</asrwt>
<pdfrwt beam="2">  1       21 0.43803775E+00 0.12769810E+03</pdfrwt>
<pdfrwt beam="1">  1        4 0.44536331E-03 0.12769810E+03</pdfrwt>
<totfact> 0.21936518E+03</totfact>
</mgrwt>
</event>
<event>
 6    4  0.6376098E-003  0.1386422E+03  0.7818608E-02  0.1215168E+00
         21   -1    0    0  501  502  0.00000000000E+00  0.00000000000E+00  0.74756235131E+03  0.74756235131E+03  0.00000000000E+00 0. -1.
         -4   -1    0    0    0  501 -0.00000000000E+00 -0.00000000000E+00 -0.13960817098E+02  0.14018463327E+02  0.12700000000E+01 0. -1.
         25    2    1    2    0    0 -0.34504957489E+01  0.59873374107E+02  0.58764262094E+03  0.60377604883E+03  0.12499976139E+03 0.  0.
    9000005    1    3    3    0    0 -0.16271068363E+02  0.97486894795E+02  0.42638832871E+03  0.43769447013E+03  0.10000000000E+01 0.  0.
    9000005    1    3    3    0    0  0.12820572614E+02 -0.37613520688E+02  0.16125429224E+03  0.16608157870E+03  0.10000000000E+01 0.  0.
         -4    1    1    2    0  502  0.34504957489E+01 -0.59873374107E+02  0.14595891327E+03  0.15780476581E+03  0.12700000000E+01 0.  1.
<mgrwt>
<rscale>  1 0.13864223E+03</rscale>
<asrwt>0</asrwt>
<pdfrwt beam="1">  1       21 0.11500956E+00 0.13864223E+03</pdfrwt>
<pdfrwt beam="2">  1       -4 0.21523359E-02 0.13864223E+03</pdfrwt>
<totfact> 0.21983672E+04</totfact>
</mgrwt>
</event>
<event>
 6    4  0.6376098E-003  0.1298838E+03  0.7818608E-02  0.1227628E+00
         21   -1    0    0  501  502  0.00000000000E+00  0.00000000000E+00  0.13015558776E+03  0.13015558776E+03  0.00000000000E+00 0. -1.
         -4   -1    0    0    0  501 -0.00000000000E+00 -0.00000000000E+00 -0.53565578187E+02  0.53580631449E+02  0.12700000000E+01 0.  1.
         25    2    1    2    0    0  0.30034071000E+02 -0.18512491391E+02  0.48584635062E+02  0.13867324483E+03  0.12500017724E+03 0.  0.
    9000005    1    3    3    0    0 -0.35690709824E+02 -0.27322673053E+02 -0.14401255502E+02  0.47209653574E+02  0.10000000000E+01 0.  0.
    9000005    1    3    3    0    0  0.65724780825E+02  0.88101816615E+01  0.62985890564E+02  0.91463591256E+02  0.10000000000E+01 0.  0.
         -4    1    1    2    0  502 -0.30034071000E+02  0.18512491391E+02  0.28005374510E+02  0.45062974378E+02  0.12700000000E+01 0. -1.
<mgrwt>
<rscale>  1 0.12988380E+03</rscale>
<asrwt>0</asrwt>
<pdfrwt beam="1">  1       21 0.20023937E-01 0.12988380E+03</pdfrwt>
<pdfrwt beam="2">  1       -4 0.82424928E-02 0.12988380E+03</pdfrwt>
<totfact> 0.97132037E+04</totfact>
</mgrwt>
</event>
<event>
 6    4  0.6376098E-003  0.1270807E+03  0.7818608E-02  0.1231853E+00
         21   -1    0    0  501  502  0.00000000000E+00  0.00000000000E+00  0.26386016499E+03  0.26386016499E+03  0.00000000000E+00 0.  1.
          4   -1    0    0  502    0 -0.00000000000E+00 -0.00000000000E+00 -0.31243316703E+02  0.31269117970E+02  0.12700000000E+01 0. -1.
         25    2    1    2    0    0  0.35006150451E+01  0.22633318742E+02  0.10323048954E+03  0.16372546203E+03  0.12499988610E+03 0.  0.
    9000005    1    3    3    0    0  0.36904583408E+02 -0.65156039257E+01  0.11236118288E+03  0.11845014474E+03  0.10000000000E+01 0.  0.
    9000005    1    3    3    0    0 -0.33403968363E+02  0.29148922668E+02 -0.91306933439E+01  0.45275317293E+02  0.10000000000E+01 0.  0.
          4    1    1    2  501    0 -0.35006150451E+01 -0.22633318742E+02  0.12938635876E+03  0.13140382093E+03  0.12700000000E+01 0.  1.
<mgrwt>
<rscale>  1 0.12708066E+03</rscale>
<asrwt>0</asrwt>
<pdfrwt beam="1">  1       21 0.40593870E-01 0.12708066E+03</pdfrwt>
<pdfrwt beam="2">  1        4 0.48088841E-02 0.12708066E+03</pdfrwt>
<totfact> 0.59993915E+04</totfact>
</mgrwt>
</event>
<event>
 6    4  0.6376098E-003  0.1297348E+03  0.7818608E-02  0.1227850E+00
         21   -1    0    0  501  502  0.00000000000E+00  0.00000000000E+00  0.19512735298E+02  0.19512735298E+02  0.00000000000E+00 0. -1.
         -4   -1    0    0    0  501 -0.00000000000E+00 -0.00000000000E+00 -0.45614296523E+03  0.45614473321E+03  0.12700000000E+01 0.  1.
         25    2    1    2    0    0  0.24011589527E+02  0.25091618848E+02 -0.41480488872E+03  0.43461963002E+03  0.12499992530E+03 0.  0.
    9000005    1    3    3    0    0  0.33030013561E+02  0.24906889044E+01 -0.19267239508E+02  0.38332908125E+02  0.10000000000E+01 0.  0.
    9000005    1    3    3    0    0 -0.90184240338E+01  0.22600929944E+02 -0.39553764922E+03  0.39628672190E+03  0.10000000000E+01 0.  0.
         -4    1    1    2    0  502 -0.24011589527E+02 -0.25091618848E+02 -0.21825341212E+02  0.41037838479E+02  0.12700000000E+01 0. -1.
<mgrwt>
<rscale>  1 0.12973483E+03</rscale>
<asrwt>0</asrwt>
<pdfrwt beam="1">  1       21 0.30019592E-02 0.12973483E+03</pdfrwt>
<pdfrwt beam="2">  1       -4 0.70179158E-01 0.12973483E+03</pdfrwt>
<totfact> 0.48113795E+04</totfact>
</mgrwt>
</event>
<event>
 6    4  0.6376098E-003  0.1294578E+03  0.7818608E-02  0.1228263E+00
         -4   -1    0    0    0  501 -0.00000000000E+00  0.00000000000E+00  0.25767767895E+02  0.25799045763E+02  0.12700000000E+01 0.  1.
         21   -1    0    0  501  502  0.00000000000E+00 -0.00000000000E+00 -0.27910938350E+03  0.27910938350E+03  0.00000000000E+00 0.  1.
         25    2    1    2    0    0 -0.33413324586E+02 -0.40792208304E+01 -0.22998608390E+03  0.26391838092E+03  0.12500489068E+03 0.  0.
    9000005    1    3    3    0    0  0.94009361930E+01 -0.47508163349E+02 -0.17573664275E+03  0.18229034750E+03  0.10000000000E+01 0.  0.
    9000005    1    3    3    0    0 -0.42814260779E+02  0.43428942519E+02 -0.54249441150E+02  0.81628033417E+02  0.10000000000E+01 0.  0.
         -4    1    1    2    0  502  0.33413324586E+02  0.40792208304E+01 -0.23355531710E+02  0.40990048353E+02  0.12700000000E+01 0. -1.
<mgrwt>
<rscale>  1 0.12945777E+03</rscale>
<asrwt>0</asrwt>
<pdfrwt beam="2">  1       21 0.42939905E-01 0.12945777E+03</pdfrwt>
<pdfrwt beam="1">  1       -4 0.39669002E-02 0.12945777E+03</pdfrwt>
<totfact> 0.72986833E+04</totfact>
</mgrwt>
</event>
<event>
 6    4  0.6376098E-003  0.1281612E+03  0.7818608E-02  0.1230210E+00
         21   -1    0    0  501  502  0.00000000000E+00  0.00000000000E+00  0.97003173831E+03  0.97003173831E+03  0.00000000000E+00 0. -1.
         -4   -1    0    0    0  501 -0.00000000000E+00 -0.00000000000E+00 -0.71364660074E+01  0.72485893162E+01  0.12700000000E+01 0.  1.
         25    2    1    2    0    0 -0.20804158759E+02  0.19143610210E+02  0.61365645075E+03  0.62689674037E+03  0.12500397080E+03 0.  0.
    9000005    1    3    3    0    0 -0.40452617577E+02  0.52370273656E+02  0.18458077200E+03  0.19608702462E+03  0.10000000000E+01 0.  0.
    9000005    1    3    3    0    0  0.19648458818E+02 -0.33226663446E+02  0.42907567875E+03  0.43080971576E+03  0.10000000000E+01 0.  0.
         -4    1    1    2    0  502  0.20804158759E+02 -0.19143610210E+02  0.34923882155E+03  0.35038358725E+03  0.12700000000E+01 0. -1.
<mgrwt>
<rscale>  1 0.12816116E+03</rscale>
<asrwt>0</asrwt>
<pdfrwt beam="1">  1       21 0.14923555E+00 0.12816116E+03</pdfrwt>
<pdfrwt beam="2">  1       -4 0.11066074E-02 0.12816116E+03</pdfrwt>
<totfact> 0.31464161E+04</totfact>
</mgrwt>
</event>
<event>
 6    4  0.6376098E-003  0.1394547E+03  0.7818608E-02  0.1214065E+00
          4   -1    0    0  502    0 -0.00000000000E+00  0.00000000000E+00  0.64140862463E+03  0.64140988194E+03  0.12700000000E+01 0. -1.
         21   -1    0    0  501  502  0.00000000000E+00 -0.00000000000E+00 -0.17043181741E+02  0.17043181741E+02  0.00000000000E+00 0.  1.
         25    2    1    2    0    0  0.26086327926E+02 -0.56055894478E+02  0.50652340643E+03  0.52536993827E+03  0.12499940389E+03 0.  0.
    9000005    1    3    3    0    0  0.32810614055E+02 -0.94313711976E+02  0.38768347909E+03  0.40033872236E+03  0.10000000000E+01 0.  0.
    9000005    1    3    3    0    0 -0.67242861296E+01  0.38257817498E+02  0.11883992734E+03  0.12503121591E+03  0.10000000000E+01 0.  0.
          4    1    1    2  501    0 -0.26086327926E+02  0.56055894478E+02  0.11784203646E+03  0.13308312541E+03  0.12700000000E+01 0.  1.
<mgrwt>
<rscale>  1 0.13945469E+03</rscale>
<asrwt>0</asrwt>
<pdfrwt beam="2">  1       21 0.26220285E-02 0.13945469E+03</pdfrwt>
<pdfrwt beam="1">  1        4 0.98681968E-01 0.13945469E+03</pdfrwt>
<totfact> 0.28348781E+04</totfact>
</mgrwt>
</event>
<event>
 6    4  0.6376098E-003  0.1426105E+03  0.7818608E-02  0.1209859E+00
         21   -1    0    0  501  502  0.00000000000E+00  0.00000000000E+00  0.66241480136E+02  0.66241480136E+02  0.00000000000E+00 0.  1.
          4   -1    0    0  502    0 -0.00000000000E+00 -0.00000000000E+00 -0.17793015661E+03  0.17793468894E+03  0.12700000000E+01 0.  1.
         25    2    1    2    0    0 -0.36607012388E+02  0.58075625805E+02 -0.10084340704E+03  0.17466297294E+03  0.12499963882E+03 0.  0.
    9000005    1    3    3    0    0  0.37439607961E+02 -0.12973653692E+02 -0.33684868710E+02  0.52016442731E+02  0.10000000000E+01 0.  0.
    9000005    1    3    3    0    0 -0.74046620349E+02  0.71049279497E+02 -0.67158538326E+02  0.12264653021E+03  0.10000000000E+01 0.  0.
          4    1    1    2  501    0  0.36607012388E+02 -0.58075625805E+02 -0.10845269434E+02  0.69513196141E+02  0.12700000000E+01 0. -1.
<mgrwt>
<rscale>  1 0.14261052E+03</rscale>
<asrwt>0</asrwt>
<pdfrwt beam="1">  1       21 0.10190997E-01 0.14261052E+03</pdfrwt>
<pdfrwt beam="2">  1        4 0.27375155E-01 0.14261052E+03</pdfrwt>
<totfact> 0.40439834E+04</totfact>
</mgrwt>
</event>
<event>
 6    4  0.6376098E-003  0.1277748E+03  0.7818608E-02  0.1230795E+00
         21   -1    0    0  501  502  0.00000000000E+00  0.00000000000E+00  0.10171805507E+02  0.10171805507E+02  0.00000000000E+00 0. -1.
          4   -1    0    0  502    0 -0.00000000000E+00 -0.00000000000E+00 -0.67900396925E+03  0.67900515695E+03  0.12700000000E+01 0. -1.
         25    2    1    2    0    0 -0.22289717575E+02 -0.14291234696E+02 -0.62520151933E+03  0.63812486229E+03  0.12500131682E+03 0.  0.
    9000005    1    3    3    0    0 -0.65722050204E+02  0.35802108728E+01 -0.50153816267E+03  0.50583963309E+03  0.10000000000E+01 0.  0.
    9000005    1    3    3    0    0  0.43432332629E+02 -0.17871445569E+02 -0.12366335666E+03  0.13228522920E+03  0.10000000000E+01 0.  0.
          4    1    1    2  501    0  0.22289717575E+02  0.14291234696E+02 -0.43630644420E+02  0.51052100165E+02  0.12700000000E+01 0.  1.
<mgrwt>
<rscale>  1 0.12777480E+03</rscale>
<asrwt>0</asrwt>
<pdfrwt beam="1">  1       21 0.15648931E-02 0.12777480E+03</pdfrwt>
<pdfrwt beam="2">  1        4 0.10446834E+00 0.12777480E+03</pdfrwt>
<totfact> 0.56565587E+04</totfact>
</mgrwt>
</event>
<event>
 6    4  0.6376098E-003  0.1270248E+03  0.7818608E-02  0.1231938E+00
         21   -1    0    0  501  502  0.00000000000E+00  0.00000000000E+00  0.27759593127E+03  0.27759593127E+03  0.00000000000E+00 0. -1.
          4   -1    0    0  502    0 -0.00000000000E+00 -0.00000000000E+00 -0.46273600845E+02  0.46291025428E+02  0.12700000000E+01 0.  1.
         25    2    1    2    0    0 -0.81529618520E+01 -0.21070029229E+02  0.42844667807E+02  0.13405582352E+03  0.12499952536E+03 0.  0.
    9000005    1    3    3    0    0  0.27237725083E+02 -0.42183816847E+02  0.68920473134E+02  0.85278365888E+02  0.10000000000E+01 0.  0.
    9000005    1    3    3    0    0 -0.35390686935E+02  0.21113787619E+02 -0.26075805327E+02  0.48777457630E+02  0.10000000000E+01 0.  0.
          4    1    1    2  501    0  0.81529618520E+01  0.21070029229E+02  0.18847766262E+03  0.18983113318E+03  0.12700000000E+01 0. -1.
<mgrwt>
<rscale>  1 0.12702479E+03</rscale>
<asrwt>0</asrwt>
<pdfrwt beam="1">  1       21 0.42707066E-01 0.12702479E+03</pdfrwt>
<pdfrwt beam="2">  1        4 0.71205795E-02 0.12702479E+03</pdfrwt>
<totfact> 0.28674581E+04</totfact>
</mgrwt>
</event>
<event>
 6    4  0.6376098E-003  0.1307915E+03  0.7818608E-02  0.1226286E+00
          4   -1    0    0  502    0 -0.00000000000E+00  0.00000000000E+00  0.18776413301E+03  0.18776842798E+03  0.12700000000E+01 0.  1.
         21   -1    0    0  501  502  0.00000000000E+00 -0.00000000000E+00 -0.44516510679E+02  0.44516510679E+02  0.00000000000E+00 0.  1.
         25    2    1    2    0    0 -0.21300393990E+02  0.32046103973E+02  0.14298858778E+03  0.19378377552E+03  0.12500302338E+03 0.  0.
    9000005    1    3    3    0    0  0.33786715271E+02  0.15360867203E+02  0.12941822878E+03  0.13463868801E+03  0.10000000000E+01 0.  0.
    9000005    1    3    3    0    0 -0.55087109261E+02  0.16685236770E+02  0.13570359006E+02  0.59145087508E+02  0.10000000000E+01 0.  0.
          4    1    1    2  501    0  0.21300393990E+02 -0.32046103973E+02  0.25903455054E+00  0.38501163137E+02  0.12700000000E+01 0. -1.
<mgrwt>
<rscale>  1 0.13079150E+03</rscale>
<asrwt>0</asrwt>
<pdfrwt beam="2">  1       21 0.68486941E-02 0.13079150E+03</pdfrwt>
<pdfrwt beam="1">  1        4 0.28888513E-01 0.13079150E+03</pdfrwt>
<totfact> 0.71993061E+04</totfact>
</mgrwt>
</event>
<event>
 6    4  0.6376098E-003  0.1276080E+03  0.7818608E-02  0.1231049E+00
         -4   -1    0    0    0  501 -0.00000000000E+00  0.00000000000E+00  0.22027240227E+02  0.22063821337E+02  0.12700000000E+01 0.  1.
         21   -1    0    0  501  502  0.00000000000E+00 -0.00000000000E+00 -0.27219857194E+03  0.27219857194E+03  0.00000000000E+00 0.  1.
         25    2    1    2    0    0 -0.21511836911E+02  0.14014638694E+02 -0.19050694909E+03  0.22929608910E+03  0.12499851839E+03 0.  0.
    9000005    1    3    3    0    0 -0.55096437478E+02  0.52546806648E+02 -0.10566717990E+03  0.13024337688E+03  0.10000000000E+01 0.  0.
    9000005    1    3    3    0    0  0.33584600567E+02 -0.38532167955E+02 -0.84839769188E+02  0.99052712221E+02  0.10000000000E+01 0.  0.
         -4    1    1    2    0  502  0.21511836911E+02 -0.14014638694E+02 -0.59664382627E+02  0.64966304184E+02  0.12700000000E+01 0. -1.
<mgrwt>
<rscale>  1 0.12760799E+03</rscale>
<asrwt>0</asrwt>
<pdfrwt beam="2">  1       21 0.41876703E-01 0.12760799E+03</pdfrwt>
<pdfrwt beam="1">  1       -4 0.33918481E-02 0.12760799E+03</pdfrwt>
<totfact> 0.98139666E+04</totfact>
</mgrwt>
</event>
<event>
 6    4  0.6376098E-003  0.1273638E+03  0.7818608E-02  0.1231421E+00
         21   -1    0    0  501  502  0.00000000000E+00  0.00000000000E+00  0.16974036760E+03  0.16974036760E+03  0.00000000000E+00 0.  1.
         -4   -1    0    0    0  501 -0.00000000000E+00 -0.00000000000E+00 -0.45553035277E+02  0.45570735378E+02  0.12700000000E+01 0.  1.
         25    2    1    2    0    0  0.20390989630E+02 -0.13366593392E+02  0.49347395843E+02  0.13658952227E+03  0.12500829509E+03 0.  0.
    9000005    1    3    3    0    0  0.10750565861E+02 -0.57201361620E+02 -0.13112189278E+02  0.59669924964E+02  0.10000000000E+01 0.  0.
    9000005    1    3    3    0    0  0.96404237685E+01  0.43834768228E+02  0.62459585122E+02  0.76919597305E+02  0.10000000000E+01 0.  0.
         -4    1    1    2    0  502 -0.20390989630E+02  0.13366593392E+02  0.74839936481E+02  0.78721580710E+02  0.12700000000E+01 0. -1.
<mgrwt>
<rscale>  1 0.12736378E+03</rscale>
<asrwt>0</asrwt>
<pdfrwt beam="1">  1       21 0.26113902E-01 0.12736378E+03</pdfrwt>
<pdfrwt beam="2">  1       -4 0.70098863E-02 0.12736378E+03</pdfrwt>
<totfact> 0.76954785E+04</totfact>
</mgrwt>
</event>
<event>
 6    4  0.6376098E-003  0.1274566E+03  0.7818608E-02  0.1231279E+00
         21   -1    0    0  501  502  0.00000000000E+00  0.00000000000E+00  0.32630729217E+02  0.32630729217E+02  0.00000000000E+00 0. -1.
         -4   -1    0    0    0  501 -0.00000000000E+00 -0.00000000000E+00 -0.24840239891E+03  0.24840564543E+03  0.12700000000E+01 0. -1.
         25    2    1    2    0    0 -0.22128829229E+02  0.11418224406E+02 -0.22140839242E+03  0.25547377551E+03  0.12500045122E+03 0.  0.
    9000005    1    3    3    0    0  0.40005389842E+02  0.32023671574E+02 -0.48409801533E+02  0.70501458438E+02  0.10000000000E+01 0.  0.
    9000005    1    3    3    0    0 -0.62134219071E+02 -0.20605447168E+02 -0.17299859089E+03  0.18497231707E+03  0.10000000000E+01 0.  0.
         -4    1    1    2    0  502  0.22128829229E+02 -0.11418224406E+02  0.56367227336E+01  0.25562599140E+02  0.12700000000E+01 0.  1.
<mgrwt>
<rscale>  1 0.12745656E+03</rscale>
<asrwt>0</asrwt>
<pdfrwt beam="1">  1       21 0.50201121E-02 0.12745656E+03</pdfrwt>
<pdfrwt beam="2">  1       -4 0.38217905E-01 0.12745656E+03</pdfrwt>
<totfact> 0.71041375E+04</totfact>
</mgrwt>
</event>
<event>
 6    4  0.6376098E-003  0.1275112E+03  0.7818608E-02  0.1231196E+00
         21   -1    0    0  501  502  0.00000000000E+00  0.00000000000E+00  0.88068925531E+02  0.88068925531E+02  0.00000000000E+00 0.  1.
          4   -1    0    0  502    0 -0.00000000000E+00 -0.00000000000E+00 -0.77213957050E+02  0.77224400699E+02  0.12700000000E+01 0. -1.
         25    2    1    2    0    0  0.58502757818E+01  0.24512810070E+02 -0.15920793636E+02  0.12850123576E+03  0.12499596929E+03 0.  0.
    9000005    1    3    3    0    0 -0.51124346477E+02  0.42636762399E+02 -0.16929861638E+02  0.68696524844E+02  0.10000000000E+01 0.  0.
    9000005    1    3    3    0    0  0.56974622258E+02 -0.18123952329E+02  0.10090680019E+01  0.59804710916E+02  0.10000000000E+01 0.  0.
          4    1    1    2  501    0 -0.58502757818E+01 -0.24512810070E+02  0.26775762117E+02  0.36792090471E+02  0.12700000000E+01 0.  1.
<mgrwt>
<rscale>  1 0.12751116E+03</rscale>
<asrwt>0</asrwt>
<pdfrwt beam="1">  1       21 0.13549065E-01 0.12751116E+03</pdfrwt>
<pdfrwt beam="2">  1        4 0.11880578E-01 0.12751116E+03</pdfrwt>
<totfact> 0.10652683E+05</totfact>
</mgrwt>
</event>
<event>
 6    4  0.6376098E-003  0.1334295E+03  0.7818608E-02  0.1222454E+00
         21   -1    0    0  501  502  0.00000000000E+00  0.00000000000E+00  0.28643156658E+02  0.28643156658E+02  0.00000000000E+00 0.  1.
         -4   -1    0    0    0  501 -0.00000000000E+00 -0.00000000000E+00 -0.39039905286E+03  0.39040111856E+03  0.12700000000E+01 0. -1.
         25    2    1    2    0    0 -0.43462020515E+02  0.17019370595E+02 -0.34420495495E+03  0.36916186708E+03  0.12499930756E+03 0.  0.
    9000005    1    3    3    0    0  0.38683149844E+02 -0.19514090612E+02 -0.10305919795E+03  0.11180064444E+03  0.10000000000E+01 0.  0.
    9000005    1    3    3    0    0 -0.82145170359E+02  0.36533461207E+02 -0.24114575701E+03  0.25736122265E+03  0.10000000000E+01 0.  0.
         -4    1    1    2    0  502  0.43462020515E+02 -0.17019370595E+02 -0.17550941245E+02  0.49882408134E+02  0.12700000000E+01 0.  1.
<mgrwt>
<rscale>  1 0.13342951E+03</rscale>
<asrwt>0</asrwt>
<pdfrwt beam="1">  1       21 0.44066400E-02 0.13342951E+03</pdfrwt>
<pdfrwt beam="2">  1       -4 0.60063711E-01 0.13342951E+03</pdfrwt>
<totfact> 0.35626254E+04</totfact>
</mgrwt>
</event>
<event>
 6    4  0.6376098E-003  0.1333344E+03  0.7818608E-02  0.1222590E+00
         21   -1    0    0  501  502  0.00000000000E+00  0.00000000000E+00  0.10823692454E+03  0.10823692454E+03  0.00000000000E+00 0.  1.
          4   -1    0    0  502    0 -0.00000000000E+00 -0.00000000000E+00 -0.48841989959E+03  0.48842155073E+03  0.12700000000E+01 0. -1.
         25    2    1    2    0    0  0.34214007825E+01 -0.46274848974E+02 -0.47377932095E+03  0.49218380610E+03  0.12499994561E+03 0.  0.
    9000005    1    3    3    0    0 -0.44421433134E+02  0.22245161179E+02 -0.16909792795E+03  0.17624761035E+03  0.10000000000E+01 0.  0.
    9000005    1    3    3    0    0  0.47842833916E+02 -0.68520010153E+02 -0.30468139300E+03  0.31593619576E+03  0.10000000000E+01 0.  0.
          4    1    1    2  501    0 -0.34214007825E+01  0.46274848974E+02  0.93596345898E+02  0.10447466916E+03  0.12700000000E+01 0.  1.
<mgrwt>
<rscale>  1 0.13333437E+03</rscale>
<asrwt>0</asrwt>
<pdfrwt beam="1">  1       21 0.16651834E-01 0.13333437E+03</pdfrwt>
<pdfrwt beam="2">  1        4 0.75142225E-01 0.13333437E+03</pdfrwt>
<totfact> 0.21904993E+03</totfact>
</mgrwt>
</event>
<event>
 6    4  0.6376098E-003  0.1312843E+03  0.7818608E-02  0.1225562E+00
         21   -1    0    0  501  502  0.00000000000E+00  0.00000000000E+00  0.11345671612E+03  0.11345671612E+03  0.00000000000E+00 0.  1.
          4   -1    0    0  502    0 -0.00000000000E+00 -0.00000000000E+00 -0.65899131542E+02  0.65911368049E+02  0.12700000000E+01 0.  1.
         25    2    1    2    0    0 -0.39304832258E+02 -0.81001095113E+01  0.26137707612E+02  0.13386087988E+03  0.12500029516E+03 0.  0.
    9000005    1    3    3    0    0 -0.19046534711E+01 -0.44049245755E+02  0.58083697497E+02  0.72929278560E+02  0.10000000000E+01 0.  0.
    9000005    1    3    3    0    0 -0.37400178787E+02  0.35949136244E+02 -0.31945989885E+02  0.60931601322E+02  0.10000000000E+01 0.  0.
          4    1    1    2  501    0  0.39304832258E+02  0.81001095113E+01  0.21419876971E+02  0.45507204291E+02  0.12700000000E+01 0. -1.
<mgrwt>
<rscale>  1 0.13128425E+03</rscale>
<asrwt>0</asrwt>
<pdfrwt beam="1">  1       21 0.17454879E-01 0.13128425E+03</pdfrwt>
<pdfrwt beam="2">  1        4 0.10139816E-01 0.13128425E+03</pdfrwt>
<totfact> 0.88544438E+04</totfact>
</mgrwt>
</event>
<event>
 6    4  0.6376098E-003  0.1276458E+03  0.7818608E-02  0.1230991E+00
         21   -1    0    0  501  502  0.00000000000E+00  0.00000000000E+00  0.36343647118E+02  0.36343647118E+02  0.00000000000E+00 0. -1.
          4   -1    0    0  502    0 -0.00000000000E+00 -0.00000000000E+00 -0.21339721424E+03  0.21340099331E+03  0.12700000000E+01 0. -1.
         25    2    1    2    0    0 -0.23232972255E+02  0.11405069222E+02 -0.18303711482E+03  0.22315023600E+03  0.12499438316E+03 0.  0.
    9000005    1    3    3    0    0 -0.30387039273E+02 -0.19435748371E+02 -0.18769665392E+03  0.19113386504E+03  0.10000000000E+01 0.  0.
    9000005    1    3    3    0    0  0.71540670185E+01  0.30840817593E+02  0.46595391083E+01  0.32016370960E+02  0.10000000000E+01 0.  0.
          4    1    1    2  501    0  0.23232972255E+02 -0.11405069222E+02  0.59835476961E+01  0.26594404426E+02  0.12700000000E+01 0.  1.
<mgrwt>
<rscale>  1 0.12764577E+03</rscale>
<asrwt>0</asrwt>
<pdfrwt beam="1">  1       21 0.55913302E-02 0.12764577E+03</pdfrwt>
<pdfrwt beam="2">  1        4 0.32832339E-01 0.12764577E+03</pdfrwt>
<totfact> 0.79461843E+04</totfact>
</mgrwt>
</event>
<event>
 6    4  0.6376098E-003  0.1278617E+03  0.7818608E-02  0.1230663E+00
          4   -1    0    0  502    0 -0.00000000000E+00  0.00000000000E+00  0.42623441074E+02  0.42642357216E+02  0.12700000000E+01 0. -1.
         21   -1    0    0  501  502  0.00000000000E+00 -0.00000000000E+00 -0.19471948107E+03  0.19471948107E+03  0.00000000000E+00 0.  1.
         25    2    1    2    0    0  0.91714814344E+01  0.25297727311E+02 -0.59688168016E+02  0.14110739017E+03  0.12499810830E+03 0.  0.
    9000005    1    3    3    0    0  0.20283755958E+02 -0.37134348852E+02  0.13346595727E+02  0.44379299655E+02  0.10000000000E+01 0.  0.
    9000005    1    3    3    0    0 -0.11112274524E+02  0.62432076163E+02 -0.73034763743E+02  0.96728090512E+02  0.10000000000E+01 0.  0.
          4    1    1    2  501    0 -0.91714814344E+01 -0.25297727311E+02 -0.92407871978E+02  0.96254448117E+02  0.12700000000E+01 0.  1.
<mgrwt>
<rscale>  1 0.12786171E+03</rscale>
<asrwt>0</asrwt>
<pdfrwt beam="2">  1       21 0.29956843E-01 0.12786171E+03</pdfrwt>
<pdfrwt beam="1">  1        4 0.65592261E-02 0.12786171E+03</pdfrwt>
<totfact> 0.66009109E+04</totfact>
</mgrwt>
</event>
<event>
 6    4  0.6376098E-003  0.1294798E+03  0.7818608E-02  0.1228230E+00
         21   -1    0    0  501  502  0.00000000000E+00  0.00000000000E+00  0.70263166347E+02  0.70263166347E+02  0.00000000000E+00 0. -1.
         -4   -1    0    0    0  501 -0.00000000000E+00 -0.00000000000E+00 -0.95903482321E+02  0.95911890928E+02  0.12700000000E+01 0. -1.
         25    2    1    2    0    0  0.30953304476E+02  0.13483632923E+02 -0.27382978558E+02  0.13234363419E+03  0.12500037833E+03 0.  0.
    9000005    1    3    3    0    0 -0.17574526575E+02  0.59470091861E+02 -0.19518185371E+02  0.65019346125E+02  0.10000000000E+01 0.  0.
    9000005    1    3    3    0    0  0.48527831051E+02 -0.45986458938E+02 -0.78647931870E+01  0.67324288069E+02  0.10000000000E+01 0.  0.
         -4    1    1    2    0  502 -0.30953304476E+02 -0.13483632923E+02  0.17426625838E+01  0.33831423080E+02  0.12700000000E+01 0.  1.
<mgrwt>
<rscale>  1 0.12947977E+03</rscale>
<asrwt>0</asrwt>
<pdfrwt beam="1">  1       21 0.10809718E-01 0.12947977E+03</pdfrwt>
<pdfrwt beam="2">  1       -4 0.14755912E-01 0.12947977E+03</pdfrwt>
<totfact> 0.10965998E+05</totfact>
</mgrwt>
</event>
<event>
 6    4  0.6376098E-003  0.1272542E+03  0.7818608E-02  0.1231588E+00
          4   -1    0    0  502    0 -0.00000000000E+00  0.00000000000E+00  0.28374221381E+03  0.28374505598E+03  0.12700000000E+01 0. -1.
         21   -1    0    0  501  502  0.00000000000E+00 -0.00000000000E+00 -0.20124886117E+02  0.20124886117E+02  0.00000000000E+00 0. -1.
         25    2    1    2    0    0 -0.22930837988E+02 -0.65180534348E+01  0.22060766702E+03  0.25467896567E+03  0.12500129781E+03 0.  0.
    9000005    1    3    3    0    0 -0.61309187301E+02 -0.18873771719E+01  0.20322453492E+03  0.21228186506E+03  0.10000000000E+01 0.  0.
    9000005    1    3    3    0    0  0.38378349313E+02 -0.46306762629E+01  0.17383132104E+02  0.42397100613E+02  0.10000000000E+01 0.  0.
          4    1    1    2  501    0  0.22930837988E+02  0.65180534348E+01  0.43009660665E+02  0.49190976428E+02  0.12700000000E+01 0.  1.
<mgrwt>
<rscale>  1 0.12725421E+03</rscale>
<asrwt>0</asrwt>
<pdfrwt beam="2">  1       21 0.30961366E-02 0.12725421E+03</pdfrwt>
<pdfrwt beam="1">  1        4 0.43655946E-01 0.12725421E+03</pdfrwt>
<totfact> 0.12187596E+05</totfact>
</mgrwt>
</event>
<event>
 6    4  0.6376098E-003  0.1646153E+03  0.7818608E-02  0.1183582E+00
         -4   -1    0    0    0  501 -0.00000000000E+00  0.00000000000E+00  0.73522927762E+03  0.73523037449E+03  0.12700000000E+01 0.  1.
         21   -1    0    0  501  502  0.00000000000E+00 -0.00000000000E+00 -0.25107253166E+02  0.25107253166E+02  0.00000000000E+00 0. -1.
         25    2    1    2    0    0  0.10691937113E+03 -0.64219500543E+01  0.43076495337E+03  0.46114708731E+03  0.12500079086E+03 0.  0.
    9000005    1    3    3    0    0  0.93572935523E+02  0.50221918808E+02  0.26701018155E+03  0.28735617697E+03  0.10000000000E+01 0.  0.
    9000005    1    3    3    0    0  0.13346435612E+02 -0.56643868863E+02  0.16375477182E+03  0.17379091034E+03  0.10000000000E+01 0.  0.
         -4    1    1    2    0  502 -0.10691937113E+03  0.64219500543E+01  0.27935707109E+03  0.29919054035E+03  0.12700000000E+01 0. -1.
<mgrwt>
<rscale>  1 0.16461528E+03</rscale>
<asrwt>0</asrwt>
<pdfrwt beam="2">  1       21 0.38626549E-02 0.16461528E+03</pdfrwt>
<pdfrwt beam="1">  1       -4 0.11311473E+00 0.16461528E+03</pdfrwt>
<totfact> 0.11035324E+04</totfact>
</mgrwt>
</event>
<event>
 6    4  0.6376098E-003  0.1278537E+03  0.7818608E-02  0.1230676E+00
          4   -1    0    0  502    0 -0.00000000000E+00  0.00000000000E+00  0.70156191710E+02  0.70167685834E+02  0.12700000000E+01 0. -1.
         21   -1    0    0  501  502  0.00000000000E+00 -0.00000000000E+00 -0.85356961210E+02  0.85356961210E+02  0.00000000000E+00 0. -1.
         25    2    1    2    0    0  0.22924881339E+02  0.14032935981E+02 -0.13441811795E+02  0.12855836608E+03  0.12499639078E+03 0.  0.
    9000005    1    3    3    0    0 -0.34687920766E+02 -0.16243719609E+02  0.31381186520E+02  0.49526650817E+02  0.10000000000E+01 0.  0.
    9000005    1    3    3    0    0  0.57612802105E+02  0.30276655590E+02 -0.44822998315E+02  0.79031715266E+02  0.10000000000E+01 0.  0.
          4    1    1    2  501    0 -0.22924881339E+02 -0.14032935981E+02 -0.17589577049E+01  0.26966280961E+02  0.12700000000E+01 0.  1.
<mgrwt>
<rscale>  1 0.12785371E+03</rscale>
<asrwt>0</asrwt>
<pdfrwt beam="2">  1       21 0.13131840E-01 0.12785371E+03</pdfrwt>
<pdfrwt beam="1">  1        4 0.10794871E-01 0.12785371E+03</pdfrwt>
<totfact> 0.13262766E+05</totfact>
</mgrwt>
</event>
<event>
 6    4  0.6376098E-003  0.1274305E+03  0.7818608E-02  0.1231319E+00
         -4   -1    0    0    0  501 -0.00000000000E+00  0.00000000000E+00  0.53901117450E+01  0.55377075242E+01  0.12700000000E+01 0. -1.
         21   -1    0    0  501  502  0.00000000000E+00 -0.00000000000E+00 -0.10658026253E+04  0.10658026253E+04  0.00000000000E+00 0. -1.
         25    2    1    2    0    0  0.24278658925E+02 -0.48626484537E+01 -0.85696337822E+03  0.86638603987E+03  0.12500175940E+03 0.  0.
    9000005    1    3    3    0    0  0.92769844205E+01 -0.15324246504E+01 -0.17302562309E+00  0.94573095071E+01  0.10000000000E+01 0.  0.
    9000005    1    3    3    0    0  0.15001674505E+02 -0.33302238033E+01 -0.85679035259E+03  0.85692873036E+03  0.10000000000E+01 0.  0.
         -4    1    1    2    0  502 -0.24278658925E+02  0.48626484537E+01 -0.20344913529E+03  0.20495429291E+03  0.12700000000E+01 0.  1.
<mgrwt>
<rscale>  1 0.12743052E+03</rscale>
<asrwt>0</asrwt>
<pdfrwt beam="2">  1       21 0.16396969E+00 0.12743052E+03</pdfrwt>
<pdfrwt beam="1">  1       -4 0.84065942E-03 0.12743052E+03</pdfrwt>
<totfact> 0.37116024E+04</totfact>
</mgrwt>
</event>
<event>
 6    4  0.6376098E-003  0.1295724E+03  0.7818608E-02  0.1228092E+00
          4   -1    0    0  502    0 -0.00000000000E+00  0.00000000000E+00  0.28696650964E+02  0.28724739799E+02  0.12700000000E+01 0. -1.
         21   -1    0    0  501  502  0.00000000000E+00 -0.00000000000E+00 -0.27453458007E+03  0.27453458007E+03  0.00000000000E+00 0.  1.
         25    2    1    2    0    0 -0.29451689461E+02  0.17268736283E+02 -0.13434068801E+03  0.18664517435E+03  0.12499355738E+03 0.  0.
    9000005    1    3    3    0    0  0.91096029685E+01  0.58759160866E+02 -0.10987427584E+03  0.12493590494E+03  0.10000000000E+01 0.  0.
    9000005    1    3    3    0    0 -0.38561292429E+02 -0.41490424583E+02 -0.24466412172E+02  0.61709269404E+02  0.10000000000E+01 0.  0.
          4    1    1    2  501    0  0.29451689461E+02 -0.17268736283E+02 -0.11149724109E+03  0.11661414552E+03  0.12700000000E+01 0.  1.
<mgrwt>
<rscale>  1 0.12957238E+03</rscale>
<asrwt>0</asrwt>
<pdfrwt beam="2">  1       21 0.42236091E-01 0.12957238E+03</pdfrwt>
<pdfrwt beam="1">  1        4 0.44172558E-02 0.12957238E+03</pdfrwt>
<totfact> 0.63604266E+04</totfact>
</mgrwt>
</event>
<event>
 6    4  0.6376098E-003  0.1267841E+03  0.7818608E-02  0.1232307E+00
         21   -1    0    0  501  502  0.00000000000E+00  0.00000000000E+00  0.33485609799E+02  0.33485609799E+02  0.00000000000E+00 0.  1.
          4   -1    0    0  502    0 -0.00000000000E+00 -0.00000000000E+00 -0.16511355347E+03  0.16511843761E+03  0.12700000000E+01 0.  1.
         25    2    1    2    0    0  0.15555017882E+02  0.14383883660E+02 -0.11913986424E+03  0.17397845669E+03  0.12500136580E+03 0.  0.
    9000005    1    3    3    0    0  0.55766456387E+02  0.26353278534E+02 -0.11662674365E+03  0.13193631146E+03  0.10000000000E+01 0.  0.
    9000005    1    3    3    0    0 -0.40211438505E+02 -0.11969394873E+02 -0.25131205874E+01  0.42042145228E+02  0.10000000000E+01 0.  0.
          4    1    1    2  501    0 -0.15555017882E+02 -0.14383883660E+02 -0.12488079434E+02  0.24625590722E+02  0.12700000000E+01 0. -1.
<mgrwt>
<rscale>  1 0.12678405E+03</rscale>
<asrwt>0</asrwt>
<pdfrwt beam="1">  1       21 0.51516324E-02 0.12678405E+03</pdfrwt>
<pdfrwt beam="2">  1        4 0.25404313E-01 0.12678405E+03</pdfrwt>
<totfact> 0.14752700E+05</totfact>
</mgrwt>
</event>
<event>
 6    4  0.6376098E-003  0.1285054E+03  0.7818608E-02  0.1229691E+00
         21   -1    0    0  501  502  0.00000000000E+00  0.00000000000E+00  0.13150509664E+02  0.13150509664E+02  0.00000000000E+00 0. -1.
         -4   -1    0    0    0  501 -0.00000000000E+00 -0.00000000000E+00 -0.47669197505E+03  0.47669366681E+03  0.12700000000E+01 0. -1.
         25    2    1    2    0    0 -0.10366821736E+02  0.27944737162E+02 -0.37329067123E+03  0.39479051756E+03  0.12500099278E+03 0.  0.
    9000005    1    3    3    0    0 -0.35908515971E+02 -0.20803471661E+02 -0.30141158757E+03  0.30425671903E+03  0.10000000000E+01 0.  0.
    9000005    1    3    3    0    0  0.25541694235E+02  0.48748208824E+02 -0.71879083659E+02  0.90533798526E+02  0.10000000000E+01 0.  0.
         -4    1    1    2    0  502  0.10366821736E+02 -0.27944737162E+02 -0.90250794156E+02  0.95053658919E+02  0.12700000000E+01 0.  1.
<mgrwt>
<rscale>  1 0.12850536E+03</rscale>
<asrwt>0</asrwt>
<pdfrwt beam="1">  1       21 0.20231559E-02 0.12850536E+03</pdfrwt>
<pdfrwt beam="2">  1       -4 0.73342056E-01 0.12850536E+03</pdfrwt>
<totfact> 0.82994447E+04</totfact>
</mgrwt>
</event>
<event>
 6    4  0.6376098E-003  0.1343659E+03  0.7818608E-02  0.1221118E+00
          4   -1    0    0  502    0 -0.00000000000E+00  0.00000000000E+00  0.25548510574E+03  0.25548826227E+03  0.12700000000E+01 0.  1.
         21   -1    0    0  501  502  0.00000000000E+00 -0.00000000000E+00 -0.69485038366E+02  0.69485038366E+02  0.00000000000E+00 0. -1.
         25    2    1    2    0    0 -0.23804170730E+02  0.43049713581E+02  0.22507880106E+03  0.26213480359E+03  0.12503708324E+03 0.  0.
    9000005    1    3    3    0    0 -0.64808223231E+02  0.60259736087E+02  0.16676197397E+03  0.18879061829E+03  0.10000000000E+01 0.  0.
    9000005    1    3    3    0    0  0.41004052501E+02 -0.17210022506E+02  0.58316827091E+02  0.73344185305E+02  0.10000000000E+01 0.  0.
          4    1    1    2  501    0  0.23804170730E+02 -0.43049713581E+02 -0.39078733685E+02  0.62838497038E+02  0.12700000000E+01 0. -1.
<mgrwt>
<rscale>  1 0.13436588E+03</rscale>
<asrwt>0</asrwt>
<pdfrwt beam="2">  1       21 0.10690006E-01 0.13436588E+03</pdfrwt>
<pdfrwt beam="1">  1        4 0.39306536E-01 0.13436588E+03</pdfrwt>
<totfact> 0.18485529E+04</totfact>
</mgrwt>
</event>
<event>
 6    4  0.6376098E-003  0.1289262E+03  0.7818608E-02  0.1229058E+00
         21   -1    0    0  501  502  0.00000000000E+00  0.00000000000E+00  0.86834058563E+01  0.86834058563E+01  0.00000000000E+00 0. -1.
         -4   -1    0    0    0  501 -0.00000000000E+00 -0.00000000000E+00 -0.75095556542E+03  0.75095663932E+03  0.12700000000E+01 0. -1.
         25    2    1    2    0    0 -0.47118566084E+01  0.31209572187E+02 -0.62700422594E+03  0.64012206154E+03  0.12500286133E+03 0.  0.
    9000005    1    3    3    0    0  0.64322358903E+01 -0.82221434475E+01  0.12239340064E+01  0.10558187149E+02  0.10000000000E+01 0.  0.
    9000005    1    3    3    0    0 -0.11144092499E+02  0.39431715634E+02 -0.62822815994E+03  0.62956387439E+03  0.10000000000E+01 0.  0.
         -4    1    1    2    0  502  0.47118566084E+01 -0.31209572187E+02 -0.11526793363E+03  0.11951798363E+03  0.12700000000E+01 0.  1.
<mgrwt>
<rscale>  1 0.12892616E+03</rscale>
<asrwt>0</asrwt>
<pdfrwt beam="1">  1       21 0.13359085E-02 0.12892616E+03</pdfrwt>
<pdfrwt beam="2">  1       -4 0.11553886E+00 0.12892616E+03</pdfrwt>
<totfact> 0.57512138E+04</totfact>
</mgrwt>
</event>
<event>
 6    4  0.6376098E-003  0.1273071E+03  0.7818608E-02  0.1231507E+00
         21   -1    0    0  501  502  0.00000000000E+00  0.00000000000E+00  0.20080235474E+03  0.20080235474E+03  0.00000000000E+00 0.  1.
         -4   -1    0    0    0  501 -0.00000000000E+00 -0.00000000000E+00 -0.28659903776E+02  0.28688028591E+02  0.12700000000E+01 0.  1.
         25    2    1    2    0    0  0.21717007079E+02  0.10495473630E+02  0.13912282572E+03  0.18857960340E+03  0.12500129127E+03 0.  0.
    9000005    1    3    3    0    0 -0.35807133041E+02  0.10328316459E+02  0.12344089659E+03  0.12894758567E+03  0.10000000000E+01 0.  0.
    9000005    1    3    3    0    0  0.57524140120E+02  0.16715717149E+00  0.15681929127E+02  0.59632017736E+02  0.10000000000E+01 0.  0.
         -4    1    1    2    0  502 -0.21717007079E+02 -0.10495473630E+02  0.33019625248E+02  0.40910779933E+02  0.12700000000E+01 0. -1.
<mgrwt>
<rscale>  1 0.12730713E+03</rscale>
<asrwt>0</asrwt>
<pdfrwt beam="1">  1       21 0.30892669E-01 0.12730713E+03</pdfrwt>
<pdfrwt beam="2">  1       -4 0.44116885E-02 0.12730713E+03</pdfrwt>
<totfact> 0.11785513E+05</totfact>
</mgrwt>
</event>
<event>
 6    4  0.6376098E-003  0.1270299E+03  0.7818608E-02  0.1231931E+00
         21   -1    0    0  501  502  0.00000000000E+00  0.00000000000E+00  0.79012834273E+01  0.79012834273E+01  0.00000000000E+00 0. -1.
         -4   -1    0    0    0  501 -0.00000000000E+00 -0.00000000000E+00 -0.12503530471E+04  0.12503536920E+04  0.12700000000E+01 0.  1.
         25    2    1    2    0    0 -0.94779222760E+01  0.20178017484E+02 -0.12199802195E+04  0.12265758563E+04  0.12505843299E+03 0.  0.
    9000005    1    3    3    0    0  0.24984112221E+02  0.53603944286E+02 -0.98307806256E+03  0.98485586042E+03  0.10000000000E+01 0.  0.
    9000005    1    3    3    0    0 -0.34462034497E+02 -0.33425926801E+02 -0.23690215698E+03  0.24171999583E+03  0.10000000000E+01 0.  0.
         -4    1    1    2    0  502  0.94779222760E+01 -0.20178017484E+02 -0.22471544085E+02  0.31679119209E+02  0.12700000000E+01 0. -1.
<mgrwt>
<rscale>  1 0.12702990E+03</rscale>
<asrwt>0</asrwt>
<pdfrwt beam="1">  1       21 0.12155822E-02 0.12702990E+03</pdfrwt>
<pdfrwt beam="2">  1       -4 0.19236988E+00 0.12702990E+03</pdfrwt>
<totfact> 0.18126313E+04</totfact>
</mgrwt>
</event>
<event>
 6    4  0.6376098E-003  0.1308365E+03  0.7818608E-02  0.1226220E+00
         -4   -1    0    0    0  501 -0.00000000000E+00  0.00000000000E+00  0.55313905297E+03  0.55314051092E+03  0.12700000000E+01 0.  1.
         21   -1    0    0  501  502  0.00000000000E+00 -0.00000000000E+00 -0.13398201697E+02  0.13398201697E+02  0.00000000000E+00 0.  1.
         25    2    1    2    0    0  0.35590808803E+02  0.15041594091E+02  0.45417300350E+03  0.47264289431E+03  0.12500093281E+03 0.  0.
    9000005    1    3    3    0    0  0.59415514669E+02  0.56406376088E+02  0.25560779684E+03  0.26841801067E+03  0.10000000000E+01 0.  0.
    9000005    1    3    3    0    0 -0.23824705866E+02 -0.41364781997E+02  0.19856520667E+03  0.20422488364E+03  0.10000000000E+01 0.  0.
         -4    1    1    2    0  502 -0.35590808803E+02 -0.15041594091E+02  0.85567847765E+02  0.93895818305E+02  0.12700000000E+01 0. -1.
<mgrwt>
<rscale>  1 0.13083650E+03</rscale>
<asrwt>0</asrwt>
<pdfrwt beam="2">  1       21 0.20612622E-02 0.13083650E+03</pdfrwt>
<pdfrwt beam="1">  1       -4 0.85103040E-01 0.13083650E+03</pdfrwt>
<totfact> 0.58176709E+04</totfact>
</mgrwt>
</event>
<event>
 6    4  0.6376098E-003  0.1293794E+03  0.7818608E-02  0.1228380E+00
          4   -1    0    0  502    0 -0.00000000000E+00  0.00000000000E+00  0.20806577815E+03  0.20806965405E+03  0.12700000000E+01 0.  1.
         21   -1    0    0  501  502  0.00000000000E+00 -0.00000000000E+00 -0.69002706351E+02  0.69002706351E+02  0.00000000000E+00 0. -1.
         25    2    1    2    0    0  0.83261121868E+01  0.32319744582E+02  0.18160978651E+03  0.22298238105E+03  0.12500055066E+03 0.  0.
    9000005    1    3    3    0    0 -0.40821785220E+02  0.48991134883E+02  0.48543453214E+02  0.80149961295E+02  0.10000000000E+01 0.  0.
    9000005    1    3    3    0    0  0.49147897407E+02 -0.16671390301E+02  0.13306633330E+03  0.14283241975E+03  0.10000000000E+01 0.  0.
          4    1    1    2  501    0 -0.83261121868E+01 -0.32319744582E+02 -0.42546714714E+02  0.54089979358E+02  0.12700000000E+01 0. -1.
<mgrwt>
<rscale>  1 0.12937939E+03</rscale>
<asrwt>0</asrwt>
<pdfrwt beam="2">  1       21 0.10615801E-01 0.12937939E+03</pdfrwt>
<pdfrwt beam="1">  1        4 0.32011317E-01 0.12937939E+03</pdfrwt>
<totfact> 0.27714384E+04</totfact>
</mgrwt>
</event>
<event>
 6    4  0.6376098E-003  0.1407132E+03  0.7818608E-02  0.1212372E+00
         21   -1    0    0  501  502  0.00000000000E+00  0.00000000000E+00  0.75916407167E+03  0.75916407167E+03  0.00000000000E+00 0. -1.
          4   -1    0    0  502    0 -0.00000000000E+00 -0.00000000000E+00 -0.30046953140E+02  0.30073780823E+02  0.12700000000E+01 0.  1.
         25    2    1    2    0    0  0.13373186640E+02 -0.63219649652E+02  0.14681137060E+03  0.20335632591E+03  0.12499860210E+03 0.  0.
    9000005    1    3    3    0    0  0.38705215358E+01 -0.10131341366E+03  0.10343871922E+03  0.14484459727E+03  0.10000000000E+01 0.  0.
    9000005    1    3    3    0    0  0.95026651038E+01  0.38093764008E+02  0.43372651386E+02  0.58511728642E+02  0.10000000000E+01 0.  0.
          4    1    1    2  501    0 -0.13373186640E+02  0.63219649652E+02  0.58230574793E+03  0.58588152659E+03  0.12700000000E+01 0. -1.
<mgrwt>
<rscale>  1 0.14071324E+03</rscale>
<asrwt>0</asrwt>
<pdfrwt beam="1">  1       21 0.11679446E+00 0.14071324E+03</pdfrwt>
<pdfrwt beam="2">  1        4 0.46247541E-02 0.14071324E+03</pdfrwt>
<totfact> 0.63704141E+03</totfact>
</mgrwt>
</event>
<event>
 6    4  0.6376098E-003  0.1289008E+03  0.7818608E-02  0.1229096E+00
         21   -1    0    0  501  502  0.00000000000E+00  0.00000000000E+00  0.33003127163E+03  0.33003127163E+03  0.00000000000E+00 0. -1.
          4   -1    0    0  502    0 -0.00000000000E+00 -0.00000000000E+00 -0.25328496173E+02  0.25360315818E+02  0.12700000000E+01 0.  1.
         25    2    1    2    0    0  0.10223022616E+02 -0.29771529464E+02  0.15119264566E+03  0.19868221630E+03  0.12499821123E+03 0.  0.
    9000005    1    3    3    0    0 -0.41795499730E+02  0.64426888168E+01  0.12155523866E+03  0.12870527604E+03  0.10000000000E+01 0.  0.
    9000005    1    3    3    0    0  0.52018522346E+02 -0.36214218281E+02  0.29637407008E+02  0.69976940252E+02  0.10000000000E+01 0.  0.
          4    1    1    2  501    0 -0.10223022616E+02  0.29771529464E+02  0.15351012979E+03  0.15670937115E+03  0.12700000000E+01 0. -1.
<mgrwt>
<rscale>  1 0.12890076E+03</rscale>
<asrwt>0</asrwt>
<pdfrwt beam="1">  1       21 0.50774039E-01 0.12890076E+03</pdfrwt>
<pdfrwt beam="2">  1        4 0.38993276E-02 0.12890076E+03</pdfrwt>
<totfact> 0.53231576E+04</totfact>
</mgrwt>
</event>
<event>
 6    4  0.6376098E-003  0.1638074E+03  0.7818608E-02  0.1184464E+00
         -4   -1    0    0    0  501 -0.00000000000E+00  0.00000000000E+00  0.27769228791E+03  0.27769519201E+03  0.12700000000E+01 0. -1.
         21   -1    0    0  501  502  0.00000000000E+00 -0.00000000000E+00 -0.85288024570E+02  0.85288024570E+02  0.00000000000E+00 0.  1.
         25    2    1    2    0    0  0.10008282329E+03 -0.34514489420E+02  0.19798113267E+03  0.25696182313E+03  0.12500011261E+03 0.  0.
    9000005    1    3    3    0    0  0.88299588669E+02  0.33592136446E+02  0.10797752627E+03  0.14347611359E+03  0.10000000000E+01 0.  0.
    9000005    1    3    3    0    0  0.11783234622E+02 -0.68106625866E+02  0.90003606399E+02  0.11348570954E+03  0.10000000000E+01 0.  0.
         -4    1    1    2    0  502 -0.10008282329E+03  0.34514489420E+02 -0.55768693315E+01  0.10602139345E+03  0.12700000000E+01 0.  1.
<mgrwt>
<rscale>  1 0.16380736E+03</rscale>
<asrwt>0</asrwt>
<pdfrwt beam="2">  1       21 0.13121235E-01 0.16380736E+03</pdfrwt>
<pdfrwt beam="1">  1       -4 0.42722841E-01 0.16380736E+03</pdfrwt>
<totfact> 0.11086894E+04</totfact>
</mgrwt>
</event>
<event>
 6    4  0.6376098E-003  0.1337046E+03  0.7818608E-02  0.1222060E+00
          4   -1    0    0  502    0 -0.00000000000E+00  0.00000000000E+00  0.23353607789E+03  0.23353953108E+03  0.12700000000E+01 0. -1.
         21   -1    0    0  501  502  0.00000000000E+00 -0.00000000000E+00 -0.46599373443E+02  0.46599373443E+02  0.00000000000E+00 0.  1.
         25    2    1    2    0    0  0.34242741544E+02 -0.32852545352E+02  0.19027122793E+03  0.23255122722E+03  0.12500031208E+03 0.  0.
    9000005    1    3    3    0    0 -0.45571569486E+02 -0.11864432415E+02  0.43240229362E+02  0.63939425531E+02  0.10000000000E+01 0.  0.
    9000005    1    3    3    0    0  0.79814311030E+02 -0.20988112936E+02  0.14703099857E+03  0.16861180169E+03  0.10000000000E+01 0.  0.
          4    1    1    2  501    0 -0.34242741544E+02  0.32852545352E+02 -0.33345234754E+01  0.47587677306E+02  0.12700000000E+01 0.  1.
<mgrwt>
<rscale>  1 0.13370465E+03</rscale>
<asrwt>0</asrwt>
<pdfrwt beam="2">  1       21 0.71691345E-02 0.13370465E+03</pdfrwt>
<pdfrwt beam="1">  1        4 0.35930223E-01 0.13370465E+03</pdfrwt>
<totfact> 0.44040293E+04</totfact>
</mgrwt>
</event>
<event>
 6    4  0.6376098E-003  0.1277434E+03  0.7818608E-02  0.1230843E+00
          4   -1    0    0  502    0 -0.00000000000E+00  0.00000000000E+00  0.38782797631E+02  0.38803586072E+02  0.12700000000E+01 0. -1.
         21   -1    0    0  501  502  0.00000000000E+00 -0.00000000000E+00 -0.18845241629E+03  0.18845241629E+03  0.00000000000E+00 0. -1.
         25    2    1    2    0    0  0.26328993390E+02 -0.99086998475E+00 -0.75158069717E+02  0.14821309286E+03  0.12499675090E+03 0.  0.
    9000005    1    3    3    0    0  0.24130898843E+02  0.24363276829E+02 -0.10413151896E+03  0.10963686779E+03  0.10000000000E+01 0.  0.
    9000005    1    3    3    0    0  0.21980945470E+01 -0.25354146813E+02  0.28973449243E+02  0.38576225078E+02  0.10000000000E+01 0.  0.
          4    1    1    2  501    0 -0.26328993390E+02  0.99086998475E+00 -0.74511548943E+02  0.79042909499E+02  0.12700000000E+01 0.  1.
<mgrwt>
<rscale>  1 0.12774344E+03</rscale>
<asrwt>0</asrwt>
<pdfrwt beam="2">  1       21 0.28992679E-01 0.12774344E+03</pdfrwt>
<pdfrwt beam="1">  1        4 0.59685126E-02 0.12774344E+03</pdfrwt>
<totfact> 0.81960302E+04</totfact>
</mgrwt>
</event>
<event>
 6    4  0.6376098E-003  0.1279780E+03  0.7818608E-02  0.1230487E+00
         21   -1    0    0  501  502  0.00000000000E+00  0.00000000000E+00  0.55333416997E+03  0.55333416997E+03  0.00000000000E+00 0.  1.
          4   -1    0    0  502    0 -0.00000000000E+00 -0.00000000000E+00 -0.14722877633E+02  0.14777551414E+02  0.12700000000E+01 0.  1.
         25    2    1    2    0    0 -0.15107949051E+01 -0.27552313401E+02  0.51819071439E+03  0.53376022391E+03  0.12496778655E+03 0.  0.
    9000005    1    3    3    0    0 -0.37571835654E+02 -0.56915830173E+02  0.41503796298E+03  0.42060499911E+03  0.10000000000E+01 0.  0.
    9000005    1    3    3    0    0  0.36061040749E+02  0.29363516772E+02  0.10315275140E+03  0.11315522480E+03  0.10000000000E+01 0.  0.
          4    1    1    2  501    0  0.15107949051E+01  0.27552313401E+02  0.20420577951E+02  0.34351497476E+02  0.12700000000E+01 0. -1.
<mgrwt>
<rscale>  1 0.12797797E+03</rscale>
<asrwt>0</asrwt>
<pdfrwt beam="1">  1       21 0.85128318E-01 0.12797797E+03</pdfrwt>
<pdfrwt beam="2">  1        4 0.22693763E-02 0.12797797E+03</pdfrwt>
<totfact> 0.40655297E+04</totfact>
</mgrwt>
</event>
<event>
 6    4  0.6376098E-003  0.1268966E+03  0.7818608E-02  0.1232135E+00
          4   -1    0    0  502    0 -0.00000000000E+00  0.00000000000E+00  0.50732070517E+02  0.50747964284E+02  0.12700000000E+01 0.  1.
         21   -1    0    0  501  502  0.00000000000E+00 -0.00000000000E+00 -0.11703178282E+03  0.11703178282E+03  0.00000000000E+00 0. -1.
         25    2    1    2    0    0  0.94653863784E+01 -0.19701747707E+02 -0.38937576698E+02  0.13273617755E+03  0.12500002220E+03 0.  0.
    9000005    1    3    3    0    0  0.43514923896E+01  0.49407781890E+02  0.62488205860E+01  0.50001121548E+02  0.10000000000E+01 0.  0.
    9000005    1    3    3    0    0  0.51138939888E+01 -0.69109529597E+02 -0.45186397284E+02  0.82735056006E+02  0.10000000000E+01 0.  0.
          4    1    1    2  501    0 -0.94653863784E+01  0.19701747707E+02 -0.27362135608E+02  0.35043569553E+02  0.12700000000E+01 0. -1.
<mgrwt>
<rscale>  1 0.12689664E+03</rscale>
<asrwt>0</asrwt>
<pdfrwt beam="2">  1       21 0.18004889E-01 0.12689664E+03</pdfrwt>
<pdfrwt beam="1">  1        4 0.78066867E-02 0.12689664E+03</pdfrwt>
<totfact> 0.12879750E+05</totfact>
</mgrwt>
</event>
<event>
 6    4  0.6376098E-003  0.1571886E+03  0.7818608E-02  0.1191908E+00
         21   -1    0    0  501  502  0.00000000000E+00  0.00000000000E+00  0.11761174815E+04  0.11761174815E+04  0.00000000000E+00 0. -1.
          4   -1    0    0  502    0 -0.00000000000E+00 -0.00000000000E+00 -0.50492866772E+02  0.50508835810E+02  0.12700000000E+01 0.  1.
         25    2    1    2    0    0 -0.95298827785E+02  0.98060485855E+00  0.79463964638E+02  0.17613283953E+03  0.12500170928E+03 0.  0.
    9000005    1    3    3    0    0 -0.38722216614E+01  0.41045130041E+02  0.62496020165E+02  0.74876226782E+02  0.10000000000E+01 0.  0.
    9000005    1    3    3    0    0 -0.91426606124E+02 -0.40064525182E+02  0.16967944472E+02  0.10125661275E+03  0.10000000000E+01 0.  0.
          4    1    1    2  501    0  0.95298827785E+02 -0.98060485855E+00  0.10461606501E+04  0.10504934777E+04  0.12700000000E+01 0. -1.
<mgrwt>
<rscale>  1 0.15718860E+03</rscale>
<asrwt>0</asrwt>
<pdfrwt beam="1">  1       21 0.18094113E+00 0.15718860E+03</pdfrwt>
<pdfrwt beam="2">  1        4 0.77694154E-02 0.15718860E+03</pdfrwt>
<totfact> 0.88049107E+02</totfact>
</mgrwt>
</event>
<event>
 6    4  0.6376098E-003  0.1276820E+03  0.7818608E-02  0.1230936E+00
          4   -1    0    0  502    0 -0.00000000000E+00  0.00000000000E+00  0.37928618085E+01  0.39998375840E+01  0.12700000000E+01 0.  1.
         21   -1    0    0  501  502  0.00000000000E+00 -0.00000000000E+00 -0.15869319124E+04  0.15869319124E+04  0.00000000000E+00 0.  1.
         25    2    1    2    0    0  0.19375334367E+02  0.17381311981E+02 -0.11636520699E+04  0.11706360762E+04  0.12500067750E+03 0.  0.
    9000005    1    3    3    0    0 -0.46151212631E+00  0.25371181772E+02 -0.44174879704E+02  0.50954193692E+02  0.10000000000E+01 0.  0.
    9000005    1    3    3    0    0  0.19836846494E+02 -0.79898697903E+01 -0.11194771902E+04  0.11196818825E+04  0.10000000000E+01 0.  0.
          4    1    1    2  501    0 -0.19375334367E+02 -0.17381311981E+02 -0.41948698067E+03  0.42029567383E+03  0.12700000000E+01 0. -1.
<mgrwt>
<rscale>  1 0.12768196E+03</rscale>
<asrwt>0</asrwt>
<pdfrwt beam="2">  1       21 0.24414318E+00 0.12768196E+03</pdfrwt>
<pdfrwt beam="1">  1        4 0.59947798E-03 0.12768196E+03</pdfrwt>
<totfact> 0.19258439E+04</totfact>
</mgrwt>
</event>
<event>
 6    4  0.6376098E-003  0.1548844E+03  0.7818608E-02  0.1194596E+00
         21   -1    0    0  501  502  0.00000000000E+00  0.00000000000E+00  0.53281126839E+03  0.53281126839E+03  0.00000000000E+00 0.  1.
         -4   -1    0    0    0  501 -0.00000000000E+00 -0.00000000000E+00 -0.16526446918E+03  0.16526934886E+03  0.12700000000E+01 0. -1.
         25    2    1    2    0    0  0.80912536068E+02 -0.42627569941E+02 -0.12380732777E+03  0.19828622031E+03  0.12500089017E+03 0.  0.
    9000005    1    3    3    0    0  0.34941214411E+01 -0.48024480011E+02  0.44574165064E+01  0.48367635118E+02  0.10000000000E+01 0.  0.
    9000005    1    3    3    0    0  0.77418414627E+02  0.53969100699E+01 -0.12826474427E+03  0.14991858519E+03  0.10000000000E+01 0.  0.
         -4    1    1    2    0  502 -0.80912536068E+02  0.42627569941E+02  0.49135412698E+03  0.49979439694E+03  0.12700000000E+01 0.  1.
<mgrwt>
<rscale>  1 0.15488438E+03</rscale>
<asrwt>0</asrwt>
<pdfrwt beam="1">  1       21 0.81970963E-01 0.15488438E+03</pdfrwt>
<pdfrwt beam="2">  1       -4 0.25425795E-01 0.15488438E+03</pdfrwt>
<totfact> 0.79486750E+02</totfact>
</mgrwt>
</event>
<event>
 6    4  0.6376098E-003  0.1278059E+03  0.7818608E-02  0.1230748E+00
         21   -1    0    0  501  502  0.00000000000E+00  0.00000000000E+00  0.12517747436E+03  0.12517747436E+03  0.00000000000E+00 0.  1.
          4   -1    0    0  502    0 -0.00000000000E+00 -0.00000000000E+00 -0.54998669056E+02  0.55013330184E+02  0.12700000000E+01 0.  1.
         25    2    1    2    0    0 -0.20380653081E+02 -0.17148132578E+02  0.28874657199E+02  0.13102704735E+03  0.12499964735E+03 0.  0.
    9000005    1    3    3    0    0  0.14713169755E+02  0.46951348872E+01 -0.44328899776E+02  0.46952880755E+02  0.10000000000E+01 0.  0.
    9000005    1    3    3    0    0 -0.35093822835E+02 -0.21843267465E+02  0.73203556974E+02  0.84074166594E+02  0.10000000000E+01 0.  0.
          4    1    1    2  501    0  0.20380653081E+02  0.17148132578E+02  0.41304148107E+02  0.49163757198E+02  0.12700000000E+01 0. -1.
<mgrwt>
<rscale>  1 0.12780587E+03</rscale>
<asrwt>0</asrwt>
<pdfrwt beam="1">  1       21 0.19258073E-01 0.12780587E+03</pdfrwt>
<pdfrwt beam="2">  1        4 0.84629571E-02 0.12780587E+03</pdfrwt>
<totfact> 0.99686977E+04</totfact>
</mgrwt>
</event>
<event>
 6    4  0.6376098E-003  0.1333726E+03  0.7818608E-02  0.1222536E+00
         21   -1    0    0  501  502  0.00000000000E+00  0.00000000000E+00  0.38896192489E+02  0.38896192489E+02  0.00000000000E+00 0.  1.
          4   -1    0    0  502    0 -0.00000000000E+00 -0.00000000000E+00 -0.21453668566E+03  0.21454044465E+03  0.12700000000E+01 0.  1.
         25    2    1    2    0    0  0.46330179524E+02 -0.26953156459E+01 -0.14874361617E+03  0.19978213916E+03  0.12503795231E+03 0.  0.
    9000005    1    3    3    0    0  0.57867603749E+02  0.25807248171E+02 -0.18587146559E+02  0.66039046321E+02  0.10000000000E+01 0.  0.
    9000005    1    3    3    0    0 -0.11537424224E+02 -0.28502563817E+02 -0.13015646961E+03  0.13374309284E+03  0.10000000000E+01 0.  0.
          4    1    1    2  501    0 -0.46330179524E+02  0.26953156459E+01 -0.26896877001E+02  0.53654497981E+02  0.12700000000E+01 0. -1.
<mgrwt>
<rscale>  1 0.13337256E+03</rscale>
<asrwt>0</asrwt>
<pdfrwt beam="1">  1       21 0.59840296E-02 0.13337256E+03</pdfrwt>
<pdfrwt beam="2">  1        4 0.33007528E-01 0.13337256E+03</pdfrwt>
<totfact> 0.70550306E+04</totfact>
</mgrwt>
</event>
<event>
 6    4  0.6376098E-003  0.1267415E+03  0.7818608E-02  0.1232373E+00
         21   -1    0    0  501  502  0.00000000000E+00  0.00000000000E+00  0.46973755021E+02  0.46973755021E+02  0.00000000000E+00 0. -1.
          4   -1    0    0  502    0 -0.00000000000E+00 -0.00000000000E+00 -0.11703145864E+03  0.11703834932E+03  0.12700000000E+01 0. -1.
         25    2    1    2    0    0  0.17316723573E+02  0.11784986763E+02 -0.54876847834E+02  0.13811179332E+03  0.12499857679E+03 0.  0.
    9000005    1    3    3    0    0  0.70188232670E+02 -0.52322737212E+01 -0.22938376324E+02  0.74033328994E+02  0.10000000000E+01 0.  0.
    9000005    1    3    3    0    0 -0.52871509096E+02  0.17017260485E+02 -0.31938471510E+02  0.64078464331E+02  0.10000000000E+01 0.  0.
          4    1    1    2  501    0 -0.17316723573E+02 -0.11784986763E+02 -0.15180855785E+02  0.25900311015E+02  0.12700000000E+01 0.  1.
<mgrwt>
<rscale>  1 0.12674147E+03</rscale>
<asrwt>0</asrwt>
<pdfrwt beam="1">  1       21 0.72267316E-02 0.12674147E+03</pdfrwt>
<pdfrwt beam="2">  1        4 0.18006690E-01 0.12674147E+03</pdfrwt>
<totfact> 0.15489781E+05</totfact>
</mgrwt>
</event>
<event>
 6    4  0.6376098E-003  0.1294085E+03  0.7818608E-02  0.1228336E+00
         -4   -1    0    0    0  501 -0.00000000000E+00  0.00000000000E+00  0.10292387938E+02  0.10370445962E+02  0.12700000000E+01 0. -1.
         21   -1    0    0  501  502  0.00000000000E+00 -0.00000000000E+00 -0.67725331499E+03  0.67725331499E+03  0.00000000000E+00 0.  1.
         25    2    1    2    0    0 -0.30859462909E+02 -0.13084508851E+02 -0.45577004306E+03  0.47378570727E+03  0.12499221350E+03 0.  0.
    9000005    1    3    3    0    0 -0.14341301523E+02  0.41935474177E+02 -0.35524191003E+03  0.35799730664E+03  0.10000000000E+01 0.  0.
    9000005    1    3    3    0    0 -0.16518161386E+02 -0.55019983028E+02 -0.10052813304E+03  0.11578840063E+03  0.10000000000E+01 0.  0.
         -4    1    1    2    0  502  0.30859462909E+02  0.13084508851E+02 -0.21119088399E+03  0.21383805369E+03  0.12700000000E+01 0.  1.
<mgrwt>
<rscale>  1 0.12940852E+03</rscale>
<asrwt>0</asrwt>
<pdfrwt beam="2">  1       21 0.10419281E+00 0.12940852E+03</pdfrwt>
<pdfrwt beam="1">  1       -4 0.15895405E-02 0.12940852E+03</pdfrwt>
<totfact> 0.44086397E+04</totfact>
</mgrwt>
</event>
<event>
 6    4  0.6376098E-003  0.1329454E+03  0.7818608E-02  0.1223150E+00
         -4   -1    0    0    0  501 -0.00000000000E+00  0.00000000000E+00  0.13809310994E+03  0.13809894972E+03  0.12700000000E+01 0.  1.
         21   -1    0    0  501  502  0.00000000000E+00 -0.00000000000E+00 -0.58886056331E+02  0.58886056331E+02  0.00000000000E+00 0. -1.
         25    2    1    2    0    0 -0.42659596253E+02 -0.15105688452E+02  0.45404625640E+02  0.14048509443E+03  0.12500583487E+03 0.  0.
    9000005    1    3    3    0    0 -0.60233202879E+02 -0.50177042605E+01 -0.26330947195E+02  0.65935839005E+02  0.10000000000E+01 0.  0.
    9000005    1    3    3    0    0  0.17573606626E+02 -0.10087984191E+02  0.71735572834E+02  0.74549255427E+02  0.10000000000E+01 0.  0.
         -4    1    1    2    0  502  0.42659596253E+02  0.15105688452E+02  0.33802427974E+02  0.56499911620E+02  0.12700000000E+01 0. -1.
<mgrwt>
<rscale>  1 0.13294541E+03</rscale>
<asrwt>0</asrwt>
<pdfrwt beam="2">  1       21 0.90593934E-02 0.13294541E+03</pdfrwt>
<pdfrwt beam="1">  1       -4 0.21246596E-01 0.13294541E+03</pdfrwt>
<totfact> 0.78497737E+04</totfact>
</mgrwt>
</event>
<event>
 6    4  0.6376098E-003  0.1269158E+03  0.7818608E-02  0.1232105E+00
         21   -1    0    0  501  502  0.00000000000E+00  0.00000000000E+00  0.18459269121E+02  0.18459269121E+02  0.00000000000E+00 0.  1.
          4   -1    0    0  502    0 -0.00000000000E+00 -0.00000000000E+00 -0.31567447929E+03  0.31567703397E+03  0.12700000000E+01 0.  1.
         25    2    1    2    0    0  0.21840177549E+02  0.25960578769E+01 -0.27487622941E+03  0.30276153882E+03  0.12499550000E+03 0.  0.
    9000005    1    3    3    0    0  0.43025315774E+02 -0.13070610301E+02 -0.24923294628E+02  0.51421680896E+02  0.10000000000E+01 0.  0.
    9000005    1    3    3    0    0 -0.21185138225E+02  0.15666668178E+02 -0.24995293478E+03  0.25133985792E+03  0.10000000000E+01 0.  0.
          4    1    1    2  501    0 -0.21840177549E+02 -0.25960578769E+01 -0.22338980764E+02  0.31374764277E+02  0.12700000000E+01 0. -1.
<mgrwt>
<rscale>  1 0.12691575E+03</rscale>
<asrwt>0</asrwt>
<pdfrwt beam="1">  1       21 0.28398877E-02 0.12691575E+03</pdfrwt>
<pdfrwt beam="2">  1        4 0.48568859E-01 0.12691575E+03</pdfrwt>
<totfact> 0.11330012E+05</totfact>
</mgrwt>
</event>
<event>
 6    4  0.6376098E-003  0.1292447E+03  0.7818608E-02  0.1228581E+00
          4   -1    0    0  502    0 -0.00000000000E+00  0.00000000000E+00  0.35449716579E+03  0.35449944070E+03  0.12700000000E+01 0.  1.
         21   -1    0    0  501  502  0.00000000000E+00 -0.00000000000E+00 -0.82787593344E+02  0.82787593344E+02  0.00000000000E+00 0. -1.
         25    2    1    2    0    0 -0.17830484780E+02 -0.27589247963E+02  0.33877838802E+03  0.36259478737E+03  0.12500036339E+03 0.  0.
    9000005    1    3    3    0    0 -0.28246180930E+02  0.25198982071E+02  0.28137088412E+03  0.28390739663E+03  0.10000000000E+01 0.  0.
    9000005    1    3    3    0    0  0.10415696150E+02 -0.52788230034E+02  0.57407503902E+02  0.78687390735E+02  0.10000000000E+01 0.  0.
          4    1    1    2  501    0  0.17830484780E+02  0.27589247963E+02 -0.67068815571E+02  0.74692246671E+02  0.12700000000E+01 0. -1.
<mgrwt>
<rscale>  1 0.12924467E+03</rscale>
<asrwt>0</asrwt>
<pdfrwt beam="2">  1       21 0.12736553E-01 0.12924467E+03</pdfrwt>
<pdfrwt beam="1">  1        4 0.54538949E-01 0.12924467E+03</pdfrwt>
<totfact> 0.69910522E+03</totfact>
</mgrwt>
</event>
<event>
 6    4  0.6376098E-003  0.1289527E+03  0.7818608E-02  0.1229018E+00
         -4   -1    0    0    0  501 -0.00000000000E+00  0.00000000000E+00  0.65136758328E+02  0.65149138026E+02  0.12700000000E+01 0.  1.
         21   -1    0    0  501  502  0.00000000000E+00 -0.00000000000E+00 -0.10684512295E+03  0.10684512295E+03  0.00000000000E+00 0.  1.
         25    2    1    2    0    0 -0.29906782168E+02 -0.10428908344E+02 -0.13670952404E+02  0.12967538655E+03  0.12500253273E+03 0.  0.
    9000005    1    3    3    0    0  0.19970504183E+02 -0.56242222474E+02 -0.16352981248E+02  0.61890456630E+02  0.10000000000E+01 0.  0.
    9000005    1    3    3    0    0 -0.49877286351E+02  0.45813314130E+02  0.26820288444E+01  0.67784929919E+02  0.10000000000E+01 0.  0.
         -4    1    1    2    0  502  0.29906782168E+02  0.10428908344E+02 -0.28037412217E+02  0.42318874426E+02  0.12700000000E+01 0. -1.
<mgrwt>
<rscale>  1 0.12895275E+03</rscale>
<asrwt>0</asrwt>
<pdfrwt beam="2">  1       21 0.16437711E-01 0.12895275E+03</pdfrwt>
<pdfrwt beam="1">  1       -4 0.10022573E-01 0.12895275E+03</pdfrwt>
<totfact> 0.10048304E+05</totfact>
</mgrwt>
</event>
<event>
 6    4  0.6376098E-003  0.1268512E+03  0.7818608E-02  0.1232204E+00
          4   -1    0    0  502    0 -0.00000000000E+00  0.00000000000E+00  0.10451825531E+03  0.10452597090E+03  0.12700000000E+01 0.  1.
         21   -1    0    0  501  502  0.00000000000E+00 -0.00000000000E+00 -0.93188374828E+02  0.93188374828E+02  0.00000000000E+00 0. -1.
         25    2    1    2    0    0 -0.50519573101E+01 -0.21000307713E+02  0.63045919050E+02  0.14165458528E+03  0.12499879370E+03 0.  0.
    9000005    1    3    3    0    0 -0.63258142788E+02  0.37006933073E+01  0.35898762399E+02  0.72835492047E+02  0.10000000000E+01 0.  0.
    9000005    1    3    3    0    0  0.58206185478E+02 -0.24701001021E+02  0.27147156651E+02  0.68819093234E+02  0.10000000000E+01 0.  0.
          4    1    1    2  501    0  0.50519573101E+01  0.21000307713E+02 -0.51716038567E+02  0.56059760451E+02  0.12700000000E+01 0. -1.
<mgrwt>
<rscale>  1 0.12685123E+03</rscale>
<asrwt>0</asrwt>
<pdfrwt beam="2">  1       21 0.14336673E-01 0.12685123E+03</pdfrwt>
<pdfrwt beam="1">  1        4 0.16080991E-01 0.12685123E+03</pdfrwt>
<totfact> 0.56973814E+04</totfact>
</mgrwt>
</event>
<event>
 6    4  0.6376098E-003  0.1284484E+03  0.7818608E-02  0.1229776E+00
         21   -1    0    0  501  502  0.00000000000E+00  0.00000000000E+00  0.58593539381E+02  0.58593539381E+02  0.00000000000E+00 0.  1.
          4   -1    0    0  502    0 -0.00000000000E+00 -0.00000000000E+00 -0.21800475245E+03  0.21800845165E+03  0.12700000000E+01 0. -1.
         25    2    1    2    0    0 -0.29278208598E+02 -0.41019676571E+01 -0.19300087032E+03  0.23183685268E+03  0.12499980272E+03 0.  0.
    9000005    1    3    3    0    0 -0.62938016865E+02  0.29329052122E+02 -0.15887479001E+03  0.17338854104E+03  0.10000000000E+01 0.  0.
    9000005    1    3    3    0    0  0.33659808268E+02 -0.33431019779E+02 -0.34126080314E+02  0.58448311641E+02  0.10000000000E+01 0.  0.
          4    1    1    2  501    0  0.29278208598E+02  0.41019676571E+01  0.33589657249E+02  0.44765138349E+02  0.12700000000E+01 0.  1.
<mgrwt>
<rscale>  1 0.12844840E+03</rscale>
<asrwt>0</asrwt>
<pdfrwt beam="1">  1       21 0.90143908E-02 0.12844840E+03</pdfrwt>
<pdfrwt beam="2">  1        4 0.33540535E-01 0.12844840E+03</pdfrwt>
<totfact> 0.33703441E+04</totfact>
</mgrwt>
</event>
<event>
 6    4  0.6376098E-003  0.1294858E+03  0.7818608E-02  0.1228221E+00
         -4   -1    0    0    0  501 -0.00000000000E+00  0.00000000000E+00  0.43120981702E+03  0.43121168722E+03  0.12700000000E+01 0.  1.
         21   -1    0    0  501  502  0.00000000000E+00 -0.00000000000E+00 -0.42524177218E+02  0.42524177218E+02  0.00000000000E+00 0. -1.
         25    2    1    2    0    0  0.21634789398E+01 -0.33705665291E+02  0.41252885776E+03  0.43237326713E+03  0.12500332449E+03 0.  0.
    9000005    1    3    3    0    0 -0.49325288628E+02  0.42114072057E+01  0.82604378078E+02  0.96307857035E+02  0.10000000000E+01 0.  0.
    9000005    1    3    3    0    0  0.51488767568E+02 -0.37917072497E+02  0.32992447968E+03  0.33606541010E+03  0.10000000000E+01 0.  0.
         -4    1    1    2    0  502 -0.21634789398E+01  0.33705665291E+02 -0.23843217951E+02  0.41362597309E+02  0.12700000000E+01 0. -1.
<mgrwt>
<rscale>  1 0.12948584E+03</rscale>
<asrwt>0</asrwt>
<pdfrwt beam="2">  1       21 0.65421814E-02 0.12948584E+03</pdfrwt>
<pdfrwt beam="1">  1       -4 0.66341571E-01 0.12948584E+03</pdfrwt>
<totfact> 0.14771386E+04</totfact>
</mgrwt>
</event>
<event>
 6    4  0.6376098E-003  0.1288447E+03  0.7818608E-02  0.1229180E+00
         21   -1    0    0  501  502  0.00000000000E+00  0.00000000000E+00  0.78044903145E+01  0.78044903145E+01  0.00000000000E+00 0.  1.
         -4   -1    0    0    0  501 -0.00000000000E+00 -0.00000000000E+00 -0.83732292622E+03  0.83732388935E+03  0.12700000000E+01 0.  1.
         25    2    1    2    0    0 -0.31217999066E+02  0.98835275443E+00 -0.61569000270E+03  0.62902712549E+03  0.12500161948E+03 0.  0.
    9000005    1    3    3    0    0 -0.75725794953E+02  0.10745507493E+02 -0.28009853538E+03  0.29035504383E+03  0.10000000000E+01 0.  0.
    9000005    1    3    3    0    0  0.44507795886E+02 -0.97571547385E+01 -0.33559146732E+03  0.33867208166E+03  0.10000000000E+01 0.  0.
         -4    1    1    2    0  502  0.31217999066E+02 -0.98835275443E+00 -0.21382843321E+03  0.21610125417E+03  0.12700000000E+01 0. -1.
<mgrwt>
<rscale>  1 0.12884466E+03</rscale>
<asrwt>0</asrwt>
<pdfrwt beam="1">  1       21 0.12006902E-02 0.12884466E+03</pdfrwt>
<pdfrwt beam="2">  1       -4 0.12882700E+00 0.12884466E+03</pdfrwt>
<totfact> 0.52403453E+04</totfact>
</mgrwt>
</event>
<event>
 6    4  0.6376098E-003  0.1277268E+03  0.7818608E-02  0.1230868E+00
         -4   -1    0    0    0  501 -0.00000000000E+00  0.00000000000E+00  0.12017266223E+03  0.12017937281E+03  0.12700000000E+01 0.  1.
         21   -1    0    0  501  502  0.00000000000E+00 -0.00000000000E+00 -0.20837569829E+03  0.20837569829E+03  0.00000000000E+00 0. -1.
         25    2    1    2    0    0 -0.26196766672E+02  0.38238541186E+00  0.84969126814E+02  0.15340762551E+03  0.12501092053E+03 0.  0.
    9000005    1    3    3    0    0 -0.81090651100E+01  0.15576226559E+02 -0.30681085803E+02  0.35365304987E+02  0.10000000000E+01 0.  0.
    9000005    1    3    3    0    0 -0.18087701562E+02 -0.15193841147E+02  0.11565021262E+03  0.11804232053E+03  0.10000000000E+01 0.  0.
         -4    1    1    2    0  502  0.26196766672E+02 -0.38238541186E+00 -0.17317216287E+03  0.17514744559E+03  0.12700000000E+01 0. -1.
<mgrwt>
<rscale>  1 0.12772685E+03</rscale>
<asrwt>0</asrwt>
<pdfrwt beam="2">  1       21 0.32057799E-01 0.12772685E+03</pdfrwt>
<pdfrwt beam="1">  1       -4 0.18488916E-01 0.12772685E+03</pdfrwt>
<totfact> 0.99466619E+03</totfact>
</mgrwt>
</event>
<event>
 6    4  0.6376098E-003  0.1289624E+03  0.7818608E-02  0.1229004E+00
         21   -1    0    0  501  502  0.00000000000E+00  0.00000000000E+00  0.20211916721E+03  0.20211916721E+03  0.00000000000E+00 0. -1.
         -4   -1    0    0    0  501 -0.00000000000E+00 -0.00000000000E+00 -0.35936605000E+02  0.35959038905E+02  0.12700000000E+01 0. -1.
         25    2    1    2    0    0 -0.31049579287E+02 -0.65100485438E+01  0.16038615082E+03  0.20580331818E+03  0.12499932518E+03 0.  0.
    9000005    1    3    3    0    0 -0.47358350859E+02  0.49614232565E+02  0.68806030886E+02  0.97157888797E+02  0.10000000000E+01 0.  0.
    9000005    1    3    3    0    0  0.16308771572E+02 -0.56124281109E+02  0.91580119930E+02  0.10864542939E+03  0.10000000000E+01 0.  0.
         -4    1    1    2    0  502  0.31049579287E+02  0.65100485438E+01  0.57964113925E+01  0.32274887931E+02  0.12700000000E+01 0.  1.
<mgrwt>
<rscale>  1 0.12896235E+03</rscale>
<asrwt>0</asrwt>
<pdfrwt beam="1">  1       21 0.31095256E-01 0.12896235E+03</pdfrwt>
<pdfrwt beam="2">  1       -4 0.55307412E-02 0.12896235E+03</pdfrwt>
<totfact> 0.81103572E+04</totfact>
</mgrwt>
</event>
<event>
 6    4  0.6376098E-003  0.1330343E+03  0.7818608E-02  0.1223022E+00
         21   -1    0    0  501  502  0.00000000000E+00  0.00000000000E+00  0.96786751388E+03  0.96786751388E+03  0.00000000000E+00 0.  1.
          4   -1    0    0  502    0 -0.00000000000E+00 -0.00000000000E+00 -0.14105319164E+02  0.14162377227E+02  0.12700000000E+01 0. -1.
         25    2    1    2    0    0 -0.36954275503E+02 -0.26607847932E+02  0.31891175479E+03  0.34554714191E+03  0.12499809554E+03 0.  0.
    9000005    1    3    3    0    0 -0.56687130708E+02  0.34315277404E+02  0.19679301053E+03  0.20765225268E+03  0.10000000000E+01 0.  0.
    9000005    1    3    3    0    0  0.19732855205E+02 -0.60923125335E+02  0.12211874426E+03  0.13789488922E+03  0.10000000000E+01 0.  0.
          4    1    1    2  501    0  0.36954275503E+02  0.26607847932E+02  0.63485043993E+03  0.63648274920E+03  0.12700000000E+01 0.  1.
<mgrwt>
<rscale>  1 0.13303428E+03</rscale>
<asrwt>0</asrwt>
<pdfrwt beam="1">  1       21 0.14890264E+00 0.13303428E+03</pdfrwt>
<pdfrwt beam="2">  1        4 0.21745030E-02 0.13303428E+03</pdfrwt>
<totfact> 0.11316049E+04</totfact>
</mgrwt>
</event>
<event>
 6    4  0.6376098E-003  0.1305537E+03  0.7818608E-02  0.1226636E+00
         21   -1    0    0  501  502  0.00000000000E+00  0.00000000000E+00  0.84758598960E+02  0.84758598960E+02  0.00000000000E+00 0.  1.
         -4   -1    0    0    0  501 -0.00000000000E+00 -0.00000000000E+00 -0.21120069294E+03  0.21120451131E+03  0.12700000000E+01 0. -1.
         25    2    1    2    0    0  0.19355150937E+02 -0.32306638403E+02 -0.18494044475E+03  0.22637855240E+03  0.12500376046E+03 0.  0.
    9000005    1    3    3    0    0 -0.32327299631E+02 -0.17103279236E+02 -0.30937007691E+01  0.36717127427E+02  0.10000000000E+01 0.  0.
    9000005    1    3    3    0    0  0.51682450568E+02 -0.15203359167E+02 -0.18184674398E+03  0.18966142497E+03  0.10000000000E+01 0.  0.
         -4    1    1    2    0  502 -0.19355150937E+02  0.32306638403E+02  0.58498350765E+02  0.69584557876E+02  0.12700000000E+01 0.  1.
<mgrwt>
<rscale>  1 0.13055375E+03</rscale>
<asrwt>0</asrwt>
<pdfrwt beam="1">  1       21 0.13039785E-01 0.13055375E+03</pdfrwt>
<pdfrwt beam="2">  1       -4 0.32493439E-01 0.13055375E+03</pdfrwt>
<totfact> 0.18737539E+04</totfact>
</mgrwt>
</event>
<event>
 6    4  0.6376098E-003  0.1273238E+03  0.7818608E-02  0.1231482E+00
         21   -1    0    0  501  502  0.00000000000E+00  0.00000000000E+00  0.37272839694E+02  0.37272839694E+02  0.00000000000E+00 0. -1.
          4   -1    0    0  502    0 -0.00000000000E+00 -0.00000000000E+00 -0.11309652629E+04  0.11309659760E+04  0.12700000000E+01 0.  1.
         25    2    1    2    0    0  0.21284489320E+02  0.11556839017E+02 -0.11230015491E+04  0.11301963686E+04  0.12499904929E+03 0.  0.
    9000005    1    3    3    0    0  0.26043222349E+02 -0.54562393605E+02 -0.48307964912E+03  0.48684931100E+03  0.10000000000E+01 0.  0.
    9000005    1    3    3    0    0 -0.47587330285E+01  0.66119232623E+02 -0.63992190001E+03  0.64334705764E+03  0.10000000000E+01 0.  0.
          4    1    1    2  501    0 -0.21284489320E+02 -0.11556839017E+02  0.29309125917E+02  0.38042447026E+02  0.12700000000E+01 0. -1.
<mgrwt>
<rscale>  1 0.12732381E+03</rscale>
<asrwt>0</asrwt>
<pdfrwt beam="1">  1       21 0.57342837E-02 0.12732381E+03</pdfrwt>
<pdfrwt beam="2">  1        4 0.17399635E+00 0.12732381E+03</pdfrwt>
<totfact> 0.18943668E+03</totfact>
</mgrwt>
</event>
<event>
 6    4  0.6376098E-003  0.1282692E+03  0.7818608E-02  0.1230047E+00
         -4   -1    0    0    0  501 -0.00000000000E+00  0.00000000000E+00  0.99485307960E+02  0.99493413852E+02  0.12700000000E+01 0. -1.
         21   -1    0    0  501  502  0.00000000000E+00 -0.00000000000E+00 -0.65521522096E+02  0.65521522096E+02  0.00000000000E+00 0. -1.
         25    2    1    2    0    0  0.28537136299E+02  0.36593358676E+01  0.42249023036E+02  0.13504800514E+03  0.12500089943E+03 0.  0.
    9000005    1    3    3    0    0 -0.48454361974E+02 -0.51186707615E+01  0.28147190544E+02  0.56278684422E+02  0.10000000000E+01 0.  0.
    9000005    1    3    3    0    0  0.76991498273E+02  0.87780066292E+01  0.14101832492E+02  0.78769320717E+02  0.10000000000E+01 0.  0.
         -4    1    1    2    0  502 -0.28537136299E+02 -0.36593358676E+01 -0.82852371717E+01  0.29966930809E+02  0.12700000000E+01 0.  1.
<mgrwt>
<rscale>  1 0.12826918E+03</rscale>
<asrwt>0</asrwt>
<pdfrwt beam="2">  1       21 0.10080234E-01 0.12826918E+03</pdfrwt>
<pdfrwt beam="1">  1       -4 0.15307002E-01 0.12826918E+03</pdfrwt>
<totfact> 0.11612096E+05</totfact>
</mgrwt>
</event>
<event>
 6    4  0.6376098E-003  0.1267435E+03  0.7818608E-02  0.1232369E+00
         21   -1    0    0  501  502  0.00000000000E+00  0.00000000000E+00  0.11736643797E+03  0.11736643797E+03  0.00000000000E+00 0.  1.
         -4   -1    0    0    0  501 -0.00000000000E+00 -0.00000000000E+00 -0.13337029774E+03  0.13337634430E+03  0.12700000000E+01 0. -1.
         25    2    1    2    0    0  0.14347131165E+02  0.15229275078E+02 -0.10171159956E+03  0.16250899878E+03  0.12500461674E+03 0.  0.
    9000005    1    3    3    0    0 -0.49121536161E+02 -0.20988098339E+02 -0.38100201277E+02  0.65620506887E+02  0.10000000000E+01 0.  0.
    9000005    1    3    3    0    0  0.63468667326E+02  0.36217373417E+02 -0.63611398279E+02  0.96888491888E+02  0.10000000000E+01 0.  0.
         -4    1    1    2    0  502 -0.14347131165E+02 -0.15229275078E+02  0.85707739782E+02  0.88233783500E+02  0.12700000000E+01 0.  1.
<mgrwt>
<rscale>  1 0.12674354E+03</rscale>
<asrwt>0</asrwt>
<pdfrwt beam="1">  1       21 0.18056375E-01 0.12674354E+03</pdfrwt>
<pdfrwt beam="2">  1       -4 0.20519501E-01 0.12674354E+03</pdfrwt>
<totfact> 0.24314856E+04</totfact>
</mgrwt>
</event>
<event>
 6    4  0.6376098E-003  0.1317195E+03  0.7818608E-02  0.1224926E+00
          4   -1    0    0  502    0 -0.00000000000E+00  0.00000000000E+00  0.20422316163E+04  0.20422320112E+04  0.12700000000E+01 0. -1.
         21   -1    0    0  501  502  0.00000000000E+00 -0.00000000000E+00 -0.18181099750E+02  0.18181099750E+02  0.00000000000E+00 0.  1.
         25    2    1    2    0    0 -0.41531369667E+02  0.41913484385E+00  0.20131495533E+04  0.20174541277E+04  0.12500001196E+03 0.  0.
    9000005    1    3    3    0    0  0.19774295435E+01  0.27449944896E+01 -0.29301691214E+00  0.35399267306E+01  0.10000000000E+01 0.  0.
    9000005    1    3    3    0    0 -0.43508799211E+02 -0.23258596457E+01  0.20134425702E+04  0.20139142010E+04  0.10000000000E+01 0.  0.
          4    1    1    2  501    0  0.41531369667E+02 -0.41913484385E+00  0.10900963210E+02  0.42958983221E+02  0.12700000000E+01 0.  1.
<mgrwt>
<rscale>  1 0.13171953E+03</rscale>
<asrwt>0</asrwt>
<pdfrwt beam="2">  1       21 0.27970939E-02 0.13171953E+03</pdfrwt>
<pdfrwt beam="1">  1        4 0.31419274E+00 0.13171953E+03</pdfrwt>
<totfact> 0.91840894E+02</totfact>
</mgrwt>
</event>
<event>
 6    4  0.6376098E-003  0.1307914E+03  0.7818608E-02  0.1226286E+00
         -4   -1    0    0    0  501 -0.00000000000E+00  0.00000000000E+00  0.47162279643E+02  0.47179376015E+02  0.12700000000E+01 0.  1.
         21   -1    0    0  501  502  0.00000000000E+00 -0.00000000000E+00 -0.15775500977E+03  0.15775500977E+03  0.00000000000E+00 0.  1.
         25    2    1    2    0    0 -0.34932107884E+02 -0.16148803649E+02 -0.10100756876E+03  0.16525411059E+03  0.12500142440E+03 0.  0.
    9000005    1    3    3    0    0 -0.10549367277E+02  0.19616400527E+02 -0.11699412403E+03  0.11909961115E+03  0.10000000000E+01 0.  0.
    9000005    1    3    3    0    0 -0.24382740607E+02 -0.35765204176E+02  0.15986555271E+02  0.46154499441E+02  0.10000000000E+01 0.  0.
         -4    1    1    2    0  502  0.34932107884E+02  0.16148803649E+02 -0.95851613649E+01  0.39680275187E+02  0.12700000000E+01 0. -1.
<mgrwt>
<rscale>  1 0.13079141E+03</rscale>
<asrwt>0</asrwt>
<pdfrwt beam="2">  1       21 0.24270002E-01 0.13079141E+03</pdfrwt>
<pdfrwt beam="1">  1       -4 0.72574436E-02 0.13079141E+03</pdfrwt>
<totfact> 0.83777302E+04</totfact>
</mgrwt>
</event>
<event>
 6    4  0.6376098E-003  0.1266487E+03  0.7818608E-02  0.1232515E+00
          4   -1    0    0  502    0 -0.00000000000E+00  0.00000000000E+00  0.54264215342E+02  0.54279074851E+02  0.12700000000E+01 0.  1.
         21   -1    0    0  501  502  0.00000000000E+00 -0.00000000000E+00 -0.10509172136E+03  0.10509172136E+03  0.00000000000E+00 0.  1.
         25    2    1    2    0    0  0.30802463430E+00  0.20337922197E+02 -0.29840112252E+02  0.13011657334E+03  0.12500465752E+03 0.  0.
    9000005    1    3    3    0    0  0.51796883971E+02  0.21762176054E+02 -0.49587945389E+02  0.74943137268E+02  0.10000000000E+01 0.  0.
    9000005    1    3    3    0    0 -0.51488859336E+02 -0.14242538571E+01  0.19747833137E+02  0.55173436076E+02  0.10000000000E+01 0.  0.
          4    1    1    2  501    0 -0.30802463430E+00 -0.20337922197E+02 -0.20987393764E+02  0.29254222866E+02  0.12700000000E+01 0. -1.
<mgrwt>
<rscale>  1 0.12664869E+03</rscale>
<asrwt>0</asrwt>
<pdfrwt beam="2">  1       21 0.16167957E-01 0.12664869E+03</pdfrwt>
<pdfrwt beam="1">  1        4 0.83500742E-02 0.12664869E+03</pdfrwt>
<totfact> 0.14012715E+05</totfact>
</mgrwt>
</event>
<event>
 6    4  0.6376098E-003  0.1296839E+03  0.7818608E-02  0.1227926E+00
         21   -1    0    0  501  502  0.00000000000E+00  0.00000000000E+00  0.29399027339E+02  0.29399027339E+02  0.00000000000E+00 0. -1.
         -4   -1    0    0    0  501 -0.00000000000E+00 -0.00000000000E+00 -0.41192889290E+03  0.41193085064E+03  0.12700000000E+01 0. -1.
         25    2    1    2    0    0 -0.15483376202E+02 -0.30827071774E+02 -0.38545484423E+03  0.40668580644E+03  0.12501145917E+03 0.  0.
    9000005    1    3    3    0    0 -0.64952474676E+02 -0.32666938892E+02 -0.29209182883E+03  0.30100596228E+03  0.10000000000E+01 0.  0.
    9000005    1    3    3    0    0  0.49469098474E+02  0.18398671180E+01 -0.93363015403E+02  0.10567984415E+03  0.10000000000E+01 0.  0.
         -4    1    1    2    0  502  0.15483376202E+02  0.30827071774E+02  0.29249786660E+01  0.34644071542E+02  0.12700000000E+01 0.  1.
<mgrwt>
<rscale>  1 0.12968388E+03</rscale>
<asrwt>0</asrwt>
<pdfrwt beam="1">  1       21 0.45229274E-02 0.12968388E+03</pdfrwt>
<pdfrwt beam="2">  1       -4 0.63375934E-01 0.12968388E+03</pdfrwt>
<totfact> 0.30352889E+04</totfact>
</mgrwt>
</event>
<event>
 6    4  0.6376098E-003  0.1271953E+03  0.7818608E-02  0.1231678E+00
          4   -1    0    0  502    0 -0.00000000000E+00  0.00000000000E+00  0.82312297442E+02  0.82322094301E+02  0.12700000000E+01 0. -1.
         21   -1    0    0  501  502  0.00000000000E+00 -0.00000000000E+00 -0.12079172897E+03  0.12079172897E+03  0.00000000000E+00 0. -1.
         25    2    1    2    0    0  0.23036571814E+02 -0.49155356550E+01  0.30000026929E+02  0.13068527046E+03  0.12499516858E+03 0.  0.
    9000005    1    3    3    0    0 -0.42956762203E+01  0.48331248572E+02  0.47916769442E+02  0.68201020641E+02  0.10000000000E+01 0.  0.
    9000005    1    3    3    0    0  0.27332248035E+02 -0.53246784227E+02 -0.17916742513E+02  0.62484249819E+02  0.10000000000E+01 0.  0.
          4    1    1    2  501    0 -0.23036571814E+02  0.49155356550E+01 -0.68479458460E+02  0.72428552813E+02  0.12700000000E+01 0.  1.
<mgrwt>
<rscale>  1 0.12719528E+03</rscale>
<asrwt>0</asrwt>
<pdfrwt beam="2">  1       21 0.18583343E-01 0.12719528E+03</pdfrwt>
<pdfrwt beam="1">  1        4 0.12664698E-01 0.12719528E+03</pdfrwt>
<totfact> 0.53871559E+04</totfact>
</mgrwt>
</event>
<event>
 6    4  0.6376098E-003  0.1320745E+03  0.7818608E-02  0.1224410E+00
         21   -1    0    0  501  502  0.00000000000E+00  0.00000000000E+00  0.15145293412E+03  0.15145293412E+03  0.00000000000E+00 0.  1.
          4   -1    0    0  502    0 -0.00000000000E+00 -0.00000000000E+00 -0.65214955810E+02  0.65227320667E+02  0.12700000000E+01 0.  1.
         25    2    1    2    0    0  0.52814662529E+01  0.42312404686E+02  0.14037071378E+02  0.13281836035E+03  0.12500177598E+03 0.  0.
    9000005    1    3    3    0    0  0.53119836867E+02  0.41836638549E+02  0.39805735928E+02  0.78469854127E+02  0.10000000000E+01 0.  0.
    9000005    1    3    3    0    0 -0.47838370614E+02  0.47576613684E+00 -0.25768664550E+02  0.54348506227E+02  0.10000000000E+01 0.  0.
          4    1    1    2  501    0 -0.52814662529E+01 -0.42312404686E+02  0.72200906933E+02  0.83861894434E+02  0.12700000000E+01 0. -1.
<mgrwt>
<rscale>  1 0.13207451E+03</rscale>
<asrwt>0</asrwt>
<pdfrwt beam="1">  1       21 0.23300451E-01 0.13207451E+03</pdfrwt>
<pdfrwt beam="2">  1        4 0.10034431E-01 0.13207451E+03</pdfrwt>
<totfact> 0.52829127E+04</totfact>
</mgrwt>
</event>
<event>
 6    4  0.6376098E-003  0.1306245E+03  0.7818608E-02  0.1226532E+00
         21   -1    0    0  501  502  0.00000000000E+00  0.00000000000E+00  0.21796672589E+02  0.21796672589E+02  0.00000000000E+00 0. -1.
         -4   -1    0    0    0  501 -0.00000000000E+00 -0.00000000000E+00 -0.33265451617E+03  0.33265694044E+03  0.12700000000E+01 0. -1.
         25    2    1    2    0    0 -0.35531514411E+02 -0.12829498547E+02 -0.26125536683E+03  0.29209093871E+03  0.12504265364E+03 0.  0.
    9000005    1    3    3    0    0  0.46730278554E+02 -0.15960836185E+01 -0.11033648215E+03  0.11983908256E+03  0.10000000000E+01 0.  0.
    9000005    1    3    3    0    0 -0.82261792965E+02 -0.11233414929E+02 -0.15091888468E+03  0.17225185614E+03  0.10000000000E+01 0.  0.
         -4    1    1    2    0  502  0.35531514411E+02  0.12829498547E+02 -0.49602476751E+02  0.62362674326E+02  0.12700000000E+01 0.  1.
<mgrwt>
<rscale>  1 0.13062446E+03</rscale>
<asrwt>0</asrwt>
<pdfrwt beam="1">  1       21 0.33533344E-02 0.13062446E+03</pdfrwt>
<pdfrwt beam="2">  1       -4 0.51180648E-01 0.13062446E+03</pdfrwt>
<totfact> 0.77859573E+04</totfact>
</mgrwt>
</event>
<event>
 6    4  0.6376098E-003  0.1339942E+03  0.7818608E-02  0.1221647E+00
          4   -1    0    0  502    0 -0.00000000000E+00  0.00000000000E+00  0.22489974404E+03  0.22490332984E+03  0.12700000000E+01 0. -1.
         21   -1    0    0  501  502  0.00000000000E+00 -0.00000000000E+00 -0.44637246907E+02  0.44637246907E+02  0.00000000000E+00 0.  1.
         25    2    1    2    0    0  0.44917443655E+02  0.17706569208E+02  0.17579075944E+03  0.22103584836E+03  0.12499342310E+03 0.  0.
    9000005    1    3    3    0    0  0.11980862838E+02  0.16105411312E+02 -0.16458138527E+02  0.25976829515E+02  0.10000000000E+01 0.  0.
    9000005    1    3    3    0    0  0.32936580818E+02  0.16011578951E+01  0.19224889797E+03  0.19505901884E+03  0.10000000000E+01 0.  0.
          4    1    1    2  501    0 -0.44917443655E+02 -0.17706569208E+02  0.44717376983E+01  0.48504728385E+02  0.12700000000E+01 0.  1.
<mgrwt>
<rscale>  1 0.13399424E+03</rscale>
<asrwt>0</asrwt>
<pdfrwt beam="2">  1       21 0.68672689E-02 0.13399424E+03</pdfrwt>
<pdfrwt beam="1">  1        4 0.34601625E-01 0.13399424E+03</pdfrwt>
<totfact> 0.50999075E+04</totfact>
</mgrwt>
</event>
<event>
 6    4  0.6376098E-003  0.1380166E+03  0.7818608E-02  0.1216023E+00
         21   -1    0    0  501  502  0.00000000000E+00  0.00000000000E+00  0.75121159949E+03  0.75121159949E+03  0.00000000000E+00 0.  1.
         -4   -1    0    0    0  501 -0.00000000000E+00 -0.00000000000E+00 -0.12824037175E+02  0.12886769551E+02  0.12700000000E+01 0.  1.
         25    2    1    2    0    0  0.17699427368E+02  0.55774034720E+02  0.51824832848E+03  0.53631138994E+03  0.12499825727E+03 0.  0.
    9000005    1    3    3    0    0 -0.23978465431E+01  0.50105810923E+02  0.51205615889E+03  0.51450835932E+03  0.10000000000E+01 0.  0.
    9000005    1    3    3    0    0  0.20097273911E+02  0.56682237969E+01  0.61921695959E+01  0.21803030614E+02  0.10000000000E+01 0.  0.
         -4    1    1    2    0  502 -0.17699427368E+02 -0.55774034720E+02  0.22013923383E+03  0.22778697910E+03  0.12700000000E+01 0. -1.
<mgrwt>
<rscale>  1 0.13801658E+03</rscale>
<asrwt>0</asrwt>
<pdfrwt beam="1">  1       21 0.11557098E+00 0.13801658E+03</pdfrwt>
<pdfrwt beam="2">  1       -4 0.19778375E-02 0.13801658E+03</pdfrwt>
<totfact> 0.24746394E+04</totfact>
</mgrwt>
</event>
<event>
 6    4  0.6376098E-003  0.1280059E+03  0.7818608E-02  0.1230445E+00
         21   -1    0    0  501  502  0.00000000000E+00  0.00000000000E+00  0.28948887865E+03  0.28948887865E+03  0.00000000000E+00 0. -1.
         -4   -1    0    0    0  501 -0.00000000000E+00 -0.00000000000E+00 -0.24606882487E+02  0.24639634043E+02  0.12700000000E+01 0. -1.
         25    2    1    2    0    0  0.12772942371E+02 -0.24469465039E+02  0.15600343680E+03  0.20179839044E+03  0.12499446114E+03 0.  0.
    9000005    1    3    3    0    0  0.49765163049E+02  0.83513682583E+01  0.14153142675E+03  0.15026131093E+03  0.10000000000E+01 0.  0.
    9000005    1    3    3    0    0 -0.36992220677E+02 -0.32820833297E+02  0.14472010043E+02  0.51537079503E+02  0.10000000000E+01 0.  0.
         -4    1    1    2    0  502 -0.12772942371E+02  0.24469465039E+02  0.10887855936E+03  0.11233012225E+03  0.12700000000E+01 0.  1.
<mgrwt>
<rscale>  1 0.12800593E+03</rscale>
<asrwt>0</asrwt>
<pdfrwt beam="1">  1       21 0.44536748E-01 0.12800593E+03</pdfrwt>
<pdfrwt beam="2">  1       -4 0.37884081E-02 0.12800593E+03</pdfrwt>
<totfact> 0.72816558E+04</totfact>
</mgrwt>
</event>
<event>
 6    4  0.6376098E-003  0.1283346E+03  0.7818608E-02  0.1229948E+00
          4   -1    0    0  502    0 -0.00000000000E+00  0.00000000000E+00  0.72905363632E+03  0.72905474247E+03  0.12700000000E+01 0. -1.
         21   -1    0    0  501  502  0.00000000000E+00 -0.00000000000E+00 -0.89404595808E+01  0.89404595808E+01  0.00000000000E+00 0. -1.
         25    2    1    2    0    0 -0.23958645631E+02  0.16452200786E+02  0.64057160874E+03  0.65330065944E+03  0.12500029632E+03 0.  0.
    9000005    1    3    3    0    0 -0.77291109383E+01  0.46933506127E+02  0.59080949288E+03  0.59272198376E+03  0.10000000000E+01 0.  0.
    9000005    1    3    3    0    0 -0.16229534692E+02 -0.30481305341E+02  0.49762115866E+02  0.60578675679E+02  0.10000000000E+01 0.  0.
          4    1    1    2  501    0  0.23958645631E+02 -0.16452200786E+02  0.79541567991E+02  0.84694542620E+02  0.12700000000E+01 0.  1.
<mgrwt>
<rscale>  1 0.12833458E+03</rscale>
<asrwt>0</asrwt>
<pdfrwt beam="2">  1       21 0.13754559E-02 0.12833458E+03</pdfrwt>
<pdfrwt beam="1">  1        4 0.11216907E+00 0.12833458E+03</pdfrwt>
<totfact> 0.58848035E+04</totfact>
</mgrwt>
</event>
<event>
 6    4  0.6376098E-003  0.1266602E+03  0.7818608E-02  0.1232497E+00
          4   -1    0    0  502    0 -0.00000000000E+00  0.00000000000E+00  0.63922889033E+03  0.63923015192E+03  0.12700000000E+01 0. -1.
         21   -1    0    0  501  502  0.00000000000E+00 -0.00000000000E+00 -0.85000627377E+01  0.85000627377E+01  0.00000000000E+00 0. -1.
         25    2    1    2    0    0  0.20265163765E+02  0.26769865012E+01  0.55611008197E+03  0.57035183773E+03  0.12499980965E+03 0.  0.
    9000005    1    3    3    0    0  0.28201129812E+02  0.62722149987E+01  0.22402135740E+02  0.36571848318E+02  0.10000000000E+01 0.  0.
    9000005    1    3    3    0    0 -0.79359660472E+01 -0.35952284975E+01  0.53370794623E+03  0.53377998941E+03  0.10000000000E+01 0.  0.
          4    1    1    2  501    0 -0.20265163765E+02 -0.26769865012E+01  0.74618745621E+02  0.77378376936E+02  0.12700000000E+01 0.  1.
<mgrwt>
<rscale>  1 0.12666016E+03</rscale>
<asrwt>0</asrwt>
<pdfrwt beam="2">  1       21 0.13077025E-02 0.12666016E+03</pdfrwt>
<pdfrwt beam="1">  1        4 0.98350263E-01 0.12666016E+03</pdfrwt>
<totfact> 0.86505124E+04</totfact>
</mgrwt>
</event>
<event>
 6    4  0.6376098E-003  0.1292538E+03  0.7818608E-02  0.1228567E+00
         -4   -1    0    0    0  501 -0.00000000000E+00  0.00000000000E+00  0.14342726387E+02  0.14398843711E+02  0.12700000000E+01 0. -1.
         21   -1    0    0  501  502  0.00000000000E+00 -0.00000000000E+00 -0.57717143458E+03  0.57717143458E+03  0.00000000000E+00 0. -1.
         25    2    1    2    0    0  0.30278304945E+02 -0.12456743456E+02 -0.29935944327E+03  0.32607147854E+03  0.12503834067E+03 0.  0.
    9000005    1    3    3    0    0 -0.33923996800E+02  0.43341814078E+01 -0.21530155776E+02  0.40424872234E+02  0.10000000000E+01 0.  0.
    9000005    1    3    3    0    0  0.64202301745E+02 -0.16790924864E+02 -0.27782928749E+03  0.28564660631E+03  0.10000000000E+01 0.  0.
         -4    1    1    2    0  502 -0.30278304945E+02  0.12456743456E+02 -0.26346926492E+03  0.26549879975E+03  0.12700000000E+01 0.  1.
<mgrwt>
<rscale>  1 0.12925375E+03</rscale>
<asrwt>0</asrwt>
<pdfrwt beam="2">  1       21 0.88795608E-01 0.12925375E+03</pdfrwt>
<pdfrwt beam="1">  1       -4 0.22109974E-02 0.12925375E+03</pdfrwt>
<totfact> 0.38497564E+04</totfact>
</mgrwt>
</event>
<event>
 6    4  0.6376098E-003  0.1456875E+03  0.7818608E-02  0.1205875E+00
         21   -1    0    0  501  502  0.00000000000E+00  0.00000000000E+00  0.36912990973E+03  0.36912990973E+03  0.00000000000E+00 0.  1.
         -4   -1    0    0    0  501 -0.00000000000E+00 -0.00000000000E+00 -0.61227788696E+02  0.61240958586E+02  0.12700000000E+01 0. -1.
         25    2    1    2    0    0 -0.19604478879E+02  0.72152346274E+02  0.38367078583E+02  0.15065485398E+03  0.12503821674E+03 0.  0.
    9000005    1    3    3    0    0 -0.52282456069E+02  0.37696847037E+02  0.68770603886E+02  0.94259765796E+02  0.10000000000E+01 0.  0.
    9000005    1    3    3    0    0  0.32677977190E+02  0.34455499237E+02 -0.30403525303E+02  0.56395088188E+02  0.10000000000E+01 0.  0.
         -4    1    1    2    0  502  0.19604478879E+02 -0.72152346274E+02  0.26953504245E+03  0.27971601433E+03  0.12700000000E+01 0.  1.
<mgrwt>
<rscale>  1 0.14568752E+03</rscale>
<asrwt>0</asrwt>
<pdfrwt beam="1">  1       21 0.56789215E-01 0.14568752E+03</pdfrwt>
<pdfrwt beam="2">  1       -4 0.94208412E-02 0.14568752E+03</pdfrwt>
<totfact> 0.10127082E+04</totfact>
</mgrwt>
</event>
<event>
 6    4  0.6376098E-003  0.1303087E+03  0.7818608E-02  0.1226998E+00
         21   -1    0    0  501  502  0.00000000000E+00  0.00000000000E+00  0.33165805139E+03  0.33165805139E+03  0.00000000000E+00 0.  1.
         -4   -1    0    0    0  501 -0.00000000000E+00 -0.00000000000E+00 -0.25019394839E+02  0.25051607097E+02  0.12700000000E+01 0.  1.
         25    2    1    2    0    0 -0.28407851627E+02 -0.23406152356E+02  0.16440043893E+03  0.20978050054E+03  0.12500200032E+03 0.  0.
    9000005    1    3    3    0    0 -0.46580444967E+02  0.29882279450E+02  0.27613348509E+02  0.61856167795E+02  0.10000000000E+01 0.  0.
    9000005    1    3    3    0    0  0.18172593340E+02 -0.53288431806E+02  0.13678709042E+03  0.14792433274E+03  0.10000000000E+01 0.  0.
         -4    1    1    2    0  502  0.28407851627E+02  0.23406152356E+02  0.14223821762E+03  0.14692915795E+03  0.12700000000E+01 0. -1.
<mgrwt>
<rscale>  1 0.13030869E+03</rscale>
<asrwt>0</asrwt>
<pdfrwt beam="1">  1       21 0.51024312E-01 0.13030869E+03</pdfrwt>
<pdfrwt beam="2">  1       -4 0.38518028E-02 0.13030869E+03</pdfrwt>
<totfact> 0.53791853E+04</totfact>
</mgrwt>
</event>
<event>
 6    4  0.6376098E-003  0.1272370E+03  0.7818608E-02  0.1231614E+00
         -4   -1    0    0    0  501 -0.00000000000E+00  0.00000000000E+00  0.86446059116E+01  0.87373972879E+01  0.12700000000E+01 0.  1.
         21   -1    0    0  501  502  0.00000000000E+00 -0.00000000000E+00 -0.11747677234E+04  0.11747677234E+04  0.00000000000E+00 0. -1.
         25    2    1    2    0    0 -0.14034242486E+02 -0.19186729205E+02 -0.46833849446E+03  0.48531454242E+03  0.12499667658E+03 0.  0.
    9000005    1    3    3    0    0 -0.42627635581E+02 -0.62299661755E+02 -0.27746517109E+03  0.28755222889E+03  0.10000000000E+01 0.  0.
    9000005    1    3    3    0    0  0.28593393095E+02  0.43112932549E+02 -0.19087332337E+03  0.19776231354E+03  0.10000000000E+01 0.  0.
         -4    1    1    2    0  502  0.14034242486E+02  0.19186729205E+02 -0.69778462308E+03  0.69819057831E+03  0.12700000000E+01 0. -1.
<mgrwt>
<rscale>  1 0.12723702E+03</rscale>
<asrwt>0</asrwt>
<pdfrwt beam="2">  1       21 0.18073345E+00 0.12723702E+03</pdfrwt>
<pdfrwt beam="1">  1       -4 0.13371303E-02 0.12723702E+03</pdfrwt>
<totfact> 0.14159547E+04</totfact>
</mgrwt>
</event>
<event>
 6    4  0.6376098E-003  0.1286311E+03  0.7818608E-02  0.1229501E+00
         21   -1    0    0  501  502  0.00000000000E+00  0.00000000000E+00  0.30899693676E+03  0.30899693676E+03  0.00000000000E+00 0. -1.
          4   -1    0    0  502    0 -0.00000000000E+00 -0.00000000000E+00 -0.48194309813E+02  0.48211040213E+02  0.12700000000E+01 0.  1.
         25    2    1    2    0    0  0.29612344666E+02  0.66237175603E+01  0.40549963654E+02  0.13487126570E+03  0.12500077667E+03 0.  0.
    9000005    1    3    3    0    0 -0.38183159680E+02 -0.31954404517E+02  0.84329852987E+01  0.50508938736E+02  0.10000000000E+01 0.  0.
    9000005    1    3    3    0    0  0.67795504345E+02  0.38578122078E+02  0.32116978355E+02  0.84362326966E+02  0.10000000000E+01 0.  0.
          4    1    1    2  501    0 -0.29612344666E+02 -0.66237175603E+01  0.22025266329E+03  0.22233671127E+03  0.12700000000E+01 0. -1.
<mgrwt>
<rscale>  1 0.12863110E+03</rscale>
<asrwt>0</asrwt>
<pdfrwt beam="1">  1       21 0.47537989E-01 0.12863110E+03</pdfrwt>
<pdfrwt beam="2">  1        4 0.74159971E-02 0.12863110E+03</pdfrwt>
<totfact> 0.21599719E+04</totfact>
</mgrwt>
</event>
<event>
 6    4  0.6376098E-003  0.1270711E+03  0.7818608E-02  0.1231868E+00
         21   -1    0    0  501  502  0.00000000000E+00  0.00000000000E+00  0.83476389618E+02  0.83476389618E+02  0.00000000000E+00 0. -1.
         -4   -1    0    0    0  501 -0.00000000000E+00 -0.00000000000E+00 -0.76365023376E+02  0.76375583109E+02  0.12700000000E+01 0. -1.
         25    2    1    2    0    0 -0.22207481746E+02  0.52082473311E+01 -0.15129194918E+02  0.12796853586E+03  0.12500702198E+03 0.  0.
    9000005    1    3    3    0    0 -0.35083196203E+02  0.31259755068E+02  0.42534143305E+02  0.63388928760E+02  0.10000000000E+01 0.  0.
    9000005    1    3    3    0    0  0.12875714457E+02 -0.26051507737E+02 -0.57663338223E+02  0.64579607099E+02  0.10000000000E+01 0.  0.
         -4    1    1    2    0  502  0.22207481746E+02 -0.52082473311E+01  0.22240561160E+02  0.31883436868E+02  0.12700000000E+01 0.  1.
<mgrwt>
<rscale>  1 0.12707106E+03</rscale>
<asrwt>0</asrwt>
<pdfrwt beam="1">  1       21 0.12842522E-01 0.12707106E+03</pdfrwt>
<pdfrwt beam="2">  1       -4 0.11750020E-01 0.12707106E+03</pdfrwt>
<totfact> 0.11937832E+05</totfact>
</mgrwt>
</event>
<event>
 6    4  0.6376098E-003  0.1387120E+03  0.7818608E-02  0.1215073E+00
          4   -1    0    0  502    0 -0.00000000000E+00  0.00000000000E+00  0.98112320226E+02  0.98120539543E+02  0.12700000000E+01 0. -1.
         21   -1    0    0  501  502  0.00000000000E+00 -0.00000000000E+00 -0.26292591448E+03  0.26292591448E+03  0.00000000000E+00 0.  1.
         25    2    1    2    0    0 -0.89107702270E+01  0.59470510649E+02  0.42585345692E+02  0.14510183924E+03  0.12499955448E+03 0.  0.
    9000005    1    3    3    0    0 -0.64416664330E+02  0.51010711077E+02  0.19990031319E+02  0.84570684283E+02  0.10000000000E+01 0.  0.
    9000005    1    3    3    0    0  0.55505894102E+02  0.84597995720E+01  0.22595314373E+02  0.60531154958E+02  0.10000000000E+01 0.  0.
          4    1    1    2  501    0  0.89107702270E+01 -0.59470510649E+02 -0.20739893994E+03  0.21594461478E+03  0.12700000000E+01 0.  1.
<mgrwt>
<rscale>  1 0.13871205E+03</rscale>
<asrwt>0</asrwt>
<pdfrwt beam="2">  1       21 0.40450140E-01 0.13871205E+03</pdfrwt>
<pdfrwt beam="1">  1        4 0.15095071E-01 0.13871205E+03</pdfrwt>
<totfact> 0.90466879E+03</totfact>
</mgrwt>
</event>
<event>
 6    4  0.6376098E-003  0.1279483E+03  0.7818608E-02  0.1230532E+00
         21   -1    0    0  501  502  0.00000000000E+00  0.00000000000E+00  0.33455289029E+03  0.33455289029E+03  0.00000000000E+00 0. -1.
         -4   -1    0    0    0  501 -0.00000000000E+00 -0.00000000000E+00 -0.18023307503E+02  0.18067996937E+02  0.12700000000E+01 0. -1.
         25    2    1    2    0    0  0.79090390242E+01 -0.26190153070E+02  0.25664560000E+03  0.28677119998E+03  0.12498912002E+03 0.  0.
    9000005    1    3    3    0    0 -0.15946146018E+01  0.61089762339E+01 -0.13287237166E+02  0.14744933295E+02  0.10000000000E+01 0.  0.
    9000005    1    3    3    0    0  0.95036536260E+01 -0.32299129304E+02  0.26993283716E+03  0.27202626668E+03  0.10000000000E+01 0.  0.
         -4    1    1    2    0  502 -0.79090390242E+01  0.26190153070E+02  0.59883982786E+02  0.65849687246E+02  0.12700000000E+01 0.  1.
<mgrwt>
<rscale>  1 0.12794826E+03</rscale>
<asrwt>0</asrwt>
<pdfrwt beam="1">  1       21 0.51469671E-01 0.12794826E+03</pdfrwt>
<pdfrwt beam="2">  1       -4 0.27764398E-02 0.12794826E+03</pdfrwt>
<totfact> 0.88178196E+04</totfact>
</mgrwt>
</event>
<event>
 6    4  0.6376098E-003  0.1448923E+03  0.7818608E-02  0.1206894E+00
          4   -1    0    0  502    0 -0.00000000000E+00  0.00000000000E+00  0.16634208605E+04  0.16634213453E+04  0.12700000000E+01 0.  1.
         21   -1    0    0  501  502  0.00000000000E+00 -0.00000000000E+00 -0.85143340207E+01  0.85143340207E+01  0.00000000000E+00 0. -1.
         25    2    1    2    0    0 -0.53196155259E+02  0.50384210310E+02  0.13743554656E+04  0.13819720433E+04  0.12500153180E+03 0.  0.
    9000005    1    3    3    0    0 -0.71452781179E+02  0.56969521935E+02  0.56184132811E+03  0.56922553029E+03  0.10000000000E+01 0.  0.
    9000005    1    3    3    0    0  0.18256625921E+02 -0.65853116256E+01  0.81251413752E+03  0.81274651300E+03  0.10000000000E+01 0.  0.
          4    1    1    2  501    0  0.53196155259E+02 -0.50384210310E+02  0.28055106084E+03  0.28996363603E+03  0.12700000000E+01 0. -1.
<mgrwt>
<rscale>  1 0.14489231E+03</rscale>
<asrwt>0</asrwt>
<pdfrwt beam="2">  1       21 0.13098989E-02 0.14489231E+03</pdfrwt>
<pdfrwt beam="1">  1        4 0.25591797E+00 0.14489231E+03</pdfrwt>
<totfact> 0.67903345E+03</totfact>
</mgrwt>
</event>
<event>
 6    4  0.6376098E-003  0.1280958E+03  0.7818608E-02  0.1230309E+00
         21   -1    0    0  501  502  0.00000000000E+00  0.00000000000E+00  0.44532167737E+02  0.44532167737E+02  0.00000000000E+00 0.  1.
          4   -1    0    0  502    0 -0.00000000000E+00 -0.00000000000E+00 -0.21787421409E+03  0.21787791550E+03  0.12700000000E+01 0. -1.
         25    2    1    2    0    0 -0.15263961443E+02 -0.23480022887E+02 -0.19048510714E+03  0.22954981198E+03  0.12499696054E+03 0.  0.
    9000005    1    3    3    0    0  0.12106382036E+02 -0.68960089096E+02 -0.13876716174E+03  0.15543289083E+03  0.10000000000E+01 0.  0.
    9000005    1    3    3    0    0 -0.27370343480E+02  0.45480066209E+02 -0.51717945399E+02  0.74116921151E+02  0.10000000000E+01 0.  0.
          4    1    1    2  501    0  0.15263961443E+02  0.23480022887E+02  0.17143060794E+02  0.32860271257E+02  0.12700000000E+01 0.  1.
<mgrwt>
<rscale>  1 0.12809582E+03</rscale>
<asrwt>0</asrwt>
<pdfrwt beam="1">  1       21 0.68511027E-02 0.12809582E+03</pdfrwt>
<pdfrwt beam="2">  1        4 0.33520788E-01 0.12809582E+03</pdfrwt>
<totfact> 0.54107040E+04</totfact>
</mgrwt>
</event>
<event>
 6    4  0.6376098E-003  0.1485071E+03  0.7818608E-02  0.1202320E+00
          4   -1    0    0  502    0 -0.00000000000E+00  0.00000000000E+00  0.14272930336E+03  0.14273495345E+03  0.12700000000E+01 0.  1.
         21   -1    0    0  501  502  0.00000000000E+00 -0.00000000000E+00 -0.23538814643E+03  0.23538814643E+03  0.00000000000E+00 0. -1.
         25    2    1    2    0    0  0.73202504565E+02  0.32722687209E+02  0.93456171886E+02  0.17546626525E+03  0.12499989297E+03 0.  0.
    9000005    1    3    3    0    0  0.11706232793E+02  0.50289000319E+02 -0.11169393911E+02  0.52837248222E+02  0.10000000000E+01 0.  0.
    9000005    1    3    3    0    0  0.61496271771E+02 -0.17566313110E+02  0.10462556580E+03  0.12262901702E+03  0.10000000000E+01 0.  0.
          4    1    1    2  501    0 -0.73202504565E+02 -0.32722687209E+02 -0.18611501496E+03  0.20265683464E+03  0.12700000000E+01 0. -1.
<mgrwt>
<rscale>  1 0.14850708E+03</rscale>
<asrwt>0</asrwt>
<pdfrwt beam="2">  1       21 0.36213561E-01 0.14850708E+03</pdfrwt>
<pdfrwt beam="1">  1        4 0.21959053E-01 0.14850708E+03</pdfrwt>
<totfact> 0.58063755E+03</totfact>
</mgrwt>
</event>
<event>
 6    4  0.6376098E-003  0.1288890E+03  0.7818608E-02  0.1229114E+00
         21   -1    0    0  501  502  0.00000000000E+00  0.00000000000E+00  0.41496395249E+02  0.41496395249E+02  0.00000000000E+00 0.  1.
         -4   -1    0    0    0  501 -0.00000000000E+00 -0.00000000000E+00 -0.16642356721E+03  0.16642841291E+03  0.12700000000E+01 0.  1.
         25    2    1    2    0    0 -0.21830536588E+02  0.22599503029E+02 -0.11998240482E+03  0.17609128044E+03  0.12500020686E+03 0.  0.
    9000005    1    3    3    0    0  0.54727568121E+00 -0.50836696906E+02 -0.60085523413E+02  0.78714289598E+02  0.10000000000E+01 0.  0.
    9000005    1    3    3    0    0 -0.22377812270E+02  0.73436199935E+02 -0.59896881406E+02  0.97376990840E+02  0.10000000000E+01 0.  0.
         -4    1    1    2    0  502  0.21830536588E+02 -0.22599503029E+02 -0.49447671404E+01  0.31833527718E+02  0.12700000000E+01 0. -1.
<mgrwt>
<rscale>  1 0.12888895E+03</rscale>
<asrwt>0</asrwt>
<pdfrwt beam="1">  1       21 0.63840609E-02 0.12888895E+03</pdfrwt>
<pdfrwt beam="2">  1       -4 0.25605493E-01 0.12888895E+03</pdfrwt>
<totfact> 0.10141077E+05</totfact>
</mgrwt>
</event>
<event>
 6    4  0.6376098E-003  0.1274062E+03  0.7818608E-02  0.1231356E+00
          4   -1    0    0  502    0 -0.00000000000E+00  0.00000000000E+00  0.16698170951E+04  0.16698175780E+04  0.12700000000E+01 0. -1.
         21   -1    0    0  501  502  0.00000000000E+00 -0.00000000000E+00 -0.34758709888E+01  0.34758709888E+01  0.00000000000E+00 0. -1.
         25    2    1    2    0    0  0.12436550557E+02  0.21275525222E+02  0.13556151380E+04  0.13615890550E+04  0.12500014648E+03 0.  0.
    9000005    1    3    3    0    0  0.22752406569E+00 -0.52537579771E+02  0.54340897291E+03  0.54594373418E+03  0.10000000000E+01 0.  0.
    9000005    1    3    3    0    0  0.12209026491E+02  0.73813104992E+02  0.81220616508E+03  0.81564532083E+03  0.10000000000E+01 0.  0.
          4    1    1    2  501    0 -0.12436550557E+02 -0.21275525222E+02  0.31072608609E+03  0.31170439400E+03  0.12700000000E+01 0.  1.
<mgrwt>
<rscale>  1 0.12740625E+03</rscale>
<asrwt>0</asrwt>
<pdfrwt beam="2">  1       21 0.53475072E-03 0.12740625E+03</pdfrwt>
<pdfrwt beam="1">  1        4 0.25691218E+00 0.12740625E+03</pdfrwt>
<totfact> 0.27097780E+04</totfact>
</mgrwt>
</event>
<event>
 6    4  0.6376098E-003  0.1299646E+03  0.7818608E-02  0.1227508E+00
         21   -1    0    0  501  502  0.00000000000E+00  0.00000000000E+00  0.24305627275E+03  0.24305627275E+03  0.00000000000E+00 0.  1.
          4   -1    0    0  502    0 -0.00000000000E+00 -0.00000000000E+00 -0.34807323122E+02  0.34830484392E+02  0.12700000000E+01 0. -1.
         25    2    1    2    0    0 -0.33523641614E+02 -0.11912928591E+02  0.10014708882E+03  0.16407385091E+03  0.12500014695E+03 0.  0.
    9000005    1    3    3    0    0 -0.71470746069E+02  0.11320828995E+02  0.94773618744E+02  0.11924457020E+03  0.10000000000E+01 0.  0.
    9000005    1    3    3    0    0  0.37947104455E+02 -0.23233757585E+02  0.53734700739E+01  0.44829280707E+02  0.10000000000E+01 0.  0.
          4    1    1    2  501    0  0.33523641614E+02  0.11912928591E+02  0.10810186081E+03  0.11381290623E+03  0.12700000000E+01 0.  1.
<mgrwt>
<rscale>  1 0.12996457E+03</rscale>
<asrwt>0</asrwt>
<pdfrwt beam="1">  1       21 0.37393272E-01 0.12996457E+03</pdfrwt>
<pdfrwt beam="2">  1        4 0.53570098E-02 0.12996457E+03</pdfrwt>
<totfact> 0.59558980E+04</totfact>
</mgrwt>
</event>
<event>
 6    4  0.6376098E-003  0.1285747E+03  0.7818608E-02  0.1229586E+00
          4   -1    0    0  502    0 -0.00000000000E+00  0.00000000000E+00  0.16935322244E+03  0.16935798432E+03  0.12700000000E+01 0.  1.
         21   -1    0    0  501  502  0.00000000000E+00 -0.00000000000E+00 -0.46312864934E+02  0.46312864934E+02  0.00000000000E+00 0.  1.
         25    2    1    2    0    0 -0.14732174730E+02 -0.26248796205E+02  0.13196957173E+03  0.18424824527E+03  0.12500164698E+03 0.  0.
    9000005    1    3    3    0    0  0.73274680380E+01  0.47380413510E+02  0.73103241524E+02  0.87428137882E+02  0.10000000000E+01 0.  0.
    9000005    1    3    3    0    0 -0.22059642768E+02 -0.73629209716E+02  0.58866330204E+02  0.96820107385E+02  0.10000000000E+01 0.  0.
          4    1    1    2  501    0  0.14732174730E+02  0.26248796205E+02 -0.89292142198E+01  0.31422603983E+02  0.12700000000E+01 0. -1.
<mgrwt>
<rscale>  1 0.12857468E+03</rscale>
<asrwt>0</asrwt>
<pdfrwt beam="2">  1       21 0.71250562E-02 0.12857468E+03</pdfrwt>
<pdfrwt beam="1">  1        4 0.26056047E-01 0.12857468E+03</pdfrwt>
<totfact> 0.81376092E+04</totfact>
</mgrwt>
</event>
<event>
 6    4  0.6376098E-003  0.1491496E+03  0.7818608E-02  0.1201522E+00
          4   -1    0    0  502    0 -0.00000000000E+00  0.00000000000E+00  0.10331181229E+03  0.10331961797E+03  0.12700000000E+01 0. -1.
         21   -1    0    0  501  502  0.00000000000E+00 -0.00000000000E+00 -0.26646134459E+03  0.26646134459E+03  0.00000000000E+00 0.  1.
         25    2    1    2    0    0 -0.11984382034E+02  0.80480927292E+02  0.37042601660E+02  0.15368073473E+03  0.12499923527E+03 0.  0.
    9000005    1    3    3    0    0 -0.52636138863E+02  0.82765788383E+01  0.45909386448E+02  0.70340149529E+02  0.10000000000E+01 0.  0.
    9000005    1    3    3    0    0  0.40651756830E+02  0.72204348454E+02 -0.88667847883E+01  0.83340585200E+02  0.10000000000E+01 0.  0.
          4    1    1    2  501    0  0.11984382034E+02 -0.80480927292E+02 -0.20019213396E+03  0.21610022783E+03  0.12700000000E+01 0.  1.
<mgrwt>
<rscale>  1 0.14914964E+03</rscale>
<asrwt>0</asrwt>
<pdfrwt beam="2">  1       21 0.40994053E-01 0.14914964E+03</pdfrwt>
<pdfrwt beam="1">  1        4 0.15894958E-01 0.14914964E+03</pdfrwt>
<totfact> 0.80848903E+03</totfact>
</mgrwt>
</event>
<event>
 6    4  0.6376098E-003  0.1275350E+03  0.7818608E-02  0.1231160E+00
         -4   -1    0    0    0  501 -0.00000000000E+00  0.00000000000E+00  0.62457721961E+02  0.62470632561E+02  0.12700000000E+01 0. -1.
         21   -1    0    0  501  502  0.00000000000E+00 -0.00000000000E+00 -0.93525666154E+02  0.93525666154E+02  0.00000000000E+00 0. -1.
         25    2    1    2    0    0 -0.24202327253E+02 -0.73270183353E+01 -0.26791743450E+02  0.13031874753E+03  0.12500296236E+03 0.  0.
    9000005    1    3    3    0    0 -0.55675744880E+02 -0.45632560585E+02 -0.35010062937E+02  0.80055128882E+02  0.10000000000E+01 0.  0.
    9000005    1    3    3    0    0  0.31473417628E+02  0.38305542250E+02  0.82183194862E+01  0.50263618646E+02  0.10000000000E+01 0.  0.
         -4    1    1    2    0  502  0.24202327253E+02  0.73270183353E+01 -0.42762007427E+01  0.25677551186E+02  0.12700000000E+01 0.  1.
<mgrwt>
<rscale>  1 0.12753501E+03</rscale>
<asrwt>0</asrwt>
<pdfrwt beam="2">  1       21 0.14388564E-01 0.12753501E+03</pdfrwt>
<pdfrwt beam="1">  1       -4 0.96105367E-02 0.12753501E+03</pdfrwt>
<totfact> 0.13692471E+05</totfact>
</mgrwt>
</event>
<event>
 6    4  0.6376098E-003  0.1385363E+03  0.7818608E-02  0.1215312E+00
          4   -1    0    0  502    0 -0.00000000000E+00  0.00000000000E+00  0.75523271316E+01  0.76583643882E+01  0.12700000000E+01 0.  1.
         21   -1    0    0  501  502  0.00000000000E+00 -0.00000000000E+00 -0.19834618330E+04  0.19834618330E+04  0.00000000000E+00 0. -1.
         25    2    1    2    0    0  0.54257012021E+02  0.24990604413E+02 -0.68713186728E+03  0.70095828186E+03  0.12499582477E+03 0.  0.
    9000005    1    3    3    0    0  0.89847105938E+02  0.38214780099E+02 -0.42387438282E+03  0.43497513064E+03  0.10000000000E+01 0.  0.
    9000005    1    3    3    0    0 -0.35590093917E+02 -0.13224175686E+02 -0.26325748446E+03  0.26598315122E+03  0.10000000000E+01 0.  0.
          4    1    1    2  501    0 -0.54257012021E+02 -0.24990604413E+02 -0.12887776386E+04  0.12901619156E+04  0.12700000000E+01 0. -1.
<mgrwt>
<rscale>  1 0.13853631E+03</rscale>
<asrwt>0</asrwt>
<pdfrwt beam="2">  1       21 0.30514781E+00 0.13853631E+03</pdfrwt>
<pdfrwt beam="1">  1        4 0.11700851E-02 0.13853631E+03</pdfrwt>
<totfact> 0.31839916E+03</totfact>
</mgrwt>
</event>
<event>
 6    4  0.6376098E-003  0.1279022E+03  0.7818608E-02  0.1230602E+00
         -4   -1    0    0    0  501 -0.00000000000E+00  0.00000000000E+00  0.21951922534E+03  0.21952289901E+03  0.12700000000E+01 0. -1.
         21   -1    0    0  501  502  0.00000000000E+00 -0.00000000000E+00 -0.58852343779E+02  0.58852343779E+02  0.00000000000E+00 0.  1.
         25    2    1    2    0    0 -0.10559228453E+02 -0.24926494248E+02  0.19588057061E+03  0.23394052418E+03  0.12500457387E+03 0.  0.
    9000005    1    3    3    0    0  0.25191401085E+02 -0.31265638701E+02  0.59910487514E+01  0.40608367575E+02  0.10000000000E+01 0.  0.
    9000005    1    3    3    0    0 -0.35750629538E+02  0.63391444529E+01  0.18988952186E+03  0.19333215661E+03  0.10000000000E+01 0.  0.
         -4    1    1    2    0  502  0.10559228453E+02  0.24926494248E+02 -0.35213689058E+02  0.44434718612E+02  0.12700000000E+01 0.  1.
<mgrwt>
<rscale>  1 0.12790219E+03</rscale>
<asrwt>0</asrwt>
<pdfrwt beam="2">  1       21 0.90542069E-02 0.12790219E+03</pdfrwt>
<pdfrwt beam="1">  1       -4 0.33773525E-01 0.12790219E+03</pdfrwt>
<totfact> 0.32988425E+04</totfact>
</mgrwt>
</event>
<event>
 6    4  0.6376098E-003  0.1295803E+03  0.7818608E-02  0.1228080E+00
         -4   -1    0    0    0  501 -0.00000000000E+00  0.00000000000E+00  0.27237328030E+03  0.27237624111E+03  0.12700000000E+01 0.  1.
         21   -1    0    0  501  502  0.00000000000E+00 -0.00000000000E+00 -0.25293695030E+02  0.25293695030E+02  0.00000000000E+00 0.  1.
         25    2    1    2    0    0 -0.29550793917E+02 -0.17112491132E+02  0.21359256656E+03  0.24982560423E+03  0.12499984506E+03 0.  0.
    9000005    1    3    3    0    0  0.16702443258E+02  0.44033009205E+02  0.11949341123E+03  0.12844279987E+03  0.10000000000E+01 0.  0.
    9000005    1    3    3    0    0 -0.46253237175E+02 -0.61145500337E+02  0.94099155326E+02  0.12138280436E+03  0.10000000000E+01 0.  0.
         -4    1    1    2    0  502  0.29550793917E+02  0.17112491132E+02  0.33487018710E+02  0.47844331911E+02  0.12700000000E+01 0. -1.
<mgrwt>
<rscale>  1 0.12958028E+03</rscale>
<asrwt>0</asrwt>
<pdfrwt beam="2">  1       21 0.38913379E-02 0.12958028E+03</pdfrwt>
<pdfrwt beam="1">  1       -4 0.41906260E-01 0.12958028E+03</pdfrwt>
<totfact> 0.90892514E+04</totfact>
</mgrwt>
</event>
<event>
 6    4  0.6376098E-003  0.1316933E+03  0.7818608E-02  0.1224965E+00
         21   -1    0    0  501  502  0.00000000000E+00  0.00000000000E+00  0.34354593572E+03  0.34354593572E+03  0.00000000000E+00 0.  1.
          4   -1    0    0  502    0 -0.00000000000E+00 -0.00000000000E+00 -0.39419868361E+02  0.39440321012E+02  0.12700000000E+01 0. -1.
         25    2    1    2    0    0 -0.38028975198E+02  0.16492746789E+02  0.77937564148E+02  0.15302742229E+03  0.12499965767E+03 0.  0.
    9000005    1    3    3    0    0 -0.37797107353E+02  0.66951424634E+02  0.27457991378E+02  0.81645917690E+02  0.10000000000E+01 0.  0.
    9000005    1    3    3    0    0 -0.23186784474E+00 -0.50458677845E+02  0.50479572769E+02  0.71381504604E+02  0.10000000000E+01 0.  0.
          4    1    1    2  501    0  0.38028975198E+02 -0.16492746789E+02  0.22618850321E+03  0.22995883443E+03  0.12700000000E+01 0.  1.
<mgrwt>
<rscale>  1 0.13169331E+03</rscale>
<asrwt>0</asrwt>
<pdfrwt beam="1">  1       21 0.52853219E-01 0.13169331E+03</pdfrwt>
<pdfrwt beam="2">  1        4 0.60663492E-02 0.13169331E+03</pdfrwt>
<totfact> 0.24158940E+04</totfact>
</mgrwt>
</event>
<event>
 6    4  0.6376098E-003  0.1287889E+03  0.7818608E-02  0.1229264E+00
          4   -1    0    0  502    0 -0.00000000000E+00  0.00000000000E+00  0.96050545052E+02  0.96058940785E+02  0.12700000000E+01 0.  1.
         21   -1    0    0  501  502  0.00000000000E+00 -0.00000000000E+00 -0.70897928367E+02  0.70897928367E+02  0.00000000000E+00 0.  1.
         25    2    1    2    0    0 -0.13883411830E+02 -0.27702229342E+02  0.36616949639E+02  0.13389319627E+03  0.12500569735E+03 0.  0.
    9000005    1    3    3    0    0 -0.99643710415E+01 -0.46470072426E+02  0.76250281319E+02  0.89854670011E+02  0.10000000000E+01 0.  0.
    9000005    1    3    3    0    0 -0.39190407888E+01  0.18767843084E+02 -0.39633331680E+02  0.44038526256E+02  0.10000000000E+01 0.  0.
          4    1    1    2  501    0  0.13883411830E+02  0.27702229342E+02 -0.11464332955E+02  0.33063672886E+02  0.12700000000E+01 0. -1.
<mgrwt>
<rscale>  1 0.12878892E+03</rscale>
<asrwt>0</asrwt>
<pdfrwt beam="2">  1       21 0.10907374E-01 0.12878892E+03</pdfrwt>
<pdfrwt beam="1">  1        4 0.14778528E-01 0.12878892E+03</pdfrwt>
<totfact> 0.10756817E+05</totfact>
</mgrwt>
</event>
<event>
 6    4  0.6376098E-003  0.1273578E+03  0.7818608E-02  0.1231430E+00
         21   -1    0    0  501  502  0.00000000000E+00  0.00000000000E+00  0.30909727635E+02  0.30909727635E+02  0.00000000000E+00 0. -1.
         -4   -1    0    0    0  501 -0.00000000000E+00 -0.00000000000E+00 -0.23099778507E+03  0.23100127620E+03  0.12700000000E+01 0. -1.
         25    2    1    2    0    0 -0.10961164059E+02  0.21803649602E+02 -0.20043161953E+03  0.23747174876E+03  0.12499780439E+03 0.  0.
    9000005    1    3    3    0    0 -0.44993837967E+02 -0.73393309764E+01 -0.17033300911E+02  0.48676940887E+02  0.10000000000E+01 0.  0.
    9000005    1    3    3    0    0  0.34032673908E+02  0.29142980579E+02 -0.18339831861E+03  0.18879480788E+03  0.10000000000E+01 0.  0.
         -4    1    1    2    0  502  0.10961164059E+02 -0.21803649602E+02  0.34356209499E+00  0.24439255071E+02  0.12700000000E+01 0.  1.
<mgrwt>
<rscale>  1 0.12735775E+03</rscale>
<asrwt>0</asrwt>
<pdfrwt beam="1">  1       21 0.47553426E-02 0.12735775E+03</pdfrwt>
<pdfrwt beam="2">  1       -4 0.35540397E-01 0.12735775E+03</pdfrwt>
<totfact> 0.89572905E+04</totfact>
</mgrwt>
</event>
<event>
 6    4  0.6376098E-003  0.1304236E+03  0.7818608E-02  0.1226829E+00
         21   -1    0    0  501  502  0.00000000000E+00  0.00000000000E+00  0.30219066164E+02  0.30219066164E+02  0.00000000000E+00 0.  1.
          4   -1    0    0  502    0 -0.00000000000E+00 -0.00000000000E+00 -0.23255113253E+03  0.23255460034E+03  0.12700000000E+01 0.  1.
         25    2    1    2    0    0  0.22792498832E+02  0.29398239337E+02 -0.15914170056E+03  0.20575809777E+03  0.12500623770E+03 0.  0.
    9000005    1    3    3    0    0 -0.44838335413E+02  0.22607957521E+01 -0.21007271677E+02  0.49577141742E+02  0.10000000000E+01 0.  0.
    9000005    1    3    3    0    0  0.67630834245E+02  0.27137443585E+02 -0.13813442888E+03  0.15618095603E+03  0.10000000000E+01 0.  0.
          4    1    1    2  501    0 -0.22792498832E+02 -0.29398239337E+02 -0.43190365804E+02  0.57015568729E+02  0.12700000000E+01 0. -1.
<mgrwt>
<rscale>  1 0.13042359E+03</rscale>
<asrwt>0</asrwt>
<pdfrwt beam="1">  1       21 0.46490871E-02 0.13042359E+03</pdfrwt>
<pdfrwt beam="2">  1        4 0.35779417E-01 0.13042359E+03</pdfrwt>
<totfact> 0.92149214E+04</totfact>
</mgrwt>
</event>
<event>
 6    4  0.6376098E-003  0.1275673E+03  0.7818608E-02  0.1231111E+00
         21   -1    0    0  501  502  0.00000000000E+00  0.00000000000E+00  0.11232944466E+03  0.11232944466E+03  0.00000000000E+00 0. -1.
         -4   -1    0    0    0  501 -0.00000000000E+00 -0.00000000000E+00 -0.32879231821E+03  0.32879477096E+03  0.12700000000E+01 0.  1.
         25    2    1    2    0    0 -0.13104113803E+02 -0.21803614157E+02 -0.31473504628E+03  0.33960501437E+03  0.12500520403E+03 0.  0.
    9000005    1    3    3    0    0 -0.28500683609E+02 -0.34592620389E+02 -0.29501239763E+02  0.53668067779E+02  0.10000000000E+01 0.  0.
    9000005    1    3    3    0    0  0.15396569806E+02  0.12789006232E+02 -0.28523380652E+03  0.28593694659E+03  0.10000000000E+01 0.  0.
         -4    1    1    2    0  502  0.13104113803E+02  0.21803614157E+02  0.98272172736E+02  0.10151920125E+03  0.12700000000E+01 0. -1.
<mgrwt>
<rscale>  1 0.12756730E+03</rscale>
<asrwt>0</asrwt>
<pdfrwt beam="1">  1       21 0.17281453E-01 0.12756730E+03</pdfrwt>
<pdfrwt beam="2">  1       -4 0.50584174E-01 0.12756730E+03</pdfrwt>
<totfact> 0.47036972E+03</totfact>
</mgrwt>
</event>
<event>
 6    4  0.6376098E-003  0.1281645E+03  0.7818608E-02  0.1230205E+00
         -4   -1    0    0    0  501 -0.00000000000E+00  0.00000000000E+00  0.64410799270E+01  0.65650902984E+01  0.12700000000E+01 0. -1.
         21   -1    0    0  501  502  0.00000000000E+00 -0.00000000000E+00 -0.16393804914E+04  0.16393804914E+04  0.00000000000E+00 0.  1.
         25    2    1    2    0    0 -0.26988301156E+02 -0.85000855617E+01 -0.64552990170E+03  0.65812992443E+03  0.12500209433E+03 0.  0.
    9000005    1    3    3    0    0  0.18386658489E+02 -0.49915198213E+02 -0.15740618356E+03  0.16615445478E+03  0.10000000000E+01 0.  0.
    9000005    1    3    3    0    0 -0.45374959645E+02  0.41415112651E+02 -0.48812371814E+03  0.49197546965E+03  0.10000000000E+01 0.  0.
         -4    1    1    2    0  502  0.26988301156E+02  0.85000855617E+01 -0.98740950977E+03  0.98781565727E+03  0.12700000000E+01 0.  1.
<mgrwt>
<rscale>  1 0.12816452E+03</rscale>
<asrwt>0</asrwt>
<pdfrwt beam="2">  1       21 0.25221240E+00 0.12816452E+03</pdfrwt>
<pdfrwt beam="1">  1       -4 0.10005124E-02 0.12816452E+03</pdfrwt>
<totfact> 0.80545529E+03</totfact>
</mgrwt>
</event>
<event>
 6    4  0.6376098E-003  0.1277444E+03  0.7818608E-02  0.1230841E+00
         -4   -1    0    0    0  501 -0.00000000000E+00  0.00000000000E+00  0.14043950001E+03  0.14044524222E+03  0.12700000000E+01 0.  1.
         21   -1    0    0  501  502  0.00000000000E+00 -0.00000000000E+00 -0.19010808187E+03  0.19010808187E+03  0.00000000000E+00 0. -1.
         25    2    1    2    0    0  0.26267277220E+02 -0.18599417913E+01  0.11008818595E+03  0.16863585439E+03  0.12500085385E+03 0.  0.
    9000005    1    3    3    0    0  0.40699997708E+02  0.32752207630E+02 -0.84621199925E-01  0.52251354803E+02  0.10000000000E+01 0.  0.
    9000005    1    3    3    0    0 -0.14432720488E+02 -0.34612149421E+02  0.11017280715E+03  0.11638449958E+03  0.10000000000E+01 0.  0.
         -4    1    1    2    0  502 -0.26267277220E+02  0.18599417913E+01 -0.15975676780E+03  0.16191746970E+03  0.12700000000E+01 0. -1.
<mgrwt>
<rscale>  1 0.12774444E+03</rscale>
<asrwt>0</asrwt>
<pdfrwt beam="2">  1       21 0.29247397E-01 0.12774444E+03</pdfrwt>
<pdfrwt beam="1">  1       -4 0.21606845E-01 0.12774444E+03</pdfrwt>
<totfact> 0.89764843E+03</totfact>
</mgrwt>
</event>
<event>
 6    4  0.6376098E-003  0.1310530E+03  0.7818608E-02  0.1225902E+00
         21   -1    0    0  501  502  0.00000000000E+00  0.00000000000E+00  0.79085577797E+03  0.79085577797E+03  0.00000000000E+00 0. -1.
         -4   -1    0    0    0  501 -0.00000000000E+00 -0.00000000000E+00 -0.20184803655E+02  0.20224717515E+02  0.12700000000E+01 0. -1.
         25    2    1    2    0    0  0.37343517317E+02 -0.12473647717E+02  0.20037978556E+03  0.23943044253E+03  0.12499899270E+03 0.  0.
    9000005    1    3    3    0    0  0.82244824796E+02  0.74252671106E+00  0.10690271226E+03  0.13488496002E+03  0.10000000000E+01 0.  0.
    9000005    1    3    3    0    0 -0.44901307480E+02 -0.13216174428E+02  0.93477073307E+02  0.10454548251E+03  0.10000000000E+01 0.  0.
         -4    1    1    2    0  502 -0.37343517317E+02  0.12473647717E+02  0.57029118875E+03  0.57165005295E+03  0.12700000000E+01 0.  1.
<mgrwt>
<rscale>  1 0.13105296E+03</rscale>
<asrwt>0</asrwt>
<pdfrwt beam="1">  1       21 0.12167010E+00 0.13105296E+03</pdfrwt>
<pdfrwt beam="2">  1       -4 0.31085038E-02 0.13105296E+03</pdfrwt>
<totfact> 0.10779731E+04</totfact>
</mgrwt>
</event>
<event>
 6    4  0.6376098E-003  0.1430137E+03  0.7818608E-02  0.1209330E+00
         21   -1    0    0  501  502  0.00000000000E+00  0.00000000000E+00  0.55146104241E+02  0.55146104241E+02  0.00000000000E+00 0. -1.
         -4   -1    0    0    0  501 -0.00000000000E+00 -0.00000000000E+00 -0.44061563662E+03  0.44061746689E+03  0.12700000000E+01 0.  1.
         25    2    1    2    0    0 -0.49743850740E+02 -0.48502412117E+02 -0.39997848876E+03  0.42477725286E+03  0.12500395357E+03 0.  0.
    9000005    1    3    3    0    0 -0.83522962682E+02 -0.61167778029E+02 -0.25150108648E+03  0.27197679839E+03  0.10000000000E+01 0.  0.
    9000005    1    3    3    0    0  0.33779111942E+02  0.12665365912E+02 -0.14847740228E+03  0.15280045447E+03  0.10000000000E+01 0.  0.
         -4    1    1    2    0  502  0.49743850740E+02  0.48502412117E+02  0.14508956379E+02  0.70986318279E+02  0.12700000000E+01 0. -1.
<mgrwt>
<rscale>  1 0.14301372E+03</rscale>
<asrwt>0</asrwt>
<pdfrwt beam="1">  1       21 0.84840158E-02 0.14301372E+03</pdfrwt>
<pdfrwt beam="2">  1       -4 0.67788288E-01 0.14301372E+03</pdfrwt>
<totfact> 0.91047452E+03</totfact>
</mgrwt>
</event>
<event>
 6    4  0.6376098E-003  0.1315162E+03  0.7818608E-02  0.1225223E+00
          4   -1    0    0  502    0 -0.00000000000E+00  0.00000000000E+00  0.11974953404E+03  0.11975626833E+03  0.12700000000E+01 0.  1.
         21   -1    0    0  501  502  0.00000000000E+00 -0.00000000000E+00 -0.86354622076E+02  0.86354622076E+02  0.00000000000E+00 0. -1.
         25    2    1    2    0    0  0.21493503963E+02  0.34774439179E+02  0.71943006399E+02  0.14990768038E+03  0.12500113653E+03 0.  0.
    9000005    1    3    3    0    0  0.47178195926E+02  0.35549502430E+02  0.97274523133E+02  0.11381072948E+03  0.10000000000E+01 0.  0.
    9000005    1    3    3    0    0 -0.25684691963E+02 -0.77506325090E+00 -0.25331516734E+02  0.36096950901E+02  0.10000000000E+01 0.  0.
          4    1    1    2  501    0 -0.21493503963E+02 -0.34774439179E+02 -0.38548094430E+02  0.56203210024E+02  0.12700000000E+01 0. -1.
<mgrwt>
<rscale>  1 0.13151622E+03</rscale>
<asrwt>0</asrwt>
<pdfrwt beam="2">  1       21 0.13285327E-01 0.13151622E+03</pdfrwt>
<pdfrwt beam="1">  1        4 0.18424242E-01 0.13151622E+03</pdfrwt>
<totfact> 0.51576760E+04</totfact>
</mgrwt>
</event>
<event>
 6    4  0.6376098E-003  0.1277921E+03  0.7818608E-02  0.1230769E+00
         -4   -1    0    0    0  501 -0.00000000000E+00  0.00000000000E+00  0.26799038596E+02  0.26829114217E+02  0.12700000000E+01 0.  1.
         21   -1    0    0  501  502  0.00000000000E+00 -0.00000000000E+00 -0.40480749492E+03  0.40480749492E+03  0.00000000000E+00 0. -1.
         25    2    1    2    0    0  0.50485576425E+01 -0.26085425085E+02 -0.13031163590E+03  0.18251562430E+03  0.12499957331E+03 0.  0.
    9000005    1    3    3    0    0 -0.28838207889E+02 -0.50227326226E+02 -0.12838974173E+03  0.14085223575E+03  0.10000000000E+01 0.  0.
    9000005    1    3    3    0    0  0.33886765532E+02  0.24141901141E+02 -0.19218941734E+01  0.41663388558E+02  0.10000000000E+01 0.  0.
         -4    1    1    2    0  502 -0.50485576425E+01  0.26085425085E+02 -0.24769682042E+03  0.24912098483E+03  0.12700000000E+01 0. -1.
<mgrwt>
<rscale>  1 0.12779214E+03</rscale>
<asrwt>0</asrwt>
<pdfrwt beam="2">  1       21 0.62278069E-01 0.12779214E+03</pdfrwt>
<pdfrwt beam="1">  1       -4 0.41253962E-02 0.12779214E+03</pdfrwt>
<totfact> 0.31665828E+04</totfact>
</mgrwt>
</event>
<event>
 6    4  0.6376098E-003  0.1320981E+03  0.7818608E-02  0.1224375E+00
         -4   -1    0    0    0  501 -0.00000000000E+00  0.00000000000E+00  0.61844497234E+02  0.61857535823E+02  0.12700000000E+01 0.  1.
         21   -1    0    0  501  502  0.00000000000E+00 -0.00000000000E+00 -0.30703712692E+03  0.30703712692E+03  0.00000000000E+00 0. -1.
         25    2    1    2    0    0 -0.30109754642E+02 -0.30305993427E+02 -0.12926532438E+02  0.13272903571E+03  0.12499940447E+03 0.  0.
    9000005    1    3    3    0    0  0.42012047132E+02  0.15776683747E+02 -0.14344999382E+02  0.47124249188E+02  0.10000000000E+01 0.  0.
    9000005    1    3    3    0    0 -0.72121801773E+02 -0.46082677175E+02  0.14184669440E+01  0.85604786520E+02  0.10000000000E+01 0.  0.
         -4    1    1    2    0  502  0.30109754642E+02  0.30305993427E+02 -0.23226609725E+03  0.23616562704E+03  0.12700000000E+01 0. -1.
<mgrwt>
<rscale>  1 0.13209808E+03</rscale>
<asrwt>0</asrwt>
<pdfrwt beam="2">  1       21 0.47236481E-01 0.13209808E+03</pdfrwt>
<pdfrwt beam="1">  1       -4 0.95157430E-02 0.13209808E+03</pdfrwt>
<totfact> 0.14496611E+04</totfact>
</mgrwt>
</event>
<event>
 6    4  0.6376098E-003  0.1270209E+03  0.7818608E-02  0.1231944E+00
          4   -1    0    0  502    0 -0.00000000000E+00  0.00000000000E+00  0.48859578692E+02  0.48876081368E+02  0.12700000000E+01 0. -1.
         21   -1    0    0  501  502  0.00000000000E+00 -0.00000000000E+00 -0.19546549045E+03  0.19546549045E+03  0.00000000000E+00 0. -1.
         25    2    1    2    0    0  0.22466100438E+02  0.16766802316E+01 -0.36804357259E+02  0.13224549162E+03  0.12500708946E+03 0.  0.
    9000005    1    3    3    0    0  0.34146120043E+02 -0.14922532040E+02  0.38889952813E+02  0.53870844678E+02  0.10000000000E+01 0.  0.
    9000005    1    3    3    0    0 -0.11680019606E+02  0.16599212272E+02 -0.75694310072E+02  0.78374646942E+02  0.10000000000E+01 0.  0.
          4    1    1    2  501    0 -0.22466100438E+02 -0.16766802316E+01 -0.10980155450E+03  0.11209608020E+03  0.12700000000E+01 0. -1.
<mgrwt>
<rscale>  1 0.12702090E+03</rscale>
<asrwt>0</asrwt>
<pdfrwt beam="2">  1       21 0.30071614E-01 0.12702090E+03</pdfrwt>
<pdfrwt beam="1">  1        4 0.75184450E-02 0.12702090E+03</pdfrwt>
<totfact> 0.52342550E+04</totfact>
</mgrwt>
</event>
<event>
 6    4  0.6376098E-003  0.1411450E+03  0.7818608E-02  0.1211797E+00
          4   -1    0    0  502    0 -0.00000000000E+00  0.00000000000E+00  0.14341214259E+03  0.14341776579E+03  0.12700000000E+01 0.  1.
         21   -1    0    0  501  502  0.00000000000E+00 -0.00000000000E+00 -0.11112369537E+03  0.11112369537E+03  0.00000000000E+00 0. -1.
         25    2    1    2    0    0 -0.15414985347E+02 -0.63714067175E+02  0.89831223747E+02  0.16730678824E+03  0.12499923400E+03 0.  0.
    9000005    1    3    3    0    0 -0.17941243458E+01  0.26642922593E+02  0.68413617531E+02  0.73447173330E+02  0.10000000000E+01 0.  0.
    9000005    1    3    3    0    0 -0.13620861001E+02 -0.90356989768E+02  0.21417606216E+02  0.93859614906E+02  0.10000000000E+01 0.  0.
          4    1    1    2  501    0  0.15414985347E+02  0.63714067175E+02 -0.57542776524E+02  0.87234672919E+02  0.12700000000E+01 0. -1.
<mgrwt>
<rscale>  1 0.14114501E+03</rscale>
<asrwt>0</asrwt>
<pdfrwt beam="2">  1       21 0.17095953E-01 0.14114501E+03</pdfrwt>
<pdfrwt beam="1">  1        4 0.22064397E-01 0.14114501E+03</pdfrwt>
<totfact> 0.23822283E+04</totfact>
</mgrwt>
</event>
<event>
 6    4  0.6376098E-003  0.1270882E+03  0.7818608E-02  0.1231841E+00
         21   -1    0    0  501  502  0.00000000000E+00  0.00000000000E+00  0.71360824653E+02  0.71360824653E+02  0.00000000000E+00 0.  1.
         -4   -1    0    0    0  501 -0.00000000000E+00 -0.00000000000E+00 -0.18270357361E+03  0.18270798754E+03  0.12700000000E+01 0. -1.
         25    2    1    2    0    0 -0.11898606041E+02 -0.19620422036E+02 -0.15757576898E+03  0.20243894848E+03  0.12499946843E+03 0.  0.
    9000005    1    3    3    0    0  0.48376097573E+02 -0.40599149164E+02 -0.74434623109E+02  0.97621979321E+02  0.10000000000E+01 0.  0.
    9000005    1    3    3    0    0 -0.60274703614E+02  0.20978727128E+02 -0.83141145870E+02  0.10481696916E+03  0.10000000000E+01 0.  0.
         -4    1    1    2    0  502  0.11898606041E+02  0.19620422036E+02  0.46233020020E+02  0.51629863710E+02  0.12700000000E+01 0.  1.
<mgrwt>
<rscale>  1 0.12708818E+03</rscale>
<asrwt>0</asrwt>
<pdfrwt beam="1">  1       21 0.10978588E-01 0.12708818E+03</pdfrwt>
<pdfrwt beam="2">  1       -4 0.28109451E-01 0.12708818E+03</pdfrwt>
<totfact> 0.33319704E+04</totfact>
</mgrwt>
</event>
<event>
 6    4  0.6376098E-003  0.1366667E+03  0.7818608E-02  0.1217886E+00
         21   -1    0    0  501  502  0.00000000000E+00  0.00000000000E+00  0.40384777824E+02  0.40384777824E+02  0.00000000000E+00 0.  1.
          4   -1    0    0  502    0 -0.00000000000E+00 -0.00000000000E+00 -0.36088757667E+03  0.36088981130E+03  0.12700000000E+01 0. -1.
         25    2    1    2    0    0  0.32952645236E+02 -0.44341626036E+02 -0.31780954192E+03  0.34594897877E+03  0.12500293736E+03 0.  0.
    9000005    1    3    3    0    0  0.78821581771E+02 -0.38744257230E+02 -0.23842359205E+03  0.25408811162E+03  0.10000000000E+01 0.  0.
    9000005    1    3    3    0    0 -0.45868936535E+02 -0.55973688058E+01 -0.79385949871E+02  0.91860867149E+02  0.10000000000E+01 0.  0.
          4    1    1    2  501    0 -0.32952645236E+02  0.44341626036E+02 -0.26932569268E+01  0.55325610348E+02  0.12700000000E+01 0.  1.
<mgrwt>
<rscale>  1 0.13666671E+03</rscale>
<asrwt>0</asrwt>
<pdfrwt beam="1">  1       21 0.62130428E-02 0.13666671E+03</pdfrwt>
<pdfrwt beam="2">  1        4 0.55522873E-01 0.13666671E+03</pdfrwt>
<totfact> 0.23587371E+04</totfact>
</mgrwt>
</event>
<event>
 6    4  0.6376098E-003  0.1272546E+03  0.7818608E-02  0.1231587E+00
          4   -1    0    0  502    0 -0.00000000000E+00  0.00000000000E+00  0.72905544203E+03  0.72905654818E+03  0.12700000000E+01 0.  1.
         21   -1    0    0  501  502  0.00000000000E+00 -0.00000000000E+00 -0.37707378340E+02  0.37707378340E+02  0.00000000000E+00 0. -1.
         25    2    1    2    0    0 -0.20574314055E+02 -0.12011545330E+02  0.71903899972E+03  0.73021286008E+03  0.12500463311E+03 0.  0.
    9000005    1    3    3    0    0  0.35612158397E+02  0.83199618044E+01  0.54448061279E+03  0.54570833353E+03  0.10000000000E+01 0.  0.
    9000005    1    3    3    0    0 -0.56186472452E+02 -0.20331507134E+02  0.17455838693E+03  0.18450452655E+03  0.10000000000E+01 0.  0.
          4    1    1    2  501    0  0.20574314055E+02  0.12011545330E+02 -0.27690936027E+02  0.36551066443E+02  0.12700000000E+01 0. -1.
<mgrwt>
<rscale>  1 0.12725462E+03</rscale>
<asrwt>0</asrwt>
<pdfrwt beam="2">  1       21 0.58011357E-02 0.12725462E+03</pdfrwt>
<pdfrwt beam="1">  1        4 0.11216410E+00 0.12725462E+03</pdfrwt>
<totfact> 0.55686301E+03</totfact>
</mgrwt>
</event>
<event>
 6    4  0.6376098E-003  0.1286535E+03  0.7818608E-02  0.1229467E+00
         -4   -1    0    0    0  501 -0.00000000000E+00  0.00000000000E+00  0.40012272838E+02  0.40032422831E+02  0.12700000000E+01 0.  1.
         21   -1    0    0  501  502  0.00000000000E+00 -0.00000000000E+00 -0.36708427821E+03  0.36708427821E+03  0.00000000000E+00 0. -1.
         25    2    1    2    0    0  0.26194399250E+02  0.15542085639E+02 -0.66605755782E+02  0.14487257231E+03  0.12499613005E+03 0.  0.
    9000005    1    3    3    0    0 -0.48926103694E+02  0.80145802686E+00 -0.10767095549E+02  0.50113234820E+02  0.10000000000E+01 0.  0.
    9000005    1    3    3    0    0  0.75120502944E+02  0.14740627612E+02 -0.55838660233E+02  0.94759337490E+02  0.10000000000E+01 0.  0.
         -4    1    1    2    0  502 -0.26194399250E+02 -0.15542085639E+02 -0.26046624959E+03  0.26224412873E+03  0.12700000000E+01 0. -1.
<mgrwt>
<rscale>  1 0.12865355E+03</rscale>
<asrwt>0</asrwt>
<pdfrwt beam="2">  1       21 0.56474506E-01 0.12865355E+03</pdfrwt>
<pdfrwt beam="1">  1       -4 0.61574531E-02 0.12865355E+03</pdfrwt>
<totfact> 0.20484489E+04</totfact>
</mgrwt>
</event>
<event>
 6    4  0.6376098E-003  0.1299370E+03  0.7818608E-02  0.1227549E+00
         -4   -1    0    0    0  501 -0.00000000000E+00  0.00000000000E+00  0.76502858821E+01  0.77549838219E+01  0.12700000000E+01 0. -1.
         21   -1    0    0  501  502  0.00000000000E+00 -0.00000000000E+00 -0.15648574377E+04  0.15648574377E+04  0.00000000000E+00 0. -1.
         25    2    1    2    0    0  0.24553522314E+02 -0.25609268235E+02 -0.56413020051E+03  0.57890111828E+03  0.12499964615E+03 0.  0.
    9000005    1    3    3    0    0  0.68377684150E+02  0.67935160366E+01 -0.40254285172E+03  0.40836675553E+03  0.10000000000E+01 0.  0.
    9000005    1    3    3    0    0 -0.43824161836E+02 -0.32402784272E+02 -0.16158734880E+03  0.17053436275E+03  0.10000000000E+01 0.  0.
         -4    1    1    2    0  502 -0.24553522314E+02  0.25609268235E+02 -0.99307695128E+03  0.99371130322E+03  0.12700000000E+01 0.  1.
<mgrwt>
<rscale>  1 0.12993699E+03</rscale>
<asrwt>0</asrwt>
<pdfrwt beam="2">  1       21 0.24074721E+00 0.12993699E+03</pdfrwt>
<pdfrwt beam="1">  1       -4 0.11850608E-02 0.12993699E+03</pdfrwt>
<totfact> 0.72642675E+03</totfact>
</mgrwt>
</event>
<event>
 6    4  0.6376098E-003  0.1323886E+03  0.7818608E-02  0.1223954E+00
          4   -1    0    0  502    0 -0.00000000000E+00  0.00000000000E+00  0.15867987872E+03  0.15868496088E+03  0.12700000000E+01 0. -1.
         21   -1    0    0  501  502  0.00000000000E+00 -0.00000000000E+00 -0.10587448711E+03  0.10587448711E+03  0.00000000000E+00 0.  1.
         25    2    1    2    0    0 -0.36887148763E+02 -0.23269054215E+02  0.12378344127E+03  0.18124314069E+03  0.12499850034E+03 0.  0.
    9000005    1    3    3    0    0  0.13676439089E+01 -0.10963116514E+02  0.13812036361E+03  0.13856512987E+03  0.10000000000E+01 0.  0.
    9000005    1    3    3    0    0 -0.38254792672E+02 -0.12305937701E+02 -0.14336922339E+02  0.42678010816E+02  0.10000000000E+01 0.  0.
          4    1    1    2  501    0  0.36887148763E+02  0.23269054215E+02 -0.70978049666E+02  0.83316307301E+02  0.12700000000E+01 0.  1.
<mgrwt>
<rscale>  1 0.13238858E+03</rscale>
<asrwt>0</asrwt>
<pdfrwt beam="2">  1       21 0.16288383E-01 0.13238858E+03</pdfrwt>
<pdfrwt beam="1">  1        4 0.24413266E-01 0.13238858E+03</pdfrwt>
<totfact> 0.21483855E+04</totfact>
</mgrwt>
</event>
<event>
 6    4  0.6376098E-003  0.1309672E+03  0.7818608E-02  0.1226028E+00
         21   -1    0    0  501  502  0.00000000000E+00  0.00000000000E+00  0.17216251663E+04  0.17216251663E+04  0.00000000000E+00 0. -1.
         -4   -1    0    0    0  501 -0.00000000000E+00 -0.00000000000E+00 -0.11644183610E+02  0.11713236613E+02  0.12700000000E+01 0.  1.
         25    2    1    2    0    0  0.25905603704E+02 -0.29267560202E+02  0.36493554982E+03  0.38772459511E+03  0.12499886297E+03 0.  0.
    9000005    1    3    3    0    0 -0.38496925028E+02  0.22160955980E+02  0.17732776003E+03  0.18280934244E+03  0.10000000000E+01 0.  0.
    9000005    1    3    3    0    0  0.64402528733E+02 -0.51428516182E+02  0.18760778979E+03  0.20491525267E+03  0.10000000000E+01 0.  0.
         -4    1    1    2    0  502 -0.25905603704E+02  0.29267560202E+02  0.13450454328E+04  0.13456138078E+04  0.12700000000E+01 0. -1.
<mgrwt>
<rscale>  1 0.13096719E+03</rscale>
<asrwt>0</asrwt>
<pdfrwt beam="1">  1       21 0.26486521E+00 0.13096719E+03</pdfrwt>
<pdfrwt beam="2">  1       -4 0.17967620E-02 0.13096719E+03</pdfrwt>
<totfact> 0.28037802E+03</totfact>
</mgrwt>
</event>
<event>
 6    4  0.6376098E-003  0.1272206E+03  0.7818608E-02  0.1231639E+00
          4   -1    0    0  502    0 -0.00000000000E+00  0.00000000000E+00  0.61611395155E+01  0.62906708807E+01  0.12700000000E+01 0.  1.
         21   -1    0    0  501  502  0.00000000000E+00 -0.00000000000E+00 -0.93618990556E+03  0.93618990556E+03  0.00000000000E+00 0. -1.
         25    2    1    2    0    0 -0.35738376581E+01  0.23396185889E+02 -0.72395276634E+03  0.73504604608E+03  0.12499971258E+03 0.  0.
    9000005    1    3    3    0    0 -0.46283951367E+02  0.30664527308E+02 -0.15869937423E+03  0.16813390131E+03  0.10000000000E+01 0.  0.
    9000005    1    3    3    0    0  0.42710113709E+02 -0.72683414197E+01 -0.56525339210E+03  0.56691214477E+03  0.10000000000E+01 0.  0.
          4    1    1    2  501    0  0.35738376581E+01 -0.23396185889E+02 -0.20607599971E+03  0.20743453036E+03  0.12700000000E+01 0. -1.
<mgrwt>
<rscale>  1 0.12722060E+03</rscale>
<asrwt>0</asrwt>
<pdfrwt beam="2">  1       21 0.14402909E+00 0.12722060E+03</pdfrwt>
<pdfrwt beam="1">  1        4 0.95789868E-03 0.12722060E+03</pdfrwt>
<totfact> 0.42814399E+04</totfact>
</mgrwt>
</event>
<event>
 6    4  0.6376098E-003  0.1269886E+03  0.7818608E-02  0.1231994E+00
          4   -1    0    0  502    0 -0.00000000000E+00  0.00000000000E+00  0.72653257358E+02  0.72664356495E+02  0.12700000000E+01 0.  1.
         21   -1    0    0  501  502  0.00000000000E+00 -0.00000000000E+00 -0.17510394911E+03  0.17510394911E+03  0.00000000000E+00 0. -1.
         25    2    1    2    0    0 -0.17687188405E+02 -0.13728101690E+02  0.15294753173E+02  0.12790630116E+03  0.12499917996E+03 0.  0.
    9000005    1    3    3    0    0 -0.55902256489E+02 -0.46212529653E+02 -0.72667522206E+01  0.72900383163E+02  0.10000000000E+01 0.  0.
    9000005    1    3    3    0    0  0.38215068084E+02  0.32484427963E+02  0.22561505394E+02  0.55005917994E+02  0.10000000000E+01 0.  0.
          4    1    1    2  501    0  0.17687188405E+02  0.13728101690E+02 -0.11774544492E+03  0.11986200444E+03  0.12700000000E+01 0. -1.
<mgrwt>
<rscale>  1 0.12698855E+03</rscale>
<asrwt>0</asrwt>
<pdfrwt beam="2">  1       21 0.26939069E-01 0.12698855E+03</pdfrwt>
<pdfrwt beam="1">  1        4 0.11178632E-01 0.12698855E+03</pdfrwt>
<totfact> 0.33301266E+04</totfact>
</mgrwt>
</event>
<event>
 6    4  0.6376098E-003  0.1327752E+03  0.7818608E-02  0.1223395E+00
         21   -1    0    0  501  502  0.00000000000E+00  0.00000000000E+00  0.34597547635E+03  0.34597547635E+03  0.00000000000E+00 0.  1.
         -4   -1    0    0    0  501 -0.00000000000E+00 -0.00000000000E+00 -0.80998238832E+02  0.81008194610E+02  0.12700000000E+01 0. -1.
         25    2    1    2    0    0  0.36459620678E+02 -0.25980452018E+02 -0.23681927636E+02  0.13487065455E+03  0.12499988774E+03 0.  0.
    9000005    1    3    3    0    0  0.73410657737E+02 -0.94215417535E+01  0.18597864316E+02  0.76320185243E+02  0.10000000000E+01 0.  0.
    9000005    1    3    3    0    0 -0.36951037059E+02 -0.16558910264E+02 -0.42279791952E+02  0.58550469310E+02  0.10000000000E+01 0.  0.
         -4    1    1    2    0  502 -0.36459620678E+02  0.25980452018E+02  0.28865916515E+03  0.29211301640E+03  0.12700000000E+01 0.  1.
<mgrwt>
<rscale>  1 0.13277522E+03</rscale>
<asrwt>0</asrwt>
<pdfrwt beam="1">  1       21 0.53226996E-01 0.13277522E+03</pdfrwt>
<pdfrwt beam="2">  1       -4 0.12462213E-01 0.13277522E+03</pdfrwt>
<totfact> 0.71721482E+03</totfact>
</mgrwt>
</event>
<event>
 6    4  0.6376098E-003  0.1295363E+03  0.7818608E-02  0.1228145E+00
         -4   -1    0    0    0  501 -0.00000000000E+00  0.00000000000E+00  0.13984078979E+02  0.14041629709E+02  0.12700000000E+01 0. -1.
         21   -1    0    0  501  502  0.00000000000E+00 -0.00000000000E+00 -0.49954952449E+03  0.49954952449E+03  0.00000000000E+00 0. -1.
         25    2    1    2    0    0  0.16995108999E+02  0.29412222762E+02 -0.33352199426E+03  0.35779405362E+03  0.12500300628E+03 0.  0.
    9000005    1    3    3    0    0 -0.12299148754E+01  0.64936095720E+02 -0.89847890512E+02  0.11086862788E+03  0.10000000000E+01 0.  0.
    9000005    1    3    3    0    0  0.18225023874E+02 -0.35523872957E+02 -0.24367410374E+03  0.24692542575E+03  0.10000000000E+01 0.  0.
         -4    1    1    2    0  502 -0.16995108999E+02 -0.29412222762E+02 -0.15204345125E+03  0.15579710057E+03  0.12700000000E+01 0.  1.
<mgrwt>
<rscale>  1 0.12953634E+03</rscale>
<asrwt>0</asrwt>
<pdfrwt beam="2">  1       21 0.76853776E-01 0.12953634E+03</pdfrwt>
<pdfrwt beam="1">  1       -4 0.21559478E-02 0.12953634E+03</pdfrwt>
<totfact> 0.55395731E+04</totfact>
</mgrwt>
</event>
<event>
 6    4  0.6376098E-003  0.1291044E+03  0.7818608E-02  0.1228791E+00
         21   -1    0    0  501  502  0.00000000000E+00  0.00000000000E+00  0.46906040292E+02  0.46906040292E+02  0.00000000000E+00 0.  1.
         -4   -1    0    0    0  501 -0.00000000000E+00 -0.00000000000E+00 -0.28302707425E+03  0.28302992361E+03  0.12700000000E+01 0. -1.
         25    2    1    2    0    0 -0.27694843939E+02 -0.16605395177E+02 -0.25964014089E+03  0.28996716581E+03  0.12500084384E+03 0.  0.
    9000005    1    3    3    0    0 -0.59072196265E+02  0.20259179228E+02 -0.21577284452E+03  0.22463053921E+03  0.10000000000E+01 0.  0.
    9000005    1    3    3    0    0  0.31377352326E+02 -0.36864574406E+02 -0.43867296371E+02  0.65336626604E+02  0.10000000000E+01 0.  0.
         -4    1    1    2    0  502  0.27694843939E+02  0.16605395177E+02  0.23519106930E+02  0.39968798088E+02  0.12700000000E+01 0.  1.
<mgrwt>
<rscale>  1 0.12910443E+03</rscale>
<asrwt>0</asrwt>
<pdfrwt beam="1">  1       21 0.72163140E-02 0.12910443E+03</pdfrwt>
<pdfrwt beam="2">  1       -4 0.43544168E-01 0.12910443E+03</pdfrwt>
<totfact> 0.29733069E+04</totfact>
</mgrwt>
</event>
<event>
 6    4  0.6376098E-003  0.1425643E+03  0.7818608E-02  0.1209920E+00
         21   -1    0    0  501  502  0.00000000000E+00  0.00000000000E+00  0.36614299391E+02  0.36614299391E+02  0.00000000000E+00 0. -1.
          4   -1    0    0  502    0 -0.00000000000E+00 -0.00000000000E+00 -0.38027003814E+03  0.38027215886E+03  0.12700000000E+01 0.  1.
         25    2    1    2    0    0 -0.55374332587E+02  0.40425980541E+02 -0.30845361024E+03  0.33980611469E+03  0.12499595713E+03 0.  0.
    9000005    1    3    3    0    0  0.22108993307E+02  0.50223467923E+01 -0.20287951236E+03  0.20414487035E+03  0.10000000000E+01 0.  0.
    9000005    1    3    3    0    0 -0.77483325894E+02  0.35403633749E+02 -0.10557409787E+03  0.13566124434E+03  0.10000000000E+01 0.  0.
          4    1    1    2  501    0  0.55374332587E+02 -0.40425980541E+02 -0.35202128508E+02  0.77080343562E+02  0.12700000000E+01 0. -1.
<mgrwt>
<rscale>  1 0.14256425E+03</rscale>
<asrwt>0</asrwt>
<pdfrwt beam="1">  1       21 0.56329692E-02 0.14256425E+03</pdfrwt>
<pdfrwt beam="2">  1        4 0.58504940E-01 0.14256425E+03</pdfrwt>
<totfact> 0.25094289E+04</totfact>
</mgrwt>
</event>
<event>
 6    4  0.6376098E-003  0.1319468E+03  0.7818608E-02  0.1224595E+00
         21   -1    0    0  501  502  0.00000000000E+00  0.00000000000E+00  0.82888023416E+03  0.82888023416E+03  0.00000000000E+00 0. -1.
          4   -1    0    0  502    0 -0.00000000000E+00 -0.00000000000E+00 -0.44170536327E+02  0.44188790200E+02  0.12700000000E+01 0.  1.
         25    2    1    2    0    0  0.42057628711E+02  0.41165747105E+01  0.56337357988E+02  0.14347073169E+03  0.12499665046E+03 0.  0.
    9000005    1    3    3    0    0  0.98293041612E+01  0.57608668736E+02  0.56093891235E+02  0.81011718706E+02  0.10000000000E+01 0.  0.
    9000005    1    3    3    0    0  0.32228324550E+02 -0.53492094025E+02  0.24346675328E+00  0.62459012981E+02  0.10000000000E+01 0.  0.
          4    1    1    2  501    0 -0.42057628711E+02 -0.41165747105E+01  0.72837233984E+03  0.72959829267E+03  0.12700000000E+01 0. -1.
<mgrwt>
<rscale>  1 0.13194678E+03</rscale>
<asrwt>0</asrwt>
<pdfrwt beam="1">  1       21 0.12752002E+00 0.13194678E+03</pdfrwt>
<pdfrwt beam="2">  1        4 0.67969467E-02 0.13194678E+03</pdfrwt>
<totfact> 0.27461336E+03</totfact>
</mgrwt>
</event>
<event>
 6    4  0.6376098E-003  0.1270752E+03  0.7818608E-02  0.1231861E+00
         -4   -1    0    0    0  501 -0.00000000000E+00  0.00000000000E+00  0.28179041745E+03  0.28179327932E+03  0.12700000000E+01 0.  1.
         21   -1    0    0  501  502  0.00000000000E+00 -0.00000000000E+00 -0.76382620657E+02  0.76382620657E+02  0.00000000000E+00 0. -1.
         25    2    1    2    0    0 -0.22852615603E+02  0.37555715752E+00  0.26524265096E+03  0.29411182458E+03  0.12500287351E+03 0.  0.
    9000005    1    3    3    0    0 -0.18156476010E+02  0.41140882781E+02  0.24358165999E+03  0.24769992923E+03  0.10000000000E+01 0.  0.
    9000005    1    3    3    0    0 -0.46961395926E+01 -0.40765325624E+02  0.21660990975E+02  0.46411895353E+02  0.10000000000E+01 0.  0.
         -4    1    1    2    0  502  0.22852615603E+02 -0.37555715752E+00 -0.59834854166E+02  0.64064075394E+02  0.12700000000E+01 0. -1.
<mgrwt>
<rscale>  1 0.12707518E+03</rscale>
<asrwt>0</asrwt>
<pdfrwt beam="2">  1       21 0.11751173E-01 0.12707518E+03</pdfrwt>
<pdfrwt beam="1">  1       -4 0.43353403E-01 0.12707518E+03</pdfrwt>
<totfact> 0.12818553E+04</totfact>
</mgrwt>
</event>
<event>
 6    4  0.6376098E-003  0.1274865E+03  0.7818608E-02  0.1231234E+00
         21   -1    0    0  501  502  0.00000000000E+00  0.00000000000E+00  0.50495302401E+02  0.50495302401E+02  0.00000000000E+00 0.  1.
         -4   -1    0    0    0  501 -0.00000000000E+00 -0.00000000000E+00 -0.12860332241E+03  0.12860959310E+03  0.12700000000E+01 0.  1.
         25    2    1    2    0    0  0.22484673728E+02 -0.11076957692E+02 -0.84820895706E+02  0.15312538156E+03  0.12499815433E+03 0.  0.
    9000005    1    3    3    0    0  0.21172904146E+02 -0.45797780465E+02 -0.10240976162E+03  0.11416868152E+03  0.10000000000E+01 0.  0.
    9000005    1    3    3    0    0  0.13117695821E+01  0.34720822773E+02  0.17588865915E+02  0.38956700035E+02  0.10000000000E+01 0.  0.
         -4    1    1    2    0  502 -0.22484673728E+02  0.11076957692E+02  0.67128756919E+01  0.25979513937E+02  0.12700000000E+01 0. -1.
<mgrwt>
<rscale>  1 0.12748646E+03</rscale>
<asrwt>0</asrwt>
<pdfrwt beam="1">  1       21 0.77685081E-02 0.12748646E+03</pdfrwt>
<pdfrwt beam="2">  1       -4 0.19786837E-01 0.12748646E+03</pdfrwt>
<totfact> 0.11573042E+05</totfact>
</mgrwt>
</event>
<event>
 6    4  0.6376098E-003  0.1314883E+03  0.7818608E-02  0.1225264E+00
          4   -1    0    0  502    0 -0.00000000000E+00  0.00000000000E+00  0.20623207506E+04  0.20623211416E+04  0.12700000000E+01 0. -1.
         21   -1    0    0  501  502  0.00000000000E+00 -0.00000000000E+00 -0.14681343121E+02  0.14681343121E+02  0.00000000000E+00 0.  1.
         25    2    1    2    0    0 -0.53989054707E+01 -0.40430119841E+02  0.20270202367E+04  0.20312804346E+04  0.12500168433E+03 0.  0.
    9000005    1    3    3    0    0 -0.36649043431E+01  0.45267508535E+02  0.63418248465E+03  0.63580736288E+03  0.10000000000E+01 0.  0.
    9000005    1    3    3    0    0 -0.17340011276E+01 -0.85697628376E+02  0.13928377520E+04  0.13954730717E+04  0.10000000000E+01 0.  0.
          4    1    1    2  501    0  0.53989054707E+01  0.40430119841E+02  0.20619170781E+02  0.45722050199E+02  0.12700000000E+01 0.  1.
<mgrwt>
<rscale>  1 0.13148827E+03</rscale>
<asrwt>0</asrwt>
<pdfrwt beam="2">  1       21 0.22586698E-02 0.13148827E+03</pdfrwt>
<pdfrwt beam="1">  1        4 0.31728414E+00 0.13148827E+03</pdfrwt>
<totfact> 0.12479558E+03</totfact>
</mgrwt>
</event>
<event>
 6    4  0.6376098E-003  0.1300695E+03  0.7818608E-02  0.1227353E+00
          4   -1    0    0  502    0 -0.00000000000E+00  0.00000000000E+00  0.10562039751E+03  0.10562803259E+03  0.12700000000E+01 0. -1.
         21   -1    0    0  501  502  0.00000000000E+00 -0.00000000000E+00 -0.22230937278E+03  0.22230937278E+03  0.00000000000E+00 0.  1.
         25    2    1    2    0    0 -0.78351081388E+00  0.35977891942E+02  0.63107505823E+02  0.14457053238E+03  0.12499223553E+03 0.  0.
    9000005    1    3    3    0    0  0.97032088117E+00 -0.18537303869E+02 -0.30795584495E+02  0.35971393936E+02  0.10000000000E+01 0.  0.
    9000005    1    3    3    0    0 -0.17538316951E+01  0.54515195810E+02  0.93903090317E+02  0.10859913844E+03  0.10000000000E+01 0.  0.
          4    1    1    2  501    0  0.78351081388E+00 -0.35977891942E+02 -0.17979648110E+03  0.18336687300E+03  0.12700000000E+01 0.  1.
<mgrwt>
<rscale>  1 0.13006953E+03</rscale>
<asrwt>0</asrwt>
<pdfrwt beam="2">  1       21 0.34201442E-01 0.13006953E+03</pdfrwt>
<pdfrwt beam="1">  1        4 0.16250158E-01 0.13006953E+03</pdfrwt>
<totfact> 0.11032285E+04</totfact>
</mgrwt>
</event>
<event>
 6    4  0.6376098E-003  0.1317184E+03  0.7818608E-02  0.1224928E+00
         21   -1    0    0  501  502  0.00000000000E+00  0.00000000000E+00  0.52238514561E+02  0.52238514561E+02  0.00000000000E+00 0. -1.
         -4   -1    0    0    0  501 -0.00000000000E+00 -0.00000000000E+00 -0.31422831082E+03  0.31423087726E+03  0.12700000000E+01 0.  1.
         25    2    1    2    0    0  0.86607190008E+01 -0.40622004850E+02 -0.28852224765E+03  0.31716686442E+03  0.12499830865E+03 0.  0.
    9000005    1    3    3    0    0  0.63561825198E+02 -0.39317070127E+01 -0.16916420453E+03  0.18075699720E+03  0.10000000000E+01 0.  0.
    9000005    1    3    3    0    0 -0.54901106197E+02 -0.36690297837E+02 -0.11935804311E+03  0.13640986721E+03  0.10000000000E+01 0.  0.
         -4    1    1    2    0  502 -0.86607190008E+01  0.40622004850E+02  0.26532451387E+02  0.49302527402E+02  0.12700000000E+01 0. -1.
<mgrwt>
<rscale>  1 0.13171838E+03</rscale>
<asrwt>0</asrwt>
<pdfrwt beam="1">  1       21 0.80366944E-02 0.13171838E+03</pdfrwt>
<pdfrwt beam="2">  1       -4 0.48344203E-01 0.13171838E+03</pdfrwt>
<totfact> 0.20074767E+04</totfact>
</mgrwt>
</event>
<event>
 6    4  0.6376098E-003  0.1282464E+03  0.7818608E-02  0.1230081E+00
         21   -1    0    0  501  502  0.00000000000E+00  0.00000000000E+00  0.10379577191E+02  0.10379577191E+02  0.00000000000E+00 0. -1.
          4   -1    0    0  502    0 -0.00000000000E+00 -0.00000000000E+00 -0.11897244745E+04  0.11897251524E+04  0.12700000000E+01 0.  1.
         25    2    1    2    0    0  0.26282604679E+02 -0.11467539508E+02 -0.11560394478E+04  0.11631312709E+04  0.12499947422E+03 0.  0.
    9000005    1    3    3    0    0  0.42036465152E+02  0.14017660926E+02 -0.10865204445E+04  0.10874241286E+04  0.10000000000E+01 0.  0.
    9000005    1    3    3    0    0 -0.15753860473E+02 -0.25485200434E+02 -0.69519003342E+02  0.75707142243E+02  0.10000000000E+01 0.  0.
          4    1    1    2  501    0 -0.26282604679E+02  0.11467539508E+02 -0.23305449493E+02  0.36973458686E+02  0.12700000000E+01 0. -1.
<mgrwt>
<rscale>  1 0.12824644E+03</rscale>
<asrwt>0</asrwt>
<pdfrwt beam="1">  1       21 0.15968575E-02 0.12824644E+03</pdfrwt>
<pdfrwt beam="2">  1        4 0.18304062E+00 0.12824644E+03</pdfrwt>
<totfact> 0.13480778E+04</totfact>
</mgrwt>
</event>
<event>
 6    4  0.6376098E-003  0.1284023E+03  0.7818608E-02  0.1229846E+00
         -4   -1    0    0    0  501 -0.00000000000E+00  0.00000000000E+00  0.61929358418E+02  0.61942379144E+02  0.12700000000E+01 0. -1.
         21   -1    0    0  501  502  0.00000000000E+00 -0.00000000000E+00 -0.10194711424E+03  0.10194711424E+03  0.00000000000E+00 0. -1.
         25    2    1    2    0    0  0.32916169817E+01 -0.29164290104E+02 -0.24691121312E+02  0.13075478070E+03  0.12500308254E+03 0.  0.
    9000005    1    3    3    0    0 -0.45554481481E+02 -0.50413655371E+02  0.77233969048E+01  0.68391507445E+02  0.10000000000E+01 0.  0.
    9000005    1    3    3    0    0  0.48846098463E+02  0.21249365266E+02 -0.32414518217E+02  0.62363273251E+02  0.10000000000E+01 0.  0.
         -4    1    1    2    0  502 -0.32916169817E+01  0.29164290104E+02 -0.15326634512E+02  0.33134712691E+02  0.12700000000E+01 0.  1.
<mgrwt>
<rscale>  1 0.12840234E+03</rscale>
<asrwt>0</asrwt>
<pdfrwt beam="2">  1       21 0.15684171E-01 0.12840234E+03</pdfrwt>
<pdfrwt beam="1">  1       -4 0.95292038E-02 0.12840234E+03</pdfrwt>
<totfact> 0.11901507E+05</totfact>
</mgrwt>
</event>
<event>
 6    4  0.6376098E-003  0.1346334E+03  0.7818608E-02  0.1220738E+00
         21   -1    0    0  501  502  0.00000000000E+00  0.00000000000E+00  0.25009462700E+03  0.25009462700E+03  0.00000000000E+00 0. -1.
          4   -1    0    0  502    0 -0.00000000000E+00 -0.00000000000E+00 -0.70521242404E+02  0.70532677038E+02  0.12700000000E+01 0.  1.
         25    2    1    2    0    0 -0.65432226008E+01 -0.49580453929E+02  0.43422311861E+00  0.13463405887E+03  0.12500042434E+03 0.  0.
    9000005    1    3    3    0    0 -0.49718782221E+02  0.62517448282E+01 -0.29282951291E+02  0.58047677432E+02  0.10000000000E+01 0.  0.
    9000005    1    3    3    0    0  0.43175559620E+02 -0.55832198757E+02  0.29717174410E+02  0.76586381436E+02  0.10000000000E+01 0.  0.
          4    1    1    2  501    0  0.65432226008E+01  0.49580453929E+02  0.17913916148E+03  0.18599324517E+03  0.12700000000E+01 0. -1.
<mgrwt>
<rscale>  1 0.13463336E+03</rscale>
<asrwt>0</asrwt>
<pdfrwt beam="1">  1       21 0.38476096E-01 0.13463336E+03</pdfrwt>
<pdfrwt beam="2">  1        4 0.10850550E-01 0.13463336E+03</pdfrwt>
<totfact> 0.17605879E+04</totfact>
</mgrwt>
</event>
<event>
 6    4  0.6376098E-003  0.1343886E+03  0.7818608E-02  0.1221085E+00
          4   -1    0    0  502    0 -0.00000000000E+00  0.00000000000E+00  0.21783511825E+03  0.21783882033E+03  0.12700000000E+01 0. -1.
         21   -1    0    0  501  502  0.00000000000E+00 -0.00000000000E+00 -0.34388739318E+03  0.34388739318E+03  0.00000000000E+00 0.  1.
         25    2    1    2    0    0 -0.46018383950E+02  0.17826562679E+02  0.19504267440E+03  0.23685845982E+03  0.12499922862E+03 0.  0.
    9000005    1    3    3    0    0  0.37250341001E+02  0.14315353259E+02  0.23972494457E+02  0.46563910211E+02  0.10000000000E+01 0.  0.
    9000005    1    3    3    0    0 -0.83268724951E+02  0.35112094194E+01  0.17107017994E+03  0.19029454961E+03  0.10000000000E+01 0.  0.
          4    1    1    2  501    0  0.46018383950E+02 -0.17826562679E+02 -0.32109494934E+03  0.32486775369E+03  0.12700000000E+01 0.  1.
<mgrwt>
<rscale>  1 0.13438856E+03</rscale>
<asrwt>0</asrwt>
<pdfrwt beam="2">  1       21 0.52905752E-01 0.13438856E+03</pdfrwt>
<pdfrwt beam="1">  1        4 0.33513561E-01 0.13438856E+03</pdfrwt>
<totfact> 0.12159005E+03</totfact>
</mgrwt>
</event>
<event>
 6    4  0.6376098E-003  0.1288159E+03  0.7818608E-02  0.1229223E+00
          4   -1    0    0  502    0 -0.00000000000E+00  0.00000000000E+00  0.38251425968E+02  0.38272503035E+02  0.12700000000E+01 0. -1.
         21   -1    0    0  501  502  0.00000000000E+00 -0.00000000000E+00 -0.17940727634E+03  0.17940727634E+03  0.00000000000E+00 0. -1.
         25    2    1    2    0    0 -0.11789270862E+02 -0.28799828755E+02 -0.87777788884E+02  0.15587971957E+03  0.12500051883E+03 0.  0.
    9000005    1    3    3    0    0 -0.32747302235E+02 -0.70031450832E+02 -0.32691062657E+02  0.83943406453E+02  0.10000000000E+01 0.  0.
    9000005    1    3    3    0    0  0.20958031374E+02  0.41231622078E+02 -0.55086726227E+02  0.71936313116E+02  0.10000000000E+01 0.  0.
          4    1    1    2  501    0  0.11789270862E+02  0.28799828755E+02 -0.53378061486E+02  0.61800059804E+02  0.12700000000E+01 0.  1.
<mgrwt>
<rscale>  1 0.12881594E+03</rscale>
<asrwt>0</asrwt>
<pdfrwt beam="2">  1       21 0.27601120E-01 0.12881594E+03</pdfrwt>
<pdfrwt beam="1">  1        4 0.58868018E-02 0.12881594E+03</pdfrwt>
<totfact> 0.92196374E+04</totfact>
</mgrwt>
</event>
<event>
 6    4  0.6376098E-003  0.1411134E+03  0.7818608E-02  0.1211839E+00
         -4   -1    0    0    0  501 -0.00000000000E+00  0.00000000000E+00  0.61089734192E+02  0.61102933838E+02  0.12700000000E+01 0.  1.
         21   -1    0    0  501  502  0.00000000000E+00 -0.00000000000E+00 -0.19521338025E+03  0.19521338025E+03  0.00000000000E+00 0. -1.
         25    2    1    2    0    0  0.61917019366E+02 -0.21257449276E+02 -0.49989938221E+02  0.14970632332E+03  0.12500957116E+03 0.  0.
    9000005    1    3    3    0    0 -0.80214230447E+01  0.44379077857E+02 -0.18419464850E+02  0.48724967567E+02  0.10000000000E+01 0.  0.
    9000005    1    3    3    0    0  0.69938442411E+02 -0.65636527133E+02 -0.31570473371E+02  0.10098135575E+03  0.10000000000E+01 0.  0.
         -4    1    1    2    0  502 -0.61917019366E+02  0.21257449276E+02 -0.84133707834E+02  0.10660999076E+03  0.12700000000E+01 0. -1.
<mgrwt>
<rscale>  1 0.14111339E+03</rscale>
<asrwt>0</asrwt>
<pdfrwt beam="2">  1       21 0.30032827E-01 0.14111339E+03</pdfrwt>
<pdfrwt beam="1">  1       -4 0.93997540E-02 0.14111339E+03</pdfrwt>
<totfact> 0.36623144E+04</totfact>
</mgrwt>
</event>
<event>
 6    4  0.6376098E-003  0.1329046E+03  0.7818608E-02  0.1223208E+00
         21   -1    0    0  501  502  0.00000000000E+00  0.00000000000E+00  0.62128222423E+03  0.62128222423E+03  0.00000000000E+00 0.  1.
         -4   -1    0    0    0  501 -0.00000000000E+00 -0.00000000000E+00 -0.13314890184E+02  0.13375320579E+02  0.12700000000E+01 0. -1.
         25    2    1    2    0    0  0.19384794983E+01 -0.45123035438E+02  0.38900517147E+03  0.41108230564E+03  0.12499517010E+03 0.  0.
    9000005    1    3    3    0    0  0.30147526587E+02 -0.37047168498E+01  0.33873007340E+03  0.34009066572E+03  0.10000000000E+01 0.  0.
    9000005    1    3    3    0    0 -0.28209047088E+02 -0.41418318588E+02  0.50275098077E+02  0.70991639923E+02  0.10000000000E+01 0.  0.
         -4    1    1    2    0  502 -0.19384794983E+01  0.45123035438E+02  0.21896216258E+03  0.22357523917E+03  0.12700000000E+01 0.  1.
<mgrwt>
<rscale>  1 0.13290462E+03</rscale>
<asrwt>0</asrwt>
<pdfrwt beam="1">  1       21 0.95581858E-01 0.13290462E+03</pdfrwt>
<pdfrwt beam="2">  1       -4 0.20531935E-02 0.13290462E+03</pdfrwt>
<totfact> 0.36530006E+04</totfact>
</mgrwt>
</event>
<event>
 6    4  0.6376098E-003  0.1270205E+03  0.7818608E-02  0.1231945E+00
          4   -1    0    0  502    0 -0.00000000000E+00  0.00000000000E+00  0.16228820459E+03  0.16229317376E+03  0.12700000000E+01 0.  1.
         21   -1    0    0  501  502  0.00000000000E+00 -0.00000000000E+00 -0.59081979680E+02  0.59081979680E+02  0.00000000000E+00 0. -1.
         25    2    1    2    0    0 -0.15784421743E+01  0.22559035972E+02  0.13302537878E+03  0.18392924017E+03  0.12499124931E+03 0.  0.
    9000005    1    3    3    0    0  0.59213121699E+01 -0.46638799190E+02  0.91494595761E+02  0.10287128162E+03  0.10000000000E+01 0.  0.
    9000005    1    3    3    0    0 -0.74997543442E+01  0.69197835162E+02  0.41530783020E+02  0.81057958552E+02  0.10000000000E+01 0.  0.
          4    1    1    2  501    0  0.15784421743E+01 -0.22559035972E+02 -0.29819153868E+02  0.37445913276E+02  0.12700000000E+01 0. -1.
<mgrwt>
<rscale>  1 0.12702053E+03</rscale>
<asrwt>0</asrwt>
<pdfrwt beam="2">  1       21 0.90895354E-02 0.12702053E+03</pdfrwt>
<pdfrwt beam="1">  1        4 0.24968848E-01 0.12702053E+03</pdfrwt>
<totfact> 0.57758990E+04</totfact>
</mgrwt>
</event>
<event>
 6    4  0.6376098E-003  0.1278721E+03  0.7818608E-02  0.1230648E+00
         21   -1    0    0  501  502  0.00000000000E+00  0.00000000000E+00  0.27279479176E+03  0.27279479176E+03  0.00000000000E+00 0. -1.
         -4   -1    0    0    0  501 -0.00000000000E+00 -0.00000000000E+00 -0.28460303178E+02  0.28488625046E+02  0.12700000000E+01 0. -1.
         25    2    1    2    0    0 -0.11627128359E+02  0.24311054199E+02  0.12457301973E+03  0.17852088266E+03  0.12500020331E+03 0.  0.
    9000005    1    3    3    0    0  0.48593665082E+02  0.31406132479E+02  0.27520920807E+02  0.64078783739E+02  0.10000000000E+01 0.  0.
    9000005    1    3    3    0    0 -0.60220793441E+02 -0.70950782795E+01  0.97052098926E+02  0.11444209892E+03  0.10000000000E+01 0.  0.
         -4    1    1    2    0  502  0.11627128359E+02 -0.24311054199E+02  0.11976146885E+03  0.12276253415E+03  0.12700000000E+01 0.  1.
<mgrwt>
<rscale>  1 0.12787208E+03</rscale>
<asrwt>0</asrwt>
<pdfrwt beam="1">  1       21 0.41968428E-01 0.12787208E+03</pdfrwt>
<pdfrwt beam="2">  1       -4 0.43809144E-02 0.12787208E+03</pdfrwt>
<totfact> 0.65175510E+04</totfact>
</mgrwt>
</event>
<event>
 6    4  0.6376098E-003  0.1523285E+03  0.7818608E-02  0.1197641E+00
         21   -1    0    0  501  502  0.00000000000E+00  0.00000000000E+00  0.51258624578E+02  0.51258624578E+02  0.00000000000E+00 0. -1.
         -4   -1    0    0    0  501 -0.00000000000E+00 -0.00000000000E+00 -0.37041503676E+03  0.37041721391E+03  0.12700000000E+01 0.  1.
         25    2    1    2    0    0  0.44649320880E+02  0.74733332300E+02 -0.29388596305E+03  0.33101801306E+03  0.12500133152E+03 0.  0.
    9000005    1    3    3    0    0  0.31829622258E+02  0.66421153030E+02 -0.30391514419E+03  0.31271442130E+03  0.10000000000E+01 0.  0.
    9000005    1    3    3    0    0  0.12819698621E+02  0.83121792696E+01  0.10029181140E+02  0.18303591759E+02  0.10000000000E+01 0.  0.
         -4    1    1    2    0  502 -0.44649320880E+02 -0.74733332300E+02 -0.25270449137E+02  0.90657825428E+02  0.12700000000E+01 0. -1.
<mgrwt>
<rscale>  1 0.15232848E+03</rscale>
<asrwt>0</asrwt>
<pdfrwt beam="1">  1       21 0.78859418E-02 0.15232848E+03</pdfrwt>
<pdfrwt beam="2">  1       -4 0.56988310E-01 0.15232848E+03</pdfrwt>
<totfact> 0.15005051E+04</totfact>
</mgrwt>
</event>
<event>
 6    4  0.6376098E-003  0.1291474E+03  0.7818608E-02  0.1228726E+00
         -4   -1    0    0    0  501 -0.00000000000E+00  0.00000000000E+00  0.61887320772E+01  0.63176977392E+01  0.12700000000E+01 0.  1.
         21   -1    0    0  501  502  0.00000000000E+00 -0.00000000000E+00 -0.11834270779E+04  0.11834270779E+04  0.00000000000E+00 0.  1.
         25    2    1    2    0    0 -0.28391481760E+02 -0.15742183759E+02 -0.73063524742E+03  0.74196153233E+03  0.12500063239E+03 0.  0.
    9000005    1    3    3    0    0  0.43350295653E+02 -0.24774681099E+01 -0.44649673861E+03  0.44860419478E+03  0.10000000000E+01 0.  0.
    9000005    1    3    3    0    0 -0.71741777413E+02 -0.13264715649E+02 -0.28413850881E+03  0.29335733756E+03  0.10000000000E+01 0.  0.
         -4    1    1    2    0  502  0.28391481760E+02  0.15742183759E+02 -0.44660309843E+03  0.44778324334E+03  0.12700000000E+01 0. -1.
<mgrwt>
<rscale>  1 0.12914740E+03</rscale>
<asrwt>0</asrwt>
<pdfrwt beam="2">  1       21 0.18206578E+00 0.12914740E+03</pdfrwt>
<pdfrwt beam="1">  1       -4 0.96208506E-03 0.12914740E+03</pdfrwt>
<totfact> 0.22819159E+04</totfact>
</mgrwt>
</event>
<event>
 6    4  0.6376098E-003  0.1352019E+03  0.7818608E-02  0.1219935E+00
         21   -1    0    0  501  502  0.00000000000E+00  0.00000000000E+00  0.18393590015E+03  0.18393590015E+03  0.00000000000E+00 0. -1.
          4   -1    0    0  502    0 -0.00000000000E+00 -0.00000000000E+00 -0.48771385650E+02  0.48787918158E+02  0.12700000000E+01 0.  1.
         25    2    1    2    0    0  0.32138219204E+02 -0.40270914073E+02  0.79410210255E+02  0.15679775562E+03  0.12499977208E+03 0.  0.
    9000005    1    3    3    0    0 -0.92898592479E+01  0.31733158651E+02  0.64366074351E+02  0.72369098171E+02  0.10000000000E+01 0.  0.
    9000005    1    3    3    0    0  0.41428078452E+02 -0.72004072724E+02  0.15044135904E+02  0.84428657446E+02  0.10000000000E+01 0.  0.
          4    1    1    2  501    0 -0.32138219204E+02  0.40270914073E+02  0.55754304246E+02  0.75926062692E+02  0.12700000000E+01 0. -1.
<mgrwt>
<rscale>  1 0.13520190E+03</rscale>
<asrwt>0</asrwt>
<pdfrwt beam="1">  1       21 0.28297831E-01 0.13520190E+03</pdfrwt>
<pdfrwt beam="2">  1        4 0.75048992E-02 0.13520190E+03</pdfrwt>
<totfact> 0.59447711E+04</totfact>
</mgrwt>
</event>
<event>
 6    4  0.6376098E-003  0.1281267E+03  0.7818608E-02  0.1230262E+00
         21   -1    0    0  501  502  0.00000000000E+00  0.00000000000E+00  0.94976932647E+02  0.94976932647E+02  0.00000000000E+00 0. -1.
         -4   -1    0    0    0  501 -0.00000000000E+00 -0.00000000000E+00 -0.19872702407E+03  0.19873108211E+03  0.12700000000E+01 0.  1.
         25    2    1    2    0    0 -0.23366961007E+02 -0.15655952322E+02 -0.17511879971E+03  0.21698625036E+03  0.12500126049E+03 0.  0.
    9000005    1    3    3    0    0 -0.69618351178E+02 -0.34726079357E+02 -0.99455917554E+02  0.12627388861E+03  0.10000000000E+01 0.  0.
    9000005    1    3    3    0    0  0.46251390171E+02  0.19070127035E+02 -0.75662882157E+02  0.90712361749E+02  0.10000000000E+01 0.  0.
         -4    1    1    2    0  502  0.23366961007E+02  0.15655952322E+02  0.71368708286E+02  0.76721764397E+02  0.12700000000E+01 0. -1.
<mgrwt>
<rscale>  1 0.12812665E+03</rscale>
<asrwt>0</asrwt>
<pdfrwt beam="1">  1       21 0.14611836E-01 0.12812665E+03</pdfrwt>
<pdfrwt beam="2">  1       -4 0.30574353E-01 0.12812665E+03</pdfrwt>
<totfact> 0.17122504E+04</totfact>
</mgrwt>
</event>
<event>
 6    4  0.6376098E-003  0.1297181E+03  0.7818608E-02  0.1227875E+00
          4   -1    0    0  502    0 -0.00000000000E+00  0.00000000000E+00  0.10599431974E+03  0.10600192789E+03  0.12700000000E+01 0. -1.
         21   -1    0    0  501  502  0.00000000000E+00 -0.00000000000E+00 -0.64675901245E+02  0.64675901245E+02  0.00000000000E+00 0.  1.
         25    2    1    2    0    0 -0.48259727720E+01 -0.34344289749E+02  0.40750040052E+02  0.13596823096E+03  0.12499589519E+03 0.  0.
    9000005    1    3    3    0    0 -0.54933261946E+02 -0.11319168853E+02  0.55463581348E+02  0.78885966480E+02  0.10000000000E+01 0.  0.
    9000005    1    3    3    0    0  0.50107289174E+02 -0.23025120896E+02 -0.14713541296E+02  0.57082264480E+02  0.10000000000E+01 0.  0.
          4    1    1    2  501    0  0.48259727720E+01  0.34344289749E+02  0.56837844221E+00  0.34709598177E+02  0.12700000000E+01 0.  1.
<mgrwt>
<rscale>  1 0.12971813E+03</rscale>
<asrwt>0</asrwt>
<pdfrwt beam="2">  1       21 0.99501387E-02 0.12971813E+03</pdfrwt>
<pdfrwt beam="1">  1        4 0.16308363E-01 0.12971813E+03</pdfrwt>
<totfact> 0.10647491E+05</totfact>
</mgrwt>
</event>
<event>
 6    4  0.6376098E-003  0.1314055E+03  0.7818608E-02  0.1225385E+00
         21   -1    0    0  501  502  0.00000000000E+00  0.00000000000E+00  0.23380578762E+02  0.23380578762E+02  0.00000000000E+00 0.  1.
         -4   -1    0    0    0  501 -0.00000000000E+00 -0.00000000000E+00 -0.32385275335E+03  0.32385524352E+03  0.12700000000E+01 0. -1.
         25    2    1    2    0    0  0.16310742068E+02  0.37103335569E+02 -0.25056592561E+03  0.28293228890E+03  0.12499879684E+03 0.  0.
    9000005    1    3    3    0    0 -0.28819309108E+01  0.27916476432E+02  0.32085651088E+01  0.28265351090E+02  0.10000000000E+01 0.  0.
    9000005    1    3    3    0    0  0.19192672979E+02  0.91868591368E+01 -0.25377449072E+03  0.25466693781E+03  0.10000000000E+01 0.  0.
         -4    1    1    2    0  502 -0.16310742068E+02 -0.37103335569E+02 -0.49906248985E+02  0.64303533378E+02  0.12700000000E+01 0.  1.
<mgrwt>
<rscale>  1 0.13140547E+03</rscale>
<asrwt>0</asrwt>
<pdfrwt beam="1">  1       21 0.35970124E-02 0.13140547E+03</pdfrwt>
<pdfrwt beam="2">  1       -4 0.49826342E-01 0.13140547E+03</pdfrwt>
<totfact> 0.73303678E+04</totfact>
</mgrwt>
</event>
<event>
 6    4  0.6376098E-003  0.1280832E+03  0.7818608E-02  0.1230328E+00
         21   -1    0    0  501  502  0.00000000000E+00  0.00000000000E+00  0.31486190632E+03  0.31486190632E+03  0.00000000000E+00 0. -1.
         -4   -1    0    0    0  501 -0.00000000000E+00 -0.00000000000E+00 -0.58706212709E+02  0.58719948150E+02  0.12700000000E+01 0.  1.
         25    2    1    2    0    0 -0.22422094950E+02  0.16706544054E+02  0.12911293773E+02  0.12873228860E+03  0.12499376650E+03 0.  0.
    9000005    1    3    3    0    0 -0.64782798792E+02  0.30734936093E+02  0.34004640296E+02  0.79364745811E+02  0.10000000000E+01 0.  0.
    9000005    1    3    3    0    0  0.42360703842E+02 -0.14028392038E+02 -0.21093346523E+02  0.49367542785E+02  0.10000000000E+01 0.  0.
         -4    1    1    2    0  502  0.22422094950E+02 -0.16706544054E+02  0.24324439983E+03  0.24484956587E+03  0.12700000000E+01 0. -1.
<mgrwt>
<rscale>  1 0.12808318E+03</rscale>
<asrwt>0</asrwt>
<pdfrwt beam="1">  1       21 0.48440292E-01 0.12808318E+03</pdfrwt>
<pdfrwt beam="2">  1       -4 0.90329788E-02 0.12808318E+03</pdfrwt>
<totfact> 0.14981497E+04</totfact>
</mgrwt>
</event>
<event>
 6    4  0.6376098E-003  0.1268836E+03  0.7818608E-02  0.1232155E+00
         -4   -1    0    0    0  501 -0.00000000000E+00  0.00000000000E+00  0.25558182905E+03  0.25558498438E+03  0.12700000000E+01 0. -1.
         21   -1    0    0  501  502  0.00000000000E+00 -0.00000000000E+00 -0.21660665354E+02  0.21660665354E+02  0.00000000000E+00 0. -1.
         25    2    1    2    0    0 -0.98084313505E+01  0.19486731236E+02  0.20266225293E+03  0.23910550786E+03  0.12499406829E+03 0.  0.
    9000005    1    3    3    0    0 -0.37061630600E+02  0.59118990264E+02  0.73858283932E+02  0.10161036157E+03  0.10000000000E+01 0.  0.
    9000005    1    3    3    0    0  0.27253199250E+02 -0.39632259027E+02  0.12880396900E+03  0.13749514629E+03  0.10000000000E+01 0.  0.
         -4    1    1    2    0  502  0.98084313505E+01 -0.19486731236E+02  0.31258910771E+02  0.38140141877E+02  0.12700000000E+01 0.  1.
<mgrwt>
<rscale>  1 0.12688363E+03</rscale>
<asrwt>0</asrwt>
<pdfrwt beam="2">  1       21 0.33324103E-02 0.12688363E+03</pdfrwt>
<pdfrwt beam="1">  1       -4 0.39323386E-01 0.12688363E+03</pdfrwt>
<totfact> 0.13270159E+05</totfact>
</mgrwt>
</event>
<event>
 6    4  0.6376098E-003  0.1274908E+03  0.7818608E-02  0.1231227E+00
         21   -1    0    0  501  502  0.00000000000E+00  0.00000000000E+00  0.70124619543E+02  0.70124619543E+02  0.00000000000E+00 0. -1.
          4   -1    0    0  502    0 -0.00000000000E+00 -0.00000000000E+00 -0.22209142985E+03  0.22209506098E+03  0.12700000000E+01 0.  1.
         25    2    1    2    0    0  0.10572238329E+02 -0.22760228614E+02 -0.20048062404E+03  0.23758449724E+03  0.12499644988E+03 0.  0.
    9000005    1    3    3    0    0 -0.12111029986E+02 -0.70782695643E+02 -0.91249809508E+02  0.11612232682E+03  0.10000000000E+01 0.  0.
    9000005    1    3    3    0    0  0.22683268315E+02  0.48022467029E+02 -0.10923081453E+03  0.12146217042E+03  0.10000000000E+01 0.  0.
          4    1    1    2  501    0 -0.10572238329E+02  0.22760228614E+02  0.48513813732E+02  0.54635183286E+02  0.12700000000E+01 0. -1.
<mgrwt>
<rscale>  1 0.12749083E+03</rscale>
<asrwt>0</asrwt>
<pdfrwt beam="1">  1       21 0.10788403E-01 0.12749083E+03</pdfrwt>
<pdfrwt beam="2">  1        4 0.34169076E-01 0.12749083E+03</pdfrwt>
<totfact> 0.23740303E+04</totfact>
</mgrwt>
</event>
<event>
 6    4  0.6376098E-003  0.1269126E+03  0.7818608E-02  0.1232110E+00
         21   -1    0    0  501  502  0.00000000000E+00  0.00000000000E+00  0.70712330660E+02  0.70712330660E+02  0.00000000000E+00 0.  1.
          4   -1    0    0  502    0 -0.00000000000E+00 -0.00000000000E+00 -0.11932665733E+03  0.11933341547E+03  0.12700000000E+01 0. -1.
         25    2    1    2    0    0 -0.21582422486E+02  0.41345944217E+01 -0.81241114339E+02  0.15068820549E+03  0.12499568306E+03 0.  0.
    9000005    1    3    3    0    0  0.41271661428E+02 -0.29881620204E+02 -0.53854618851E+02  0.74145675765E+02  0.10000000000E+01 0.  0.
    9000005    1    3    3    0    0 -0.62854083914E+02  0.34016214626E+02 -0.27386495487E+02  0.76542529729E+02  0.10000000000E+01 0.  0.
          4    1    1    2  501    0  0.21582422486E+02 -0.41345944217E+01  0.32626787673E+02  0.39357540640E+02  0.12700000000E+01 0.  1.
<mgrwt>
<rscale>  1 0.12691263E+03</rscale>
<asrwt>0</asrwt>
<pdfrwt beam="1">  1       21 0.10878820E-01 0.12691263E+03</pdfrwt>
<pdfrwt beam="2">  1        4 0.18359344E-01 0.12691263E+03</pdfrwt>
<totfact> 0.73611760E+04</totfact>
</mgrwt>
</event>
<event>
 6    4  0.6376098E-003  0.1335770E+03  0.7818608E-02  0.1222243E+00
         21   -1    0    0  501  502  0.00000000000E+00  0.00000000000E+00  0.51703511782E+01  0.51703511782E+01  0.00000000000E+00 0. -1.
         -4   -1    0    0    0  501 -0.00000000000E+00 -0.00000000000E+00 -0.15787927875E+04  0.15787932983E+04  0.12700000000E+01 0. -1.
         25    2    1    2    0    0 -0.58236938297E+01  0.46735801527E+02 -0.11708801098E+04  0.11784748765E+04  0.12499860968E+03 0.  0.
    9000005    1    3    3    0    0 -0.23629137762E+02 -0.26091308495E+02 -0.75961626566E+03  0.76043209006E+03  0.10000000000E+01 0.  0.
    9000005    1    3    3    0    0  0.17805443932E+02  0.72827110022E+02 -0.41126384414E+03  0.41804278643E+03  0.10000000000E+01 0.  0.
         -4    1    1    2    0  502  0.58236938297E+01 -0.46735801527E+02 -0.40274232654E+03  0.40548877302E+03  0.12700000000E+01 0.  1.
<mgrwt>
<rscale>  1 0.13357696E+03</rscale>
<asrwt>0</asrwt>
<pdfrwt beam="1">  1       21 0.79543746E-03 0.13357696E+03</pdfrwt>
<pdfrwt beam="2">  1       -4 0.24290360E+00 0.13357696E+03</pdfrwt>
<totfact> 0.17662416E+04</totfact>
</mgrwt>
</event>
<event>
 6    4  0.6376098E-003  0.1281827E+03  0.7818608E-02  0.1230177E+00
         -4   -1    0    0    0  501 -0.00000000000E+00  0.00000000000E+00  0.91471938602E+02  0.91480754542E+02  0.12700000000E+01 0. -1.
         21   -1    0    0  501  502  0.00000000000E+00 -0.00000000000E+00 -0.67081707554E+02  0.67081707554E+02  0.00000000000E+00 0. -1.
         25    2    1    2    0    0  0.14563868318E+02 -0.24281027386E+02  0.17282707807E+02  0.12934253160E+03  0.12501649468E+03 0.  0.
    9000005    1    3    3    0    0  0.64251270508E+02 -0.19297614024E+02 -0.16438017669E+02  0.69078448838E+02  0.10000000000E+01 0.  0.
    9000005    1    3    3    0    0 -0.49687402190E+02 -0.49834133622E+01  0.33720725476E+02  0.60264082767E+02  0.10000000000E+01 0.  0.
         -4    1    1    2    0  502 -0.14563868318E+02  0.24281027386E+02  0.71075232415E+01  0.29219930492E+02  0.12700000000E+01 0.  1.
<mgrwt>
<rscale>  1 0.12818268E+03</rscale>
<asrwt>0</asrwt>
<pdfrwt beam="2">  1       21 0.10320263E-01 0.12818268E+03</pdfrwt>
<pdfrwt beam="1">  1       -4 0.14074209E-01 0.12818268E+03</pdfrwt>
<totfact> 0.12895311E+05</totfact>
</mgrwt>
</event>
<event>
 6    4  0.6376098E-003  0.1281293E+03  0.7818608E-02  0.1230258E+00
          4   -1    0    0  502    0 -0.00000000000E+00  0.00000000000E+00  0.91879716728E+01  0.92753287522E+01  0.12700000000E+01 0.  1.
         21   -1    0    0  501  502  0.00000000000E+00 -0.00000000000E+00 -0.12011218667E+04  0.12011218667E+04  0.00000000000E+00 0. -1.
         25    2    1    2    0    0 -0.28029713871E+02  0.24930217560E+01 -0.44885745346E+03  0.46678702142E+03  0.12500091927E+03 0.  0.
    9000005    1    3    3    0    0 -0.21730669518E+02  0.12495983772E+02 -0.45339282244E+03  0.45408636078E+03  0.10000000000E+01 0.  0.
    9000005    1    3    3    0    0 -0.62990443528E+01 -0.10002962016E+02  0.45353689778E+01  0.12700660637E+02  0.10000000000E+01 0.  0.
          4    1    1    2  501    0  0.28029713871E+02 -0.24930217560E+01 -0.74307644158E+03  0.74361017405E+03  0.12700000000E+01 0. -1.
<mgrwt>
<rscale>  1 0.12812927E+03</rscale>
<asrwt>0</asrwt>
<pdfrwt beam="2">  1       21 0.18478783E+00 0.12812927E+03</pdfrwt>
<pdfrwt beam="1">  1        4 0.14203066E-02 0.12812927E+03</pdfrwt>
<totfact> 0.12149704E+04</totfact>
</mgrwt>
</event>
<event>
 6    4  0.6376098E-003  0.1884892E+03  0.7818608E-02  0.1159831E+00
          4   -1    0    0  502    0 -0.00000000000E+00  0.00000000000E+00  0.27924291781E+04  0.27924294669E+04  0.12700000000E+01 0. -1.
         21   -1    0    0  501  502  0.00000000000E+00 -0.00000000000E+00 -0.34320161538E+02  0.34320161538E+02  0.00000000000E+00 0.  1.
         25    2    1    2    0    0  0.20213250550E+02 -0.13962585386E+03  0.26282410355E+04  0.26349912911E+04  0.12499683390E+03 0.  0.
    9000005    1    3    3    0    0 -0.43526864480E+02 -0.95188998520E+02  0.18252956102E+04  0.18282944505E+04  0.10000000000E+01 0.  0.
    9000005    1    3    3    0    0  0.63740115031E+02 -0.44436855345E+02  0.80294542538E+03  0.80669684052E+03  0.10000000000E+01 0.  0.
          4    1    1    2  501    0 -0.20213250550E+02  0.13962585386E+03  0.12986798106E+03  0.19175833742E+03  0.12700000000E+01 0.  1.
<mgrwt>
<rscale>  1 0.18848916E+03</rscale>
<asrwt>0</asrwt>
<pdfrwt beam="2">  1       21 0.52800270E-02 0.18848916E+03</pdfrwt>
<pdfrwt beam="1">  1        4 0.42960614E+00 0.18848916E+03</pdfrwt>
<totfact> 0.57880058E+01</totfact>
</mgrwt>
</event>
<event>
 6    4  0.6376098E-003  0.1279307E+03  0.7818608E-02  0.1230559E+00
         -4   -1    0    0    0  501 -0.00000000000E+00  0.00000000000E+00  0.23294376184E+04  0.23294379646E+04  0.12700000000E+01 0.  1.
         21   -1    0    0  501  502  0.00000000000E+00 -0.00000000000E+00 -0.26035007008E+01  0.26035007008E+01  0.00000000000E+00 0. -1.
         25    2    1    2    0    0  0.27058636500E+02  0.30667769188E+01  0.19883614515E+04  0.19924727188E+04  0.12499879381E+03 0.  0.
    9000005    1    3    3    0    0  0.22637741881E+02 -0.30139066715E+02  0.18519041997E+03  0.18899027051E+03  0.10000000000E+01 0.  0.
    9000005    1    3    3    0    0  0.44208946193E+01  0.33205843634E+02  0.18031710315E+04  0.18034824483E+04  0.10000000000E+01 0.  0.
         -4    1    1    2    0  502 -0.27058636500E+02 -0.30667769188E+01  0.33847266616E+03  0.33956874645E+03  0.12700000000E+01 0. -1.
<mgrwt>
<rscale>  1 0.12793074E+03</rscale>
<asrwt>0</asrwt>
<pdfrwt beam="2">  1       21 0.40054043E-03 0.12793074E+03</pdfrwt>
<pdfrwt beam="1">  1       -4 0.35839721E+00 0.12793074E+03</pdfrwt>
<totfact> 0.10791052E+04</totfact>
</mgrwt>
</event>
<event>
 6    4  0.6376098E-003  0.1356270E+03  0.7818608E-02  0.1219337E+00
         -4   -1    0    0    0  501 -0.00000000000E+00  0.00000000000E+00  0.48176569590E+02  0.48193306148E+02  0.12700000000E+01 0. -1.
         21   -1    0    0  501  502  0.00000000000E+00 -0.00000000000E+00 -0.18396890124E+03  0.18396890124E+03  0.00000000000E+00 0. -1.
         25    2    1    2    0    0 -0.51979265987E+02  0.82522676207E+01 -0.95801708008E+02  0.16605012912E+03  0.12499893644E+03 0.  0.
    9000005    1    3    3    0    0 -0.62815579062E+02 -0.87607581385E+01  0.46373789911E+01  0.63600732229E+02  0.10000000000E+01 0.  0.
    9000005    1    3    3    0    0  0.10836313075E+02  0.17013025759E+02 -0.10043908700E+03  0.10244939689E+03  0.10000000000E+01 0.  0.
         -4    1    1    2    0  502  0.51979265987E+02 -0.82522676207E+01 -0.39990623641E+02  0.66112078266E+02  0.12700000000E+01 0.  1.
<mgrwt>
<rscale>  1 0.13562698E+03</rscale>
<asrwt>0</asrwt>
<pdfrwt beam="2">  1       21 0.28302908E-01 0.13562698E+03</pdfrwt>
<pdfrwt beam="1">  1       -4 0.74134046E-02 0.13562698E+03</pdfrwt>
<totfact> 0.60663011E+04</totfact>
</mgrwt>
</event>
<event>
 6    4  0.6376098E-003  0.1324908E+03  0.7818608E-02  0.1223806E+00
         -4   -1    0    0    0  501 -0.00000000000E+00  0.00000000000E+00  0.10015386894E+03  0.10016192073E+03  0.12700000000E+01 0.  1.
         21   -1    0    0  501  502  0.00000000000E+00 -0.00000000000E+00 -0.10461441938E+03  0.10461441938E+03  0.00000000000E+00 0. -1.
         25    2    1    2    0    0 -0.42644942816E+02  0.10525178587E+02  0.43765945931E+02  0.13953234894E+03  0.12499779136E+03 0.  0.
    9000005    1    3    3    0    0  0.12121315117E+02  0.51975393057E+02 -0.73857054040E+01  0.53887998738E+02  0.10000000000E+01 0.  0.
    9000005    1    3    3    0    0 -0.54766257932E+02 -0.41450214471E+02  0.51151651335E+02  0.85644350204E+02  0.10000000000E+01 0.  0.
         -4    1    1    2    0  502  0.42644942816E+02 -0.10525178587E+02 -0.48226496366E+02  0.65243991170E+02  0.12700000000E+01 0. -1.
<mgrwt>
<rscale>  1 0.13249082E+03</rscale>
<asrwt>0</asrwt>
<pdfrwt beam="2">  1       21 0.16094526E-01 0.13249082E+03</pdfrwt>
<pdfrwt beam="1">  1       -4 0.15409500E-01 0.13249082E+03</pdfrwt>
<totfact> 0.50103117E+04</totfact>
</mgrwt>
</event>
<event>
 6    4  0.6376098E-003  0.1350766E+03  0.7818608E-02  0.1220112E+00
         21   -1    0    0  501  502  0.00000000000E+00  0.00000000000E+00  0.29996514812E+02  0.29996514812E+02  0.00000000000E+00 0.  1.
         -4   -1    0    0    0  501 -0.00000000000E+00 -0.00000000000E+00 -0.55195382459E+03  0.55195528567E+03  0.12700000000E+01 0. -1.
         25    2    1    2    0    0  0.50578265070E+02 -0.79121414539E+01 -0.51234035654E+03  0.52984746698E+03  0.12499973780E+03 0.  0.
    9000005    1    3    3    0    0  0.47197415247E+00 -0.22923272210E+02 -0.10414323660E+02  0.25202327387E+02  0.10000000000E+01 0.  0.
    9000005    1    3    3    0    0  0.50106290918E+02  0.15011130756E+02 -0.50192603288E+03  0.50464513960E+03  0.10000000000E+01 0.  0.
         -4    1    1    2    0  502 -0.50578265070E+02  0.79121414539E+01 -0.96169532406E+01  0.52104333500E+02  0.12700000000E+01 0.  1.
<mgrwt>
<rscale>  1 0.13507664E+03</rscale>
<asrwt>0</asrwt>
<pdfrwt beam="1">  1       21 0.46148487E-02 0.13507664E+03</pdfrwt>
<pdfrwt beam="2">  1       -4 0.84918149E-01 0.13507664E+03</pdfrwt>
<totfact> 0.15599577E+04</totfact>
</mgrwt>
</event>
<event>
 6    4  0.6376098E-003  0.1322387E+03  0.7818608E-02  0.1224171E+00
          4   -1    0    0  502    0 -0.00000000000E+00  0.00000000000E+00  0.54852164652E+03  0.54852311675E+03  0.12700000000E+01 0. -1.
         21   -1    0    0  501  502  0.00000000000E+00 -0.00000000000E+00 -0.15732202644E+02  0.15732202644E+02  0.00000000000E+00 0. -1.
         25    2    1    2    0    0 -0.39856222328E+02  0.16511510463E+02  0.46862787465E+03  0.48692829758E+03  0.12500373454E+03 0.  0.
    9000005    1    3    3    0    0 -0.23055406249E+01  0.61536144813E+02  0.13769469893E+03  0.15084045462E+03  0.10000000000E+01 0.  0.
    9000005    1    3    3    0    0 -0.37550681703E+02 -0.45024634351E+02  0.33093317572E+03  0.33608784296E+03  0.10000000000E+01 0.  0.
          4    1    1    2  501    0  0.39856222328E+02 -0.16511510463E+02  0.64161569231E+02  0.77327021811E+02  0.12700000000E+01 0.  1.
<mgrwt>
<rscale>  1 0.13223873E+03</rscale>
<asrwt>0</asrwt>
<pdfrwt beam="2">  1       21 0.24203393E-02 0.13223873E+03</pdfrwt>
<pdfrwt beam="1">  1        4 0.84391987E-01 0.13223873E+03</pdfrwt>
<totfact> 0.45755134E+04</totfact>
</mgrwt>
</event>
<event>
 6    4  0.6376098E-003  0.1294359E+03  0.7818608E-02  0.1228295E+00
          4   -1    0    0  502    0 -0.00000000000E+00  0.00000000000E+00  0.86738398787E+03  0.86738491762E+03  0.12700000000E+01 0. -1.
         21   -1    0    0  501  502  0.00000000000E+00 -0.00000000000E+00 -0.23322444618E+02  0.23322444618E+02  0.00000000000E+00 0.  1.
         25    2    1    2    0    0  0.13506589800E+02  0.30767122919E+02  0.84711237998E+03  0.85694400450E+03  0.12499839484E+03 0.  0.
    9000005    1    3    3    0    0 -0.59869773660E+01 -0.22759876456E+02  0.67958809108E+03  0.67999619809E+03  0.10000000000E+01 0.  0.
    9000005    1    3    3    0    0  0.19493567166E+02  0.53526999375E+02  0.16752428890E+03  0.17694780641E+03  0.10000000000E+01 0.  0.
          4    1    1    2  501    0 -0.13506589800E+02 -0.30767122919E+02 -0.30508367314E+01  0.33763357735E+02  0.12700000000E+01 0.  1.
<mgrwt>
<rscale>  1 0.12943586E+03</rscale>
<asrwt>0</asrwt>
<pdfrwt beam="2">  1       21 0.35880691E-02 0.12943586E+03</pdfrwt>
<pdfrwt beam="1">  1        4 0.13344640E+00 0.12943586E+03</pdfrwt>
<totfact> 0.81922986E+03</totfact>
</mgrwt>
</event>
<event>
 6    4  0.6376098E-003  0.1363688E+03  0.7818608E-02  0.1218300E+00
          4   -1    0    0  502    0 -0.00000000000E+00  0.00000000000E+00  0.14755329404E+03  0.14755875942E+03  0.12700000000E+01 0.  1.
         21   -1    0    0  501  502  0.00000000000E+00 -0.00000000000E+00 -0.70889413609E+02  0.70889413609E+02  0.00000000000E+00 0. -1.
         25    2    1    2    0    0  0.92894540846E+01 -0.53712702190E+02  0.88611359608E+02  0.16262968601E+03  0.12500037355E+03 0.  0.
    9000005    1    3    3    0    0  0.37244318761E+02 -0.22270227931E+01  0.96537923566E+02  0.10350202702E+03  0.10000000000E+01 0.  0.
    9000005    1    3    3    0    0 -0.27954864676E+02 -0.51485679397E+02 -0.79265639582E+01  0.59127658995E+02  0.10000000000E+01 0.  0.
          4    1    1    2  501    0 -0.92894540846E+01  0.53712702190E+02 -0.11947479181E+02  0.55818487014E+02  0.12700000000E+01 0. -1.
<mgrwt>
<rscale>  1 0.13636877E+03</rscale>
<asrwt>0</asrwt>
<pdfrwt beam="2">  1       21 0.10906064E-01 0.13636877E+03</pdfrwt>
<pdfrwt beam="1">  1        4 0.22701802E-01 0.13636877E+03</pdfrwt>
<totfact> 0.50451897E+04</totfact>
</mgrwt>
</event>
<event>
 6    4  0.6376098E-003  0.1918247E+03  0.7818608E-02  0.1156826E+00
         21   -1    0    0  501  502  0.00000000000E+00  0.00000000000E+00  0.30767218602E+03  0.30767218602E+03  0.00000000000E+00 0. -1.
         -4   -1    0    0    0  501 -0.00000000000E+00 -0.00000000000E+00 -0.10540247584E+03  0.10541012672E+03  0.12700000000E+01 0.  1.
         25    2    1    2    0    0 -0.45803737200E+02 -0.13811039162E+03  0.41544165178E+02  0.19627185098E+03  0.12499703681E+03 0.  0.
    9000005    1    3    3    0    0 -0.76177681683E+02 -0.34428289454E+02  0.22322155317E+02  0.86531063320E+02  0.10000000000E+01 0.  0.
    9000005    1    3    3    0    0  0.30373944483E+02 -0.10368210216E+03  0.19222009861E+02  0.10974078766E+03  0.10000000000E+01 0.  0.
         -4    1    1    2    0  502  0.45803737200E+02  0.13811039162E+03  0.16072554500E+03  0.21681046176E+03  0.12700000000E+01 0. -1.
<mgrwt>
<rscale>  1 0.19182472E+03</rscale>
<asrwt>0</asrwt>
<pdfrwt beam="1">  1       21 0.47334182E-01 0.19182472E+03</pdfrwt>
<pdfrwt beam="2">  1       -4 0.16216556E-01 0.19182472E+03</pdfrwt>
<totfact> 0.58970602E+03</totfact>
</mgrwt>
</event>
<event>
 6    4  0.6376098E-003  0.1288270E+03  0.7818608E-02  0.1229207E+00
          4   -1    0    0  502    0 -0.00000000000E+00  0.00000000000E+00  0.15894197832E+03  0.15894705211E+03  0.12700000000E+01 0. -1.
         21   -1    0    0  501  502  0.00000000000E+00 -0.00000000000E+00 -0.41661349153E+02  0.41661349153E+02  0.00000000000E+00 0. -1.
         25    2    1    2    0    0  0.88839301086E+01  0.29877471947E+02  0.10786702565E+03  0.16802287724E+03  0.12499921804E+03 0.  0.
    9000005    1    3    3    0    0  0.55986854038E+02 -0.14848280780E+02  0.25959651045E+02  0.63481515023E+02  0.10000000000E+01 0.  0.
    9000005    1    3    3    0    0 -0.47102923930E+02  0.44725752727E+02  0.81907374609E+02  0.10454136222E+03  0.10000000000E+01 0.  0.
          4    1    1    2  501    0 -0.88839301086E+01 -0.29877471947E+02  0.94136035151E+01  0.32585524014E+02  0.12700000000E+01 0.  1.
<mgrwt>
<rscale>  1 0.12882698E+03</rscale>
<asrwt>0</asrwt>
<pdfrwt beam="2">  1       21 0.64094384E-02 0.12882698E+03</pdfrwt>
<pdfrwt beam="1">  1        4 0.24454491E-01 0.12882698E+03</pdfrwt>
<totfact> 0.10963776E+05</totfact>
</mgrwt>
</event>
<event>
 6    4  0.6376098E-003  0.1385671E+03  0.7818608E-02  0.1215270E+00
         -4   -1    0    0    0  501 -0.00000000000E+00  0.00000000000E+00  0.12646684521E+04  0.12646690898E+04  0.12700000000E+01 0. -1.
         21   -1    0    0  501  502  0.00000000000E+00 -0.00000000000E+00 -0.13694260927E+02  0.13694260927E+02  0.00000000000E+00 0.  1.
         25    2    1    2    0    0  0.56971374489E+02 -0.18159630467E+02  0.11673882356E+04  0.11755833208E+04  0.12500136673E+03 0.  0.
    9000005    1    3    3    0    0  0.75409044482E+02  0.51564988754E+01  0.37011464884E+03  0.37775516774E+03  0.10000000000E+01 0.  0.
    9000005    1    3    3    0    0 -0.18437669993E+02 -0.23316129343E+02  0.79727358679E+03  0.79782815303E+03  0.10000000000E+01 0.  0.
         -4    1    1    2    0  502 -0.56971374489E+02  0.18159630467E+02  0.83585955539E+02  0.10278002993E+03  0.12700000000E+01 0.  1.
<mgrwt>
<rscale>  1 0.13856714E+03</rscale>
<asrwt>0</asrwt>
<pdfrwt beam="2">  1       21 0.21068104E-02 0.13856714E+03</pdfrwt>
<pdfrwt beam="1">  1       -4 0.19456886E+00 0.13856714E+03</pdfrwt>
<totfact> 0.73286660E+03</totfact>
</mgrwt>
</event>
<event>
 6    4  0.6376098E-003  0.1383636E+03  0.7818608E-02  0.1215548E+00
         21   -1    0    0  501  502  0.00000000000E+00  0.00000000000E+00  0.94418974971E+02  0.94418974971E+02  0.00000000000E+00 0.  1.
          4   -1    0    0  502    0 -0.00000000000E+00 -0.00000000000E+00 -0.15082067370E+03  0.15082602068E+03  0.12700000000E+01 0. -1.
         25    2    1    2    0    0 -0.74501198283E+01 -0.58864835710E+02 -0.10074960258E+03  0.17115773194E+03  0.12499565437E+03 0.  0.
    9000005    1    3    3    0    0 -0.20508617139E+02  0.27867556288E+01 -0.10591140806E+03  0.10791939465E+03  0.10000000000E+01 0.  0.
    9000005    1    3    3    0    0  0.13058497311E+02 -0.61651591339E+02  0.51618054827E+01  0.63238337284E+02  0.10000000000E+01 0.  0.
          4    1    1    2  501    0  0.74501198283E+01  0.58864835710E+02  0.44347903855E+02  0.74087263716E+02  0.12700000000E+01 0.  1.
<mgrwt>
<rscale>  1 0.13836360E+03</rscale>
<asrwt>0</asrwt>
<pdfrwt beam="1">  1       21 0.14525996E-01 0.13836360E+03</pdfrwt>
<pdfrwt beam="2">  1        4 0.23204249E-01 0.13836360E+03</pdfrwt>
<totfact> 0.29139988E+04</totfact>
</mgrwt>
</event>
<event>
 6    4  0.6376098E-003  0.1279469E+03  0.7818608E-02  0.1230534E+00
         21   -1    0    0  501  502  0.00000000000E+00  0.00000000000E+00  0.14604223269E+02  0.14604223269E+02  0.00000000000E+00 0. -1.
         -4   -1    0    0    0  501 -0.00000000000E+00 -0.00000000000E+00 -0.50345865037E+03  0.50346025218E+03  0.12700000000E+01 0. -1.
         25    2    1    2    0    0  0.76386865323E+01 -0.26162896608E+02 -0.46343823749E+03  0.48077584065E+03  0.12501024878E+03 0.  0.
    9000005    1    3    3    0    0  0.59997564034E+01  0.49733671618E+02 -0.14501190276E+03  0.15342388052E+03  0.10000000000E+01 0.  0.
    9000005    1    3    3    0    0  0.16389301289E+01 -0.75896568226E+02 -0.31842633472E+03  0.32735196014E+03  0.10000000000E+01 0.  0.
         -4    1    1    2    0  502 -0.76386865323E+01  0.26162896608E+02 -0.25416189609E+02  0.37288634798E+02  0.12700000000E+01 0.  1.
<mgrwt>
<rscale>  1 0.12794690E+03</rscale>
<asrwt>0</asrwt>
<pdfrwt beam="1">  1       21 0.22468036E-02 0.12794690E+03</pdfrwt>
<pdfrwt beam="2">  1       -4 0.77459547E-01 0.12794690E+03</pdfrwt>
<totfact> 0.62132198E+04</totfact>
</mgrwt>
</event>
<event>
 6    4  0.6376098E-003  0.1272598E+03  0.7818608E-02  0.1231579E+00
         21   -1    0    0  501  502  0.00000000000E+00  0.00000000000E+00  0.15827702810E+02  0.15827702810E+02  0.00000000000E+00 0. -1.
          4   -1    0    0  502    0 -0.00000000000E+00 -0.00000000000E+00 -0.36144709515E+03  0.36144932631E+03  0.12700000000E+01 0. -1.
         25    2    1    2    0    0 -0.86698031355E+01 -0.22219855962E+02 -0.29658029414E+03  0.32273041110E+03  0.12500463948E+03 0.  0.
    9000005    1    3    3    0    0  0.35761987979E+02 -0.62280203440E+01 -0.18665003700E+02  0.40830018182E+02  0.10000000000E+01 0.  0.
    9000005    1    3    3    0    0 -0.44431791115E+02 -0.15991835618E+02 -0.27791529044E+03  0.28190039292E+03  0.10000000000E+01 0.  0.
          4    1    1    2  501    0  0.86698031355E+01  0.22219855962E+02 -0.49039098200E+02  0.54546618022E+02  0.12700000000E+01 0.  1.
<mgrwt>
<rscale>  1 0.12725976E+03</rscale>
<asrwt>0</asrwt>
<pdfrwt beam="1">  1       21 0.24350313E-02 0.12725976E+03</pdfrwt>
<pdfrwt beam="2">  1        4 0.55611334E-01 0.12725976E+03</pdfrwt>
<totfact> 0.11038938E+05</totfact>
</mgrwt>
</event>
<event>
 6    4  0.6376098E-003  0.1267337E+03  0.7818608E-02  0.1232384E+00
         21   -1    0    0  501  502  0.00000000000E+00  0.00000000000E+00  0.64911630441E+01  0.64911630441E+01  0.00000000000E+00 0. -1.
         -4   -1    0    0    0  501 -0.00000000000E+00 -0.00000000000E+00 -0.10584052050E+04  0.10584059669E+04  0.12700000000E+01 0. -1.
         25    2    1    2    0    0 -0.42194746897E+00 -0.20877095484E+02 -0.10113175230E+04  0.10192274309E+04  0.12500157041E+03 0.  0.
    9000005    1    3    3    0    0 -0.11884973115E+02 -0.35073923682E+02 -0.99179426797E+03  0.99248592065E+03  0.10000000000E+01 0.  0.
    9000005    1    3    3    0    0  0.11463025646E+02  0.14196828198E+02 -0.19523254983E+02  0.26741510297E+02  0.10000000000E+01 0.  0.
         -4    1    1    2    0  502  0.42194746897E+00  0.20877095484E+02 -0.40596518976E+02  0.45669699019E+02  0.12700000000E+01 0.  1.
<mgrwt>
<rscale>  1 0.12673367E+03</rscale>
<asrwt>0</asrwt>
<pdfrwt beam="1">  1       21 0.99864198E-03 0.12673367E+03</pdfrwt>
<pdfrwt beam="2">  1       -4 0.16284094E+00 0.12673367E+03</pdfrwt>
<totfact> 0.38767231E+04</totfact>
</mgrwt>
</event>
<event>
 6    4  0.6376098E-003  0.1657137E+03  0.7818608E-02  0.1182393E+00
          4   -1    0    0  502    0 -0.00000000000E+00  0.00000000000E+00  0.56818137260E+02  0.56832329019E+02  0.12700000000E+01 0. -1.
         21   -1    0    0  501  502  0.00000000000E+00 -0.00000000000E+00 -0.35864566415E+03  0.35864566415E+03  0.00000000000E+00 0.  1.
         25    2    1    2    0    0  0.41892809717E+00 -0.10878341440E+03 -0.12384086404E+03  0.20687580766E+03  0.12500813349E+03 0.  0.
    9000005    1    3    3    0    0  0.62328816890E+01 -0.18959025204E+02 -0.11466312063E+03  0.11639125691E+03  0.10000000000E+01 0.  0.
    9000005    1    3    3    0    0 -0.58139535918E+01 -0.89824389195E+02 -0.91777434103E+01  0.90484550752E+02  0.10000000000E+01 0.  0.
          4    1    1    2  501    0 -0.41892809717E+00  0.10878341440E+03 -0.17798666285E+03  0.20860218551E+03  0.12700000000E+01 0.  1.
<mgrwt>
<rscale>  1 0.16571373E+03</rscale>
<asrwt>0</asrwt>
<pdfrwt beam="2">  1       21 0.55176256E-01 0.16571373E+03</pdfrwt>
<pdfrwt beam="1">  1        4 0.87425166E-02 0.16571373E+03</pdfrwt>
<totfact> 0.12302555E+04</totfact>
</mgrwt>
</event>
<event>
 6    4  0.6376098E-003  0.1267517E+03  0.7818608E-02  0.1232357E+00
         -4   -1    0    0    0  501 -0.00000000000E+00  0.00000000000E+00  0.24619203679E+02  0.24651938865E+02  0.12700000000E+01 0.  1.
         21   -1    0    0  501  502  0.00000000000E+00 -0.00000000000E+00 -0.33434374071E+03  0.33434374071E+03  0.00000000000E+00 0.  1.
         25    2    1    2    0    0  0.18110511376E+02 -0.10658107164E+02 -0.14358286284E+03  0.19152551903E+03  0.12499760024E+03 0.  0.
    9000005    1    3    3    0    0  0.52907588300E+02 -0.22466667635E+02 -0.17350947976E+02  0.60050141132E+02  0.10000000000E+01 0.  0.
    9000005    1    3    3    0    0 -0.34797076924E+02  0.11808560471E+02 -0.12623191486E+03  0.13147537789E+03  0.10000000000E+01 0.  0.
         -4    1    1    2    0  502 -0.18110511376E+02  0.10658107164E+02 -0.16614167419E+03  0.16747016055E+03  0.12700000000E+01 0. -1.
<mgrwt>
<rscale>  1 0.12675167E+03</rscale>
<asrwt>0</asrwt>
<pdfrwt beam="2">  1       21 0.51437499E-01 0.12675167E+03</pdfrwt>
<pdfrwt beam="1">  1       -4 0.37902734E-02 0.12675167E+03</pdfrwt>
<totfact> 0.54098305E+04</totfact>
</mgrwt>
</event>
<event>
 6    4  0.6376098E-003  0.1275203E+03  0.7818608E-02  0.1231182E+00
          4   -1    0    0  502    0 -0.00000000000E+00  0.00000000000E+00  0.52367325275E+03  0.52367479274E+03  0.12700000000E+01 0. -1.
         21   -1    0    0  501  502  0.00000000000E+00 -0.00000000000E+00 -0.37960955515E+02  0.37960955515E+02  0.00000000000E+00 0.  1.
         25    2    1    2    0    0  0.24078033292E+02  0.70651416574E+01  0.51059273069E+03  0.52627592949E+03  0.12502699471E+03 0.  0.
    9000005    1    3    3    0    0 -0.42540333338E+02 -0.29164935622E+02  0.21665755003E+03  0.22271454245E+03  0.10000000000E+01 0.  0.
    9000005    1    3    3    0    0  0.66618366631E+02  0.36230077280E+02  0.29393518066E+03  0.30356138704E+03  0.10000000000E+01 0.  0.
          4    1    1    2  501    0 -0.24078033292E+02 -0.70651416574E+01 -0.24880433459E+02  0.35359818763E+02  0.12700000000E+01 0.  1.
<mgrwt>
<rscale>  1 0.12752026E+03</rscale>
<asrwt>0</asrwt>
<pdfrwt beam="2">  1       21 0.58401474E-02 0.12752026E+03</pdfrwt>
<pdfrwt beam="1">  1        4 0.80566863E-01 0.12752026E+03</pdfrwt>
<totfact> 0.11727155E+04</totfact>
</mgrwt>
</event>
<event>
 6    4  0.6376098E-003  0.1277284E+03  0.7818608E-02  0.1230866E+00
         21   -1    0    0  501  502  0.00000000000E+00  0.00000000000E+00  0.70565560611E+02  0.70565560611E+02  0.00000000000E+00 0. -1.
          4   -1    0    0  502    0 -0.00000000000E+00 -0.00000000000E+00 -0.46900736566E+03  0.46900908514E+03  0.12700000000E+01 0.  1.
         25    2    1    2    0    0  0.24217635750E+02  0.10184264830E+02 -0.45746190576E+03  0.47495887121E+03  0.12499728393E+03 0.  0.
    9000005    1    3    3    0    0 -0.49705372695E+00 -0.54468680931E+02 -0.26191550198E+03  0.26752161491E+03  0.10000000000E+01 0.  0.
    9000005    1    3    3    0    0  0.24714689477E+02  0.64652945762E+02 -0.19554640377E+03  0.20743725630E+03  0.10000000000E+01 0.  0.
          4    1    1    2  501    0 -0.24217635750E+02 -0.10184264830E+02  0.59020100711E+02  0.64615774540E+02  0.12700000000E+01 0. -1.
<mgrwt>
<rscale>  1 0.12772836E+03</rscale>
<asrwt>0</asrwt>
<pdfrwt beam="1">  1       21 0.10856241E-01 0.12772836E+03</pdfrwt>
<pdfrwt beam="2">  1        4 0.72155988E-01 0.12772836E+03</pdfrwt>
<totfact> 0.51264973E+03</totfact>
</mgrwt>
</event>
<event>
 6    4  0.6376098E-003  0.1274352E+03  0.7818608E-02  0.1231312E+00
         -4   -1    0    0    0  501 -0.00000000000E+00  0.00000000000E+00  0.25963411013E+02  0.25994453474E+02  0.12700000000E+01 0. -1.
         21   -1    0    0  501  502  0.00000000000E+00 -0.00000000000E+00 -0.27735590112E+03  0.27735590112E+03  0.00000000000E+00 0.  1.
         25    2    1    2    0    0  0.67958836170E+01 -0.23828667048E+02 -0.14036312921E+03  0.18958251517E+03  0.12500293039E+03 0.  0.
    9000005    1    3    3    0    0  0.10338410326E+02 -0.94372775316E+01  0.22242547324E+02  0.26299730925E+02  0.10000000000E+01 0.  0.
    9000005    1    3    3    0    0 -0.35425267090E+01 -0.14391389517E+02 -0.16260567654E+03  0.16328278424E+03  0.10000000000E+01 0.  0.
         -4    1    1    2    0  502 -0.67958836170E+01  0.23828667048E+02 -0.11102936090E+03  0.11376783943E+03  0.12700000000E+01 0.  1.
<mgrwt>
<rscale>  1 0.12743517E+03</rscale>
<asrwt>0</asrwt>
<pdfrwt beam="2">  1       21 0.42670139E-01 0.12743517E+03</pdfrwt>
<pdfrwt beam="1">  1       -4 0.39969824E-02 0.12743517E+03</pdfrwt>
<totfact> 0.72901056E+04</totfact>
</mgrwt>
</event>
<event>
 6    4  0.6376098E-003  0.1286852E+03  0.7818608E-02  0.1229420E+00
         21   -1    0    0  501  502  0.00000000000E+00  0.00000000000E+00  0.27869957899E+02  0.27869957899E+02  0.00000000000E+00 0.  1.
          4   -1    0    0  502    0 -0.00000000000E+00 -0.00000000000E+00 -0.24096413516E+03  0.24096748190E+03  0.12700000000E+01 0.  1.
         25    2    1    2    0    0 -0.29721960081E+02  0.71984864911E+01 -0.19387532345E+03  0.23269618414E+03  0.12499863980E+03 0.  0.
    9000005    1    3    3    0    0 -0.62355670201E+02  0.35638928066E+02 -0.16685221357E+03  0.18165633480E+03  0.10000000000E+01 0.  0.
    9000005    1    3    3    0    0  0.32633710120E+02 -0.28440441575E+02 -0.27023109878E+02  0.51039849340E+02  0.10000000000E+01 0.  0.
          4    1    1    2  501    0  0.29721960081E+02 -0.71984864911E+01 -0.19218853815E+02  0.36141255662E+02  0.12700000000E+01 0. -1.
<mgrwt>
<rscale>  1 0.12868517E+03</rscale>
<asrwt>0</asrwt>
<pdfrwt beam="1">  1       21 0.42876858E-02 0.12868517E+03</pdfrwt>
<pdfrwt beam="2">  1        4 0.37073889E-01 0.12868517E+03</pdfrwt>
<totfact> 0.98268035E+04</totfact>
</mgrwt>
</event>
<event>
 6    4  0.6376098E-003  0.1267190E+03  0.7818608E-02  0.1232407E+00
         21   -1    0    0  501  502  0.00000000000E+00  0.00000000000E+00  0.45987266009E+01  0.45987266009E+01  0.00000000000E+00 0. -1.
          4   -1    0    0  502    0 -0.00000000000E+00 -0.00000000000E+00 -0.11832456325E+04  0.11832463141E+04  0.12700000000E+01 0. -1.
         25    2    1    2    0    0 -0.13329422367E+02  0.15933305897E+02 -0.10086002921E+04  0.10165295203E+04  0.12500469095E+03 0.  0.
    9000005    1    3    3    0    0 -0.22081409026E+02  0.36052089326E+02 -0.97772761023E+03  0.97864172278E+03  0.10000000000E+01 0.  0.
    9000005    1    3    3    0    0  0.87519866591E+01 -0.20118783429E+02 -0.30872681827E+02  0.37887797512E+02  0.10000000000E+01 0.  0.
          4    1    1    2  501    0  0.13329422367E+02 -0.15933305897E+02 -0.17004661385E+03  0.17131552037E+03  0.12700000000E+01 0.  1.
<mgrwt>
<rscale>  1 0.12671905E+03</rscale>
<asrwt>0</asrwt>
<pdfrwt beam="1">  1       21 0.70749507E-03 0.12671905E+03</pdfrwt>
<pdfrwt beam="2">  1        4 0.18205167E+00 0.12671905E+03</pdfrwt>
<totfact> 0.49402348E+04</totfact>
</mgrwt>
</event>
<event>
 6    4  0.6376098E-003  0.1425977E+03  0.7818608E-02  0.1209876E+00
         -4   -1    0    0    0  501 -0.00000000000E+00  0.00000000000E+00  0.19754062586E+03  0.19754470827E+03  0.12700000000E+01 0.  1.
         21   -1    0    0  501  502  0.00000000000E+00 -0.00000000000E+00 -0.57849282023E+02  0.57849282023E+02  0.00000000000E+00 0. -1.
         25    2    1    2    0    0 -0.57801721200E+02  0.36990511860E+02  0.11224012024E+03  0.18147160182E+03  0.12499904293E+03 0.  0.
    9000005    1    3    3    0    0 -0.45813049811E+02 -0.15277078251E+02  0.11802437565E+03  0.12752638119E+03  0.10000000000E+01 0.  0.
    9000005    1    3    3    0    0 -0.11988671388E+02  0.52267590111E+02 -0.57842554045E+01  0.53945220625E+02  0.10000000000E+01 0.  0.
         -4    1    1    2    0  502  0.57801721200E+02 -0.36990511860E+02  0.27451223598E+02  0.73922388478E+02  0.12700000000E+01 0. -1.
<mgrwt>
<rscale>  1 0.14259768E+03</rscale>
<asrwt>0</asrwt>
<pdfrwt beam="2">  1       21 0.88998896E-02 0.14259768E+03</pdfrwt>
<pdfrwt beam="1">  1       -4 0.30392252E-01 0.14259768E+03</pdfrwt>
<totfact> 0.42091145E+04</totfact>
</mgrwt>
</event>
<event>
 6    4  0.6376098E-003  0.1302576E+03  0.7818608E-02  0.1227074E+00
         21   -1    0    0  501  502  0.00000000000E+00  0.00000000000E+00  0.93670572395E+02  0.93670572395E+02  0.00000000000E+00 0. -1.
         -4   -1    0    0    0  501 -0.00000000000E+00 -0.00000000000E+00 -0.11431782793E+03  0.11432488216E+03  0.12700000000E+01 0. -1.
         25    2    1    2    0    0  0.31926399559E+02 -0.17960779395E+02 -0.68933491569E+02  0.14737319729E+03  0.12500059374E+03 0.  0.
    9000005    1    3    3    0    0  0.43346959033E+02  0.24010374397E+02 -0.87108037959E+02  0.10022109166E+03  0.10000000000E+01 0.  0.
    9000005    1    3    3    0    0 -0.11420559474E+02 -0.41971153792E+02  0.18174546390E+02  0.47152105635E+02  0.10000000000E+01 0.  0.
         -4    1    1    2    0  502 -0.31926399559E+02  0.17960779395E+02  0.48286236038E+02  0.60622257266E+02  0.12700000000E+01 0.  1.
<mgrwt>
<rscale>  1 0.13025756E+03</rscale>
<asrwt>0</asrwt>
<pdfrwt beam="1">  1       21 0.14410857E-01 0.13025756E+03</pdfrwt>
<pdfrwt beam="2">  1       -4 0.17588563E-01 0.13025756E+03</pdfrwt>
<totfact> 0.48357028E+04</totfact>
</mgrwt>
</event>
<event>
 6    4  0.6376098E-003  0.1282193E+03  0.7818608E-02  0.1230122E+00
         21   -1    0    0  501  502  0.00000000000E+00  0.00000000000E+00  0.57915726107E+01  0.57915726107E+01  0.00000000000E+00 0. -1.
          4   -1    0    0  502    0 -0.00000000000E+00 -0.00000000000E+00 -0.11919525899E+04  0.11919532665E+04  0.12700000000E+01 0.  1.
         25    2    1    2    0    0 -0.28484631794E+02  0.19128963346E+01 -0.10873739157E+04  0.10949074054E+04  0.12500064203E+03 0.  0.
    9000005    1    3    3    0    0 -0.56818060175E+02  0.45961421345E+02 -0.51833253167E+03  0.52345998663E+03  0.10000000000E+01 0.  0.
    9000005    1    3    3    0    0  0.28333428381E+02 -0.44048525011E+02 -0.56904138401E+03  0.57144741878E+03  0.10000000000E+01 0.  0.
          4    1    1    2  501    0  0.28484631794E+02 -0.19128963346E+01 -0.98787101623E+02  0.10283743369E+03  0.12700000000E+01 0. -1.
<mgrwt>
<rscale>  1 0.12821932E+03</rscale>
<asrwt>0</asrwt>
<pdfrwt beam="1">  1       21 0.89101123E-03 0.12821932E+03</pdfrwt>
<pdfrwt beam="2">  1        4 0.18338807E+00 0.12821932E+03</pdfrwt>
<totfact> 0.33804950E+04</totfact>
</mgrwt>
</event>
<event>
 6    4  0.6376098E-003  0.1333484E+03  0.7818608E-02  0.1222570E+00
         -4   -1    0    0    0  501 -0.00000000000E+00  0.00000000000E+00  0.18648628610E+03  0.18649061050E+03  0.12700000000E+01 0. -1.
         21   -1    0    0  501  502  0.00000000000E+00 -0.00000000000E+00 -0.43839129475E+02  0.43839129475E+02  0.00000000000E+00 0.  1.
         25    2    1    2    0    0 -0.25347995532E+02 -0.38908982728E+02  0.11620445257E+03  0.17687640226E+03  0.12500142826E+03 0.  0.
    9000005    1    3    3    0    0 -0.53460700191E+02 -0.41045348095E+02  0.11429212130E+02  0.68369539673E+02  0.10000000000E+01 0.  0.
    9000005    1    3    3    0    0  0.28112704659E+02  0.21363653668E+01  0.10477524044E+03  0.10850686259E+03  0.10000000000E+01 0.  0.
         -4    1    1    2    0  502  0.25347995532E+02  0.38908982728E+02  0.26442704060E+02  0.53453337711E+02  0.12700000000E+01 0.  1.
<mgrwt>
<rscale>  1 0.13334837E+03</rscale>
<asrwt>0</asrwt>
<pdfrwt beam="2">  1       21 0.67444816E-02 0.13334837E+03</pdfrwt>
<pdfrwt beam="1">  1       -4 0.28691945E-01 0.13334837E+03</pdfrwt>
<totfact> 0.75056146E+04</totfact>
</mgrwt>
</event>
<event>
 6    4  0.6376098E-003  0.1350375E+03  0.7818608E-02  0.1220167E+00
         21   -1    0    0  501  502  0.00000000000E+00  0.00000000000E+00  0.74234558254E+02  0.74234558254E+02  0.00000000000E+00 0.  1.
         -4   -1    0    0    0  501 -0.00000000000E+00 -0.00000000000E+00 -0.20954532521E+03  0.20954917375E+03  0.12700000000E+01 0. -1.
         25    2    1    2    0    0  0.47723317266E+01 -0.50876799792E+02 -0.17358622717E+03  0.21992570461E+03  0.12499565343E+03 0.  0.
    9000005    1    3    3    0    0 -0.31210585668E+02  0.13987526818E+02 -0.35355921581E+01  0.34398429849E+02  0.10000000000E+01 0.  0.
    9000005    1    3    3    0    0  0.35982917394E+02 -0.64864326611E+02 -0.17005063502E+03  0.18552727476E+03  0.10000000000E+01 0.  0.
         -4    1    1    2    0  502 -0.47723317266E+01  0.50876799792E+02  0.38275460218E+02  0.63858027390E+02  0.12700000000E+01 0.  1.
<mgrwt>
<rscale>  1 0.13503754E+03</rscale>
<asrwt>0</asrwt>
<pdfrwt beam="1">  1       21 0.11420702E-01 0.13503754E+03</pdfrwt>
<pdfrwt beam="2">  1       -4 0.32238873E-01 0.13503754E+03</pdfrwt>
<totfact> 0.24152131E+04</totfact>
</mgrwt>
</event>
<event>
 6    4  0.6376098E-003  0.1290544E+03  0.7818608E-02  0.1228866E+00
         -4   -1    0    0    0  501 -0.00000000000E+00  0.00000000000E+00  0.27508752022E+03  0.27509045182E+03  0.12700000000E+01 0.  1.
         21   -1    0    0  501  502  0.00000000000E+00 -0.00000000000E+00 -0.28453332919E+02  0.28453332919E+02  0.00000000000E+00 0. -1.
         25    2    1    2    0    0  0.28724864901E+02 -0.14348690090E+02  0.23723057240E+03  0.27006179489E+03  0.12499610317E+03 0.  0.
    9000005    1    3    3    0    0  0.74811527991E+02 -0.23035080100E+02  0.11478850004E+03  0.13894164019E+03  0.10000000000E+01 0.  0.
    9000005    1    3    3    0    0 -0.46086663090E+02  0.86863900099E+01  0.12244207236E+03  0.13112015470E+03  0.10000000000E+01 0.  0.
         -4    1    1    2    0  502 -0.28724864901E+02  0.14348690090E+02  0.94036148989E+01  0.33481989846E+02  0.12700000000E+01 0. -1.
<mgrwt>
<rscale>  1 0.12905436E+03</rscale>
<asrwt>0</asrwt>
<pdfrwt beam="2">  1       21 0.43774360E-02 0.12905436E+03</pdfrwt>
<pdfrwt beam="1">  1       -4 0.42323561E-01 0.12905436E+03</pdfrwt>
<totfact> 0.73231367E+04</totfact>
</mgrwt>
</event>
<event>
 6    4  0.6376098E-003  0.1272911E+03  0.7818608E-02  0.1231532E+00
         21   -1    0    0  501  502  0.00000000000E+00  0.00000000000E+00  0.87382905336E+03  0.87382905336E+03  0.00000000000E+00 0.  1.
         -4   -1    0    0    0  501 -0.00000000000E+00 -0.00000000000E+00 -0.68832044576E+01  0.69993859449E+01  0.12700000000E+01 0.  1.
         25    2    1    2    0    0 -0.19074303072E+01 -0.23962979068E+02  0.63470772305E+03  0.64734605741E+03  0.12500064675E+03 0.  0.
    9000005    1    3    3    0    0  0.30145680596E+02 -0.63339178752E+02  0.26342866159E+03  0.27261011238E+03  0.10000000000E+01 0.  0.
    9000005    1    3    3    0    0 -0.32053110904E+02  0.39376199683E+02  0.37127906146E+03  0.37473594503E+03  0.10000000000E+01 0.  0.
         -4    1    1    2    0  502  0.19074303072E+01  0.23962979068E+02  0.23223812585E+03  0.23348238189E+03  0.12700000000E+01 0. -1.
<mgrwt>
<rscale>  1 0.12729110E+03</rscale>
<asrwt>0</asrwt>
<pdfrwt beam="1">  1       21 0.13443515E+00 0.12729110E+03</pdfrwt>
<pdfrwt beam="2">  1       -4 0.10679633E-02 0.12729110E+03</pdfrwt>
<totfact> 0.43296596E+04</totfact>
</mgrwt>
</event>
<event>
 6    4  0.6376098E-003  0.1277035E+03  0.7818608E-02  0.1230904E+00
         -4   -1    0    0    0  501 -0.00000000000E+00  0.00000000000E+00  0.15712355600E+03  0.15712868850E+03  0.12700000000E+01 0.  1.
         21   -1    0    0  501  502  0.00000000000E+00 -0.00000000000E+00 -0.10800207423E+03  0.10800207423E+03  0.00000000000E+00 0. -1.
         25    2    1    2    0    0  0.25724628250E+02  0.47199429575E+01  0.12872947062E+03  0.18132694928E+03  0.12499660623E+03 0.  0.
    9000005    1    3    3    0    0  0.44835291621E+02  0.49091059924E+02  0.11188843386E+03  0.13015435901E+03  0.10000000000E+01 0.  0.
    9000005    1    3    3    0    0 -0.19110663371E+02 -0.44371116966E+02  0.16841036762E+02  0.51172590266E+02  0.10000000000E+01 0.  0.
         -4    1    1    2    0  502 -0.25724628250E+02 -0.47199429575E+01 -0.79607988851E+02  0.83803813452E+02  0.12700000000E+01 0. -1.
<mgrwt>
<rscale>  1 0.12770351E+03</rscale>
<asrwt>0</asrwt>
<pdfrwt beam="2">  1       21 0.16615704E-01 0.12770351E+03</pdfrwt>
<pdfrwt beam="1">  1       -4 0.24173824E-01 0.12770351E+03</pdfrwt>
<totfact> 0.21019773E+04</totfact>
</mgrwt>
</event>
<event>
 6    4  0.6376098E-003  0.1267598E+03  0.7818608E-02  0.1232344E+00
         21   -1    0    0  501  502  0.00000000000E+00  0.00000000000E+00  0.84690012925E+02  0.84690012925E+02  0.00000000000E+00 0.  1.
          4   -1    0    0  502    0 -0.00000000000E+00 -0.00000000000E+00 -0.11492207796E+03  0.11492909511E+03  0.12700000000E+01 0. -1.
         25    2    1    2    0    0 -0.70959117292E+01  0.19574445487E+02 -0.77067038862E+02  0.14834885787E+03  0.12503817126E+03 0.  0.
    9000005    1    3    3    0    0  0.17661924144E+02  0.66189399075E+02 -0.21745662143E+02  0.71880831495E+02  0.10000000000E+01 0.  0.
    9000005    1    3    3    0    0 -0.24757835873E+02 -0.46614953588E+02 -0.55321376718E+02  0.76468026372E+02  0.10000000000E+01 0.  0.
          4    1    1    2  501    0  0.70959117292E+01 -0.19574445487E+02  0.46834973824E+02  0.51270250170E+02  0.12700000000E+01 0.  1.
<mgrwt>
<rscale>  1 0.12675983E+03</rscale>
<asrwt>0</asrwt>
<pdfrwt beam="1">  1       21 0.13029233E-01 0.12675983E+03</pdfrwt>
<pdfrwt beam="2">  1        4 0.17681592E-01 0.12675983E+03</pdfrwt>
<totfact> 0.57179846E+04</totfact>
</mgrwt>
</event>
<event>
 6    4  0.6376098E-003  0.1373009E+03  0.7818608E-02  0.1217008E+00
         21   -1    0    0  501  502  0.00000000000E+00  0.00000000000E+00  0.12609705782E+03  0.12609705782E+03  0.00000000000E+00 0.  1.
         -4   -1    0    0    0  501 -0.00000000000E+00 -0.00000000000E+00 -0.19390200661E+03  0.19390616562E+03  0.12700000000E+01 0. -1.
         25    2    1    2    0    0  0.24090848541E+02  0.51554736023E+02 -0.16050748357E+03  0.21122072188E+03  0.12495311632E+03 0.  0.
    9000005    1    3    3    0    0 -0.48443718639E+02  0.14586486306E+02 -0.34666229269E+02  0.61337646760E+02  0.10000000000E+01 0.  0.
    9000005    1    3    3    0    0  0.72534567179E+02  0.36968249716E+02 -0.12584125430E+03  0.14988307512E+03  0.10000000000E+01 0.  0.
         -4    1    1    2    0  502 -0.24090848541E+02 -0.51554736023E+02  0.92702534787E+02  0.10878250156E+03  0.12700000000E+01 0.  1.
<mgrwt>
<rscale>  1 0.13730091E+03</rscale>
<asrwt>0</asrwt>
<pdfrwt beam="1">  1       21 0.19399547E-01 0.13730091E+03</pdfrwt>
<pdfrwt beam="2">  1       -4 0.29831890E-01 0.13730091E+03</pdfrwt>
<totfact> 0.10771753E+04</totfact>
</mgrwt>
</event>
<event>
 6    4  0.6376098E-003  0.1305422E+03  0.7818608E-02  0.1226653E+00
         21   -1    0    0  501  502  0.00000000000E+00  0.00000000000E+00  0.13543446977E+03  0.13543446977E+03  0.00000000000E+00 0. -1.
          4   -1    0    0  502    0 -0.00000000000E+00 -0.00000000000E+00 -0.85686166468E+02  0.85695577622E+02  0.12700000000E+01 0.  1.
         25    2    1    2    0    0 -0.25118714700E+02 -0.28023468365E+02 -0.29105013575E+02  0.13374742275E+03  0.12500002667E+03 0.  0.
    9000005    1    3    3    0    0 -0.33535387557E+02  0.44893592989E+02 -0.40895478015E+01  0.56194139474E+02  0.10000000000E+01 0.  0.
    9000005    1    3    3    0    0  0.84166728570E+01 -0.72917061353E+02 -0.25015465774E+02  0.77553283272E+02  0.10000000000E+01 0.  0.
          4    1    1    2  501    0  0.25118714700E+02  0.28023468365E+02  0.78853316881E+02  0.87382624649E+02  0.12700000000E+01 0. -1.
<mgrwt>
<rscale>  1 0.13054222E+03</rscale>
<asrwt>0</asrwt>
<pdfrwt beam="1">  1       21 0.20836072E-01 0.13054222E+03</pdfrwt>
<pdfrwt beam="2">  1        4 0.13183669E-01 0.13054222E+03</pdfrwt>
<totfact> 0.40830760E+04</totfact>
</mgrwt>
</event>
<event>
 6    4  0.6376098E-003  0.1267951E+03  0.7818608E-02  0.1232290E+00
          4   -1    0    0  502    0 -0.00000000000E+00  0.00000000000E+00  0.11346815044E+04  0.11346822151E+04  0.12700000000E+01 0. -1.
         21   -1    0    0  501  502  0.00000000000E+00 -0.00000000000E+00 -0.16582035510E+02  0.16582035510E+02  0.00000000000E+00 0. -1.
         25    2    1    2    0    0 -0.55869184160E+01  0.20466312367E+02  0.11224345246E+04  0.11295734875E+04  0.12500767139E+03 0.  0.
    9000005    1    3    3    0    0  0.56090527815E+02 -0.11133148615E+02  0.54594232430E+03  0.54892997347E+03  0.10000000000E+01 0.  0.
    9000005    1    3    3    0    0 -0.61677446231E+02  0.31599460982E+02  0.57649220033E+03  0.58064351399E+03  0.10000000000E+01 0.  0.
          4    1    1    2  501    0  0.55869184160E+01 -0.20466312367E+02 -0.43350557292E+01  0.21690763183E+02  0.12700000000E+01 0. -1.
<mgrwt>
<rscale>  1 0.12679512E+03</rscale>
<asrwt>0</asrwt>
<pdfrwt beam="2">  1       21 0.25510833E-02 0.12679512E+03</pdfrwt>
<pdfrwt beam="1">  1        4 0.17457012E+00 0.12679512E+03</pdfrwt>
<totfact> 0.71897017E+03</totfact>
</mgrwt>
</event>
<event>
 6    4  0.6376098E-003  0.1302164E+03  0.7818608E-02  0.1227135E+00
         -4   -1    0    0    0  501 -0.00000000000E+00  0.00000000000E+00  0.27934884499E+02  0.27963738520E+02  0.12700000000E+01 0.  1.
         21   -1    0    0  501  502  0.00000000000E+00 -0.00000000000E+00 -0.27551003859E+03  0.27551003859E+03  0.00000000000E+00 0.  1.
         25    2    1    2    0    0 -0.48845751094E+01  0.36181001213E+02 -0.14653660746E+03  0.19603391147E+03  0.12499357263E+03 0.  0.
    9000005    1    3    3    0    0 -0.39105903239E+02 -0.26915342651E+02 -0.22098201732E+02  0.52374018921E+02  0.10000000000E+01 0.  0.
    9000005    1    3    3    0    0  0.34221328129E+02  0.63096343864E+02 -0.12443840573E+03  0.14365989255E+03  0.10000000000E+01 0.  0.
         -4    1    1    2    0  502  0.48845751094E+01 -0.36181001213E+02 -0.10103854663E+03  0.10743986564E+03  0.12700000000E+01 0. -1.
<mgrwt>
<rscale>  1 0.13021642E+03</rscale>
<asrwt>0</asrwt>
<pdfrwt beam="2">  1       21 0.42386159E-01 0.13021642E+03</pdfrwt>
<pdfrwt beam="1">  1       -4 0.43001194E-02 0.13021642E+03</pdfrwt>
<totfact> 0.65954620E+04</totfact>
</mgrwt>
</event>
<event>
 6    4  0.6376098E-003  0.1269001E+03  0.7818608E-02  0.1232129E+00
         -4   -1    0    0    0  501 -0.00000000000E+00  0.00000000000E+00  0.12301643406E+02  0.12367025936E+02  0.12700000000E+01 0. -1.
         21   -1    0    0  501  502  0.00000000000E+00 -0.00000000000E+00 -0.63178038839E+03  0.63178038839E+03  0.00000000000E+00 0.  1.
         25    2    1    2    0    0  0.21653596875E+02  0.30752094603E+01 -0.32563157167E+03  0.34948470997E+03  0.12500122746E+03 0.  0.
    9000005    1    3    3    0    0  0.18576406083E+02  0.47017408032E+02 -0.52755879392E+02  0.73074635350E+02  0.10000000000E+01 0.  0.
    9000005    1    3    3    0    0  0.30771907920E+01 -0.43942198572E+02 -0.27287569228E+03  0.27641007462E+03  0.10000000000E+01 0.  0.
         -4    1    1    2    0  502 -0.21653596875E+02 -0.30752094603E+01 -0.29384717331E+03  0.29466270435E+03  0.12700000000E+01 0.  1.
<mgrwt>
<rscale>  1 0.12690013E+03</rscale>
<asrwt>0</asrwt>
<pdfrwt beam="2">  1       21 0.97197026E-01 0.12690013E+03</pdfrwt>
<pdfrwt beam="1">  1       -4 0.18976873E-02 0.12690013E+03</pdfrwt>
<totfact> 0.39494878E+04</totfact>
</mgrwt>
</event>
<event>
 6    4  0.6376098E-003  0.1271638E+03  0.7818608E-02  0.1231726E+00
         -4   -1    0    0    0  501 -0.00000000000E+00  0.00000000000E+00  0.25579741533E+02  0.25611249031E+02  0.12700000000E+01 0.  1.
         21   -1    0    0  501  502  0.00000000000E+00 -0.00000000000E+00 -0.22299396699E+03  0.22299396699E+03  0.00000000000E+00 0.  1.
         25    2    1    2    0    0  0.19913529299E+02 -0.12193571854E+02 -0.17398546340E+03  0.21550307659E+03  0.12500161079E+03 0.  0.
    9000005    1    3    3    0    0 -0.51486472901E+02  0.94877145805E+01 -0.77345908389E+02  0.93403764186E+02  0.10000000000E+01 0.  0.
    9000005    1    3    3    0    0  0.71400002200E+02 -0.21681286435E+02 -0.96639555012E+02  0.12209931240E+03  0.10000000000E+01 0.  0.
         -4    1    1    2    0  502 -0.19913529299E+02  0.12193571854E+02 -0.23428762058E+02  0.33102139437E+02  0.12700000000E+01 0. -1.
<mgrwt>
<rscale>  1 0.12716381E+03</rscale>
<asrwt>0</asrwt>
<pdfrwt beam="2">  1       21 0.34306763E-01 0.12716381E+03</pdfrwt>
<pdfrwt beam="1">  1       -4 0.39380468E-02 0.12716381E+03</pdfrwt>
<totfact> 0.11509768E+05</totfact>
</mgrwt>
</event>
<event>
 6    4  0.6376098E-003  0.1568292E+03  0.7818608E-02  0.1192324E+00
         21   -1    0    0  501  502  0.00000000000E+00  0.00000000000E+00  0.29753181109E+02  0.29753181109E+02  0.00000000000E+00 0. -1.
          4   -1    0    0  502    0 -0.00000000000E+00 -0.00000000000E+00 -0.68721800920E+03  0.68721918270E+03  0.12700000000E+01 0.  1.
         25    2    1    2    0    0 -0.74559763441E+02 -0.58405201941E+02 -0.55800717745E+03  0.57962694849E+03  0.12500025356E+03 0.  0.
    9000005    1    3    3    0    0  0.32279078926E+02 -0.17221265773E+02 -0.21279569766E+03  0.21592017014E+03  0.10000000000E+01 0.  0.
    9000005    1    3    3    0    0 -0.10683884237E+03 -0.41183936168E+02 -0.34521147979E+03  0.36370677834E+03  0.10000000000E+01 0.  0.
          4    1    1    2  501    0  0.74559763441E+02  0.58405201941E+02 -0.99457650643E+02  0.13734541532E+03  0.12700000000E+01 0. -1.
<mgrwt>
<rscale>  1 0.15682917E+03</rscale>
<asrwt>0</asrwt>
<pdfrwt beam="1">  1       21 0.45774125E-02 0.15682917E+03</pdfrwt>
<pdfrwt beam="2">  1        4 0.10572802E+00 0.15682917E+03</pdfrwt>
<totfact> 0.97061831E+03</totfact>
</mgrwt>
</event>
<event>
 6    4  0.6376098E-003  0.1287630E+03  0.7818608E-02  0.1229303E+00
         -4   -1    0    0    0  501 -0.00000000000E+00  0.00000000000E+00  0.32063645087E+02  0.32088786768E+02  0.12700000000E+01 0.  1.
         21   -1    0    0  501  502  0.00000000000E+00 -0.00000000000E+00 -0.23341695843E+03  0.23341695843E+03  0.00000000000E+00 0.  1.
         25    2    1    2    0    0  0.80718285098E+01 -0.29841294620E+02 -0.11100286322E+03  0.17000457234E+03  0.12499704674E+03 0.  0.
    9000005    1    3    3    0    0  0.62626489092E+01 -0.26558569814E+02 -0.13904229405E+03  0.14169805199E+03  0.10000000000E+01 0.  0.
    9000005    1    3    3    0    0  0.18091796007E+01 -0.32827248066E+01  0.28039430832E+02  0.28306520351E+02  0.10000000000E+01 0.  0.
         -4    1    1    2    0  502 -0.80718285098E+01  0.29841294620E+02 -0.90350450125E+02  0.95501172862E+02  0.12700000000E+01 0. -1.
<mgrwt>
<rscale>  1 0.12876303E+03</rscale>
<asrwt>0</asrwt>
<pdfrwt beam="2">  1       21 0.35910300E-01 0.12876303E+03</pdfrwt>
<pdfrwt beam="1">  1       -4 0.49350684E-02 0.12876303E+03</pdfrwt>
<totfact> 0.73535297E+04</totfact>
</mgrwt>
</event>
<event>
 6    4  0.6376098E-003  0.1278987E+03  0.7818608E-02  0.1230607E+00
         21   -1    0    0  501  502  0.00000000000E+00  0.00000000000E+00  0.70451404747E+02  0.70451404747E+02  0.00000000000E+00 0.  1.
         -4   -1    0    0    0  501 -0.00000000000E+00 -0.00000000000E+00 -0.11016076379E+03  0.11016808421E+03  0.12700000000E+01 0. -1.
         25    2    1    2    0    0 -0.20401495725E+02  0.17798617501E+02 -0.65071044368E+02  0.14350022448E+03  0.12500024719E+03 0.  0.
    9000005    1    3    3    0    0 -0.31812516707E+02 -0.37206075188E+02  0.97587084307E+01  0.49925550977E+02  0.10000000000E+01 0.  0.
    9000005    1    3    3    0    0  0.11411020982E+02  0.55004692689E+02 -0.74829752799E+02  0.93574673505E+02  0.10000000000E+01 0.  0.
         -4    1    1    2    0  502  0.20401495725E+02 -0.17798617501E+02  0.25361685325E+02  0.37119264476E+02  0.12700000000E+01 0.  1.
<mgrwt>
<rscale>  1 0.12789868E+03</rscale>
<asrwt>0</asrwt>
<pdfrwt beam="1">  1       21 0.10838678E-01 0.12789868E+03</pdfrwt>
<pdfrwt beam="2">  1       -4 0.16949253E-01 0.12789868E+03</pdfrwt>
<totfact> 0.85454969E+04</totfact>
</mgrwt>
</event>
<event>
 6    4  0.6376098E-003  0.1274900E+03  0.7818608E-02  0.1231228E+00
         21   -1    0    0  501  502  0.00000000000E+00  0.00000000000E+00  0.30017695892E+02  0.30017695892E+02  0.00000000000E+00 0.  1.
          4   -1    0    0  502    0 -0.00000000000E+00 -0.00000000000E+00 -0.30071375368E+03  0.30071643545E+03  0.12700000000E+01 0.  1.
         25    2    1    2    0    0  0.12121044103E+02  0.21961067503E+02 -0.27692028573E+03  0.30485823311E+03  0.12499795780E+03 0.  0.
    9000005    1    3    3    0    0 -0.21839245356E+02 -0.28914044047E+02 -0.21352230604E+02  0.42070088336E+02  0.10000000000E+01 0.  0.
    9000005    1    3    3    0    0  0.33960289459E+02  0.50875111550E+02 -0.25556805512E+03  0.26278814478E+03  0.10000000000E+01 0.  0.
          4    1    1    2  501    0 -0.12121044103E+02 -0.21961067503E+02  0.62242279385E+01  0.25875898234E+02  0.12700000000E+01 0. -1.
<mgrwt>
<rscale>  1 0.12748999E+03</rscale>
<asrwt>0</asrwt>
<pdfrwt beam="1">  1       21 0.46181070E-02 0.12748999E+03</pdfrwt>
<pdfrwt beam="2">  1        4 0.46265928E-01 0.12748999E+03</pdfrwt>
<totfact> 0.55967289E+04</totfact>
</mgrwt>
</event>
<event>
 6    4  0.6376098E-003  0.1265902E+03  0.7818608E-02  0.1232605E+00
         21   -1    0    0  501  502  0.00000000000E+00  0.00000000000E+00  0.78871766947E+03  0.78871766947E+03  0.00000000000E+00 0. -1.
          4   -1    0    0  502    0 -0.00000000000E+00 -0.00000000000E+00 -0.32285251424E+02  0.32310220666E+02  0.12700000000E+01 0.  1.
         25    2    1    2    0    0  0.19707941802E+02 -0.35205411799E+01  0.92480047866E+02  0.15677254770E+03  0.12499710109E+03 0.  0.
    9000005    1    3    3    0    0  0.11669182765E+02 -0.95234480368E+01 -0.30155784604E+02  0.33722948180E+02  0.10000000000E+01 0.  0.
    9000005    1    3    3    0    0  0.80387590375E+01  0.60029068569E+01  0.12263583247E+03  0.12304959952E+03  0.10000000000E+01 0.  0.
          4    1    1    2  501    0 -0.19707941802E+02  0.35205411799E+01  0.66395237018E+03  0.66425534243E+03  0.12700000000E+01 0. -1.
<mgrwt>
<rscale>  1 0.12659018E+03</rscale>
<asrwt>0</asrwt>
<pdfrwt beam="1">  1       21 0.12134116E+00 0.12659018E+03</pdfrwt>
<pdfrwt beam="2">  1        4 0.49689617E-02 0.12659018E+03</pdfrwt>
<totfact> 0.51490813E+03</totfact>
</mgrwt>
</event>
<event>
 6    4  0.6376098E-003  0.1300233E+03  0.7818608E-02  0.1227421E+00
         21   -1    0    0  501  502  0.00000000000E+00  0.00000000000E+00  0.18670480199E+02  0.18670480199E+02  0.00000000000E+00 0. -1.
          4   -1    0    0  502    0 -0.00000000000E+00 -0.00000000000E+00 -0.46717170652E+03  0.46717343276E+03  0.12700000000E+01 0.  1.
         25    2    1    2    0    0  0.15025751705E+02 -0.32477831334E+02 -0.42120929955E+03  0.44082119748E+03  0.12500188548E+03 0.  0.
    9000005    1    3    3    0    0 -0.15960876730E+02 -0.23013063938E+02 -0.12258860789E+02  0.30588075547E+02  0.10000000000E+01 0.  0.
    9000005    1    3    3    0    0  0.30986628435E+02 -0.94647673963E+01 -0.40895043876E+03  0.41023312193E+03  0.10000000000E+01 0.  0.
          4    1    1    2  501    0 -0.15025751705E+02  0.32477831334E+02 -0.27291926773E+02  0.45022715483E+02  0.12700000000E+01 0. -1.
<mgrwt>
<rscale>  1 0.13002328E+03</rscale>
<asrwt>0</asrwt>
<pdfrwt beam="1">  1       21 0.28723818E-02 0.13002328E+03</pdfrwt>
<pdfrwt beam="2">  1        4 0.71876020E-01 0.13002328E+03</pdfrwt>
<totfact> 0.49133666E+04</totfact>
</mgrwt>
</event>
<event>
 6    4  0.6376098E-003  0.1368165E+03  0.7818608E-02  0.1217678E+00
         21   -1    0    0  501  502  0.00000000000E+00  0.00000000000E+00  0.45063768797E+01  0.45063768797E+01  0.00000000000E+00 0.  1.
         -4   -1    0    0    0  501 -0.00000000000E+00 -0.00000000000E+00 -0.27595124879E+04  0.27595127802E+04  0.12700000000E+01 0. -1.
         25    2    1    2    0    0  0.11319707728E+02 -0.54457551391E+02 -0.24606894853E+04  0.24644901104E+04  0.12500000235E+03 0.  0.
    9000005    1    3    3    0    0  0.25754252119E+00  0.19404100738E+02 -0.17065844635E+04  0.17066950860E+04  0.10000000000E+01 0.  0.
    9000005    1    3    3    0    0  0.11062165207E+02 -0.73861652129E+02 -0.75410502178E+03  0.75779502441E+03  0.10000000000E+01 0.  0.
         -4    1    1    2    0  502 -0.11319707728E+02  0.54457551391E+02 -0.29431662579E+03  0.29952904667E+03  0.12700000000E+01 0.  1.
<mgrwt>
<rscale>  1 0.13681652E+03</rscale>
<asrwt>0</asrwt>
<pdfrwt beam="1">  1       21 0.69328770E-03 0.13681652E+03</pdfrwt>
<pdfrwt beam="2">  1       -4 0.42455481E+00 0.13681652E+03</pdfrwt>
<totfact> 0.17214770E+03</totfact>
</mgrwt>
</event>
<event>
 6    4  0.6376098E-003  0.1268180E+03  0.7818608E-02  0.1232255E+00
         21   -1    0    0  501  502  0.00000000000E+00  0.00000000000E+00  0.86722196827E+02  0.86722196827E+02  0.00000000000E+00 0. -1.
          4   -1    0    0  502    0 -0.00000000000E+00 -0.00000000000E+00 -0.10836099235E+03  0.10836843435E+03  0.12700000000E+01 0.  1.
         25    2    1    2    0    0 -0.20431935646E+02 -0.64620696843E+01 -0.68073833832E+02  0.14393353957E+03  0.12499437836E+03 0.  0.
    9000005    1    3    3    0    0  0.36712872266E+02  0.78487608266E+01  0.16368873428E+02  0.40968012569E+02  0.10000000000E+01 0.  0.
    9000005    1    3    3    0    0 -0.57144807912E+02 -0.14310830511E+02 -0.84442707261E+02  0.10296552700E+03  0.10000000000E+01 0.  0.
          4    1    1    2  501    0  0.20431935646E+02  0.64620696843E+01  0.46435038308E+02  0.51157091605E+02  0.12700000000E+01 0. -1.
<mgrwt>
<rscale>  1 0.12681805E+03</rscale>
<asrwt>0</asrwt>
<pdfrwt beam="1">  1       21 0.13341876E-01 0.12681805E+03</pdfrwt>
<pdfrwt beam="2">  1        4 0.16672210E-01 0.12681805E+03</pdfrwt>
<totfact> 0.60814337E+04</totfact>
</mgrwt>
</event>
<event>
 6    4  0.6376098E-003  0.1957345E+03  0.7818608E-02  0.1153388E+00
         21   -1    0    0  501  502  0.00000000000E+00  0.00000000000E+00  0.11969221389E+04  0.11969221389E+04  0.00000000000E+00 0. -1.
         -4   -1    0    0    0  501 -0.00000000000E+00 -0.00000000000E+00 -0.25876409850E+02  0.25907556556E+02  0.12700000000E+01 0.  1.
         25    2    1    2    0    0  0.94434918487E+02 -0.11734314317E+03  0.55043317060E+03  0.58419918594E+03  0.12499858590E+03 0.  0.
    9000005    1    3    3    0    0 -0.11683210880E+02  0.15499617248E+02  0.11711569555E+03  0.11871740267E+03  0.10000000000E+01 0.  0.
    9000005    1    3    3    0    0  0.10611812937E+03 -0.13284276042E+03  0.43331747505E+03  0.46548178328E+03  0.10000000000E+01 0.  0.
         -4    1    1    2    0  502 -0.94434918487E+02  0.11734314317E+03  0.62061255845E+03  0.63863050951E+03  0.12700000000E+01 0. -1.
<mgrwt>
<rscale>  1 0.19573455E+03</rscale>
<asrwt>0</asrwt>
<pdfrwt beam="1">  1       21 0.18414182E+00 0.19573455E+03</pdfrwt>
<pdfrwt beam="2">  1       -4 0.39834348E-02 0.19573455E+03</pdfrwt>
<totfact> 0.24727716E+03</totfact>
</mgrwt>
</event>
<event>
 6    4  0.6376098E-003  0.1358804E+03  0.7818608E-02  0.1218982E+00
         21   -1    0    0  501  502  0.00000000000E+00  0.00000000000E+00  0.15654177756E+03  0.15654177756E+03  0.00000000000E+00 0.  1.
         -4   -1    0    0    0  501 -0.00000000000E+00 -0.00000000000E+00 -0.77943619820E+02  0.77953965715E+02  0.12700000000E+01 0.  1.
         25    2    1    2    0    0  0.52720143360E+02  0.75557211392E+01 -0.43078573855E+01  0.13594868506E+03  0.12500793934E+03 0.  0.
    9000005    1    3    3    0    0  0.57515276921E+02 -0.43860512428E+02  0.25033854229E+02  0.76547014881E+02  0.10000000000E+01 0.  0.
    9000005    1    3    3    0    0 -0.47951335607E+01  0.51416233567E+02 -0.29341711615E+02  0.59401670183E+02  0.10000000000E+01 0.  0.
         -4    1    1    2    0  502 -0.52720143360E+02 -0.75557211392E+01  0.82906015125E+02  0.98547058210E+02  0.12700000000E+01 0. -1.
<mgrwt>
<rscale>  1 0.13588042E+03</rscale>
<asrwt>0</asrwt>
<pdfrwt beam="1">  1       21 0.24083350E-01 0.13588042E+03</pdfrwt>
<pdfrwt beam="2">  1       -4 0.11992518E-01 0.13588042E+03</pdfrwt>
<totfact> 0.36799987E+04</totfact>
</mgrwt>
</event>
<event>
 6    4  0.6376098E-003  0.1314788E+03  0.7818608E-02  0.1225278E+00
          4   -1    0    0  502    0 -0.00000000000E+00  0.00000000000E+00  0.34980474907E+03  0.34980705449E+03  0.12700000000E+01 0. -1.
         21   -1    0    0  501  502  0.00000000000E+00 -0.00000000000E+00 -0.56851841045E+02  0.56851841045E+02  0.00000000000E+00 0.  1.
         25    2    1    2    0    0  0.37801203276E+02  0.15326068725E+02  0.32767999067E+03  0.35307342624E+03  0.12499139441E+03 0.  0.
    9000005    1    3    3    0    0  0.45805155108E+01 -0.11691729122E+02  0.30374787410E+03  0.30400896150E+03  0.10000000000E+01 0.  0.
    9000005    1    3    3    0    0  0.33220687765E+02  0.27017797848E+02  0.23932116564E+02  0.49064464731E+02  0.10000000000E+01 0.  0.
          4    1    1    2  501    0 -0.37801203276E+02 -0.15326068725E+02 -0.34727082641E+02  0.53585469303E+02  0.12700000000E+01 0.  1.
<mgrwt>
<rscale>  1 0.13147877E+03</rscale>
<asrwt>0</asrwt>
<pdfrwt beam="2">  1       21 0.87464373E-02 0.13147877E+03</pdfrwt>
<pdfrwt beam="1">  1        4 0.53817382E-01 0.13147877E+03</pdfrwt>
<totfact> 0.13927048E+04</totfact>
</mgrwt>
</event>
<event>
 6    4  0.6376098E-003  0.1740824E+03  0.7818608E-02  0.1173656E+00
         21   -1    0    0  501  502  0.00000000000E+00  0.00000000000E+00  0.27129929922E+03  0.27129929922E+03  0.00000000000E+00 0. -1.
          4   -1    0    0  502    0 -0.00000000000E+00 -0.00000000000E+00 -0.12325161136E+03  0.12325815430E+03  0.12700000000E+01 0.  1.
         25    2    1    2    0    0 -0.36704635706E+02  0.11545687739E+03 -0.32534933282E+02  0.17709661388E+03  0.12500867148E+03 0.  0.
    9000005    1    3    3    0    0 -0.51819519375E+02  0.29104799758E+02 -0.60753889150E+02  0.84996394065E+02  0.10000000000E+01 0.  0.
    9000005    1    3    3    0    0  0.15114883669E+02  0.86352077631E+02  0.28218955868E+02  0.92100219814E+02  0.10000000000E+01 0.  0.
          4    1    1    2  501    0  0.36704635706E+02 -0.11545687739E+03  0.18058262115E+03  0.21746083964E+03  0.12700000000E+01 0. -1.
<mgrwt>
<rscale>  1 0.17408242E+03</rscale>
<asrwt>0</asrwt>
<pdfrwt beam="1">  1       21 0.41738354E-01 0.17408242E+03</pdfrwt>
<pdfrwt beam="2">  1        4 0.18962518E-01 0.17408242E+03</pdfrwt>
<totfact> 0.57462135E+03</totfact>
</mgrwt>
</event>
<event>
 6    4  0.6376098E-003  0.1280986E+03  0.7818608E-02  0.1230305E+00
          4   -1    0    0  502    0 -0.00000000000E+00  0.00000000000E+00  0.15162118207E+02  0.15215213720E+02  0.12700000000E+01 0. -1.
         21   -1    0    0  501  502  0.00000000000E+00 -0.00000000000E+00 -0.52097551713E+03  0.52097551713E+03  0.00000000000E+00 0. -1.
         25    2    1    2    0    0  0.12314718105E+02 -0.25169060334E+02 -0.27147694104E+03  0.30018157367E+03  0.12499645505E+03 0.  0.
    9000005    1    3    3    0    0  0.15881327055E+02  0.48587664916E+02 -0.14465880369E+03  0.15342798707E+03  0.10000000000E+01 0.  0.
    9000005    1    3    3    0    0 -0.35666089503E+01 -0.73756725250E+02 -0.12681813735E+03  0.14675358660E+03  0.10000000000E+01 0.  0.
          4    1    1    2  501    0 -0.12314718105E+02  0.25169060334E+02 -0.23433645788E+03  0.23600915718E+03  0.12700000000E+01 0.  1.
<mgrwt>
<rscale>  1 0.12809859E+03</rscale>
<asrwt>0</asrwt>
<pdfrwt beam="2">  1       21 0.80150081E-01 0.12809859E+03</pdfrwt>
<pdfrwt beam="1">  1        4 0.23368369E-02 0.12809859E+03</pdfrwt>
<totfact> 0.44493003E+04</totfact>
</mgrwt>
</event>
<event>
 6    4  0.6376098E-003  0.1268904E+03  0.7818608E-02  0.1232144E+00
         21   -1    0    0  501  502  0.00000000000E+00  0.00000000000E+00  0.34774934554E+03  0.34774934554E+03  0.00000000000E+00 0. -1.
         -4   -1    0    0    0  501 -0.00000000000E+00 -0.00000000000E+00 -0.50859487499E+02  0.50875341460E+02  0.12700000000E+01 0.  1.
         25    2    1    2    0    0  0.48412949796E+01 -0.21289571473E+02  0.29412379708E+02  0.13025460986E+03  0.12499796526E+03 0.  0.
    9000005    1    3    3    0    0  0.66469724155E+01 -0.49721953835E+02 -0.34081506307E+02  0.60654793773E+02  0.10000000000E+01 0.  0.
    9000005    1    3    3    0    0 -0.18056774359E+01  0.28432382362E+02  0.63493886015E+02  0.69599816085E+02  0.10000000000E+01 0.  0.
         -4    1    1    2    0  502 -0.48412949796E+01  0.21289571473E+02  0.26747747833E+03  0.26837007714E+03  0.12700000000E+01 0. -1.
<mgrwt>
<rscale>  1 0.12689041E+03</rscale>
<asrwt>0</asrwt>
<pdfrwt beam="1">  1       21 0.53499898E-01 0.12689041E+03</pdfrwt>
<pdfrwt beam="2">  1       -4 0.78259347E-02 0.12689041E+03</pdfrwt>
<totfact> 0.15467448E+04</totfact>
</mgrwt>
</event>
<event>
 6    4  0.6376098E-003  0.1284768E+03  0.7818608E-02  0.1229734E+00
         -4   -1    0    0    0  501 -0.00000000000E+00  0.00000000000E+00  0.43334992307E+02  0.43353597985E+02  0.12700000000E+01 0. -1.
         21   -1    0    0  501  502  0.00000000000E+00 -0.00000000000E+00 -0.10693405059E+04  0.10693405059E+04  0.00000000000E+00 0.  1.
         25    2    1    2    0    0  0.29009685026E+02  0.62809074109E+01 -0.52587196194E+02  0.13882252859E+03  0.12500107846E+03 0.  0.
    9000005    1    3    3    0    0  0.35391191593E+02  0.55340473165E+02  0.12371969333E+01  0.65708713796E+02  0.10000000000E+01 0.  0.
    9000005    1    3    3    0    0 -0.63815065666E+01 -0.49059565754E+02 -0.53824393127E+02  0.73113814793E+02  0.10000000000E+01 0.  0.
         -4    1    1    2    0  502 -0.29009685026E+02 -0.62809074109E+01 -0.97341831739E+03  0.97387157529E+03  0.12700000000E+01 0.  1.
<mgrwt>
<rscale>  1 0.12847677E+03</rscale>
<asrwt>0</asrwt>
<pdfrwt beam="2">  1       21 0.16451392E+00 0.12847677E+03</pdfrwt>
<pdfrwt beam="1">  1       -4 0.66684114E-02 0.12847677E+03</pdfrwt>
<totfact> 0.14721630E+03</totfact>
</mgrwt>
</event>
<event>
 6    4  0.6376098E-003  0.1267945E+03  0.7818608E-02  0.1232291E+00
         -4   -1    0    0    0  501 -0.00000000000E+00  0.00000000000E+00  0.92975842858E+03  0.92975929595E+03  0.12700000000E+01 0.  1.
         21   -1    0    0  501  502  0.00000000000E+00 -0.00000000000E+00 -0.59103679846E+01  0.59103679846E+01  0.00000000000E+00 0.  1.
         25    2    1    2    0    0  0.21086534604E+02 -0.27147180881E+01  0.80604638412E+03  0.81595809593E+03  0.12499931727E+03 0.  0.
    9000005    1    3    3    0    0  0.59818082795E+02 -0.49181717200E+01  0.20364394354E+03  0.21230696451E+03  0.10000000000E+01 0.  0.
    9000005    1    3    3    0    0 -0.38731548192E+02  0.22034536319E+01  0.60240244059E+03  0.60365113141E+03  0.10000000000E+01 0.  0.
         -4    1    1    2    0  502 -0.21086534604E+02  0.27147180881E+01  0.11780167647E+03  0.11971156801E+03  0.12700000000E+01 0. -1.
<mgrwt>
<rscale>  1 0.12679448E+03</rscale>
<asrwt>0</asrwt>
<pdfrwt beam="2">  1       21 0.90928812E-03 0.12679448E+03</pdfrwt>
<pdfrwt beam="1">  1       -4 0.14305020E+00 0.12679448E+03</pdfrwt>
<totfact> 0.62584389E+04</totfact>
</mgrwt>
</event>
<event>
 6    4  0.6376098E-003  0.1270549E+03  0.7818608E-02  0.1231892E+00
          4   -1    0    0  502    0 -0.00000000000E+00  0.00000000000E+00  0.20423042496E+03  0.20423437365E+03  0.12700000000E+01 0.  1.
         21   -1    0    0  501  502  0.00000000000E+00 -0.00000000000E+00 -0.31267348398E+02  0.31267348398E+02  0.00000000000E+00 0.  1.
         25    2    1    2    0    0  0.22646235463E+02 -0.15589116902E+01  0.17049915958E+03  0.21263327275E+03  0.12501065186E+03 0.  0.
    9000005    1    3    3    0    0 -0.21702384853E+02 -0.20691933104E+02 -0.51679605306E+01  0.30444333134E+02  0.10000000000E+01 0.  0.
    9000005    1    3    3    0    0  0.44348620316E+02  0.19133021414E+02  0.17566712011E+03  0.18218893962E+03  0.10000000000E+01 0.  0.
          4    1    1    2  501    0 -0.22646235463E+02  0.15589116902E+01  0.24639169869E+01  0.22868449296E+02  0.12700000000E+01 0. -1.
<mgrwt>
<rscale>  1 0.12705489E+03</rscale>
<asrwt>0</asrwt>
<pdfrwt beam="2">  1       21 0.48103614E-02 0.12705489E+03</pdfrwt>
<pdfrwt beam="1">  1        4 0.31422352E-01 0.12705489E+03</pdfrwt>
<totfact> 0.11119350E+05</totfact>
</mgrwt>
</event>
<event>
 6    4  0.6376098E-003  0.1285370E+03  0.7818608E-02  0.1229643E+00
         21   -1    0    0  501  502  0.00000000000E+00  0.00000000000E+00  0.19633161125E+02  0.19633161125E+02  0.00000000000E+00 0. -1.
         -4   -1    0    0    0  501 -0.00000000000E+00 -0.00000000000E+00 -0.54117314306E+03  0.54117463325E+03  0.12700000000E+01 0.  1.
         25    2    1    2    0    0  0.26069846917E+02  0.14780536011E+02 -0.51407058315E+03  0.52989653459E+03  0.12499468688E+03 0.  0.
    9000005    1    3    3    0    0 -0.35390481970E+02  0.15202616658E+02 -0.57558944573E+02  0.69264982983E+02  0.10000000000E+01 0.  0.
    9000005    1    3    3    0    0  0.61460328887E+02 -0.42208064636E+00 -0.45651163858E+03  0.46063155161E+03  0.10000000000E+01 0.  0.
         -4    1    1    2    0  502 -0.26069846917E+02 -0.14780536011E+02 -0.74693987843E+01  0.30911259781E+02  0.12700000000E+01 0. -1.
<mgrwt>
<rscale>  1 0.12853705E+03</rscale>
<asrwt>0</asrwt>
<pdfrwt beam="1">  1       21 0.30204865E-02 0.12853705E+03</pdfrwt>
<pdfrwt beam="2">  1       -4 0.83260675E-01 0.12853705E+03</pdfrwt>
<totfact> 0.32717712E+04</totfact>
</mgrwt>
</event>
<event>
 6    4  0.6376098E-003  0.1551138E+03  0.7818608E-02  0.1194326E+00
         -4   -1    0    0    0  501 -0.00000000000E+00  0.00000000000E+00  0.52067971420E+02  0.52083457525E+02  0.12700000000E+01 0. -1.
         21   -1    0    0  501  502  0.00000000000E+00 -0.00000000000E+00 -0.41226140532E+03  0.41226140532E+03  0.00000000000E+00 0.  1.
         25    2    1    2    0    0 -0.88541991153E+02 -0.24375735871E+02 -0.90823641095E+02  0.17974767580E+03  0.12500572978E+03 0.  0.
    9000005    1    3    3    0    0 -0.26590182422E+02  0.48886304887E+02 -0.52228728810E+02  0.76326592481E+02  0.10000000000E+01 0.  0.
    9000005    1    3    3    0    0 -0.61951808731E+02 -0.73262040758E+02 -0.38594912285E+02  0.10342108332E+03  0.10000000000E+01 0.  0.
         -4    1    1    2    0  502  0.88541991153E+02  0.24375735871E+02 -0.26936979280E+03  0.28459718704E+03  0.12700000000E+01 0.  1.
<mgrwt>
<rscale>  1 0.15511381E+03</rscale>
<asrwt>0</asrwt>
<pdfrwt beam="2">  1       21 0.63424833E-01 0.15511381E+03</pdfrwt>
<pdfrwt beam="1">  1       -4 0.80117986E-02 0.15511381E+03</pdfrwt>
<totfact> 0.10530649E+04</totfact>
</mgrwt>
</event>
<event>
 6    4  0.6376098E-003  0.1278831E+03  0.7818608E-02  0.1230631E+00
         21   -1    0    0  501  502  0.00000000000E+00  0.00000000000E+00  0.27852092853E+01  0.27852092853E+01  0.00000000000E+00 0.  1.
         -4   -1    0    0    0  501 -0.00000000000E+00 -0.00000000000E+00 -0.29108553144E+04  0.29108555914E+04  0.12700000000E+01 0.  1.
         25    2    1    2    0    0  0.16689807854E+02  0.21226471175E+02 -0.27699393218E+04  0.27728898186E+04  0.12499994813E+03 0.  0.
    9000005    1    3    3    0    0 -0.48670416806E+02  0.27971967192E+02 -0.86689691220E+03  0.86871312687E+03  0.10000000000E+01 0.  0.
    9000005    1    3    3    0    0  0.65360224659E+02 -0.67454960170E+01 -0.19030424096E+04  0.19041766918E+04  0.10000000000E+01 0.  0.
         -4    1    1    2    0  502 -0.16689807854E+02 -0.21226471175E+02 -0.13813078329E+03  0.14075098208E+03  0.12700000000E+01 0. -1.
<mgrwt>
<rscale>  1 0.12788315E+03</rscale>
<asrwt>0</asrwt>
<pdfrwt beam="1">  1       21 0.42849378E-03 0.12788315E+03</pdfrwt>
<pdfrwt beam="2">  1       -4 0.44784614E+00 0.12788315E+03</pdfrwt>
<totfact> 0.24965034E+03</totfact>
</mgrwt>
</event>
<event>
 6    4  0.6376098E-003  0.1272673E+03  0.7818608E-02  0.1231568E+00
         21   -1    0    0  501  502  0.00000000000E+00  0.00000000000E+00  0.27952333211E+03  0.27952333211E+03  0.00000000000E+00 0. -1.
         -4   -1    0    0    0  501 -0.00000000000E+00 -0.00000000000E+00 -0.31360878759E+02  0.31386583384E+02  0.12700000000E+01 0. -1.
         25    2    1    2    0    0  0.93968578021E+01 -0.22053629434E+02  0.25580649417E+03  0.28571650827E+03  0.12498918804E+03 0.  0.
    9000005    1    3    3    0    0 -0.11939609531E+02 -0.71811927501E+02  0.13669251355E+03  0.15487204547E+03  0.10000000000E+01 0.  0.
    9000005    1    3    3    0    0  0.21336467333E+02  0.49758298067E+02  0.11911398063E+03  0.13084446280E+03  0.10000000000E+01 0.  0.
         -4    1    1    2    0  502 -0.93968578021E+01  0.22053629434E+02 -0.76440408206E+01  0.25193407230E+02  0.12700000000E+01 0.  1.
<mgrwt>
<rscale>  1 0.12726728E+03</rscale>
<asrwt>0</asrwt>
<pdfrwt beam="1">  1       21 0.43003588E-01 0.12726728E+03</pdfrwt>
<pdfrwt beam="2">  1       -4 0.48269500E-02 0.12726728E+03</pdfrwt>
<totfact> 0.53115471E+04</totfact>
</mgrwt>
</event>
<event>
 6    4  0.6376098E-003  0.1290934E+03  0.7818608E-02  0.1228807E+00
         -4   -1    0    0    0  501 -0.00000000000E+00  0.00000000000E+00  0.69188444691E+03  0.69188561249E+03  0.12700000000E+01 0. -1.
         21   -1    0    0  501  502  0.00000000000E+00 -0.00000000000E+00 -0.10287981245E+02  0.10287981245E+02  0.00000000000E+00 0. -1.
         25    2    1    2    0    0 -0.19317706498E+02  0.25823657793E+02  0.61186884047E+03  0.62533877285E+03  0.12500027120E+03 0.  0.
    9000005    1    3    3    0    0  0.10863495718E+02 -0.31330238399E+02  0.51543072547E+02  0.61296718549E+02  0.10000000000E+01 0.  0.
    9000005    1    3    3    0    0 -0.30181202216E+02  0.57153896192E+02  0.56032576793E+03  0.56404205430E+03  0.10000000000E+01 0.  0.
         -4    1    1    2    0  502  0.19317706498E+02 -0.25823657793E+02  0.69727625192E+02  0.76834820890E+02  0.12700000000E+01 0.  1.
<mgrwt>
<rscale>  1 0.12909339E+03</rscale>
<asrwt>0</asrwt>
<pdfrwt beam="2">  1       21 0.15827669E-02 0.12909339E+03</pdfrwt>
<pdfrwt beam="1">  1       -4 0.10644984E+00 0.12909339E+03</pdfrwt>
<totfact> 0.53235187E+04</totfact>
</mgrwt>
</event>
<event>
 6    4  0.6376098E-003  0.1278533E+03  0.7818608E-02  0.1230676E+00
         21   -1    0    0  501  502  0.00000000000E+00  0.00000000000E+00  0.19592146764E+03  0.19592146764E+03  0.00000000000E+00 0. -1.
         -4   -1    0    0    0  501 -0.00000000000E+00 -0.00000000000E+00 -0.61751925974E+02  0.61764984105E+02  0.12700000000E+01 0.  1.
         25    2    1    2    0    0  0.53952790870E+01 -0.26313922663E+02  0.73686643084E+01  0.12806543894E+03  0.12499971150E+03 0.  0.
    9000005    1    3    3    0    0 -0.30012982935E+01  0.53294327395E+01 -0.56207458967E+02  0.56548113040E+02  0.10000000000E+01 0.  0.
    9000005    1    3    3    0    0  0.83965773805E+01 -0.31643355402E+02  0.63576123276E+02  0.71517325898E+02  0.10000000000E+01 0.  0.
         -4    1    1    2    0  502 -0.53952790870E+01  0.26313922663E+02  0.12680087736E+03  0.12962101281E+03  0.12700000000E+01 0. -1.
<mgrwt>
<rscale>  1 0.12785327E+03</rscale>
<asrwt>0</asrwt>
<pdfrwt beam="1">  1       21 0.30141764E-01 0.12785327E+03</pdfrwt>
<pdfrwt beam="2">  1       -4 0.95016175E-02 0.12785327E+03</pdfrwt>
<totfact> 0.35345421E+04</totfact>
</mgrwt>
</event>
<event>
 6    4  0.6376098E-003  0.1299785E+03  0.7818608E-02  0.1227488E+00
         -4   -1    0    0    0  501 -0.00000000000E+00  0.00000000000E+00  0.51781350231E+03  0.51781505973E+03  0.12700000000E+01 0. -1.
         21   -1    0    0  501  502  0.00000000000E+00 -0.00000000000E+00 -0.14334229647E+02  0.14334229647E+02  0.00000000000E+00 0. -1.
         25    2    1    2    0    0  0.11809117967E+02  0.33600828975E+02  0.44567392957E+03  0.46424095729E+03  0.12500377577E+03 0.  0.
    9000005    1    3    3    0    0 -0.49957144898E+02  0.22224821035E+02  0.11119579293E+03  0.12391595281E+03  0.10000000000E+01 0.  0.
    9000005    1    3    3    0    0  0.61766262865E+02  0.11376007940E+02  0.33447813664E+03  0.34032500448E+03  0.10000000000E+01 0.  0.
         -4    1    1    2    0  502 -0.11809117967E+02 -0.33600828975E+02  0.57805343103E+02  0.67908332082E+02  0.12700000000E+01 0.  1.
<mgrwt>
<rscale>  1 0.12997852E+03</rscale>
<asrwt>0</asrwt>
<pdfrwt beam="2">  1       21 0.22052665E-02 0.12997852E+03</pdfrwt>
<pdfrwt beam="1">  1       -4 0.79668048E-01 0.12997852E+03</pdfrwt>
<totfact> 0.60330135E+04</totfact>
</mgrwt>
</event>
<event>
 6    4  0.6376098E-003  0.1295320E+03  0.7818608E-02  0.1228152E+00
          4   -1    0    0  502    0 -0.00000000000E+00  0.00000000000E+00  0.16127953070E+03  0.16128453095E+03  0.12700000000E+01 0.  1.
         21   -1    0    0  501  502  0.00000000000E+00 -0.00000000000E+00 -0.77888931804E+02  0.77888931804E+02  0.00000000000E+00 0. -1.
         25    2    1    2    0    0 -0.19118542333E+02 -0.28072552500E+02  0.12865644119E+03  0.18256784251E+03  0.12499980158E+03 0.  0.
    9000005    1    3    3    0    0 -0.17178028505E+02  0.12570813780E+01  0.14693197001E+03  0.14794143682E+03  0.10000000000E+01 0.  0.
    9000005    1    3    3    0    0 -0.19405138275E+01 -0.29329633878E+02 -0.18275528821E+02  0.34626405691E+02  0.10000000000E+01 0.  0.
          4    1    1    2  501    0  0.19118542333E+02  0.28072552500E+02 -0.45265842292E+02  0.56605620244E+02  0.12700000000E+01 0. -1.
<mgrwt>
<rscale>  1 0.12953199E+03</rscale>
<asrwt>0</asrwt>
<pdfrwt beam="2">  1       21 0.11982913E-01 0.12953199E+03</pdfrwt>
<pdfrwt beam="1">  1        4 0.24813416E-01 0.12953199E+03</pdfrwt>
<totfact> 0.36069275E+04</totfact>
</mgrwt>
</event>
<event>
 6    4  0.6376098E-003  0.1463107E+03  0.7818608E-02  0.1205081E+00
         21   -1    0    0  501  502  0.00000000000E+00  0.00000000000E+00  0.80239045468E+03  0.80239045468E+03  0.00000000000E+00 0. -1.
         -4   -1    0    0    0  501 -0.00000000000E+00 -0.00000000000E+00 -0.21629677369E+02  0.21666929710E+02  0.12700000000E+01 0.  1.
         25    2    1    2    0    0  0.77490292754E+01  0.75637961533E+02  0.26488411101E+03  0.30260604781E+03  0.12500271689E+03 0.  0.
    9000005    1    3    3    0    0  0.46266422756E+02  0.38805010534E+02  0.42313815573E+02  0.73741912815E+02  0.10000000000E+01 0.  0.
    9000005    1    3    3    0    0 -0.38517393481E+02  0.36832951000E+02  0.22257029543E+03  0.22886413500E+03  0.10000000000E+01 0.  0.
         -4    1    1    2    0  502 -0.77490292754E+01 -0.75637961533E+02  0.51587666631E+03  0.52145133658E+03  0.12700000000E+01 0. -1.
<mgrwt>
<rscale>  1 0.14631072E+03</rscale>
<asrwt>0</asrwt>
<pdfrwt beam="1">  1       21 0.12344466E+00 0.14631072E+03</pdfrwt>
<pdfrwt beam="2">  1       -4 0.33305862E-02 0.14631072E+03</pdfrwt>
<totfact> 0.93871805E+03</totfact>
</mgrwt>
</event>
<event>
 6    4  0.6376098E-003  0.1284063E+03  0.7818608E-02  0.1229840E+00
         21   -1    0    0  501  502  0.00000000000E+00  0.00000000000E+00  0.97135833483E+02  0.97135833483E+02  0.00000000000E+00 0. -1.
          4   -1    0    0  502    0 -0.00000000000E+00 -0.00000000000E+00 -0.87248265474E+02  0.87257508148E+02  0.12700000000E+01 0. -1.
         25    2    1    2    0    0  0.29386888356E+02 -0.32520768196E-01 -0.32821978516E+02  0.13253479818E+03  0.12499840075E+03 0.  0.
    9000005    1    3    3    0    0  0.24066258391E+01 -0.21198853628E+02  0.43718877391E+02  0.48657203819E+02  0.10000000000E+01 0.  0.
    9000005    1    3    3    0    0  0.26980262516E+02  0.21166332860E+02 -0.76540855908E+02  0.83877594358E+02  0.10000000000E+01 0.  0.
          4    1    1    2  501    0 -0.29386888356E+02  0.32520768196E-01  0.42709546525E+02  0.51858543454E+02  0.12700000000E+01 0.  1.
<mgrwt>
<rscale>  1 0.12840635E+03</rscale>
<asrwt>0</asrwt>
<pdfrwt beam="1">  1       21 0.14943974E-01 0.12840635E+03</pdfrwt>
<pdfrwt beam="2">  1        4 0.13424160E-01 0.12840635E+03</pdfrwt>
<totfact> 0.72519198E+04</totfact>
</mgrwt>
</event>
<event>
 6    4  0.6376098E-003  0.1272510E+03  0.7818608E-02  0.1231593E+00
          4   -1    0    0  502    0 -0.00000000000E+00  0.00000000000E+00  0.54618121960E+02  0.54632885210E+02  0.12700000000E+01 0. -1.
         21   -1    0    0  501  502  0.00000000000E+00 -0.00000000000E+00 -0.10613812362E+03  0.10613812362E+03  0.00000000000E+00 0. -1.
         25    2    1    2    0    0 -0.15249025102E+02 -0.18319412425E+02 -0.35802824393E+02  0.13219171214E+03  0.12499869154E+03 0.  0.
    9000005    1    3    3    0    0 -0.67169153546E+02 -0.22250642723E+02 -0.33824590667E+01  0.70846505341E+02  0.10000000000E+01 0.  0.
    9000005    1    3    3    0    0  0.51920128444E+02  0.39312302974E+01 -0.32420365326E+02  0.61345206798E+02  0.10000000000E+01 0.  0.
          4    1    1    2  501    0  0.15249025102E+02  0.18319412425E+02 -0.15717177270E+02  0.28579296694E+02  0.12700000000E+01 0.  1.
<mgrwt>
<rscale>  1 0.12725096E+03</rscale>
<asrwt>0</asrwt>
<pdfrwt beam="2">  1       21 0.16328942E-01 0.12725096E+03</pdfrwt>
<pdfrwt beam="1">  1        4 0.84045081E-02 0.12725096E+03</pdfrwt>
<totfact> 0.13624969E+05</totfact>
</mgrwt>
</event>
<event>
 6    4  0.6376098E-003  0.1270555E+03  0.7818608E-02  0.1231891E+00
         21   -1    0    0  501  502  0.00000000000E+00  0.00000000000E+00  0.25667134452E+02  0.25667134452E+02  0.00000000000E+00 0.  1.
         -4   -1    0    0    0  501 -0.00000000000E+00 -0.00000000000E+00 -0.42381142624E+03  0.42381332909E+03  0.12700000000E+01 0. -1.
         25    2    1    2    0    0 -0.60212003783E+01  0.21898642164E+02 -0.40599917681E+03  0.42541560324E+03  0.12500919380E+03 0.  0.
    9000005    1    3    3    0    0  0.20625008458E+02  0.23965338990E+02 -0.17804146758E+02  0.36300359345E+02  0.10000000000E+01 0.  0.
    9000005    1    3    3    0    0 -0.26646208836E+02 -0.20666968259E+01 -0.38819503005E+03  0.38911524390E+03  0.10000000000E+01 0.  0.
         -4    1    1    2    0  502  0.60212003783E+01 -0.21898642164E+02  0.78548850146E+01  0.24064860299E+02  0.12700000000E+01 0.  1.
<mgrwt>
<rscale>  1 0.12705552E+03</rscale>
<asrwt>0</asrwt>
<pdfrwt beam="1">  1       21 0.39487898E-02 0.12705552E+03</pdfrwt>
<pdfrwt beam="2">  1       -4 0.65204323E-01 0.12705552E+03</pdfrwt>
<totfact> 0.35731962E+04</totfact>
</mgrwt>
</event>
<event>
 6    4  0.6376098E-003  0.1277074E+03  0.7818608E-02  0.1230898E+00
         21   -1    0    0  501  502  0.00000000000E+00  0.00000000000E+00  0.14230167345E+02  0.14230167345E+02  0.00000000000E+00 0.  1.
         -4   -1    0    0    0  501 -0.00000000000E+00 -0.00000000000E+00 -0.42078943627E+03  0.42079135278E+03  0.12700000000E+01 0.  1.
         25    2    1    2    0    0  0.43304682416E+01 -0.25726441909E+02 -0.35397371157E+03  0.37630647511E+03  0.12501428703E+03 0.  0.
    9000005    1    3    3    0    0 -0.38459481323E+02 -0.22100271090E+02 -0.31561160807E+03  0.31871498370E+03  0.10000000000E+01 0.  0.
    9000005    1    3    3    0    0  0.42789949564E+02 -0.36261708195E+01 -0.38362103502E+02  0.57591491417E+02  0.10000000000E+01 0.  0.
         -4    1    1    2    0  502 -0.43304682416E+01  0.25726441909E+02 -0.52585557356E+02  0.58715045014E+02  0.12700000000E+01 0. -1.
<mgrwt>
<rscale>  1 0.12770738E+03</rscale>
<asrwt>0</asrwt>
<pdfrwt beam="1">  1       21 0.21892564E-02 0.12770738E+03</pdfrwt>
<pdfrwt beam="2">  1       -4 0.64741347E-01 0.12770738E+03</pdfrwt>
<totfact> 0.95424274E+04</totfact>
</mgrwt>
</event>
<event>
 6    4  0.6376098E-003  0.1285325E+03  0.7818608E-02  0.1229650E+00
         21   -1    0    0  501  502  0.00000000000E+00  0.00000000000E+00  0.24279093173E+03  0.24279093173E+03  0.00000000000E+00 0. -1.
          4   -1    0    0  502    0 -0.00000000000E+00 -0.00000000000E+00 -0.13074596397E+03  0.13075213190E+03  0.12700000000E+01 0.  1.
         25    2    1    2    0    0  0.24127291616E+02  0.17685168947E+02 -0.97839414271E+02  0.16153372864E+03  0.12500281238E+03 0.  0.
    9000005    1    3    3    0    0  0.52247717458E+02 -0.29099775551E+02 -0.13908742761E+02  0.61409071332E+02  0.10000000000E+01 0.  0.
    9000005    1    3    3    0    0 -0.28120425842E+02  0.46784944498E+02 -0.83930671510E+02  0.10012465731E+03  0.10000000000E+01 0.  0.
          4    1    1    2  501    0 -0.24127291616E+02 -0.17685168947E+02  0.20988438203E+03  0.21200933498E+03  0.12700000000E+01 0. -1.
<mgrwt>
<rscale>  1 0.12853246E+03</rscale>
<asrwt>0</asrwt>
<pdfrwt beam="1">  1       21 0.37352451E-01 0.12853246E+03</pdfrwt>
<pdfrwt beam="2">  1        4 0.20115494E-01 0.12853246E+03</pdfrwt>
<totfact> 0.63407792E+03</totfact>
</mgrwt>
</event>
<event>
 6    4  0.6376098E-003  0.1432471E+03  0.7818608E-02  0.1209025E+00
         21   -1    0    0  501  502  0.00000000000E+00  0.00000000000E+00  0.34875174840E+03  0.34875174840E+03  0.00000000000E+00 0. -1.
          4   -1    0    0  502    0 -0.00000000000E+00 -0.00000000000E+00 -0.13724973192E+03  0.13725560758E+03  0.12700000000E+01 0.  1.
         25    2    1    2    0    0 -0.20650293304E+02 -0.66837655391E+02 -0.94826581970E+02  0.17179002686E+03  0.12500410348E+03 0.  0.
    9000005    1    3    3    0    0  0.18335977177E+02  0.15088280015E+02 -0.75321868140E+02  0.78982580819E+02  0.10000000000E+01 0.  0.
    9000005    1    3    3    0    0 -0.38986270481E+02 -0.81925935406E+02 -0.19504713830E+02  0.92807446036E+02  0.10000000000E+01 0.  0.
          4    1    1    2  501    0  0.20650293304E+02  0.66837655391E+02  0.30632859845E+03  0.31421732912E+03  0.12700000000E+01 0. -1.
<mgrwt>
<rscale>  1 0.14324710E+03</rscale>
<asrwt>0</asrwt>
<pdfrwt beam="1">  1       21 0.53654115E-01 0.14324710E+03</pdfrwt>
<pdfrwt beam="2">  1        4 0.21115973E-01 0.14324710E+03</pdfrwt>
<totfact> 0.27975218E+03</totfact>
</mgrwt>
</event>
<event>
 6    4  0.6376098E-003  0.1302961E+03  0.7818608E-02  0.1227017E+00
         -4   -1    0    0    0  501 -0.00000000000E+00  0.00000000000E+00  0.24356146118E+02  0.24389234381E+02  0.12700000000E+01 0.  1.
         21   -1    0    0  501  502  0.00000000000E+00 -0.00000000000E+00 -0.31902002147E+03  0.31902002147E+03  0.00000000000E+00 0.  1.
         25    2    1    2    0    0 -0.26138669192E+02 -0.25869858077E+02 -0.26790789014E+03  0.29791227541E+03  0.12499842663E+03 0.  0.
    9000005    1    3    3    0    0 -0.71962453873E+02 -0.25396703822E+02 -0.21371947175E+03  0.22693743618E+03  0.10000000000E+01 0.  0.
    9000005    1    3    3    0    0  0.45823784681E+02 -0.47315425550E+00 -0.54188418386E+02  0.70974839237E+02  0.10000000000E+01 0.  0.
         -4    1    1    2    0  502  0.26138669192E+02  0.25869858077E+02 -0.26755985209E+02  0.45496980434E+02  0.12700000000E+01 0. -1.
<mgrwt>
<rscale>  1 0.13029615E+03</rscale>
<asrwt>0</asrwt>
<pdfrwt beam="2">  1       21 0.49080002E-01 0.13029615E+03</pdfrwt>
<pdfrwt beam="1">  1       -4 0.37498392E-02 0.13029615E+03</pdfrwt>
<totfact> 0.60810154E+04</totfact>
</mgrwt>
</event>
<event>
 6    4  0.6376098E-003  0.1266533E+03  0.7818608E-02  0.1232508E+00
         21   -1    0    0  501  502  0.00000000000E+00  0.00000000000E+00  0.44812123011E+02  0.44812123011E+02  0.00000000000E+00 0.  1.
          4   -1    0    0  502    0 -0.00000000000E+00 -0.00000000000E+00 -0.13703066340E+03  0.13703654845E+03  0.12700000000E+01 0.  1.
         25    2    1    2    0    0  0.17371820527E+02  0.10689429587E+02 -0.98523349903E+02  0.16046158246E+03  0.12500009966E+03 0.  0.
    9000005    1    3    3    0    0  0.46763883009E+02 -0.20988715084E+02 -0.10491047101E+03  0.11676726357E+03  0.10000000000E+01 0.  0.
    9000005    1    3    3    0    0 -0.29392062482E+02  0.31678144671E+02  0.63871211046E+01  0.43694318885E+02  0.10000000000E+01 0.  0.
          4    1    1    2  501    0 -0.17371820527E+02 -0.10689429587E+02  0.63048095126E+01  0.21387089009E+02  0.12700000000E+01 0. -1.
<mgrwt>
<rscale>  1 0.12665334E+03</rscale>
<asrwt>0</asrwt>
<pdfrwt beam="1">  1       21 0.68941729E-02 0.12665334E+03</pdfrwt>
<pdfrwt beam="2">  1        4 0.21083477E-01 0.12665334E+03</pdfrwt>
<totfact> 0.12655639E+05</totfact>
</mgrwt>
</event>
<event>
 6    4  0.6376098E-003  0.2254621E+03  0.7818608E-02  0.1129875E+00
         21   -1    0    0  501  502  0.00000000000E+00  0.00000000000E+00  0.33557389520E+03  0.33557389520E+03  0.00000000000E+00 0. -1.
          4   -1    0    0  502    0 -0.00000000000E+00 -0.00000000000E+00 -0.12741300604E+03  0.12741933530E+03  0.12700000000E+01 0.  1.
         25    2    1    2    0    0 -0.17989435005E+03 -0.53339214253E+02  0.12443513223E+03  0.25752142166E+03  0.12500452600E+03 0.  0.
    9000005    1    3    3    0    0 -0.18342483750E+03 -0.65102852965E+02  0.78347957284E+02  0.20981528754E+03  0.10000000000E+01 0.  0.
    9000005    1    3    3    0    0  0.35304874494E+01  0.11763638712E+02  0.46087174950E+02  0.47706134116E+02  0.10000000000E+01 0.  0.
          4    1    1    2  501    0  0.17989435005E+03  0.53339214253E+02  0.83725756921E+02  0.20547180884E+03  0.12700000000E+01 0. -1.
<mgrwt>
<rscale>  1 0.22546215E+03</rscale>
<asrwt>0</asrwt>
<pdfrwt beam="1">  1       21 0.51626753E-01 0.22546215E+03</pdfrwt>
<pdfrwt beam="2">  1        4 0.19602673E-01 0.22546215E+03</pdfrwt>
<totfact> 0.35185430E+03</totfact>
</mgrwt>
</event>
<event>
 6    4  0.6376098E-003  0.1380341E+03  0.7818608E-02  0.1215999E+00
         -4   -1    0    0    0  501 -0.00000000000E+00  0.00000000000E+00  0.58032124008E+02  0.58046018958E+02  0.12700000000E+01 0.  1.
         21   -1    0    0  501  502  0.00000000000E+00 -0.00000000000E+00 -0.22544157316E+03  0.22544157316E+03  0.00000000000E+00 0.  1.
         25    2    1    2    0    0  0.53243124235E+02 -0.24338914879E+02 -0.40711689755E+02  0.14391270830E+03  0.12500485139E+03 0.  0.
    9000005    1    3    3    0    0 -0.27092433549E+02  0.14151272033E+02 -0.45359146573E+02  0.54705672773E+02  0.10000000000E+01 0.  0.
    9000005    1    3    3    0    0  0.80335557784E+02 -0.38490186912E+02  0.46474568174E+01  0.89207035529E+02  0.10000000000E+01 0.  0.
         -4    1    1    2    0  502 -0.53243124235E+02  0.24338914879E+02 -0.12669775939E+03  0.13957488381E+03  0.12700000000E+01 0. -1.
<mgrwt>
<rscale>  1 0.13803415E+03</rscale>
<asrwt>0</asrwt>
<pdfrwt beam="2">  1       21 0.34683318E-01 0.13803415E+03</pdfrwt>
<pdfrwt beam="1">  1       -4 0.89293632E-02 0.13803415E+03</pdfrwt>
<totfact> 0.30077286E+04</totfact>
</mgrwt>
</event>
<event>
 6    4  0.6376098E-003  0.1311749E+03  0.7818608E-02  0.1225723E+00
         21   -1    0    0  501  502  0.00000000000E+00  0.00000000000E+00  0.31314264222E+03  0.31314264222E+03  0.00000000000E+00 0. -1.
         -4   -1    0    0    0  501 -0.00000000000E+00 -0.00000000000E+00 -0.51074039859E+02  0.51089827241E+02  0.12700000000E+01 0.  1.
         25    2    1    2    0    0  0.22581508219E+02  0.32741966721E+02  0.37873357858E+02  0.13653292740E+03  0.12499955252E+03 0.  0.
    9000005    1    3    3    0    0  0.17080387546E+02 -0.45847082474E+02 -0.40835217499E+00  0.48937320744E+02  0.10000000000E+01 0.  0.
    9000005    1    3    3    0    0  0.55011206731E+01  0.78589049194E+02  0.38281710033E+02  0.87595606654E+02  0.10000000000E+01 0.  0.
         -4    1    1    2    0  502 -0.22581508219E+02 -0.32741966721E+02  0.22419524450E+03  0.22769954206E+03  0.12700000000E+01 0. -1.
<mgrwt>
<rscale>  1 0.13117488E+03</rscale>
<asrwt>0</asrwt>
<pdfrwt beam="1">  1       21 0.48175790E-01 0.13117488E+03</pdfrwt>
<pdfrwt beam="2">  1       -4 0.78589573E-02 0.13117488E+03</pdfrwt>
<totfact> 0.19133852E+04</totfact>
</mgrwt>
</event>
<event>
 6    4  0.6376098E-003  0.1307318E+03  0.7818608E-02  0.1226374E+00
         -4   -1    0    0    0  501 -0.00000000000E+00  0.00000000000E+00  0.14613118084E+03  0.14613669940E+03  0.12700000000E+01 0.  1.
         21   -1    0    0  501  502  0.00000000000E+00 -0.00000000000E+00 -0.52325944913E+02  0.52325944913E+02  0.00000000000E+00 0.  1.
         25    2    1    2    0    0  0.38294032481E+02  0.10664820982E+00  0.92459839257E+02  0.16012379601E+03  0.12499745547E+03 0.  0.
    9000005    1    3    3    0    0  0.80991907305E+00  0.12070408700E+02  0.11441339044E+03  0.11505552854E+03  0.10000000000E+01 0.  0.
    9000005    1    3    3    0    0  0.37484113408E+02 -0.11963760490E+02 -0.21953551184E+02  0.45068267469E+02  0.10000000000E+01 0.  0.
         -4    1    1    2    0  502 -0.38294032481E+02 -0.10664820982E+00  0.13453966665E+01  0.38338848309E+02  0.12700000000E+01 0. -1.
<mgrwt>
<rscale>  1 0.13073182E+03</rscale>
<asrwt>0</asrwt>
<pdfrwt beam="2">  1       21 0.80501454E-02 0.13073182E+03</pdfrwt>
<pdfrwt beam="1">  1       -4 0.22483330E-01 0.13073182E+03</pdfrwt>
<totfact> 0.86710635E+04</totfact>
</mgrwt>
</event>
<event>
 6    4  0.6376098E-003  0.1313766E+03  0.7818608E-02  0.1225427E+00
         21   -1    0    0  501  502  0.00000000000E+00  0.00000000000E+00  0.71538797649E+02  0.71538797649E+02  0.00000000000E+00 0. -1.
          4   -1    0    0  502    0 -0.00000000000E+00 -0.00000000000E+00 -0.16416983863E+03  0.16417475085E+03  0.12700000000E+01 0.  1.
         25    2    1    2    0    0 -0.67209323591E+01 -0.39876528040E+02 -0.12692643880E+03  0.18267492454E+03  0.12499799506E+03 0.  0.
    9000005    1    3    3    0    0  0.57468889849E+02 -0.39502396256E+01 -0.50806472721E+02  0.76815202687E+02  0.10000000000E+01 0.  0.
    9000005    1    3    3    0    0 -0.64189822208E+02 -0.35926288414E+02 -0.76119966082E+02  0.10585972185E+03  0.10000000000E+01 0.  0.
          4    1    1    2  501    0  0.67209323591E+01  0.39876528040E+02  0.34295397817E+02  0.53038623961E+02  0.12700000000E+01 0. -1.
<mgrwt>
<rscale>  1 0.13137659E+03</rscale>
<asrwt>0</asrwt>
<pdfrwt beam="1">  1       21 0.11005969E-01 0.13137659E+03</pdfrwt>
<pdfrwt beam="2">  1        4 0.25258143E-01 0.13137659E+03</pdfrwt>
<totfact> 0.40634381E+04</totfact>
</mgrwt>
</event>
<event>
 6    4  0.6376098E-003  0.1463976E+03  0.7818608E-02  0.1204971E+00
         21   -1    0    0  501  502  0.00000000000E+00  0.00000000000E+00  0.21851224875E+03  0.21851224875E+03  0.00000000000E+00 0.  1.
         -4   -1    0    0    0  501 -0.00000000000E+00 -0.00000000000E+00 -0.11581386872E+03  0.11582083184E+03  0.12700000000E+01 0. -1.
         25    2    1    2    0    0  0.75883126682E+02 -0.70442325413E+01 -0.57217545806E+02  0.15718177135E+03  0.12499756626E+03 0.  0.
    9000005    1    3    3    0    0  0.70948764273E+02 -0.44519753008E+02 -0.77634358908E+02  0.11420958472E+03  0.10000000000E+01 0.  0.
    9000005    1    3    3    0    0  0.49343624092E+01  0.37475520467E+02  0.20416813101E+02  0.42972186631E+02  0.10000000000E+01 0.  0.
         -4    1    1    2    0  502 -0.75883126682E+02  0.70442325413E+01  0.15991592583E+03  0.17715130923E+03  0.12700000000E+01 0.  1.
<mgrwt>
<rscale>  1 0.14639762E+03</rscale>
<asrwt>0</asrwt>
<pdfrwt beam="1">  1       21 0.33617269E-01 0.14639762E+03</pdfrwt>
<pdfrwt beam="2">  1       -4 0.17818338E-01 0.14639762E+03</pdfrwt>
<totfact> 0.97836691E+03</totfact>
</mgrwt>
</event>
<event>
 6    4  0.6376098E-003  0.1274918E+03  0.7818608E-02  0.1231226E+00
          4   -1    0    0  502    0 -0.00000000000E+00  0.00000000000E+00  0.45679244206E+03  0.45679420752E+03  0.12700000000E+01 0. -1.
         21   -1    0    0  501  502  0.00000000000E+00 -0.00000000000E+00 -0.19433323024E+02  0.19433323024E+02  0.00000000000E+00 0. -1.
         25    2    1    2    0    0  0.23043943990E+02  0.99676473282E+01  0.43213710100E+03  0.45055147710E+03  0.12499512835E+03 0.  0.
    9000005    1    3    3    0    0  0.10521842963E+02  0.67623957661E+02  0.22657488014E+03  0.23668731512E+03  0.10000000000E+01 0.  0.
    9000005    1    3    3    0    0  0.12522101026E+02 -0.57656310333E+02  0.20556222086E+03  0.21386416198E+03  0.10000000000E+01 0.  0.
          4    1    1    2  501    0 -0.23043943990E+02 -0.99676473282E+01  0.52220180365E+01  0.25676053440E+02  0.12700000000E+01 0.  1.
<mgrwt>
<rscale>  1 0.12749180E+03</rscale>
<asrwt>0</asrwt>
<pdfrwt beam="2">  1       21 0.29897423E-02 0.12749180E+03</pdfrwt>
<pdfrwt beam="1">  1        4 0.70279080E-01 0.12749180E+03</pdfrwt>
<totfact> 0.48175316E+04</totfact>
</mgrwt>
</event>
<event>
 6    4  0.6376098E-003  0.1270480E+03  0.7818608E-02  0.1231903E+00
         -4   -1    0    0    0  501 -0.00000000000E+00  0.00000000000E+00  0.61102997065E+03  0.61103129047E+03  0.12700000000E+01 0.  1.
         21   -1    0    0  501  502  0.00000000000E+00 -0.00000000000E+00 -0.93636943413E+01  0.93636943413E+01  0.00000000000E+00 0.  1.
         25    2    1    2    0    0  0.43148943113E+01 -0.22303190030E+02  0.47476636319E+03  0.49147155231E+03  0.12500054606E+03 0.  0.
    9000005    1    3    3    0    0 -0.14178105261E+01 -0.74503382189E+02  0.27936601139E+03  0.28913514567E+03  0.10000000000E+01 0.  0.
    9000005    1    3    3    0    0  0.57327048374E+01  0.52200192160E+02  0.19540035180E+03  0.20233640664E+03  0.10000000000E+01 0.  0.
         -4    1    1    2    0  502 -0.43148943113E+01  0.22303190030E+02  0.12689991311E+03  0.12892343250E+03  0.12700000000E+01 0. -1.
<mgrwt>
<rscale>  1 0.12704797E+03</rscale>
<asrwt>0</asrwt>
<pdfrwt beam="2">  1       21 0.14405688E-02 0.12704797E+03</pdfrwt>
<pdfrwt beam="1">  1       -4 0.94011306E-01 0.12704797E+03</pdfrwt>
<totfact> 0.82254783E+04</totfact>
</mgrwt>
</event>
<event>
 6    4  0.6376098E-003  0.1307947E+03  0.7818608E-02  0.1226281E+00
         21   -1    0    0  501  502  0.00000000000E+00  0.00000000000E+00  0.31721173275E+03  0.31721173275E+03  0.00000000000E+00 0.  1.
          4   -1    0    0  502    0 -0.00000000000E+00 -0.00000000000E+00 -0.42182516390E+02  0.42201630169E+02  0.12700000000E+01 0. -1.
         25    2    1    2    0    0 -0.20727152815E+02  0.32452074479E+02  0.65327308349E+02  0.14620160169E+03  0.12499799646E+03 0.  0.
    9000005    1    3    3    0    0  0.44270093519E+02 -0.11178401091E+02  0.47527480623E+02  0.65914029201E+02  0.10000000000E+01 0.  0.
    9000005    1    3    3    0    0 -0.64997246334E+02  0.43630475570E+02  0.17799827725E+02  0.80287572491E+02  0.10000000000E+01 0.  0.
          4    1    1    2  501    0  0.20727152815E+02 -0.32452074479E+02  0.20970190801E+03  0.21321176123E+03  0.12700000000E+01 0.  1.
<mgrwt>
<rscale>  1 0.13079469E+03</rscale>
<asrwt>0</asrwt>
<pdfrwt beam="1">  1       21 0.48801803E-01 0.13079469E+03</pdfrwt>
<pdfrwt beam="2">  1        4 0.64912840E-02 0.13079469E+03</pdfrwt>
<totfact> 0.25501064E+04</totfact>
</mgrwt>
</event>
<event>
 6    4  0.6376098E-003  0.1269110E+03  0.7818608E-02  0.1232113E+00
         21   -1    0    0  501  502  0.00000000000E+00  0.00000000000E+00  0.13878410359E+04  0.13878410359E+04  0.00000000000E+00 0.  1.
         -4   -1    0    0    0  501 -0.00000000000E+00 -0.00000000000E+00 -0.42269276247E+01  0.44135945831E+01  0.12700000000E+01 0.  1.
         25    2    1    2    0    0  0.49571660605E+01  0.21378396965E+02  0.10015587461E+04  0.10095673926E+04  0.12499915604E+03 0.  0.
    9000005    1    3    3    0    0  0.56025804297E+02 -0.15238223498E+02  0.63600777815E+03  0.63865326122E+03  0.10000000000E+01 0.  0.
    9000005    1    3    3    0    0 -0.51068638237E+02  0.36616620463E+02  0.36555096794E+03  0.37091413140E+03  0.10000000000E+01 0.  0.
         -4    1    1    2    0  502 -0.49571660605E+01 -0.21378396965E+02  0.38205536218E+03  0.38268723787E+03  0.12700000000E+01 0. -1.
<mgrwt>
<rscale>  1 0.12691099E+03</rscale>
<asrwt>0</asrwt>
<pdfrwt beam="1">  1       21 0.21351365E+00 0.12691099E+03</pdfrwt>
<pdfrwt beam="2">  1       -4 0.66470136E-03 0.12691099E+03</pdfrwt>
<totfact> 0.25056153E+04</totfact>
</mgrwt>
</event>
<event>
 6    4  0.6376098E-003  0.1269619E+03  0.7818608E-02  0.1232035E+00
         21   -1    0    0  501  502  0.00000000000E+00  0.00000000000E+00  0.54462998395E+03  0.54462998395E+03  0.00000000000E+00 0. -1.
         -4   -1    0    0    0  501 -0.00000000000E+00 -0.00000000000E+00 -0.15105854978E+02  0.15159147556E+02  0.12700000000E+01 0. -1.
         25    2    1    2    0    0 -0.22161237577E+02 -0.22868276457E+01  0.52042893776E+03  0.53569171598E+03  0.12499194087E+03 0.  0.
    9000005    1    3    3    0    0 -0.64930219096E+02  0.12642878619E+02  0.42421006286E+03  0.42933780775E+03  0.10000000000E+01 0.  0.
    9000005    1    3    3    0    0  0.42768981519E+02 -0.14929706264E+02  0.96218874905E+02  0.10635390824E+03  0.10000000000E+01 0.  0.
         -4    1    1    2    0  502  0.22161237577E+02  0.22868276457E+01  0.90951912071E+01  0.24097415520E+02  0.12700000000E+01 0.  1.
<mgrwt>
<rscale>  1 0.12696194E+03</rscale>
<asrwt>0</asrwt>
<pdfrwt beam="1">  1       21 0.83789213E-01 0.12696194E+03</pdfrwt>
<pdfrwt beam="2">  1       -4 0.23281914E-02 0.12696194E+03</pdfrwt>
<totfact> 0.40469866E+04</totfact>
</mgrwt>
</event>
<event>
 6    4  0.6376098E-003  0.1267259E+03  0.7818608E-02  0.1232396E+00
          4   -1    0    0  502    0 -0.00000000000E+00  0.00000000000E+00  0.13538543910E+02  0.13597980409E+02  0.12700000000E+01 0. -1.
         21   -1    0    0  501  502  0.00000000000E+00 -0.00000000000E+00 -0.44726691362E+03  0.44726691362E+03  0.00000000000E+00 0. -1.
         25    2    1    2    0    0 -0.36947117448E+01  0.20515132978E+02 -0.30230002495E+03  0.32778768230E+03  0.12499975202E+03 0.  0.
    9000005    1    3    3    0    0  0.44542503756E+02  0.24109592612E+02 -0.25550464224E+03  0.26047827031E+03  0.10000000000E+01 0.  0.
    9000005    1    3    3    0    0 -0.48237215501E+02 -0.35944596347E+01 -0.46795382710E+02  0.67309411989E+02  0.10000000000E+01 0.  0.
          4    1    1    2  501    0  0.36947117448E+01 -0.20515132978E+02 -0.13142834476E+03  0.13307721174E+03  0.12700000000E+01 0.  1.
<mgrwt>
<rscale>  1 0.12672592E+03</rscale>
<asrwt>0</asrwt>
<pdfrwt beam="2">  1       21 0.68810287E-01 0.12672592E+03</pdfrwt>
<pdfrwt beam="1">  1        4 0.20875639E-02 0.12672592E+03</pdfrwt>
<totfact> 0.74028164E+04</totfact>
</mgrwt>
</event>
<event>
 6    4  0.6376098E-003  0.1277392E+03  0.7818608E-02  0.1230849E+00
         21   -1    0    0  501  502  0.00000000000E+00  0.00000000000E+00  0.61059023954E+03  0.61059023954E+03  0.00000000000E+00 0. -1.
          4   -1    0    0  502    0 -0.00000000000E+00 -0.00000000000E+00 -0.33591565780E+02  0.33615564721E+02  0.12700000000E+01 0.  1.
         25    2    1    2    0    0  0.20737244446E+02 -0.16173430162E+02  0.89444124885E+02  0.15594085141E+03  0.12500273802E+03 0.  0.
    9000005    1    3    3    0    0  0.60830574658E+01 -0.70788647373E+02  0.53243641739E+02  0.88791449874E+02  0.10000000000E+01 0.  0.
    9000005    1    3    3    0    0  0.14654186981E+02  0.54615217211E+02  0.36200483146E+02  0.67149401540E+02  0.10000000000E+01 0.  0.
          4    1    1    2  501    0 -0.20737244446E+02  0.16173430162E+02  0.48755454888E+03  0.48826495285E+03  0.12700000000E+01 0. -1.
<mgrwt>
<rscale>  1 0.12773918E+03</rscale>
<asrwt>0</asrwt>
<pdfrwt beam="1">  1       21 0.93936952E-01 0.12773918E+03</pdfrwt>
<pdfrwt beam="2">  1        4 0.51698813E-02 0.12773918E+03</pdfrwt>
<totfact> 0.88746285E+03</totfact>
</mgrwt>
</event>
<event>
 6    4  0.6376098E-003  0.1280864E+03  0.7818608E-02  0.1230323E+00
          4   -1    0    0  502    0 -0.00000000000E+00  0.00000000000E+00  0.47978763250E+02  0.47995568785E+02  0.12700000000E+01 0. -1.
         21   -1    0    0  501  502  0.00000000000E+00 -0.00000000000E+00 -0.16542326850E+03  0.16542326850E+03  0.00000000000E+00 0.  1.
         25    2    1    2    0    0  0.28021197079E+02  0.80991865312E+00 -0.45053293876E+02  0.13577900319E+03  0.12498117844E+03 0.  0.
    9000005    1    3    3    0    0  0.42915429495E+02 -0.53351530294E+02 -0.91012978554E+01  0.69079327560E+02  0.10000000000E+01 0.  0.
    9000005    1    3    3    0    0 -0.14894232416E+02  0.54161448948E+02 -0.35951996021E+02  0.66699675631E+02  0.10000000000E+01 0.  0.
          4    1    1    2  501    0 -0.28021197079E+02 -0.80991865312E+00 -0.72391211375E+02  0.77639834095E+02  0.12700000000E+01 0.  1.
<mgrwt>
<rscale>  1 0.12808645E+03</rscale>
<asrwt>0</asrwt>
<pdfrwt beam="2">  1       21 0.25449733E-01 0.12808645E+03</pdfrwt>
<pdfrwt beam="1">  1        4 0.73830160E-02 0.12808645E+03</pdfrwt>
<totfact> 0.74261471E+04</totfact>
</mgrwt>
</event>
<event>
 6    4  0.6376098E-003  0.1324474E+03  0.7818608E-02  0.1223869E+00
         21   -1    0    0  501  502  0.00000000000E+00  0.00000000000E+00  0.12325822256E+03  0.12325822256E+03  0.00000000000E+00 0.  1.
          4   -1    0    0  502    0 -0.00000000000E+00 -0.00000000000E+00 -0.12945363002E+03  0.12945985951E+03  0.12700000000E+01 0. -1.
         25    2    1    2    0    0  0.26587529467E+02 -0.34788903360E+02 -0.88631206638E+02  0.15936692564E+03  0.12500064671E+03 0.  0.
    9000005    1    3    3    0    0  0.19881439940E+02  0.46090544926E+02 -0.43909466587E+02  0.66698210183E+02  0.10000000000E+01 0.  0.
    9000005    1    3    3    0    0  0.67060895277E+01 -0.80879448286E+02 -0.44721740051E+02  0.92668715460E+02  0.10000000000E+01 0.  0.
          4    1    1    2  501    0 -0.26587529467E+02  0.34788903360E+02  0.82435799184E+02  0.93351156432E+02  0.12700000000E+01 0.  1.
<mgrwt>
<rscale>  1 0.13244745E+03</rscale>
<asrwt>0</asrwt>
<pdfrwt beam="1">  1       21 0.18962803E-01 0.13244745E+03</pdfrwt>
<pdfrwt beam="2">  1        4 0.19916926E-01 0.13244745E+03</pdfrwt>
<totfact> 0.23559786E+04</totfact>
</mgrwt>
</event>
<event>
 6    4  0.6376098E-003  0.1272625E+03  0.7818608E-02  0.1231575E+00
         21   -1    0    0  501  502  0.00000000000E+00  0.00000000000E+00  0.39706326414E+02  0.39706326414E+02  0.00000000000E+00 0. -1.
          4   -1    0    0  502    0 -0.00000000000E+00 -0.00000000000E+00 -0.34001451486E+03  0.34001688667E+03  0.12700000000E+01 0. -1.
         25    2    1    2    0    0 -0.10564517826E+02 -0.21422225594E+02 -0.32274389360E+03  0.34692847948E+03  0.12500091293E+03 0.  0.
    9000005    1    3    3    0    0  0.36044862451E+02 -0.41857496077E+02 -0.26159712747E+03  0.26736742358E+03  0.10000000000E+01 0.  0.
    9000005    1    3    3    0    0 -0.46609380276E+02  0.20435270483E+02 -0.61146766123E+02  0.79561055905E+02  0.10000000000E+01 0.  0.
          4    1    1    2  501    0  0.10564517826E+02  0.21422225594E+02  0.22435705148E+02  0.32794733598E+02  0.12700000000E+01 0.  1.
<mgrwt>
<rscale>  1 0.12726252E+03</rscale>
<asrwt>0</asrwt>
<pdfrwt beam="1">  1       21 0.61086654E-02 0.12726252E+03</pdfrwt>
<pdfrwt beam="2">  1        4 0.52311672E-01 0.12726252E+03</pdfrwt>
<totfact> 0.27227140E+04</totfact>
</mgrwt>
</event>
<event>
 6    4  0.6376098E-003  0.1266982E+03  0.7818608E-02  0.1232439E+00
         21   -1    0    0  501  502  0.00000000000E+00  0.00000000000E+00  0.51878406157E+02  0.51878406157E+02  0.00000000000E+00 0. -1.
         -4   -1    0    0    0  501 -0.00000000000E+00 -0.00000000000E+00 -0.11176852450E+03  0.11177573963E+03  0.12700000000E+01 0. -1.
         25    2    1    2    0    0 -0.12100974200E+02  0.16768612128E+02 -0.35348610389E+02  0.13153688497E+03  0.12499923169E+03 0.  0.
    9000005    1    3    3    0    0 -0.53496422440E+01  0.64815522281E+02 -0.48641681242E+02  0.81219971404E+02  0.10000000000E+01 0.  0.
    9000005    1    3    3    0    0 -0.67513319561E+01 -0.48046910153E+02  0.13293070853E+02  0.50316913569E+02  0.10000000000E+01 0.  0.
         -4    1    1    2    0  502  0.12100974200E+02 -0.16768612128E+02 -0.24541507958E+02  0.32117260813E+02  0.12700000000E+01 0.  1.
<mgrwt>
<rscale>  1 0.12669818E+03</rscale>
<asrwt>0</asrwt>
<pdfrwt beam="1">  1       21 0.79812932E-02 0.12669818E+03</pdfrwt>
<pdfrwt beam="2">  1       -4 0.17196908E-01 0.12669818E+03</pdfrwt>
<totfact> 0.14168465E+05</totfact>
</mgrwt>
</event>
<event>
 6    4  0.6376098E-003  0.1285376E+03  0.7818608E-02  0.1229642E+00
          4   -1    0    0  502    0 -0.00000000000E+00  0.00000000000E+00  0.18968155749E+03  0.18968580904E+03  0.12700000000E+01 0. -1.
         21   -1    0    0  501  502  0.00000000000E+00 -0.00000000000E+00 -0.81516791793E+02  0.81516791793E+02  0.00000000000E+00 0.  1.
         25    2    1    2    0    0  0.29742100391E+02 -0.35531749984E+01  0.16367480122E+03  0.20811381791E+03  0.12499881225E+03 0.  0.
    9000005    1    3    3    0    0 -0.18991136680E+02 -0.37078846604E+02  0.13703800354E+03  0.14323378984E+03  0.10000000000E+01 0.  0.
    9000005    1    3    3    0    0  0.48733237071E+02  0.33525671605E+02  0.26636797680E+02  0.64880028072E+02  0.10000000000E+01 0.  0.
          4    1    1    2  501    0 -0.29742100391E+02  0.35531749984E+01 -0.55510035517E+02  0.63088782928E+02  0.12700000000E+01 0.  1.
<mgrwt>
<rscale>  1 0.12853762E+03</rscale>
<asrwt>0</asrwt>
<pdfrwt beam="2">  1       21 0.12541045E-01 0.12853762E+03</pdfrwt>
<pdfrwt beam="1">  1        4 0.29182866E-01 0.12853762E+03</pdfrwt>
<totfact> 0.24578226E+04</totfact>
</mgrwt>
</event>
<event>
 6    4  0.6376098E-003  0.1456871E+03  0.7818608E-02  0.1205875E+00
         21   -1    0    0  501  502  0.00000000000E+00  0.00000000000E+00  0.19809565342E+02  0.19809565342E+02  0.00000000000E+00 0.  1.
         -4   -1    0    0    0  501 -0.00000000000E+00 -0.00000000000E+00 -0.88664306765E+03  0.88664397720E+03  0.12700000000E+01 0.  1.
         25    2    1    2    0    0 -0.69557304413E+02 -0.27594772394E+02 -0.77209455438E+03  0.78571924247E+03  0.12500014808E+03 0.  0.
    9000005    1    3    3    0    0 -0.88517687676E+02 -0.51915553502E+02 -0.69728872882E+03  0.70480009724E+03  0.10000000000E+01 0.  0.
    9000005    1    3    3    0    0  0.18960383262E+02  0.24320781108E+02 -0.74805825565E+02  0.80919145235E+02  0.10000000000E+01 0.  0.
         -4    1    1    2    0  502  0.69557304413E+02  0.27594772394E+02 -0.94738947926E+02  0.12073430008E+03  0.12700000000E+01 0. -1.
<mgrwt>
<rscale>  1 0.14568709E+03</rscale>
<asrwt>0</asrwt>
<pdfrwt beam="1">  1       21 0.30476255E-02 0.14568709E+03</pdfrwt>
<pdfrwt beam="2">  1       -4 0.13640982E+00 0.14568709E+03</pdfrwt>
<totfact> 0.10261603E+04</totfact>
</mgrwt>
</event>
<event>
 6    4  0.6376098E-003  0.1292935E+03  0.7818608E-02  0.1228508E+00
          4   -1    0    0  502    0 -0.00000000000E+00  0.00000000000E+00  0.76971676033E+01  0.78012363837E+01  0.12700000000E+01 0. -1.
         21   -1    0    0  501  502  0.00000000000E+00 -0.00000000000E+00 -0.85770566484E+03  0.85770566484E+03  0.00000000000E+00 0. -1.
         25    2    1    2    0    0  0.95005871985E+01 -0.31651029939E+02 -0.70692634520E+03  0.71865267423E+03  0.12499903917E+03 0.  0.
    9000005    1    3    3    0    0 -0.27763246724E+02 -0.70240549539E+02 -0.39899152859E+03  0.40607853004E+03  0.10000000000E+01 0.  0.
    9000005    1    3    3    0    0  0.37263833923E+02  0.38589519600E+02 -0.30793481661E+03  0.31257414420E+03  0.10000000000E+01 0.  0.
          4    1    1    2  501    0 -0.95005871985E+01  0.31651029939E+02 -0.14308215204E+03  0.14685422699E+03  0.12700000000E+01 0.  1.
<mgrwt>
<rscale>  1 0.12929350E+03</rscale>
<asrwt>0</asrwt>
<pdfrwt beam="2">  1       21 0.13195467E+00 0.12929350E+03</pdfrwt>
<pdfrwt beam="1">  1        4 0.11922577E-02 0.12929350E+03</pdfrwt>
<totfact> 0.38463521E+04</totfact>
</mgrwt>
</event>
<event>
 6    4  0.6376098E-003  0.1395513E+03  0.7818608E-02  0.1213934E+00
          4   -1    0    0  502    0 -0.00000000000E+00  0.00000000000E+00  0.29690915398E+03  0.29691187012E+03  0.12700000000E+01 0. -1.
         21   -1    0    0  501  502  0.00000000000E+00 -0.00000000000E+00 -0.61846877334E+02  0.61846877334E+02  0.00000000000E+00 0.  1.
         25    2    1    2    0    0 -0.19578405143E+02  0.58906018752E+02  0.25738322596E+03  0.29278094307E+03  0.12498528962E+03 0.  0.
    9000005    1    3    3    0    0  0.21154663493E+02  0.87236644733E+02  0.17225627074E+03  0.19424462614E+03  0.10000000000E+01 0.  0.
    9000005    1    3    3    0    0 -0.40733068636E+02 -0.28330625981E+02  0.85126955220E+02  0.98536316930E+02  0.10000000000E+01 0.  0.
          4    1    1    2  501    0  0.19578405143E+02 -0.58906018752E+02 -0.22320949319E+02  0.65977804386E+02  0.12700000000E+01 0.  1.
<mgrwt>
<rscale>  1 0.13955127E+03</rscale>
<asrwt>0</asrwt>
<pdfrwt beam="2">  1       21 0.95149043E-02 0.13955127E+03</pdfrwt>
<pdfrwt beam="1">  1        4 0.45679543E-01 0.13955127E+03</pdfrwt>
<totfact> 0.16885768E+04</totfact>
</mgrwt>
</event>
<event>
 6    4  0.6376098E-003  0.1299289E+03  0.7818608E-02  0.1227561E+00
          4   -1    0    0  502    0 -0.00000000000E+00  0.00000000000E+00  0.47473528661E+02  0.47490512984E+02  0.12700000000E+01 0.  1.
         21   -1    0    0  501  502  0.00000000000E+00 -0.00000000000E+00 -0.14623364969E+03  0.14623364969E+03  0.00000000000E+00 0.  1.
         25    2    1    2    0    0 -0.10594186851E+01 -0.35440474147E+02 -0.67391463209E+02  0.14636642657E+03  0.12499748772E+03 0.  0.
    9000005    1    3    3    0    0  0.53561335389E+02 -0.45543363512E+02 -0.55435380093E+02  0.89538237500E+02  0.10000000000E+01 0.  0.
    9000005    1    3    3    0    0 -0.54620754074E+02  0.10102889365E+02 -0.11956083116E+02  0.56828189067E+02  0.10000000000E+01 0.  0.
          4    1    1    2  501    0  0.10594186851E+01  0.35440474147E+02 -0.31368657818E+02  0.47357736105E+02  0.12700000000E+01 0. -1.
<mgrwt>
<rscale>  1 0.12992891E+03</rscale>
<asrwt>0</asrwt>
<pdfrwt beam="2">  1       21 0.22497485E-01 0.12992891E+03</pdfrwt>
<pdfrwt beam="1">  1        4 0.73053504E-02 0.12992891E+03</pdfrwt>
<totfact> 0.95472811E+04</totfact>
</mgrwt>
</event>
<event>
 6    4  0.6376098E-003  0.1268950E+03  0.7818608E-02  0.1232137E+00
         21   -1    0    0  501  502  0.00000000000E+00  0.00000000000E+00  0.43971970740E+02  0.43971970740E+02  0.00000000000E+00 0. -1.
          4   -1    0    0  502    0 -0.00000000000E+00 -0.00000000000E+00 -0.14541763223E+03  0.14542317788E+03  0.12700000000E+01 0. -1.
         25    2    1    2    0    0 -0.20812599739E+02  0.65951447484E+01 -0.10792743955E+03  0.16658535710E+03  0.12500275498E+03 0.  0.
    9000005    1    3    3    0    0 -0.70840101207E+02  0.20812129115E+02 -0.52703901854E+02  0.90720261948E+02  0.10000000000E+01 0.  0.
    9000005    1    3    3    0    0  0.50027501468E+02 -0.14216984366E+02 -0.55223537694E+02  0.75865095156E+02  0.10000000000E+01 0.  0.
          4    1    1    2  501    0  0.20812599739E+02 -0.65951447484E+01  0.64817780557E+01  0.22809791514E+02  0.12700000000E+01 0.  1.
<mgrwt>
<rscale>  1 0.12689503E+03</rscale>
<asrwt>0</asrwt>
<pdfrwt beam="1">  1       21 0.67649184E-02 0.12689503E+03</pdfrwt>
<pdfrwt beam="2">  1        4 0.22373781E-01 0.12689503E+03</pdfrwt>
<totfact> 0.11740035E+05</totfact>
</mgrwt>
</event>
<event>
 6    4  0.6376098E-003  0.1271844E+03  0.7818608E-02  0.1231694E+00
         21   -1    0    0  501  502  0.00000000000E+00  0.00000000000E+00  0.14916559318E+03  0.14916559318E+03  0.00000000000E+00 0.  1.
         -4   -1    0    0    0  501 -0.00000000000E+00 -0.00000000000E+00 -0.71807852715E+02  0.71819082503E+02  0.12700000000E+01 0. -1.
         25    2    1    2    0    0 -0.11474091509E+00 -0.23455848045E+02 -0.12790709185E+02  0.12782596247E+03  0.12500273784E+03 0.  0.
    9000005    1    3    3    0    0 -0.43722767647E+02  0.30270985823E+02  0.11619346610E+02  0.54442834322E+02  0.10000000000E+01 0.  0.
    9000005    1    3    3    0    0  0.43608026732E+02 -0.53726833869E+02 -0.24410055795E+02  0.73383128149E+02  0.10000000000E+01 0.  0.
         -4    1    1    2    0  502  0.11474091509E+00  0.23455848045E+02  0.90148449648E+02  0.93158713210E+02  0.12700000000E+01 0.  1.
<mgrwt>
<rscale>  1 0.12718441E+03</rscale>
<asrwt>0</asrwt>
<pdfrwt beam="1">  1       21 0.22948553E-01 0.12718441E+03</pdfrwt>
<pdfrwt beam="2">  1       -4 0.11048642E-01 0.12718441E+03</pdfrwt>
<totfact> 0.45984969E+04</totfact>
</mgrwt>
</event>
<event>
 6    4  0.6376098E-003  0.1284142E+03  0.7818608E-02  0.1229828E+00
         21   -1    0    0  501  502  0.00000000000E+00  0.00000000000E+00  0.14105521796E+02  0.14105521796E+02  0.00000000000E+00 0. -1.
          4   -1    0    0  502    0 -0.00000000000E+00 -0.00000000000E+00 -0.44869681099E+03  0.44869860830E+03  0.12700000000E+01 0. -1.
         25    2    1    2    0    0 -0.13434769948E+02 -0.26155403566E+02 -0.32853759664E+03  0.35274234389E+03  0.12500244233E+03 0.  0.
    9000005    1    3    3    0    0  0.41565750700E+02 -0.52863831384E+02 -0.17406125691E+03  0.18660283347E+03  0.10000000000E+01 0.  0.
    9000005    1    3    3    0    0 -0.55000520648E+02  0.26708427817E+02 -0.15447633973E+03  0.16613951042E+03  0.10000000000E+01 0.  0.
          4    1    1    2  501    0  0.13434769948E+02  0.26155403566E+02 -0.10605369255E+03  0.11006178621E+03  0.12700000000E+01 0.  1.
<mgrwt>
<rscale>  1 0.12841421E+03</rscale>
<asrwt>0</asrwt>
<pdfrwt beam="1">  1       21 0.21700807E-02 0.12841421E+03</pdfrwt>
<pdfrwt beam="2">  1        4 0.69034803E-01 0.12841421E+03</pdfrwt>
<totfact> 0.84450159E+04</totfact>
</mgrwt>
</event>
<event>
 6    4  0.6376098E-003  0.1277962E+03  0.7818608E-02  0.1230763E+00
         -4   -1    0    0    0  501 -0.00000000000E+00  0.00000000000E+00  0.28070272795E+03  0.28070560091E+03  0.12700000000E+01 0. -1.
         21   -1    0    0  501  502  0.00000000000E+00 -0.00000000000E+00 -0.82751464467E+02  0.82751464467E+02  0.00000000000E+00 0.  1.
         25    2    1    2    0    0  0.19550350409E+02  0.18014421481E+02  0.26342116454E+03  0.29278418213E+03  0.12500052719E+03 0.  0.
    9000005    1    3    3    0    0  0.16195340471E+02  0.68479264431E+02  0.10435189776E+03  0.12586507568E+03  0.10000000000E+01 0.  0.
    9000005    1    3    3    0    0  0.33550099378E+01 -0.50464842950E+02  0.15906926678E+03  0.16691910645E+03  0.10000000000E+01 0.  0.
         -4    1    1    2    0  502 -0.19550350409E+02 -0.18014421481E+02 -0.65469901049E+02  0.70672883243E+02  0.12700000000E+01 0.  1.
<mgrwt>
<rscale>  1 0.12779619E+03</rscale>
<asrwt>0</asrwt>
<pdfrwt beam="2">  1       21 0.12730995E-01 0.12779619E+03</pdfrwt>
<pdfrwt beam="1">  1       -4 0.43186005E-01 0.12779619E+03</pdfrwt>
<totfact> 0.11213387E+04</totfact>
</mgrwt>
</event>
<event>
 6    4  0.6376098E-003  0.1532605E+03  0.7818608E-02  0.1196523E+00
         21   -1    0    0  501  502  0.00000000000E+00  0.00000000000E+00  0.12366554257E+04  0.12366554257E+04  0.00000000000E+00 0.  1.
          4   -1    0    0  502    0 -0.00000000000E+00 -0.00000000000E+00 -0.10070328189E+03  0.10071128975E+03  0.12700000000E+01 0. -1.
         25    2    1    2    0    0  0.14430034804E+02 -0.87500020750E+02 -0.39744046523E+02  0.15832997963E+03  0.12499725469E+03 0.  0.
    9000005    1    3    3    0    0  0.54729978933E+02 -0.40951845095E+02  0.21318560122E+02  0.71609393353E+02  0.10000000000E+01 0.  0.
    9000005    1    3    3    0    0 -0.40299944129E+02 -0.46548175655E+02 -0.61062606645E+02  0.86720586275E+02  0.10000000000E+01 0.  0.
          4    1    1    2  501    0 -0.14430034804E+02  0.87500020750E+02  0.11756961904E+04  0.11790367359E+04  0.12700000000E+01 0.  1.
<mgrwt>
<rscale>  1 0.15326054E+03</rscale>
<asrwt>0</asrwt>
<pdfrwt beam="1">  1       21 0.19025467E+00 0.15326054E+03</pdfrwt>
<pdfrwt beam="2">  1        4 0.15493480E-01 0.15326054E+03</pdfrwt>
<totfact> 0.23593509E+02</totfact>
</mgrwt>
</event>
<event>
 6    4  0.6376098E-003  0.1299796E+03  0.7818608E-02  0.1227486E+00
          4   -1    0    0  502    0 -0.00000000000E+00  0.00000000000E+00  0.21642558912E+04  0.21642562638E+04  0.12700000000E+01 0.  1.
         21   -1    0    0  501  502  0.00000000000E+00 -0.00000000000E+00 -0.21976084299E+02  0.21976084299E+02  0.00000000000E+00 0. -1.
         25    2    1    2    0    0  0.28765410121E+02 -0.21025777811E+02  0.21464089483E+04  0.21503409165E+04  0.12500060729E+03 0.  0.
    9000005    1    3    3    0    0  0.29034529503E+02 -0.50310318474E+02  0.45700598424E+03  0.46068384135E+03  0.10000000000E+01 0.  0.
    9000005    1    3    3    0    0 -0.26911938256E+00  0.29284540663E+02  0.16894029641E+04  0.16896570752E+04  0.10000000000E+01 0.  0.
          4    1    1    2  501    0 -0.28765410121E+02  0.21025777811E+02 -0.41291414092E+01  0.35891431578E+02  0.12700000000E+01 0. -1.
<mgrwt>
<rscale>  1 0.12997955E+03</rscale>
<asrwt>0</asrwt>
<pdfrwt beam="2">  1       21 0.33809378E-02 0.12997955E+03</pdfrwt>
<pdfrwt beam="1">  1        4 0.33296513E+00 0.12997955E+03</pdfrwt>
<totfact> 0.52158211E+02</totfact>
</mgrwt>
</event>
<event>
 6    4  0.6376098E-003  0.1383001E+03  0.7818608E-02  0.1215635E+00
         21   -1    0    0  501  502  0.00000000000E+00  0.00000000000E+00  0.64578320791E+03  0.64578320791E+03  0.00000000000E+00 0.  1.
         -4   -1    0    0    0  501 -0.00000000000E+00 -0.00000000000E+00 -0.17423196999E+03  0.17423659853E+03  0.12700000000E+01 0. -1.
         25    2    1    2    0    0  0.10486265240E+02  0.58245663389E+02 -0.14514768771E+03  0.20048635549E+03  0.12499763369E+03 0.  0.
    9000005    1    3    3    0    0  0.49079983784E+02  0.21725907491E+02 -0.13645785658E+03  0.14663767077E+03  0.10000000000E+01 0.  0.
    9000005    1    3    3    0    0 -0.38593718543E+02  0.36519755898E+02 -0.86898311270E+01  0.53848684727E+02  0.10000000000E+01 0.  0.
         -4    1    1    2    0  502 -0.10486265240E+02 -0.58245663389E+02  0.61669892563E+03  0.61953345094E+03  0.12700000000E+01 0.  1.
<mgrwt>
<rscale>  1 0.13830014E+03</rscale>
<asrwt>0</asrwt>
<pdfrwt beam="1">  1       21 0.99351261E-01 0.13830014E+03</pdfrwt>
<pdfrwt beam="2">  1       -4 0.26805371E-01 0.13830014E+03</pdfrwt>
<totfact> 0.46314718E+02</totfact>
</mgrwt>
</event>
<event>
 6    4  0.6376098E-003  0.1383594E+03  0.7818608E-02  0.1215554E+00
         -4   -1    0    0    0  501 -0.00000000000E+00  0.00000000000E+00  0.15244260580E+03  0.15244789589E+03  0.12700000000E+01 0.  1.
         21   -1    0    0  501  502  0.00000000000E+00 -0.00000000000E+00 -0.18508694834E+03  0.18508694834E+03  0.00000000000E+00 0. -1.
         25    2    1    2    0    0 -0.56011540887E+02  0.19376017430E+02  0.11405552078E+03  0.17930973383E+03  0.12502238224E+03 0.  0.
    9000005    1    3    3    0    0 -0.90522249880E+02 -0.89744734967E+01  0.92388395998E+02  0.12965891644E+03  0.10000000000E+01 0.  0.
    9000005    1    3    3    0    0  0.34510708993E+02  0.28350490927E+02  0.21667124782E+02  0.49650817388E+02  0.10000000000E+01 0.  0.
         -4    1    1    2    0  502  0.56011540887E+02 -0.19376017430E+02 -0.14669986332E+03  0.15822511040E+03  0.12700000000E+01 0. -1.
<mgrwt>
<rscale>  1 0.13835938E+03</rscale>
<asrwt>0</asrwt>
<pdfrwt beam="2">  1       21 0.28474915E-01 0.13835938E+03</pdfrwt>
<pdfrwt beam="1">  1       -4 0.23453451E-01 0.13835938E+03</pdfrwt>
<totfact> 0.81883350E+03</totfact>
</mgrwt>
</event>
<event>
 6    4  0.6376098E-003  0.1305096E+03  0.7818608E-02  0.1226702E+00
         21   -1    0    0  501  502  0.00000000000E+00  0.00000000000E+00  0.85338660095E+02  0.85338660095E+02  0.00000000000E+00 0.  1.
         -4   -1    0    0    0  501 -0.00000000000E+00 -0.00000000000E+00 -0.12361386449E+03  0.12362038826E+03  0.12700000000E+01 0. -1.
         25    2    1    2    0    0  0.37242166801E+02 -0.45835407859E+01 -0.79803582628E+02  0.15297506017E+03  0.12499907760E+03 0.  0.
    9000005    1    3    3    0    0 -0.18172088252E+01 -0.16798751689E+02 -0.10403568854E+03  0.10540362800E+03  0.10000000000E+01 0.  0.
    9000005    1    3    3    0    0  0.39059375626E+02  0.12215210903E+02  0.24232105911E+02  0.47571432169E+02  0.10000000000E+01 0.  0.
         -4    1    1    2    0  502 -0.37242166801E+02  0.45835407859E+01  0.41528378235E+02  0.55983988184E+02  0.12700000000E+01 0.  1.
<mgrwt>
<rscale>  1 0.13050961E+03</rscale>
<asrwt>0</asrwt>
<pdfrwt beam="1">  1       21 0.13129025E-01 0.13050961E+03</pdfrwt>
<pdfrwt beam="2">  1       -4 0.19018746E-01 0.13050961E+03</pdfrwt>
<totfact> 0.49727753E+04</totfact>
</mgrwt>
</event>
<event>
 6    4  0.6376098E-003  0.1313358E+03  0.7818608E-02  0.1225487E+00
         21   -1    0    0  501  502  0.00000000000E+00  0.00000000000E+00  0.21754431496E+02  0.21754431496E+02  0.00000000000E+00 0. -1.
          4   -1    0    0  502    0 -0.00000000000E+00 -0.00000000000E+00 -0.35598392083E+03  0.35598618623E+03  0.12700000000E+01 0.  1.
         25    2    1    2    0    0  0.12225710667E+02 -0.38385537920E+02 -0.28718351967E+03  0.31579020462E+03  0.12500464728E+03 0.  0.
    9000005    1    3    3    0    0 -0.53909049862E+02 -0.14531054696E+01 -0.14458765956E+03  0.15432073247E+03  0.10000000000E+01 0.  0.
    9000005    1    3    3    0    0  0.66134760529E+02 -0.36932432450E+02 -0.14259586010E+03  0.16146947215E+03  0.10000000000E+01 0.  0.
          4    1    1    2  501    0 -0.12225710667E+02  0.38385537920E+02 -0.47045969667E+02  0.61950413111E+02  0.12700000000E+01 0. -1.
<mgrwt>
<rscale>  1 0.13133575E+03</rscale>
<asrwt>0</asrwt>
<pdfrwt beam="1">  1       21 0.33468356E-02 0.13133575E+03</pdfrwt>
<pdfrwt beam="2">  1        4 0.54769783E-01 0.13133575E+03</pdfrwt>
<totfact> 0.68008071E+04</totfact>
</mgrwt>
</event>
<event>
 6    4  0.6376098E-003  0.1280154E+03  0.7818608E-02  0.1230431E+00
          4   -1    0    0  502    0 -0.00000000000E+00  0.00000000000E+00  0.46859080601E+03  0.46859252702E+03  0.12700000000E+01 0. -1.
         21   -1    0    0  501  502  0.00000000000E+00 -0.00000000000E+00 -0.17641859222E+02  0.17641859222E+02  0.00000000000E+00 0.  1.
         25    2    1    2    0    0 -0.25576636392E+02 -0.10392619690E+02  0.43682723235E+03  0.45519881646E+03  0.12500304280E+03 0.  0.
    9000005    1    3    3    0    0 -0.60238437090E+02  0.69280940893E+01  0.38870515289E+03  0.39340737624E+03  0.10000000000E+01 0.  0.
    9000005    1    3    3    0    0  0.34661800698E+02 -0.17320713779E+02  0.48122079454E+02  0.61791440220E+02  0.10000000000E+01 0.  0.
          4    1    1    2  501    0  0.25576636392E+02  0.10392619690E+02  0.14121714440E+02  0.31035569785E+02  0.12700000000E+01 0.  1.
<mgrwt>
<rscale>  1 0.12801536E+03</rscale>
<asrwt>0</asrwt>
<pdfrwt beam="2">  1       21 0.27141325E-02 0.12801536E+03</pdfrwt>
<pdfrwt beam="1">  1        4 0.72094532E-01 0.12801536E+03</pdfrwt>
<totfact> 0.53436710E+04</totfact>
</mgrwt>
</event>
<event>
 6    4  0.6376098E-003  0.1272883E+03  0.7818608E-02  0.1231536E+00
         21   -1    0    0  501  502  0.00000000000E+00  0.00000000000E+00  0.21527714538E+03  0.21527714538E+03  0.00000000000E+00 0. -1.
         -4   -1    0    0    0  501 -0.00000000000E+00 -0.00000000000E+00 -0.39751109504E+02  0.39771391814E+02  0.12700000000E+01 0.  1.
         25    2    1    2    0    0  0.36755052598E+00 -0.23820810190E+02  0.66831058958E+02  0.14376611721E+03  0.12503895362E+03 0.  0.
    9000005    1    3    3    0    0  0.91181467550E+01  0.36632254418E+02 -0.15857714550E+02  0.40957658316E+02  0.10000000000E+01 0.  0.
    9000005    1    3    3    0    0 -0.87505962290E+01 -0.60453064608E+02  0.82688773508E+02  0.10280845889E+03  0.10000000000E+01 0.  0.
         -4    1    1    2    0  502 -0.36755052598E+00  0.23820810190E+02  0.10869497692E+03  0.11128241999E+03  0.12700000000E+01 0. -1.
<mgrwt>
<rscale>  1 0.12728828E+03</rscale>
<asrwt>0</asrwt>
<pdfrwt beam="1">  1       21 0.33119560E-01 0.12728828E+03</pdfrwt>
<pdfrwt beam="2">  1       -4 0.61174038E-02 0.12728828E+03</pdfrwt>
<totfact> 0.60836732E+04</totfact>
</mgrwt>
</event>
<event>
 6    4  0.6376098E-003  0.1267118E+03  0.7818608E-02  0.1232418E+00
          4   -1    0    0  502    0 -0.00000000000E+00  0.00000000000E+00  0.53478403464E+03  0.53478554263E+03  0.12700000000E+01 0. -1.
         21   -1    0    0  501  502  0.00000000000E+00 -0.00000000000E+00 -0.10257204335E+02  0.10257204335E+02  0.00000000000E+00 0. -1.
         25    2    1    2    0    0  0.20742319817E+02  0.10415205436E+01  0.46630906387E+03  0.48321840043E+03  0.12499820345E+03 0.  0.
    9000005    1    3    3    0    0 -0.47178339378E+02  0.25999829146E+02  0.17877073741E+03  0.18671305090E+03  0.10000000000E+01 0.  0.
    9000005    1    3    3    0    0  0.67920659196E+02 -0.24958308603E+02  0.28753832646E+03  0.29650534953E+03  0.10000000000E+01 0.  0.
          4    1    1    2  501    0 -0.20742319817E+02 -0.10415205436E+01  0.58217766428E+02  0.61824346534E+02  0.12700000000E+01 0.  1.
<mgrwt>
<rscale>  1 0.12671180E+03</rscale>
<asrwt>0</asrwt>
<pdfrwt beam="2">  1       21 0.15780319E-02 0.12671180E+03</pdfrwt>
<pdfrwt beam="1">  1        4 0.82280609E-01 0.12671180E+03</pdfrwt>
<totfact> 0.95899495E+04</totfact>
</mgrwt>
</event>
<event>
 6    4  0.6376098E-003  0.1323475E+03  0.7818608E-02  0.1224013E+00
         21   -1    0    0  501  502  0.00000000000E+00  0.00000000000E+00  0.26915301613E+03  0.26915301613E+03  0.00000000000E+00 0.  1.
          4   -1    0    0  502    0 -0.00000000000E+00 -0.00000000000E+00 -0.68515293698E+02  0.68527063052E+02  0.12700000000E+01 0. -1.
         25    2    1    2    0    0  0.11341086384E+01 -0.43469704821E+02 -0.33495338142E-01  0.13234753919E+03  0.12499987427E+03 0.  0.
    9000005    1    3    3    0    0 -0.77048804688E+00 -0.87701770724E+02 -0.45804480499E+01  0.87830374839E+02  0.10000000000E+01 0.  0.
    9000005    1    3    3    0    0  0.19045966853E+01  0.44232065903E+02  0.45469527117E+01  0.44517164348E+02  0.10000000000E+01 0.  0.
          4    1    1    2  501    0 -0.11341086384E+01  0.43469704821E+02  0.20067121777E+03  0.20533254000E+03  0.12700000000E+01 0.  1.
<mgrwt>
<rscale>  1 0.13234753E+03</rscale>
<asrwt>0</asrwt>
<pdfrwt beam="1">  1       21 0.41408156E-01 0.13234753E+03</pdfrwt>
<pdfrwt beam="2">  1        4 0.10541950E-01 0.13234753E+03</pdfrwt>
<totfact> 0.15938340E+04</totfact>
</mgrwt>
</event>
<event>
 6    4  0.6376098E-003  0.1330194E+03  0.7818608E-02  0.1223043E+00
         21   -1    0    0  501  502  0.00000000000E+00  0.00000000000E+00  0.26325981468E+02  0.26325981468E+02  0.00000000000E+00 0.  1.
          4   -1    0    0  502    0 -0.00000000000E+00 -0.00000000000E+00 -0.50417043697E+03  0.50417203653E+03  0.12700000000E+01 0.  1.
         25    2    1    2    0    0 -0.45485969630E+02 -0.29830929280E+00 -0.46436123667E+03  0.48303779769E+03  0.12500037379E+03 0.  0.
    9000005    1    3    3    0    0 -0.62965108963E+02  0.49265549910E+02 -0.25933786570E+03  0.27138317549E+03  0.10000000000E+01 0.  0.
    9000005    1    3    3    0    0  0.17479139332E+02 -0.49563859203E+02 -0.20502337097E+03  0.21165462220E+03  0.10000000000E+01 0.  0.
          4    1    1    2  501    0  0.45485969630E+02  0.29830929280E+00 -0.13483218828E+02  0.47460220307E+02  0.12700000000E+01 0. -1.
<mgrwt>
<rscale>  1 0.13301938E+03</rscale>
<asrwt>0</asrwt>
<pdfrwt beam="1">  1       21 0.40501513E-02 0.13301938E+03</pdfrwt>
<pdfrwt beam="2">  1        4 0.77567157E-01 0.13301938E+03</pdfrwt>
<totfact> 0.23668767E+04</totfact>
</mgrwt>
</event>
<event>
 6    4  0.6376098E-003  0.1386989E+03  0.7818608E-02  0.1215090E+00
         21   -1    0    0  501  502  0.00000000000E+00  0.00000000000E+00  0.40714900798E+03  0.40714900798E+03  0.00000000000E+00 0.  1.
          4   -1    0    0  502    0 -0.00000000000E+00 -0.00000000000E+00 -0.46104237799E+02  0.46121726367E+02  0.12700000000E+01 0. -1.
         25    2    1    2    0    0 -0.35259656076E+02  0.48677105066E+02  0.68648480144E+02  0.15475790844E+03  0.12499876997E+03 0.  0.
    9000005    1    3    3    0    0  0.23444907731E+01  0.82218769308E+02  0.63849105865E+02  0.10413035572E+03  0.10000000000E+01 0.  0.
    9000005    1    3    3    0    0 -0.37604146849E+02 -0.33541664242E+02  0.47993742781E+01  0.50627552714E+02  0.10000000000E+01 0.  0.
          4    1    1    2  501    0  0.35259656076E+02 -0.48677105066E+02  0.29239629003E+03  0.29851282590E+03  0.12700000000E+01 0.  1.
<mgrwt>
<rscale>  1 0.13869894E+03</rscale>
<asrwt>0</asrwt>
<pdfrwt beam="1">  1       21 0.62638306E-01 0.13869894E+03</pdfrwt>
<pdfrwt beam="2">  1        4 0.70944576E-02 0.13869894E+03</pdfrwt>
<totfact> 0.13121991E+04</totfact>
</mgrwt>
</event>
<event>
 6    4  0.6376098E-003  0.1266774E+03  0.7818608E-02  0.1232471E+00
         21   -1    0    0  501  502  0.00000000000E+00  0.00000000000E+00  0.10535866206E+03  0.10535866206E+03  0.00000000000E+00 0. -1.
         -4   -1    0    0    0  501 -0.00000000000E+00 -0.00000000000E+00 -0.51581934428E+02  0.51597566409E+02  0.12700000000E+01 0. -1.
         25    2    1    2    0    0  0.10328877766E+02 -0.17764944364E+02  0.48975350821E+02  0.13581515273E+03  0.12499956703E+03 0.  0.
    9000005    1    3    3    0    0  0.67687263773E+02 -0.48562230752E+01  0.25513727468E+02  0.72505854033E+02  0.10000000000E+01 0.  0.
    9000005    1    3    3    0    0 -0.57358386007E+02 -0.12908721289E+02  0.23461623353E+02  0.63309298693E+02  0.10000000000E+01 0.  0.
         -4    1    1    2    0  502 -0.10328877766E+02  0.17764944364E+02  0.48013768058E+01  0.21141075739E+02  0.12700000000E+01 0.  1.
<mgrwt>
<rscale>  1 0.12667743E+03</rscale>
<asrwt>0</asrwt>
<pdfrwt beam="1">  1       21 0.16209025E-01 0.12667743E+03</pdfrwt>
<pdfrwt beam="2">  1       -4 0.79374735E-02 0.12667743E+03</pdfrwt>
<totfact> 0.15170157E+05</totfact>
</mgrwt>
</event>
<event>
 6    4  0.6376098E-003  0.1270014E+03  0.7818608E-02  0.1231974E+00
         21   -1    0    0  501  502  0.00000000000E+00  0.00000000000E+00  0.10230359802E+03  0.10230359802E+03  0.00000000000E+00 0.  1.
         -4   -1    0    0    0  501 -0.00000000000E+00 -0.00000000000E+00 -0.60296037808E+02  0.60309411167E+02  0.12700000000E+01 0. -1.
         25    2    1    2    0    0 -0.22358665376E+02  0.24426514809E+01  0.15684414259E+02  0.12796625787E+03  0.12499394321E+03 0.  0.
    9000005    1    3    3    0    0 -0.17376236708E+02 -0.54750809904E+02  0.35134622822E+02  0.67342605445E+02  0.10000000000E+01 0.  0.
    9000005    1    3    3    0    0 -0.49824286687E+01  0.57193461385E+02 -0.19450208563E+02  0.60623652429E+02  0.10000000000E+01 0.  0.
         -4    1    1    2    0  502  0.22358665376E+02 -0.24426514809E+01  0.26323145952E+02  0.34646751312E+02  0.12700000000E+01 0.  1.
<mgrwt>
<rscale>  1 0.12700143E+03</rscale>
<asrwt>0</asrwt>
<pdfrwt beam="1">  1       21 0.15739015E-01 0.12700143E+03</pdfrwt>
<pdfrwt beam="2">  1       -4 0.92779486E-02 0.12700143E+03</pdfrwt>
<totfact> 0.12348388E+05</totfact>
</mgrwt>
</event>
<event>
 6    4  0.6376098E-003  0.1327240E+03  0.7818608E-02  0.1223469E+00
          4   -1    0    0  502    0 -0.00000000000E+00  0.00000000000E+00  0.77740215504E+02  0.77750588465E+02  0.12700000000E+01 0. -1.
         21   -1    0    0  501  502  0.00000000000E+00 -0.00000000000E+00 -0.18374820448E+03  0.18374820448E+03  0.00000000000E+00 0.  1.
         25    2    1    2    0    0  0.44179191058E+02 -0.62240822930E+01  0.13999193168E+02  0.13346021755E+03  0.12500044854E+03 0.  0.
    9000005    1    3    3    0    0 -0.33694799035E+02  0.29038003275E+02  0.17712669259E+02  0.47888242487E+02  0.10000000000E+01 0.  0.
    9000005    1    3    3    0    0  0.77873990093E+02 -0.35262085568E+02 -0.37134760913E+01  0.85571975064E+02  0.10000000000E+01 0.  0.
          4    1    1    2  501    0 -0.44179191058E+02  0.62240822930E+01 -0.12000718214E+03  0.12803857539E+03  0.12700000000E+01 0.  1.
<mgrwt>
<rscale>  1 0.13272397E+03</rscale>
<asrwt>0</asrwt>
<pdfrwt beam="2">  1       21 0.28268954E-01 0.13272397E+03</pdfrwt>
<pdfrwt beam="1">  1        4 0.11961169E-01 0.13272397E+03</pdfrwt>
<totfact> 0.27194217E+04</totfact>
</mgrwt>
</event>
<event>
 6    4  0.6376098E-003  0.1321705E+03  0.7818608E-02  0.1224270E+00
          4   -1    0    0  502    0 -0.00000000000E+00  0.00000000000E+00  0.14360269546E+03  0.14360831119E+03  0.12700000000E+01 0. -1.
         21   -1    0    0  501  502  0.00000000000E+00 -0.00000000000E+00 -0.67806304357E+02  0.67806304357E+02  0.00000000000E+00 0. -1.
         25    2    1    2    0    0  0.37587279106E+02 -0.20764310838E+02  0.96574218929E+02  0.16369364339E+03  0.12500027587E+03 0.  0.
    9000005    1    3    3    0    0  0.71993679676E+01 -0.71197570995E+02  0.65935359740E+02  0.97310825085E+02  0.10000000000E+01 0.  0.
    9000005    1    3    3    0    0  0.30387911139E+02  0.50433260157E+02  0.30638859189E+02  0.66382818303E+02  0.10000000000E+01 0.  0.
          4    1    1    2  501    0 -0.37587279106E+02  0.20764310838E+02 -0.20777827823E+02  0.47720972164E+02  0.12700000000E+01 0.  1.
<mgrwt>
<rscale>  1 0.13217045E+03</rscale>
<asrwt>0</asrwt>
<pdfrwt beam="2">  1       21 0.10431739E-01 0.13217045E+03</pdfrwt>
<pdfrwt beam="1">  1        4 0.22094069E-01 0.13217045E+03</pdfrwt>
<totfact> 0.57104030E+04</totfact>
</mgrwt>
</event>
<event>
 6    4  0.6376098E-003  0.1284341E+03  0.7818608E-02  0.1229798E+00
          4   -1    0    0  502    0 -0.00000000000E+00  0.00000000000E+00  0.69147540948E+03  0.69147657575E+03  0.12700000000E+01 0.  1.
         21   -1    0    0  501  502  0.00000000000E+00 -0.00000000000E+00 -0.90789033134E+01  0.90789033134E+01  0.00000000000E+00 0.  1.
         25    2    1    2    0    0 -0.14020927909E+02  0.25949241660E+02  0.57550498482E+03  0.58966201759E+03  0.12500143149E+03 0.  0.
    9000005    1    3    3    0    0 -0.64994541266E+02  0.32241446726E+02  0.40990054761E+03  0.41627305968E+03  0.10000000000E+01 0.  0.
    9000005    1    3    3    0    0  0.50973613357E+02 -0.62922050668E+01  0.16560443721E+03  0.17338895791E+03  0.10000000000E+01 0.  0.
          4    1    1    2  501    0  0.14020927909E+02 -0.25949241660E+02  0.10689152135E+03  0.11089346148E+03  0.12700000000E+01 0. -1.
<mgrwt>
<rscale>  1 0.12843406E+03</rscale>
<asrwt>0</asrwt>
<pdfrwt beam="2">  1       21 0.13967549E-02 0.12843406E+03</pdfrwt>
<pdfrwt beam="1">  1        4 0.10638771E+00 0.12843406E+03</pdfrwt>
<totfact> 0.65038351E+04</totfact>
</mgrwt>
</event>
<event>
 6    4  0.6376098E-003  0.1298262E+03  0.7818608E-02  0.1227714E+00
          4   -1    0    0  502    0 -0.00000000000E+00  0.00000000000E+00  0.38075788056E+02  0.38096962294E+02  0.12700000000E+01 0. -1.
         21   -1    0    0  501  502  0.00000000000E+00 -0.00000000000E+00 -0.17956582036E+03  0.17956582036E+03  0.00000000000E+00 0.  1.
         25    2    1    2    0    0 -0.25283911653E+02  0.24358267945E+02 -0.11767187817E+03  0.17521848065E+03  0.12498897410E+03 0.  0.
    9000005    1    3    3    0    0 -0.11433860710E+02 -0.57083746583E+01 -0.13651452435E+03  0.13711503955E+03  0.10000000000E+01 0.  0.
    9000005    1    3    3    0    0 -0.13850050943E+02  0.30066642603E+02  0.18842646186E+02  0.38103441102E+02  0.10000000000E+01 0.  0.
          4    1    1    2  501    0  0.25283911653E+02 -0.24358267945E+02 -0.23818154137E+02  0.42444302000E+02  0.12700000000E+01 0.  1.
<mgrwt>
<rscale>  1 0.12982621E+03</rscale>
<asrwt>0</asrwt>
<pdfrwt beam="2">  1       21 0.27625511E-01 0.12982621E+03</pdfrwt>
<pdfrwt beam="1">  1        4 0.58597878E-02 0.12982621E+03</pdfrwt>
<totfact> 0.92825212E+04</totfact>
</mgrwt>
</event>
<event>
 6    4  0.6376098E-003  0.1271596E+03  0.7818608E-02  0.1231732E+00
         21   -1    0    0  501  502  0.00000000000E+00  0.00000000000E+00  0.87487753783E+02  0.87487753783E+02  0.00000000000E+00 0.  1.
          4   -1    0    0  502    0 -0.00000000000E+00 -0.00000000000E+00 -0.65225369463E+02  0.65237732345E+02  0.12700000000E+01 0.  1.
         25    2    1    2    0    0  0.11073086537E+02  0.20532004301E+02  0.23575210772E+02  0.12932649343E+03  0.12500149957E+03 0.  0.
    9000005    1    3    3    0    0  0.15544530018E+02  0.75434713393E+01 -0.50810101845E+02  0.53676836930E+02  0.10000000000E+01 0.  0.
    9000005    1    3    3    0    0 -0.44714434804E+01  0.12988532962E+02  0.74385312617E+02  0.75649656499E+02  0.10000000000E+01 0.  0.
          4    1    1    2  501    0 -0.11073086537E+02 -0.20532004301E+02 -0.13128264514E+01  0.23398992700E+02  0.12700000000E+01 0. -1.
<mgrwt>
<rscale>  1 0.12715955E+03</rscale>
<asrwt>0</asrwt>
<pdfrwt beam="1">  1       21 0.13459655E-01 0.12715955E+03</pdfrwt>
<pdfrwt beam="2">  1        4 0.10036332E-01 0.12715955E+03</pdfrwt>
<totfact> 0.14341098E+05</totfact>
</mgrwt>
</event>
<event>
 6    4  0.6376098E-003  0.1269579E+03  0.7818608E-02  0.1232041E+00
         21   -1    0    0  501  502  0.00000000000E+00  0.00000000000E+00  0.59352078235E+02  0.59352078235E+02  0.00000000000E+00 0. -1.
          4   -1    0    0  502    0 -0.00000000000E+00 -0.00000000000E+00 -0.11851431742E+03  0.11852112188E+03  0.12700000000E+01 0.  1.
         25    2    1    2    0    0  0.22071873441E+02  0.25626480302E+01 -0.77751785324E+02  0.14887459864E+03  0.12499828493E+03 0.  0.
    9000005    1    3    3    0    0 -0.58344000629E+01 -0.59023806137E+02 -0.37535801874E+02  0.70198193263E+02  0.10000000000E+01 0.  0.
    9000005    1    3    3    0    0  0.27906273504E+02  0.61586454168E+02 -0.40215983450E+02  0.78676405375E+02  0.10000000000E+01 0.  0.
          4    1    1    2  501    0 -0.22071873441E+02 -0.25626480302E+01  0.18589546142E+02  0.28998601482E+02  0.12700000000E+01 0. -1.
<mgrwt>
<rscale>  1 0.12695789E+03</rscale>
<asrwt>0</asrwt>
<pdfrwt beam="1">  1       21 0.91310890E-02 0.12695789E+03</pdfrwt>
<pdfrwt beam="2">  1        4 0.18234541E-01 0.12695789E+03</pdfrwt>
<totfact> 0.10120796E+05</totfact>
</mgrwt>
</event>
<event>
 6    4  0.6376098E-003  0.1304035E+03  0.7818608E-02  0.1226858E+00
         -4   -1    0    0    0  501 -0.00000000000E+00  0.00000000000E+00  0.87659892738E+02  0.87669092016E+02  0.12700000000E+01 0.  1.
         21   -1    0    0  501  502  0.00000000000E+00 -0.00000000000E+00 -0.21427180598E+03  0.21427180598E+03  0.00000000000E+00 0. -1.
         25    2    1    2    0    0  0.15863389585E+02 -0.33636896508E+02  0.35874370397E+02  0.13524808709E+03  0.12498794612E+03 0.  0.
    9000005    1    3    3    0    0  0.40081579817E+02 -0.59557901787E+02  0.58967455576E+02  0.92907682799E+02  0.10000000000E+01 0.  0.
    9000005    1    3    3    0    0 -0.24218190232E+02  0.25921005279E+02 -0.23093085179E+02  0.42340404295E+02  0.10000000000E+01 0.  0.
         -4    1    1    2    0  502 -0.15863389585E+02  0.33636896508E+02 -0.16248628364E+03  0.16669281090E+03  0.12700000000E+01 0. -1.
<mgrwt>
<rscale>  1 0.13040351E+03</rscale>
<asrwt>0</asrwt>
<pdfrwt beam="2">  1       21 0.32964893E-01 0.13040351E+03</pdfrwt>
<pdfrwt beam="1">  1       -4 0.13487134E-01 0.13040351E+03</pdfrwt>
<totfact> 0.16408200E+04</totfact>
</mgrwt>
</event>
<event>
 6    4  0.6376098E-003  0.1271202E+03  0.7818608E-02  0.1231793E+00
         21   -1    0    0  501  502  0.00000000000E+00  0.00000000000E+00  0.63897235406E+02  0.63897235406E+02  0.00000000000E+00 0.  1.
          4   -1    0    0  502    0 -0.00000000000E+00 -0.00000000000E+00 -0.17905156988E+03  0.17905607383E+03  0.12700000000E+01 0. -1.
         25    2    1    2    0    0  0.10915889281E+02  0.20397749290E+02 -0.15279026176E+03  0.19875714722E+03  0.12499725863E+03 0.  0.
    9000005    1    3    3    0    0 -0.56299301312E+02  0.20422336265E+02 -0.72198160943E+02  0.93809688147E+02  0.10000000000E+01 0.  0.
    9000005    1    3    3    0    0  0.67215190593E+02 -0.24586974609E-01 -0.80592100819E+02  0.10494745907E+03  0.10000000000E+01 0.  0.
          4    1    1    2  501    0 -0.10915889281E+02 -0.20397749290E+02  0.37635927286E+02  0.44196162023E+02  0.12700000000E+01 0.  1.
<mgrwt>
<rscale>  1 0.12712018E+03</rscale>
<asrwt>0</asrwt>
<pdfrwt beam="1">  1       21 0.98303439E-02 0.12712018E+03</pdfrwt>
<pdfrwt beam="2">  1        4 0.27547713E-01 0.12712018E+03</pdfrwt>
<totfact> 0.41996533E+04</totfact>
</mgrwt>
</event>
<event>
 6    4  0.6376098E-003  0.1313202E+03  0.7818608E-02  0.1225510E+00
         -4   -1    0    0    0  501 -0.00000000000E+00  0.00000000000E+00  0.22809597215E+03  0.22809950770E+03  0.12700000000E+01 0. -1.
         21   -1    0    0  501  502  0.00000000000E+00 -0.00000000000E+00 -0.33639052075E+02  0.33639052075E+02  0.00000000000E+00 0. -1.
         25    2    1    2    0    0 -0.63526392530E+01 -0.39747518340E+02  0.16927884806E+03  0.21424361846E+03  0.12499911364E+03 0.  0.
    9000005    1    3    3    0    0  0.47231201939E+02  0.12333553710E+02  0.33354915303E+02  0.59130815642E+02  0.10000000000E+01 0.  0.
    9000005    1    3    3    0    0 -0.53583841191E+02 -0.52081072049E+02  0.13592393275E+03  0.15511280282E+03  0.10000000000E+01 0.  0.
         -4    1    1    2    0  502  0.63526392530E+01  0.39747518340E+02  0.25178072021E+02  0.47494941314E+02  0.12700000000E+01 0.  1.
<mgrwt>
<rscale>  1 0.13132022E+03</rscale>
<asrwt>0</asrwt>
<pdfrwt beam="2">  1       21 0.51752389E-02 0.13132022E+03</pdfrwt>
<pdfrwt beam="1">  1       -4 0.35093803E-01 0.13132022E+03</pdfrwt>
<totfact> 0.79982684E+04</totfact>
</mgrwt>
</event>
<event>
 6    4  0.6376098E-003  0.1273060E+03  0.7818608E-02  0.1231509E+00
         21   -1    0    0  501  502  0.00000000000E+00  0.00000000000E+00  0.46239836980E+01  0.46239836980E+01  0.00000000000E+00 0. -1.
          4   -1    0    0  502    0 -0.00000000000E+00 -0.00000000000E+00 -0.12402057619E+04  0.12402064121E+04  0.12700000000E+01 0. -1.
         25    2    1    2    0    0 -0.20247987074E+02  0.13104524679E+02 -0.10412858083E+04  0.10490390621E+04  0.12500043889E+03 0.  0.
    9000005    1    3    3    0    0 -0.41388870647E+00  0.65607249037E+02 -0.40488439071E+03  0.41016685906E+03  0.10000000000E+01 0.  0.
    9000005    1    3    3    0    0 -0.19834098368E+02 -0.52502724359E+02 -0.63640141758E+03  0.63887220304E+03  0.10000000000E+01 0.  0.
          4    1    1    2  501    0  0.20247987074E+02 -0.13104524679E+02 -0.19429596987E+03  0.19579133371E+03  0.12700000000E+01 0.  1.
<mgrwt>
<rscale>  1 0.12730601E+03</rscale>
<asrwt>0</asrwt>
<pdfrwt beam="1">  1       21 0.71138199E-03 0.12730601E+03</pdfrwt>
<pdfrwt beam="2">  1        4 0.19081438E+00 0.12730601E+03</pdfrwt>
<totfact> 0.43053562E+04</totfact>
</mgrwt>
</event>
<event>
 6    4  0.6376098E-003  0.1308914E+03  0.7818608E-02  0.1226139E+00
         21   -1    0    0  501  502  0.00000000000E+00  0.00000000000E+00  0.38732656697E+02  0.38732656697E+02  0.00000000000E+00 0.  1.
         -4   -1    0    0    0  501 -0.00000000000E+00 -0.00000000000E+00 -0.22910177551E+03  0.22910529553E+03  0.12700000000E+01 0. -1.
         25    2    1    2    0    0 -0.19309930632E+02 -0.33633431046E+02 -0.18784797679E+03  0.22895286303E+03  0.12501387923E+03 0.  0.
    9000005    1    3    3    0    0 -0.29460976522E+02  0.32311137557E+02 -0.19548087950E+02  0.47907060966E+02  0.10000000000E+01 0.  0.
    9000005    1    3    3    0    0  0.10151045891E+02 -0.65944568603E+02 -0.16829988884E+03  0.18104580206E+03  0.10000000000E+01 0.  0.
         -4    1    1    2    0  502  0.19309930632E+02  0.33633431046E+02 -0.25211420189E+01  0.38885089199E+02  0.12700000000E+01 0.  1.
<mgrwt>
<rscale>  1 0.13089137E+03</rscale>
<asrwt>0</asrwt>
<pdfrwt beam="1">  1       21 0.59588702E-02 0.13089137E+03</pdfrwt>
<pdfrwt beam="2">  1       -4 0.35248300E-01 0.13089137E+03</pdfrwt>
<totfact> 0.62470939E+04</totfact>
</mgrwt>
</event>
<event>
 6    4  0.6376098E-003  0.1348446E+03  0.7818608E-02  0.1220439E+00
         21   -1    0    0  501  502  0.00000000000E+00  0.00000000000E+00  0.47872644946E+02  0.47872644946E+02  0.00000000000E+00 0.  1.
          4   -1    0    0  502    0 -0.00000000000E+00 -0.00000000000E+00 -0.25684784390E+03  0.25685098367E+03  0.12700000000E+01 0. -1.
         25    2    1    2    0    0 -0.16009010899E+02  0.47980630951E+02 -0.21498124700E+03  0.25377154437E+03  0.12499852316E+03 0.  0.
    9000005    1    3    3    0    0 -0.65974296134E+02  0.40990372712E+02 -0.16680730828E+03  0.18400678385E+03  0.10000000000E+01 0.  0.
    9000005    1    3    3    0    0  0.49965285235E+02  0.69902582388E+01 -0.48173938714E+02  0.69764760518E+02  0.10000000000E+01 0.  0.
          4    1    1    2  501    0  0.16009010899E+02 -0.47980630951E+02  0.60060480494E+01  0.50952084252E+02  0.12700000000E+01 0.  1.
<mgrwt>
<rscale>  1 0.13484458E+03</rscale>
<asrwt>0</asrwt>
<pdfrwt beam="1">  1       21 0.73650223E-02 0.13484458E+03</pdfrwt>
<pdfrwt beam="2">  1        4 0.39516590E-01 0.13484458E+03</pdfrwt>
<totfact> 0.34963327E+04</totfact>
</mgrwt>
</event>
<event>
 6    4  0.6376098E-003  0.1351426E+03  0.7818608E-02  0.1220019E+00
         21   -1    0    0  501  502  0.00000000000E+00  0.00000000000E+00  0.64417195358E+01  0.64417195358E+01  0.00000000000E+00 0.  1.
          4   -1    0    0  502    0 -0.00000000000E+00 -0.00000000000E+00 -0.14643049219E+04  0.14643054726E+04  0.12700000000E+01 0.  1.
         25    2    1    2    0    0  0.30325112765E+02  0.41446948855E+02 -0.84542986213E+03  0.85616304727E+03  0.12500419874E+03 0.  0.
    9000005    1    3    3    0    0  0.46329411223E+02 -0.89766056073E+01 -0.12218654073E+03  0.13098681051E+03  0.10000000000E+01 0.  0.
    9000005    1    3    3    0    0 -0.16004298458E+02  0.50423554462E+02 -0.72324332140E+03  0.72517623676E+03  0.10000000000E+01 0.  0.
          4    1    1    2  501    0 -0.30325112765E+02 -0.41446948855E+02 -0.61243334021E+03  0.61458414487E+03  0.12700000000E+01 0. -1.
<mgrwt>
<rscale>  1 0.13514256E+03</rscale>
<asrwt>0</asrwt>
<pdfrwt beam="1">  1       21 0.99103178E-03 0.13514256E+03</pdfrwt>
<pdfrwt beam="2">  1        4 0.22528781E+00 0.13514256E+03</pdfrwt>
<totfact> 0.15865842E+04</totfact>
</mgrwt>
</event>
<event>
 6    4  0.6376098E-003  0.1309492E+03  0.7818608E-02  0.1226054E+00
         -4   -1    0    0    0  501 -0.00000000000E+00  0.00000000000E+00  0.24275308860E+03  0.24275641068E+03  0.12700000000E+01 0.  1.
         21   -1    0    0  501  502  0.00000000000E+00 -0.00000000000E+00 -0.32357766655E+02  0.32357766655E+02  0.00000000000E+00 0. -1.
         25    2    1    2    0    0  0.32439725479E+02 -0.21682619295E+02  0.19085053309E+03  0.23145546182E+03  0.12500093222E+03 0.  0.
    9000005    1    3    3    0    0  0.58725603284E+02  0.19313183505E+02  0.41759734369E+02  0.74609456189E+02  0.10000000000E+01 0.  0.
    9000005    1    3    3    0    0 -0.26285877805E+02 -0.40995802801E+02  0.14909079872E+03  0.15684600563E+03  0.10000000000E+01 0.  0.
         -4    1    1    2    0  502 -0.32439725479E+02  0.21682619295E+02  0.19544788853E+02  0.43658715510E+02  0.12700000000E+01 0. -1.
<mgrwt>
<rscale>  1 0.13094925E+03</rscale>
<asrwt>0</asrwt>
<pdfrwt beam="2">  1       21 0.49781181E-02 0.13094925E+03</pdfrwt>
<pdfrwt beam="1">  1       -4 0.37348800E-01 0.13094925E+03</pdfrwt>
<totfact> 0.75642870E+04</totfact>
</mgrwt>
</event>
<event>
 6    4  0.6376098E-003  0.1273338E+03  0.7818608E-02  0.1231466E+00
         -4   -1    0    0    0  501 -0.00000000000E+00  0.00000000000E+00  0.46719478994E+02  0.46736737343E+02  0.12700000000E+01 0. -1.
         21   -1    0    0  501  502  0.00000000000E+00 -0.00000000000E+00 -0.14367290315E+03  0.14367290315E+03  0.00000000000E+00 0. -1.
         25    2    1    2    0    0  0.66530418475E+01  0.23337431276E+02 -0.48599780985E+02  0.13629322549E+03  0.12500002376E+03 0.  0.
    9000005    1    3    3    0    0  0.65574500402E+01  0.33291073850E+02  0.36941217686E+02  0.50169206823E+02  0.10000000000E+01 0.  0.
    9000005    1    3    3    0    0  0.95591807262E-01 -0.99536425746E+01 -0.85540998671E+02  0.86124018670E+02  0.10000000000E+01 0.  0.
         -4    1    1    2    0  502 -0.66530418475E+01 -0.23337431276E+02 -0.48353643167E+02  0.54116414995E+02  0.12700000000E+01 0.  1.
<mgrwt>
<rscale>  1 0.12733383E+03</rscale>
<asrwt>0</asrwt>
<pdfrwt beam="2">  1       21 0.22103523E-01 0.12733383E+03</pdfrwt>
<pdfrwt beam="1">  1       -4 0.71893715E-02 0.12733383E+03</pdfrwt>
<totfact> 0.10102952E+05</totfact>
</mgrwt>
</event>
<event>
 6    4  0.6376098E-003  0.1297557E+03  0.7818608E-02  0.1227819E+00
         -4   -1    0    0    0  501 -0.00000000000E+00  0.00000000000E+00  0.24070079270E+02  0.24103560236E+02  0.12700000000E+01 0. -1.
         21   -1    0    0  501  502  0.00000000000E+00 -0.00000000000E+00 -0.16636687350E+04  0.16636687350E+04  0.00000000000E+00 0.  1.
         25    2    1    2    0    0 -0.31702690857E+02  0.14226231800E+02 -0.15235171492E+03  0.20011893436E+03  0.12501638521E+03 0.  0.
    9000005    1    3    3    0    0 -0.94444463309E+01 -0.38138129807E+02 -0.13503006104E+03  0.14063367981E+03  0.10000000000E+01 0.  0.
    9000005    1    3    3    0    0 -0.22258244527E+02  0.52364361607E+02 -0.17321653880E+02  0.59485254552E+02  0.10000000000E+01 0.  0.
         -4    1    1    2    0  502  0.31702690857E+02 -0.14226231800E+02 -0.14872469408E+04  0.14876533609E+04  0.12700000000E+01 0.  1.
<mgrwt>
<rscale>  1 0.12975570E+03</rscale>
<asrwt>0</asrwt>
<pdfrwt beam="2">  1       21 0.25594900E+00 0.12975570E+03</pdfrwt>
<pdfrwt beam="1">  1       -4 0.37057023E-02 0.12975570E+03</pdfrwt>
<totfact> 0.10223965E+03</totfact>
</mgrwt>
</event>
<event>
 6    4  0.6376098E-003  0.1299258E+03  0.7818608E-02  0.1227566E+00
          4   -1    0    0  502    0 -0.00000000000E+00  0.00000000000E+00  0.33512965350E+03  0.33513205987E+03  0.12700000000E+01 0. -1.
         21   -1    0    0  501  502  0.00000000000E+00 -0.00000000000E+00 -0.21510271094E+02  0.21510271094E+02  0.00000000000E+00 0. -1.
         25    2    1    2    0    0 -0.29398052900E+02 -0.19810793617E+02  0.20819079229E+03  0.24540603486E+03  0.12499601151E+03 0.  0.
    9000005    1    3    3    0    0  0.20738304221E+02 -0.15799791336E+02  0.19019728682E+03  0.19197843259E+03  0.10000000000E+01 0.  0.
    9000005    1    3    3    0    0 -0.50136357121E+02 -0.40110022807E+01  0.17993505470E+02  0.53427602265E+02  0.10000000000E+01 0.  0.
          4    1    1    2  501    0  0.29398052900E+02  0.19810793617E+02  0.10542859012E+03  0.11123629611E+03  0.12700000000E+01 0.  1.
<mgrwt>
<rscale>  1 0.12992581E+03</rscale>
<asrwt>0</asrwt>
<pdfrwt beam="2">  1       21 0.33092727E-02 0.12992581E+03</pdfrwt>
<pdfrwt beam="1">  1        4 0.51561473E-01 0.12992581E+03</pdfrwt>
<totfact> 0.78317860E+04</totfact>
</mgrwt>
</event>
<event>
 6    4  0.6376098E-003  0.1673916E+03  0.7818608E-02  0.1180596E+00
          4   -1    0    0  502    0 -0.00000000000E+00  0.00000000000E+00  0.53714420512E+02  0.53729432073E+02  0.12700000000E+01 0.  1.
         21   -1    0    0  501  502  0.00000000000E+00 -0.00000000000E+00 -0.56896091481E+03  0.56896091481E+03  0.00000000000E+00 0. -1.
         25    2    1    2    0    0 -0.73903196503E+02 -0.83271176227E+02 -0.10498920083E+03  0.19759220411E+03  0.12499670232E+03 0.  0.
    9000005    1    3    3    0    0  0.11044582150E+02  0.82673132964E+01  0.17740088701E+02  0.22495377551E+02  0.10000000000E+01 0.  0.
    9000005    1    3    3    0    0 -0.84947778654E+02 -0.91538489524E+02 -0.12272928953E+03  0.17509682656E+03  0.10000000000E+01 0.  0.
          4    1    1    2  501    0  0.73903196503E+02  0.83271176227E+02 -0.41025729348E+03  0.42509814278E+03  0.12700000000E+01 0. -1.
<mgrwt>
<rscale>  1 0.16739160E+03</rscale>
<asrwt>0</asrwt>
<pdfrwt beam="2">  1       21 0.87532451E-01 0.16739160E+03</pdfrwt>
<pdfrwt beam="1">  1        4 0.82650205E-02 0.16739160E+03</pdfrwt>
<totfact> 0.49080989E+03</totfact>
</mgrwt>
</event>
<event>
 6    4  0.6376098E-003  0.1296479E+03  0.7818608E-02  0.1227979E+00
          4   -1    0    0  502    0 -0.00000000000E+00  0.00000000000E+00  0.10970098278E+03  0.10970833388E+03  0.12700000000E+01 0.  1.
         21   -1    0    0  501  502  0.00000000000E+00 -0.00000000000E+00 -0.82291075050E+02  0.82291075050E+02  0.00000000000E+00 0.  1.
         25    2    1    2    0    0  0.32724610382E+02  0.10622387305E+02  0.61547273174E+02  0.14351530992E+03  0.12499936844E+03 0.  0.
    9000005    1    3    3    0    0 -0.22741989981E+02 -0.38443834568E+02 -0.36751403195E+01  0.44828932410E+02  0.10000000000E+01 0.  0.
    9000005    1    3    3    0    0  0.55466600363E+02  0.49066221874E+02  0.65222413494E+02  0.98686377514E+02  0.10000000000E+01 0.  0.
          4    1    1    2  501    0 -0.32724610382E+02 -0.10622387305E+02 -0.34137365447E+02  0.48484099006E+02  0.12700000000E+01 0. -1.
<mgrwt>
<rscale>  1 0.12964790E+03</rscale>
<asrwt>0</asrwt>
<pdfrwt beam="2">  1       21 0.12660165E-01 0.12964790E+03</pdfrwt>
<pdfrwt beam="1">  1        4 0.16878393E-01 0.12964790E+03</pdfrwt>
<totfact> 0.65530790E+04</totfact>
</mgrwt>
</event>
<event>
 6    4  0.6376098E-003  0.1266576E+03  0.7818608E-02  0.1232501E+00
          4   -1    0    0  502    0 -0.00000000000E+00  0.00000000000E+00  0.64635681303E+02  0.64648156954E+02  0.12700000000E+01 0. -1.
         21   -1    0    0  501  502  0.00000000000E+00 -0.00000000000E+00 -0.86949352780E+02  0.86949352780E+02  0.00000000000E+00 0. -1.
         25    2    1    2    0    0  0.92683713151E+01 -0.18216992044E+02 -0.29222208789E+02  0.12998496028E+03  0.12499756361E+03 0.  0.
    9000005    1    3    3    0    0  0.19920116366E+02 -0.29123653526E+01  0.47195066493E+02  0.51319267428E+02  0.10000000000E+01 0.  0.
    9000005    1    3    3    0    0 -0.10651745051E+02 -0.15304626692E+02 -0.76417275282E+02  0.78665692855E+02  0.10000000000E+01 0.  0.
          4    1    1    2  501    0 -0.92683713151E+01  0.18216992044E+02  0.69085373119E+01  0.21612549451E+02  0.12700000000E+01 0.  1.
<mgrwt>
<rscale>  1 0.12665762E+03</rscale>
<asrwt>0</asrwt>
<pdfrwt beam="2">  1       21 0.13376824E-01 0.12665762E+03</pdfrwt>
<pdfrwt beam="1">  1        4 0.99456240E-02 0.12665762E+03</pdfrwt>
<totfact> 0.14714630E+05</totfact>
</mgrwt>
</event>
<event>
 6    4  0.6376098E-003  0.1321284E+03  0.7818608E-02  0.1224331E+00
         21   -1    0    0  501  502  0.00000000000E+00  0.00000000000E+00  0.12738016783E+03  0.12738016783E+03  0.00000000000E+00 0.  1.
         -4   -1    0    0    0  501 -0.00000000000E+00 -0.00000000000E+00 -0.28635451577E+03  0.28635733202E+03  0.12700000000E+01 0. -1.
         25    2    1    2    0    0  0.82084097805E+01  0.42020184445E+02 -0.26679491681E+03  0.29772042412E+03  0.12499939766E+03 0.  0.
    9000005    1    3    3    0    0  0.57211791171E+02 -0.73747830509E+01 -0.82037332585E+02  0.10029307260E+03  0.10000000000E+01 0.  0.
    9000005    1    3    3    0    0 -0.49003381391E+02  0.49394967496E+02 -0.18475758422E+03  0.19742735152E+03  0.10000000000E+01 0.  0.
         -4    1    1    2    0  502 -0.82084097805E+01 -0.42020184445E+02  0.10782056886E+03  0.11601707573E+03  0.12700000000E+01 0.  1.
<mgrwt>
<rscale>  1 0.13212843E+03</rscale>
<asrwt>0</asrwt>
<pdfrwt beam="1">  1       21 0.19596949E-01 0.13212843E+03</pdfrwt>
<pdfrwt beam="2">  1       -4 0.44055244E-01 0.13212843E+03</pdfrwt>
<totfact> 0.49476096E+03</totfact>
</mgrwt>
</event>
<event>
 6    4  0.6376098E-003  0.1267853E+03  0.7818608E-02  0.1232305E+00
         21   -1    0    0  501  502  0.00000000000E+00  0.00000000000E+00  0.93942507846E+03  0.93942507846E+03  0.00000000000E+00 0.  1.
          4   -1    0    0  502    0 -0.00000000000E+00 -0.00000000000E+00 -0.10597003237E+02  0.10672833626E+02  0.12700000000E+01 0. -1.
         25    2    1    2    0    0 -0.12258637970E+02 -0.17632343520E+02  0.37501345781E+03  0.39586563488E+03  0.12495332566E+03 0.  0.
    9000005    1    3    3    0    0 -0.83080986872E+01  0.81161014800E+01  0.36890689162E+03  0.36909103252E+03  0.10000000000E+01 0.  0.
    9000005    1    3    3    0    0 -0.39505392829E+01 -0.25748445000E+02  0.61065661982E+01  0.26774602355E+02  0.10000000000E+01 0.  0.
          4    1    1    2  501    0  0.12258637970E+02  0.17632343520E+02  0.55381461741E+03  0.55423227721E+03  0.12700000000E+01 0.  1.
<mgrwt>
<rscale>  1 0.12678528E+03</rscale>
<asrwt>0</asrwt>
<pdfrwt beam="1">  1       21 0.14452687E+00 0.12678528E+03</pdfrwt>
<pdfrwt beam="2">  1        4 0.16362081E-02 0.12678528E+03</pdfrwt>
<totfact> 0.18862559E+04</totfact>
</mgrwt>
</event>
<event>
 6    4  0.6376098E-003  0.1275143E+03  0.7818608E-02  0.1231191E+00
          4   -1    0    0  502    0 -0.00000000000E+00  0.00000000000E+00  0.69790134549E+02  0.69801688950E+02  0.12700000000E+01 0.  1.
         21   -1    0    0  501  502  0.00000000000E+00 -0.00000000000E+00 -0.10628581553E+03  0.10628581553E+03  0.00000000000E+00 0.  1.
         25    2    1    2    0    0  0.23561192218E+02 -0.87514029580E+01  0.49379669630E+01  0.12760991260E+03  0.12501275712E+03 0.  0.
    9000005    1    3    3    0    0 -0.42223124004E+02  0.16832347646E+01  0.34663498707E+02  0.54664281048E+02  0.10000000000E+01 0.  0.
    9000005    1    3    3    0    0  0.65784316222E+02 -0.10434637723E+02 -0.29725531744E+02  0.72945631553E+02  0.10000000000E+01 0.  0.
          4    1    1    2  501    0 -0.23561192218E+02  0.87514029580E+01 -0.41433647944E+02  0.48477591879E+02  0.12700000000E+01 0. -1.
<mgrwt>
<rscale>  1 0.12751434E+03</rscale>
<asrwt>0</asrwt>
<pdfrwt beam="2">  1       21 0.16351664E-01 0.12751434E+03</pdfrwt>
<pdfrwt beam="1">  1        4 0.10738416E-01 0.12751434E+03</pdfrwt>
<totfact> 0.90154909E+04</totfact>
</mgrwt>
</event>
<event>
 6    4  0.6376098E-003  0.1267367E+03  0.7818608E-02  0.1232380E+00
          4   -1    0    0  502    0 -0.00000000000E+00  0.00000000000E+00  0.63650617971E+02  0.63663286658E+02  0.12700000000E+01 0. -1.
         21   -1    0    0  501  502  0.00000000000E+00 -0.00000000000E+00 -0.10367621375E+03  0.10367621375E+03  0.00000000000E+00 0.  1.
         25    2    1    2    0    0 -0.10151992426E+02  0.18277580272E+02 -0.53759474156E+01  0.12685068810E+03  0.12500025348E+03 0.  0.
    9000005    1    3    3    0    0 -0.63639321433E+02  0.26389734915E+02 -0.18156872994E+02  0.71253444676E+02  0.10000000000E+01 0.  0.
    9000005    1    3    3    0    0  0.53487329007E+02 -0.81121546424E+01  0.12780925578E+02  0.55597243420E+02  0.10000000000E+01 0.  0.
          4    1    1    2  501    0  0.10151992426E+02 -0.18277580272E+02 -0.34649648367E+02  0.40488812316E+02  0.12700000000E+01 0.  1.
<mgrwt>
<rscale>  1 0.12673672E+03</rscale>
<asrwt>0</asrwt>
<pdfrwt beam="2">  1       21 0.15950187E-01 0.12673672E+03</pdfrwt>
<pdfrwt beam="1">  1        4 0.97939756E-02 0.12673672E+03</pdfrwt>
<totfact> 0.11005256E+05</totfact>
</mgrwt>
</event>
<event>
 6    4  0.6376098E-003  0.1282561E+03  0.7818608E-02  0.1230066E+00
         -4   -1    0    0    0  501 -0.00000000000E+00  0.00000000000E+00  0.28408830908E+03  0.28409114779E+03  0.12700000000E+01 0. -1.
         21   -1    0    0  501  502  0.00000000000E+00 -0.00000000000E+00 -0.23854275977E+02  0.23854275977E+02  0.00000000000E+00 0. -1.
         25    2    1    2    0    0  0.27558184590E+02  0.81387741531E+01  0.24201038618E+03  0.27389535197E+03  0.12499577445E+03 0.  0.
    9000005    1    3    3    0    0  0.38355282123E+02 -0.12799648710E+02  0.11317481935E+02  0.42000524654E+02  0.10000000000E+01 0.  0.
    9000005    1    3    3    0    0 -0.10797097533E+02  0.20938422863E+02  0.23069290424E+03  0.23189482731E+03  0.10000000000E+01 0.  0.
         -4    1    1    2    0  502 -0.27558184590E+02 -0.81387741531E+01  0.18223646923E+02  0.34050071803E+02  0.12700000000E+01 0.  1.
<mgrwt>
<rscale>  1 0.12825614E+03</rscale>
<asrwt>0</asrwt>
<pdfrwt beam="2">  1       21 0.36698888E-02 0.12825614E+03</pdfrwt>
<pdfrwt beam="1">  1       -4 0.43708710E-01 0.12825614E+03</pdfrwt>
<totfact> 0.91983364E+04</totfact>
</mgrwt>
</event>
<event>
 6    4  0.6376098E-003  0.1349219E+03  0.7818608E-02  0.1220330E+00
         21   -1    0    0  501  502  0.00000000000E+00  0.00000000000E+00  0.67720741271E+02  0.67720741271E+02  0.00000000000E+00 0.  1.
          4   -1    0    0  502    0 -0.00000000000E+00 -0.00000000000E+00 -0.14261752107E+03  0.14262317560E+03  0.12700000000E+01 0. -1.
         25    2    1    2    0    0  0.50765536312E+02  0.14711192416E+01 -0.83712532545E+02  0.15878197097E+03  0.12499848931E+03 0.  0.
    9000005    1    3    3    0    0  0.46740292185E+02 -0.42232020331E+02  0.13976781813E+01  0.63017076726E+02  0.10000000000E+01 0.  0.
    9000005    1    3    3    0    0  0.40252441273E+01  0.43703139573E+02 -0.85110210726E+02  0.95764894239E+02  0.10000000000E+01 0.  0.
          4    1    1    2  501    0 -0.50765536312E+02 -0.14711192416E+01  0.88157527410E+01  0.51561945903E+02  0.12700000000E+01 0.  1.
<mgrwt>
<rscale>  1 0.13492193E+03</rscale>
<asrwt>0</asrwt>
<pdfrwt beam="1">  1       21 0.10418576E-01 0.13492193E+03</pdfrwt>
<pdfrwt beam="2">  1        4 0.21942508E-01 0.13492193E+03</pdfrwt>
<totfact> 0.58098745E+04</totfact>
</mgrwt>
</event>
<event>
 6    4  0.6376098E-003  0.1378990E+03  0.7818608E-02  0.1216184E+00
         21   -1    0    0  501  502  0.00000000000E+00  0.00000000000E+00  0.82547246211E+02  0.82547246211E+02  0.00000000000E+00 0.  1.
          4   -1    0    0  502    0 -0.00000000000E+00 -0.00000000000E+00 -0.21017496405E+03  0.21017880106E+03  0.12700000000E+01 0.  1.
         25    2    1    2    0    0 -0.42591190560E+02  0.39694122976E+02 -0.17131919006E+03  0.21992363964E+03  0.12500603776E+03 0.  0.
    9000005    1    3    3    0    0 -0.75796339216E+02  0.17678830660E+02 -0.50704579270E+02  0.92895535151E+02  0.10000000000E+01 0.  0.
    9000005    1    3    3    0    0  0.33205148656E+02  0.22015292316E+02 -0.12061461079E+03  0.12702810449E+03  0.10000000000E+01 0.  0.
          4    1    1    2  501    0  0.42591190560E+02 -0.39694122976E+02  0.43691472221E+02  0.72802407632E+02  0.12700000000E+01 0. -1.
<mgrwt>
<rscale>  1 0.13789903E+03</rscale>
<asrwt>0</asrwt>
<pdfrwt beam="1">  1       21 0.12699576E-01 0.13789903E+03</pdfrwt>
<pdfrwt beam="2">  1        4 0.32335656E-01 0.13789903E+03</pdfrwt>
<totfact> 0.19933572E+04</totfact>
</mgrwt>
</event>
<event>
 6    4  0.6376098E-003  0.1280868E+03  0.7818608E-02  0.1230322E+00
         21   -1    0    0  501  502  0.00000000000E+00  0.00000000000E+00  0.63694955273E+03  0.63694955273E+03  0.00000000000E+00 0. -1.
         -4   -1    0    0    0  501 -0.00000000000E+00 -0.00000000000E+00 -0.19580163791E+02  0.19621307655E+02  0.12700000000E+01 0.  1.
         25    2    1    2    0    0 -0.23846186772E+02  0.14588048826E+02  0.19518235739E+03  0.23345745442E+03  0.12499911439E+03 0.  0.
    9000005    1    3    3    0    0  0.41295777394E+02 -0.17292987259E+02  0.12397148748E+03  0.13181167758E+03  0.10000000000E+01 0.  0.
    9000005    1    3    3    0    0 -0.65141964166E+02  0.31881036086E+02  0.71210869909E+02  0.10164577685E+03  0.10000000000E+01 0.  0.
         -4    1    1    2    0  502  0.23846186772E+02 -0.14588048826E+02  0.42218703155E+03  0.42311340596E+03  0.12700000000E+01 0. -1.
<mgrwt>
<rscale>  1 0.12808681E+03</rscale>
<asrwt>0</asrwt>
<pdfrwt beam="1">  1       21 0.97992223E-01 0.12808681E+03</pdfrwt>
<pdfrwt beam="2">  1       -4 0.30155957E-02 0.12808681E+03</pdfrwt>
<totfact> 0.18922045E+04</totfact>
</mgrwt>
</event>
<event>
 6    4  0.6376098E-003  0.1278079E+03  0.7818608E-02  0.1230745E+00
         -4   -1    0    0    0  501 -0.00000000000E+00  0.00000000000E+00  0.11761694376E+03  0.11762380014E+03  0.12700000000E+01 0.  1.
         21   -1    0    0  501  502  0.00000000000E+00 -0.00000000000E+00 -0.50874631739E+02  0.50874631739E+02  0.00000000000E+00 0.  1.
         25    2    1    2    0    0  0.16933045943E+02  0.20538375640E+02  0.51462202657E+02  0.13777958488E+03  0.12500521104E+03 0.  0.
    9000005    1    3    3    0    0  0.15960756565E+02  0.21566402921E+02 -0.38973979448E+02  0.47326805925E+02  0.10000000000E+01 0.  0.
    9000005    1    3    3    0    0  0.97228937743E+00 -0.10280272810E+01  0.90436182105E+02  0.90452778954E+02  0.10000000000E+01 0.  0.
         -4    1    1    2    0  502 -0.16933045943E+02 -0.20538375640E+02  0.15280109362E+02  0.30718846999E+02  0.12700000000E+01 0. -1.
<mgrwt>
<rscale>  1 0.12780789E+03</rscale>
<asrwt>0</asrwt>
<pdfrwt beam="2">  1       21 0.78268665E-02 0.12780789E+03</pdfrwt>
<pdfrwt beam="1">  1       -4 0.18096661E-01 0.12780789E+03</pdfrwt>
<totfact> 0.13404916E+05</totfact>
</mgrwt>
</event>
<event>
 6    4  0.6376098E-003  0.1292303E+03  0.7818608E-02  0.1228602E+00
          4   -1    0    0  502    0 -0.00000000000E+00  0.00000000000E+00  0.63537478471E+03  0.63537605396E+03  0.12700000000E+01 0.  1.
         21   -1    0    0  501  502  0.00000000000E+00 -0.00000000000E+00 -0.25620915260E+02  0.25620915260E+02  0.00000000000E+00 0. -1.
         25    2    1    2    0    0  0.27594507116E+02 -0.17704004700E+02  0.61441409509E+03  0.62785757863E+03  0.12500228076E+03 0.  0.
    9000005    1    3    3    0    0 -0.16378396357E+02 -0.62029118553E+02  0.37412966917E+03  0.37959171852E+03  0.10000000000E+01 0.  0.
    9000005    1    3    3    0    0  0.43972903473E+02  0.44325113853E+02  0.24028442591E+03  0.24826586011E+03  0.10000000000E+01 0.  0.
          4    1    1    2  501    0 -0.27594507116E+02  0.17704004700E+02 -0.46602256410E+01  0.33139390586E+02  0.12700000000E+01 0. -1.
<mgrwt>
<rscale>  1 0.12923025E+03</rscale>
<asrwt>0</asrwt>
<pdfrwt beam="2">  1       21 0.39416798E-02 0.12923025E+03</pdfrwt>
<pdfrwt beam="1">  1        4 0.97752473E-01 0.12923025E+03</pdfrwt>
<totfact> 0.14686073E+04</totfact>
</mgrwt>
</event>
<event>
 6    4  0.6376098E-003  0.1321522E+03  0.7818608E-02  0.1224297E+00
          4   -1    0    0  502    0 -0.00000000000E+00  0.00000000000E+00  0.76923358280E+02  0.76933841377E+02  0.12700000000E+01 0.  1.
         21   -1    0    0  501  502  0.00000000000E+00 -0.00000000000E+00 -0.19239131470E+03  0.19239131470E+03  0.00000000000E+00 0.  1.
         25    2    1    2    0    0  0.17654057351E+02  0.39118942556E+02  0.14029739543E+02  0.13289486777E+03  0.12498901904E+03 0.  0.
    9000005    1    3    3    0    0 -0.38535468251E+02  0.12065238205E+02 -0.35088639932E+02  0.53504812293E+02  0.10000000000E+01 0.  0.
    9000005    1    3    3    0    0  0.56189525602E+02  0.27053704351E+02  0.49118379475E+02  0.79390055478E+02  0.10000000000E+01 0.  0.
          4    1    1    2  501    0 -0.17654057351E+02 -0.39118942556E+02 -0.12949769597E+03  0.13643028831E+03  0.12700000000E+01 0. -1.
<mgrwt>
<rscale>  1 0.13215223E+03</rscale>
<asrwt>0</asrwt>
<pdfrwt beam="2">  1       21 0.29598664E-01 0.13215223E+03</pdfrwt>
<pdfrwt beam="1">  1        4 0.11835492E-01 0.13215223E+03</pdfrwt>
<totfact> 0.25336471E+04</totfact>
</mgrwt>
</event>
<event>
 6    4  0.6376098E-003  0.1275096E+03  0.7818608E-02  0.1231199E+00
         21   -1    0    0  501  502  0.00000000000E+00  0.00000000000E+00  0.25609779701E+02  0.25609779701E+02  0.00000000000E+00 0.  1.
         -4   -1    0    0    0  501 -0.00000000000E+00 -0.00000000000E+00 -0.24628952329E+03  0.24629279766E+03  0.12700000000E+01 0. -1.
         25    2    1    2    0    0  0.41008190943E+01 -0.24845047664E+02 -0.20725557241E+03  0.24333836229E+03  0.12499837263E+03 0.  0.
    9000005    1    3    3    0    0  0.39946173158E+02 -0.37220473147E+02 -0.30480737709E+02  0.62539073727E+02  0.10000000000E+01 0.  0.
    9000005    1    3    3    0    0 -0.35845354064E+02  0.12375425483E+02 -0.17677483470E+03  0.18079928857E+03  0.10000000000E+01 0.  0.
         -4    1    1    2    0  502 -0.41008190943E+01  0.24845047664E+02 -0.13424171177E+02  0.28564215068E+02  0.12700000000E+01 0.  1.
<mgrwt>
<rscale>  1 0.12750955E+03</rscale>
<asrwt>0</asrwt>
<pdfrwt beam="1">  1       21 0.39399661E-02 0.12750955E+03</pdfrwt>
<pdfrwt beam="2">  1       -4 0.37893370E-01 0.12750955E+03</pdfrwt>
<totfact> 0.10824645E+05</totfact>
</mgrwt>
</event>
<event>
 6    4  0.6376098E-003  0.1268541E+03  0.7818608E-02  0.1232200E+00
          4   -1    0    0  502    0 -0.00000000000E+00  0.00000000000E+00  0.24912662602E+03  0.24912986311E+03  0.12700000000E+01 0. -1.
         21   -1    0    0  501  502  0.00000000000E+00 -0.00000000000E+00 -0.24219821815E+02  0.24219821815E+02  0.00000000000E+00 0. -1.
         25    2    1    2    0    0 -0.68566128116E+01 -0.20493377996E+02  0.15568902131E+03  0.20082585401E+03  0.12499984241E+03 0.  0.
    9000005    1    3    3    0    0  0.38100120623E+02  0.35066843712E+02  0.42687517245E+02  0.67115771976E+02  0.10000000000E+01 0.  0.
    9000005    1    3    3    0    0 -0.44956733434E+02 -0.55560221708E+02  0.11300150406E+03  0.13371008203E+03  0.10000000000E+01 0.  0.
          4    1    1    2  501    0  0.68566128116E+01  0.20493377996E+02  0.69217782896E+02  0.72523830911E+02  0.12700000000E+01 0.  1.
<mgrwt>
<rscale>  1 0.12685406E+03</rscale>
<asrwt>0</asrwt>
<pdfrwt beam="2">  1       21 0.37261266E-02 0.12685406E+03</pdfrwt>
<pdfrwt beam="1">  1        4 0.38329982E-01 0.12685406E+03</pdfrwt>
<totfact> 0.11601896E+05</totfact>
</mgrwt>
</event>
<event>
 6    4  0.6376098E-003  0.1275174E+03  0.7818608E-02  0.1231187E+00
          4   -1    0    0  502    0 -0.00000000000E+00  0.00000000000E+00  0.51305446872E+01  0.52853939103E+01  0.12700000000E+01 0. -1.
         21   -1    0    0  501  502  0.00000000000E+00 -0.00000000000E+00 -0.11583024889E+04  0.11583024889E+04  0.00000000000E+00 0. -1.
         25    2    1    2    0    0  0.21720887881E+02 -0.12805017138E+02 -0.87042790815E+03  0.87971895485E+03  0.12499972318E+03 0.  0.
    9000005    1    3    3    0    0 -0.11663737999E+02  0.11387898356E+02 -0.11915336473E+02  0.20216385838E+02  0.10000000000E+01 0.  0.
    9000005    1    3    3    0    0  0.33384625880E+02 -0.24192915494E+02 -0.85851257168E+03  0.85950256901E+03  0.10000000000E+01 0.  0.
          4    1    1    2  501    0 -0.21720887881E+02  0.12805017138E+02 -0.28274403609E+03  0.28386892800E+03  0.12700000000E+01 0.  1.
<mgrwt>
<rscale>  1 0.12751744E+03</rscale>
<asrwt>0</asrwt>
<pdfrwt beam="2">  1       21 0.17820075E+00 0.12751744E+03</pdfrwt>
<pdfrwt beam="1">  1        4 0.80127797E-03 0.12751744E+03</pdfrwt>
<totfact> 0.31828099E+04</totfact>
</mgrwt>
</event>
<event>
 6    4  0.6376098E-003  0.1280676E+03  0.7818608E-02  0.1230352E+00
         21   -1    0    0  501  502  0.00000000000E+00  0.00000000000E+00  0.16134136447E+02  0.16134136447E+02  0.00000000000E+00 0. -1.
         -4   -1    0    0    0  501 -0.00000000000E+00 -0.00000000000E+00 -0.37683899626E+03  0.37684113629E+03  0.12700000000E+01 0. -1.
         25    2    1    2    0    0 -0.27763456908E+02  0.22767009685E+01 -0.29662308097E+03  0.32308907821E+03  0.12500122953E+03 0.  0.
    9000005    1    3    3    0    0 -0.12693294087E+02  0.61805704263E+02 -0.18797572381E+03  0.19828499070E+03  0.10000000000E+01 0.  0.
    9000005    1    3    3    0    0 -0.15070162821E+02 -0.59529003295E+02 -0.10864735716E+03  0.12480408751E+03  0.10000000000E+01 0.  0.
         -4    1    1    2    0  502  0.27763456908E+02 -0.22767009685E+01 -0.64081778835E+02  0.69886194527E+02  0.12700000000E+01 0.  1.
<mgrwt>
<rscale>  1 0.12806756E+03</rscale>
<asrwt>0</asrwt>
<pdfrwt beam="1">  1       21 0.24821749E-02 0.12806756E+03</pdfrwt>
<pdfrwt beam="2">  1       -4 0.57979239E-01 0.12806756E+03</pdfrwt>
<totfact> 0.98215632E+04</totfact>
</mgrwt>
</event>
<event>
 6    4  0.6376098E-003  0.1267724E+03  0.7818608E-02  0.1232325E+00
         -4   -1    0    0    0  501 -0.00000000000E+00  0.00000000000E+00  0.24519495275E+03  0.24519824175E+03  0.12700000000E+01 0.  1.
         21   -1    0    0  501  502  0.00000000000E+00 -0.00000000000E+00 -0.23041649055E+02  0.23041649055E+02  0.00000000000E+00 0.  1.
         25    2    1    2    0    0 -0.26474055260E+01 -0.20957347772E+02  0.17087345551E+03  0.21276507749E+03  0.12500008488E+03 0.  0.
    9000005    1    3    3    0    0 -0.95763911416E+01  0.11633512661E+02  0.17803157254E+03  0.17867088936E+03  0.10000000000E+01 0.  0.
    9000005    1    3    3    0    0  0.69289856156E+01 -0.32590860432E+02 -0.71581170221E+01  0.34094188136E+02  0.10000000000E+01 0.  0.
         -4    1    1    2    0  502  0.26474055260E+01  0.20957347772E+02  0.51279848184E+02  0.55474813306E+02  0.12700000000E+01 0. -1.
<mgrwt>
<rscale>  1 0.12677240E+03</rscale>
<asrwt>0</asrwt>
<pdfrwt beam="2">  1       21 0.35448693E-02 0.12677240E+03</pdfrwt>
<pdfrwt beam="1">  1       -4 0.37725244E-01 0.12677240E+03</pdfrwt>
<totfact> 0.12994455E+05</totfact>
</mgrwt>
</event>
<event>
 6    4  0.6376098E-003  0.1316049E+03  0.7818608E-02  0.1225094E+00
         -4   -1    0    0    0  501 -0.00000000000E+00  0.00000000000E+00  0.24700088272E+03  0.24700414767E+03  0.12700000000E+01 0. -1.
         21   -1    0    0  501  502  0.00000000000E+00 -0.00000000000E+00 -0.10217109148E+03  0.10217109148E+03  0.00000000000E+00 0.  1.
         25    2    1    2    0    0 -0.30581273943E+02  0.27570408445E+02  0.22407399604E+03  0.25986343348E+03  0.12499802648E+03 0.  0.
    9000005    1    3    3    0    0 -0.25364731954E+02 -0.34580704158E+02  0.21659453214E+02  0.48055453808E+02  0.10000000000E+01 0.  0.
    9000005    1    3    3    0    0 -0.52165419881E+01  0.62151112603E+02  0.20241454282E+03  0.21180797968E+03  0.10000000000E+01 0.  0.
         -4    1    1    2    0  502  0.30581273943E+02 -0.27570408445E+02 -0.79244204792E+02  0.89311805663E+02  0.12700000000E+01 0.  1.
<mgrwt>
<rscale>  1 0.13160489E+03</rscale>
<asrwt>0</asrwt>
<pdfrwt beam="2">  1       21 0.15718630E-01 0.13160489E+03</pdfrwt>
<pdfrwt beam="1">  1       -4 0.38000994E-01 0.13160489E+03</pdfrwt>
<totfact> 0.99086003E+03</totfact>
</mgrwt>
</event>
<event>
 6    4  0.6376098E-003  0.1596282E+03  0.7818608E-02  0.1189117E+00
          4   -1    0    0  502    0 -0.00000000000E+00  0.00000000000E+00  0.29477098917E+02  0.29504444759E+02  0.12700000000E+01 0. -1.
         21   -1    0    0  501  502  0.00000000000E+00 -0.00000000000E+00 -0.92675340088E+03  0.92675340088E+03  0.00000000000E+00 0.  1.
         25    2    1    2    0    0  0.52628129839E+02  0.84169208316E+02 -0.22037103368E+03  0.27211127450E+03  0.12500790992E+03 0.  0.
    9000005    1    3    3    0    0 -0.40099818079E+02  0.17863375009E+02 -0.44438249472E+02  0.62472822834E+02  0.10000000000E+01 0.  0.
    9000005    1    3    3    0    0  0.92727947918E+02  0.66305833307E+02 -0.17593278421E+03  0.20963845166E+03  0.10000000000E+01 0.  0.
          4    1    1    2  501    0 -0.52628129839E+02 -0.84169208316E+02 -0.67690526828E+03  0.68414657114E+03  0.12700000000E+01 0.  1.
<mgrwt>
<rscale>  1 0.15962817E+03</rscale>
<asrwt>0</asrwt>
<pdfrwt beam="2">  1       21 0.14257745E+00 0.15962817E+03</pdfrwt>
<pdfrwt beam="1">  1        4 0.45371087E-02 0.15962817E+03</pdfrwt>
<totfact> 0.40065013E+03</totfact>
</mgrwt>
</event>
<event>
 6    4  0.6376098E-003  0.1289069E+03  0.7818608E-02  0.1229087E+00
          4   -1    0    0  502    0 -0.00000000000E+00  0.00000000000E+00  0.22308366414E+03  0.22308727913E+03  0.12700000000E+01 0.  1.
         21   -1    0    0  501  502  0.00000000000E+00 -0.00000000000E+00 -0.44147879840E+02  0.44147879840E+02  0.00000000000E+00 0. -1.
         25    2    1    2    0    0 -0.25693815245E+02  0.18242697223E+02  0.19349297467E+03  0.23250055324E+03  0.12499603140E+03 0.  0.
    9000005    1    3    3    0    0  0.39031627536E+02  0.37424977059E+02  0.12561106101E+03  0.13675977298E+03  0.10000000000E+01 0.  0.
    9000005    1    3    3    0    0 -0.64725442782E+02 -0.19182279835E+02  0.67881913658E+02  0.95740780260E+02  0.10000000000E+01 0.  0.
          4    1    1    2  501    0  0.25693815245E+02 -0.18242697223E+02 -0.14557190366E+02  0.34734605729E+02  0.12700000000E+01 0. -1.
<mgrwt>
<rscale>  1 0.12890685E+03</rscale>
<asrwt>0</asrwt>
<pdfrwt beam="2">  1       21 0.67919817E-02 0.12890685E+03</pdfrwt>
<pdfrwt beam="1">  1        4 0.34322246E-01 0.12890685E+03</pdfrwt>
<totfact> 0.52523105E+04</totfact>
</mgrwt>
</event>
<event>
 6    4  0.6376098E-003  0.1274769E+03  0.7818608E-02  0.1231248E+00
         21   -1    0    0  501  502  0.00000000000E+00  0.00000000000E+00  0.18974037091E+02  0.18974037091E+02  0.00000000000E+00 0.  1.
          4   -1    0    0  502    0 -0.00000000000E+00 -0.00000000000E+00 -0.31556815287E+03  0.31557070841E+03  0.12700000000E+01 0.  1.
         25    2    1    2    0    0  0.17930886943E+02 -0.17433983548E+02 -0.26631342693E+03  0.29525106272E+03  0.12499955275E+03 0.  0.
    9000005    1    3    3    0    0 -0.26744020358E+02  0.27490866302E+02 -0.19955145749E+03  0.20320623647E+03  0.10000000000E+01 0.  0.
    9000005    1    3    3    0    0  0.44674907302E+02 -0.44924849849E+02 -0.66761969443E+02  0.92044826255E+02  0.10000000000E+01 0.  0.
          4    1    1    2  501    0 -0.17930886943E+02  0.17433983548E+02 -0.30280688853E+02  0.39293682779E+02  0.12700000000E+01 0. -1.
<mgrwt>
<rscale>  1 0.12747686E+03</rscale>
<asrwt>0</asrwt>
<pdfrwt beam="1">  1       21 0.29190829E-02 0.12747686E+03</pdfrwt>
<pdfrwt beam="2">  1        4 0.48552409E-01 0.12747686E+03</pdfrwt>
<totfact> 0.10846124E+05</totfact>
</mgrwt>
</event>
<event>
 6    4  0.6376098E-003  0.1266206E+03  0.7818608E-02  0.1232558E+00
         21   -1    0    0  501  502  0.00000000000E+00  0.00000000000E+00  0.17061853212E+03  0.17061853212E+03  0.00000000000E+00 0.  1.
          4   -1    0    0  502    0 -0.00000000000E+00 -0.00000000000E+00 -0.63699597482E+02  0.63712256430E+02  0.12700000000E+01 0. -1.
         25    2    1    2    0    0  0.16219368694E+02 -0.12038011579E+02  0.11323860795E+01  0.12662568932E+03  0.12499920502E+03 0.  0.
    9000005    1    3    3    0    0 -0.67111957160E+01  0.27969147517E+02 -0.50045148906E+02  0.57730670270E+02  0.10000000000E+01 0.  0.
    9000005    1    3    3    0    0  0.22930564410E+02 -0.40007159096E+02  0.51177534985E+02  0.68895019053E+02  0.10000000000E+01 0.  0.
          4    1    1    2  501    0 -0.16219368694E+02  0.12038011579E+02  0.10578654856E+03  0.10770509923E+03  0.12700000000E+01 0.  1.
<mgrwt>
<rscale>  1 0.12662063E+03</rscale>
<asrwt>0</asrwt>
<pdfrwt beam="1">  1       21 0.26249005E-01 0.12662063E+03</pdfrwt>
<pdfrwt beam="2">  1        4 0.98012755E-02 0.12662063E+03</pdfrwt>
<totfact> 0.43669435E+04</totfact>
</mgrwt>
</event>
<event>
 6    4  0.6376098E-003  0.1266194E+03  0.7818608E-02  0.1232560E+00
         21   -1    0    0  501  502  0.00000000000E+00  0.00000000000E+00  0.12812585232E+02  0.12812585232E+02  0.00000000000E+00 0. -1.
          4   -1    0    0  502    0 -0.00000000000E+00 -0.00000000000E+00 -0.42513347901E+03  0.42513537594E+03  0.12700000000E+01 0. -1.
         25    2    1    2    0    0  0.10623001513E+02 -0.17205552016E+02 -0.33884037009E+03  0.36172539599E+03  0.12499434595E+03 0.  0.
    9000005    1    3    3    0    0  0.16942980600E+02  0.15000652462E+02 -0.32549361298E+03  0.32628082422E+03  0.10000000000E+01 0.  0.
    9000005    1    3    3    0    0 -0.63199790864E+01 -0.32206204479E+02 -0.13346757117E+02  0.35444571772E+02  0.10000000000E+01 0.  0.
          4    1    1    2  501    0 -0.10623001513E+02  0.17205552016E+02 -0.73480523683E+02  0.76222565176E+02  0.12700000000E+01 0.  1.
<mgrwt>
<rscale>  1 0.12661937E+03</rscale>
<asrwt>0</asrwt>
<pdfrwt beam="1">  1       21 0.19711668E-02 0.12661937E+03</pdfrwt>
<pdfrwt beam="2">  1        4 0.65410142E-01 0.12661937E+03</pdfrwt>
<totfact> 0.11046459E+05</totfact>
</mgrwt>
</event>
<event>
 6    4  0.6376098E-003  0.1266968E+03  0.7818608E-02  0.1232441E+00
         21   -1    0    0  501  502  0.00000000000E+00  0.00000000000E+00  0.41515314768E+03  0.41515314768E+03  0.00000000000E+00 0.  1.
          4   -1    0    0  502    0 -0.00000000000E+00 -0.00000000000E+00 -0.14365449230E+02  0.14421478135E+02  0.12700000000E+01 0.  1.
         25    2    1    2    0    0 -0.23920206769E+01  0.20510706047E+02  0.37860486381E+03  0.39924144468E+03  0.12500270964E+03 0.  0.
    9000005    1    3    3    0    0  0.49339472966E+02 -0.16152253491E+02  0.25594291370E+03  0.26115714418E+03  0.10000000000E+01 0.  0.
    9000005    1    3    3    0    0 -0.51731493643E+02  0.36662959537E+02  0.12266195011E+03  0.13808430049E+03  0.10000000000E+01 0.  0.
          4    1    1    2  501    0  0.23920206769E+01 -0.20510706047E+02  0.22182834634E+02  0.30333181136E+02  0.12700000000E+01 0. -1.
<mgrwt>
<rscale>  1 0.12669684E+03</rscale>
<asrwt>0</asrwt>
<pdfrwt beam="1">  1       21 0.63869706E-01 0.12669684E+03</pdfrwt>
<pdfrwt beam="2">  1        4 0.22145288E-02 0.12669684E+03</pdfrwt>
<totfact> 0.79374601E+04</totfact>
</mgrwt>
</event>
<event>
 6    4  0.6376098E-003  0.1267710E+03  0.7818608E-02  0.1232327E+00
          4   -1    0    0  502    0 -0.00000000000E+00  0.00000000000E+00  0.40580251192E+03  0.40580449921E+03  0.12700000000E+01 0. -1.
         21   -1    0    0  501  502  0.00000000000E+00 -0.00000000000E+00 -0.29836617992E+02  0.29836617992E+02  0.00000000000E+00 0.  1.
         25    2    1    2    0    0  0.11797853607E+02 -0.17514137272E+02  0.39011133373E+03  0.41019233096E+03  0.12499984528E+03 0.  0.
    9000005    1    3    3    0    0 -0.42673039685E+02 -0.41540787514E+02  0.26532326504E+03  0.27192657155E+03  0.10000000000E+01 0.  0.
    9000005    1    3    3    0    0  0.54470893292E+02  0.24026650242E+02  0.12478806869E+03  0.13826575941E+03  0.10000000000E+01 0.  0.
          4    1    1    2  501    0 -0.11797853607E+02  0.17514137272E+02 -0.14145439802E+02  0.25448786244E+02  0.12700000000E+01 0.  1.
<mgrwt>
<rscale>  1 0.12677104E+03</rscale>
<asrwt>0</asrwt>
<pdfrwt beam="2">  1       21 0.45902492E-02 0.12677104E+03</pdfrwt>
<pdfrwt beam="1">  1        4 0.62433384E-01 0.12677104E+03</pdfrwt>
<totfact> 0.30480559E+04</totfact>
</mgrwt>
</event>
<event>
 6    4  0.6376098E-003  0.1564907E+03  0.7818608E-02  0.1192717E+00
          4   -1    0    0  502    0 -0.00000000000E+00  0.00000000000E+00  0.11897053522E+03  0.11897731359E+03  0.12700000000E+01 0. -1.
         21   -1    0    0  501  502  0.00000000000E+00 -0.00000000000E+00 -0.16402951086E+03  0.16402951086E+03  0.00000000000E+00 0.  1.
         25    2    1    2    0    0 -0.68196920048E+02 -0.64905401986E+02  0.33906725239E+02  0.16012181346E+03  0.12500319203E+03 0.  0.
    9000005    1    3    3    0    0 -0.67743434459E+01 -0.38325047401E+02 -0.43107217117E+02  0.58085567528E+02  0.10000000000E+01 0.  0.
    9000005    1    3    3    0    0 -0.61422576602E+02 -0.26580354585E+02  0.77013942356E+02  0.10203624593E+03  0.10000000000E+01 0.  0.
          4    1    1    2  501    0  0.68196920048E+02  0.64905401986E+02 -0.78965700881E+02  0.12288501099E+03  0.12700000000E+01 0.  1.
<mgrwt>
<rscale>  1 0.15649067E+03</rscale>
<asrwt>0</asrwt>
<pdfrwt beam="2">  1       21 0.25235309E-01 0.15649067E+03</pdfrwt>
<pdfrwt beam="1">  1        4 0.18304059E-01 0.15649067E+03</pdfrwt>
<totfact> 0.16310310E+04</totfact>
</mgrwt>
</event>
<event>
 6    4  0.6376098E-003  0.1286069E+03  0.7818608E-02  0.1229538E+00
         21   -1    0    0  501  502  0.00000000000E+00  0.00000000000E+00  0.69074165423E+01  0.69074165423E+01  0.00000000000E+00 0. -1.
          4   -1    0    0  502    0 -0.00000000000E+00 -0.00000000000E+00 -0.27522185994E+04  0.27522188924E+04  0.12700000000E+01 0. -1.
         25    2    1    2    0    0 -0.27437824683E+02 -0.12770241450E+02 -0.27080688568E+04  0.27111209235E+04  0.12499525952E+03 0.  0.
    9000005    1    3    3    0    0 -0.64460784059E+02 -0.43019041594E+02 -0.13624364659E+04  0.13646391296E+04  0.10000000000E+01 0.  0.
    9000005    1    3    3    0    0  0.37022959376E+02  0.30248800144E+02 -0.13456323910E+04  0.13464817938E+04  0.10000000000E+01 0.  0.
          4    1    1    2  501    0  0.27437824683E+02  0.12770241450E+02 -0.37242325991E+02  0.48005385481E+02  0.12700000000E+01 0.  1.
<mgrwt>
<rscale>  1 0.12860687E+03</rscale>
<asrwt>0</asrwt>
<pdfrwt beam="1">  1       21 0.10626798E-02 0.12860687E+03</pdfrwt>
<pdfrwt beam="2">  1        4 0.42342712E+00 0.12860687E+03</pdfrwt>
<totfact> 0.89741098E+02</totfact>
</mgrwt>
</event>
<event>
 6    4  0.6376098E-003  0.1271107E+03  0.7818608E-02  0.1231807E+00
         21   -1    0    0  501  502  0.00000000000E+00  0.00000000000E+00  0.24015406963E+02  0.24015406963E+02  0.00000000000E+00 0.  1.
         -4   -1    0    0    0  501 -0.00000000000E+00 -0.00000000000E+00 -0.23968469713E+03  0.23968806174E+03  0.12700000000E+01 0.  1.
         25    2    1    2    0    0  0.22931415014E+02 -0.23943731275E+01 -0.19465581731E+03  0.23248229385E+03  0.12500218768E+03 0.  0.
    9000005    1    3    3    0    0 -0.84679220784E+01  0.58188498417E+02 -0.86634335780E+02  0.10470967094E+03  0.10000000000E+01 0.  0.
    9000005    1    3    3    0    0  0.31399337093E+02 -0.60582871544E+02 -0.10802148153E+03  0.12777262291E+03  0.10000000000E+01 0.  0.
         -4    1    1    2    0  502 -0.22931415014E+02  0.23943731275E+01 -0.21013472863E+02  0.31221174850E+02  0.12700000000E+01 0. -1.
<mgrwt>
<rscale>  1 0.12711070E+03</rscale>
<asrwt>0</asrwt>
<pdfrwt beam="1">  1       21 0.36946782E-02 0.12711070E+03</pdfrwt>
<pdfrwt beam="2">  1       -4 0.36877409E-01 0.12711070E+03</pdfrwt>
<totfact> 0.12688871E+05</totfact>
</mgrwt>
</event>
<event>
 6    4  0.6376098E-003  0.1306976E+03  0.7818608E-02  0.1226424E+00
         21   -1    0    0  501  502  0.00000000000E+00  0.00000000000E+00  0.38926098042E+03  0.38926098042E+03  0.00000000000E+00 0.  1.
          4   -1    0    0  502    0 -0.00000000000E+00 -0.00000000000E+00 -0.30752886368E+02  0.30779098751E+02  0.12700000000E+01 0. -1.
         25    2    1    2    0    0  0.38136348613E+02  0.17218931143E+01  0.11664571391E+03  0.17518018081E+03  0.12499810867E+03 0.  0.
    9000005    1    3    3    0    0 -0.54835130170E+01  0.53890249481E+02  0.21636238335E+02  0.58338278286E+02  0.10000000000E+01 0.  0.
    9000005    1    3    3    0    0  0.43619861630E+02 -0.52168356366E+02  0.95009475578E+02  0.11684190252E+03  0.10000000000E+01 0.  0.
          4    1    1    2  501    0 -0.38136348613E+02 -0.17218931143E+01  0.24186238014E+03  0.24485989837E+03  0.12700000000E+01 0.  1.
<mgrwt>
<rscale>  1 0.13069764E+03</rscale>
<asrwt>0</asrwt>
<pdfrwt beam="1">  1       21 0.59886301E-01 0.13069764E+03</pdfrwt>
<pdfrwt beam="2">  1        4 0.47333893E-02 0.13069764E+03</pdfrwt>
<totfact> 0.27702834E+04</totfact>
</mgrwt>
</event>
<event>
 6    4  0.6376098E-003  0.1707824E+03  0.7818608E-02  0.1177034E+00
         -4   -1    0    0    0  501 -0.00000000000E+00  0.00000000000E+00  0.10673203395E+04  0.10673210950E+04  0.12700000000E+01 0.  1.
         21   -1    0    0  501  502  0.00000000000E+00 -0.00000000000E+00 -0.37608119961E+02  0.37608119961E+02  0.00000000000E+00 0. -1.
         25    2    1    2    0    0 -0.18023285987E+02  0.11495703003E+03  0.94671370414E+03  0.96199453047E+03  0.12500672567E+03 0.  0.
    9000005    1    3    3    0    0 -0.51773564795E+02  0.99964613550E+02  0.44853690537E+03  0.46244976101E+03  0.10000000000E+01 0.  0.
    9000005    1    3    3    0    0  0.33750278808E+02  0.14992416477E+02  0.49817679877E+03  0.49954476947E+03  0.10000000000E+01 0.  0.
         -4    1    1    2    0  502  0.18023285987E+02 -0.11495703003E+03  0.82998515358E+02  0.14293468453E+03  0.12700000000E+01 0. -1.
<mgrwt>
<rscale>  1 0.17078243E+03</rscale>
<asrwt>0</asrwt>
<pdfrwt beam="2">  1       21 0.57858654E-02 0.17078243E+03</pdfrwt>
<pdfrwt beam="1">  1       -4 0.16420481E+00 0.17078243E+03</pdfrwt>
<totfact> 0.22033117E+03</totfact>
</mgrwt>
</event>
<event>
 6    4  0.6376098E-003  0.1334515E+03  0.7818608E-02  0.1222422E+00
          4   -1    0    0  502    0 -0.00000000000E+00  0.00000000000E+00  0.12019818355E+04  0.12019825064E+04  0.12700000000E+01 0.  1.
         21   -1    0    0  501  502  0.00000000000E+00 -0.00000000000E+00 -0.14440615556E+02  0.14440615556E+02  0.00000000000E+00 0. -1.
         25    2    1    2    0    0  0.46170587136E+02 -0.73289591181E+01  0.11463847893E+04  0.11541262405E+04  0.12499542866E+03 0.  0.
    9000005    1    3    3    0    0 -0.36922063701E+02  0.17788019074E+02  0.54068552947E+03  0.54223748873E+03  0.10000000000E+01 0.  0.
    9000005    1    3    3    0    0  0.83092650837E+02 -0.25116978192E+02  0.60569925978E+03  0.61188875175E+03  0.10000000000E+01 0.  0.
          4    1    1    2  501    0 -0.46170587136E+02  0.73289591181E+01  0.41156430695E+02  0.62296881510E+02  0.12700000000E+01 0. -1.
<mgrwt>
<rscale>  1 0.13345147E+03</rscale>
<asrwt>0</asrwt>
<pdfrwt beam="2">  1       21 0.22216341E-02 0.13345147E+03</pdfrwt>
<pdfrwt beam="1">  1        4 0.18492455E+00 0.13345147E+03</pdfrwt>
<totfact> 0.77273550E+03</totfact>
</mgrwt>
</event>
<event>
 6    4  0.6376098E-003  0.1290023E+03  0.7818608E-02  0.1228944E+00
         21   -1    0    0  501  502  0.00000000000E+00  0.00000000000E+00  0.91988671964E+02  0.91988671964E+02  0.00000000000E+00 0.  1.
         -4   -1    0    0    0  501 -0.00000000000E+00 -0.00000000000E+00 -0.83457106533E+02  0.83466769022E+02  0.12700000000E+01 0. -1.
         25    2    1    2    0    0 -0.28306439004E+02  0.14949267273E+02 -0.22389282899E+02  0.13093076420E+03  0.12496739553E+03 0.  0.
    9000005    1    3    3    0    0  0.24957097317E+02  0.18116529387E+02  0.38907603174E+02  0.49657496194E+02  0.10000000000E+01 0.  0.
    9000005    1    3    3    0    0 -0.53263536321E+02 -0.31672621133E+01 -0.61296886073E+02  0.81273268010E+02  0.10000000000E+01 0.  0.
         -4    1    1    2    0  502  0.28306439004E+02 -0.14949267273E+02  0.30920848330E+02  0.44524676782E+02  0.12700000000E+01 0.  1.
<mgrwt>
<rscale>  1 0.12900227E+03</rscale>
<asrwt>0</asrwt>
<pdfrwt beam="1">  1       21 0.14152103E-01 0.12900227E+03</pdfrwt>
<pdfrwt beam="2">  1       -4 0.12840972E-01 0.12900227E+03</pdfrwt>
<totfact> 0.86391282E+04</totfact>
</mgrwt>
</event>
<event>
 6    4  0.6376098E-003  0.1284039E+03  0.7818608E-02  0.1229843E+00
          4   -1    0    0  502    0 -0.00000000000E+00  0.00000000000E+00  0.98765984788E+03  0.98766066440E+03  0.12700000000E+01 0. -1.
         21   -1    0    0  501  502  0.00000000000E+00 -0.00000000000E+00 -0.78533801178E+01  0.78533801178E+01  0.00000000000E+00 0. -1.
         25    2    1    2    0    0  0.73680390725E+01  0.28434173653E+02  0.55366114244E+03  0.56835571155E+03  0.12499905591E+03 0.  0.
    9000005    1    3    3    0    0 -0.28459581830E+02  0.56873760537E+02  0.45708900587E+03  0.46149315457E+03  0.10000000000E+01 0.  0.
    9000005    1    3    3    0    0  0.35827620902E+02 -0.28439586885E+02  0.96572136570E+02  0.10686255698E+03  0.10000000000E+01 0.  0.
          4    1    1    2  501    0 -0.73680390725E+01 -0.28434173653E+02  0.42614532532E+03  0.42715833297E+03  0.12700000000E+01 0.  1.
<mgrwt>
<rscale>  1 0.12840387E+03</rscale>
<asrwt>0</asrwt>
<pdfrwt beam="2">  1       21 0.12082131E-02 0.12840387E+03</pdfrwt>
<pdfrwt beam="1">  1        4 0.15195553E+00 0.12840387E+03</pdfrwt>
<totfact> 0.34360554E+04</totfact>
</mgrwt>
</event>
<event>
 6    4  0.6376098E-003  0.1409770E+03  0.7818608E-02  0.1212020E+00
          4   -1    0    0  502    0 -0.00000000000E+00  0.00000000000E+00  0.40500655153E+03  0.40500854273E+03  0.12700000000E+01 0. -1.
         21   -1    0    0  501  502  0.00000000000E+00 -0.00000000000E+00 -0.47064416579E+02  0.47064416579E+02  0.00000000000E+00 0.  1.
         25    2    1    2    0    0  0.80634719596E+01 -0.64680429377E+02  0.36023602348E+03  0.38683913105E+03  0.12500377264E+03 0.  0.
    9000005    1    3    3    0    0  0.15077757447E+02 -0.40122329031E+02  0.35867869944E+03  0.36123198846E+03  0.10000000000E+01 0.  0.
    9000005    1    3    3    0    0 -0.70142854871E+01 -0.24558100346E+02  0.15573240437E+01  0.25607142591E+02  0.10000000000E+01 0.  0.
          4    1    1    2  501    0 -0.80634719596E+01  0.64680429377E+02 -0.22938885286E+01  0.65233828257E+02  0.12700000000E+01 0.  1.
<mgrwt>
<rscale>  1 0.14097702E+03</rscale>
<asrwt>0</asrwt>
<pdfrwt beam="2">  1       21 0.72406797E-02 0.14097702E+03</pdfrwt>
<pdfrwt beam="1">  1        4 0.62310169E-01 0.14097702E+03</pdfrwt>
<totfact> 0.14305634E+04</totfact>
</mgrwt>
</event>
<event>
 6    4  0.6376098E-003  0.1279369E+03  0.7818608E-02  0.1230549E+00
          4   -1    0    0  502    0 -0.00000000000E+00  0.00000000000E+00  0.30964503368E+03  0.30964763810E+03  0.12700000000E+01 0.  1.
         21   -1    0    0  501  502  0.00000000000E+00 -0.00000000000E+00 -0.42218933961E+02  0.42218933961E+02  0.00000000000E+00 0.  1.
         25    2    1    2    0    0 -0.21579682582E+02 -0.17057954751E+02  0.28954239494E+03  0.31654802262E+03  0.12494477034E+03 0.  0.
    9000005    1    3    3    0    0 -0.45675213631E+02 -0.90775378321E+01  0.29212667575E+02  0.54981876834E+02  0.10000000000E+01 0.  0.
    9000005    1    3    3    0    0  0.24095531049E+02 -0.79804169184E+01  0.26032972736E+03  0.26156614578E+03  0.10000000000E+01 0.  0.
          4    1    1    2  501    0  0.21579682582E+02  0.17057954751E+02 -0.22116295221E+02  0.35318549445E+02  0.12700000000E+01 0. -1.
<mgrwt>
<rscale>  1 0.12793691E+03</rscale>
<asrwt>0</asrwt>
<pdfrwt beam="2">  1       21 0.64952208E-02 0.12793691E+03</pdfrwt>
<pdfrwt beam="1">  1        4 0.47639366E-01 0.12793691E+03</pdfrwt>
<totfact> 0.29690356E+04</totfact>
</mgrwt>
</event>
<event>
 6    4  0.6376098E-003  0.1286445E+03  0.7818608E-02  0.1229481E+00
         -4   -1    0    0    0  501 -0.00000000000E+00  0.00000000000E+00  0.33453576573E+02  0.33477674434E+02  0.12700000000E+01 0. -1.
         21   -1    0    0  501  502  0.00000000000E+00 -0.00000000000E+00 -0.24788570669E+03  0.24788570669E+03  0.00000000000E+00 0.  1.
         25    2    1    2    0    0  0.23233991479E+02  0.19610708023E+02 -0.99959367314E+02  0.16291497652E+03  0.12500006493E+03 0.  0.
    9000005    1    3    3    0    0  0.54989494227E+02 -0.29242536482E+02 -0.79840062038E+02  0.10126404061E+03  0.10000000000E+01 0.  0.
    9000005    1    3    3    0    0 -0.31755502748E+02  0.48853244505E+02 -0.20119305275E+02  0.61650935907E+02  0.10000000000E+01 0.  0.
         -4    1    1    2    0  502 -0.23233991479E+02 -0.19610708023E+02 -0.11447276281E+03  0.11844840461E+03  0.12700000000E+01 0.  1.
<mgrwt>
<rscale>  1 0.12864453E+03</rscale>
<asrwt>0</asrwt>
<pdfrwt beam="2">  1       21 0.38136263E-01 0.12864453E+03</pdfrwt>
<pdfrwt beam="1">  1       -4 0.51488080E-02 0.12864453E+03</pdfrwt>
<totfact> 0.60981970E+04</totfact>
</mgrwt>
</event>
<event>
 6    4  0.6376098E-003  0.1273926E+03  0.7818608E-02  0.1231377E+00
          4   -1    0    0  502    0 -0.00000000000E+00  0.00000000000E+00  0.14980926294E+03  0.14981464602E+03  0.12700000000E+01 0.  1.
         21   -1    0    0  501  502  0.00000000000E+00 -0.00000000000E+00 -0.75378944385E+02  0.75378944385E+02  0.00000000000E+00 0. -1.
         25    2    1    2    0    0 -0.21577854248E+02  0.11778029644E+02  0.11896863455E+03  0.17430547522E+03  0.12499814763E+03 0.  0.
    9000005    1    3    3    0    0 -0.34248471963E+02  0.32184584924E+02 -0.56882822351E+01  0.47351471924E+02  0.10000000000E+01 0.  0.
    9000005    1    3    3    0    0  0.12670617715E+02 -0.20406555280E+02  0.12465691678E+03  0.12695400330E+03  0.10000000000E+01 0.  0.
          4    1    1    2  501    0  0.21577854248E+02 -0.11778029644E+02 -0.44538315989E+02  0.50888115188E+02  0.12700000000E+01 0. -1.
<mgrwt>
<rscale>  1 0.12739255E+03</rscale>
<asrwt>0</asrwt>
<pdfrwt beam="2">  1       21 0.11596761E-01 0.12739255E+03</pdfrwt>
<pdfrwt beam="1">  1        4 0.23048816E-01 0.12739255E+03</pdfrwt>
<totfact> 0.43669985E+04</totfact>
</mgrwt>
</event>
<event>
 6    4  0.6376098E-003  0.1285611E+03  0.7818608E-02  0.1229607E+00
         21   -1    0    0  501  502  0.00000000000E+00  0.00000000000E+00  0.95041062792E+02  0.95041062792E+02  0.00000000000E+00 0.  1.
          4   -1    0    0  502    0 -0.00000000000E+00 -0.00000000000E+00 -0.14634979818E+03  0.14635530851E+03  0.12700000000E+01 0. -1.
         25    2    1    2    0    0 -0.17297728362E+02  0.24572823581E+02 -0.11402426803E+03  0.17184145774E+03  0.12499967134E+03 0.  0.
    9000005    1    3    3    0    0  0.39592923748E+02  0.45728677435E+02 -0.85579530868E+02  0.10480251741E+03  0.10000000000E+01 0.  0.
    9000005    1    3    3    0    0 -0.56890652110E+02 -0.21155853854E+02 -0.28444737161E+02  0.67038940340E+02  0.10000000000E+01 0.  0.
          4    1    1    2  501    0  0.17297728362E+02 -0.24572823581E+02  0.62715532639E+02  0.69554913553E+02  0.12700000000E+01 0.  1.
<mgrwt>
<rscale>  1 0.12856109E+03</rscale>
<asrwt>0</asrwt>
<pdfrwt beam="1">  1       21 0.14621702E-01 0.12856109E+03</pdfrwt>
<pdfrwt beam="2">  1        4 0.22516430E-01 0.12856109E+03</pdfrwt>
<totfact> 0.30181482E+04</totfact>
</mgrwt>
</event>
<event>
 6    4  0.6376098E-003  0.1269672E+03  0.7818608E-02  0.1232027E+00
         21   -1    0    0  501  502  0.00000000000E+00  0.00000000000E+00  0.13815648828E+03  0.13815648828E+03  0.00000000000E+00 0.  1.
          4   -1    0    0  502    0 -0.00000000000E+00 -0.00000000000E+00 -0.55185601758E+02  0.55200213237E+02  0.12700000000E+01 0.  1.
         25    2    1    2    0    0  0.21738839299E+02  0.48113070945E+01  0.22553354777E+02  0.12895470735E+03  0.12499974771E+03 0.  0.
    9000005    1    3    3    0    0  0.66878428356E+02  0.43453174083E+01 -0.16754225264E+02  0.69089145507E+02  0.10000000000E+01 0.  0.
    9000005    1    3    3    0    0 -0.45139589057E+02  0.46598968624E+00  0.39307580040E+02  0.59865561847E+02  0.10000000000E+01 0.  0.
          4    1    1    2  501    0 -0.21738839299E+02 -0.48113070945E+01  0.60417531745E+02  0.64401994163E+02  0.12700000000E+01 0. -1.
<mgrwt>
<rscale>  1 0.12696717E+03</rscale>
<asrwt>0</asrwt>
<pdfrwt beam="1">  1       21 0.21254844E-01 0.12696717E+03</pdfrwt>
<pdfrwt beam="2">  1        4 0.84916656E-02 0.12696717E+03</pdfrwt>
<totfact> 0.82514146E+04</totfact>
</mgrwt>
</event>
<event>
 6    4  0.6376098E-003  0.1279956E+03  0.7818608E-02  0.1230461E+00
          4   -1    0    0  502    0 -0.00000000000E+00  0.00000000000E+00  0.69896641985E+02  0.69908178784E+02  0.12700000000E+01 0.  1.
         21   -1    0    0  501  502  0.00000000000E+00 -0.00000000000E+00 -0.87692725374E+02  0.87692725374E+02  0.00000000000E+00 0.  1.
         25    2    1    2    0    0 -0.20708505520E+01 -0.27219964245E+02 -0.69026958728E+01  0.12818163042E+03  0.12505066290E+03 0.  0.
    9000005    1    3    3    0    0  0.34591481834E+02  0.39089918109E+02 -0.36642182724E+01  0.52335636126E+02  0.10000000000E+01 0.  0.
    9000005    1    3    3    0    0 -0.36662332386E+02 -0.66309882353E+02 -0.32384776004E+01  0.75845994297E+02  0.10000000000E+01 0.  0.
          4    1    1    2  501    0  0.20708505520E+01  0.27219964245E+02 -0.10893387516E+02  0.29419273735E+02  0.12700000000E+01 0. -1.
<mgrwt>
<rscale>  1 0.12799564E+03</rscale>
<asrwt>0</asrwt>
<pdfrwt beam="2">  1       21 0.13491189E-01 0.12799564E+03</pdfrwt>
<pdfrwt beam="1">  1        4 0.10754924E-01 0.12799564E+03</pdfrwt>
<totfact> 0.12720222E+05</totfact>
</mgrwt>
</event>
<event>
 6    4  0.6376098E-003  0.1306856E+03  0.7818608E-02  0.1226442E+00
         -4   -1    0    0    0  501 -0.00000000000E+00  0.00000000000E+00  0.39357119923E+03  0.39357324828E+03  0.12700000000E+01 0. -1.
         21   -1    0    0  501  502  0.00000000000E+00 -0.00000000000E+00 -0.18262692930E+02  0.18262692930E+02  0.00000000000E+00 0. -1.
         25    2    1    2    0    0  0.37801440539E+02  0.42864557260E+01  0.27277434139E+03  0.30246414191E+03  0.12502557022E+03 0.  0.
    9000005    1    3    3    0    0  0.83372956439E+02  0.10521358340E+02  0.16160121871E+03  0.18214747523E+03  0.10000000000E+01 0.  0.
    9000005    1    3    3    0    0 -0.45571515901E+02 -0.62349026140E+01  0.11117312269E+03  0.12031666668E+03  0.10000000000E+01 0.  0.
         -4    1    1    2    0  502 -0.37801440539E+02 -0.42864557260E+01  0.10253416490E+03  0.10937179930E+03  0.12700000000E+01 0.  1.
<mgrwt>
<rscale>  1 0.13068556E+03</rscale>
<asrwt>0</asrwt>
<pdfrwt beam="2">  1       21 0.28096454E-02 0.13068556E+03</pdfrwt>
<pdfrwt beam="1">  1       -4 0.60552963E-01 0.13068556E+03</pdfrwt>
<totfact> 0.73484750E+04</totfact>
</mgrwt>
</event>
<event>
 6    4  0.6376098E-003  0.1305565E+03  0.7818608E-02  0.1226632E+00
          4   -1    0    0  502    0 -0.00000000000E+00  0.00000000000E+00  0.55143908060E+02  0.55158530583E+02  0.12700000000E+01 0. -1.
         21   -1    0    0  501  502  0.00000000000E+00 -0.00000000000E+00 -0.19232411555E+03  0.19232411555E+03  0.00000000000E+00 0.  1.
         25    2    1    2    0    0  0.29847740178E+02 -0.22964040112E+02 -0.30121323381E+02  0.13398616029E+03  0.12500704898E+03 0.  0.
    9000005    1    3    3    0    0 -0.99075916152E+01  0.18829276515E+02 -0.63747026206E+02  0.67211497348E+02  0.10000000000E+01 0.  0.
    9000005    1    3    3    0    0  0.39755331793E+02 -0.41793316627E+02  0.33625702824E+02  0.66774662942E+02  0.10000000000E+01 0.  0.
          4    1    1    2  501    0 -0.29847740178E+02  0.22964040112E+02 -0.10705888411E+03  0.11349648584E+03  0.12700000000E+01 0.  1.
<mgrwt>
<rscale>  1 0.13055649E+03</rscale>
<asrwt>0</asrwt>
<pdfrwt beam="2">  1       21 0.29588325E-01 0.13055649E+03</pdfrwt>
<pdfrwt beam="1">  1        4 0.84851256E-02 0.13055649E+03</pdfrwt>
<totfact> 0.44350196E+04</totfact>
</mgrwt>
</event>
<event>
 6    4  0.6376098E-003  0.1273296E+03  0.7818608E-02  0.1231473E+00
          4   -1    0    0  502    0 -0.00000000000E+00  0.00000000000E+00  0.79726245249E+02  0.79736359846E+02  0.12700000000E+01 0.  1.
         21   -1    0    0  501  502  0.00000000000E+00 -0.00000000000E+00 -0.98024363846E+02  0.98024363846E+02  0.00000000000E+00 0.  1.
         25    2    1    2    0    0  0.60917682519E+00 -0.24235218894E+02  0.23446657696E+02  0.12947039154E+03  0.12500047839E+03 0.  0.
    9000005    1    3    3    0    0  0.16075966066E+02  0.43366276150E+02 -0.16878498872E+02  0.49243825159E+02  0.10000000000E+01 0.  0.
    9000005    1    3    3    0    0 -0.15466789241E+02 -0.67601495044E+02  0.40325156568E+02  0.80226566385E+02  0.10000000000E+01 0.  0.
          4    1    1    2  501    0 -0.60917682519E+00  0.24235218894E+02 -0.41744776293E+02  0.48290332149E+02  0.12700000000E+01 0. -1.
<mgrwt>
<rscale>  1 0.12732964E+03</rscale>
<asrwt>0</asrwt>
<pdfrwt beam="2">  1       21 0.15080671E-01 0.12732964E+03</pdfrwt>
<pdfrwt beam="1">  1        4 0.12266987E-01 0.12732964E+03</pdfrwt>
<totfact> 0.83198123E+04</totfact>
</mgrwt>
</event>
<event>
 6    4  0.6376098E-003  0.1272723E+03  0.7818608E-02  0.1231560E+00
         21   -1    0    0  501  502  0.00000000000E+00  0.00000000000E+00  0.23013774848E+03  0.23013774848E+03  0.00000000000E+00 0.  1.
         -4   -1    0    0    0  501 -0.00000000000E+00 -0.00000000000E+00 -0.70536285700E+02  0.70547717897E+02  0.12700000000E+01 0. -1.
         25    2    1    2    0    0  0.23446030188E+02  0.48540556797E+01 -0.11612355237E+02  0.12780093101E+03  0.12499981194E+03 0.  0.
    9000005    1    3    3    0    0 -0.50037704588E+02 -0.56352015820E+01  0.80562007846E+01  0.51004213045E+02  0.10000000000E+01 0.  0.
    9000005    1    3    3    0    0  0.73483734776E+02  0.10489257262E+02 -0.19668556022E+02  0.76796717967E+02  0.10000000000E+01 0.  0.
         -4    1    1    2    0  502 -0.23446030188E+02 -0.48540556797E+01  0.17121381801E+03  0.17288453536E+03  0.12700000000E+01 0.  1.
<mgrwt>
<rscale>  1 0.12727227E+03</rscale>
<asrwt>0</asrwt>
<pdfrwt beam="1">  1       21 0.35405807E-01 0.12727227E+03</pdfrwt>
<pdfrwt beam="2">  1       -4 0.10852885E-01 0.12727227E+03</pdfrwt>
<totfact> 0.20638598E+04</totfact>
</mgrwt>
</event>
<event>
 6    4  0.6376098E-003  0.2151142E+03  0.7818608E-02  0.1137579E+00
          4   -1    0    0  502    0 -0.00000000000E+00  0.00000000000E+00  0.80555903481E+03  0.80556003592E+03  0.12700000000E+01 0.  1.
         21   -1    0    0  501  502  0.00000000000E+00 -0.00000000000E+00 -0.13514567125E+03  0.13514567125E+03  0.00000000000E+00 0. -1.
         25    2    1    2    0    0 -0.45330173664E+02 -0.16909896384E+03  0.72585743739E+03  0.75706218717E+03  0.12499940645E+03 0.  0.
    9000005    1    3    3    0    0 -0.66776729378E+02 -0.16561673757E+03  0.70373391610E+03  0.72603750593E+03  0.10000000000E+01 0.  0.
    9000005    1    3    3    0    0  0.21446555713E+02 -0.34822262683E+01  0.22123521292E+02  0.31024681241E+02  0.10000000000E+01 0.  0.
          4    1    1    2  501    0  0.45330173664E+02  0.16909896384E+03 -0.55444073826E+02  0.18364352000E+03  0.12700000000E+01 0. -1.
<mgrwt>
<rscale>  1 0.21511424E+03</rscale>
<asrwt>0</asrwt>
<pdfrwt beam="2">  1       21 0.20791642E-01 0.21511424E+03</pdfrwt>
<pdfrwt beam="1">  1        4 0.12393269E+00 0.21511424E+03</pdfrwt>
<totfact> 0.46191983E+02</totfact>
</mgrwt>
</event>
<event>
 6    4  0.6376098E-003  0.1266964E+03  0.7818608E-02  0.1232442E+00
         21   -1    0    0  501  502  0.00000000000E+00  0.00000000000E+00  0.60339169666E+02  0.60339169666E+02  0.00000000000E+00 0. -1.
         -4   -1    0    0    0  501 -0.00000000000E+00 -0.00000000000E+00 -0.18507468253E+03  0.18507903991E+03  0.12700000000E+01 0.  1.
         25    2    1    2    0    0 -0.85214323267E+01 -0.18814970221E+02 -0.16026841967E+03  0.20429864879E+03  0.12500141457E+03 0.  0.
    9000005    1    3    3    0    0 -0.36642447299E+02  0.44337497875E+02 -0.70559630641E+02  0.91039245043E+02  0.10000000000E+01 0.  0.
    9000005    1    3    3    0    0  0.28121014972E+02 -0.63152468096E+02 -0.89708789026E+02  0.11325940375E+03  0.10000000000E+01 0.  0.
         -4    1    1    2    0  502  0.85214323267E+01  0.18814970221E+02  0.35532906800E+02  0.41119560783E+02  0.12700000000E+01 0. -1.
<mgrwt>
<rscale>  1 0.12669638E+03</rscale>
<asrwt>0</asrwt>
<pdfrwt beam="1">  1       21 0.92829491E-02 0.12669638E+03</pdfrwt>
<pdfrwt beam="2">  1       -4 0.28474391E-01 0.12669638E+03</pdfrwt>
<totfact> 0.43604979E+04</totfact>
</mgrwt>
</event>
<event>
 6    4  0.6376098E-003  0.1277807E+03  0.7818608E-02  0.1230786E+00
          4   -1    0    0  502    0 -0.00000000000E+00  0.00000000000E+00  0.23145092403E+02  0.23179909455E+02  0.12700000000E+01 0. -1.
         21   -1    0    0  501  502  0.00000000000E+00 -0.00000000000E+00 -0.60166583680E+03  0.60166583680E+03  0.00000000000E+00 0.  1.
         25    2    1    2    0    0  0.18111172611E+02 -0.19368941639E+02 -0.15672027830E+03  0.20221065948E+03  0.12499893881E+03 0.  0.
    9000005    1    3    3    0    0  0.23313475698E+02 -0.69192907971E+02 -0.11850207198E+03  0.13919381354E+03  0.10000000000E+01 0.  0.
    9000005    1    3    3    0    0 -0.52023030867E+01  0.49823966332E+02 -0.38218206314E+02  0.63016845941E+02  0.10000000000E+01 0.  0.
          4    1    1    2  501    0 -0.18111172611E+02  0.19368941639E+02 -0.42180046610E+03  0.42263508678E+03  0.12700000000E+01 0.  1.
<mgrwt>
<rscale>  1 0.12778069E+03</rscale>
<asrwt>0</asrwt>
<pdfrwt beam="2">  1       21 0.92563955E-01 0.12778069E+03</pdfrwt>
<pdfrwt beam="1">  1        4 0.35635656E-02 0.12778069E+03</pdfrwt>
<totfact> 0.16604085E+04</totfact>
</mgrwt>
</event>
<event>
 6    4  0.6376098E-003  0.1471659E+03  0.7818608E-02  0.1203999E+00
         21   -1    0    0  501  502  0.00000000000E+00  0.00000000000E+00  0.17405572373E+03  0.17405572373E+03  0.00000000000E+00 0. -1.
          4   -1    0    0  502    0 -0.00000000000E+00 -0.00000000000E+00 -0.85301405607E+02  0.85310859207E+02  0.12700000000E+01 0.  1.
         25    2    1    2    0    0  0.77298451926E+02 -0.75074579454E+01  0.80937997071E+01  0.14738826036E+03  0.12500550830E+03 0.  0.
    9000005    1    3    3    0    0 -0.53823807982E+01  0.45682042807E+02 -0.10830518377E+02  0.47266470001E+02  0.10000000000E+01 0.  0.
    9000005    1    3    3    0    0  0.82680832725E+02 -0.53189500752E+02  0.18924318084E+02  0.10012179036E+03  0.10000000000E+01 0.  0.
          4    1    1    2  501    0 -0.77298451926E+02  0.75074579454E+01  0.80660518411E+02  0.11197832257E+03  0.12700000000E+01 0. -1.
<mgrwt>
<rscale>  1 0.14716586E+03</rscale>
<asrwt>0</asrwt>
<pdfrwt beam="1">  1       21 0.26777804E-01 0.14716586E+03</pdfrwt>
<pdfrwt beam="2">  1        4 0.13124377E-01 0.14716586E+03</pdfrwt>
<totfact> 0.25979812E+04</totfact>
</mgrwt>
</event>
<event>
 6    4  0.6376098E-003  0.1277414E+03  0.7818608E-02  0.1230846E+00
          4   -1    0    0  502    0 -0.00000000000E+00  0.00000000000E+00  0.11676020723E+03  0.11676711391E+03  0.12700000000E+01 0.  1.
         21   -1    0    0  501  502  0.00000000000E+00 -0.00000000000E+00 -0.64814844503E+02  0.64814844503E+02  0.00000000000E+00 0.  1.
         25    2    1    2    0    0 -0.12012742450E+02  0.23440236044E+02  0.73629080097E+02  0.14744184790E+03  0.12499642567E+03 0.  0.
    9000005    1    3    3    0    0 -0.85582940599E+00  0.20364669811E+02 -0.33747981524E+02  0.39438286948E+02  0.10000000000E+01 0.  0.
    9000005    1    3    3    0    0 -0.11156913044E+02  0.30755662331E+01  0.10737706162E+03  0.10800356095E+03  0.10000000000E+01 0.  0.
          4    1    1    2  501    0  0.12012742450E+02 -0.23440236044E+02 -0.21683717372E+02  0.34140110515E+02  0.12700000000E+01 0. -1.
<mgrwt>
<rscale>  1 0.12774137E+03</rscale>
<asrwt>0</asrwt>
<pdfrwt beam="2">  1       21 0.99715146E-02 0.12774137E+03</pdfrwt>
<pdfrwt beam="1">  1        4 0.17964597E-01 0.12774137E+03</pdfrwt>
<totfact> 0.89215110E+04</totfact>
</mgrwt>
</event>
<event>
 6    4  0.6376098E-003  0.1315354E+03  0.7818608E-02  0.1225195E+00
         -4   -1    0    0    0  501 -0.00000000000E+00  0.00000000000E+00  0.12384803306E+02  0.12449749112E+02  0.12700000000E+01 0. -1.
         21   -1    0    0  501  502  0.00000000000E+00 -0.00000000000E+00 -0.59917326014E+03  0.59917326014E+03  0.00000000000E+00 0. -1.
         25    2    1    2    0    0  0.80850693302E+01  0.40143376571E+02 -0.45049966563E+03  0.46930959971E+03  0.12499877046E+03 0.  0.
    9000005    1    3    3    0    0 -0.29465430547E+02 -0.36058977265E+02 -0.15940026461E+03  0.16606596821E+03  0.10000000000E+01 0.  0.
    9000005    1    3    3    0    0  0.37550499877E+02  0.76202353836E+02 -0.29109940102E+03  0.30324363150E+03  0.10000000000E+01 0.  0.
         -4    1    1    2    0  502 -0.80850693302E+01 -0.40143376571E+02 -0.13628879121E+03  0.14231340955E+03  0.12700000000E+01 0.  1.
<mgrwt>
<rscale>  1 0.13153536E+03</rscale>
<asrwt>0</asrwt>
<pdfrwt beam="2">  1       21 0.92180501E-01 0.13153536E+03</pdfrwt>
<pdfrwt beam="1">  1       -4 0.19104537E-02 0.13153536E+03</pdfrwt>
<totfact> 0.44332179E+04</totfact>
</mgrwt>
</event>
<event>
 6    4  0.6376098E-003  0.1461367E+03  0.7818608E-02  0.1205302E+00
         -4   -1    0    0    0  501 -0.00000000000E+00  0.00000000000E+00  0.61885667227E+02  0.61898697144E+02  0.12700000000E+01 0.  1.
         21   -1    0    0  501  502  0.00000000000E+00 -0.00000000000E+00 -0.81291294474E+03  0.81291294474E+03  0.00000000000E+00 0. -1.
         25    2    1    2    0    0 -0.17608587030E+02  0.73637639367E+02 -0.29202760862E+02  0.14902599170E+03  0.12499352260E+03 0.  0.
    9000005    1    3    3    0    0  0.31341028455E+02  0.73001884873E+02 -0.52061417111E+02  0.94989085748E+02  0.10000000000E+01 0.  0.
    9000005    1    3    3    0    0 -0.48949615485E+02  0.63575449372E+00  0.22858656248E+02  0.54036905957E+02  0.10000000000E+01 0.  0.
         -4    1    1    2    0  502  0.17608587030E+02 -0.73637639367E+02 -0.72182451665E+03  0.72578565018E+03  0.12700000000E+01 0. -1.
<mgrwt>
<rscale>  1 0.14613673E+03</rscale>
<asrwt>0</asrwt>
<pdfrwt beam="2">  1       21 0.12506354E+00 0.14613673E+03</pdfrwt>
<pdfrwt beam="1">  1       -4 0.95219499E-02 0.14613673E+03</pdfrwt>
<totfact> 0.16507907E+03</totfact>
</mgrwt>
</event>
<event>
 6    4  0.6376098E-003  0.1311010E+03  0.7818608E-02  0.1225831E+00
         -4   -1    0    0    0  501 -0.00000000000E+00  0.00000000000E+00  0.13745446994E+02  0.13803992650E+02  0.12700000000E+01 0.  1.
         21   -1    0    0  501  502  0.00000000000E+00 -0.00000000000E+00 -0.67780539015E+03  0.67780539015E+03  0.00000000000E+00 0.  1.
         25    2    1    2    0    0  0.11183323306E+02 -0.37875251570E+02 -0.32792992252E+03  0.35316499287E+03  0.12501150629E+03 0.  0.
    9000005    1    3    3    0    0  0.48401471625E+02  0.24192565821E+02 -0.96004537938E+02  0.11020823019E+03  0.10000000000E+01 0.  0.
    9000005    1    3    3    0    0 -0.37218148318E+02 -0.62067817391E+02 -0.23192538458E+03  0.24295676269E+03  0.10000000000E+01 0.  0.
         -4    1    1    2    0  502 -0.11183323306E+02  0.37875251570E+02 -0.33613002063E+03  0.33844438993E+03  0.12700000000E+01 0. -1.
<mgrwt>
<rscale>  1 0.13110102E+03</rscale>
<asrwt>0</asrwt>
<pdfrwt beam="2">  1       21 0.10427773E+00 0.13110102E+03</pdfrwt>
<pdfrwt beam="1">  1       -4 0.21192797E-02 0.13110102E+03</pdfrwt>
<totfact> 0.28333573E+04</totfact>
</mgrwt>
</event>
<event>
 6    4  0.6376098E-003  0.1270605E+03  0.7818608E-02  0.1231884E+00
          4   -1    0    0  502    0 -0.00000000000E+00  0.00000000000E+00  0.12149210123E+03  0.12149873893E+03  0.12700000000E+01 0.  1.
         21   -1    0    0  501  502  0.00000000000E+00 -0.00000000000E+00 -0.55909303518E+02  0.55909303518E+02  0.00000000000E+00 0.  1.
         25    2    1    2    0    0 -0.19168005440E+02  0.12363416247E+02  0.80230477492E+02  0.15027072650E+03  0.12499638087E+03 0.  0.
    9000005    1    3    3    0    0 -0.28817562351E+02 -0.49553581663E+02  0.13855518331E+02  0.58982919084E+02  0.10000000000E+01 0.  0.
    9000005    1    3    3    0    0  0.96495569108E+01  0.61916997910E+02  0.66374959161E+02  0.91287807413E+02  0.10000000000E+01 0.  0.
          4    1    1    2  501    0  0.19168005440E+02 -0.12363416247E+02 -0.14647679781E+02  0.27137315947E+02  0.12700000000E+01 0. -1.
<mgrwt>
<rscale>  1 0.12706046E+03</rscale>
<asrwt>0</asrwt>
<pdfrwt beam="2">  1       21 0.86014314E-02 0.12706046E+03</pdfrwt>
<pdfrwt beam="1">  1        4 0.18692713E-01 0.12706046E+03</pdfrwt>
<totfact> 0.10742183E+05</totfact>
</mgrwt>
</event>
<event>
 6    4  0.6376098E-003  0.1288726E+03  0.7818608E-02  0.1229138E+00
         -4   -1    0    0    0  501 -0.00000000000E+00  0.00000000000E+00  0.33553683322E+03  0.33553923667E+03  0.12700000000E+01 0.  1.
         21   -1    0    0  501  502  0.00000000000E+00 -0.00000000000E+00 -0.31713745367E+02  0.31713745367E+02  0.00000000000E+00 0. -1.
         25    2    1    2    0    0 -0.24980399426E+02  0.18992048385E+02  0.30957207096E+03  0.33532522039E+03  0.12499367204E+03 0.  0.
    9000005    1    3    3    0    0 -0.25998275129E+02  0.50125454256E+02  0.54930318507E+02  0.78783319081E+02  0.10000000000E+01 0.  0.
    9000005    1    3    3    0    0  0.10178757035E+01 -0.31133405871E+02  0.25464175245E+03  0.25654190131E+03  0.10000000000E+01 0.  0.
         -4    1    1    2    0  502  0.24980399426E+02 -0.18992048385E+02 -0.57489831111E+01  0.31927761653E+02  0.12700000000E+01 0. -1.
<mgrwt>
<rscale>  1 0.12887256E+03</rscale>
<asrwt>0</asrwt>
<pdfrwt beam="2">  1       21 0.48790380E-02 0.12887256E+03</pdfrwt>
<pdfrwt beam="1">  1       -4 0.51623190E-01 0.12887256E+03</pdfrwt>
<totfact> 0.40936616E+04</totfact>
</mgrwt>
</event>
<event>
 6    4  0.6376098E-003  0.1336952E+03  0.7818608E-02  0.1222073E+00
         -4   -1    0    0    0  501 -0.00000000000E+00  0.00000000000E+00  0.24142744565E+04  0.24142747905E+04  0.12700000000E+01 0. -1.
         21   -1    0    0  501  502  0.00000000000E+00 -0.00000000000E+00 -0.20456637480E+02  0.20456637480E+02  0.00000000000E+00 0.  1.
         25    2    1    2    0    0 -0.46690135933E+02  0.82377179868E+01  0.23821371527E+04  0.23858859609E+04  0.12500630095E+03 0.  0.
    9000005    1    3    3    0    0 -0.47666992986E+02  0.19706521260E+02  0.23627786671E+04  0.23633418117E+04  0.10000000000E+01 0.  0.
    9000005    1    3    3    0    0  0.97685705351E+00 -0.11468803273E+02  0.19358485643E+02  0.22544149232E+02  0.10000000000E+01 0.  0.
         -4    1    1    2    0  502  0.46690135933E+02 -0.82377179868E+01  0.11680666287E+02  0.48845467097E+02  0.12700000000E+01 0.  1.
<mgrwt>
<rscale>  1 0.13369519E+03</rscale>
<asrwt>0</asrwt>
<pdfrwt beam="2">  1       21 0.31471769E-02 0.13369519E+03</pdfrwt>
<pdfrwt beam="1">  1       -4 0.37142967E+00 0.13369519E+03</pdfrwt>
<totfact> 0.34154655E+02</totfact>
</mgrwt>
</event>
<event>
 6    4  0.6376098E-003  0.1271872E+03  0.7818608E-02  0.1231690E+00
          4   -1    0    0  502    0 -0.00000000000E+00  0.00000000000E+00  0.24477029667E+02  0.24509954740E+02  0.12700000000E+01 0. -1.
         21   -1    0    0  501  502  0.00000000000E+00 -0.00000000000E+00 -0.32274816061E+03  0.32274816061E+03  0.00000000000E+00 0.  1.
         25    2    1    2    0    0  0.23405029799E+02 -0.19574131245E+01 -0.14793533559E+03  0.19509343104E+03  0.12499982574E+03 0.  0.
    9000005    1    3    3    0    0 -0.69178733906E+01  0.27680004944E+02  0.11001181252E+02  0.30595189734E+02  0.10000000000E+01 0.  0.
    9000005    1    3    3    0    0  0.30322903189E+02 -0.29637418068E+02 -0.15893651684E+03  0.16449824131E+03  0.10000000000E+01 0.  0.
          4    1    1    2  501    0 -0.23405029799E+02  0.19574131245E+01 -0.15033579535E+03  0.15216468431E+03  0.12700000000E+01 0.  1.
<mgrwt>
<rscale>  1 0.12718720E+03</rscale>
<asrwt>0</asrwt>
<pdfrwt beam="2">  1       21 0.49653563E-01 0.12718720E+03</pdfrwt>
<pdfrwt beam="1">  1        4 0.37684218E-02 0.12718720E+03</pdfrwt>
<totfact> 0.58746948E+04</totfact>
</mgrwt>
</event>
<event>
 6    4  0.6376098E-003  0.1269704E+03  0.7818608E-02  0.1232022E+00
          4   -1    0    0  502    0 -0.00000000000E+00  0.00000000000E+00  0.38277299463E+03  0.38277510148E+03  0.12700000000E+01 0.  1.
         21   -1    0    0  501  502  0.00000000000E+00 -0.00000000000E+00 -0.60760660741E+02  0.60760660741E+02  0.00000000000E+00 0. -1.
         25    2    1    2    0    0 -0.21127744275E+02  0.71924476094E+01  0.36968523182E+03  0.39088188318E+03  0.12499345221E+03 0.  0.
    9000005    1    3    3    0    0 -0.71776136022E+02  0.19737652161E+02  0.23112172139E+03  0.24281605942E+03  0.10000000000E+01 0.  0.
    9000005    1    3    3    0    0  0.50648391747E+02 -0.12545204552E+02  0.13856351043E+03  0.14806582376E+03  0.10000000000E+01 0.  0.
          4    1    1    2  501    0  0.21127744275E+02 -0.71924476094E+01 -0.47672897933E+02  0.52653879041E+02  0.12700000000E+01 0. -1.
<mgrwt>
<rscale>  1 0.12697037E+03</rscale>
<asrwt>0</asrwt>
<pdfrwt beam="2">  1       21 0.93477942E-02 0.12697037E+03</pdfrwt>
<pdfrwt beam="1">  1        4 0.58889335E-01 0.12697037E+03</pdfrwt>
<totfact> 0.10256921E+04</totfact>
</mgrwt>
</event>
<event>
 6    4  0.6376098E-003  0.1315316E+03  0.7818608E-02  0.1225201E+00
          4   -1    0    0  502    0 -0.00000000000E+00  0.00000000000E+00  0.35558361507E+02  0.35581033895E+02  0.12700000000E+01 0. -1.
         21   -1    0    0  501  502  0.00000000000E+00 -0.00000000000E+00 -0.28588929072E+03  0.28588929072E+03  0.00000000000E+00 0.  1.
         25    2    1    2    0    0 -0.21589030382E+02 -0.34772255942E+02 -0.98803630906E+02  0.16450749128E+03  0.12500144476E+03 0.  0.
    9000005    1    3    3    0    0 -0.87017465821E+01 -0.44787200675E+02 -0.12531109925E+03  0.13336223354E+03  0.10000000000E+01 0.  0.
    9000005    1    3    3    0    0 -0.12887283800E+02  0.10014944733E+02  0.26507468347E+02  0.31145257744E+02  0.10000000000E+01 0.  0.
          4    1    1    2  501    0  0.21589030382E+02  0.34772255942E+02 -0.15152729831E+03  0.15696283333E+03  0.12700000000E+01 0.  1.
<mgrwt>
<rscale>  1 0.13153158E+03</rscale>
<asrwt>0</asrwt>
<pdfrwt beam="2">  1       21 0.43982968E-01 0.13153158E+03</pdfrwt>
<pdfrwt beam="1">  1        4 0.54724781E-02 0.13153158E+03</pdfrwt>
<totfact> 0.41624668E+04</totfact>
</mgrwt>
</event>
<event>
 6    4  0.6376098E-003  0.1281968E+03  0.7818608E-02  0.1230156E+00
         21   -1    0    0  501  502  0.00000000000E+00  0.00000000000E+00  0.46063763351E+03  0.46063763351E+03  0.00000000000E+00 0. -1.
          4   -1    0    0  502    0 -0.00000000000E+00 -0.00000000000E+00 -0.17340744453E+02  0.17387188335E+02  0.12700000000E+01 0. -1.
         25    2    1    2    0    0 -0.83861949343E+01 -0.27198989426E+02  0.23415525160E+03  0.26695149168E+03  0.12499721503E+03 0.  0.
    9000005    1    3    3    0    0 -0.61040521964E+02 -0.27068362775E+02  0.80911733091E+02  0.10491115354E+03  0.10000000000E+01 0.  0.
    9000005    1    3    3    0    0  0.52654327030E+02 -0.13062665127E+00  0.15324351851E+03  0.16204033814E+03  0.10000000000E+01 0.  0.
          4    1    1    2  501    0  0.83861949343E+01  0.27198989426E+02  0.20914163745E+03  0.21107333017E+03  0.12700000000E+01 0.  1.
<mgrwt>
<rscale>  1 0.12819679E+03</rscale>
<asrwt>0</asrwt>
<pdfrwt beam="1">  1       21 0.70867319E-01 0.12819679E+03</pdfrwt>
<pdfrwt beam="2">  1        4 0.26715145E-02 0.12819679E+03</pdfrwt>
<totfact> 0.47445471E+04</totfact>
</mgrwt>
</event>
<event>
 6    4  0.6376098E-003  0.1271179E+03  0.7818608E-02  0.1231796E+00
          4   -1    0    0  502    0 -0.00000000000E+00  0.00000000000E+00  0.37558545701E+02  0.37580011378E+02  0.12700000000E+01 0.  1.
         21   -1    0    0  501  502  0.00000000000E+00 -0.00000000000E+00 -0.16339152672E+03  0.16339152672E+03  0.00000000000E+00 0.  1.
         25    2    1    2    0    0 -0.14853794014E+02 -0.17694470439E+02 -0.81606107818E+02  0.15105802596E+03  0.12500096357E+03 0.  0.
    9000005    1    3    3    0    0  0.31680595821E+02 -0.38514165306E+02 -0.86482592950E+02  0.99836065448E+02  0.10000000000E+01 0.  0.
    9000005    1    3    3    0    0 -0.46534389835E+02  0.20819694867E+02  0.48764851318E+01  0.51221960514E+02  0.10000000000E+01 0.  0.
          4    1    1    2  501    0  0.14853794014E+02  0.17694470439E+02 -0.44226873204E+02  0.49913512140E+02  0.12700000000E+01 0. -1.
<mgrwt>
<rscale>  1 0.12711794E+03</rscale>
<asrwt>0</asrwt>
<pdfrwt beam="2">  1       21 0.25137158E-01 0.12711794E+03</pdfrwt>
<pdfrwt beam="1">  1        4 0.57802686E-02 0.12711794E+03</pdfrwt>
<totfact> 0.11322583E+05</totfact>
</mgrwt>
</event>
<event>
 6    4  0.6376098E-003  0.1303790E+03  0.7818608E-02  0.1226894E+00
         -4   -1    0    0    0  501 -0.00000000000E+00  0.00000000000E+00  0.92600215001E+03  0.92600302090E+03  0.12700000000E+01 0. -1.
         21   -1    0    0  501  502  0.00000000000E+00 -0.00000000000E+00 -0.36001320164E+02  0.36001320164E+02  0.00000000000E+00 0.  1.
         25    2    1    2    0    0 -0.64565763718E+01 -0.36486940481E+02  0.91039928839E+03  0.91968774603E+03  0.12500280676E+03 0.  0.
    9000005    1    3    3    0    0  0.27421612657E+02 -0.20824488295E+02  0.83342010611E+03  0.83413169070E+03  0.10000000000E+01 0.  0.
    9000005    1    3    3    0    0 -0.33878189029E+02 -0.15662452187E+02  0.76979182279E+02  0.85556055336E+02  0.10000000000E+01 0.  0.
         -4    1    1    2    0  502  0.64565763718E+01  0.36486940481E+02 -0.20398458547E+02  0.42316595033E+02  0.12700000000E+01 0.  1.
<mgrwt>
<rscale>  1 0.13037901E+03</rscale>
<asrwt>0</asrwt>
<pdfrwt beam="2">  1       21 0.55386653E-02 0.13037901E+03</pdfrwt>
<pdfrwt beam="1">  1       -4 0.14246364E+00 0.13037901E+03</pdfrwt>
<totfact> 0.33740782E+03</totfact>
</mgrwt>
</event>
<event>
 6    4  0.6376098E-003  0.1351520E+03  0.7818608E-02  0.1220005E+00
          4   -1    0    0  502    0 -0.00000000000E+00  0.00000000000E+00  0.17626916557E+04  0.17626921132E+04  0.12700000000E+01 0.  1.
         21   -1    0    0  501  502  0.00000000000E+00 -0.00000000000E+00 -0.18612641820E+02  0.18612641820E+02  0.00000000000E+00 0. -1.
         25    2    1    2    0    0  0.51518694336E+01  0.51171873296E+02  0.17185797968E+04  0.17238858962E+04  0.12498385002E+03 0.  0.
    9000005    1    3    3    0    0 -0.13504746538E+02  0.79888242957E+02  0.15349770347E+04  0.15371141813E+04  0.10000000000E+01 0.  0.
    9000005    1    3    3    0    0  0.18656615972E+02 -0.28716369661E+02  0.18360276218E+03  0.18677171490E+03  0.10000000000E+01 0.  0.
          4    1    1    2  501    0 -0.51518694336E+01 -0.51171873296E+02  0.25499217041E+02  0.57418858792E+02  0.12700000000E+01 0. -1.
<mgrwt>
<rscale>  1 0.13515201E+03</rscale>
<asrwt>0</asrwt>
<pdfrwt beam="2">  1       21 0.28634848E-02 0.13515201E+03</pdfrwt>
<pdfrwt beam="1">  1        4 0.27118657E+00 0.13515201E+03</pdfrwt>
<totfact> 0.15649466E+03</totfact>
</mgrwt>
</event>
<event>
 6    4  0.6376098E-003  0.1270915E+03  0.7818608E-02  0.1231836E+00
         21   -1    0    0  501  502  0.00000000000E+00  0.00000000000E+00  0.50419877405E+02  0.50419877405E+02  0.00000000000E+00 0.  1.
          4   -1    0    0  502    0 -0.00000000000E+00 -0.00000000000E+00 -0.13556763093E+03  0.13557357949E+03  0.12700000000E+01 0.  1.
         25    2    1    2    0    0 -0.21619023200E+02 -0.77323603945E+01 -0.97228831487E+02  0.16001775852E+03  0.12500026323E+03 0.  0.
    9000005    1    3    3    0    0  0.38663785901E+02  0.24499725104E+02 -0.62396235326E+01  0.46206685363E+02  0.10000000000E+01 0.  0.
    9000005    1    3    3    0    0 -0.60282809101E+02 -0.32232085498E+02 -0.90989207954E+02  0.11381107316E+03  0.10000000000E+01 0.  0.
          4    1    1    2  501    0  0.21619023200E+02  0.77323603945E+01  0.12081077963E+02  0.25975698376E+02  0.12700000000E+01 0. -1.
<mgrwt>
<rscale>  1 0.12709145E+03</rscale>
<asrwt>0</asrwt>
<pdfrwt beam="1">  1       21 0.77569042E-02 0.12709145E+03</pdfrwt>
<pdfrwt beam="2">  1        4 0.20858247E-01 0.12709145E+03</pdfrwt>
<totfact> 0.10547501E+05</totfact>
</mgrwt>
</event>
<event>
 6    4  0.6376098E-003  0.1277614E+03  0.7818608E-02  0.1230816E+00
         21   -1    0    0  501  502  0.00000000000E+00  0.00000000000E+00  0.89782456213E+01  0.89782456213E+01  0.00000000000E+00 0.  1.
         -4   -1    0    0    0  501 -0.00000000000E+00 -0.00000000000E+00 -0.66448110817E+03  0.66448232182E+03  0.12700000000E+01 0.  1.
         25    2    1    2    0    0 -0.72741877303E+01 -0.25395942507E+02 -0.52717264487E+03  0.54243337419E+03  0.12500040092E+03 0.  0.
    9000005    1    3    3    0    0  0.10036609362E+02  0.68325439507E+01 -0.49040607069E+03  0.49055736806E+03  0.10000000000E+01 0.  0.
    9000005    1    3    3    0    0 -0.17310797092E+02 -0.32228486458E+02 -0.36766574180E+02  0.51876006133E+02  0.10000000000E+01 0.  0.
         -4    1    1    2    0  502  0.72741877303E+01  0.25395942507E+02 -0.12833021768E+03  0.13102719326E+03  0.12700000000E+01 0. -1.
<mgrwt>
<rscale>  1 0.12776137E+03</rscale>
<asrwt>0</asrwt>
<pdfrwt beam="1">  1       21 0.13812685E-02 0.12776137E+03</pdfrwt>
<pdfrwt beam="2">  1       -4 0.10223487E+00 0.12776137E+03</pdfrwt>
<totfact> 0.72593807E+04</totfact>
</mgrwt>
</event>
<event>
 6    4  0.6376098E-003  0.1433155E+03  0.7818608E-02  0.1208936E+00
          4   -1    0    0  502    0 -0.00000000000E+00  0.00000000000E+00  0.20952007033E+02  0.20990462089E+02  0.12700000000E+01 0.  1.
         21   -1    0    0  501  502  0.00000000000E+00 -0.00000000000E+00 -0.54785145702E+03  0.54785145702E+03  0.00000000000E+00 0. -1.
         25    2    1    2    0    0 -0.57171315334E+02 -0.40576692261E+02 -0.32794315580E+03  0.35789110222E+03  0.12499720140E+03 0.  0.
    9000005    1    3    3    0    0 -0.76486430402E+02 -0.17422763249E+02 -0.95929315617E+02  0.12392401022E+03  0.10000000000E+01 0.  0.
    9000005    1    3    3    0    0  0.19315115068E+02 -0.23153929012E+02 -0.23201384019E+03  0.23396709199E+03  0.10000000000E+01 0.  0.
          4    1    1    2  501    0  0.57171315334E+02  0.40576692261E+02 -0.19895629418E+03  0.21095081689E+03  0.12700000000E+01 0. -1.
<mgrwt>
<rscale>  1 0.14331548E+03</rscale>
<asrwt>0</asrwt>
<pdfrwt beam="2">  1       21 0.84284839E-01 0.14331548E+03</pdfrwt>
<pdfrwt beam="1">  1        4 0.32264570E-02 0.14331548E+03</pdfrwt>
<totfact> 0.24261606E+04</totfact>
</mgrwt>
</event>
<event>
 6    4  0.6376098E-003  0.1573459E+03  0.7818608E-02  0.1191726E+00
         -4   -1    0    0    0  501 -0.00000000000E+00  0.00000000000E+00  0.76227373618E+03  0.76227479413E+03  0.12700000000E+01 0.  1.
         21   -1    0    0  501  502  0.00000000000E+00 -0.00000000000E+00 -0.62705310394E+02  0.62705310394E+02  0.00000000000E+00 0. -1.
         25    2    1    2    0    0 -0.20540899167E+02 -0.93328392041E+02  0.71147913331E+03  0.72867021327E+03  0.12500242104E+03 0.  0.
    9000005    1    3    3    0    0  0.50658811675E+02 -0.31727145619E+02  0.20610645240E+03  0.21460148343E+03  0.10000000000E+01 0.  0.
    9000005    1    3    3    0    0 -0.71199710841E+02 -0.61601246422E+02  0.50537268092E+03  0.51406872984E+03  0.10000000000E+01 0.  0.
         -4    1    1    2    0  502  0.20540899167E+02  0.93328392041E+02 -0.11910707532E+02  0.96309891254E+02  0.12700000000E+01 0. -1.
<mgrwt>
<rscale>  1 0.15734587E+03</rscale>
<asrwt>0</asrwt>
<pdfrwt beam="2">  1       21 0.96469714E-02 0.15734587E+03</pdfrwt>
<pdfrwt beam="1">  1       -4 0.11727395E+00 0.15734587E+03</pdfrwt>
<totfact> 0.21150993E+03</totfact>
</mgrwt>
</event>
<event>
 6    4  0.6376098E-003  0.1322044E+03  0.7818608E-02  0.1224221E+00
         -4   -1    0    0    0  501 -0.00000000000E+00  0.00000000000E+00  0.11944442897E+03  0.11945118045E+03  0.12700000000E+01 0. -1.
         21   -1    0    0  501  502  0.00000000000E+00 -0.00000000000E+00 -0.80999372566E+02  0.80999372566E+02  0.00000000000E+00 0.  1.
         25    2    1    2    0    0 -0.42955968168E+02 -0.28799287376E+01  0.67555445985E+02  0.14846462346E+03  0.12499798776E+03 0.  0.
    9000005    1    3    3    0    0 -0.76154459381E+01 -0.41046710981E+02  0.84079001750E+02  0.93878144605E+02  0.10000000000E+01 0.  0.
    9000005    1    3    3    0    0 -0.35340522230E+02  0.38166782243E+02 -0.16523555765E+02  0.54586478851E+02  0.10000000000E+01 0.  0.
         -4    1    1    2    0  502  0.42955968168E+02  0.28799287376E+01 -0.29110389583E+02  0.51985929562E+02  0.12700000000E+01 0.  1.
<mgrwt>
<rscale>  1 0.13220441E+03</rscale>
<asrwt>0</asrwt>
<pdfrwt beam="2">  1       21 0.12461442E-01 0.13220441E+03</pdfrwt>
<pdfrwt beam="1">  1       -4 0.18377351E-01 0.13220441E+03</pdfrwt>
<totfact> 0.58111392E+04</totfact>
</mgrwt>
</event>
<event>
 6    4  0.6376098E-003  0.1383388E+03  0.7818608E-02  0.1215582E+00
         21   -1    0    0  501  502  0.00000000000E+00  0.00000000000E+00  0.59162530904E+02  0.59162530904E+02  0.00000000000E+00 0.  1.
         -4   -1    0    0    0  501 -0.00000000000E+00 -0.00000000000E+00 -0.17463472988E+03  0.17463934774E+03  0.12700000000E+01 0. -1.
         25    2    1    2    0    0 -0.26499896627E+02 -0.53011733477E+02 -0.10483737033E+03  0.17357563115E+03  0.12500054841E+03 0.  0.
    9000005    1    3    3    0    0  0.44181634300E+02 -0.49880625037E+02 -0.60961744361E+02  0.90318480053E+02  0.10000000000E+01 0.  0.
    9000005    1    3    3    0    0 -0.70681530927E+02 -0.31311084396E+01 -0.43875625966E+02  0.83257151093E+02  0.10000000000E+01 0.  0.
         -4    1    1    2    0  502  0.26499896627E+02  0.53011733477E+02 -0.10634828645E+02  0.60226247498E+02  0.12700000000E+01 0.  1.
<mgrwt>
<rscale>  1 0.13833881E+03</rscale>
<asrwt>0</asrwt>
<pdfrwt beam="1">  1       21 0.91019280E-02 0.13833881E+03</pdfrwt>
<pdfrwt beam="2">  1       -4 0.26868285E-01 0.13833881E+03</pdfrwt>
<totfact> 0.50845530E+04</totfact>
</mgrwt>
</event>
<event>
 6    4  0.6376098E-003  0.1267822E+03  0.7818608E-02  0.1232310E+00
         21   -1    0    0  501  502  0.00000000000E+00  0.00000000000E+00  0.17586413817E+02  0.17586413817E+02  0.00000000000E+00 0. -1.
          4   -1    0    0  502    0 -0.00000000000E+00 -0.00000000000E+00 -0.35437327200E+03  0.35437554770E+03  0.12700000000E+01 0. -1.
         25    2    1    2    0    0  0.94926303994E+01  0.18958137064E+02 -0.32205966651E+03  0.34611579996E+03  0.12499678874E+03 0.  0.
    9000005    1    3    3    0    0  0.18309804681E+02  0.21877776174E+02 -0.33156317028E+03  0.33278975633E+03  0.10000000000E+01 0.  0.
    9000005    1    3    3    0    0 -0.88171742813E+01 -0.29196391101E+01  0.95035037659E+01  0.13326043624E+02  0.10000000000E+01 0.  0.
          4    1    1    2  501    0 -0.94926303994E+01 -0.18958137064E+02 -0.14727191676E+02  0.25846161562E+02  0.12700000000E+01 0.  1.
<mgrwt>
<rscale>  1 0.12678217E+03</rscale>
<asrwt>0</asrwt>
<pdfrwt beam="1">  1       21 0.27056024E-02 0.12678217E+03</pdfrwt>
<pdfrwt beam="2">  1        4 0.54522662E-01 0.12678217E+03</pdfrwt>
<totfact> 0.96804687E+04</totfact>
</mgrwt>
</event>
<event>
 6    4  0.6376098E-003  0.1287482E+03  0.7818608E-02  0.1229325E+00
         21   -1    0    0  501  502  0.00000000000E+00  0.00000000000E+00  0.94861035223E+01  0.94861035223E+01  0.00000000000E+00 0. -1.
          4   -1    0    0  502    0 -0.00000000000E+00 -0.00000000000E+00 -0.90840169135E+03  0.90840257912E+03  0.12700000000E+01 0.  1.
         25    2    1    2    0    0 -0.24648894377E+02 -0.18527627787E+02 -0.85238584513E+03  0.86205436666E+03  0.12500104446E+03 0.  0.
    9000005    1    3    3    0    0  0.37897539644E+02 -0.40924341287E+02 -0.25774148711E+03  0.26370949812E+03  0.10000000000E+01 0.  0.
    9000005    1    3    3    0    0 -0.62546434020E+02  0.22396713501E+02 -0.59464435802E+03  0.59834486854E+03  0.10000000000E+01 0.  0.
          4    1    1    2  501    0  0.24648894377E+02  0.18527627787E+02 -0.46529742699E+02  0.55834315981E+02  0.12700000000E+01 0. -1.
<mgrwt>
<rscale>  1 0.12874821E+03</rscale>
<asrwt>0</asrwt>
<pdfrwt beam="1">  1       21 0.14594002E-02 0.12874821E+03</pdfrwt>
<pdfrwt beam="2">  1        4 0.13976075E+00 0.12874821E+03</pdfrwt>
<totfact> 0.31435441E+04</totfact>
</mgrwt>
</event>
<event>
 6    4  0.6376098E-003  0.1290073E+03  0.7818608E-02  0.1228936E+00
         21   -1    0    0  501  502  0.00000000000E+00  0.00000000000E+00  0.19706098807E+02  0.19706098807E+02  0.00000000000E+00 0.  1.
          4   -1    0    0  502    0 -0.00000000000E+00 -0.00000000000E+00 -0.44148912461E+03  0.44149095126E+03  0.12700000000E+01 0. -1.
         25    2    1    2    0    0  0.31909383596E+02  0.13953283863E+00 -0.40514340886E+03  0.42518707947E+03  0.12499857028E+03 0.  0.
    9000005    1    3    3    0    0 -0.28359088323E+02  0.45040760693E+02 -0.14794938140E+03  0.15723526154E+03  0.10000000000E+01 0.  0.
    9000005    1    3    3    0    0  0.60268471919E+02 -0.44901227854E+02 -0.25719402746E+03  0.26795181793E+03  0.10000000000E+01 0.  0.
          4    1    1    2  501    0 -0.31909383596E+02 -0.13953283863E+00 -0.16639616941E+02  0.36009970603E+02  0.12700000000E+01 0.  1.
<mgrwt>
<rscale>  1 0.12900725E+03</rscale>
<asrwt>0</asrwt>
<pdfrwt beam="1">  1       21 0.30317077E-02 0.12900725E+03</pdfrwt>
<pdfrwt beam="2">  1        4 0.67924687E-01 0.12900725E+03</pdfrwt>
<totfact> 0.50746075E+04</totfact>
</mgrwt>
</event>
<event>
 6    4  0.6376098E-003  0.1276522E+03  0.7818608E-02  0.1230982E+00
         21   -1    0    0  501  502  0.00000000000E+00  0.00000000000E+00  0.11628812683E+02  0.11628812683E+02  0.00000000000E+00 0. -1.
         -4   -1    0    0    0  501 -0.00000000000E+00 -0.00000000000E+00 -0.62348265727E+03  0.62348395073E+03  0.12700000000E+01 0. -1.
         25    2    1    2    0    0  0.18313094812E+02  0.18280435479E+02 -0.58084201133E+03  0.59470372402E+03  0.12500213387E+03 0.  0.
    9000005    1    3    3    0    0  0.92926587750E+01  0.52295019252E+02 -0.53117781325E+03  0.53382767991E+03  0.10000000000E+01 0.  0.
    9000005    1    3    3    0    0  0.90204360371E+01 -0.34014583773E+02 -0.49664198079E+02  0.60876044110E+02  0.10000000000E+01 0.  0.
         -4    1    1    2    0  502 -0.18313094812E+02 -0.18280435479E+02 -0.31011833260E+02  0.40409039398E+02  0.12700000000E+01 0.  1.
<mgrwt>
<rscale>  1 0.12765217E+03</rscale>
<asrwt>0</asrwt>
<pdfrwt beam="1">  1       21 0.17890482E-02 0.12765217E+03</pdfrwt>
<pdfrwt beam="2">  1       -4 0.95925837E-01 0.12765217E+03</pdfrwt>
<totfact> 0.55579480E+04</totfact>
</mgrwt>
</event>
<event>
 6    4  0.6376098E-003  0.1276517E+03  0.7818608E-02  0.1230982E+00
          4   -1    0    0  502    0 -0.00000000000E+00  0.00000000000E+00  0.43675822131E+02  0.43694282678E+02  0.12700000000E+01 0. -1.
         21   -1    0    0  501  502  0.00000000000E+00 -0.00000000000E+00 -0.40282193488E+03  0.40282193488E+03  0.00000000000E+00 0.  1.
         25    2    1    2    0    0 -0.81841975813E+01  0.24559008794E+02 -0.51289086012E+02  0.13757012547E+03  0.12499937230E+03 0.  0.
    9000005    1    3    3    0    0  0.44863287705E+02  0.50195590905E+02 -0.17191831429E+02  0.69490078414E+02  0.10000000000E+01 0.  0.
    9000005    1    3    3    0    0 -0.53047485287E+02 -0.25636582111E+02 -0.34097254583E+02  0.68080047060E+02  0.10000000000E+01 0.  0.
          4    1    1    2  501    0  0.81841975813E+01 -0.24559008794E+02 -0.30785702674E+03  0.30894609208E+03  0.12700000000E+01 0.  1.
<mgrwt>
<rscale>  1 0.12765175E+03</rscale>
<asrwt>0</asrwt>
<pdfrwt beam="2">  1       21 0.61972601E-01 0.12765175E+03</pdfrwt>
<pdfrwt beam="1">  1        4 0.67209318E-02 0.12765175E+03</pdfrwt>
<totfact> 0.14576327E+04</totfact>
</mgrwt>
</event>
<event>
 6    4  0.6376098E-003  0.1265905E+03  0.7818608E-02  0.1232604E+00
         21   -1    0    0  501  502  0.00000000000E+00  0.00000000000E+00  0.38314393071E+02  0.38314393071E+02  0.00000000000E+00 0. -1.
         -4   -1    0    0    0  501 -0.00000000000E+00 -0.00000000000E+00 -0.51614145513E+03  0.51614301759E+03  0.12700000000E+01 0.  1.
         25    2    1    2    0    0 -0.10460369689E+02 -0.17057048298E+02 -0.50503587093E+03  0.52065956442E+03  0.12499915543E+03 0.  0.
    9000005    1    3    3    0    0 -0.25062263844E+02  0.34159172527E+01 -0.13899330672E+02  0.28878659124E+02  0.10000000000E+01 0.  0.
    9000005    1    3    3    0    0  0.14601894156E+02 -0.20472965550E+02 -0.49113654026E+03  0.49178090529E+03  0.10000000000E+01 0.  0.
         -4    1    1    2    0  502  0.10460369689E+02  0.17057048298E+02  0.27208808870E+02  0.33797846245E+02  0.12700000000E+01 0. -1.
<mgrwt>
<rscale>  1 0.12659049E+03</rscale>
<asrwt>0</asrwt>
<pdfrwt beam="1">  1       21 0.58945224E-02 0.12659049E+03</pdfrwt>
<pdfrwt beam="2">  1       -4 0.79408112E-01 0.12659049E+03</pdfrwt>
<totfact> 0.11911017E+04</totfact>
</mgrwt>
</event>
<event>
 6    4  0.6376098E-003  0.1273536E+03  0.7818608E-02  0.1231436E+00
         21   -1    0    0  501  502  0.00000000000E+00  0.00000000000E+00  0.10673978106E+03  0.10673978106E+03  0.00000000000E+00 0.  1.
         -4   -1    0    0    0  501 -0.00000000000E+00 -0.00000000000E+00 -0.54054245308E+02  0.54069162522E+02  0.12700000000E+01 0.  1.
         25    2    1    2    0    0 -0.14850351944E+02  0.19362261240E+02  0.41583782846E+02  0.13397068859E+03  0.12499401703E+03 0.  0.
    9000005    1    3    3    0    0  0.16513489370E+02  0.67715715550E+02  0.22306459969E+02  0.73189422869E+02  0.10000000000E+01 0.  0.
    9000005    1    3    3    0    0 -0.31363841314E+02 -0.48353454310E+02  0.19277322876E+02  0.60781265724E+02  0.10000000000E+01 0.  0.
         -4    1    1    2    0  502  0.14850351944E+02 -0.19362261240E+02  0.11101752905E+02  0.26838254987E+02  0.12700000000E+01 0. -1.
<mgrwt>
<rscale>  1 0.12735358E+03</rscale>
<asrwt>0</asrwt>
<pdfrwt beam="1">  1       21 0.16421505E-01 0.12735358E+03</pdfrwt>
<pdfrwt beam="2">  1       -4 0.83177664E-02 0.12735358E+03</pdfrwt>
<totfact> 0.13721710E+05</totfact>
</mgrwt>
</event>
<event>
 6    4  0.6376098E-003  0.1269562E+03  0.7818608E-02  0.1232043E+00
          4   -1    0    0  502    0 -0.00000000000E+00  0.00000000000E+00  0.98937525345E+01  0.99749305368E+01  0.12700000000E+01 0. -1.
         21   -1    0    0  501  502  0.00000000000E+00 -0.00000000000E+00 -0.56120323048E+03  0.56120323048E+03  0.00000000000E+00 0. -1.
         25    2    1    2    0    0  0.59773349535E+01 -0.21260945780E+02 -0.48086096049E+03  0.49733804414E+03  0.12502044024E+03 0.  0.
    9000005    1    3    3    0    0  0.61310580115E+02 -0.34025738080E+02 -0.27141509970E+03  0.28032819057E+03  0.10000000000E+01 0.  0.
    9000005    1    3    3    0    0 -0.55333245161E+02  0.12764792300E+02 -0.20944586079E+03  0.21700985356E+03  0.10000000000E+01 0.  0.
          4    1    1    2  501    0 -0.59773349535E+01  0.21260945780E+02 -0.70448517459E+02  0.73840116879E+02  0.12700000000E+01 0.  1.
<mgrwt>
<rscale>  1 0.12695616E+03</rscale>
<asrwt>0</asrwt>
<pdfrwt beam="2">  1       21 0.86338966E-01 0.12695616E+03</pdfrwt>
<pdfrwt beam="1">  1        4 0.15284706E-02 0.12695616E+03</pdfrwt>
<totfact> 0.72157588E+04</totfact>
</mgrwt>
</event>
<event>
 6    4  0.6376098E-003  0.1281881E+03  0.7818608E-02  0.1230169E+00
         21   -1    0    0  501  502  0.00000000000E+00  0.00000000000E+00  0.40876377985E+02  0.40876377985E+02  0.00000000000E+00 0.  1.
         -4   -1    0    0    0  501 -0.00000000000E+00 -0.00000000000E+00 -0.29583260643E+03  0.29583533245E+03  0.12700000000E+01 0. -1.
         25    2    1    2    0    0  0.71156607830E+01 -0.27382791421E+02 -0.27405490163E+03  0.30255293247E+03  0.12502694885E+03 0.  0.
    9000005    1    3    3    0    0 -0.37402160632E+01 -0.77136939842E+02 -0.16772104455E+03  0.18464952068E+03  0.10000000000E+01 0.  0.
    9000005    1    3    3    0    0  0.10855876846E+02  0.49754148420E+02 -0.10633385709E+03  0.11790341179E+03  0.10000000000E+01 0.  0.
         -4    1    1    2    0  502 -0.71156607830E+01  0.27382791421E+02  0.19098673194E+02  0.34158777967E+02  0.12700000000E+01 0.  1.
<mgrwt>
<rscale>  1 0.12818810E+03</rscale>
<asrwt>0</asrwt>
<pdfrwt beam="1">  1       21 0.62886737E-02 0.12818810E+03</pdfrwt>
<pdfrwt beam="2">  1       -4 0.45514435E-01 0.12818810E+03</pdfrwt>
<totfact> 0.34392599E+04</totfact>
</mgrwt>
</event>
<event>
 6    4  0.6376098E-003  0.1297577E+03  0.7818608E-02  0.1227816E+00
          4   -1    0    0  502    0 -0.00000000000E+00  0.00000000000E+00  0.42939031835E+02  0.42957809010E+02  0.12700000000E+01 0.  1.
         21   -1    0    0  501  502  0.00000000000E+00 -0.00000000000E+00 -0.30828624595E+03  0.30828624595E+03  0.00000000000E+00 0. -1.
         25    2    1    2    0    0  0.73362377274E+01  0.34021122623E+02 -0.59988849233E+02  0.14295356527E+03  0.12500321045E+03 0.  0.
    9000005    1    3    3    0    0  0.20255888543E+02 -0.28574645139E+01  0.34823362472E+02  0.40399662103E+02  0.10000000000E+01 0.  0.
    9000005    1    3    3    0    0 -0.12919650816E+02  0.36878587137E+02 -0.94812211705E+02  0.10255390317E+03  0.10000000000E+01 0.  0.
          4    1    1    2  501    0 -0.73362377274E+01 -0.34021122623E+02 -0.20535836488E+03  0.20829048969E+03  0.12700000000E+01 0. -1.
<mgrwt>
<rscale>  1 0.12975770E+03</rscale>
<asrwt>0</asrwt>
<pdfrwt beam="2">  1       21 0.47428652E-01 0.12975770E+03</pdfrwt>
<pdfrwt beam="1">  1        4 0.66076507E-02 0.12975770E+03</pdfrwt>
<totfact> 0.26245515E+04</totfact>
</mgrwt>
</event>
<event>
 6    4  0.6376098E-003  0.1274696E+03  0.7818608E-02  0.1231259E+00
          4   -1    0    0  502    0 -0.00000000000E+00  0.00000000000E+00  0.32374609458E+03  0.32374858557E+03  0.12700000000E+01 0. -1.
         21   -1    0    0  501  502  0.00000000000E+00 -0.00000000000E+00 -0.34707006177E+02  0.34707006177E+02  0.00000000000E+00 0.  1.
         25    2    1    2    0    0  0.24773604254E+02 -0.30956964326E+01  0.30377609937E+03  0.32943650843E+03  0.12500071893E+03 0.  0.
    9000005    1    3    3    0    0 -0.26841126866E+02 -0.42375472140E+02  0.20655522101E+03  0.21256101725E+03  0.10000000000E+01 0.  0.
    9000005    1    3    3    0    0  0.51614731120E+02  0.39279775707E+02  0.97220878366E+02  0.11687549118E+03  0.10000000000E+01 0.  0.
          4    1    1    2  501    0 -0.24773604254E+02  0.30956964326E+01 -0.14737010966E+02  0.29019083313E+02  0.12700000000E+01 0.  1.
<mgrwt>
<rscale>  1 0.12746958E+03</rscale>
<asrwt>0</asrwt>
<pdfrwt beam="2">  1       21 0.53395396E-02 0.12746958E+03</pdfrwt>
<pdfrwt beam="1">  1        4 0.49809068E-01 0.12746958E+03</pdfrwt>
<totfact> 0.37786855E+04</totfact>
</mgrwt>
</event>
<event>
 6    4  0.6376098E-003  0.1266777E+03  0.7818608E-02  0.1232470E+00
         21   -1    0    0  501  502  0.00000000000E+00  0.00000000000E+00  0.17387381116E+02  0.17387381116E+02  0.00000000000E+00 0. -1.
          4   -1    0    0  502    0 -0.00000000000E+00 -0.00000000000E+00 -0.14679095659E+04  0.14679101153E+04  0.12700000000E+01 0.  1.
         25    2    1    2    0    0  0.18955566568E+02 -0.78641256552E+01 -0.14579444411E+04  0.14634374697E+04  0.12500430600E+03 0.  0.
    9000005    1    3    3    0    0  0.17594596880E+02 -0.29802846372E+02 -0.14127201482E+04  0.14131443651E+04  0.10000000000E+01 0.  0.
    9000005    1    3    3    0    0  0.13609696878E+01  0.21938720717E+02 -0.45224292880E+02  0.50293104613E+02  0.10000000000E+01 0.  0.
          4    1    1    2  501    0 -0.18955566568E+02  0.78641256552E+01  0.74222563292E+01  0.21860026653E+02  0.12700000000E+01 0. -1.
<mgrwt>
<rscale>  1 0.12667768E+03</rscale>
<asrwt>0</asrwt>
<pdfrwt beam="1">  1       21 0.26749817E-02 0.12667768E+03</pdfrwt>
<pdfrwt beam="2">  1        4 0.22583585E+00 0.12667768E+03</pdfrwt>
<totfact> 0.31930218E+03</totfact>
</mgrwt>
</event>
<event>
 6    4  0.6376098E-003  0.1288195E+03  0.7818608E-02  0.1229218E+00
         21   -1    0    0  501  502  0.00000000000E+00  0.00000000000E+00  0.15594560751E+04  0.15594560751E+04  0.00000000000E+00 0.  1.
         -4   -1    0    0    0  501 -0.00000000000E+00 -0.00000000000E+00 -0.16652172955E+02  0.16700531852E+02  0.12700000000E+01 0. -1.
         25    2    1    2    0    0  0.15235452273E+02 -0.27164527288E+02  0.23508347576E+03  0.26806473058E+03  0.12499771460E+03 0.  0.
    9000005    1    3    3    0    0  0.50132988900E+02  0.18112184097E+02  0.45637460337E+02  0.70179381409E+02  0.10000000000E+01 0.  0.
    9000005    1    3    3    0    0 -0.34897536628E+02 -0.45276711385E+02  0.18944601542E+03  0.19788534917E+03  0.10000000000E+01 0.  0.
         -4    1    1    2    0  502 -0.15235452273E+02  0.27164527288E+02  0.13077204264E+04  0.13080918764E+04  0.12700000000E+01 0.  1.
<mgrwt>
<rscale>  1 0.12881948E+03</rscale>
<asrwt>0</asrwt>
<pdfrwt beam="1">  1       21 0.23991620E+00 0.12881948E+03</pdfrwt>
<pdfrwt beam="2">  1       -4 0.25656337E-02 0.12881948E+03</pdfrwt>
<totfact> 0.22502528E+03</totfact>
</mgrwt>
</event>
<event>
 6    4  0.6376098E-003  0.1359296E+03  0.7818608E-02  0.1218913E+00
         -4   -1    0    0    0  501 -0.00000000000E+00  0.00000000000E+00  0.29121434236E+03  0.29121711162E+03  0.12700000000E+01 0.  1.
         21   -1    0    0  501  502  0.00000000000E+00 -0.00000000000E+00 -0.50101739727E+02  0.50101739727E+02  0.00000000000E+00 0. -1.
         25    2    1    2    0    0  0.89961695925E+01  0.52615818327E+02  0.25246367543E+03  0.28673116812E+03  0.12500999942E+03 0.  0.
    9000005    1    3    3    0    0 -0.32261049661E+02 -0.24585926409E+02  0.13008591861E+03  0.13626661118E+03  0.10000000000E+01 0.  0.
    9000005    1    3    3    0    0  0.41257219253E+02  0.77201744737E+02  0.12237775682E+03  0.15046455694E+03  0.10000000000E+01 0.  0.
         -4    1    1    2    0  502 -0.89961695925E+01 -0.52615818327E+02 -0.11351072795E+02  0.54587683219E+02  0.12700000000E+01 0. -1.
<mgrwt>
<rscale>  1 0.13592960E+03</rscale>
<asrwt>0</asrwt>
<pdfrwt beam="2">  1       21 0.77079601E-02 0.13592960E+03</pdfrwt>
<pdfrwt beam="1">  1       -4 0.44803657E-01 0.13592960E+03</pdfrwt>
<totfact> 0.25227078E+04</totfact>
</mgrwt>
</event>
<event>
 6    4  0.6376098E-003  0.1268428E+03  0.7818608E-02  0.1232217E+00
         21   -1    0    0  501  502  0.00000000000E+00  0.00000000000E+00  0.91334976796E+02  0.91334976796E+02  0.00000000000E+00 0.  1.
          4   -1    0    0  502    0 -0.00000000000E+00 -0.00000000000E+00 -0.12816442698E+03  0.12817071913E+03  0.12700000000E+01 0. -1.
         25    2    1    2    0    0  0.18076330614E+02  0.11729158683E+02 -0.94338774643E+02  0.15807881100E+03  0.12499911678E+03 0.  0.
    9000005    1    3    3    0    0 -0.52913103042E+02  0.15907950747E+02 -0.34608631429E+02  0.65204422702E+02  0.10000000000E+01 0.  0.
    9000005    1    3    3    0    0  0.70989433656E+02 -0.41787920638E+01 -0.59730143214E+02  0.92874388301E+02  0.10000000000E+01 0.  0.
          4    1    1    2  501    0 -0.18076330614E+02 -0.11729158683E+02  0.57509324459E+02  0.61426884925E+02  0.12700000000E+01 0.  1.
<mgrwt>
<rscale>  1 0.12684284E+03</rscale>
<asrwt>0</asrwt>
<pdfrwt beam="1">  1       21 0.14051535E-01 0.12684284E+03</pdfrwt>
<pdfrwt beam="2">  1        4 0.19718767E-01 0.12684284E+03</pdfrwt>
<totfact> 0.41134631E+04</totfact>
</mgrwt>
</event>
<event>
 6    4  0.6376098E-003  0.1292090E+03  0.7818608E-02  0.1228634E+00
         21   -1    0    0  501  502  0.00000000000E+00  0.00000000000E+00  0.91160841336E+02  0.91160841336E+02  0.00000000000E+00 0.  1.
         -4   -1    0    0    0  501 -0.00000000000E+00 -0.00000000000E+00 -0.72611043088E+02  0.72622148676E+02  0.12700000000E+01 0. -1.
         25    2    1    2    0    0  0.32630828364E+02  0.22616373775E+01  0.82716399540E+01  0.12947352483E+03  0.12500035056E+03 0.  0.
    9000005    1    3    3    0    0 -0.11774615685E+02 -0.51481730938E+02  0.23971430765E+02  0.58005514288E+02  0.10000000000E+01 0.  0.
    9000005    1    3    3    0    0  0.44405444048E+02  0.53743368316E+02 -0.15699790811E+02  0.71468010540E+02  0.10000000000E+01 0.  0.
         -4    1    1    2    0  502 -0.32630828364E+02 -0.22616373775E+01  0.10278158294E+02  0.34309465184E+02  0.12700000000E+01 0.  1.
<mgrwt>
<rscale>  1 0.12920903E+03</rscale>
<asrwt>0</asrwt>
<pdfrwt beam="1">  1       21 0.14024745E-01 0.12920903E+03</pdfrwt>
<pdfrwt beam="2">  1       -4 0.11172464E-01 0.12920903E+03</pdfrwt>
<totfact> 0.11139880E+05</totfact>
</mgrwt>
</event>
<event>
 6    4  0.6376098E-003  0.1277397E+03  0.7818608E-02  0.1230849E+00
         21   -1    0    0  501  502  0.00000000000E+00  0.00000000000E+00  0.86045621292E+03  0.86045621292E+03  0.00000000000E+00 0.  1.
         -4   -1    0    0    0  501 -0.00000000000E+00 -0.00000000000E+00 -0.96587906828E+01  0.97419267834E+01  0.12700000000E+01 0.  1.
         25    2    1    2    0    0  0.25538773850E+02 -0.62769316544E+01  0.42986975829E+03  0.44844781070E+03  0.12500320390E+03 0.  0.
    9000005    1    3    3    0    0 -0.90138715741E+01  0.18546123490E+02  0.47252709725E+01  0.21178686527E+02  0.10000000000E+01 0.  0.
    9000005    1    3    3    0    0  0.34552645424E+02 -0.24823055144E+02  0.42514448732E+03  0.42726912417E+03  0.10000000000E+01 0.  0.
         -4    1    1    2    0  502 -0.25538773850E+02  0.62769316544E+01  0.42092766395E+03  0.42175032901E+03  0.12700000000E+01 0. -1.
<mgrwt>
<rscale>  1 0.12773970E+03</rscale>
<asrwt>0</asrwt>
<pdfrwt beam="1">  1       21 0.13237782E+00 0.12773970E+03</pdfrwt>
<pdfrwt beam="2">  1       -4 0.14924356E-02 0.12773970E+03</pdfrwt>
<totfact> 0.27114792E+04</totfact>
</mgrwt>
</event>
<event>
 6    4  0.6376098E-003  0.1307958E+03  0.7818608E-02  0.1226280E+00
         -4   -1    0    0    0  501 -0.00000000000E+00  0.00000000000E+00  0.35674946589E+03  0.35675172644E+03  0.12700000000E+01 0.  1.
         21   -1    0    0  501  502  0.00000000000E+00 -0.00000000000E+00 -0.33768852462E+02  0.33768852462E+02  0.00000000000E+00 0.  1.
         25    2    1    2    0    0 -0.21144885528E+02  0.32159540651E+02  0.32662432334E+03  0.35183942379E+03  0.12500475709E+03 0.  0.
    9000005    1    3    3    0    0 -0.58765943313E+01  0.69999681285E+02  0.10400409678E+03  0.12550833394E+03  0.10000000000E+01 0.  0.
    9000005    1    3    3    0    0 -0.15268291196E+02 -0.37840140634E+02  0.22262022656E+03  0.22633108985E+03  0.10000000000E+01 0.  0.
         -4    1    1    2    0  502  0.21144885528E+02 -0.32159540651E+02 -0.36437099061E+01  0.38681155111E+02  0.12700000000E+01 0. -1.
<mgrwt>
<rscale>  1 0.13079576E+03</rscale>
<asrwt>0</asrwt>
<pdfrwt beam="2">  1       21 0.51952083E-02 0.13079576E+03</pdfrwt>
<pdfrwt beam="1">  1       -4 0.54886541E-01 0.13079576E+03</pdfrwt>
<totfact> 0.32536264E+04</totfact>
</mgrwt>
</event>
<event>
 6    4  0.6376098E-003  0.1266242E+03  0.7818608E-02  0.1232552E+00
         21   -1    0    0  501  502  0.00000000000E+00  0.00000000000E+00  0.13749721627E+03  0.13749721627E+03  0.00000000000E+00 0.  1.
          4   -1    0    0  502    0 -0.00000000000E+00 -0.00000000000E+00 -0.87588225833E+02  0.87597432637E+02  0.12700000000E+01 0. -1.
         25    2    1    2    0    0 -0.15891313741E+02 -0.12490198930E+02 -0.40110407850E+02  0.13282523962E+03  0.12500064216E+03 0.  0.
    9000005    1    3    3    0    0  0.25432295338E+02  0.40413842081E+02 -0.44853229746E+02  0.65520168624E+02  0.10000000000E+01 0.  0.
    9000005    1    3    3    0    0 -0.41323609079E+02 -0.52904041010E+02  0.47428218962E+01  0.67305070998E+02  0.10000000000E+01 0.  0.
          4    1    1    2  501    0  0.15891313741E+02  0.12490198930E+02  0.90019398286E+02  0.92269409283E+02  0.12700000000E+01 0.  1.
<mgrwt>
<rscale>  1 0.12662425E+03</rscale>
<asrwt>0</asrwt>
<pdfrwt beam="1">  1       21 0.21153418E-01 0.12662425E+03</pdfrwt>
<pdfrwt beam="2">  1        4 0.13476271E-01 0.12662425E+03</pdfrwt>
<totfact> 0.38089665E+04</totfact>
</mgrwt>
</event>
<event>
 6    4  0.6376098E-003  0.1570051E+03  0.7818608E-02  0.1192120E+00
         -4   -1    0    0    0  501 -0.00000000000E+00  0.00000000000E+00  0.59247347224E+03  0.59247483340E+03  0.12700000000E+01 0.  1.
         21   -1    0    0  501  502  0.00000000000E+00 -0.00000000000E+00 -0.52305688682E+02  0.52305688682E+02  0.00000000000E+00 0. -1.
         25    2    1    2    0    0 -0.56927558675E+02 -0.76150752117E+02  0.52564506318E+03  0.54859213249E+03  0.12494363288E+03 0.  0.
    9000005    1    3    3    0    0 -0.55672244285E+02 -0.12246777734E+02  0.79156082629E+02  0.97550334524E+02  0.10000000000E+01 0.  0.
    9000005    1    3    3    0    0 -0.12553143905E+01 -0.63903974384E+02  0.44648898056E+03  0.45104179797E+03  0.10000000000E+01 0.  0.
         -4    1    1    2    0  502  0.56927558675E+02  0.76150752117E+02  0.14522720376E+02  0.96188389590E+02  0.12700000000E+01 0. -1.
<mgrwt>
<rscale>  1 0.15700508E+03</rscale>
<asrwt>0</asrwt>
<pdfrwt beam="2">  1       21 0.80470294E-02 0.15700508E+03</pdfrwt>
<pdfrwt beam="1">  1       -4 0.91151051E-01 0.15700508E+03</pdfrwt>
<totfact> 0.52256745E+03</totfact>
</mgrwt>
</event>
<event>
 6    4  0.6376098E-003  0.1293845E+03  0.7818608E-02  0.1228372E+00
         21   -1    0    0  501  502  0.00000000000E+00  0.00000000000E+00  0.59715489798E+02  0.59715489798E+02  0.00000000000E+00 0.  1.
         -4   -1    0    0    0  501 -0.00000000000E+00 -0.00000000000E+00 -0.14969214657E+03  0.14969753386E+03  0.12700000000E+01 0. -1.
         25    2    1    2    0    0  0.44673317265E+01  0.33104085709E+02 -0.11053285316E+03  0.17017009241E+03  0.12499804470E+03 0.  0.
    9000005    1    3    3    0    0  0.20492223338E+02  0.76142004840E+02 -0.47104213271E+02  0.91855010894E+02  0.10000000000E+01 0.  0.
    9000005    1    3    3    0    0 -0.16024891612E+02 -0.43037919131E+02 -0.63428639887E+02  0.78315081512E+02  0.10000000000E+01 0.  0.
         -4    1    1    2    0  502 -0.44673317265E+01 -0.33104085709E+02  0.20556196389E+02  0.39242931254E+02  0.12700000000E+01 0.  1.
<mgrwt>
<rscale>  1 0.12938450E+03</rscale>
<asrwt>0</asrwt>
<pdfrwt beam="1">  1       21 0.91869985E-02 0.12938450E+03</pdfrwt>
<pdfrwt beam="2">  1       -4 0.23031014E-01 0.12938450E+03</pdfrwt>
<totfact> 0.65918377E+04</totfact>
</mgrwt>
</event>
<event>
 6    4  0.6376098E-003  0.1333418E+03  0.7818608E-02  0.1222580E+00
          4   -1    0    0  502    0 -0.00000000000E+00  0.00000000000E+00  0.30080522412E+02  0.30107320182E+02  0.12700000000E+01 0.  1.
         21   -1    0    0  501  502  0.00000000000E+00 -0.00000000000E+00 -0.10286791522E+04  0.10286791522E+04  0.00000000000E+00 0. -1.
         25    2    1    2    0    0 -0.38039519797E+02 -0.26605017408E+02 -0.12130148661E+03  0.18026116122E+03  0.12500081429E+03 0.  0.
    9000005    1    3    3    0    0  0.17645424900E+02  0.12188972056E+02 -0.10923348209E+03  0.11132333838E+03  0.10000000000E+01 0.  0.
    9000005    1    3    3    0    0 -0.55684944697E+02 -0.38793989465E+02 -0.12068004519E+02  0.68937822838E+02  0.10000000000E+01 0.  0.
          4    1    1    2  501    0  0.38039519797E+02  0.26605017408E+02 -0.87729714317E+03  0.87852531115E+03  0.12700000000E+01 0. -1.
<mgrwt>
<rscale>  1 0.13334180E+03</rscale>
<asrwt>0</asrwt>
<pdfrwt beam="2">  1       21 0.15825836E+00 0.13334180E+03</pdfrwt>
<pdfrwt beam="1">  1        4 0.46298935E-02 0.13334180E+03</pdfrwt>
<totfact> 0.29446300E+03</totfact>
</mgrwt>
</event>
<event>
 6    4  0.6376098E-003  0.1329859E+03  0.7818608E-02  0.1223091E+00
          4   -1    0    0  502    0 -0.00000000000E+00  0.00000000000E+00  0.17851608275E+04  0.17851612793E+04  0.12700000000E+01 0.  1.
         21   -1    0    0  501  502  0.00000000000E+00 -0.00000000000E+00 -0.45434763185E+01  0.45434763185E+01  0.00000000000E+00 0.  1.
         25    2    1    2    0    0 -0.15284718951E+02 -0.42755398719E+02  0.14266664479E+04  0.14328511419E+04  0.12499437803E+03 0.  0.
    9000005    1    3    3    0    0  0.41339610770E+02 -0.59736825763E+02  0.88111007057E+03  0.88410033833E+03  0.10000000000E+01 0.  0.
    9000005    1    3    3    0    0 -0.56624329721E+02  0.16981427044E+02  0.54555637734E+03  0.54875080359E+03  0.10000000000E+01 0.  0.
          4    1    1    2  501    0  0.15284718951E+02  0.42755398719E+02  0.35395090332E+03  0.35685361370E+03  0.12700000000E+01 0. -1.
<mgrwt>
<rscale>  1 0.13298587E+03</rscale>
<asrwt>0</asrwt>
<pdfrwt beam="2">  1       21 0.69899778E-03 0.13298587E+03</pdfrwt>
<pdfrwt beam="1">  1        4 0.27465325E+00 0.13298587E+03</pdfrwt>
<totfact> 0.14191985E+04</totfact>
</mgrwt>
</event>
<event>
 6    4  0.6376098E-003  0.1274101E+03  0.7818608E-02  0.1231350E+00
         21   -1    0    0  501  502  0.00000000000E+00  0.00000000000E+00  0.23819940237E+03  0.23819940237E+03  0.00000000000E+00 0.  1.
         -4   -1    0    0    0  501 -0.00000000000E+00 -0.00000000000E+00 -0.28671288005E+02  0.28699401664E+02  0.12700000000E+01 0. -1.
         25    2    1    2    0    0 -0.18221807403E+02 -0.16605456376E+02  0.12366178928E+03  0.17755444702E+03  0.12500227231E+03 0.  0.
    9000005    1    3    3    0    0 -0.18470813454E+02 -0.59069493018E+02  0.11987113861E+03  0.13490910209E+03  0.10000000000E+01 0.  0.
    9000005    1    3    3    0    0  0.24900605130E+00  0.42464036642E+02  0.37906506713E+01  0.42645344933E+02  0.10000000000E+01 0.  0.
         -4    1    1    2    0  502  0.18221807403E+02  0.16605456376E+02  0.85866325083E+02  0.89344357012E+02  0.12700000000E+01 0.  1.
<mgrwt>
<rscale>  1 0.12741014E+03</rscale>
<asrwt>0</asrwt>
<pdfrwt beam="1">  1       21 0.36646061E-01 0.12741014E+03</pdfrwt>
<pdfrwt beam="2">  1       -4 0.44133906E-02 0.12741014E+03</pdfrwt>
<totfact> 0.84364739E+04</totfact>
</mgrwt>
</event>
<event>
 6    4  0.6376098E-003  0.1266101E+03  0.7818608E-02  0.1232574E+00
         -4   -1    0    0    0  501 -0.00000000000E+00  0.00000000000E+00  0.27299824788E+02  0.27329349305E+02  0.12700000000E+01 0.  1.
         21   -1    0    0  501  502  0.00000000000E+00 -0.00000000000E+00 -0.54318565886E+03  0.54318565886E+03  0.00000000000E+00 0. -1.
         25    2    1    2    0    0 -0.19942142955E+02 -0.27243484789E+01 -0.12105590623E+03  0.17517035351E+03  0.12500003671E+03 0.  0.
    9000005    1    3    3    0    0 -0.57996044568E+02  0.31127630772E+02 -0.33474567207E+02  0.73851318422E+02  0.10000000000E+01 0.  0.
    9000005    1    3    3    0    0  0.38053901613E+02 -0.33851979251E+02 -0.87581339019E+02  0.10131903509E+03  0.10000000000E+01 0.  0.
         -4    1    1    2    0  502  0.19942142955E+02  0.27243484789E+01 -0.39482992785E+03  0.39534465465E+03  0.12700000000E+01 0. -1.
<mgrwt>
<rscale>  1 0.12661011E+03</rscale>
<asrwt>0</asrwt>
<pdfrwt beam="2">  1       21 0.83567019E-01 0.12661011E+03</pdfrwt>
<pdfrwt beam="1">  1       -4 0.42023586E-02 0.12661011E+03</pdfrwt>
<totfact> 0.16126756E+04</totfact>
</mgrwt>
</event>
<event>
 6    4  0.6376098E-003  0.1266461E+03  0.7818608E-02  0.1232519E+00
          4   -1    0    0  502    0 -0.00000000000E+00  0.00000000000E+00  0.48491388209E+02  0.48508016146E+02  0.12700000000E+01 0.  1.
         21   -1    0    0  501  502  0.00000000000E+00 -0.00000000000E+00 -0.14594656757E+03  0.14594656757E+03  0.00000000000E+00 0. -1.
         25    2    1    2    0    0  0.16199134019E+02  0.12337324766E+02 -0.38959372253E+02  0.13250303915E+03  0.12499840468E+03 0.  0.
    9000005    1    3    3    0    0  0.33095894999E+01 -0.44254603268E+02  0.20948267864E+02  0.49084144279E+02  0.10000000000E+01 0.  0.
    9000005    1    3    3    0    0  0.12889544520E+02  0.56591928035E+02 -0.59907640117E+02  0.83418894868E+02  0.10000000000E+01 0.  0.
          4    1    1    2  501    0 -0.16199134019E+02 -0.12337324766E+02 -0.58495807104E+02  0.61951544566E+02  0.12700000000E+01 0. -1.
<mgrwt>
<rscale>  1 0.12664605E+03</rscale>
<asrwt>0</asrwt>
<pdfrwt beam="2">  1       21 0.22453318E-01 0.12664605E+03</pdfrwt>
<pdfrwt beam="1">  1        4 0.74619177E-02 0.12664605E+03</pdfrwt>
<totfact> 0.92220369E+04</totfact>
</mgrwt>
</event>
<event>
 6    4  0.6376098E-003  0.1291131E+03  0.7818608E-02  0.1228778E+00
          4   -1    0    0  502    0 -0.00000000000E+00  0.00000000000E+00  0.50319055585E+02  0.50335079766E+02  0.12700000000E+01 0. -1.
         21   -1    0    0  501  502  0.00000000000E+00 -0.00000000000E+00 -0.12937995427E+03  0.12937995427E+03  0.00000000000E+00 0. -1.
         25    2    1    2    0    0  0.29042030186E+02  0.14021745138E+02 -0.63655540344E+02  0.14395210882E+03  0.12502053017E+03 0.  0.
    9000005    1    3    3    0    0  0.61739306338E+02 -0.30807168780E+02 -0.53999483940E+02  0.87622872933E+02  0.10000000000E+01 0.  0.
    9000005    1    3    3    0    0 -0.32697276152E+02  0.44828913918E+02 -0.96560564040E+01  0.56329235891E+02  0.10000000000E+01 0.  0.
          4    1    1    2  501    0 -0.29042030186E+02 -0.14021745138E+02 -0.15405358341E+02  0.35762925211E+02  0.12700000000E+01 0.  1.
<mgrwt>
<rscale>  1 0.12911306E+03</rscale>
<asrwt>0</asrwt>
<pdfrwt beam="2">  1       21 0.19904608E-01 0.12911306E+03</pdfrwt>
<pdfrwt beam="1">  1        4 0.77431054E-02 0.12911306E+03</pdfrwt>
<totfact> 0.10882386E+05</totfact>
</mgrwt>
</event>
<event>
 6    4  0.6376098E-003  0.1298035E+03  0.7818608E-02  0.1227748E+00
         21   -1    0    0  501  502  0.00000000000E+00  0.00000000000E+00  0.38037091777E+03  0.38037091777E+03  0.00000000000E+00 0. -1.
          4   -1    0    0  502    0 -0.00000000000E+00 -0.00000000000E+00 -0.19055486280E+02  0.19097760532E+02  0.12700000000E+01 0. -1.
         25    2    1    2    0    0  0.19964136653E+02 -0.28773244895E+02  0.31980534033E+03  0.34514403434E+03  0.12498992903E+03 0.  0.
    9000005    1    3    3    0    0 -0.38594467318E+02 -0.47797519174E+02  0.10469083775E+03  0.12138907387E+03  0.10000000000E+01 0.  0.
    9000005    1    3    3    0    0  0.58558603970E+02  0.19024274279E+02  0.21511450258E+03  0.22375496046E+03  0.10000000000E+01 0.  0.
          4    1    1    2  501    0 -0.19964136653E+02  0.28773244895E+02  0.41510091153E+02  0.54324643962E+02  0.12700000000E+01 0.  1.
<mgrwt>
<rscale>  1 0.12980350E+03</rscale>
<asrwt>0</asrwt>
<pdfrwt beam="1">  1       21 0.58518597E-01 0.12980350E+03</pdfrwt>
<pdfrwt beam="2">  1        4 0.29350285E-02 0.12980350E+03</pdfrwt>
<totfact> 0.61913242E+04</totfact>
</mgrwt>
</event>
<event>
 6    4  0.6376098E-003  0.1283837E+03  0.7818608E-02  0.1229874E+00
         21   -1    0    0  501  502  0.00000000000E+00  0.00000000000E+00  0.24528496049E+02  0.24528496049E+02  0.00000000000E+00 0. -1.
          4   -1    0    0  502    0 -0.00000000000E+00 -0.00000000000E+00 -0.27937769986E+03  0.27938058644E+03  0.12700000000E+01 0.  1.
         25    2    1    2    0    0 -0.22105339332E+02  0.19275632133E+02 -0.23703585434E+03  0.26957070249E+03  0.12498868501E+03 0.  0.
    9000005    1    3    3    0    0 -0.61224144764E+01 -0.50639602410E+02 -0.13923402047E+03  0.14828676862E+03  0.10000000000E+01 0.  0.
    9000005    1    3    3    0    0 -0.15982924856E+02  0.69915234544E+02 -0.97801833862E+02  0.12128393387E+03  0.10000000000E+01 0.  0.
          4    1    1    2  501    0  0.22105339332E+02 -0.19275632133E+02 -0.17813349472E+02  0.34338379993E+02  0.12700000000E+01 0. -1.
<mgrwt>
<rscale>  1 0.12838367E+03</rscale>
<asrwt>0</asrwt>
<pdfrwt beam="1">  1       21 0.37736146E-02 0.12838367E+03</pdfrwt>
<pdfrwt beam="2">  1        4 0.42983937E-01 0.12838367E+03</pdfrwt>
<totfact> 0.90820133E+04</totfact>
</mgrwt>
</event>
<event>
 6    4  0.6376098E-003  0.1280228E+03  0.7818608E-02  0.1230419E+00
         21   -1    0    0  501  502  0.00000000000E+00  0.00000000000E+00  0.60123900741E+02  0.60123900741E+02  0.00000000000E+00 0. -1.
         -4   -1    0    0    0  501 -0.00000000000E+00 -0.00000000000E+00 -0.19647017658E+03  0.19647428123E+03  0.12700000000E+01 0.  1.
         25    2    1    2    0    0  0.88237012708E+01 -0.26166531883E+02 -0.17014792823E+03  0.21293229484E+03  0.12500919810E+03 0.  0.
    9000005    1    3    3    0    0 -0.34561308865E+02  0.22458805740E+02 -0.13690776009E+02  0.43443289165E+02  0.10000000000E+01 0.  0.
    9000005    1    3    3    0    0  0.43385010136E+02 -0.48625337623E+02 -0.15645715222E+03  0.16948900568E+03  0.10000000000E+01 0.  0.
         -4    1    1    2    0  502 -0.88237012708E+01  0.26166531883E+02  0.33801652390E+02  0.43665887134E+02  0.12700000000E+01 0. -1.
<mgrwt>
<rscale>  1 0.12802283E+03</rscale>
<asrwt>0</asrwt>
<pdfrwt beam="1">  1       21 0.92498310E-02 0.12802283E+03</pdfrwt>
<pdfrwt beam="2">  1       -4 0.30227528E-01 0.12802283E+03</pdfrwt>
<totfact> 0.39261961E+04</totfact>
</mgrwt>
</event>
<event>
 6    4  0.6376098E-003  0.1295127E+03  0.7818608E-02  0.1228181E+00
         -4   -1    0    0    0  501 -0.00000000000E+00  0.00000000000E+00  0.78893838539E+03  0.78893940758E+03  0.12700000000E+01 0. -1.
         21   -1    0    0  501  502  0.00000000000E+00 -0.00000000000E+00 -0.85261040104E+02  0.85261040104E+02  0.00000000000E+00 0.  1.
         25    2    1    2    0    0  0.33726783749E+02 -0.34514384497E+01  0.77999884997E+03  0.79067803544E+03  0.12499656557E+03 0.  0.
    9000005    1    3    3    0    0  0.15134172077E+02  0.45595348769E+01  0.68368236044E+01  0.17250353033E+02  0.10000000000E+01 0.  0.
    9000005    1    3    3    0    0  0.18592611672E+02 -0.80109733266E+01  0.77316202637E+03  0.77342768241E+03  0.10000000000E+01 0.  0.
         -4    1    1    2    0  502 -0.33726783749E+02  0.34514384497E+01 -0.76321504687E+02  0.83522412245E+02  0.12700000000E+01 0.  1.
<mgrwt>
<rscale>  1 0.12951274E+03</rscale>
<asrwt>0</asrwt>
<pdfrwt beam="2">  1       21 0.13117084E-01 0.12951274E+03</pdfrwt>
<pdfrwt beam="1">  1       -4 0.12137594E+00 0.12951274E+03</pdfrwt>
<totfact> 0.11217359E+03</totfact>
</mgrwt>
</event>
<event>
 6    4  0.6376098E-003  0.1268832E+03  0.7818608E-02  0.1232155E+00
         -4   -1    0    0    0  501 -0.00000000000E+00  0.00000000000E+00  0.38837554970E+03  0.38837762616E+03  0.12700000000E+01 0. -1.
         21   -1    0    0  501  502  0.00000000000E+00 -0.00000000000E+00 -0.17366355287E+02  0.17366355287E+02  0.00000000000E+00 0. -1.
         25    2    1    2    0    0  0.11456107634E+01 -0.21749875085E+02  0.35916680493E+03  0.38092011030E+03  0.12499986871E+03 0.  0.
    9000005    1    3    3    0    0 -0.93042418376E+01  0.22080843646E+01 -0.81918892968E+01  0.12631373757E+02  0.10000000000E+01 0.  0.
    9000005    1    3    3    0    0  0.10449852601E+02 -0.23957959450E+02  0.36735869423E+03  0.36828873654E+03  0.10000000000E+01 0.  0.
         -4    1    1    2    0  502 -0.11456107634E+01  0.21749875085E+02  0.11842389483E+02  0.24823871150E+02  0.12700000000E+01 0.  1.
<mgrwt>
<rscale>  1 0.12688316E+03</rscale>
<asrwt>0</asrwt>
<pdfrwt beam="2">  1       21 0.26717473E-02 0.12688316E+03</pdfrwt>
<pdfrwt beam="1">  1       -4 0.59753810E-01 0.12688316E+03</pdfrwt>
<totfact> 0.81685754E+04</totfact>
</mgrwt>
</event>
<event>
 6    4  0.6376098E-003  0.1271285E+03  0.7818608E-02  0.1231780E+00
         21   -1    0    0  501  502  0.00000000000E+00  0.00000000000E+00  0.13158053332E+03  0.13158053332E+03  0.00000000000E+00 0.  1.
          4   -1    0    0  502    0 -0.00000000000E+00 -0.00000000000E+00 -0.44965065900E+02  0.44982997359E+02  0.12700000000E+01 0. -1.
         25    2    1    2    0    0  0.89384289038E+01 -0.21394634494E+02  0.58063464592E+02  0.13976060061E+03  0.12499613460E+03 0.  0.
    9000005    1    3    3    0    0 -0.26581332727E+02 -0.43470310223E+02 -0.17087102629E+02  0.53751318092E+02  0.10000000000E+01 0.  0.
    9000005    1    3    3    0    0  0.35519761630E+02  0.22075675730E+02  0.75150567220E+02  0.86009282515E+02  0.10000000000E+01 0.  0.
          4    1    1    2  501    0 -0.89384289038E+01  0.21394634494E+02  0.28552002833E+02  0.36802930076E+02  0.12700000000E+01 0.  1.
<mgrwt>
<rscale>  1 0.12712852E+03</rscale>
<asrwt>0</asrwt>
<pdfrwt beam="1">  1       21 0.20243159E-01 0.12712852E+03</pdfrwt>
<pdfrwt beam="2">  1        4 0.69195533E-02 0.12712852E+03</pdfrwt>
<totfact> 0.12663301E+05</totfact>
</mgrwt>
</event>
<event>
 6    4  0.6376098E-003  0.1279441E+03  0.7818608E-02  0.1230539E+00
          4   -1    0    0  502    0 -0.00000000000E+00  0.00000000000E+00  0.25093854786E+02  0.25125971583E+02  0.12700000000E+01 0. -1.
         21   -1    0    0  501  502  0.00000000000E+00 -0.00000000000E+00 -0.83113021934E+03  0.83113021934E+03  0.00000000000E+00 0.  1.
         25    2    1    2    0    0 -0.25825121846E+02  0.88102550537E+01 -0.13998791930E+03  0.18964783376E+03  0.12500050315E+03 0.  0.
    9000005    1    3    3    0    0 -0.56603227177E+02  0.47924345784E+01 -0.14718466110E+03  0.15776950662E+03  0.10000000000E+01 0.  0.
    9000005    1    3    3    0    0  0.30778105331E+02  0.40178204753E+01  0.71967417956E+01  0.31878327146E+02  0.10000000000E+01 0.  0.
          4    1    1    2  501    0  0.25825121846E+02 -0.88102550537E+01 -0.66604844525E+03  0.66660835716E+03  0.12700000000E+01 0.  1.
<mgrwt>
<rscale>  1 0.12794406E+03</rscale>
<asrwt>0</asrwt>
<pdfrwt beam="2">  1       21 0.12786618E+00 0.12794406E+03</pdfrwt>
<pdfrwt beam="1">  1        4 0.38631384E-02 0.12794406E+03</pdfrwt>
<totfact> 0.67631303E+03</totfact>
</mgrwt>
</event>
<event>
 6    4  0.6376098E-003  0.1369035E+03  0.7818608E-02  0.1217557E+00
         21   -1    0    0  501  502  0.00000000000E+00  0.00000000000E+00  0.16417740362E+03  0.16417740362E+03  0.00000000000E+00 0. -1.
          4   -1    0    0  502    0 -0.00000000000E+00 -0.00000000000E+00 -0.69713688413E+02  0.69725255483E+02  0.12700000000E+01 0. -1.
         25    2    1    2    0    0  0.49078463473E+02  0.26614839906E+02  0.16345279000E+02  0.13787584902E+03  0.12500214525E+03 0.  0.
    9000005    1    3    3    0    0  0.46445138824E+02  0.74982911374E+02  0.14493647454E+02  0.89390456622E+02  0.10000000000E+01 0.  0.
    9000005    1    3    3    0    0  0.26333246487E+01 -0.48368071468E+02  0.18516315460E+01  0.48485392395E+02  0.10000000000E+01 0.  0.
          4    1    1    2  501    0 -0.49078463473E+02 -0.26614839906E+02  0.78118436207E+02  0.96026810087E+02  0.12700000000E+01 0.  1.
<mgrwt>
<rscale>  1 0.13690355E+03</rscale>
<asrwt>0</asrwt>
<pdfrwt beam="1">  1       21 0.25258062E-01 0.13690355E+03</pdfrwt>
<pdfrwt beam="2">  1        4 0.10726450E-01 0.13690355E+03</pdfrwt>
<totfact> 0.40700355E+04</totfact>
</mgrwt>
</event>
<event>
 6    4  0.6376098E-003  0.1338713E+03  0.7818608E-02  0.1221822E+00
         21   -1    0    0  501  502  0.00000000000E+00  0.00000000000E+00  0.17382640757E+02  0.17382640757E+02  0.00000000000E+00 0.  1.
          4   -1    0    0  502    0 -0.00000000000E+00 -0.00000000000E+00 -0.10319340859E+04  0.10319348674E+04  0.12700000000E+01 0. -1.
         25    2    1    2    0    0  0.31055689659E+02  0.36580463781E+02 -0.98254585347E+03  0.99162386042E+03  0.12497575837E+03 0.  0.
    9000005    1    3    3    0    0  0.20656134551E+02 -0.41385839674E+02 -0.20744203558E+03  0.21253861236E+03  0.10000000000E+01 0.  0.
    9000005    1    3    3    0    0  0.10399555108E+02  0.77966303455E+02 -0.77510381790E+03  0.77908524805E+03  0.10000000000E+01 0.  0.
          4    1    1    2  501    0 -0.31055689659E+02 -0.36580463781E+02 -0.32005591668E+02  0.57693647732E+02  0.12700000000E+01 0.  1.
<mgrwt>
<rscale>  1 0.13387131E+03</rscale>
<asrwt>0</asrwt>
<pdfrwt beam="1">  1       21 0.26742516E-02 0.13387131E+03</pdfrwt>
<pdfrwt beam="2">  1        4 0.15876277E+00 0.13387131E+03</pdfrwt>
<totfact> 0.85895924E+03</totfact>
</mgrwt>
</event>
<event>
 6    4  0.6376098E-003  0.1493558E+03  0.7818608E-02  0.1201267E+00
         21   -1    0    0  501  502  0.00000000000E+00  0.00000000000E+00  0.16976125204E+03  0.16976125204E+03  0.00000000000E+00 0. -1.
         -4   -1    0    0    0  501 -0.00000000000E+00 -0.00000000000E+00 -0.79489720711E+02  0.79499865401E+02  0.12700000000E+01 0.  1.
         25    2    1    2    0    0  0.33107448349E+01  0.81681539235E+02  0.45963604155E+02  0.15626842852E+03  0.12499733582E+03 0.  0.
    9000005    1    3    3    0    0 -0.77505225500E+01  0.65647584781E+02  0.87918325351E+02  0.11000139963E+03  0.10000000000E+01 0.  0.
    9000005    1    3    3    0    0  0.11061267385E+02  0.16033954454E+02 -0.41954721197E+02  0.46267028890E+02  0.10000000000E+01 0.  0.
         -4    1    1    2    0  502 -0.33107448349E+01 -0.81681539235E+02  0.44307927179E+02  0.92992688928E+02  0.12700000000E+01 0. -1.
<mgrwt>
<rscale>  1 0.14935585E+03</rscale>
<asrwt>0</asrwt>
<pdfrwt beam="1">  1       21 0.26117116E-01 0.14935585E+03</pdfrwt>
<pdfrwt beam="2">  1       -4 0.12230334E-01 0.14935585E+03</pdfrwt>
<totfact> 0.30812101E+04</totfact>
</mgrwt>
</event>
<event>
 6    4  0.6376098E-003  0.1359409E+03  0.7818608E-02  0.1218897E+00
         -4   -1    0    0    0  501 -0.00000000000E+00  0.00000000000E+00  0.53457605472E+03  0.53457756329E+03  0.12700000000E+01 0.  1.
         21   -1    0    0  501  502  0.00000000000E+00 -0.00000000000E+00 -0.21328819333E+02  0.21328819333E+02  0.00000000000E+00 0. -1.
         25    2    1    2    0    0  0.52783471583E+02 -0.82886300317E+01  0.46302012139E+03  0.48256354289E+03  0.12500057543E+03 0.  0.
    9000005    1    3    3    0    0 -0.23823488977E+00 -0.44186927198E+02  0.34902418862E+03  0.35181163360E+03  0.10000000000E+01 0.  0.
    9000005    1    3    3    0    0  0.53021706472E+02  0.35898297166E+02  0.11399593277E+03  0.13075190930E+03  0.10000000000E+01 0.  0.
         -4    1    1    2    0  502 -0.52783471583E+02  0.82886300317E+01  0.50227113993E+02  0.73342839733E+02  0.12700000000E+01 0. -1.
<mgrwt>
<rscale>  1 0.13594094E+03</rscale>
<asrwt>0</asrwt>
<pdfrwt beam="2">  1       21 0.32813572E-02 0.13594094E+03</pdfrwt>
<pdfrwt beam="1">  1       -4 0.82245484E-01 0.13594094E+03</pdfrwt>
<totfact> 0.29537864E+04</totfact>
</mgrwt>
</event>
<event>
 6    4  0.6376098E-003  0.1266736E+03  0.7818608E-02  0.1232477E+00
         21   -1    0    0  501  502  0.00000000000E+00  0.00000000000E+00  0.83850756101E+03  0.83850756101E+03  0.00000000000E+00 0.  1.
         -4   -1    0    0    0  501 -0.00000000000E+00 -0.00000000000E+00 -0.78905577134E+01  0.79921086722E+01  0.12700000000E+01 0.  1.
         25    2    1    2    0    0 -0.20530513749E+02 -0.11419589370E+00  0.52016724730E+03  0.53536918430E+03  0.12499873319E+03 0.  0.
    9000005    1    3    3    0    0  0.12676315187E+02  0.35661219190E+02  0.50218500126E+02  0.62891249596E+02  0.10000000000E+01 0.  0.
    9000005    1    3    3    0    0 -0.33206828936E+02 -0.35775415084E+02  0.46994874718E+03  0.47247793471E+03  0.10000000000E+01 0.  0.
         -4    1    1    2    0  502  0.20530513749E+02  0.11419589370E+00  0.31044975599E+03  0.31113048538E+03  0.12700000000E+01 0. -1.
<mgrwt>
<rscale>  1 0.12667359E+03</rscale>
<asrwt>0</asrwt>
<pdfrwt beam="1">  1       21 0.12900109E+00 0.12667359E+03</pdfrwt>
<pdfrwt beam="2">  1       -4 0.12218182E-02 0.12667359E+03</pdfrwt>
<totfact> 0.39146438E+04</totfact>
</mgrwt>
</event>
<event>
 6    4  0.6376098E-003  0.1299660E+03  0.7818608E-02  0.1227506E+00
         21   -1    0    0  501  502  0.00000000000E+00  0.00000000000E+00  0.21763906757E+03  0.21763906757E+03  0.00000000000E+00 0.  1.
         -4   -1    0    0    0  501 -0.00000000000E+00 -0.00000000000E+00 -0.13897303840E+03  0.13897884121E+03  0.12700000000E+01 0. -1.
         25    2    1    2    0    0 -0.34618886233E+02  0.85304836163E+01 -0.10651121321E+03  0.16803514067E+03  0.12497973246E+03 0.  0.
    9000005    1    3    3    0    0 -0.26357818250E+02  0.30822165015E+02  0.15721867598E+02  0.43507672426E+02  0.10000000000E+01 0.  0.
    9000005    1    3    3    0    0 -0.82610679837E+01 -0.22291681399E+02 -0.12223308080E+03  0.12452746824E+03  0.10000000000E+01 0.  0.
         -4    1    1    2    0  502  0.34618886233E+02 -0.85304836163E+01  0.18517724237E+03  0.18858276811E+03  0.12700000000E+01 0.  1.
<mgrwt>
<rscale>  1 0.12996603E+03</rscale>
<asrwt>0</asrwt>
<pdfrwt beam="1">  1       21 0.33482933E-01 0.12996603E+03</pdfrwt>
<pdfrwt beam="2">  1       -4 0.21381199E-01 0.12996603E+03</pdfrwt>
<totfact> 0.70485344E+03</totfact>
</mgrwt>
</event>
<event>
 6    4  0.6376098E-003  0.1281611E+03  0.7818608E-02  0.1230210E+00
          4   -1    0    0  502    0 -0.00000000000E+00  0.00000000000E+00  0.67055721236E+02  0.67067746722E+02  0.12700000000E+01 0. -1.
         21   -1    0    0  501  502  0.00000000000E+00 -0.00000000000E+00 -0.92556010632E+02  0.92556010632E+02  0.00000000000E+00 0. -1.
         25    2    1    2    0    0  0.11087974922E+01 -0.28287788481E+02 -0.13572428514E+02  0.12887777917E+03  0.12499537087E+03 0.  0.
    9000005    1    3    3    0    0 -0.44442848672E+02 -0.38340455298E+02 -0.43835173374E+02  0.73264450692E+02  0.10000000000E+01 0.  0.
    9000005    1    3    3    0    0  0.45551646164E+02  0.10052666817E+02  0.30262744860E+02  0.55613328482E+02  0.10000000000E+01 0.  0.
          4    1    1    2  501    0 -0.11087974922E+01  0.28287788481E+02 -0.11927860883E+02  0.30745978181E+02  0.12700000000E+01 0.  1.
<mgrwt>
<rscale>  1 0.12816111E+03</rscale>
<asrwt>0</asrwt>
<pdfrwt beam="2">  1       21 0.14239386E-01 0.12816111E+03</pdfrwt>
<pdfrwt beam="1">  1        4 0.10317860E-01 0.12816111E+03</pdfrwt>
<totfact> 0.12388967E+05</totfact>
</mgrwt>
</event>
<event>
 6    4  0.6376098E-003  0.1298016E+03  0.7818608E-02  0.1227750E+00
         21   -1    0    0  501  502  0.00000000000E+00  0.00000000000E+00  0.48298382400E+02  0.48298382400E+02  0.00000000000E+00 0.  1.
          4   -1    0    0  502    0 -0.00000000000E+00 -0.00000000000E+00 -0.18139158126E+03  0.18139602711E+03  0.12700000000E+01 0. -1.
         25    2    1    2    0    0 -0.16245734989E+02 -0.30999342039E+02 -0.14317074081E+03  0.19325194988E+03  0.12499428786E+03 0.  0.
    9000005    1    3    3    0    0 -0.37140635866E+02  0.30465428407E+02 -0.11065874820E+03  0.12063966062E+03  0.10000000000E+01 0.  0.
    9000005    1    3    3    0    0  0.20894900876E+02 -0.61464770446E+02 -0.32511992607E+02  0.72612289262E+02  0.10000000000E+01 0.  0.
          4    1    1    2  501    0  0.16245734989E+02  0.30999342039E+02  0.10077541949E+02  0.36442459631E+02  0.12700000000E+01 0.  1.
<mgrwt>
<rscale>  1 0.12980160E+03</rscale>
<asrwt>0</asrwt>
<pdfrwt beam="1">  1       21 0.74305203E-02 0.12980160E+03</pdfrwt>
<pdfrwt beam="2">  1        4 0.27908024E-01 0.12980160E+03</pdfrwt>
<totfact> 0.66725561E+04</totfact>
</mgrwt>
</event>
<event>
 6    4  0.6376098E-003  0.1270415E+03  0.7818608E-02  0.1231913E+00
          4   -1    0    0  502    0 -0.00000000000E+00  0.00000000000E+00  0.26937064536E+03  0.26937363917E+03  0.12700000000E+01 0. -1.
         21   -1    0    0  501  502  0.00000000000E+00 -0.00000000000E+00 -0.21497361265E+02  0.21497361265E+02  0.00000000000E+00 0. -1.
         25    2    1    2    0    0  0.15775031660E+02 -0.16305696401E+02  0.22639220971E+03  0.25960157742E+03  0.12499927609E+03 0.  0.
    9000005    1    3    3    0    0  0.48315176016E+02 -0.10219653757E+02  0.22049666173E+03  0.22596144669E+03  0.10000000000E+01 0.  0.
    9000005    1    3    3    0    0 -0.32540144356E+02 -0.60860426444E+01  0.58955479843E+01  0.33640130734E+02  0.10000000000E+01 0.  0.
          4    1    1    2  501    0 -0.15775031660E+02  0.16305696401E+02  0.21481074379E+02  0.31269423012E+02  0.12700000000E+01 0.  1.
<mgrwt>
<rscale>  1 0.12704151E+03</rscale>
<asrwt>0</asrwt>
<pdfrwt beam="2">  1       21 0.33072865E-02 0.12704151E+03</pdfrwt>
<pdfrwt beam="1">  1        4 0.41444751E-01 0.12704151E+03</pdfrwt>
<totfact> 0.12119111E+05</totfact>
</mgrwt>
</event>
<event>
 6    4  0.6376098E-003  0.1285244E+03  0.7818608E-02  0.1229662E+00
         -4   -1    0    0    0  501 -0.00000000000E+00  0.00000000000E+00  0.45105353633E+03  0.45105532425E+03  0.12700000000E+01 0. -1.
         21   -1    0    0  501  502  0.00000000000E+00 -0.00000000000E+00 -0.13928325444E+02  0.13928325444E+02  0.00000000000E+00 0. -1.
         25    2    1    2    0    0 -0.19555950207E+02 -0.22645455156E+02  0.34955595545E+03  0.37243507204E+03  0.12499306009E+03 0.  0.
    9000005    1    3    3    0    0  0.22385804145E+01 -0.14317391575E+02  0.34876646278E+03  0.34906882488E+03  0.10000000000E+01 0.  0.
    9000005    1    3    3    0    0 -0.21794530622E+02 -0.83280635808E+01  0.78949267534E+00  0.23366247168E+02  0.10000000000E+01 0.  0.
         -4    1    1    2    0  502  0.19555950207E+02  0.22645455156E+02  0.87569255435E+02  0.92548577651E+02  0.12700000000E+01 0.  1.
<mgrwt>
<rscale>  1 0.12852438E+03</rscale>
<asrwt>0</asrwt>
<pdfrwt beam="2">  1       21 0.21428197E-02 0.12852438E+03</pdfrwt>
<pdfrwt beam="1">  1       -4 0.69397432E-01 0.12852438E+03</pdfrwt>
<totfact> 0.85240573E+04</totfact>
</mgrwt>
</event>
<event>
 6    4  0.6376098E-003  0.1606565E+03  0.7818608E-02  0.1187958E+00
          4   -1    0    0  502    0 -0.00000000000E+00  0.00000000000E+00  0.60463866305E+03  0.60463999682E+03  0.12700000000E+01 0.  1.
         21   -1    0    0  501  502  0.00000000000E+00 -0.00000000000E+00 -0.41264718231E+02  0.41264718231E+02  0.00000000000E+00 0. -1.
         25    2    1    2    0    0  0.66160724728E+01 -0.10070729857E+03  0.50358946965E+03  0.52859517251E+03  0.12499908021E+03 0.  0.
    9000005    1    3    3    0    0 -0.59224820844E+02 -0.45209135195E+02  0.23827718722E+03  0.24965669080E+03  0.10000000000E+01 0.  0.
    9000005    1    3    3    0    0  0.65840893317E+02 -0.55498163379E+02  0.26531228243E+03  0.27893848171E+03  0.10000000000E+01 0.  0.
          4    1    1    2  501    0 -0.66160724728E+01  0.10070729857E+03  0.59784475167E+02  0.11730954254E+03  0.12700000000E+01 0. -1.
<mgrwt>
<rscale>  1 0.16065647E+03</rscale>
<asrwt>0</asrwt>
<pdfrwt beam="2">  1       21 0.63484186E-02 0.16065647E+03</pdfrwt>
<pdfrwt beam="1">  1        4 0.93022932E-01 0.16065647E+03</pdfrwt>
<totfact> 0.75166026E+03</totfact>
</mgrwt>
</event>
<event>
 6    4  0.6376098E-003  0.1292351E+03  0.7818608E-02  0.1228595E+00
         21   -1    0    0  501  502  0.00000000000E+00  0.00000000000E+00  0.25807763599E+02  0.25807763599E+02  0.00000000000E+00 0. -1.
         -4   -1    0    0    0  501 -0.00000000000E+00 -0.00000000000E+00 -0.42391169439E+03  0.42391359679E+03  0.12700000000E+01 0.  1.
         25    2    1    2    0    0  0.17832876831E+02  0.27329085363E+02 -0.39649412067E+03  0.41702434536E+03  0.12504729704E+03 0.  0.
    9000005    1    3    3    0    0  0.25000551773E+02  0.69917488494E+02 -0.15713720608E+03  0.17380041519E+03  0.10000000000E+01 0.  0.
    9000005    1    3    3    0    0 -0.71676749415E+01 -0.42588403131E+02 -0.23935691459E+03  0.24322393017E+03  0.10000000000E+01 0.  0.
         -4    1    1    2    0  502 -0.17832876831E+02 -0.27329085363E+02 -0.16098101213E+01  0.32697015024E+02  0.12700000000E+01 0. -1.
<mgrwt>
<rscale>  1 0.12923512E+03</rscale>
<asrwt>0</asrwt>
<pdfrwt beam="1">  1       21 0.39704251E-02 0.12923512E+03</pdfrwt>
<pdfrwt beam="2">  1       -4 0.65219735E-01 0.12923512E+03</pdfrwt>
<totfact> 0.35467921E+04</totfact>
</mgrwt>
</event>
<event>
 6    4  0.6376098E-003  0.1325504E+03  0.7818608E-02  0.1223720E+00
         21   -1    0    0  501  502  0.00000000000E+00  0.00000000000E+00  0.19589452326E+03  0.19589452326E+03  0.00000000000E+00 0.  1.
         -4   -1    0    0    0  501 -0.00000000000E+00 -0.00000000000E+00 -0.82904350654E+02  0.82914077558E+02  0.12700000000E+01 0. -1.
         25    2    1    2    0    0 -0.38911417028E+01  0.43935047716E+02 -0.24160604908E+02  0.13473439052E+03  0.12499676699E+03 0.  0.
    9000005    1    3    3    0    0  0.53985949404E+02  0.41708561332E+02  0.76341644163E+01  0.68653967750E+02  0.10000000000E+01 0.  0.
    9000005    1    3    3    0    0 -0.57877091107E+02  0.22264863835E+01 -0.31794769324E+02  0.66080422766E+02  0.10000000000E+01 0.  0.
         -4    1    1    2    0  502  0.38911417028E+01 -0.43935047716E+02  0.13715077752E+03  0.14407421031E+03  0.12700000000E+01 0.  1.
<mgrwt>
<rscale>  1 0.13255045E+03</rscale>
<asrwt>0</asrwt>
<pdfrwt beam="1">  1       21 0.30137619E-01 0.13255045E+03</pdfrwt>
<pdfrwt beam="2">  1       -4 0.12755580E-01 0.13255045E+03</pdfrwt>
<totfact> 0.21530878E+04</totfact>
</mgrwt>
</event>
<event>
 6    4  0.6376098E-003  0.1285794E+03  0.7818608E-02  0.1229579E+00
         -4   -1    0    0    0  501 -0.00000000000E+00  0.00000000000E+00  0.45346614198E+02  0.45364394840E+02  0.12700000000E+01 0. -1.
         21   -1    0    0  501  502  0.00000000000E+00 -0.00000000000E+00 -0.31854706527E+03  0.31854706527E+03  0.00000000000E+00 0.  1.
         25    2    1    2    0    0  0.21255206642E+02  0.21400154379E+02 -0.48861472416E+02  0.13755037542E+03  0.12499164722E+03 0.  0.
    9000005    1    3    3    0    0 -0.12780637620E+02  0.39014549421E+02 -0.78833027439E+02  0.88888278078E+02  0.10000000000E+01 0.  0.
    9000005    1    3    3    0    0  0.34035844262E+02 -0.17614395043E+02  0.29971555023E+02  0.48662097343E+02  0.10000000000E+01 0.  0.
         -4    1    1    2    0  502 -0.21255206642E+02 -0.21400154379E+02 -0.22433897866E+03  0.22636108469E+03  0.12700000000E+01 0.  1.
<mgrwt>
<rscale>  1 0.12857940E+03</rscale>
<asrwt>0</asrwt>
<pdfrwt beam="2">  1       21 0.49007240E-01 0.12857940E+03</pdfrwt>
<pdfrwt beam="1">  1       -4 0.69779648E-02 0.12857940E+03</pdfrwt>
<totfact> 0.22425212E+04</totfact>
</mgrwt>
</event>
<event>
 6    4  0.6376098E-003  0.1281248E+03  0.7818608E-02  0.1230265E+00
         21   -1    0    0  501  502  0.00000000000E+00  0.00000000000E+00  0.17077666377E+03  0.17077666377E+03  0.00000000000E+00 0. -1.
          4   -1    0    0  502    0 -0.00000000000E+00 -0.00000000000E+00 -0.40038065925E+02  0.40058202943E+02  0.12700000000E+01 0. -1.
         25    2    1    2    0    0 -0.11129776906E+02 -0.25848009262E+02  0.75207824523E+02  0.14856712866E+03  0.12499593326E+03 0.  0.
    9000005    1    3    3    0    0 -0.41664412834E+02 -0.58219887055E+02  0.75503795501E+02  0.10405432082E+03  0.10000000000E+01 0.  0.
    9000005    1    3    3    0    0  0.30534635928E+02  0.32371877793E+02 -0.29597097813E+00  0.44512807841E+02  0.10000000000E+01 0.  0.
          4    1    1    2  501    0  0.11129776906E+02  0.25848009262E+02  0.55530773321E+02  0.62267738055E+02  0.12700000000E+01 0.  1.
<mgrwt>
<rscale>  1 0.12812484E+03</rscale>
<asrwt>0</asrwt>
<pdfrwt beam="1">  1       21 0.26273332E-01 0.12812484E+03</pdfrwt>
<pdfrwt beam="2">  1        4 0.61616148E-02 0.12812484E+03</pdfrwt>
<totfact> 0.93976109E+04</totfact>
</mgrwt>
</event>
<event>
 6    4  0.6376098E-003  0.1268577E+03  0.7818608E-02  0.1232194E+00
         -4   -1    0    0    0  501 -0.00000000000E+00  0.00000000000E+00  0.19357441145E+02  0.19399057392E+02  0.12700000000E+01 0. -1.
         21   -1    0    0  501  502  0.00000000000E+00 -0.00000000000E+00 -0.31212127074E+03  0.31212127074E+03  0.00000000000E+00 0. -1.
         25    2    1    2    0    0 -0.14134419570E+02  0.16389463593E+02 -0.20465255263E+03  0.24078110639E+03  0.12499791024E+03 0.  0.
    9000005    1    3    3    0    0  0.29833236511E+02 -0.18146256955E+02 -0.73370913161E+01  0.35695119430E+02  0.10000000000E+01 0.  0.
    9000005    1    3    3    0    0 -0.43967656080E+02  0.34535720547E+02 -0.19731546131E+03  0.20508598696E+03  0.10000000000E+01 0.  0.
         -4    1    1    2    0  502  0.14134419570E+02 -0.16389463593E+02 -0.88111276968E+02  0.90739221742E+02  0.12700000000E+01 0.  1.
<mgrwt>
<rscale>  1 0.12685769E+03</rscale>
<asrwt>0</asrwt>
<pdfrwt beam="2">  1       21 0.48018659E-01 0.12685769E+03</pdfrwt>
<pdfrwt beam="1">  1       -4 0.29814677E-02 0.12685769E+03</pdfrwt>
<totfact> 0.90927893E+04</totfact>
</mgrwt>
</event>
<event>
 6    4  0.6376098E-003  0.1271470E+03  0.7818608E-02  0.1231752E+00
         21   -1    0    0  501  502  0.00000000000E+00  0.00000000000E+00  0.43706281900E+02  0.43706281900E+02  0.00000000000E+00 0.  1.
         -4   -1    0    0    0  501 -0.00000000000E+00 -0.00000000000E+00 -0.22896489022E+03  0.22896841234E+03  0.12700000000E+01 0. -1.
         25    2    1    2    0    0  0.22594333955E+02  0.57491712955E+01 -0.20557940823E+03  0.24172142775E+03  0.12499119429E+03 0.  0.
    9000005    1    3    3    0    0  0.67848028494E+02 -0.22447569713E+02 -0.14006127908E+03  0.15724315646E+03  0.10000000000E+01 0.  0.
    9000005    1    3    3    0    0 -0.45253694539E+02  0.28196741009E+02 -0.65518129149E+02  0.84478271290E+02  0.10000000000E+01 0.  0.
         -4    1    1    2    0  502 -0.22594333955E+02 -0.57491712955E+01  0.20320799914E+02  0.30953266493E+02  0.12700000000E+01 0.  1.
<mgrwt>
<rscale>  1 0.12714698E+03</rscale>
<asrwt>0</asrwt>
<pdfrwt beam="1">  1       21 0.67240434E-02 0.12714698E+03</pdfrwt>
<pdfrwt beam="2">  1       -4 0.35227058E-01 0.12714698E+03</pdfrwt>
<totfact> 0.50728483E+04</totfact>
</mgrwt>
</event>
<event>
 6    4  0.6376098E-003  0.1267352E+03  0.7818608E-02  0.1232382E+00
         -4   -1    0    0    0  501 -0.00000000000E+00  0.00000000000E+00  0.24797064216E+03  0.24797389434E+03  0.12700000000E+01 0. -1.
         21   -1    0    0  501  502  0.00000000000E+00 -0.00000000000E+00 -0.22768222056E+02  0.22768222056E+02  0.00000000000E+00 0. -1.
         25    2    1    2    0    0 -0.65508674373E+00  0.20906527156E+02  0.17270422356E+03  0.21421614399E+03  0.12499718194E+03 0.  0.
    9000005    1    3    3    0    0 -0.34725383735E+02  0.27539681252E+02  0.69613126900E+01  0.44874783491E+02  0.10000000000E+01 0.  0.
    9000005    1    3    3    0    0  0.34070296991E+02 -0.66331540966E+01  0.16574291087E+03  0.16934136050E+03  0.10000000000E+01 0.  0.
         -4    1    1    2    0  502  0.65508674373E+00 -0.20906527156E+02  0.52498196538E+02  0.56525972403E+02  0.12700000000E+01 0.  1.
<mgrwt>
<rscale>  1 0.12673519E+03</rscale>
<asrwt>0</asrwt>
<pdfrwt beam="2">  1       21 0.35028036E-02 0.12673519E+03</pdfrwt>
<pdfrwt beam="1">  1       -4 0.38152302E-01 0.12673519E+03</pdfrwt>
<totfact> 0.12964821E+05</totfact>
</mgrwt>
</event>
<event>
 6    4  0.6376098E-003  0.1271544E+03  0.7818608E-02  0.1231740E+00
          4   -1    0    0  502    0 -0.00000000000E+00  0.00000000000E+00  0.31874948204E+03  0.31875201208E+03  0.12700000000E+01 0. -1.
         21   -1    0    0  501  502  0.00000000000E+00 -0.00000000000E+00 -0.22924091709E+02  0.22924091709E+02  0.00000000000E+00 0.  1.
         25    2    1    2    0    0  0.22006744381E+02 -0.76914193832E+01  0.29137180499E+03  0.31790843556E+03  0.12499915971E+03 0.  0.
    9000005    1    3    3    0    0  0.46125407787E+02  0.29318695627E+02  0.25466025291E+03  0.26046109799E+03  0.10000000000E+01 0.  0.
    9000005    1    3    3    0    0 -0.24118663406E+02 -0.37010115010E+02  0.36711552082E+02  0.57447337570E+02  0.10000000000E+01 0.  0.
          4    1    1    2  501    0 -0.22006744381E+02  0.76914193832E+01  0.44535853444E+01  0.23767668223E+02  0.12700000000E+01 0.  1.
<mgrwt>
<rscale>  1 0.12715441E+03</rscale>
<asrwt>0</asrwt>
<pdfrwt beam="2">  1       21 0.35267836E-02 0.12715441E+03</pdfrwt>
<pdfrwt beam="1">  1        4 0.49041279E-01 0.12715441E+03</pdfrwt>
<totfact> 0.77846110E+04</totfact>
</mgrwt>
</event>
<event>
 6    4  0.6376098E-003  0.1425559E+03  0.7818608E-02  0.1209931E+00
          4   -1    0    0  502    0 -0.00000000000E+00  0.00000000000E+00  0.84768595316E+02  0.84778108329E+02  0.12700000000E+01 0. -1.
         21   -1    0    0  501  502  0.00000000000E+00 -0.00000000000E+00 -0.28631280807E+03  0.28631280807E+03  0.00000000000E+00 0.  1.
         25    2    1    2    0    0  0.27549433866E+02 -0.62748837710E+02  0.15580102581E+02  0.14340479660E+03  0.12500323256E+03 0.  0.
    9000005    1    3    3    0    0  0.87542437757E+01  0.37505101180E+02  0.15151304853E+02  0.41398447282E+02  0.10000000000E+01 0.  0.
    9000005    1    3    3    0    0  0.18795190090E+02 -0.10025393889E+03  0.42879772844E+00  0.10200634932E+03  0.10000000000E+01 0.  0.
          4    1    1    2  501    0 -0.27549433866E+02  0.62748837710E+02 -0.21712431533E+03  0.22768611980E+03  0.12700000000E+01 0.  1.
<mgrwt>
<rscale>  1 0.14255594E+03</rscale>
<asrwt>0</asrwt>
<pdfrwt beam="2">  1       21 0.44048125E-01 0.14255594E+03</pdfrwt>
<pdfrwt beam="1">  1        4 0.13042270E-01 0.14255594E+03</pdfrwt>
<totfact> 0.98367646E+03</totfact>
</mgrwt>
</event>
<event>
 6    4  0.6376098E-003  0.1268653E+03  0.7818608E-02  0.1232183E+00
          4   -1    0    0  502    0 -0.00000000000E+00  0.00000000000E+00  0.14877924120E+03  0.14878466155E+03  0.12700000000E+01 0.  1.
         21   -1    0    0  501  502  0.00000000000E+00 -0.00000000000E+00 -0.38199243040E+02  0.38199243040E+02  0.00000000000E+00 0.  1.
         25    2    1    2    0    0 -0.21721500563E+02 -0.24043590397E+00  0.10457597262E+03  0.16441085387E+03  0.12499165342E+03 0.  0.
    9000005    1    3    3    0    0  0.22342629297E+02  0.51071139697E+02  0.66530377701E+02  0.86802912111E+02  0.10000000000E+01 0.  0.
    9000005    1    3    3    0    0 -0.44064129860E+02 -0.51311575601E+02  0.38045594915E+02  0.77607941755E+02  0.10000000000E+01 0.  0.
          4    1    1    2  501    0  0.21721500563E+02  0.24043590397E+00  0.60040255439E+01  0.22573050722E+02  0.12700000000E+01 0. -1.
<mgrwt>
<rscale>  1 0.12686526E+03</rscale>
<asrwt>0</asrwt>
<pdfrwt beam="2">  1       21 0.58768067E-02 0.12686526E+03</pdfrwt>
<pdfrwt beam="1">  1        4 0.22891155E-01 0.12686526E+03</pdfrwt>
<totfact> 0.14304110E+05</totfact>
</mgrwt>
</event>
<event>
 6    4  0.6376098E-003  0.1322314E+03  0.7818608E-02  0.1224182E+00
         -4   -1    0    0    0  501 -0.00000000000E+00  0.00000000000E+00  0.94370924962E+03  0.94371010417E+03  0.12700000000E+01 0. -1.
         21   -1    0    0  501  502  0.00000000000E+00 -0.00000000000E+00 -0.81772436114E+01  0.81772436114E+01  0.00000000000E+00 0. -1.
         25    2    1    2    0    0 -0.42183993410E+02 -0.94172512643E+01  0.68365204054E+03  0.69632267138E+03  0.12496790076E+03 0.  0.
    9000005    1    3    3    0    0 -0.10517582580E+02 -0.28906696701E+02  0.63158156055E+03  0.63233099267E+03  0.10000000000E+01 0.  0.
    9000005    1    3    3    0    0 -0.31666410830E+02  0.19489445437E+02  0.52070479985E+02  0.63991678710E+02  0.10000000000E+01 0.  0.
         -4    1    1    2    0  502  0.42183993410E+02  0.94172512643E+01  0.25187996547E+03  0.25556467640E+03  0.12700000000E+01 0.  1.
<mgrwt>
<rscale>  1 0.13223143E+03</rscale>
<asrwt>0</asrwt>
<pdfrwt beam="2">  1       21 0.12580382E-02 0.13223143E+03</pdfrwt>
<pdfrwt beam="1">  1       -4 0.14519360E+00 0.13223143E+03</pdfrwt>
<totfact> 0.36299634E+04</totfact>
</mgrwt>
</event>
<event>
 6    4  0.6376098E-003  0.1323742E+03  0.7818608E-02  0.1223975E+00
         21   -1    0    0  501  502  0.00000000000E+00  0.00000000000E+00  0.55815011052E+03  0.55815011052E+03  0.00000000000E+00 0.  1.
          4   -1    0    0  502    0 -0.00000000000E+00 -0.00000000000E+00 -0.25604521474E+02  0.25635998516E+02  0.12700000000E+01 0. -1.
         25    2    1    2    0    0 -0.43300005401E+02  0.49168582655E+01  0.15543616180E+03  0.20416498347E+03  0.12499549638E+03 0.  0.
    9000005    1    3    3    0    0  0.43235201729E+02 -0.10420195995E+02  0.52443389962E+02  0.68768977772E+02  0.10000000000E+01 0.  0.
    9000005    1    3    3    0    0 -0.86535207130E+02  0.15337054261E+02  0.10299277184E+03  0.13539600570E+03  0.10000000000E+01 0.  0.
          4    1    1    2  501    0  0.43300005401E+02 -0.49168582655E+01  0.37710942724E+03  0.37962112557E+03  0.12700000000E+01 0.  1.
<mgrwt>
<rscale>  1 0.13237424E+03</rscale>
<asrwt>0</asrwt>
<pdfrwt beam="1">  1       21 0.85869239E-01 0.13237424E+03</pdfrwt>
<pdfrwt beam="2">  1        4 0.39416900E-02 0.13237424E+03</pdfrwt>
<totfact> 0.16848166E+04</totfact>
</mgrwt>
</event>
<event>
 6    4  0.6376098E-003  0.1338809E+03  0.7818608E-02  0.1221808E+00
         21   -1    0    0  501  502  0.00000000000E+00  0.00000000000E+00  0.66366497860E+02  0.66366497860E+02  0.00000000000E+00 0. -1.
         -4   -1    0    0    0  501 -0.00000000000E+00 -0.00000000000E+00 -0.31030655963E+03  0.31030915850E+03  0.12700000000E+01 0. -1.
         25    2    1    2    0    0 -0.44104017576E+02  0.18906452244E+02 -0.60784947195E+01  0.13401878693E+03  0.12498587460E+03 0.  0.
    9000005    1    3    3    0    0  0.29254994744E+02  0.22311483026E+02  0.34210224237E+02  0.50249342629E+02  0.10000000000E+01 0.  0.
    9000005    1    3    3    0    0 -0.73359012321E+02 -0.34050307825E+01 -0.40288718956E+02  0.83769444300E+02  0.10000000000E+01 0.  0.
         -4    1    1    2    0  502  0.44104017576E+02 -0.18906452244E+02 -0.23786156705E+03  0.24265686943E+03  0.12700000000E+01 0.  1.
<mgrwt>
<rscale>  1 0.13388087E+03</rscale>
<asrwt>0</asrwt>
<pdfrwt beam="1">  1       21 0.10210230E-01 0.13388087E+03</pdfrwt>
<pdfrwt beam="2">  1       -4 0.47740605E-01 0.13388087E+03</pdfrwt>
<totfact> 0.13601585E+04</totfact>
</mgrwt>
</event>
<event>
 6    4  0.6376098E-003  0.1310924E+03  0.7818608E-02  0.1225844E+00
         21   -1    0    0  501  502  0.00000000000E+00  0.00000000000E+00  0.40155321911E+02  0.40155321911E+02  0.00000000000E+00 0.  1.
         -4   -1    0    0    0  501 -0.00000000000E+00 -0.00000000000E+00 -0.27667757382E+03  0.27668048857E+03  0.12700000000E+01 0.  1.
         25    2    1    2    0    0 -0.55200904741E+01  0.39112100852E+02 -0.24365034013E+03  0.27667799215E+03  0.12499998105E+03 0.  0.
    9000005    1    3    3    0    0  0.33206311238E+01 -0.34607922348E+02 -0.18079432801E+02  0.39199499623E+02  0.10000000000E+01 0.  0.
    9000005    1    3    3    0    0 -0.88407215979E+01  0.73720023200E+02 -0.22557090733E+03  0.23747849252E+03  0.10000000000E+01 0.  0.
         -4    1    1    2    0  502  0.55200904741E+01 -0.39112100852E+02  0.71280882149E+01  0.40157818336E+02  0.12700000000E+01 0. -1.
<mgrwt>
<rscale>  1 0.13109242E+03</rscale>
<asrwt>0</asrwt>
<pdfrwt beam="1">  1       21 0.61777418E-02 0.13109242E+03</pdfrwt>
<pdfrwt beam="2">  1       -4 0.42567550E-01 0.13109242E+03</pdfrwt>
<totfact> 0.40626314E+04</totfact>
</mgrwt>
</event>
<event>
 6    4  0.6376098E-003  0.1772144E+03  0.7818608E-02  0.1170527E+00
         21   -1    0    0  501  502  0.00000000000E+00  0.00000000000E+00  0.90491855917E+02  0.90491855917E+02  0.00000000000E+00 0. -1.
          4   -1    0    0  502    0 -0.00000000000E+00 -0.00000000000E+00 -0.34448194886E+03  0.34448428990E+03  0.12700000000E+01 0.  1.
         25    2    1    2    0    0 -0.12537267831E+03  0.78301565349E+01 -0.25356211819E+03  0.30935204033E+03  0.12500126903E+03 0.  0.
    9000005    1    3    3    0    0 -0.49938917838E+02 -0.50141590783E+02 -0.16428744969E+03  0.17888387509E+03  0.10000000000E+01 0.  0.
    9000005    1    3    3    0    0 -0.75433760472E+02  0.57971747318E+02 -0.89274668498E+02  0.13046816524E+03  0.10000000000E+01 0.  0.
          4    1    1    2  501    0  0.12537267831E+03 -0.78301565349E+01 -0.42797475526E+00  0.12562410549E+03  0.12700000000E+01 0. -1.
<mgrwt>
<rscale>  1 0.17721438E+03</rscale>
<asrwt>0</asrwt>
<pdfrwt beam="1">  1       21 0.13921824E-01 0.17721438E+03</pdfrwt>
<pdfrwt beam="2">  1        4 0.52998088E-01 0.17721438E+03</pdfrwt>
<totfact> 0.64655555E+03</totfact>
</mgrwt>
</event>
<event>
 6    4  0.6376098E-003  0.1302501E+03  0.7818608E-02  0.1227085E+00
         21   -1    0    0  501  502  0.00000000000E+00  0.00000000000E+00  0.10193108321E+03  0.10193108321E+03  0.00000000000E+00 0.  1.
         -4   -1    0    0    0  501 -0.00000000000E+00 -0.00000000000E+00 -0.71972674578E+02  0.71983878653E+02  0.12700000000E+01 0.  1.
         25    2    1    2    0    0 -0.28621396265E+02 -0.22799671233E+02  0.64631598737E+01  0.13041037651E+03  0.12500433806E+03 0.  0.
    9000005    1    3    3    0    0  0.19950566453E+02 -0.32517575467E+02 -0.44980201548E+02  0.58988442490E+02  0.10000000000E+01 0.  0.
    9000005    1    3    3    0    0 -0.48571962718E+02  0.97179042340E+01  0.51443361422E+02  0.71421934021E+02  0.10000000000E+01 0.  0.
         -4    1    1    2    0  502  0.28621396265E+02  0.22799671233E+02  0.23495248761E+02  0.43504585355E+02  0.12700000000E+01 0. -1.
<mgrwt>
<rscale>  1 0.13025012E+03</rscale>
<asrwt>0</asrwt>
<pdfrwt beam="1">  1       21 0.15681705E-01 0.13025012E+03</pdfrwt>
<pdfrwt beam="2">  1       -4 0.11074190E-01 0.13025012E+03</pdfrwt>
<totfact> 0.92580055E+04</totfact>
</mgrwt>
</event>
<event>
 6    4  0.6376098E-003  0.1284457E+03  0.7818608E-02  0.1229780E+00
         21   -1    0    0  501  502  0.00000000000E+00  0.00000000000E+00  0.12707033346E+03  0.12707033346E+03  0.00000000000E+00 0.  1.
         -4   -1    0    0    0  501 -0.00000000000E+00 -0.00000000000E+00 -0.95056032612E+02  0.95064516177E+02  0.12700000000E+01 0. -1.
         25    2    1    2    0    0 -0.28438448665E+02  0.80249788352E+01 -0.47772980153E+02  0.13704214280E+03  0.12500058249E+03 0.  0.
    9000005    1    3    3    0    0  0.44907853064E+02 -0.18941995215E+02 -0.81759139177E+01  0.49430355228E+02  0.10000000000E+01 0.  0.
    9000005    1    3    3    0    0 -0.73346301729E+02  0.26966974050E+02 -0.39597066235E+02  0.87611787570E+02  0.10000000000E+01 0.  0.
         -4    1    1    2    0  502  0.28438448665E+02 -0.80249788352E+01  0.79787281002E+02  0.85092706841E+02  0.12700000000E+01 0.  1.
<mgrwt>
<rscale>  1 0.12844567E+03</rscale>
<asrwt>0</asrwt>
<pdfrwt beam="1">  1       21 0.19549282E-01 0.12844567E+03</pdfrwt>
<pdfrwt beam="2">  1       -4 0.14625146E-01 0.12844567E+03</pdfrwt>
<totfact> 0.38314793E+04</totfact>
</mgrwt>
</event>
<event>
 6    4  0.6376098E-003  0.1293259E+03  0.7818608E-02  0.1228459E+00
         21   -1    0    0  501  502  0.00000000000E+00  0.00000000000E+00  0.40833540178E+03  0.40833540178E+03  0.00000000000E+00 0.  1.
          4   -1    0    0  502    0 -0.00000000000E+00 -0.00000000000E+00 -0.26606404501E+02  0.26636697627E+02  0.12700000000E+01 0.  1.
         25    2    1    2    0    0 -0.34749291414E+01 -0.33013801898E+02  0.13852949024E+03  0.18951416131E+03  0.12499284549E+03 0.  0.
    9000005    1    3    3    0    0  0.82386268424E+01  0.27811091000E+02  0.12198830237E+03  0.12539329197E+03  0.10000000000E+01 0.  0.
    9000005    1    3    3    0    0 -0.11713555984E+02 -0.60824892899E+02  0.16541187869E+02  0.64120869349E+02  0.10000000000E+01 0.  0.
          4    1    1    2  501    0  0.34749291414E+01  0.33013801898E+02  0.24319950704E+03  0.24545793809E+03  0.12700000000E+01 0. -1.
<mgrwt>
<rscale>  1 0.12932594E+03</rscale>
<asrwt>0</asrwt>
<pdfrwt beam="1">  1       21 0.62820827E-01 0.12932594E+03</pdfrwt>
<pdfrwt beam="2">  1        4 0.40957755E-02 0.12932594E+03</pdfrwt>
<totfact> 0.31478280E+04</totfact>
</mgrwt>
</event>
<event>
 6    4  0.6376098E-003  0.1348555E+03  0.7818608E-02  0.1220424E+00
         21   -1    0    0  501  502  0.00000000000E+00  0.00000000000E+00  0.10511301769E+03  0.10511301769E+03  0.00000000000E+00 0.  1.
         -4   -1    0    0    0  501 -0.00000000000E+00 -0.00000000000E+00 -0.49571014666E+03  0.49571177352E+03  0.12700000000E+01 0. -1.
         25    2    1    2    0    0 -0.31465607905E+02 -0.39636289490E+02 -0.47972732766E+03  0.49832149788E+03  0.12499954571E+03 0.  0.
    9000005    1    3    3    0    0 -0.19046049464E+02 -0.85150202126E+02 -0.32939024955E+03  0.34075246943E+03  0.10000000000E+01 0.  0.
    9000005    1    3    3    0    0 -0.12419558441E+02  0.45513912636E+02 -0.15033707811E+03  0.15756902846E+03  0.10000000000E+01 0.  0.
         -4    1    1    2    0  502  0.31465607905E+02  0.39636289490E+02  0.89130198679E+02  0.10250329332E+03  0.12700000000E+01 0.  1.
<mgrwt>
<rscale>  1 0.13485550E+03</rscale>
<asrwt>0</asrwt>
<pdfrwt beam="1">  1       21 0.16171234E-01 0.13485550E+03</pdfrwt>
<pdfrwt beam="2">  1       -4 0.76263814E-01 0.13485550E+03</pdfrwt>
<totfact> 0.22378391E+03</totfact>
</mgrwt>
</event>
<event>
 6    4  0.6376098E-003  0.1269098E+03  0.7818608E-02  0.1232114E+00
         21   -1    0    0  501  502  0.00000000000E+00  0.00000000000E+00  0.32620225061E+03  0.32620225061E+03  0.00000000000E+00 0. -1.
         -4   -1    0    0    0  501 -0.00000000000E+00 -0.00000000000E+00 -0.67863687890E+02  0.67875570230E+02  0.12700000000E+01 0.  1.
         25    2    1    2    0    0 -0.48715062911E+01  0.21394128976E+02 -0.76903146464E+01  0.12714259120E+03  0.12499862891E+03 0.  0.
    9000005    1    3    3    0    0 -0.37386972309E+02  0.56973968495E+02  0.20659026633E+02  0.71215266383E+02  0.10000000000E+01 0.  0.
    9000005    1    3    3    0    0  0.32515466018E+02 -0.35579839519E+02 -0.28349341279E+02  0.55927324820E+02  0.10000000000E+01 0.  0.
         -4    1    1    2    0  502  0.48715062911E+01 -0.21394128976E+02  0.26602887737E+03  0.26693522964E+03  0.12700000000E+01 0. -1.
<mgrwt>
<rscale>  1 0.12690980E+03</rscale>
<asrwt>0</asrwt>
<pdfrwt beam="1">  1       21 0.50184961E-01 0.12690980E+03</pdfrwt>
<pdfrwt beam="2">  1       -4 0.10441672E-01 0.12690980E+03</pdfrwt>
<totfact> 0.10912612E+04</totfact>
</mgrwt>
</event>
<event>
 6    4  0.6376098E-003  0.1279373E+03  0.7818608E-02  0.1230549E+00
         21   -1    0    0  501  502  0.00000000000E+00  0.00000000000E+00  0.58126382048E+01  0.58126382048E+01  0.00000000000E+00 0. -1.
          4   -1    0    0  502    0 -0.00000000000E+00 -0.00000000000E+00 -0.16597409031E+04  0.16597413890E+04  0.12700000000E+01 0. -1.
         25    2    1    2    0    0 -0.26230501388E+02 -0.74143274932E+01 -0.16000775026E+04  0.16051840930E+04  0.12499978653E+03 0.  0.
    9000005    1    3    3    0    0 -0.35052244460E+02 -0.52660911227E+02 -0.47919225814E+03  0.48335085774E+03  0.10000000000E+01 0.  0.
    9000005    1    3    3    0    0  0.88217430719E+01  0.45246583734E+02 -0.11208852444E+04  0.11218332352E+04  0.10000000000E+01 0.  0.
          4    1    1    2  501    0  0.26230501388E+02  0.74143274932E+01 -0.53850762313E+02  0.60369934214E+02  0.12700000000E+01 0.  1.
<mgrwt>
<rscale>  1 0.12793732E+03</rscale>
<asrwt>0</asrwt>
<pdfrwt beam="1">  1       21 0.89425086E-03 0.12793732E+03</pdfrwt>
<pdfrwt beam="2">  1        4 0.25535580E+00 0.12793732E+03</pdfrwt>
<totfact> 0.12417705E+04</totfact>
</mgrwt>
</event>
<event>
 6    4  0.6376098E-003  0.1273885E+03  0.7818608E-02  0.1231383E+00
          4   -1    0    0  502    0 -0.00000000000E+00  0.00000000000E+00  0.18136305054E+02  0.18180716735E+02  0.12700000000E+01 0.  1.
         21   -1    0    0  501  502  0.00000000000E+00 -0.00000000000E+00 -0.46104081463E+03  0.46104081463E+03  0.00000000000E+00 0.  1.
         25    2    1    2    0    0  0.24540848602E+02  0.74782690000E+00 -0.43519473371E+03  0.45345593338E+03  0.12500005912E+03 0.  0.
    9000005    1    3    3    0    0 -0.46834236150E+02 -0.21922762508E+02 -0.15374540798E+03  0.16221190976E+03  0.10000000000E+01 0.  0.
    9000005    1    3    3    0    0  0.71375084752E+02  0.22670589408E+02 -0.28144932573E+03  0.29124402363E+03  0.10000000000E+01 0.  0.
          4    1    1    2  501    0 -0.24540848602E+02 -0.74782690000E+00 -0.77097758659E+01  0.25765597977E+02  0.12700000000E+01 0. -1.
<mgrwt>
<rscale>  1 0.12738849E+03</rscale>
<asrwt>0</asrwt>
<pdfrwt beam="2">  1       21 0.70929348E-01 0.12738849E+03</pdfrwt>
<pdfrwt beam="1">  1        4 0.27937519E-02 0.12738849E+03</pdfrwt>
<totfact> 0.44137666E+04</totfact>
</mgrwt>
</event>
<event>
 6    4  0.6376098E-003  0.1333472E+03  0.7818608E-02  0.1222572E+00
          4   -1    0    0  502    0 -0.00000000000E+00  0.00000000000E+00  0.56131840967E+02  0.56146206197E+02  0.12700000000E+01 0.  1.
         21   -1    0    0  501  502  0.00000000000E+00 -0.00000000000E+00 -0.15545138461E+03  0.15545138461E+03  0.00000000000E+00 0. -1.
         25    2    1    2    0    0 -0.33899821995E+02 -0.31743739362E+02 -0.46427562338E+02  0.14119846080E+03  0.12499849546E+03 0.  0.
    9000005    1    3    3    0    0  0.31570320829E+02 -0.54591258139E+02 -0.30430327329E+02  0.70027819071E+02  0.10000000000E+01 0.  0.
    9000005    1    3    3    0    0 -0.65470142824E+02  0.22847518777E+02 -0.15997235009E+02  0.71170641726E+02  0.10000000000E+01 0.  0.
          4    1    1    2  501    0  0.33899821995E+02  0.31743739362E+02 -0.52891981309E+02  0.70399130014E+02  0.12700000000E+01 0. -1.
<mgrwt>
<rscale>  1 0.13334724E+03</rscale>
<asrwt>0</asrwt>
<pdfrwt beam="2">  1       21 0.23915598E-01 0.13334724E+03</pdfrwt>
<pdfrwt beam="1">  1        4 0.86371719E-02 0.13334724E+03</pdfrwt>
<totfact> 0.64737509E+04</totfact>
</mgrwt>
</event>
<event>
 6    4  0.6376098E-003  0.2173155E+03  0.7818608E-02  0.1135900E+00
         21   -1    0    0  501  502  0.00000000000E+00  0.00000000000E+00  0.14966553039E+03  0.14966553039E+03  0.00000000000E+00 0. -1.
          4   -1    0    0  502    0 -0.00000000000E+00 -0.00000000000E+00 -0.27149977244E+03  0.27150274278E+03  0.12700000000E+01 0.  1.
         25    2    1    2    0    0  0.14317289262E+03 -0.10536618494E+03 -0.10850909154E+03  0.24289970430E+03  0.12500213315E+03 0.  0.
    9000005    1    3    3    0    0  0.91728345335E+01 -0.30397768443E+02  0.24211113782E+02  0.39941748212E+02  0.10000000000E+01 0.  0.
    9000005    1    3    3    0    0  0.13400005808E+03 -0.74968416498E+02 -0.13272020532E+03  0.20295795609E+03  0.10000000000E+01 0.  0.
          4    1    1    2  501    0 -0.14317289262E+03  0.10536618494E+03 -0.13325150512E+02  0.17826856887E+03  0.12700000000E+01 0. -1.
<mgrwt>
<rscale>  1 0.21731554E+03</rscale>
<asrwt>0</asrwt>
<pdfrwt beam="1">  1       21 0.23025467E-01 0.21731554E+03</pdfrwt>
<pdfrwt beam="2">  1        4 0.41769838E-01 0.21731554E+03</pdfrwt>
<totfact> 0.41729703E+03</totfact>
</mgrwt>
</event>
<event>
 6    4  0.6376098E-003  0.1284255E+03  0.7818608E-02  0.1229811E+00
         -4   -1    0    0    0  501 -0.00000000000E+00  0.00000000000E+00  0.43836339941E+02  0.43854732919E+02  0.12700000000E+01 0. -1.
         21   -1    0    0  501  502  0.00000000000E+00 -0.00000000000E+00 -0.17456236077E+03  0.17456236077E+03  0.00000000000E+00 0. -1.
         25    2    1    2    0    0 -0.21727671441E+02 -0.19909721201E+02 -0.59927707965E+02  0.14171961844E+03  0.12499852545E+03 0.  0.
    9000005    1    3    3    0    0  0.42398224157E+02  0.19541189920E+02 -0.20341095899E+01  0.46739759488E+02  0.10000000000E+01 0.  0.
    9000005    1    3    3    0    0 -0.64125895599E+02 -0.39450911120E+02 -0.57893598375E+02  0.94979858956E+02  0.10000000000E+01 0.  0.
         -4    1    1    2    0  502  0.21727671441E+02  0.19909721201E+02 -0.70798312866E+02  0.76697475246E+02  0.12700000000E+01 0.  1.
<mgrwt>
<rscale>  1 0.12842554E+03</rscale>
<asrwt>0</asrwt>
<pdfrwt beam="2">  1       21 0.26855748E-01 0.12842554E+03</pdfrwt>
<pdfrwt beam="1">  1       -4 0.67458224E-02 0.12842554E+03</pdfrwt>
<totfact> 0.77783048E+04</totfact>
</mgrwt>
</event>
<event>
 6    4  0.6376098E-003  0.1283836E+03  0.7818608E-02  0.1229874E+00
         -4   -1    0    0    0  501 -0.00000000000E+00  0.00000000000E+00  0.10377872037E+03  0.10378649094E+03  0.12700000000E+01 0. -1.
         21   -1    0    0  501  502  0.00000000000E+00 -0.00000000000E+00 -0.68247906505E+02  0.68247906505E+02  0.00000000000E+00 0. -1.
         25    2    1    2    0    0  0.22943713262E+02  0.18204981931E+02  0.51877213404E+02  0.13846874501E+03  0.12499805090E+03 0.  0.
    9000005    1    3    3    0    0  0.37103140525E+02  0.13033546898E+02  0.89588007092E+02  0.97844404011E+02  0.10000000000E+01 0.  0.
    9000005    1    3    3    0    0 -0.14159427263E+02  0.51714350338E+01 -0.37710793688E+02  0.40624340995E+02  0.10000000000E+01 0.  0.
         -4    1    1    2    0  502 -0.22943713262E+02 -0.18204981931E+02 -0.16346399543E+02  0.33565652435E+02  0.12700000000E+01 0.  1.
<mgrwt>
<rscale>  1 0.12838360E+03</rscale>
<asrwt>0</asrwt>
<pdfrwt beam="2">  1       21 0.10499678E-01 0.12838360E+03</pdfrwt>
<pdfrwt beam="1">  1       -4 0.15967464E-01 0.12838360E+03</pdfrwt>
<totfact> 0.10041897E+05</totfact>
</mgrwt>
</event>
<event>
 6    4  0.6376098E-003  0.1428491E+03  0.7818608E-02  0.1209546E+00
         21   -1    0    0  501  502  0.00000000000E+00  0.00000000000E+00  0.16777519802E+03  0.16777519802E+03  0.00000000000E+00 0.  1.
          4   -1    0    0  502    0 -0.00000000000E+00 -0.00000000000E+00 -0.76299661935E+02  0.76310230712E+02  0.12700000000E+01 0.  1.
         25    2    1    2    0    0  0.68144717141E+02  0.11694414598E+02  0.10005262459E+03  0.17440299799E+03  0.12500166484E+03 0.  0.
    9000005    1    3    3    0    0  0.70476553347E+02  0.46069273322E+02  0.10999889504E+03  0.13852826219E+03  0.10000000000E+01 0.  0.
    9000005    1    3    3    0    0 -0.23318362064E+01 -0.34374858725E+02 -0.99462704503E+01  0.35874735794E+02  0.10000000000E+01 0.  0.
          4    1    1    2  501    0 -0.68144717141E+02 -0.11694414598E+02 -0.85770885069E+01  0.69682430743E+02  0.12700000000E+01 0. -1.
<mgrwt>
<rscale>  1 0.14284914E+03</rscale>
<asrwt>0</asrwt>
<pdfrwt beam="1">  1       21 0.25811569E-01 0.14284914E+03</pdfrwt>
<pdfrwt beam="2">  1        4 0.11739592E-01 0.14284914E+03</pdfrwt>
<totfact> 0.33647957E+04</totfact>
</mgrwt>
</event>
<event>
 6    4  0.6376098E-003  0.1283739E+03  0.7818608E-02  0.1229889E+00
         21   -1    0    0  501  502  0.00000000000E+00  0.00000000000E+00  0.54166104685E+03  0.54166104685E+03  0.00000000000E+00 0.  1.
          4   -1    0    0  502    0 -0.00000000000E+00 -0.00000000000E+00 -0.16066287263E+02  0.16116404265E+02  0.12700000000E+01 0.  1.
         25    2    1    2    0    0 -0.28428706705E+02 -0.66575800089E+01  0.25383252894E+03  0.28444827659E+03  0.12500941794E+03 0.  0.
    9000005    1    3    3    0    0  0.24563490926E+02 -0.33037579618E+02  0.25209993093E+02  0.48284474785E+02  0.10000000000E+01 0.  0.
    9000005    1    3    3    0    0 -0.52992197631E+02  0.26379999609E+02  0.22862253584E+03  0.23616380181E+03  0.10000000000E+01 0.  0.
          4    1    1    2  501    0  0.28428706705E+02  0.66575800089E+01  0.27176223065E+03  0.27332917452E+03  0.12700000000E+01 0. -1.
<mgrwt>
<rscale>  1 0.12837394E+03</rscale>
<asrwt>0</asrwt>
<pdfrwt beam="1">  1       21 0.83332455E-01 0.12837394E+03</pdfrwt>
<pdfrwt beam="2">  1        4 0.24757066E-02 0.12837394E+03</pdfrwt>
<totfact> 0.37290615E+04</totfact>
</mgrwt>
</event>
<event>
 6    4  0.6376098E-003  0.1299154E+03  0.7818608E-02  0.1227581E+00
          4   -1    0    0  502    0 -0.00000000000E+00  0.00000000000E+00  0.45472670351E+03  0.45472847699E+03  0.12700000000E+01 0.  1.
         21   -1    0    0  501  502  0.00000000000E+00 -0.00000000000E+00 -0.54716910589E+02  0.54716910589E+02  0.00000000000E+00 0. -1.
         25    2    1    2    0    0 -0.35376097394E+02 -0.12852275790E+01  0.43837956737E+03  0.45722496468E+03  0.12499961265E+03 0.  0.
    9000005    1    3    3    0    0 -0.46302250586E+02 -0.15779179874E+02  0.43617814132E+03  0.43891371804E+03  0.10000000000E+01 0.  0.
    9000005    1    3    3    0    0  0.10926153191E+02  0.14493952295E+02  0.22014260558E+01  0.18311246636E+02  0.10000000000E+01 0.  0.
          4    1    1    2  501    0  0.35376097394E+02  0.12852275790E+01 -0.38369774447E+02  0.52220422900E+02  0.12700000000E+01 0. -1.
<mgrwt>
<rscale>  1 0.12991545E+03</rscale>
<asrwt>0</asrwt>
<pdfrwt beam="2">  1       21 0.84179866E-02 0.12991545E+03</pdfrwt>
<pdfrwt beam="1">  1        4 0.69959222E-01 0.12991545E+03</pdfrwt>
<totfact> 0.85533724E+03</totfact>
</mgrwt>
</event>
<event>
 6    4  0.6376098E-003  0.1340871E+03  0.7818608E-02  0.1221514E+00
         21   -1    0    0  501  502  0.00000000000E+00  0.00000000000E+00  0.53159656716E+02  0.53159656716E+02  0.00000000000E+00 0.  1.
          4   -1    0    0  502    0 -0.00000000000E+00 -0.00000000000E+00 -0.21035898826E+03  0.21036282191E+03  0.12700000000E+01 0. -1.
         25    2    1    2    0    0  0.36398391035E+02 -0.32110135283E+02 -0.16681548967E+03  0.21402513471E+03  0.12499378799E+03 0.  0.
    9000005    1    3    3    0    0  0.55807687380E+02  0.33847755081E+02 -0.78384302385E+02  0.10200621234E+03  0.10000000000E+01 0.  0.
    9000005    1    3    3    0    0 -0.19409296345E+02 -0.65957890364E+02 -0.88431187283E+02  0.11201892237E+03  0.10000000000E+01 0.  0.
          4    1    1    2  501    0 -0.36398391035E+02  0.32110135283E+02  0.96161581205E+01  0.49497343917E+02  0.12700000000E+01 0.  1.
<mgrwt>
<rscale>  1 0.13408710E+03</rscale>
<asrwt>0</asrwt>
<pdfrwt beam="1">  1       21 0.81784087E-02 0.13408710E+03</pdfrwt>
<pdfrwt beam="2">  1        4 0.32364383E-01 0.13408710E+03</pdfrwt>
<totfact> 0.42934582E+04</totfact>
</mgrwt>
</event>
<event>
 6    4  0.6376098E-003  0.1311092E+03  0.7818608E-02  0.1225819E+00
         21   -1    0    0  501  502  0.00000000000E+00  0.00000000000E+00  0.14329992318E+04  0.14329992318E+04  0.00000000000E+00 0.  1.
         -4   -1    0    0    0  501 -0.00000000000E+00 -0.00000000000E+00 -0.54775169790E+01  0.56228188887E+01  0.12700000000E+01 0. -1.
         25    2    1    2    0    0  0.10570348814E+02 -0.38137226579E+02  0.88519696967E+03  0.89485378899E+03  0.12499379279E+03 0.  0.
    9000005    1    3    3    0    0  0.25479581066E+02 -0.58981282634E+02  0.84320089695E+03  0.84564576116E+03  0.10000000000E+01 0.  0.
    9000005    1    3    3    0    0 -0.14909232251E+02  0.20844056055E+02  0.41996072721E+02  0.49208027832E+02  0.10000000000E+01 0.  0.
         -4    1    1    2    0  502 -0.10570348814E+02  0.38137226579E+02  0.54232474513E+03  0.54376826167E+03  0.12700000000E+01 0.  1.
<mgrwt>
<rscale>  1 0.13110922E+03</rscale>
<asrwt>0</asrwt>
<pdfrwt beam="1">  1       21 0.22046112E+00 0.13110922E+03</pdfrwt>
<pdfrwt beam="2">  1       -4 0.85391642E-03 0.13110922E+03</pdfrwt>
<totfact> 0.15666827E+04</totfact>
</mgrwt>
</event>
<event>
 6    4  0.6376098E-003  0.1379378E+03  0.7818608E-02  0.1216131E+00
         21   -1    0    0  501  502  0.00000000000E+00  0.00000000000E+00  0.26502047345E+02  0.26502047345E+02  0.00000000000E+00 0. -1.
         -4   -1    0    0    0  501 -0.00000000000E+00 -0.00000000000E+00 -0.84354176663E+03  0.84354272266E+03  0.12700000000E+01 0. -1.
         25    2    1    2    0    0 -0.58293083461E+02  0.97743710301E+00 -0.79628874279E+03  0.80814763850E+03  0.12501121854E+03 0.  0.
    9000005    1    3    3    0    0 -0.42208779204E+02  0.26040321418E+02 -0.75804511891E+03  0.75966642790E+03  0.10000000000E+01 0.  0.
    9000005    1    3    3    0    0 -0.16084304257E+02 -0.25062884315E+02 -0.38243623881E+02  0.48481210599E+02  0.10000000000E+01 0.  0.
         -4    1    1    2    0  502  0.58293083461E+02 -0.97743710301E+00 -0.20750976496E+02  0.61897131503E+02  0.12700000000E+01 0.  1.
<mgrwt>
<rscale>  1 0.13793783E+03</rscale>
<asrwt>0</asrwt>
<pdfrwt beam="1">  1       21 0.40772375E-02 0.13793783E+03</pdfrwt>
<pdfrwt beam="2">  1       -4 0.12977809E+00 0.13793783E+03</pdfrwt>
<totfact> 0.71334239E+03</totfact>
</mgrwt>
</event>
<event>
 6    4  0.6376098E-003  0.1399741E+03  0.7818608E-02  0.1213364E+00
         21   -1    0    0  501  502  0.00000000000E+00  0.00000000000E+00  0.60161048206E+02  0.60161048206E+02  0.00000000000E+00 0. -1.
         -4   -1    0    0    0  501 -0.00000000000E+00 -0.00000000000E+00 -0.21338938402E+03  0.21339316323E+03  0.12700000000E+01 0.  1.
         25    2    1    2    0    0  0.37105823438E+02  0.50894177365E+02 -0.15713225273E+03  0.21043596613E+03  0.12500276625E+03 0.  0.
    9000005    1    3    3    0    0  0.16307355659E+02  0.68131413014E+02 -0.16743875509E+03  0.18150635249E+03  0.10000000000E+01 0.  0.
    9000005    1    3    3    0    0  0.20798467779E+02 -0.17237235648E+02  0.10306502358E+02  0.28929613644E+02  0.10000000000E+01 0.  0.
         -4    1    1    2    0  502 -0.37105823438E+02 -0.50894177365E+02  0.39039169177E+01  0.63118245302E+02  0.12700000000E+01 0. -1.
<mgrwt>
<rscale>  1 0.13997411E+03</rscale>
<asrwt>0</asrwt>
<pdfrwt beam="1">  1       21 0.92555459E-02 0.13997411E+03</pdfrwt>
<pdfrwt beam="2">  1       -4 0.32830458E-01 0.13997411E+03</pdfrwt>
<totfact> 0.33868520E+04</totfact>
</mgrwt>
</event>
<event>
 6    4  0.6376098E-003  0.1350213E+03  0.7818608E-02  0.1220190E+00
         21   -1    0    0  501  502  0.00000000000E+00  0.00000000000E+00  0.33316763274E+02  0.33316763274E+02  0.00000000000E+00 0. -1.
          4   -1    0    0  502    0 -0.00000000000E+00 -0.00000000000E+00 -0.41387602685E+03  0.41387797538E+03  0.12700000000E+01 0. -1.
         25    2    1    2    0    0  0.32923681020E+02 -0.39015131408E+02 -0.11677745933E+03  0.17851537137E+03  0.12499845422E+03 0.  0.
    9000005    1    3    3    0    0  0.23384669368E+02 -0.77951217356E+02 -0.37373050772E+02  0.89559923921E+02  0.10000000000E+01 0.  0.
    9000005    1    3    3    0    0  0.95390116522E+01  0.38936085948E+02 -0.79404408554E+02  0.88955447445E+02  0.10000000000E+01 0.  0.
          4    1    1    2  501    0 -0.32923681020E+02  0.39015131408E+02 -0.26378180425E+03  0.26867936729E+03  0.12700000000E+01 0.  1.
<mgrwt>
<rscale>  1 0.13502134E+03</rscale>
<asrwt>0</asrwt>
<pdfrwt beam="1">  1       21 0.51256560E-02 0.13502134E+03</pdfrwt>
<pdfrwt beam="2">  1        4 0.63675245E-01 0.13502134E+03</pdfrwt>
<totfact> 0.24476595E+04</totfact>
</mgrwt>
</event>
<event>
 6    4  0.6376098E-003  0.1281257E+03  0.7818608E-02  0.1230264E+00
          4   -1    0    0  502    0 -0.00000000000E+00  0.00000000000E+00  0.38992610137E+02  0.39013286779E+02  0.12700000000E+01 0. -1.
         21   -1    0    0  501  502  0.00000000000E+00 -0.00000000000E+00 -0.20867507513E+03  0.20867507513E+03  0.00000000000E+00 0.  1.
         25    2    1    2    0    0  0.41740307627E+01  0.27822304805E+02 -0.74027513746E+02  0.14797384052E+03  0.12499872603E+03 0.  0.
    9000005    1    3    3    0    0  0.56279847642E+02  0.29370272839E+01 -0.30203172943E+01  0.56446166358E+02  0.10000000000E+01 0.  0.
    9000005    1    3    3    0    0 -0.52105816880E+02  0.24885277521E+02 -0.71007196452E+02  0.91527674164E+02  0.10000000000E+01 0.  0.
          4    1    1    2  501    0 -0.41740307627E+01 -0.27822304805E+02 -0.95654951249E+02  0.99714521389E+02  0.12700000000E+01 0.  1.
<mgrwt>
<rscale>  1 0.12812566E+03</rscale>
<asrwt>0</asrwt>
<pdfrwt beam="2">  1       21 0.32103858E-01 0.12812566E+03</pdfrwt>
<pdfrwt beam="1">  1        4 0.60007508E-02 0.12812566E+03</pdfrwt>
<totfact> 0.66747040E+04</totfact>
</mgrwt>
</event>
<event>
 6    4  0.6376098E-003  0.1274429E+03  0.7818608E-02  0.1231300E+00
         21   -1    0    0  501  502  0.00000000000E+00  0.00000000000E+00  0.33681535081E+03  0.33681535081E+03  0.00000000000E+00 0. -1.
          4   -1    0    0  502    0 -0.00000000000E+00 -0.00000000000E+00 -0.11008039061E+03  0.11008771638E+03  0.12700000000E+01 0.  1.
         25    2    1    2    0    0 -0.20276396691E+02  0.14289725234E+02 -0.72511548678E+02  0.14662750294E+03  0.12500548554E+03 0.  0.
    9000005    1    3    3    0    0  0.13644152735E+02  0.58524036079E+02 -0.67909636874E+02  0.90685966297E+02  0.10000000000E+01 0.  0.
    9000005    1    3    3    0    0 -0.33920549426E+02 -0.44234310845E+02 -0.46019118037E+01  0.55941536639E+02  0.10000000000E+01 0.  0.
          4    1    1    2  501    0  0.20276396691E+02 -0.14289725234E+02  0.29924650888E+03  0.30027556425E+03  0.12700000000E+01 0. -1.
<mgrwt>
<rscale>  1 0.12744293E+03</rscale>
<asrwt>0</asrwt>
<pdfrwt beam="1">  1       21 0.51817746E-01 0.12744293E+03</pdfrwt>
<pdfrwt beam="2">  1        4 0.16936192E-01 0.12744293E+03</pdfrwt>
<totfact> 0.44361812E+03</totfact>
</mgrwt>
</event>
<event>
 6    4  0.6376098E-003  0.1299741E+03  0.7818608E-02  0.1227494E+00
          4   -1    0    0  502    0 -0.00000000000E+00  0.00000000000E+00  0.79525734207E+03  0.79525835614E+03  0.12700000000E+01 0. -1.
         21   -1    0    0  501  502  0.00000000000E+00 -0.00000000000E+00 -0.91441334883E+01  0.91441334883E+01  0.00000000000E+00 0. -1.
         25    2    1    2    0    0  0.24160772467E+02 -0.26141167960E+02  0.68441305464E+03  0.69664517991E+03  0.12500469483E+03 0.  0.
    9000005    1    3    3    0    0 -0.43771812169E+02  0.16901901195E+02  0.18862655913E+03  0.19437753115E+03  0.10000000000E+01 0.  0.
    9000005    1    3    3    0    0  0.67932584636E+02 -0.43043069155E+02  0.49578649551E+03  0.50226764876E+03  0.10000000000E+01 0.  0.
          4    1    1    2  501    0 -0.24160772467E+02  0.26141167960E+02  0.10170015393E+03  0.10775730972E+03  0.12700000000E+01 0.  1.
<mgrwt>
<rscale>  1 0.12997414E+03</rscale>
<asrwt>0</asrwt>
<pdfrwt beam="2">  1       21 0.14067904E-02 0.12997414E+03</pdfrwt>
<pdfrwt beam="1">  1        4 0.12235409E+00 0.12997414E+03</pdfrwt>
<totfact> 0.46225991E+04</totfact>
</mgrwt>
</event>
<event>
 6    4  0.6376098E-003  0.1266157E+03  0.7818608E-02  0.1232566E+00
         -4   -1    0    0    0  501 -0.00000000000E+00  0.00000000000E+00  0.12789909920E+02  0.12852808866E+02  0.12700000000E+01 0.  1.
         21   -1    0    0  501  502  0.00000000000E+00 -0.00000000000E+00 -0.45696742469E+03  0.45696742469E+03  0.00000000000E+00 0.  1.
         25    2    1    2    0    0 -0.15054272549E+02 -0.13388344765E+02 -0.32223235278E+03  0.34621556403E+03  0.12500259476E+03 0.  0.
    9000005    1    3    3    0    0  0.17973831813E+02 -0.15341359456E+02 -0.31003959603E+03  0.31094045579E+03  0.10000000000E+01 0.  0.
    9000005    1    3    3    0    0 -0.33028104362E+02  0.19530146912E+01 -0.12192756758E+02  0.35275108242E+02  0.10000000000E+01 0.  0.
         -4    1    1    2    0  502  0.15054272549E+02  0.13388344765E+02 -0.12194516199E+03  0.12360466953E+03  0.12700000000E+01 0. -1.
<mgrwt>
<rscale>  1 0.12661567E+03</rscale>
<asrwt>0</asrwt>
<pdfrwt beam="2">  1       21 0.70302684E-01 0.12661567E+03</pdfrwt>
<pdfrwt beam="1">  1       -4 0.19726525E-02 0.12661567E+03</pdfrwt>
<totfact> 0.77075517E+04</totfact>
</mgrwt>
</event>
<event>
 6    4  0.6376098E-003  0.1307076E+03  0.7818608E-02  0.1226410E+00
         21   -1    0    0  501  502  0.00000000000E+00  0.00000000000E+00  0.12251996943E+03  0.12251996943E+03  0.00000000000E+00 0. -1.
          4   -1    0    0  502    0 -0.00000000000E+00 -0.00000000000E+00 -0.16140166035E+03  0.16140665681E+03  0.12700000000E+01 0. -1.
         25    2    1    2    0    0 -0.36473094468E+02  0.11368654928E+02 -0.13047071179E+03  0.18468099873E+03  0.12499972689E+03 0.  0.
    9000005    1    3    3    0    0 -0.73630629383E+02  0.28070369313E+02 -0.11831128028E+03  0.14215475461E+03  0.10000000000E+01 0.  0.
    9000005    1    3    3    0    0  0.37157534914E+02 -0.16701714385E+02 -0.12159431507E+02  0.42526244119E+02  0.10000000000E+01 0.  0.
          4    1    1    2  501    0  0.36473094468E+02 -0.11368654928E+02  0.91589020871E+02  0.99245627506E+02  0.12700000000E+01 0.  1.
<mgrwt>
<rscale>  1 0.13070755E+03</rscale>
<asrwt>0</asrwt>
<pdfrwt beam="1">  1       21 0.18849226E-01 0.13070755E+03</pdfrwt>
<pdfrwt beam="2">  1        4 0.24831915E-01 0.13070755E+03</pdfrwt>
<totfact> 0.15924868E+04</totfact>
</mgrwt>
</event>
<event>
 6    4  0.6376098E-003  0.1333417E+03  0.7818608E-02  0.1222580E+00
         -4   -1    0    0    0  501 -0.00000000000E+00  0.00000000000E+00  0.78936797053E+02  0.78947012794E+02  0.12700000000E+01 0.  1.
         21   -1    0    0  501  502  0.00000000000E+00 -0.00000000000E+00 -0.22037348038E+03  0.22037348038E+03  0.00000000000E+00 0. -1.
         25    2    1    2    0    0  0.41865887152E-01  0.46434032688E+02  0.16809968785E+02  0.13439706564E+03  0.12499550015E+03 0.  0.
    9000005    1    3    3    0    0  0.14067159955E+02 -0.24055931705E+02  0.48419505394E+02  0.55875051159E+02  0.10000000000E+01 0.  0.
    9000005    1    3    3    0    0 -0.14025294067E+02  0.70489964393E+02 -0.31609536609E+02  0.78522014483E+02  0.10000000000E+01 0.  0.
         -4    1    1    2    0  502 -0.41865887152E-01 -0.46434032688E+02 -0.15824665211E+03  0.16492342753E+03  0.12700000000E+01 0. -1.
<mgrwt>
<rscale>  1 0.13334165E+03</rscale>
<asrwt>0</asrwt>
<pdfrwt beam="2">  1       21 0.33903613E-01 0.13334165E+03</pdfrwt>
<pdfrwt beam="1">  1       -4 0.12145190E-01 0.13334165E+03</pdfrwt>
<totfact> 0.18636721E+04</totfact>
</mgrwt>
</event>
<event>
 6    4  0.6376098E-003  0.1271485E+03  0.7818608E-02  0.1231749E+00
         21   -1    0    0  501  502  0.00000000000E+00  0.00000000000E+00  0.29643668447E+03  0.29643668447E+03  0.00000000000E+00 0.  1.
         -4   -1    0    0    0  501 -0.00000000000E+00 -0.00000000000E+00 -0.19131837305E+02  0.19173943222E+02  0.12700000000E+01 0.  1.
         25    2    1    2    0    0  0.49553545894E+01 -0.22729949153E+02  0.24072548831E+03  0.27224164659E+03  0.12500218914E+03 0.  0.
    9000005    1    3    3    0    0 -0.17224852284E+02 -0.15736230634E+02  0.24702485188E+03  0.24812618149E+03  0.10000000000E+01 0.  0.
    9000005    1    3    3    0    0  0.22180206874E+02 -0.69937185186E+01 -0.62993635754E+01  0.24115465103E+02  0.10000000000E+01 0.  0.
         -4    1    1    2    0  502 -0.49553545894E+01  0.22729949153E+02  0.36579358860E+02  0.43368981106E+02  0.12700000000E+01 0. -1.
<mgrwt>
<rscale>  1 0.12714855E+03</rscale>
<asrwt>0</asrwt>
<pdfrwt beam="1">  1       21 0.45605640E-01 0.12714855E+03</pdfrwt>
<pdfrwt beam="2">  1       -4 0.29468080E-02 0.12714855E+03</pdfrwt>
<totfact> 0.10291897E+05</totfact>
</mgrwt>
</event>
<event>
 6    4  0.6376098E-003  0.1277873E+03  0.7818608E-02  0.1230776E+00
         21   -1    0    0  501  502  0.00000000000E+00  0.00000000000E+00  0.10171633101E+03  0.10171633101E+03  0.00000000000E+00 0. -1.
         -4   -1    0    0    0  501 -0.00000000000E+00 -0.00000000000E+00 -0.13610394399E+03  0.13610986911E+03  0.12700000000E+01 0.  1.
         25    2    1    2    0    0 -0.11405490245E+02 -0.23988165305E+02 -0.10307121375E+03  0.16417453892E+03  0.12499634733E+03 0.  0.
    9000005    1    3    3    0    0  0.48645043681E+02  0.20720760039E+02 -0.44441336850E+02  0.69077656245E+02  0.10000000000E+01 0.  0.
    9000005    1    3    3    0    0 -0.60050533926E+02 -0.44708925344E+02 -0.58629876897E+02  0.95096882678E+02  0.10000000000E+01 0.  0.
         -4    1    1    2    0  502  0.11405490245E+02  0.23988165305E+02  0.68683600774E+02  0.73651661201E+02  0.12700000000E+01 0. -1.
<mgrwt>
<rscale>  1 0.12778734E+03</rscale>
<asrwt>0</asrwt>
<pdfrwt beam="1">  1       21 0.15648666E-01 0.12778734E+03</pdfrwt>
<pdfrwt beam="2">  1       -4 0.20940134E-01 0.12778734E+03</pdfrwt>
<totfact> 0.30439193E+04</totfact>
</mgrwt>
</event>
<event>
 6    4  0.6376098E-003  0.1279260E+03  0.7818608E-02  0.1230566E+00
         -4   -1    0    0    0  501 -0.00000000000E+00  0.00000000000E+00  0.59527094483E+02  0.59540640554E+02  0.12700000000E+01 0.  1.
         21   -1    0    0  501  502  0.00000000000E+00 -0.00000000000E+00 -0.17739161891E+03  0.17739161891E+03  0.00000000000E+00 0. -1.
         25    2    1    2    0    0  0.26332519761E+02  0.68546162995E+01 -0.12996863430E+02  0.12858454798E+03  0.12499872062E+03 0.  0.
    9000005    1    3    3    0    0  0.31967485252E+02 -0.55091978163E+02 -0.17932398841E+02  0.66178675564E+02  0.10000000000E+01 0.  0.
    9000005    1    3    3    0    0 -0.56349654917E+01  0.61946594463E+02  0.49355354113E+01  0.62405872411E+02  0.10000000000E+01 0.  0.
         -4    1    1    2    0  502 -0.26332519761E+02 -0.68546162995E+01 -0.10486766099E+03  0.10834771148E+03  0.12700000000E+01 0. -1.
<mgrwt>
<rscale>  1 0.12792602E+03</rscale>
<asrwt>0</asrwt>
<pdfrwt beam="2">  1       21 0.27291018E-01 0.12792602E+03</pdfrwt>
<pdfrwt beam="1">  1       -4 0.91594064E-02 0.12792602E+03</pdfrwt>
<totfact> 0.45479642E+04</totfact>
</mgrwt>
</event>
<event>
 6    4  0.6376098E-003  0.1332942E+03  0.7818608E-02  0.1222648E+00
         -4   -1    0    0    0  501 -0.00000000000E+00  0.00000000000E+00  0.35479732546E+03  0.35479959844E+03  0.12700000000E+01 0.  1.
         21   -1    0    0  501  502  0.00000000000E+00 -0.00000000000E+00 -0.39985176879E+02  0.39985176879E+02  0.00000000000E+00 0. -1.
         25    2    1    2    0    0  0.14428295750E+02  0.43966804709E+02  0.32147775075E+03  0.34801620909E+03  0.12500432763E+03 0.  0.
    9000005    1    3    3    0    0  0.46978881526E+02 -0.25731489439E+02  0.16802648813E+03  0.17636049890E+03  0.10000000000E+01 0.  0.
    9000005    1    3    3    0    0 -0.32550585776E+02  0.69698294148E+02  0.15345126262E+03  0.17165571019E+03  0.10000000000E+01 0.  0.
         -4    1    1    2    0  502 -0.14428295750E+02 -0.43966804709E+02 -0.66656021731E+01  0.46768566226E+02  0.12700000000E+01 0. -1.
<mgrwt>
<rscale>  1 0.13329418E+03</rscale>
<asrwt>0</asrwt>
<pdfrwt beam="2">  1       21 0.61515659E-02 0.13329418E+03</pdfrwt>
<pdfrwt beam="1">  1       -4 0.54585928E-01 0.13329418E+03</pdfrwt>
<totfact> 0.24783359E+04</totfact>
</mgrwt>
</event>
<event>
 6    4  0.6376098E-003  0.1268530E+03  0.7818608E-02  0.1232201E+00
          4   -1    0    0  502    0 -0.00000000000E+00  0.00000000000E+00  0.10904613118E+03  0.10905352642E+03  0.12700000000E+01 0. -1.
         21   -1    0    0  501  502  0.00000000000E+00 -0.00000000000E+00 -0.44008463019E+03  0.44008463019E+03  0.00000000000E+00 0.  1.
         25    2    1    2    0    0  0.21219966232E+02  0.37868972963E+01  0.71771904569E+02  0.14574943380E+03  0.12500825417E+03 0.  0.
    9000005    1    3    3    0    0  0.57041428501E+02  0.41645540771E+02  0.22791440597E+02  0.74219440822E+02  0.10000000000E+01 0.  0.
    9000005    1    3    3    0    0 -0.35821462269E+02 -0.37858643474E+02  0.48980463971E+02  0.71529992979E+02  0.10000000000E+01 0.  0.
          4    1    1    2  501    0 -0.21219966232E+02 -0.37868972963E+01 -0.40281040358E+03  0.40338872281E+03  0.12700000000E+01 0.  1.
<mgrwt>
<rscale>  1 0.12685303E+03</rscale>
<asrwt>0</asrwt>
<pdfrwt beam="2">  1       21 0.67705327E-01 0.12685303E+03</pdfrwt>
<pdfrwt beam="1">  1        4 0.16777038E-01 0.12685303E+03</pdfrwt>
<totfact> 0.25589595E+03</totfact>
</mgrwt>
</event>
<event>
 6    4  0.6376098E-003  0.1282366E+03  0.7818608E-02  0.1230096E+00
         -4   -1    0    0    0  501 -0.00000000000E+00  0.00000000000E+00  0.55752497231E+02  0.55766960178E+02  0.12700000000E+01 0.  1.
         21   -1    0    0  501  502  0.00000000000E+00 -0.00000000000E+00 -0.12006195538E+03  0.12006195538E+03  0.00000000000E+00 0.  1.
         25    2    1    2    0    0  0.21884250418E+02  0.18466780714E+02 -0.31087104741E+02  0.13195090202E+03  0.12499876022E+03 0.  0.
    9000005    1    3    3    0    0 -0.16606805120E+02 -0.66410644894E+01 -0.69670902908E+02  0.71936947571E+02  0.10000000000E+01 0.  0.
    9000005    1    3    3    0    0  0.38491055538E+02  0.25107845204E+02  0.38583798167E+02  0.60013954445E+02  0.10000000000E+01 0.  0.
         -4    1    1    2    0  502 -0.21884250418E+02 -0.18466780714E+02 -0.33222353408E+02  0.43878013541E+02  0.12700000000E+01 0. -1.
<mgrwt>
<rscale>  1 0.12823663E+03</rscale>
<asrwt>0</asrwt>
<pdfrwt beam="2">  1       21 0.18471070E-01 0.12823663E+03</pdfrwt>
<pdfrwt beam="1">  1       -4 0.85789364E-02 0.12823663E+03</pdfrwt>
<totfact> 0.10527555E+05</totfact>
</mgrwt>
</event>
<event>
 6    4  0.6376098E-003  0.1318081E+03  0.7818608E-02  0.1224797E+00
         21   -1    0    0  501  502  0.00000000000E+00  0.00000000000E+00  0.27680469860E+03  0.27680469860E+03  0.00000000000E+00 0.  1.
         -4   -1    0    0    0  501 -0.00000000000E+00 -0.00000000000E+00 -0.28899823473E+02  0.28927715029E+02  0.12700000000E+01 0.  1.
         25    2    1    2    0    0  0.78516220818E+01  0.41061118632E+02  0.15253371326E+03  0.20159339669E+03  0.12500280187E+03 0.  0.
    9000005    1    3    3    0    0 -0.30708950157E+02  0.32197085012E+01  0.14352420223E+03  0.14681145312E+03  0.10000000000E+01 0.  0.
    9000005    1    3    3    0    0  0.38560572238E+02  0.37841410130E+02  0.90095110277E+01  0.54781943567E+02  0.10000000000E+01 0.  0.
         -4    1    1    2    0  502 -0.78516220818E+01 -0.41061118632E+02  0.95371161868E+02  0.10413901694E+03  0.12700000000E+01 0. -1.
<mgrwt>
<rscale>  1 0.13180806E+03</rscale>
<asrwt>0</asrwt>
<pdfrwt beam="1">  1       21 0.42585337E-01 0.13180806E+03</pdfrwt>
<pdfrwt beam="2">  1       -4 0.44484965E-02 0.13180806E+03</pdfrwt>
<totfact> 0.61982120E+04</totfact>
</mgrwt>
</event>
<event>
 6    4  0.6376098E-003  0.1361718E+03  0.7818608E-02  0.1218575E+00
         21   -1    0    0  501  502  0.00000000000E+00  0.00000000000E+00  0.43398155925E+03  0.43398155925E+03  0.00000000000E+00 0.  1.
          4   -1    0    0  502    0 -0.00000000000E+00 -0.00000000000E+00 -0.68854649065E+02  0.68866360422E+02  0.12700000000E+01 0. -1.
         25    2    1    2    0    0 -0.92444158972E+01 -0.53211546368E+02  0.24750816745E+01  0.13619428269E+03  0.12500331482E+03 0.  0.
    9000005    1    3    3    0    0 -0.58366344515E+02 -0.25981560232E+02  0.33370699534E+02  0.72085194260E+02  0.10000000000E+01 0.  0.
    9000005    1    3    3    0    0  0.49121928618E+02 -0.27229986136E+02 -0.30895617859E+02  0.64109088427E+02  0.10000000000E+01 0.  0.
          4    1    1    2  501    0  0.92444158972E+01  0.53211546368E+02  0.36265182851E+03  0.36665363699E+03  0.12700000000E+01 0.  1.
<mgrwt>
<rscale>  1 0.13617179E+03</rscale>
<asrwt>0</asrwt>
<pdfrwt beam="1">  1       21 0.66766392E-01 0.13617179E+03</pdfrwt>
<pdfrwt beam="2">  1        4 0.10594067E-01 0.13617179E+03</pdfrwt>
<totfact> 0.58533613E+03</totfact>
</mgrwt>
</event>
<event>
 6    4  0.6376098E-003  0.1268018E+03  0.7818608E-02  0.1232280E+00
         21   -1    0    0  501  502  0.00000000000E+00  0.00000000000E+00  0.82246392007E+01  0.82246392007E+01  0.00000000000E+00 0.  1.
          4   -1    0    0  502    0 -0.00000000000E+00 -0.00000000000E+00 -0.71167838115E+03  0.71167951432E+03  0.12700000000E+01 0. -1.
         25    2    1    2    0    0  0.20172520854E+02  0.68427351984E+01 -0.65173992441E+03  0.66396056186E+03  0.12499978007E+03 0.  0.
    9000005    1    3    3    0    0  0.54013976714E+02  0.48418333578E+02 -0.34134521360E+03  0.34896905243E+03  0.10000000000E+01 0.  0.
    9000005    1    3    3    0    0 -0.33841455860E+02 -0.41575598380E+02 -0.31039471081E+03  0.31499150944E+03  0.10000000000E+01 0.  0.
          4    1    1    2  501    0 -0.20172520854E+02 -0.68427351984E+01 -0.51713817544E+02  0.55943591658E+02  0.12700000000E+01 0.  1.
<mgrwt>
<rscale>  1 0.12680181E+03</rscale>
<asrwt>0</asrwt>
<pdfrwt beam="1">  1       21 0.12653282E-02 0.12680181E+03</pdfrwt>
<pdfrwt beam="2">  1        4 0.10949669E+00 0.12680181E+03</pdfrwt>
<totfact> 0.71001550E+04</totfact>
</mgrwt>
</event>
<event>
 6    4  0.6376098E-003  0.1421562E+03  0.7818608E-02  0.1210457E+00
         -4   -1    0    0    0  501 -0.00000000000E+00  0.00000000000E+00  0.92818404108E+02  0.92827092173E+02  0.12700000000E+01 0. -1.
         21   -1    0    0  501  502  0.00000000000E+00 -0.00000000000E+00 -0.66986001051E+03  0.66986001051E+03  0.00000000000E+00 0.  1.
         25    2    1    2    0    0  0.58551804541E+02  0.33995782401E+02  0.35412592949E+02  0.14650061611E+03  0.12499740695E+03 0.  0.
    9000005    1    3    3    0    0 -0.90753593638E+01 -0.40074186822E+02  0.35324923328E+01  0.41252649601E+02  0.10000000000E+01 0.  0.
    9000005    1    3    3    0    0  0.67627163905E+02  0.74069969223E+02  0.31880100616E+02  0.10524796651E+03  0.10000000000E+01 0.  0.
         -4    1    1    2    0  502 -0.58551804541E+02 -0.33995782401E+02 -0.61245419935E+03  0.61618648658E+03  0.12700000000E+01 0.  1.
<mgrwt>
<rscale>  1 0.14215618E+03</rscale>
<asrwt>0</asrwt>
<pdfrwt beam="2">  1       21 0.10305539E+00 0.14215618E+03</pdfrwt>
<pdfrwt beam="1">  1       -4 0.14280515E-01 0.14215618E+03</pdfrwt>
<totfact> 0.13178824E+03</totfact>
</mgrwt>
</event>
<event>
 6    4  0.6376098E-003  0.1288763E+03  0.7818608E-02  0.1229133E+00
         21   -1    0    0  501  502  0.00000000000E+00  0.00000000000E+00  0.73628011266E+02  0.73628011266E+02  0.00000000000E+00 0. -1.
         -4   -1    0    0    0  501 -0.00000000000E+00 -0.00000000000E+00 -0.92481733244E+02  0.92490452933E+02  0.12700000000E+01 0. -1.
         25    2    1    2    0    0 -0.76771135999E+01  0.30392309531E+02  0.12041414703E+01  0.12888190504E+03  0.12500585962E+03 0.  0.
    9000005    1    3    3    0    0 -0.34188651693E+01 -0.45619645328E+02  0.20798179278E+02  0.50263355839E+02  0.10000000000E+01 0.  0.
    9000005    1    3    3    0    0 -0.42582484306E+01  0.76011954858E+02 -0.19594037808E+02  0.78618549203E+02  0.10000000000E+01 0.  0.
         -4    1    1    2    0  502  0.76771135999E+01 -0.30392309531E+02 -0.20057863448E+02  0.37236559158E+02  0.12700000000E+01 0.  1.
<mgrwt>
<rscale>  1 0.12887628E+03</rscale>
<asrwt>0</asrwt>
<pdfrwt beam="1">  1       21 0.11327386E-01 0.12887628E+03</pdfrwt>
<pdfrwt beam="2">  1       -4 0.14229472E-01 0.12887628E+03</pdfrwt>
<totfact> 0.10749783E+05</totfact>
</mgrwt>
</event>
<event>
 6    4  0.6376098E-003  0.1283677E+03  0.7818608E-02  0.1229898E+00
          4   -1    0    0  502    0 -0.00000000000E+00  0.00000000000E+00  0.26427441988E+02  0.26457940019E+02  0.12700000000E+01 0.  1.
         21   -1    0    0  501  502  0.00000000000E+00 -0.00000000000E+00 -0.61553542824E+03  0.61553542824E+03  0.00000000000E+00 0. -1.
         25    2    1    2    0    0 -0.26910022575E+02 -0.11311175957E+02 -0.13261796312E+03  0.18456922576E+03  0.12500473167E+03 0.  0.
    9000005    1    3    3    0    0  0.18631051039E+02  0.22403110114E+02  0.10224199128E+02  0.30895786985E+02  0.10000000000E+01 0.  0.
    9000005    1    3    3    0    0 -0.45541073615E+02 -0.33714286070E+02 -0.14284216224E+03  0.15367343878E+03  0.10000000000E+01 0.  0.
          4    1    1    2  501    0  0.26910022575E+02  0.11311175957E+02 -0.45649002313E+03  0.45742414249E+03  0.12700000000E+01 0. -1.
<mgrwt>
<rscale>  1 0.12836773E+03</rscale>
<asrwt>0</asrwt>
<pdfrwt beam="2">  1       21 0.94697756E-01 0.12836773E+03</pdfrwt>
<pdfrwt beam="1">  1        4 0.40682072E-02 0.12836773E+03</pdfrwt>
<totfact> 0.12780092E+04</totfact>
</mgrwt>
</event>
<event>
 6    4  0.6376098E-003  0.1275781E+03  0.7818608E-02  0.1231094E+00
          4   -1    0    0  502    0 -0.00000000000E+00  0.00000000000E+00  0.73458734282E+02  0.73469711735E+02  0.12700000000E+01 0.  1.
         21   -1    0    0  501  502  0.00000000000E+00 -0.00000000000E+00 -0.91911453664E+02  0.91911453664E+02  0.00000000000E+00 0.  1.
         25    2    1    2    0    0  0.17451099288E+02 -0.18612686009E+02  0.89828241651E+01  0.12789390227E+03  0.12500074465E+03 0.  0.
    9000005    1    3    3    0    0  0.51713525011E+01  0.51276830233E+02  0.21465182588E+02  0.55837355497E+02  0.10000000000E+01 0.  0.
    9000005    1    3    3    0    0  0.12279746787E+02 -0.69889516242E+02 -0.12482358423E+02  0.72056546777E+02  0.10000000000E+01 0.  0.
          4    1    1    2  501    0 -0.17451099288E+02  0.18612686009E+02 -0.27435543547E+02  0.37487263124E+02  0.12700000000E+01 0. -1.
<mgrwt>
<rscale>  1 0.12757805E+03</rscale>
<asrwt>0</asrwt>
<pdfrwt beam="2">  1       21 0.14140224E-01 0.12757805E+03</pdfrwt>
<pdfrwt beam="1">  1        4 0.11302863E-01 0.12757805E+03</pdfrwt>
<totfact> 0.10743517E+05</totfact>
</mgrwt>
</event>
<event>
 6    4  0.6376098E-003  0.1454448E+03  0.7818608E-02  0.1206185E+00
         -4   -1    0    0    0  501 -0.00000000000E+00  0.00000000000E+00  0.63597523319E+02  0.63610202581E+02  0.12700000000E+01 0. -1.
         21   -1    0    0  501  502  0.00000000000E+00 -0.00000000000E+00 -0.55563329244E+03  0.55563329244E+03  0.00000000000E+00 0.  1.
         25    2    1    2    0    0 -0.41646423792E+01 -0.74232264006E+02 -0.26540657090E+02  0.14784654394E+03  0.12500568311E+03 0.  0.
    9000005    1    3    3    0    0  0.23756058443E+02  0.70587538864E+01  0.34449436592E+02  0.42449263842E+02  0.10000000000E+01 0.  0.
    9000005    1    3    3    0    0 -0.27920700822E+02 -0.81291017892E+02 -0.60990093682E+02  0.10539728010E+03  0.10000000000E+01 0.  0.
         -4    1    1    2    0  502  0.41646423792E+01  0.74232264006E+02 -0.46549511203E+03  0.47139695108E+03  0.12700000000E+01 0.  1.
<mgrwt>
<rscale>  1 0.14544481E+03</rscale>
<asrwt>0</asrwt>
<pdfrwt beam="2">  1       21 0.85482045E-01 0.14544481E+03</pdfrwt>
<pdfrwt beam="1">  1       -4 0.97853214E-02 0.14544481E+03</pdfrwt>
<totfact> 0.38826528E+03</totfact>
</mgrwt>
</event>
<event>
 6    4  0.6376098E-003  0.1411074E+03  0.7818608E-02  0.1211847E+00
         21   -1    0    0  501  502  0.00000000000E+00  0.00000000000E+00  0.67276247371E+02  0.67276247371E+02  0.00000000000E+00 0. -1.
         -4   -1    0    0    0  501 -0.00000000000E+00 -0.00000000000E+00 -0.23340582708E+03  0.23340928219E+03  0.12700000000E+01 0.  1.
         25    2    1    2    0    0  0.40128047119E+02 -0.51729542404E+02 -0.18487600650E+03  0.23257351050E+03  0.12500037714E+03 0.  0.
    9000005    1    3    3    0    0  0.66352362270E+02 -0.73542288017E+02 -0.98468467109E+02  0.13967155444E+03  0.10000000000E+01 0.  0.
    9000005    1    3    3    0    0 -0.26224315151E+02  0.21812745613E+02 -0.86407539390E+02  0.92901956060E+02  0.10000000000E+01 0.  0.
         -4    1    1    2    0  502 -0.40128047119E+02  0.51729542404E+02  0.18746426793E+02  0.68112019060E+02  0.12700000000E+01 0. -1.
<mgrwt>
<rscale>  1 0.14110741E+03</rscale>
<asrwt>0</asrwt>
<pdfrwt beam="1">  1       21 0.10350192E-01 0.14110741E+03</pdfrwt>
<pdfrwt beam="2">  1       -4 0.35909777E-01 0.14110741E+03</pdfrwt>
<totfact> 0.23451927E+04</totfact>
</mgrwt>
</event>
<event>
 6    4  0.6376098E-003  0.1384066E+03  0.7818608E-02  0.1215489E+00
         21   -1    0    0  501  502  0.00000000000E+00  0.00000000000E+00  0.96465049963E+03  0.96465049963E+03  0.00000000000E+00 0.  1.
          4   -1    0    0  502    0 -0.00000000000E+00 -0.00000000000E+00 -0.10291257821E+02  0.10369324353E+02  0.12700000000E+01 0.  1.
         25    2    1    2    0    0  0.37006408045E+01  0.59310565773E+02  0.72433945346E+03  0.73744424888E+03  0.12499975364E+03 0.  0.
    9000005    1    3    3    0    0 -0.23855125283E+02 -0.24117481446E+02  0.76714980093E+02  0.83886280667E+02  0.10000000000E+01 0.  0.
    9000005    1    3    3    0    0  0.27555766088E+02  0.83428047220E+02  0.64762447337E+03  0.65355796821E+03  0.10000000000E+01 0.  0.
          4    1    1    2  501    0 -0.37006408045E+01 -0.59310565773E+02  0.23001978835E+03  0.23757557511E+03  0.12700000000E+01 0. -1.
<mgrwt>
<rscale>  1 0.13840656E+03</rscale>
<asrwt>0</asrwt>
<pdfrwt beam="1">  1       21 0.14840770E+00 0.13840656E+03</pdfrwt>
<pdfrwt beam="2">  1        4 0.15893406E-02 0.13840656E+03</pdfrwt>
<totfact> 0.18514573E+04</totfact>
</mgrwt>
</event>
<event>
 6    4  0.6376098E-003  0.1281070E+03  0.7818608E-02  0.1230292E+00
         21   -1    0    0  501  502  0.00000000000E+00  0.00000000000E+00  0.16936588351E+03  0.16936588351E+03  0.00000000000E+00 0. -1.
         -4   -1    0    0    0  501 -0.00000000000E+00 -0.00000000000E+00 -0.14752941568E+03  0.14753488195E+03  0.12700000000E+01 0.  1.
         25    2    1    2    0    0 -0.19783103654E+02 -0.19869544250E+02 -0.11806314572E+03  0.17421339829E+03  0.12500092714E+03 0.  0.
    9000005    1    3    3    0    0  0.48771589902E+02 -0.29923373267E+02 -0.67132666268E+02  0.88214914439E+02  0.10000000000E+01 0.  0.
    9000005    1    3    3    0    0 -0.68554693556E+02  0.10053829016E+02 -0.50930479456E+02  0.85998483848E+02  0.10000000000E+01 0.  0.
         -4    1    1    2    0  502  0.19783103654E+02  0.19869544250E+02  0.13989961355E+03  0.14268736717E+03  0.12700000000E+01 0. -1.
<mgrwt>
<rscale>  1 0.12810699E+03</rscale>
<asrwt>0</asrwt>
<pdfrwt beam="1">  1       21 0.26056290E-01 0.12810699E+03</pdfrwt>
<pdfrwt beam="2">  1       -4 0.22697620E-01 0.12810699E+03</pdfrwt>
<totfact> 0.10237109E+04</totfact>
</mgrwt>
</event>
<event>
 6    4  0.6376098E-003  0.1293659E+03  0.7818608E-02  0.1228400E+00
         21   -1    0    0  501  502  0.00000000000E+00  0.00000000000E+00  0.40797392142E+02  0.40797392142E+02  0.00000000000E+00 0. -1.
         -4   -1    0    0    0  501 -0.00000000000E+00 -0.00000000000E+00 -0.27746981415E+03  0.27747272058E+03  0.12700000000E+01 0.  1.
         25    2    1    2    0    0 -0.33016186616E+02  0.37710267169E+01 -0.25075287044E+03  0.28215694132E+03  0.12502499061E+03 0.  0.
    9000005    1    3    3    0    0 -0.16661794404E+02 -0.92470104199E+01  0.93249274043E+01  0.21238570234E+02  0.10000000000E+01 0.  0.
    9000005    1    3    3    0    0 -0.16354392212E+02  0.13018037137E+02 -0.26007779785E+03  0.26091837108E+03  0.10000000000E+01 0.  0.
         -4    1    1    2    0  502  0.33016186616E+02 -0.37710267169E+01  0.14080448429E+02  0.36113171408E+02  0.12700000000E+01 0. -1.
<mgrwt>
<rscale>  1 0.12936591E+03</rscale>
<asrwt>0</asrwt>
<pdfrwt beam="1">  1       21 0.62765219E-02 0.12936591E+03</pdfrwt>
<pdfrwt beam="2">  1       -4 0.42689408E-01 0.12936591E+03</pdfrwt>
<totfact> 0.39255626E+04</totfact>
</mgrwt>
</event>
<event>
 6    4  0.6376098E-003  0.1298962E+03  0.7818608E-02  0.1227610E+00
          4   -1    0    0  502    0 -0.00000000000E+00  0.00000000000E+00  0.11939735066E+03  0.11940410480E+03  0.12700000000E+01 0.  1.
         21   -1    0    0  501  502  0.00000000000E+00 -0.00000000000E+00 -0.59931926692E+02  0.59931926692E+02  0.00000000000E+00 0.  1.
         25    2    1    2    0    0 -0.17954642122E+02 -0.30410969833E+02  0.29977272030E+02  0.13331038360E+03  0.12500330106E+03 0.  0.
    9000005    1    3    3    0    0 -0.50936408306E+02 -0.63551463673E+02  0.86458314565E+01  0.81908831194E+02  0.10000000000E+01 0.  0.
    9000005    1    3    3    0    0  0.32981766184E+02  0.33140493840E+02  0.21331440574E+02  0.51401552404E+02  0.10000000000E+01 0.  0.
          4    1    1    2  501    0  0.17954642122E+02  0.30410969833E+02  0.29488151934E+02  0.46025647897E+02  0.12700000000E+01 0. -1.
<mgrwt>
<rscale>  1 0.12989620E+03</rscale>
<asrwt>0</asrwt>
<pdfrwt beam="2">  1       21 0.92202965E-02 0.12989620E+03</pdfrwt>
<pdfrwt beam="1">  1        4 0.18370378E-01 0.12989620E+03</pdfrwt>
<totfact> 0.98529124E+04</totfact>
</mgrwt>
</event>
<event>
 6    4  0.6376098E-003  0.1267790E+03  0.7818608E-02  0.1232315E+00
          4   -1    0    0  502    0 -0.00000000000E+00  0.00000000000E+00  0.88188810437E+03  0.88188901883E+03  0.12700000000E+01 0. -1.
         21   -1    0    0  501  502  0.00000000000E+00 -0.00000000000E+00 -0.90394658995E+01  0.90394658995E+01  0.00000000000E+00 0.  1.
         25    2    1    2    0    0 -0.10440002115E+02  0.18409173558E+02  0.85133660648E+03  0.86072464829E+03  0.12500004530E+03 0.  0.
    9000005    1    3    3    0    0  0.55758968498E+01 -0.42495977878E+02  0.60311886393E+03  0.60464068899E+03  0.10000000000E+01 0.  0.
    9000005    1    3    3    0    0 -0.16015898964E+02  0.60905151436E+02  0.24821774255E+03  0.25608395929E+03  0.10000000000E+01 0.  0.
          4    1    1    2  501    0  0.10440002115E+02 -0.18409173558E+02  0.21512031995E+02  0.30203836442E+02  0.12700000000E+01 0.  1.
<mgrwt>
<rscale>  1 0.12677895E+03</rscale>
<asrwt>0</asrwt>
<pdfrwt beam="2">  1       21 0.13906878E-02 0.12677895E+03</pdfrwt>
<pdfrwt beam="1">  1        4 0.13568196E+00 0.12677895E+03</pdfrwt>
<totfact> 0.36469267E+04</totfact>
</mgrwt>
</event>
<event>
 6    4  0.6376098E-003  0.1556963E+03  0.7818608E-02  0.1193643E+00
          4   -1    0    0  502    0 -0.00000000000E+00  0.00000000000E+00  0.86310937298E+02  0.86320280336E+02  0.12700000000E+01 0.  1.
         21   -1    0    0  501  502  0.00000000000E+00 -0.00000000000E+00 -0.41334804585E+03  0.41334804585E+03  0.00000000000E+00 0. -1.
         25    2    1    2    0    0  0.98099295078E+01  0.92304005473E+02  0.41146076379E+01  0.15575069625E+03  0.12500034097E+03 0.  0.
    9000005    1    3    3    0    0 -0.23917318315E+02 -0.14253353790E+02 -0.27956483883E+02  0.39468483639E+02  0.10000000000E+01 0.  0.
    9000005    1    3    3    0    0  0.33727247823E+02  0.10655735926E+03  0.32071091521E+02  0.11628221261E+03  0.10000000000E+01 0.  0.
          4    1    1    2  501    0 -0.98099295078E+01 -0.92304005473E+02 -0.33115171619E+03  0.34391762994E+03  0.12700000000E+01 0. -1.
<mgrwt>
<rscale>  1 0.15569634E+03</rscale>
<asrwt>0</asrwt>
<pdfrwt beam="2">  1       21 0.63592007E-01 0.15569634E+03</pdfrwt>
<pdfrwt beam="1">  1        4 0.13279474E-01 0.15569634E+03</pdfrwt>
<totfact> 0.44483767E+03</totfact>
</mgrwt>
</event>
<event>
 6    4  0.6376098E-003  0.1271743E+03  0.7818608E-02  0.1231710E+00
          4   -1    0    0  502    0 -0.00000000000E+00  0.00000000000E+00  0.13947123529E+03  0.13947701736E+03  0.12700000000E+01 0.  1.
         21   -1    0    0  501  502  0.00000000000E+00 -0.00000000000E+00 -0.58316536499E+02  0.58316536499E+02  0.00000000000E+00 0. -1.
         25    2    1    2    0    0 -0.51284811843E+01 -0.22844563636E+02  0.10457806734E+03  0.16465079445E+03  0.12500054615E+03 0.  0.
    9000005    1    3    3    0    0 -0.39816264083E+02 -0.63588947327E+01 -0.11857895224E+02  0.42040220110E+02  0.10000000000E+01 0.  0.
    9000005    1    3    3    0    0  0.34687782899E+02 -0.16485668903E+02  0.11643596257E+03  0.12261057434E+03  0.10000000000E+01 0.  0.
          4    1    1    2  501    0  0.51284811843E+01  0.22844563636E+02 -0.23423368553E+02  0.33142759411E+02  0.12700000000E+01 0. -1.
<mgrwt>
<rscale>  1 0.12717434E+03</rscale>
<asrwt>0</asrwt>
<pdfrwt beam="2">  1       21 0.89717749E-02 0.12717434E+03</pdfrwt>
<pdfrwt beam="1">  1        4 0.21458621E-01 0.12717434E+03</pdfrwt>
<totfact> 0.77933643E+04</totfact>
</mgrwt>
</event>
<event>
 6    4  0.6376098E-003  0.1267083E+03  0.7818608E-02  0.1232423E+00
         21   -1    0    0  501  502  0.00000000000E+00  0.00000000000E+00  0.44016019037E+02  0.44016019037E+02  0.00000000000E+00 0. -1.
          4   -1    0    0  502    0 -0.00000000000E+00 -0.00000000000E+00 -0.15678915416E+03  0.15679429761E+03  0.12700000000E+01 0. -1.
         25    2    1    2    0    0  0.19609282698E+02  0.66680018814E+01 -0.12393970374E+03  0.17724569546E+03  0.12500400065E+03 0.  0.
    9000005    1    3    3    0    0 -0.42338305332E+02 -0.32455252598E+02 -0.49168034987E+02  0.72555986549E+02  0.10000000000E+01 0.  0.
    9000005    1    3    3    0    0  0.61947588030E+02  0.39123254479E+02 -0.74771668757E+02  0.10468970891E+03  0.10000000000E+01 0.  0.
          4    1    1    2  501    0 -0.19609282698E+02 -0.66680018814E+01  0.11166568616E+02  0.23564621187E+02  0.12700000000E+01 0.  1.
<mgrwt>
<rscale>  1 0.12670827E+03</rscale>
<asrwt>0</asrwt>
<pdfrwt beam="1">  1       21 0.67716953E-02 0.12670827E+03</pdfrwt>
<pdfrwt beam="2">  1        4 0.24123213E-01 0.12670827E+03</pdfrwt>
<totfact> 0.10211384E+05</totfact>
</mgrwt>
</event>
<event>
 6    4  0.6376098E-003  0.1406521E+03  0.7818608E-02  0.1212454E+00
          4   -1    0    0  502    0 -0.00000000000E+00  0.00000000000E+00  0.10342091578E+04  0.10342099376E+04  0.12700000000E+01 0. -1.
         21   -1    0    0  501  502  0.00000000000E+00 -0.00000000000E+00 -0.10217200821E+02  0.10217200821E+02  0.00000000000E+00 0. -1.
         25    2    1    2    0    0  0.28668962421E+02  0.57759596903E+02  0.66933183371E+03  0.68395037579E+03  0.12499972994E+03 0.  0.
    9000005    1    3    3    0    0 -0.29910048558E+02 -0.22125081764E+02  0.11611961992E+03  0.12193808420E+03  0.10000000000E+01 0.  0.
    9000005    1    3    3    0    0  0.58579010979E+02  0.79884678667E+02  0.55321221379E+03  0.56201229159E+03  0.10000000000E+01 0.  0.
          4    1    1    2  501    0 -0.28668962421E+02 -0.57759596903E+02  0.35466012327E+03  0.36047676260E+03  0.12700000000E+01 0.  1.
<mgrwt>
<rscale>  1 0.14065210E+03</rscale>
<asrwt>0</asrwt>
<pdfrwt beam="2">  1       21 0.15718779E-02 0.14065210E+03</pdfrwt>
<pdfrwt beam="1">  1        4 0.15911515E+00 0.14065210E+03</pdfrwt>
<totfact> 0.20262399E+04</totfact>
</mgrwt>
</event>
<event>
 6    4  0.6376098E-003  0.1267131E+03  0.7818608E-02  0.1232416E+00
          4   -1    0    0  502    0 -0.00000000000E+00  0.00000000000E+00  0.35805787333E+02  0.35828303149E+02  0.12700000000E+01 0.  1.
         21   -1    0    0  501  502  0.00000000000E+00 -0.00000000000E+00 -0.15656431162E+03  0.15656431162E+03  0.00000000000E+00 0.  1.
         25    2    1    2    0    0 -0.13607637011E+02  0.15657585877E+02 -0.90618279657E+02  0.15578148221E+03  0.12500347920E+03 0.  0.
    9000005    1    3    3    0    0  0.15500885244E+02  0.54762315717E+02 -0.48587340034E+01  0.57129641712E+02  0.10000000000E+01 0.  0.
    9000005    1    3    3    0    0 -0.29108522255E+02 -0.39104729841E+02 -0.85759545654E+02  0.98651840502E+02  0.10000000000E+01 0.  0.
          4    1    1    2  501    0  0.13607637011E+02 -0.15657585877E+02 -0.30140244631E+02  0.36611132555E+02  0.12700000000E+01 0. -1.
<mgrwt>
<rscale>  1 0.12671305E+03</rscale>
<asrwt>0</asrwt>
<pdfrwt beam="2">  1       21 0.24086817E-01 0.12671305E+03</pdfrwt>
<pdfrwt beam="1">  1        4 0.55107108E-02 0.12671305E+03</pdfrwt>
<totfact> 0.13250768E+05</totfact>
</mgrwt>
</event>
<event>
 6    4  0.6376098E-003  0.1290372E+03  0.7818608E-02  0.1228891E+00
         -4   -1    0    0    0  501 -0.00000000000E+00  0.00000000000E+00  0.91364304261E+02  0.91373130586E+02  0.12700000000E+01 0. -1.
         21   -1    0    0  501  502  0.00000000000E+00 -0.00000000000E+00 -0.84502276747E+02  0.84502276747E+02  0.00000000000E+00 0. -1.
         25    2    1    2    0    0  0.10115273334E+02 -0.30380867314E+02  0.34486924761E+02  0.13356626292E+03  0.12500113102E+03 0.  0.
    9000005    1    3    3    0    0 -0.32160642392E+02 -0.61611256298E+02  0.40834484331E+02  0.80614570223E+02  0.10000000000E+01 0.  0.
    9000005    1    3    3    0    0  0.42275915727E+02  0.31230388984E+02 -0.63475595696E+01  0.52951692693E+02  0.10000000000E+01 0.  0.
         -4    1    1    2    0  502 -0.10115273334E+02  0.30380867314E+02 -0.27624897247E+02  0.42309144417E+02  0.12700000000E+01 0.  1.
<mgrwt>
<rscale>  1 0.12903720E+03</rscale>
<asrwt>0</asrwt>
<pdfrwt beam="2">  1       21 0.13000350E-01 0.12903720E+03</pdfrwt>
<pdfrwt beam="1">  1       -4 0.14057460E-01 0.12903720E+03</pdfrwt>
<totfact> 0.86013601E+04</totfact>
</mgrwt>
</event>
<event>
 6    4  0.6376098E-003  0.1267142E+03  0.7818608E-02  0.1232414E+00
         21   -1    0    0  501  502  0.00000000000E+00  0.00000000000E+00  0.16106288533E+03  0.16106288533E+03  0.00000000000E+00 0. -1.
          4   -1    0    0  502    0 -0.00000000000E+00 -0.00000000000E+00 -0.61545791416E+03  0.61545922448E+03  0.12700000000E+01 0.  1.
         25    2    1    2    0    0 -0.20442883347E+02 -0.36696511914E+01 -0.60822849709E+03  0.62128768490E+03  0.12500041963E+03 0.  0.
    9000005    1    3    3    0    0  0.45313851706E+02 -0.25280658649E+02 -0.17396380497E+03  0.18154024980E+03  0.10000000000E+01 0.  0.
    9000005    1    3    3    0    0 -0.65756735053E+02  0.21611007458E+02 -0.43426469212E+03  0.43974743510E+03  0.10000000000E+01 0.  0.
          4    1    1    2  501    0  0.20442883347E+02  0.36696511914E+01  0.15383346827E+03  0.15523442492E+03  0.12700000000E+01 0. -1.
<mgrwt>
<rscale>  1 0.12671418E+03</rscale>
<asrwt>0</asrwt>
<pdfrwt beam="1">  1       21 0.24778906E-01 0.12671418E+03</pdfrwt>
<pdfrwt beam="2">  1        4 0.94686317E-01 0.12671418E+03</pdfrwt>
<totfact> 0.62508799E+02</totfact>
</mgrwt>
</event>
<event>
 6    4  0.6376098E-003  0.1318860E+03  0.7818608E-02  0.1224684E+00
         21   -1    0    0  501  502  0.00000000000E+00  0.00000000000E+00  0.44667563125E+02  0.44667563125E+02  0.00000000000E+00 0.  1.
          4   -1    0    0  502    0 -0.00000000000E+00 -0.00000000000E+00 -0.55523228376E+03  0.55523373621E+03  0.12700000000E+01 0. -1.
         25    2    1    2    0    0 -0.37229222691E+02 -0.19562249272E+02 -0.53515545149E+03  0.55116718846E+03  0.12500086304E+03 0.  0.
    9000005    1    3    3    0    0  0.44766404720E+02 -0.91214694300E+01 -0.25533499175E+03  0.25939196250E+03  0.10000000000E+01 0.  0.
    9000005    1    3    3    0    0 -0.81995627412E+02 -0.10440779842E+02 -0.27982045974E+03  0.29177522597E+03  0.10000000000E+01 0.  0.
          4    1    1    2  501    0  0.37229222691E+02  0.19562249272E+02  0.24590730855E+02  0.48734110875E+02  0.12700000000E+01 0.  1.
<mgrwt>
<rscale>  1 0.13188598E+03</rscale>
<asrwt>0</asrwt>
<pdfrwt beam="1">  1       21 0.68719326E-02 0.13188598E+03</pdfrwt>
<pdfrwt beam="2">  1        4 0.85421854E-01 0.13188598E+03</pdfrwt>
<totfact> 0.78324389E+03</totfact>
</mgrwt>
</event>
<event>
 6    4  0.6376098E-003  0.1266063E+03  0.7818608E-02  0.1232580E+00
         21   -1    0    0  501  502  0.00000000000E+00  0.00000000000E+00  0.11123735232E+02  0.11123735232E+02  0.00000000000E+00 0. -1.
          4   -1    0    0  502    0 -0.00000000000E+00 -0.00000000000E+00 -0.65015693167E+03  0.65015817206E+03  0.12700000000E+01 0. -1.
         25    2    1    2    0    0 -0.20014839952E+02 -0.19966782454E+01 -0.62241164149E+03  0.63515778949E+03  0.12499834215E+03 0.  0.
    9000005    1    3    3    0    0  0.68016226628E+01 -0.38180751478E+02 -0.53869393731E+03  0.54008905742E+03  0.10000000000E+01 0.  0.
    9000005    1    3    3    0    0 -0.26816462615E+02  0.36184073233E+02 -0.83717704183E+02  0.95068732065E+02  0.10000000000E+01 0.  0.
          4    1    1    2  501    0  0.20014839952E+02  0.19966782454E+01 -0.16621554947E+02  0.26124117807E+02  0.12700000000E+01 0.  1.
<mgrwt>
<rscale>  1 0.12660634E+03</rscale>
<asrwt>0</asrwt>
<pdfrwt beam="1">  1       21 0.17113438E-02 0.12660634E+03</pdfrwt>
<pdfrwt beam="2">  1        4 0.10002982E+00 0.12660634E+03</pdfrwt>
<totfact> 0.54151995E+04</totfact>
</mgrwt>
</event>
<event>
 6    4  0.6376098E-003  0.1289312E+03  0.7818608E-02  0.1229050E+00
         21   -1    0    0  501  502  0.00000000000E+00  0.00000000000E+00  0.41228586317E+02  0.41228586317E+02  0.00000000000E+00 0. -1.
         -4   -1    0    0    0  501 -0.00000000000E+00 -0.00000000000E+00 -0.17266111589E+03  0.17266578654E+03  0.12700000000E+01 0.  1.
         25    2    1    2    0    0  0.33001076736E+01  0.31416460548E+02 -0.12868197912E+03  0.18216011484E+03  0.12500148393E+03 0.  0.
    9000005    1    3    3    0    0 -0.45862663157E+02  0.63247492642E+01 -0.11686422124E+03  0.12570454459E+03  0.10000000000E+01 0.  0.
    9000005    1    3    3    0    0  0.49162770831E+02  0.25091711284E+02 -0.11817757883E+02  0.56455570251E+02  0.10000000000E+01 0.  0.
         -4    1    1    2    0  502 -0.33001076736E+01 -0.31416460548E+02 -0.27505504569E+01  0.31734258017E+02  0.12700000000E+01 0. -1.
<mgrwt>
<rscale>  1 0.12893121E+03</rscale>
<asrwt>0</asrwt>
<pdfrwt beam="1">  1       21 0.63428595E-02 0.12893121E+03</pdfrwt>
<pdfrwt beam="2">  1       -4 0.26565112E-01 0.12893121E+03</pdfrwt>
<totfact> 0.95778828E+04</totfact>
</mgrwt>
</event>
<event>
 6    4  0.6376098E-003  0.1302093E+03  0.7818608E-02  0.1227146E+00
          4   -1    0    0  502    0 -0.00000000000E+00  0.00000000000E+00  0.54316480005E+02  0.54331325220E+02  0.12700000000E+01 0. -1.
         21   -1    0    0  501  502  0.00000000000E+00 -0.00000000000E+00 -0.21188385390E+03  0.21188385390E+03  0.00000000000E+00 0.  1.
         25    2    1    2    0    0 -0.15819032612E+02 -0.32847896087E+02 -0.30117428185E+02  0.13364697919E+03  0.12500091799E+03 0.  0.
    9000005    1    3    3    0    0 -0.29258795135E+02  0.30534667104E+02  0.24513593630E+02  0.48891300459E+02  0.10000000000E+01 0.  0.
    9000005    1    3    3    0    0  0.13439762524E+02 -0.63382563191E+02 -0.54631021815E+02  0.84755678736E+02  0.10000000000E+01 0.  0.
          4    1    1    2  501    0  0.15819032612E+02  0.32847896087E+02 -0.12744994571E+03  0.13256819992E+03  0.12700000000E+01 0.  1.
<mgrwt>
<rscale>  1 0.13020928E+03</rscale>
<asrwt>0</asrwt>
<pdfrwt beam="2">  1       21 0.32597515E-01 0.13020928E+03</pdfrwt>
<pdfrwt beam="1">  1        4 0.83578164E-02 0.13020928E+03</pdfrwt>
<totfact> 0.37686400E+04</totfact>
</mgrwt>
</event>
<event>
 6    4  0.6376098E-003  0.1859937E+03  0.7818608E-02  0.1162125E+00
         -4   -1    0    0    0  501 -0.00000000000E+00  0.00000000000E+00  0.67126483800E+02  0.67138496612E+02  0.12700000000E+01 0.  1.
         21   -1    0    0  501  502  0.00000000000E+00 -0.00000000000E+00 -0.73448932266E+03  0.73448932266E+03  0.00000000000E+00 0. -1.
         25    2    1    2    0    0  0.67557485718E+02  0.12001920377E+03 -0.87346509769E+02  0.20548255337E+03  0.12500017527E+03 0.  0.
    9000005    1    3    3    0    0  0.13796599245E+01  0.11933468242E+03 -0.49219716235E+02  0.12909783250E+03  0.10000000000E+01 0.  0.
    9000005    1    3    3    0    0  0.66177825793E+02  0.68452135130E+00 -0.38126793535E+02  0.76384720864E+02  0.10000000000E+01 0.  0.
         -4    1    1    2    0  502 -0.67557485718E+02 -0.12001920377E+03 -0.58001632909E+03  0.59614526591E+03  0.12700000000E+01 0. -1.
<mgrwt>
<rscale>  1 0.18599373E+03</rscale>
<asrwt>0</asrwt>
<pdfrwt beam="2">  1       21 0.11299836E+00 0.18599373E+03</pdfrwt>
<pdfrwt beam="1">  1       -4 0.10328160E-01 0.18599373E+03</pdfrwt>
<totfact> 0.18488499E+03</totfact>
</mgrwt>
</event>
<event>
 6    4  0.6376098E-003  0.1282773E+03  0.7818608E-02  0.1230035E+00
         21   -1    0    0  501  502  0.00000000000E+00  0.00000000000E+00  0.55174572699E+02  0.55174572699E+02  0.00000000000E+00 0. -1.
          4   -1    0    0  502    0 -0.00000000000E+00 -0.00000000000E+00 -0.12211807221E+03  0.12212467589E+03  0.12700000000E+01 0. -1.
         25    2    1    2    0    0  0.17147316179E+02 -0.23150887892E+02 -0.73337301570E+02  0.14776134638E+03  0.12500024648E+03 0.  0.
    9000005    1    3    3    0    0  0.25378204320E+02  0.30095989590E+02 -0.84050052414E+02  0.92818280284E+02  0.10000000000E+01 0.  0.
    9000005    1    3    3    0    0 -0.82308881408E+01 -0.53246877482E+02  0.10712750844E+02  0.54943066094E+02  0.10000000000E+01 0.  0.
          4    1    1    2  501    0 -0.17147316179E+02  0.23150887892E+02  0.63938020552E+01  0.29537902212E+02  0.12700000000E+01 0.  1.
<mgrwt>
<rscale>  1 0.12827726E+03</rscale>
<asrwt>0</asrwt>
<pdfrwt beam="1">  1       21 0.84883959E-02 0.12827726E+03</pdfrwt>
<pdfrwt beam="2">  1        4 0.18789028E-01 0.12827726E+03</pdfrwt>
<totfact> 0.10905817E+05</totfact>
</mgrwt>
</event>
<event>
 6    4  0.6376098E-003  0.1384614E+03  0.7818608E-02  0.1215414E+00
         21   -1    0    0  501  502  0.00000000000E+00  0.00000000000E+00  0.99445370839E+02  0.99445370839E+02  0.00000000000E+00 0. -1.
         -4   -1    0    0    0  501 -0.00000000000E+00 -0.00000000000E+00 -0.12144674433E+03  0.12145338450E+03  0.12700000000E+01 0.  1.
         25    2    1    2    0    0 -0.51806371418E+02  0.29365246758E+02 -0.59294707018E+02  0.15062341498E+03  0.12500133209E+03 0.  0.
    9000005    1    3    3    0    0 -0.28679234756E+02  0.78799346822E+02 -0.36950936253E+02  0.91641733156E+02  0.10000000000E+01 0.  0.
    9000005    1    3    3    0    0 -0.23127136662E+02 -0.49434100064E+02 -0.22343770765E+02  0.58981681829E+02  0.10000000000E+01 0.  0.
         -4    1    1    2    0  502  0.51806371418E+02 -0.29365246758E+02  0.37293333531E+02  0.70275340359E+02  0.12700000000E+01 0. -1.
<mgrwt>
<rscale>  1 0.13846137E+03</rscale>
<asrwt>0</asrwt>
<pdfrwt beam="1">  1       21 0.15299288E-01 0.13846137E+03</pdfrwt>
<pdfrwt beam="2">  1       -4 0.18685249E-01 0.13846137E+03</pdfrwt>
<totfact> 0.39259537E+04</totfact>
</mgrwt>
</event>
<event>
 6    4  0.6376098E-003  0.1325668E+03  0.7818608E-02  0.1223696E+00
         21   -1    0    0  501  502  0.00000000000E+00  0.00000000000E+00  0.47772827553E+03  0.47772827553E+03  0.00000000000E+00 0.  1.
          4   -1    0    0  502    0 -0.00000000000E+00 -0.00000000000E+00 -0.24212166456E+02  0.24245451212E+02  0.12700000000E+01 0. -1.
         25    2    1    2    0    0  0.31111174051E+02  0.31337439630E+02  0.17274948460E+03  0.21775294884E+03  0.12499608804E+03 0.  0.
    9000005    1    3    3    0    0 -0.65834848837E+01 -0.46007623548E+02  0.58306286538E+02  0.74569878286E+02  0.10000000000E+01 0.  0.
    9000005    1    3    3    0    0  0.37694658935E+02  0.77345063178E+02  0.11444319806E+03  0.14318307055E+03  0.10000000000E+01 0.  0.
          4    1    1    2  501    0 -0.31111174051E+02 -0.31337439630E+02  0.28076662448E+03  0.28422077791E+03  0.12700000000E+01 0.  1.
<mgrwt>
<rscale>  1 0.13256682E+03</rscale>
<asrwt>0</asrwt>
<pdfrwt beam="1">  1       21 0.73496651E-01 0.13256682E+03</pdfrwt>
<pdfrwt beam="2">  1        4 0.37276393E-02 0.13256682E+03</pdfrwt>
<totfact> 0.26056983E+04</totfact>
</mgrwt>
</event>
<event>
 6    4  0.6376098E-003  0.1576969E+03  0.7818608E-02  0.1191322E+00
          4   -1    0    0  502    0 -0.00000000000E+00  0.00000000000E+00  0.20287792857E+02  0.20327504495E+02  0.12700000000E+01 0. -1.
         21   -1    0    0  501  502  0.00000000000E+00 -0.00000000000E+00 -0.15569210849E+04  0.15569210849E+04  0.00000000000E+00 0.  1.
         25    2    1    2    0    0 -0.91875011221E+02 -0.28335202535E+02 -0.31925327145E+03  0.35607717275E+03  0.12499760091E+03 0.  0.
    9000005    1    3    3    0    0 -0.10762303822E+03  0.25332781830E+01 -0.29427091371E+03  0.31334566618E+03  0.10000000000E+01 0.  0.
    9000005    1    3    3    0    0  0.15748026998E+02 -0.30868480718E+02 -0.24982357740E+02  0.42731506578E+02  0.10000000000E+01 0.  0.
          4    1    1    2  501    0  0.91875011221E+02  0.28335202535E+02 -0.12173800206E+04  0.12211714166E+04  0.12700000000E+01 0.  1.
<mgrwt>
<rscale>  1 0.15769687E+03</rscale>
<asrwt>0</asrwt>
<pdfrwt beam="2">  1       21 0.23952638E+00 0.15769687E+03</pdfrwt>
<pdfrwt beam="1">  1        4 0.31242927E-02 0.15769687E+03</pdfrwt>
<totfact> 0.16512615E+03</totfact>
</mgrwt>
</event>
<event>
 6    4  0.6376098E-003  0.1291402E+03  0.7818608E-02  0.1228737E+00
         21   -1    0    0  501  502  0.00000000000E+00  0.00000000000E+00  0.10295863268E+02  0.10295863268E+02  0.00000000000E+00 0.  1.
          4   -1    0    0  502    0 -0.00000000000E+00 -0.00000000000E+00 -0.11298461743E+04  0.11298468881E+04  0.12700000000E+01 0. -1.
         25    2    1    2    0    0 -0.31879386818E+02  0.59611865663E+01 -0.10853016574E+04  0.10929578573E+04  0.12500143695E+03 0.  0.
    9000005    1    3    3    0    0  0.31866233142E+02  0.44771119276E+01 -0.79863919809E+03  0.79928785182E+03  0.10000000000E+01 0.  0.
    9000005    1    3    3    0    0 -0.63745619961E+02  0.14840746387E+01 -0.28666245929E+03  0.29367000547E+03  0.10000000000E+01 0.  0.
          4    1    1    2  501    0  0.31879386818E+02 -0.59611865663E+01 -0.34248653631E+02  0.47184894031E+02  0.12700000000E+01 0.  1.
<mgrwt>
<rscale>  1 0.12914020E+03</rscale>
<asrwt>0</asrwt>
<pdfrwt beam="1">  1       21 0.15839790E-02 0.12914020E+03</pdfrwt>
<pdfrwt beam="2">  1        4 0.17382857E+00 0.12914020E+03</pdfrwt>
<totfact> 0.15718138E+04</totfact>
</mgrwt>
</event>
<event>
 6    4  0.6376098E-003  0.1290038E+03  0.7818608E-02  0.1228941E+00
         21   -1    0    0  501  502  0.00000000000E+00  0.00000000000E+00  0.58641243130E+02  0.58641243130E+02  0.00000000000E+00 0.  1.
          4   -1    0    0  502    0 -0.00000000000E+00 -0.00000000000E+00 -0.14240891281E+03  0.14241457561E+03  0.12700000000E+01 0. -1.
         25    2    1    2    0    0 -0.24412953077E+02 -0.20444319617E+02 -0.10189616421E+03  0.16439224422E+03  0.12501207620E+03 0.  0.
    9000005    1    3    3    0    0 -0.30435462518E+02 -0.61843141685E+02 -0.18955129973E+02  0.71492576569E+02  0.10000000000E+01 0.  0.
    9000005    1    3    3    0    0  0.60225094407E+01  0.41398822068E+02 -0.82941034241E+02  0.92899667650E+02  0.10000000000E+01 0.  0.
          4    1    1    2  501    0  0.24412953077E+02  0.20444319617E+02  0.18128494538E+02  0.36663574523E+02  0.12700000000E+01 0.  1.
<mgrwt>
<rscale>  1 0.12900380E+03</rscale>
<asrwt>0</asrwt>
<pdfrwt beam="1">  1       21 0.90217299E-02 0.12900380E+03</pdfrwt>
<pdfrwt beam="2">  1        4 0.21910557E-01 0.12900380E+03</pdfrwt>
<totfact> 0.74469964E+04</totfact>
</mgrwt>
</event>
<event>
 6    4  0.6376098E-003  0.1299561E+03  0.7818608E-02  0.1227521E+00
         21   -1    0    0  501  502  0.00000000000E+00  0.00000000000E+00  0.32827457259E+02  0.32827457259E+02  0.00000000000E+00 0.  1.
          4   -1    0    0  502    0 -0.00000000000E+00 -0.00000000000E+00 -0.20895933391E+03  0.20896319324E+03  0.12700000000E+01 0.  1.
         25    2    1    2    0    0  0.20298128388E+02  0.29184263191E+02 -0.13437470430E+03  0.18693621059E+03  0.12499940177E+03 0.  0.
    9000005    1    3    3    0    0  0.15512073499E+01 -0.22152567606E+02 -0.13023426981E+03  0.13211777900E+03  0.10000000000E+01 0.  0.
    9000005    1    3    3    0    0  0.18746921038E+02  0.51336830798E+02 -0.41404344902E+01  0.54818431595E+02  0.10000000000E+01 0.  0.
          4    1    1    2  501    0 -0.20298128388E+02 -0.29184263191E+02 -0.41757172358E+02  0.54854439906E+02  0.12700000000E+01 0. -1.
<mgrwt>
<rscale>  1 0.12995609E+03</rscale>
<asrwt>0</asrwt>
<pdfrwt beam="1">  1       21 0.50503780E-02 0.12995609E+03</pdfrwt>
<pdfrwt beam="2">  1        4 0.32149776E-01 0.12995609E+03</pdfrwt>
<totfact> 0.98433578E+04</totfact>
</mgrwt>
</event>
<event>
 6    4  0.6376098E-003  0.1388822E+03  0.7818608E-02  0.1214841E+00
         21   -1    0    0  501  502  0.00000000000E+00  0.00000000000E+00  0.11746903479E+03  0.11746903479E+03  0.00000000000E+00 0.  1.
          4   -1    0    0  502    0 -0.00000000000E+00 -0.00000000000E+00 -0.91145214206E+02  0.91154061746E+02  0.12700000000E+01 0. -1.
         25    2    1    2    0    0  0.43991553676E+02  0.41568951311E+02 -0.78529740849E+01  0.13910402936E+03  0.12500010909E+03 0.  0.
    9000005    1    3    3    0    0 -0.17704941848E+02  0.67691613110E+02 -0.15471994659E+02  0.71665905911E+02  0.10000000000E+01 0.  0.
    9000005    1    3    3    0    0  0.61696495524E+02 -0.26122661799E+02  0.76190205737E+01  0.67438123446E+02  0.10000000000E+01 0.  0.
          4    1    1    2  501    0 -0.43991553676E+02 -0.41568951311E+02  0.34176794673E+02  0.69519067183E+02  0.12700000000E+01 0.  1.
<mgrwt>
<rscale>  1 0.13888219E+03</rscale>
<asrwt>0</asrwt>
<pdfrwt beam="1">  1       21 0.18072159E-01 0.13888219E+03</pdfrwt>
<pdfrwt beam="2">  1        4 0.14023549E-01 0.13888219E+03</pdfrwt>
<totfact> 0.48053146E+04</totfact>
</mgrwt>
</event>
<event>
 6    4  0.6376098E-003  0.1664758E+03  0.7818608E-02  0.1181574E+00
         21   -1    0    0  501  502  0.00000000000E+00  0.00000000000E+00  0.68282359982E+02  0.68282359982E+02  0.00000000000E+00 0. -1.
         -4   -1    0    0    0  501 -0.00000000000E+00 -0.00000000000E+00 -0.80183276738E+03  0.80183377314E+03  0.12700000000E+01 0.  1.
         25    2    1    2    0    0  0.10988553223E+03  0.38622750574E+01 -0.74141429970E+03  0.75987457532E+03  0.12499783622E+03 0.  0.
    9000005    1    3    3    0    0  0.11556112335E+03 -0.54102943251E+01 -0.35643801709E+03  0.37474351834E+03  0.10000000000E+01 0.  0.
    9000005    1    3    3    0    0 -0.56755911122E+01  0.92725693826E+01 -0.38497628261E+03  0.38513105698E+03  0.10000000000E+01 0.  0.
         -4    1    1    2    0  502 -0.10988553223E+03 -0.38622750574E+01  0.78638923049E+01  0.11024155779E+03  0.12700000000E+01 0. -1.
<mgrwt>
<rscale>  1 0.16647584E+03</rscale>
<asrwt>0</asrwt>
<pdfrwt beam="1">  1       21 0.10504978E-01 0.16647584E+03</pdfrwt>
<pdfrwt beam="2">  1       -4 0.12335987E+00 0.16647584E+03</pdfrwt>
<totfact> 0.16141307E+03</totfact>
</mgrwt>
</event>
<event>
 6    4  0.6376098E-003  0.1500388E+03  0.7818608E-02  0.1200425E+00
         21   -1    0    0  501  502  0.00000000000E+00  0.00000000000E+00  0.78453131953E+02  0.78453131953E+02  0.00000000000E+00 0. -1.
          4   -1    0    0  502    0 -0.00000000000E+00 -0.00000000000E+00 -0.17625769158E+03  0.17626226692E+03  0.12700000000E+01 0.  1.
         25    2    1    2    0    0  0.14791210111E+02 -0.81677504472E+02 -0.46299242188E+02  0.15701992683E+03  0.12498657113E+03 0.  0.
    9000005    1    3    3    0    0 -0.42329303699E+01  0.31852027492E+02  0.19363589517E+01  0.32205882085E+02  0.10000000000E+01 0.  0.
    9000005    1    3    3    0    0  0.19024140481E+02 -0.11352953196E+03 -0.48235601140E+02  0.12481404475E+03  0.10000000000E+01 0.  0.
          4    1    1    2  501    0 -0.14791210111E+02  0.81677504472E+02 -0.51505317437E+02  0.97695472042E+02  0.12700000000E+01 0. -1.
<mgrwt>
<rscale>  1 0.15003879E+03</rscale>
<asrwt>0</asrwt>
<pdfrwt beam="1">  1       21 0.12069713E-01 0.15003879E+03</pdfrwt>
<pdfrwt beam="2">  1        4 0.27117710E-01 0.15003879E+03</pdfrwt>
<totfact> 0.30693338E+04</totfact>
</mgrwt>
</event>
<event>
 6    4  0.6376098E-003  0.1266831E+03  0.7818608E-02  0.1232462E+00
          4   -1    0    0  502    0 -0.00000000000E+00  0.00000000000E+00  0.17793032727E+03  0.17793485960E+03  0.12700000000E+01 0.  1.
         21   -1    0    0  501  502  0.00000000000E+00 -0.00000000000E+00 -0.33429312487E+02  0.33429312487E+02  0.00000000000E+00 0.  1.
         25    2    1    2    0    0  0.17879040040E+02 -0.10061006708E+02  0.14256554564E+03  0.19071852195E+03  0.12501094306E+03 0.  0.
    9000005    1    3    3    0    0  0.11788177393E+02 -0.25182548055E+02  0.16254709145E+03  0.16491112392E+03  0.10000000000E+01 0.  0.
    9000005    1    3    3    0    0  0.60908626469E+01  0.15121541346E+02 -0.19981545810E+02  0.25807398037E+02  0.10000000000E+01 0.  0.
          4    1    1    2  501    0 -0.17879040040E+02  0.10061006708E+02  0.19354691403E+01  0.20645650136E+02  0.12700000000E+01 0. -1.
<mgrwt>
<rscale>  1 0.12668315E+03</rscale>
<asrwt>0</asrwt>
<pdfrwt beam="2">  1       21 0.51429713E-02 0.12668315E+03</pdfrwt>
<pdfrwt beam="1">  1        4 0.27376100E-01 0.12668315E+03</pdfrwt>
<totfact> 0.12876658E+05</totfact>
</mgrwt>
</event>
<event>
 6    4  0.6376098E-003  0.3566424E+03  0.7818608E-02  0.1059921E+00
         -4   -1    0    0    0  501 -0.00000000000E+00  0.00000000000E+00  0.16697415178E+04  0.16697420008E+04  0.12700000000E+01 0. -1.
         21   -1    0    0  501  502  0.00000000000E+00 -0.00000000000E+00 -0.17313075556E+03  0.17313075556E+03  0.00000000000E+00 0.  1.
         25    2    1    2    0    0 -0.18716023229E+03 -0.27664220563E+03  0.14645277729E+04  0.15073272399E+04  0.12503578763E+03 0.  0.
    9000005    1    3    3    0    0 -0.15275316920E+03 -0.13126733926E+03  0.70294814063E+03  0.73123302269E+03  0.10000000000E+01 0.  0.
    9000005    1    3    3    0    0 -0.34407063087E+02 -0.14537486637E+03  0.76157963224E+03  0.77609421723E+03  0.10000000000E+01 0.  0.
         -4    1    1    2    0  502  0.18716023229E+03  0.27664220563E+03  0.32082989376E+02  0.33554551642E+03  0.12700000000E+01 0.  1.
<mgrwt>
<rscale>  1 0.35664241E+03</rscale>
<asrwt>0</asrwt>
<pdfrwt beam="2">  1       21 0.26635502E-01 0.35664241E+03</pdfrwt>
<pdfrwt beam="1">  1       -4 0.25688369E+00 0.35664241E+03</pdfrwt>
<totfact> 0.35216795E+01</totfact>
</mgrwt>
</event>
<event>
 6    4  0.6376098E-003  0.1346465E+03  0.7818608E-02  0.1220720E+00
          4   -1    0    0  502    0 -0.00000000000E+00  0.00000000000E+00  0.33006285792E+03  0.33006530124E+03  0.12700000000E+01 0. -1.
         21   -1    0    0  501  502  0.00000000000E+00 -0.00000000000E+00 -0.26098587909E+02  0.26098587909E+02  0.00000000000E+00 0. -1.
         25    2    1    2    0    0  0.24418562140E+02  0.43686409139E+02  0.20513113028E+03  0.24537412910E+03  0.12499965641E+03 0.  0.
    9000005    1    3    3    0    0  0.64876842684E+02  0.31394786071E+02  0.58705793799E+02  0.92962398499E+02  0.10000000000E+01 0.  0.
    9000005    1    3    3    0    0 -0.40458280544E+02  0.12291623069E+02  0.14642533648E+03  0.15241173060E+03  0.10000000000E+01 0.  0.
          4    1    1    2  501    0 -0.24418562140E+02 -0.43686409139E+02  0.98833139737E+02  0.11078976004E+03  0.12700000000E+01 0.  1.
<mgrwt>
<rscale>  1 0.13464651E+03</rscale>
<asrwt>0</asrwt>
<pdfrwt beam="2">  1       21 0.40151676E-02 0.13464651E+03</pdfrwt>
<pdfrwt beam="1">  1        4 0.50781463E-01 0.13464651E+03</pdfrwt>
<totfact> 0.58955972E+04</totfact>
</mgrwt>
</event>
<event>
 6    4  0.6376098E-003  0.1638826E+03  0.7818608E-02  0.1184382E+00
         21   -1    0    0  501  502  0.00000000000E+00  0.00000000000E+00  0.87134883402E+03  0.87134883402E+03  0.00000000000E+00 0.  1.
          4   -1    0    0  502    0 -0.00000000000E+00 -0.00000000000E+00 -0.63219013437E+02  0.63231768597E+02  0.12700000000E+01 0. -1.
         25    2    1    2    0    0 -0.65092516802E+02 -0.83636680266E+02  0.53279998502E+02  0.17232605404E+03  0.12500152252E+03 0.  0.
    9000005    1    3    3    0    0  0.44985479472E+01  0.87667363754E+01 -0.28818134515E+02  0.30472569259E+02  0.10000000000E+01 0.  0.
    9000005    1    3    3    0    0 -0.69591064750E+02 -0.92403416641E+02  0.82098133017E+02  0.14185348478E+03  0.10000000000E+01 0.  0.
          4    1    1    2  501    0  0.65092516802E+02  0.83636680266E+02  0.75484982208E+03  0.76225454857E+03  0.12700000000E+01 0.  1.
<mgrwt>
<rscale>  1 0.16388261E+03</rscale>
<asrwt>0</asrwt>
<pdfrwt beam="1">  1       21 0.13405366E+00 0.16388261E+03</pdfrwt>
<pdfrwt beam="2">  1        4 0.97270550E-02 0.16388261E+03</pdfrwt>
<totfact> 0.13396219E+03</totfact>
</mgrwt>
</event>
<event>
 6    4  0.6376098E-003  0.1379135E+03  0.7818608E-02  0.1216164E+00
          4   -1    0    0  502    0 -0.00000000000E+00  0.00000000000E+00  0.26648432540E+02  0.26678677944E+02  0.12700000000E+01 0.  1.
         21   -1    0    0  501  502  0.00000000000E+00 -0.00000000000E+00 -0.42224308243E+03  0.42224308243E+03  0.00000000000E+00 0.  1.
         25    2    1    2    0    0 -0.55668946562E+02 -0.17099553893E+02 -0.18705659096E+03  0.23240118104E+03  0.12501485660E+03 0.  0.
    9000005    1    3    3    0    0  0.92303779092E+01  0.26521395985E+02 -0.13630976008E+03  0.13917591392E+03  0.10000000000E+01 0.  0.
    9000005    1    3    3    0    0 -0.64899324471E+02 -0.43620949878E+02 -0.50746830877E+02  0.93225267117E+02  0.10000000000E+01 0.  0.
          4    1    1    2  501    0  0.55668946562E+02  0.17099553893E+02 -0.20853805893E+03  0.21652057934E+03  0.12700000000E+01 0. -1.
<mgrwt>
<rscale>  1 0.13791353E+03</rscale>
<asrwt>0</asrwt>
<pdfrwt beam="2">  1       21 0.64960470E-01 0.13791353E+03</pdfrwt>
<pdfrwt beam="1">  1        4 0.41022326E-02 0.13791353E+03</pdfrwt>
<totfact> 0.29395284E+04</totfact>
</mgrwt>
</event>
<event>
 6    4  0.6376098E-003  0.1337624E+03  0.7818608E-02  0.1221977E+00
         -4   -1    0    0    0  501 -0.00000000000E+00  0.00000000000E+00  0.37605116375E+03  0.37605330827E+03  0.12700000000E+01 0. -1.
         21   -1    0    0  501  502  0.00000000000E+00 -0.00000000000E+00 -0.21874604688E+02  0.21874604688E+02  0.00000000000E+00 0. -1.
         25    2    1    2    0    0  0.27509246950E+02 -0.38860238858E+02  0.26280907995E+03  0.29489148265E+03  0.12500198878E+03 0.  0.
    9000005    1    3    3    0    0  0.35176406867E+02  0.25787094562E+02  0.19900894977E+03  0.20373491585E+03  0.10000000000E+01 0.  0.
    9000005    1    3    3    0    0 -0.76671599164E+01 -0.64647333421E+02  0.63800130183E+02  0.91156566801E+02  0.10000000000E+01 0.  0.
         -4    1    1    2    0  502 -0.27509246950E+02  0.38860238858E+02  0.91367479112E+02  0.10303643031E+03  0.12700000000E+01 0.  1.
<mgrwt>
<rscale>  1 0.13376238E+03</rscale>
<asrwt>0</asrwt>
<pdfrwt beam="2">  1       21 0.33653241E-02 0.13376238E+03</pdfrwt>
<pdfrwt beam="1">  1       -4 0.57857021E-01 0.13376238E+03</pdfrwt>
<totfact> 0.60290075E+04</totfact>
</mgrwt>
</event>
<event>
 6    4  0.6376098E-003  0.1271898E+03  0.7818608E-02  0.1231686E+00
         -4   -1    0    0    0  501 -0.00000000000E+00  0.00000000000E+00  0.11366422128E+03  0.11367131608E+03  0.12700000000E+01 0. -1.
         21   -1    0    0  501  502  0.00000000000E+00 -0.00000000000E+00 -0.55717908477E+02  0.55717908477E+02  0.00000000000E+00 0. -1.
         25    2    1    2    0    0  0.50262179075E+01 -0.22964299453E+02  0.67489446074E+02  0.14398634660E+03  0.12499848303E+03 0.  0.
    9000005    1    3    3    0    0 -0.45716018951E+02 -0.25162104786E+02  0.76284888127E+02  0.92430893442E+02  0.10000000000E+01 0.  0.
    9000005    1    3    3    0    0  0.50742236858E+02  0.21978053333E+01 -0.87954420531E+01  0.51555453160E+02  0.10000000000E+01 0.  0.
         -4    1    1    2    0  502 -0.50262179075E+01  0.22964299453E+02 -0.95431332691E+01  0.25402877955E+02  0.12700000000E+01 0.  1.
<mgrwt>
<rscale>  1 0.12718979E+03</rscale>
<asrwt>0</asrwt>
<pdfrwt beam="2">  1       21 0.85719859E-02 0.12718979E+03</pdfrwt>
<pdfrwt beam="1">  1       -4 0.17488462E-01 0.12718979E+03</pdfrwt>
<totfact> 0.12165090E+05</totfact>
</mgrwt>
</event>
<event>
 6    4  0.6376098E-003  0.1349453E+03  0.7818608E-02  0.1220297E+00
         -4   -1    0    0    0  501 -0.00000000000E+00  0.00000000000E+00  0.35141728883E+02  0.35164669896E+02  0.12700000000E+01 0.  1.
         21   -1    0    0  501  502  0.00000000000E+00 -0.00000000000E+00 -0.39140010173E+03  0.39140010173E+03  0.00000000000E+00 0. -1.
         25    2    1    2    0    0 -0.18749737109E+02 -0.47272345620E+02 -0.10714030988E+03  0.17230575114E+03  0.12499599423E+03 0.  0.
    9000005    1    3    3    0    0 -0.27889296001E+02  0.70472303568E+01  0.19116160259E+02  0.34552914062E+02  0.10000000000E+01 0.  0.
    9000005    1    3    3    0    0  0.91395588921E+01 -0.54319575977E+02 -0.12625647014E+03  0.13775283708E+03  0.10000000000E+01 0.  0.
         -4    1    1    2    0  502  0.18749737109E+02  0.47272345620E+02 -0.24911806297E+03  0.25425902049E+03  0.12700000000E+01 0. -1.
<mgrwt>
<rscale>  1 0.13494527E+03</rscale>
<asrwt>0</asrwt>
<pdfrwt beam="2">  1       21 0.60215405E-01 0.13494527E+03</pdfrwt>
<pdfrwt beam="1">  1       -4 0.54083426E-02 0.13494527E+03</pdfrwt>
<totfact> 0.22162680E+04</totfact>
</mgrwt>
</event>
<event>
 6    4  0.6376098E-003  0.1268538E+03  0.7818608E-02  0.1232200E+00
         -4   -1    0    0    0  501 -0.00000000000E+00  0.00000000000E+00  0.13317887907E+03  0.13318493432E+03  0.12700000000E+01 0.  1.
         21   -1    0    0  501  502  0.00000000000E+00 -0.00000000000E+00 -0.59424446884E+02  0.59424446884E+02  0.00000000000E+00 0.  1.
         25    2    1    2    0    0 -0.93019081849E+01  0.19547810421E+02  0.12309019203E+02  0.12744962319E+03  0.12499300824E+03 0.  0.
    9000005    1    3    3    0    0  0.54051630786E+02  0.24314967780E+02 -0.99832985687E+01  0.60112084468E+02  0.10000000000E+01 0.  0.
    9000005    1    3    3    0    0 -0.63353538971E+02 -0.47671573593E+01  0.22292317771E+02  0.67337538721E+02  0.10000000000E+01 0.  0.
         -4    1    1    2    0  502  0.93019081849E+01 -0.19547810421E+02  0.61445412979E+02  0.65159758012E+02  0.12700000000E+01 0. -1.
<mgrwt>
<rscale>  1 0.12685383E+03</rscale>
<asrwt>0</asrwt>
<pdfrwt beam="2">  1       21 0.91422226E-02 0.12685383E+03</pdfrwt>
<pdfrwt beam="1">  1       -4 0.20490568E-01 0.12685383E+03</pdfrwt>
<totfact> 0.81955556E+04</totfact>
</mgrwt>
</event>
<event>
 6    4  0.6376098E-003  0.1411752E+03  0.7818608E-02  0.1211756E+00
         21   -1    0    0  501  502  0.00000000000E+00  0.00000000000E+00  0.25382478064E+03  0.25382478064E+03  0.00000000000E+00 0. -1.
         -4   -1    0    0    0  501 -0.00000000000E+00 -0.00000000000E+00 -0.13574951330E+03  0.13575545390E+03  0.12700000000E+01 0.  1.
         25    2    1    2    0    0  0.44066667996E+02  0.48612895209E+02 -0.92656928984E+02  0.16886603863E+03  0.12500139081E+03 0.  0.
    9000005    1    3    3    0    0 -0.28548567778E+02  0.31191304839E+02  0.84861466851E+01  0.43138531562E+02  0.10000000000E+01 0.  0.
    9000005    1    3    3    0    0  0.72615235774E+02  0.17421590370E+02 -0.10114307567E+03  0.12572750707E+03  0.10000000000E+01 0.  0.
         -4    1    1    2    0  502 -0.44066667996E+02 -0.48612895209E+02  0.21073219632E+03  0.22071419591E+03  0.12700000000E+01 0. -1.
<mgrwt>
<rscale>  1 0.14117518E+03</rscale>
<asrwt>0</asrwt>
<pdfrwt beam="1">  1       21 0.39049966E-01 0.14117518E+03</pdfrwt>
<pdfrwt beam="2">  1       -4 0.20885242E-01 0.14117518E+03</pdfrwt>
<totfact> 0.54573307E+03</totfact>
</mgrwt>
</event>
<event>
 6    4  0.6376098E-003  0.1272891E+03  0.7818608E-02  0.1231535E+00
         -4   -1    0    0    0  501 -0.00000000000E+00  0.00000000000E+00  0.13224274417E+03  0.13224884229E+03  0.12700000000E+01 0. -1.
         21   -1    0    0  501  502  0.00000000000E+00 -0.00000000000E+00 -0.47078611632E+02  0.47078611632E+02  0.00000000000E+00 0. -1.
         25    2    1    2    0    0 -0.21927199861E+02  0.98419028532E+01  0.88496724444E+02  0.15502963068E+03  0.12499940402E+03 0.  0.
    9000005    1    3    3    0    0 -0.51528464637E+02  0.41999072332E+02  0.12932896729E+02  0.67730086095E+02  0.10000000000E+01 0.  0.
    9000005    1    3    3    0    0  0.29601264776E+02 -0.32157169479E+02  0.75563827714E+02  0.87299544581E+02  0.10000000000E+01 0.  0.
         -4    1    1    2    0  502  0.21927199861E+02 -0.98419028532E+01 -0.33325919048E+01  0.24297823242E+02  0.12700000000E+01 0.  1.
<mgrwt>
<rscale>  1 0.12728910E+03</rscale>
<asrwt>0</asrwt>
<pdfrwt beam="2">  1       21 0.72428634E-02 0.12728910E+03</pdfrwt>
<pdfrwt beam="1">  1       -4 0.20346824E-01 0.12728910E+03</pdfrwt>
<totfact> 0.12410986E+05</totfact>
</mgrwt>
</event>
<event>
 6    4  0.6376098E-003  0.1273347E+03  0.7818608E-02  0.1231465E+00
         -4   -1    0    0    0  501 -0.00000000000E+00  0.00000000000E+00  0.98505200963E+01  0.99320514582E+01  0.12700000000E+01 0.  1.
         21   -1    0    0  501  502  0.00000000000E+00 -0.00000000000E+00 -0.10250695210E+04  0.10250695210E+04  0.00000000000E+00 0. -1.
         25    2    1    2    0    0  0.22044339239E+02  0.10155134548E+02 -0.41053108697E+03  0.42982542802E+03  0.12500018218E+03 0.  0.
    9000005    1    3    3    0    0 -0.37588929090E+02  0.26577631618E+02 -0.70448289477E+02  0.84162103008E+02  0.10000000000E+01 0.  0.
    9000005    1    3    3    0    0  0.59633268329E+02 -0.16422497070E+02 -0.34008279750E+03  0.34566332501E+03  0.10000000000E+01 0.  0.
         -4    1    1    2    0  502 -0.22044339239E+02 -0.10155134548E+02 -0.60468791389E+03  0.60517614441E+03  0.12700000000E+01 0. -1.
<mgrwt>
<rscale>  1 0.12733470E+03</rscale>
<asrwt>0</asrwt>
<pdfrwt beam="2">  1       21 0.15770295E+00 0.12733470E+03</pdfrwt>
<pdfrwt beam="1">  1       -4 0.15217973E-02 0.12733470E+03</pdfrwt>
<totfact> 0.16803836E+04</totfact>
</mgrwt>
</event>
<event>
 6    4  0.6376098E-003  0.1281566E+03  0.7818608E-02  0.1230217E+00
         21   -1    0    0  501  502  0.00000000000E+00  0.00000000000E+00  0.24338759347E+02  0.24338759347E+02  0.00000000000E+00 0.  1.
          4   -1    0    0  502    0 -0.00000000000E+00 -0.00000000000E+00 -0.30681591413E+03  0.30681854256E+03  0.12700000000E+01 0.  1.
         25    2    1    2    0    0  0.13826640869E+02  0.24656046182E+02 -0.27253710080E+03  0.30116539993E+03  0.12500012078E+03 0.  0.
    9000005    1    3    3    0    0  0.55255539174E+02  0.22204397106E+02 -0.24306127696E+03  0.25025186157E+03  0.10000000000E+01 0.  0.
    9000005    1    3    3    0    0 -0.41428898305E+02  0.24516490760E+01 -0.29475823837E+02  0.50913538365E+02  0.10000000000E+01 0.  0.
          4    1    1    2  501    0 -0.13826640869E+02 -0.24656046182E+02 -0.99400539796E+01  0.29991901976E+02  0.12700000000E+01 0. -1.
<mgrwt>
<rscale>  1 0.12815665E+03</rscale>
<asrwt>0</asrwt>
<pdfrwt beam="1">  1       21 0.37444248E-02 0.12815665E+03</pdfrwt>
<pdfrwt beam="2">  1        4 0.47205196E-01 0.12815665E+03</pdfrwt>
<totfact> 0.76249168E+04</totfact>
</mgrwt>
</event>
<event>
 6    4  0.6376098E-003  0.1271465E+03  0.7818608E-02  0.1231752E+00
          4   -1    0    0  502    0 -0.00000000000E+00  0.00000000000E+00  0.19419524112E+03  0.19419939386E+03  0.12700000000E+01 0. -1.
         21   -1    0    0  501  502  0.00000000000E+00 -0.00000000000E+00 -0.52033650403E+02  0.52033650403E+02  0.00000000000E+00 0.  1.
         25    2    1    2    0    0 -0.23072735807E+02 -0.27105196449E+01  0.16850086044E+03  0.21108950881E+03  0.12500617068E+03 0.  0.
    9000005    1    3    3    0    0 -0.66326585606E+02  0.16587552277E+02  0.53846621361E+02  0.87033450355E+02  0.10000000000E+01 0.  0.
    9000005    1    3    3    0    0  0.43253849799E+02 -0.19298071922E+02  0.11465423907E+03  0.12405605846E+03  0.10000000000E+01 0.  0.
          4    1    1    2  501    0  0.23072735807E+02  0.27105196449E+01 -0.26339269718E+02  0.35143535446E+02  0.12700000000E+01 0.  1.
<mgrwt>
<rscale>  1 0.12714653E+03</rscale>
<asrwt>0</asrwt>
<pdfrwt beam="2">  1       21 0.80051771E-02 0.12714653E+03</pdfrwt>
<pdfrwt beam="1">  1        4 0.29877702E-01 0.12714653E+03</pdfrwt>
<totfact> 0.51500430E+04</totfact>
</mgrwt>
</event>
<event>
 6    4  0.6376098E-003  0.1284968E+03  0.7818608E-02  0.1229703E+00
         21   -1    0    0  501  502  0.00000000000E+00  0.00000000000E+00  0.63124008681E+01  0.63124008681E+01  0.00000000000E+00 0. -1.
          4   -1    0    0  502    0 -0.00000000000E+00 -0.00000000000E+00 -0.99916135455E+03  0.99916216167E+03  0.12700000000E+01 0. -1.
         25    2    1    2    0    0 -0.29781652581E+02 -0.25132173786E+00 -0.77157095923E+03  0.78219766333E+03  0.12499771759E+03 0.  0.
    9000005    1    3    3    0    0 -0.18803663476E+01  0.60825792484E+02 -0.33330014948E+03  0.33881160319E+03  0.10000000000E+01 0.  0.
    9000005    1    3    3    0    0 -0.27901286233E+02 -0.61077114221E+02 -0.43827080974E+03  0.44338606014E+03  0.10000000000E+01 0.  0.
          4    1    1    2  501    0  0.29781652581E+02  0.25132173786E+00 -0.22127799445E+03  0.22327689921E+03  0.12700000000E+01 0.  1.
<mgrwt>
<rscale>  1 0.12849685E+03</rscale>
<asrwt>0</asrwt>
<pdfrwt beam="1">  1       21 0.97113810E-03 0.12849685E+03</pdfrwt>
<pdfrwt beam="2">  1        4 0.15372710E+00 0.12849685E+03</pdfrwt>
<totfact> 0.47108394E+04</totfact>
</mgrwt>
</event>
<event>
 6    4  0.6376098E-003  0.1284999E+03  0.7818608E-02  0.1229699E+00
          4   -1    0    0  502    0 -0.00000000000E+00  0.00000000000E+00  0.16345532390E+03  0.16346025759E+03  0.12700000000E+01 0. -1.
         21   -1    0    0  501  502  0.00000000000E+00 -0.00000000000E+00 -0.87094615656E+02  0.87094615656E+02  0.00000000000E+00 0.  1.
         25    2    1    2    0    0 -0.11127388079E+02  0.27642148307E+02  0.13400015291E+03  0.18565629383E+03  0.12499724529E+03 0.  0.
    9000005    1    3    3    0    0 -0.45967545415E+02  0.61641458750E+02  0.62215962595E+02  0.98916685498E+02  0.10000000000E+01 0.  0.
    9000005    1    3    3    0    0  0.34840157336E+02 -0.33999310443E+02  0.71784190318E+02  0.86739608331E+02  0.10000000000E+01 0.  0.
          4    1    1    2  501    0  0.11127388079E+02 -0.27642148307E+02 -0.57639444669E+02  0.64898579416E+02  0.12700000000E+01 0.  1.
<mgrwt>
<rscale>  1 0.12849988E+03</rscale>
<asrwt>0</asrwt>
<pdfrwt beam="2">  1       21 0.13399172E-01 0.12849988E+03</pdfrwt>
<pdfrwt beam="1">  1        4 0.25148065E-01 0.12849988E+03</pdfrwt>
<totfact> 0.28820380E+04</totfact>
</mgrwt>
</event>
<event>
 6    4  0.6376098E-003  0.1301158E+03  0.7818608E-02  0.1227284E+00
         -4   -1    0    0    0  501 -0.00000000000E+00  0.00000000000E+00  0.30684259043E+03  0.30684521864E+03  0.12700000000E+01 0.  1.
         21   -1    0    0  501  502  0.00000000000E+00 -0.00000000000E+00 -0.38245259937E+02  0.38245259937E+02  0.00000000000E+00 0. -1.
         25    2    1    2    0    0 -0.36049746162E+02  0.24556547525E+01  0.27867668336E+03  0.30755621832E+03  0.12499807654E+03 0.  0.
    9000005    1    3    3    0    0 -0.14126549459E+02  0.55245799893E+02  0.65515543168E+02  0.86861638265E+02  0.10000000000E+01 0.  0.
    9000005    1    3    3    0    0 -0.21923196703E+02 -0.52790145140E+02  0.21316114019E+03  0.22069458005E+03  0.10000000000E+01 0.  0.
         -4    1    1    2    0  502  0.36049746162E+02 -0.24556547525E+01 -0.10079352869E+02  0.37534260255E+02  0.12700000000E+01 0. -1.
<mgrwt>
<rscale>  1 0.13011585E+03</rscale>
<asrwt>0</asrwt>
<pdfrwt beam="2">  1       21 0.58838863E-02 0.13011585E+03</pdfrwt>
<pdfrwt beam="1">  1       -4 0.47208375E-01 0.13011585E+03</pdfrwt>
<totfact> 0.35842468E+04</totfact>
</mgrwt>
</event>
<event>
 6    4  0.6376098E-003  0.1431104E+03  0.7818608E-02  0.1209204E+00
         21   -1    0    0  501  502  0.00000000000E+00  0.00000000000E+00  0.11147284724E+03  0.11147284724E+03  0.00000000000E+00 0. -1.
          4   -1    0    0  502    0 -0.00000000000E+00 -0.00000000000E+00 -0.23908705705E+03  0.23909043006E+03  0.12700000000E+01 0.  1.
         25    2    1    2    0    0  0.43751837246E+02 -0.54267259820E+02 -0.20268169748E+03  0.24811378069E+03  0.12498567486E+03 0.  0.
    9000005    1    3    3    0    0  0.66553650352E+02  0.36101808897E+01 -0.15808973569E+03  0.17156860526E+03  0.10000000000E+01 0.  0.
    9000005    1    3    3    0    0 -0.22801813105E+02 -0.57877440710E+02 -0.44591961792E+02  0.76545175423E+02  0.10000000000E+01 0.  0.
          4    1    1    2  501    0 -0.43751837246E+02  0.54267259820E+02  0.75067487672E+02  0.10244949661E+03  0.12700000000E+01 0. -1.
<mgrwt>
<rscale>  1 0.14311037E+03</rscale>
<asrwt>0</asrwt>
<pdfrwt beam="1">  1       21 0.17149669E-01 0.14311037E+03</pdfrwt>
<pdfrwt beam="2">  1        4 0.36783440E-01 0.14311037E+03</pdfrwt>
<totfact> 0.90716217E+03</totfact>
</mgrwt>
</event>
<event>
 6    4  0.6376098E-003  0.1297868E+03  0.7818608E-02  0.1227772E+00
         -4   -1    0    0    0  501 -0.00000000000E+00  0.00000000000E+00  0.22682852820E+02  0.22718378288E+02  0.12700000000E+01 0.  1.
         21   -1    0    0  501  502  0.00000000000E+00 -0.00000000000E+00 -0.38767980203E+03  0.38767980203E+03  0.00000000000E+00 0. -1.
         25    2    1    2    0    0 -0.26209254473E+02 -0.23043190241E+02 -0.17870969803E+03  0.22086594958E+03  0.12500679132E+03 0.  0.
    9000005    1    3    3    0    0 -0.64793515879E+02  0.93547151939E+01 -0.49201692044E+02  0.81899431599E+02  0.10000000000E+01 0.  0.
    9000005    1    3    3    0    0  0.38584261406E+02 -0.32397905435E+02 -0.12950800599E+03  0.13896651798E+03  0.10000000000E+01 0.  0.
         -4    1    1    2    0  502  0.26209254473E+02  0.23043190241E+02 -0.18628725118E+03  0.18953223074E+03  0.12700000000E+01 0. -1.
<mgrwt>
<rscale>  1 0.12978679E+03</rscale>
<asrwt>0</asrwt>
<pdfrwt beam="2">  1       21 0.59643044E-01 0.12978679E+03</pdfrwt>
<pdfrwt beam="1">  1       -4 0.34925626E-02 0.12978679E+03</pdfrwt>
<totfact> 0.45257673E+04</totfact>
</mgrwt>
</event>
<event>
 6    4  0.6376098E-003  0.1274764E+03  0.7818608E-02  0.1231249E+00
         -4   -1    0    0    0  501 -0.00000000000E+00  0.00000000000E+00  0.48008462159E+03  0.48008630139E+03  0.12700000000E+01 0. -1.
         21   -1    0    0  501  502  0.00000000000E+00 -0.00000000000E+00 -0.13744095186E+02  0.13744095186E+02  0.00000000000E+00 0. -1.
         25    2    1    2    0    0  0.14390045583E+02  0.20452546186E+02  0.43722055992E+03  0.45542511823E+03  0.12499936095E+03 0.  0.
    9000005    1    3    3    0    0  0.24967209528E+02  0.70161577150E+02  0.29954973717E+03  0.30866981306E+03  0.10000000000E+01 0.  0.
    9000005    1    3    3    0    0 -0.10577163945E+02 -0.49709030964E+02  0.13767082275E+03  0.14675530516E+03  0.10000000000E+01 0.  0.
         -4    1    1    2    0  502 -0.14390045583E+02 -0.20452546186E+02  0.29119966487E+02  0.38405278355E+02  0.12700000000E+01 0.  1.
<mgrwt>
<rscale>  1 0.12747635E+03</rscale>
<asrwt>0</asrwt>
<pdfrwt beam="2">  1       21 0.21144766E-02 0.12747635E+03</pdfrwt>
<pdfrwt beam="1">  1       -4 0.73863802E-01 0.12747635E+03</pdfrwt>
<totfact> 0.76009721E+04</totfact>
</mgrwt>
</event>
<event>
 6    4  0.6376098E-003  0.1269053E+03  0.7818608E-02  0.1232121E+00
         -4   -1    0    0    0  501 -0.00000000000E+00  0.00000000000E+00  0.51979097059E+03  0.51979252207E+03  0.12700000000E+01 0. -1.
         21   -1    0    0  501  502  0.00000000000E+00 -0.00000000000E+00 -0.40981006667E+02  0.40981006667E+02  0.00000000000E+00 0.  1.
         25    2    1    2    0    0 -0.18749570142E+02 -0.11296169977E+02  0.50836930892E+03  0.52396975701E+03  0.12500320862E+03 0.  0.
    9000005    1    3    3    0    0 -0.45552295755E+02 -0.44684860062E+02  0.42956503406E+03  0.43427971039E+03  0.10000000000E+01 0.  0.
    9000005    1    3    3    0    0  0.26802725613E+02  0.33388690085E+02  0.78804274862E+02  0.89690046619E+02  0.10000000000E+01 0.  0.
         -4    1    1    2    0  502  0.18749570142E+02  0.11296169977E+02 -0.29559345004E+02  0.36803771732E+02  0.12700000000E+01 0.  1.
<mgrwt>
<rscale>  1 0.12690529E+03</rscale>
<asrwt>0</asrwt>
<pdfrwt beam="2">  1       21 0.63047706E-02 0.12690529E+03</pdfrwt>
<pdfrwt beam="1">  1       -4 0.79969470E-01 0.12690529E+03</pdfrwt>
<totfact> 0.10464942E+04</totfact>
</mgrwt>
</event>
<event>
 6    4  0.6376098E-003  0.1337727E+03  0.7818608E-02  0.1221963E+00
         21   -1    0    0  501  502  0.00000000000E+00  0.00000000000E+00  0.15515517920E+04  0.15515517920E+04  0.00000000000E+00 0.  1.
         -4   -1    0    0    0  501 -0.00000000000E+00 -0.00000000000E+00 -0.91981786871E+01  0.92854397397E+01  0.12700000000E+01 0. -1.
         25    2    1    2    0    0  0.22930286966E+02 -0.41759951100E+02  0.50587353707E+03  0.52326205233E+03  0.12500179329E+03 0.  0.
    9000005    1    3    3    0    0  0.70326498790E+02 -0.14889657573E+02  0.19900437819E+03  0.21159220419E+03  0.10000000000E+01 0.  0.
    9000005    1    3    3    0    0 -0.47396211824E+02 -0.26870293527E+02  0.30686915888E+03  0.31166984814E+03  0.10000000000E+01 0.  0.
         -4    1    1    2    0  502 -0.22930286966E+02  0.41759951100E+02  0.10364800762E+04  0.10375751794E+04  0.12700000000E+01 0.  1.
<mgrwt>
<rscale>  1 0.13377272E+03</rscale>
<asrwt>0</asrwt>
<pdfrwt beam="1">  1       21 0.23870007E+00 0.13377272E+03</pdfrwt>
<pdfrwt beam="2">  1       -4 0.14218580E-02 0.13377272E+03</pdfrwt>
<totfact> 0.56626115E+03</totfact>
</mgrwt>
</event>
<event>
 6    4  0.6376098E-003  0.1286634E+03  0.7818608E-02  0.1229453E+00
         21   -1    0    0  501  502  0.00000000000E+00  0.00000000000E+00  0.16813909175E+03  0.16813909175E+03  0.00000000000E+00 0.  1.
          4   -1    0    0  502    0 -0.00000000000E+00 -0.00000000000E+00 -0.14162402577E+03  0.14162971996E+03  0.12700000000E+01 0. -1.
         25    2    1    2    0    0 -0.29526404544E+02 -0.75871528371E+01 -0.11037491500E+03  0.16951955771E+03  0.12499954053E+03 0.  0.
    9000005    1    3    3    0    0 -0.17834489109E+02 -0.45494977464E+02  0.34284409194E+01  0.48996083347E+02  0.10000000000E+01 0.  0.
    9000005    1    3    3    0    0 -0.11691915435E+02  0.37907824627E+02 -0.11380335592E+03  0.12052347436E+03  0.10000000000E+01 0.  0.
          4    1    1    2  501    0  0.29526404544E+02  0.75871528371E+01  0.13688998098E+03  0.14024925400E+03  0.12700000000E+01 0.  1.
<mgrwt>
<rscale>  1 0.12866335E+03</rscale>
<asrwt>0</asrwt>
<pdfrwt beam="1">  1       21 0.25867552E-01 0.12866335E+03</pdfrwt>
<pdfrwt beam="2">  1        4 0.21789119E-01 0.12866335E+03</pdfrwt>
<totfact> 0.11183864E+04</totfact>
</mgrwt>
</event>
<event>
 6    4  0.6376098E-003  0.1301515E+03  0.7818608E-02  0.1227231E+00
          4   -1    0    0  502    0 -0.00000000000E+00  0.00000000000E+00  0.21721129941E+03  0.21721501212E+03  0.12700000000E+01 0.  1.
         21   -1    0    0  501  502  0.00000000000E+00 -0.00000000000E+00 -0.34493785349E+02  0.34493785349E+02  0.00000000000E+00 0.  1.
         25    2    1    2    0    0 -0.57735352853E+01 -0.35801280464E+02  0.10987547937E+03  0.17032919124E+03  0.12499738809E+03 0.  0.
    9000005    1    3    3    0    0  0.10511207815E+02 -0.77928523329E+02  0.43012267375E+02  0.89634788909E+02  0.10000000000E+01 0.  0.
    9000005    1    3    3    0    0 -0.16284743100E+02  0.42127242865E+02  0.66863211993E+02  0.80694402330E+02  0.10000000000E+01 0.  0.
          4    1    1    2  501    0  0.57735352853E+01  0.35801280464E+02  0.72842034695E+02  0.81379606235E+02  0.12700000000E+01 0. -1.
<mgrwt>
<rscale>  1 0.13015150E+03</rscale>
<asrwt>0</asrwt>
<pdfrwt beam="2">  1       21 0.53067363E-02 0.13015150E+03</pdfrwt>
<pdfrwt beam="1">  1        4 0.33419206E-01 0.13015150E+03</pdfrwt>
<totfact> 0.84122992E+04</totfact>
</mgrwt>
</event>
<event>
 6    4  0.6376098E-003  0.1267500E+03  0.7818608E-02  0.1232359E+00
         -4   -1    0    0    0  501 -0.00000000000E+00  0.00000000000E+00  0.40803326272E+01  0.42734078145E+01  0.12700000000E+01 0.  1.
         21   -1    0    0  501  502  0.00000000000E+00 -0.00000000000E+00 -0.13474158029E+04  0.13474158029E+04  0.00000000000E+00 0.  1.
         25    2    1    2    0    0 -0.11973929329E+02 -0.17359220978E+02 -0.10563349524E+04  0.10639121656E+04  0.12498338653E+03 0.  0.
    9000005    1    3    3    0    0 -0.40389100766E+02  0.42544104919E+02 -0.40834610858E+03  0.41253948261E+03  0.10000000000E+01 0.  0.
    9000005    1    3    3    0    0  0.28415171437E+02 -0.59903325897E+02 -0.64798884381E+03  0.65137268297E+03  0.10000000000E+01 0.  0.
         -4    1    1    2    0  502  0.11973929329E+02  0.17359220978E+02 -0.28700051788E+03  0.28777704512E+03  0.12700000000E+01 0. -1.
<mgrwt>
<rscale>  1 0.12675001E+03</rscale>
<asrwt>0</asrwt>
<pdfrwt beam="2">  1       21 0.20729496E+00 0.12675001E+03</pdfrwt>
<pdfrwt beam="1">  1       -4 0.64264077E-03 0.12675001E+03</pdfrwt>
<totfact> 0.28756549E+04</totfact>
</mgrwt>
</event>
<event>
 6    4  0.6376098E-003  0.1377537E+03  0.7818608E-02  0.1216384E+00
         -4   -1    0    0    0  501 -0.00000000000E+00  0.00000000000E+00  0.46935482206E+03  0.46935654027E+03  0.12700000000E+01 0. -1.
         21   -1    0    0  501  502  0.00000000000E+00 -0.00000000000E+00 -0.21509778026E+02  0.21509778026E+02  0.00000000000E+00 0. -1.
         25    2    1    2    0    0 -0.53710516377E+02 -0.21571031526E+02  0.36199283077E+03  0.38731756459E+03  0.12500382931E+03 0.  0.
    9000005    1    3    3    0    0 -0.53712577766E+02  0.43752498580E+02  0.22715620256E+03  0.23748739441E+03  0.10000000000E+01 0.  0.
    9000005    1    3    3    0    0  0.20613898613E-02 -0.65323530106E+02  0.13483662821E+03  0.14983017018E+03  0.10000000000E+01 0.  0.
         -4    1    1    2    0  502  0.53710516377E+02  0.21571031526E+02  0.85852213267E+02  0.10354875370E+03  0.12700000000E+01 0.  1.
<mgrwt>
<rscale>  1 0.13775372E+03</rscale>
<asrwt>0</asrwt>
<pdfrwt beam="2">  1       21 0.33091970E-02 0.13775372E+03</pdfrwt>
<pdfrwt beam="1">  1       -4 0.72211442E-01 0.13775372E+03</pdfrwt>
<totfact> 0.38823825E+04</totfact>
</mgrwt>
</event>
<event>
 6    4  0.6376098E-003  0.1267734E+03  0.7818608E-02  0.1232324E+00
         21   -1    0    0  501  502  0.00000000000E+00  0.00000000000E+00  0.15941986210E+03  0.15941986210E+03  0.00000000000E+00 0.  1.
         -4   -1    0    0    0  501 -0.00000000000E+00 -0.00000000000E+00 -0.10359216848E+03  0.10359995304E+03  0.12700000000E+01 0. -1.
         25    2    1    2    0    0 -0.66457478482E+01  0.20055638526E+02 -0.63529155602E+02  0.14180073679E+03  0.12500040296E+03 0.  0.
    9000005    1    3    3    0    0 -0.27791112001E+02 -0.86662085499E+01  0.29928821206E+02  0.41763421983E+02  0.10000000000E+01 0.  0.
    9000005    1    3    3    0    0  0.21145364153E+02  0.28721847076E+02 -0.93457976809E+02  0.10003731481E+03  0.10000000000E+01 0.  0.
         -4    1    1    2    0  502  0.66457478482E+01 -0.20055638526E+02  0.11935684922E+03  0.12121907836E+03  0.12700000000E+01 0.  1.
<mgrwt>
<rscale>  1 0.12677340E+03</rscale>
<asrwt>0</asrwt>
<pdfrwt beam="1">  1       21 0.24526133E-01 0.12677340E+03</pdfrwt>
<pdfrwt beam="2">  1       -4 0.15938245E-01 0.12677340E+03</pdfrwt>
<totfact> 0.21570466E+04</totfact>
</mgrwt>
</event>
<event>
 6    4  0.6376098E-003  0.1280803E+03  0.7818608E-02  0.1230332E+00
         21   -1    0    0  501  502  0.00000000000E+00  0.00000000000E+00  0.10687852840E+03  0.10687852840E+03  0.00000000000E+00 0.  1.
         -4   -1    0    0    0  501 -0.00000000000E+00 -0.00000000000E+00 -0.65852679088E+02  0.65864924224E+02  0.12700000000E+01 0.  1.
         25    2    1    2    0    0  0.22779757830E+02  0.16139383713E+02  0.63909529142E+01  0.12823967726E+03  0.12500069388E+03 0.  0.
    9000005    1    3    3    0    0  0.21295118243E+02  0.70515100309E+02  0.29709699049E+01  0.73727119127E+02  0.10000000000E+01 0.  0.
    9000005    1    3    3    0    0  0.14846395870E+01 -0.54375716597E+02  0.34199830093E+01  0.54512558130E+02  0.10000000000E+01 0.  0.
         -4    1    1    2    0  502 -0.22779757830E+02 -0.16139383713E+02  0.34634896395E+02  0.44503775365E+02  0.12700000000E+01 0. -1.
<mgrwt>
<rscale>  1 0.12808033E+03</rscale>
<asrwt>0</asrwt>
<pdfrwt beam="1">  1       21 0.16442851E-01 0.12808033E+03</pdfrwt>
<pdfrwt beam="2">  1       -4 0.10132704E-01 0.12808033E+03</pdfrwt>
<totfact> 0.98501856E+04</totfact>
</mgrwt>
</event>
<event>
 6    4  0.6376098E-003  0.1276268E+03  0.7818608E-02  0.1231020E+00
         -4   -1    0    0    0  501 -0.00000000000E+00  0.00000000000E+00  0.74121796177E+02  0.74132675444E+02  0.12700000000E+01 0.  1.
         21   -1    0    0  501  502  0.00000000000E+00 -0.00000000000E+00 -0.24163678469E+03  0.24163678469E+03  0.00000000000E+00 0. -1.
         25    2    1    2    0    0 -0.17400148723E+02 -0.18981401774E+02  0.17629406062E+02  0.12883867473E+03  0.12500219742E+03 0.  0.
    9000005    1    3    3    0    0 -0.15240202657E+02 -0.63532305941E+02 -0.22221770925E+02  0.69017568620E+02  0.10000000000E+01 0.  0.
    9000005    1    3    3    0    0 -0.21599460652E+01  0.44550904167E+02  0.39851176987E+02  0.59821106111E+02  0.10000000000E+01 0.  0.
         -4    1    1    2    0  502  0.17400148723E+02  0.18981401774E+02 -0.18514439457E+03  0.18693078540E+03  0.12700000000E+01 0. -1.
<mgrwt>
<rscale>  1 0.12762683E+03</rscale>
<asrwt>0</asrwt>
<pdfrwt beam="2">  1       21 0.37174890E-01 0.12762683E+03</pdfrwt>
<pdfrwt beam="1">  1       -4 0.11404447E-01 0.12762683E+03</pdfrwt>
<totfact> 0.17238011E+04</totfact>
</mgrwt>
</event>
<event>
 6    4  0.6376098E-003  0.1266335E+03  0.7818608E-02  0.1232538E+00
          4   -1    0    0  502    0 -0.00000000000E+00  0.00000000000E+00  0.51515068054E+02  0.51530720319E+02  0.12700000000E+01 0.  1.
         21   -1    0    0  501  502  0.00000000000E+00 -0.00000000000E+00 -0.33179115563E+03  0.33179115563E+03  0.00000000000E+00 0. -1.
         25    2    1    2    0    0 -0.10708063713E+02  0.17206121736E+02 -0.27313577477E+02  0.12954567992E+03  0.12500135367E+03 0.  0.
    9000005    1    3    3    0    0 -0.22011805917E+02  0.38742721538E+02 -0.68487804213E+02  0.81713508050E+02  0.10000000000E+01 0.  0.
    9000005    1    3    3    0    0  0.11303742205E+02 -0.21536599802E+02  0.41174226736E+02  0.47832171874E+02  0.10000000000E+01 0.  0.
          4    1    1    2  501    0  0.10708063713E+02 -0.17206121736E+02 -0.25296251009E+03  0.25377619602E+03  0.12700000000E+01 0. -1.
<mgrwt>
<rscale>  1 0.12663353E+03</rscale>
<asrwt>0</asrwt>
<pdfrwt beam="2">  1       21 0.51044792E-01 0.12663353E+03</pdfrwt>
<pdfrwt beam="1">  1        4 0.79267863E-02 0.12663353E+03</pdfrwt>
<totfact> 0.16691677E+04</totfact>
</mgrwt>
</event>
<event>
 6    4  0.6376098E-003  0.1278758E+03  0.7818608E-02  0.1230642E+00
         21   -1    0    0  501  502  0.00000000000E+00  0.00000000000E+00  0.71380874671E+03  0.71380874671E+03  0.00000000000E+00 0. -1.
         -4   -1    0    0    0  501 -0.00000000000E+00 -0.00000000000E+00 -0.83629388845E+01  0.84588206498E+01  0.12700000000E+01 0. -1.
         25    2    1    2    0    0 -0.19143856926E+02  0.19028775217E+02  0.57362089019E+03  0.58770158595E+03  0.12499458755E+03 0.  0.
    9000005    1    3    3    0    0  0.43701872752E+01 -0.50212568843E+02  0.16295167417E+03  0.17057153549E+03  0.10000000000E+01 0.  0.
    9000005    1    3    3    0    0 -0.23514044201E+02  0.69241344060E+02  0.41066921603E+03  0.41713005046E+03  0.10000000000E+01 0.  0.
         -4    1    1    2    0  502  0.19143856926E+02 -0.19028775217E+02  0.13182491763E+03  0.13456598141E+03  0.12700000000E+01 0.  1.
<mgrwt>
<rscale>  1 0.12787583E+03</rscale>
<asrwt>0</asrwt>
<pdfrwt beam="1">  1       21 0.10981668E+00 0.12787583E+03</pdfrwt>
<pdfrwt beam="2">  1       -4 0.12940690E-02 0.12787583E+03</pdfrwt>
<totfact> 0.53134941E+04</totfact>
</mgrwt>
</event>
<event>
 6    4  0.6376098E-003  0.1290964E+03  0.7818608E-02  0.1228803E+00
         -4   -1    0    0    0  501 -0.00000000000E+00  0.00000000000E+00  0.23453787985E+03  0.23454131829E+03  0.12700000000E+01 0.  1.
         21   -1    0    0  501  502  0.00000000000E+00 -0.00000000000E+00 -0.33758864569E+02  0.33758864569E+02  0.00000000000E+00 0.  1.
         25    2    1    2    0    0  0.20726706447E+02 -0.24747641351E+02  0.19733520220E+03  0.23581149466E+03  0.12499534740E+03 0.  0.
    9000005    1    3    3    0    0  0.35346663177E+02  0.22830221508E+02  0.11799851657E+02  0.43713180060E+02  0.10000000000E+01 0.  0.
    9000005    1    3    3    0    0 -0.14619956730E+02 -0.47577862859E+02  0.18553535055E+03  0.19209831460E+03  0.10000000000E+01 0.  0.
         -4    1    1    2    0  502 -0.20726706447E+02  0.24747641351E+02  0.34438130799E+01  0.32488688202E+02  0.12700000000E+01 0. -1.
<mgrwt>
<rscale>  1 0.12909639E+03</rscale>
<asrwt>0</asrwt>
<pdfrwt beam="2">  1       21 0.51936717E-02 0.12909639E+03</pdfrwt>
<pdfrwt beam="1">  1       -4 0.36084852E-01 0.12909639E+03</pdfrwt>
<totfact> 0.75156655E+04</totfact>
</mgrwt>
</event>
<event>
 6    4  0.6376098E-003  0.1485693E+03  0.7818608E-02  0.1202242E+00
         -4   -1    0    0    0  501 -0.00000000000E+00  0.00000000000E+00  0.10456356171E+03  0.10457127396E+03  0.12700000000E+01 0.  1.
         21   -1    0    0  501  502  0.00000000000E+00 -0.00000000000E+00 -0.16381807357E+03  0.16381807357E+03  0.00000000000E+00 0. -1.
         25    2    1    2    0    0  0.80153377380E+02 -0.51819550791E+01  0.26469636620E+02  0.15090888491E+03  0.12498573246E+03 0.  0.
    9000005    1    3    3    0    0  0.33129302543E+02  0.59772538897E+02  0.10754011872E+02  0.69187830321E+02  0.10000000000E+01 0.  0.
    9000005    1    3    3    0    0  0.47024074837E+02 -0.64954493976E+02  0.15715624748E+02  0.81721054589E+02  0.10000000000E+01 0.  0.
         -4    1    1    2    0  502 -0.80153377380E+02  0.51819550791E+01 -0.85724148477E+02  0.11748046261E+03  0.12700000000E+01 0. -1.
<mgrwt>
<rscale>  1 0.14856934E+03</rscale>
<asrwt>0</asrwt>
<pdfrwt beam="2">  1       21 0.25202780E-01 0.14856934E+03</pdfrwt>
<pdfrwt beam="1">  1       -4 0.16087674E-01 0.14856934E+03</pdfrwt>
<totfact> 0.20462101E+04</totfact>
</mgrwt>
</event>
<event>
 6    4  0.6376098E-003  0.1269310E+03  0.7818608E-02  0.1232082E+00
         21   -1    0    0  501  502  0.00000000000E+00  0.00000000000E+00  0.80970534406E+01  0.80970534406E+01  0.00000000000E+00 0.  1.
         -4   -1    0    0    0  501 -0.00000000000E+00 -0.00000000000E+00 -0.68567660973E+03  0.68567778587E+03  0.12700000000E+01 0.  1.
         25    2    1    2    0    0 -0.73919874386E+01  0.20710947987E+02 -0.56959743428E+03  0.58356895734E+03  0.12501162345E+03 0.  0.
    9000005    1    3    3    0    0 -0.42712207636E+01  0.41828071345E+02 -0.58629467100E+02  0.72154315822E+02  0.10000000000E+01 0.  0.
    9000005    1    3    3    0    0 -0.31207666750E+01 -0.21117123357E+02 -0.51096796718E+03  0.51141464152E+03  0.10000000000E+01 0.  0.
         -4    1    1    2    0  502  0.73919874386E+01 -0.20710947987E+02 -0.10798212202E+03  0.11020588197E+03  0.12700000000E+01 0. -1.
<mgrwt>
<rscale>  1 0.12693105E+03</rscale>
<asrwt>0</asrwt>
<pdfrwt beam="1">  1       21 0.12457006E-02 0.12693105E+03</pdfrwt>
<pdfrwt beam="2">  1       -4 0.10549646E+00 0.12693105E+03</pdfrwt>
<totfact> 0.79430751E+04</totfact>
</mgrwt>
</event>
<event>
 6    4  0.6376098E-003  0.1272990E+03  0.7818608E-02  0.1231519E+00
          4   -1    0    0  502    0 -0.00000000000E+00  0.00000000000E+00  0.26638830337E+03  0.26639133070E+03  0.12700000000E+01 0.  1.
         21   -1    0    0  501  502  0.00000000000E+00 -0.00000000000E+00 -0.22040865492E+02  0.22040865492E+02  0.00000000000E+00 0.  1.
         25    2    1    2    0    0  0.22632584706E+02  0.82418827522E+01  0.21990236051E+03  0.25409071647E+03  0.12499952607E+03 0.  0.
    9000005    1    3    3    0    0  0.40121452116E+02  0.46771615078E+02  0.19604677252E+03  0.20550584398E+03  0.10000000000E+01 0.  0.
    9000005    1    3    3    0    0 -0.17488867410E+02 -0.38529732326E+02  0.23855587991E+02  0.48584872489E+02  0.10000000000E+01 0.  0.
          4    1    1    2  501    0 -0.22632584706E+02 -0.82418827522E+01  0.24445077368E+02  0.34341479719E+02  0.12700000000E+01 0. -1.
<mgrwt>
<rscale>  1 0.12729903E+03</rscale>
<asrwt>0</asrwt>
<pdfrwt beam="2">  1       21 0.33909026E-02 0.12729903E+03</pdfrwt>
<pdfrwt beam="1">  1        4 0.40985861E-01 0.12729903E+03</pdfrwt>
<totfact> 0.11892901E+05</totfact>
</mgrwt>
</event>
<event>
 6    4  0.6376098E-003  0.1358372E+03  0.7818608E-02  0.1219043E+00
         -4   -1    0    0    0  501 -0.00000000000E+00  0.00000000000E+00  0.36384995287E+03  0.36385216930E+03  0.12700000000E+01 0. -1.
         21   -1    0    0  501  502  0.00000000000E+00 -0.00000000000E+00 -0.24982539747E+02  0.24982539747E+02  0.00000000000E+00 0. -1.
         25    2    1    2    0    0  0.10810743624E+02  0.52029512776E+02  0.21895250250E+03  0.25766633989E+03  0.12501120743E+03 0.  0.
    9000005    1    3    3    0    0 -0.24450002401E+02  0.64567264789E+02  0.51657071917E+02  0.86233331020E+02  0.10000000000E+01 0.  0.
    9000005    1    3    3    0    0  0.35260746025E+02 -0.12537752013E+02  0.16729543059E+03  0.17143300887E+03  0.10000000000E+01 0.  0.
         -4    1    1    2    0  502 -0.10810743624E+02 -0.52029512776E+02  0.11991491062E+03  0.13116836915E+03  0.12700000000E+01 0.  1.
<mgrwt>
<rscale>  1 0.13583720E+03</rscale>
<asrwt>0</asrwt>
<pdfrwt beam="2">  1       21 0.38434679E-02 0.13583720E+03</pdfrwt>
<pdfrwt beam="1">  1       -4 0.55979565E-01 0.13583720E+03</pdfrwt>
<totfact> 0.51931096E+04</totfact>
</mgrwt>
</event>
<event>
 6    4  0.6376098E-003  0.1286794E+03  0.7818608E-02  0.1229428E+00
         21   -1    0    0  501  502  0.00000000000E+00  0.00000000000E+00  0.11474469888E+02  0.11474469888E+02  0.00000000000E+00 0. -1.
          4   -1    0    0  502    0 -0.00000000000E+00 -0.00000000000E+00 -0.60388057364E+03  0.60388190909E+03  0.12700000000E+01 0. -1.
         25    2    1    2    0    0  0.30503345328E+02  0.19383377590E+01 -0.53555636108E+03  0.55079851833E+03  0.12499672262E+03 0.  0.
    9000005    1    3    3    0    0 -0.17848570964E+01 -0.55123000250E+02 -0.15247920961E+03  0.16215005469E+03  0.10000000000E+01 0.  0.
    9000005    1    3    3    0    0  0.32288202424E+02  0.57061338009E+02 -0.38307715147E+03  0.38864846364E+03  0.10000000000E+01 0.  0.
          4    1    1    2  501    0 -0.30503345328E+02 -0.19383377590E+01 -0.56849742673E+02  0.64557860648E+02  0.12700000000E+01 0.  1.
<mgrwt>
<rscale>  1 0.12867942E+03</rscale>
<asrwt>0</asrwt>
<pdfrwt beam="1">  1       21 0.17653021E-02 0.12867942E+03</pdfrwt>
<pdfrwt beam="2">  1        4 0.92910262E-01 0.12867942E+03</pdfrwt>
<totfact> 0.61139955E+04</totfact>
</mgrwt>
</event>
<event>
 6    4  0.6376098E-003  0.1266305E+03  0.7818608E-02  0.1232543E+00
         21   -1    0    0  501  502  0.00000000000E+00  0.00000000000E+00  0.53555839031E+03  0.53555839031E+03  0.00000000000E+00 0. -1.
          4   -1    0    0  502    0 -0.00000000000E+00 -0.00000000000E+00 -0.16130705035E+02  0.16180622514E+02  0.12700000000E+01 0.  1.
         25    2    1    2    0    0  0.19530609848E+02  0.52997569966E+01  0.23807974151E+03  0.26966134531E+03  0.12500298275E+03 0.  0.
    9000005    1    3    3    0    0  0.22857838916E+02  0.59316983665E+02  0.17687879829E+03  0.18795769374E+03  0.10000000000E+01 0.  0.
    9000005    1    3    3    0    0 -0.33272290674E+01 -0.54017226669E+02  0.61200943218E+02  0.81703651577E+02  0.10000000000E+01 0.  0.
          4    1    1    2  501    0 -0.19530609848E+02 -0.52997569966E+01  0.28134794377E+03  0.28207766751E+03  0.12700000000E+01 0. -1.
<mgrwt>
<rscale>  1 0.12663048E+03</rscale>
<asrwt>0</asrwt>
<pdfrwt beam="1">  1       21 0.82393585E-01 0.12663048E+03</pdfrwt>
<pdfrwt beam="2">  1        4 0.24856030E-02 0.12663048E+03</pdfrwt>
<totfact> 0.37966760E+04</totfact>
</mgrwt>
</event>
<event>
 6    4  0.6376098E-003  0.1315475E+03  0.7818608E-02  0.1225177E+00
         21   -1    0    0  501  502  0.00000000000E+00  0.00000000000E+00  0.10064196076E+03  0.10064196076E+03  0.00000000000E+00 0.  1.
          4   -1    0    0  502    0 -0.00000000000E+00 -0.00000000000E+00 -0.76999514759E+02  0.77009987489E+02  0.12700000000E+01 0. -1.
         25    2    1    2    0    0  0.35656995112E+01 -0.40864483005E+02  0.26938239765E+01  0.13157507933E+03  0.12498849799E+03 0.  0.
    9000005    1    3    3    0    0 -0.20416242433E+02  0.69277217046E+01 -0.51252647075E+02  0.55611600546E+02  0.10000000000E+01 0.  0.
    9000005    1    3    3    0    0  0.23981941944E+02 -0.47792204710E+02  0.53946471051E+02  0.75963478786E+02  0.10000000000E+01 0.  0.
          4    1    1    2  501    0 -0.35656995112E+01  0.40864483005E+02  0.20948622021E+02  0.46076868914E+02  0.12700000000E+01 0.  1.
<mgrwt>
<rscale>  1 0.13154750E+03</rscale>
<asrwt>0</asrwt>
<pdfrwt beam="1">  1       21 0.15483378E-01 0.13154750E+03</pdfrwt>
<pdfrwt beam="2">  1        4 0.11847501E-01 0.13154750E+03</pdfrwt>
<totfact> 0.84566720E+04</totfact>
</mgrwt>
</event>
<event>
 6    4  0.6376098E-003  0.1321491E+03  0.7818608E-02  0.1224301E+00
         21   -1    0    0  501  502  0.00000000000E+00  0.00000000000E+00  0.39497620242E+03  0.39497620242E+03  0.00000000000E+00 0. -1.
         -4   -1    0    0    0  501 -0.00000000000E+00 -0.00000000000E+00 -0.22018213972E+02  0.22054810054E+02  0.12700000000E+01 0.  1.
         25    2    1    2    0    0 -0.40566534955E+02  0.13926342399E+02  0.20676284300E+03  0.24538595416E+03  0.12499522585E+03 0.  0.
    9000005    1    3    3    0    0 -0.77673736072E+02 -0.13133170961E+02  0.88344394050E+02  0.11836985011E+03  0.10000000000E+01 0.  0.
    9000005    1    3    3    0    0  0.37107201118E+02  0.27059513360E+02  0.11841844895E+03  0.12701610405E+03  0.10000000000E+01 0.  0.
         -4    1    1    2    0  502  0.40566534955E+02 -0.13926342399E+02  0.16619514545E+03  0.17164505831E+03  0.12700000000E+01 0. -1.
<mgrwt>
<rscale>  1 0.13214913E+03</rscale>
<asrwt>0</asrwt>
<pdfrwt beam="1">  1       21 0.60765564E-01 0.13214913E+03</pdfrwt>
<pdfrwt beam="2">  1       -4 0.33903900E-02 0.13214913E+03</pdfrwt>
<totfact> 0.45668449E+04</totfact>
</mgrwt>
</event>
<event>
 6    4  0.6376098E-003  0.1412265E+03  0.7818608E-02  0.1211688E+00
         -4   -1    0    0    0  501 -0.00000000000E+00  0.00000000000E+00  0.11387814127E+03  0.11388522275E+03  0.12700000000E+01 0.  1.
         21   -1    0    0  501  502  0.00000000000E+00 -0.00000000000E+00 -0.11732682123E+03  0.11732682123E+03  0.00000000000E+00 0. -1.
         25    2    1    2    0    0  0.47419088321E+02  0.45505081322E+02  0.46466877213E+02  0.14867442764E+03  0.12500252955E+03 0.  0.
    9000005    1    3    3    0    0  0.21439761884E+02  0.26979608095E+01  0.83582927332E+02  0.86336829473E+02  0.10000000000E+01 0.  0.
    9000005    1    3    3    0    0  0.25979326437E+02  0.42807120512E+02 -0.37116050119E+02  0.62337598166E+02  0.10000000000E+01 0.  0.
         -4    1    1    2    0  502 -0.47419088321E+02 -0.45505081322E+02 -0.49915557174E+02  0.82537616341E+02  0.12700000000E+01 0. -1.
<mgrwt>
<rscale>  1 0.14122647E+03</rscale>
<asrwt>0</asrwt>
<pdfrwt beam="2">  1       21 0.18050280E-01 0.14122647E+03</pdfrwt>
<pdfrwt beam="1">  1       -4 0.17520788E-01 0.14122647E+03</pdfrwt>
<totfact> 0.32643273E+04</totfact>
</mgrwt>
</event>
<event>
 6    4  0.6376098E-003  0.1287737E+03  0.7818608E-02  0.1229287E+00
          4   -1    0    0  502    0 -0.00000000000E+00  0.00000000000E+00  0.13355206908E+02  0.13415455696E+02  0.12700000000E+01 0. -1.
         21   -1    0    0  501  502  0.00000000000E+00 -0.00000000000E+00 -0.78290736277E+03  0.78290736277E+03  0.00000000000E+00 0.  1.
         25    2    1    2    0    0 -0.24483343399E+02  0.18927267014E+02 -0.30938497016E+03  0.33511448459E+03  0.12499992992E+03 0.  0.
    9000005    1    3    3    0    0  0.42506980524E+02 -0.18505796608E+02 -0.72078432247E+02  0.85706524236E+02  0.10000000000E+01 0.  0.
    9000005    1    3    3    0    0 -0.66990323923E+02  0.37433063622E+02 -0.23730653791E+03  0.24940796035E+03  0.10000000000E+01 0.  0.
          4    1    1    2  501    0  0.24483343399E+02 -0.18927267014E+02 -0.46016718571E+03  0.46120833388E+03  0.12700000000E+01 0.  1.
<mgrwt>
<rscale>  1 0.12877367E+03</rscale>
<asrwt>0</asrwt>
<pdfrwt beam="2">  1       21 0.12044730E+00 0.12877367E+03</pdfrwt>
<pdfrwt beam="1">  1        4 0.20593607E-02 0.12877367E+03</pdfrwt>
<totfact> 0.20926720E+04</totfact>
</mgrwt>
</event>
<event>
 6    4  0.6376098E-003  0.1272326E+03  0.7818608E-02  0.1231621E+00
         21   -1    0    0  501  502  0.00000000000E+00  0.00000000000E+00  0.10293508000E+03  0.10293508000E+03  0.00000000000E+00 0. -1.
          4   -1    0    0  502    0 -0.00000000000E+00 -0.00000000000E+00 -0.77000935008E+02  0.77011407545E+02  0.12700000000E+01 0. -1.
         25    2    1    2    0    0  0.23718411724E+02 -0.86199780054E+00 -0.19454376001E+02  0.12871137426E+03  0.12499935610E+03 0.  0.
    9000005    1    3    3    0    0 -0.45774490617E+02  0.22686801508E+02  0.50499701630E+01  0.51346831962E+02  0.10000000000E+01 0.  0.
    9000005    1    3    3    0    0  0.69492902341E+02 -0.23548799309E+02 -0.24504346164E+02  0.77364542302E+02  0.10000000000E+01 0.  0.
          4    1    1    2  501    0 -0.23718411724E+02  0.86199780054E+00  0.45388520996E+02  0.51235113283E+02  0.12700000000E+01 0.  1.
<mgrwt>
<rscale>  1 0.12723264E+03</rscale>
<asrwt>0</asrwt>
<pdfrwt beam="1">  1       21 0.15836166E-01 0.12723264E+03</pdfrwt>
<pdfrwt beam="2">  1        4 0.11847706E-01 0.12723264E+03</pdfrwt>
<totfact> 0.80821626E+04</totfact>
</mgrwt>
</event>
<event>
 6    4  0.6376098E-003  0.1405761E+03  0.7818608E-02  0.1212556E+00
         21   -1    0    0  501  502  0.00000000000E+00  0.00000000000E+00  0.30272908520E+02  0.30272908520E+02  0.00000000000E+00 0.  1.
         -4   -1    0    0    0  501 -0.00000000000E+00 -0.00000000000E+00 -0.45189654145E+03  0.45189832603E+03  0.12700000000E+01 0. -1.
         25    2    1    2    0    0 -0.48337870059E+02 -0.42427120745E+02 -0.38095627279E+03  0.40606566749E+03  0.12500013714E+03 0.  0.
    9000005    1    3    3    0    0 -0.61216711044E+02 -0.36025968121E+01 -0.72738729129E+02  0.95144033602E+02  0.10000000000E+01 0.  0.
    9000005    1    3    3    0    0  0.12878840984E+02 -0.38824523933E+02 -0.30821754366E+03  0.31092163389E+03  0.10000000000E+01 0.  0.
         -4    1    1    2    0  502  0.48337870059E+02  0.42427120745E+02 -0.40667360141E+02  0.76105567060E+02  0.12700000000E+01 0.  1.
<mgrwt>
<rscale>  1 0.14057612E+03</rscale>
<asrwt>0</asrwt>
<pdfrwt beam="1">  1       21 0.46573710E-02 0.14057612E+03</pdfrwt>
<pdfrwt beam="2">  1       -4 0.69524725E-01 0.14057612E+03</pdfrwt>
<totfact> 0.23928381E+04</totfact>
</mgrwt>
</event>
<event>
 6    4  0.6376098E-003  0.1464243E+03  0.7818608E-02  0.1204937E+00
         21   -1    0    0  501  502  0.00000000000E+00  0.00000000000E+00  0.24969165019E+03  0.24969165019E+03  0.00000000000E+00 0.  1.
         -4   -1    0    0    0  501 -0.00000000000E+00 -0.00000000000E+00 -0.26478385178E+03  0.26478689746E+03  0.12700000000E+01 0. -1.
         25    2    1    2    0    0  0.71144517363E+02 -0.27451170622E+02 -0.23769353575E+03  0.27917432757E+03  0.12499991647E+03 0.  0.
    9000005    1    3    3    0    0  0.31399721944E+01 -0.12761054313E+02 -0.19923976702E+03  0.19967520801E+03  0.10000000000E+01 0.  0.
    9000005    1    3    3    0    0  0.68004545169E+02 -0.14690116309E+02 -0.38453768729E+02  0.79499119556E+02  0.10000000000E+01 0.  0.
         -4    1    1    2    0  502 -0.71144517363E+02  0.27451170622E+02  0.22260133415E+03  0.23530422008E+03  0.12700000000E+01 0.  1.
<mgrwt>
<rscale>  1 0.14642434E+03</rscale>
<asrwt>0</asrwt>
<pdfrwt beam="1">  1       21 0.38414100E-01 0.14642434E+03</pdfrwt>
<pdfrwt beam="2">  1       -4 0.40736460E-01 0.14642434E+03</pdfrwt>
<totfact> 0.16006381E+03</totfact>
</mgrwt>
</event>
<event>
 6    4  0.6376098E-003  0.1290659E+03  0.7818608E-02  0.1228848E+00
         21   -1    0    0  501  502  0.00000000000E+00  0.00000000000E+00  0.43357142633E+02  0.43357142633E+02  0.00000000000E+00 0. -1.
         -4   -1    0    0    0  501 -0.00000000000E+00 -0.00000000000E+00 -0.19591379378E+03  0.19591791009E+03  0.12700000000E+01 0. -1.
         25    2    1    2    0    0 -0.28042009993E+01  0.32016486341E+02 -0.16068364036E+03  0.20610006523E+03  0.12500034267E+03 0.  0.
    9000005    1    3    3    0    0  0.48253684092E+02  0.42331748547E+02 -0.13162190554E+03  0.14644357610E+03  0.10000000000E+01 0.  0.
    9000005    1    3    3    0    0 -0.51057885091E+02 -0.10315262206E+02 -0.29061734823E+02  0.59656489130E+02  0.10000000000E+01 0.  0.
         -4    1    1    2    0  502  0.28042009993E+01 -0.32016486341E+02  0.81269892200E+01  0.33174987485E+02  0.12700000000E+01 0.  1.
<mgrwt>
<rscale>  1 0.12906589E+03</rscale>
<asrwt>0</asrwt>
<pdfrwt beam="1">  1       21 0.66703297E-02 0.12906589E+03</pdfrwt>
<pdfrwt beam="2">  1       -4 0.30142331E-01 0.12906589E+03</pdfrwt>
<totfact> 0.69390131E+04</totfact>
</mgrwt>
</event>
<event>
 6    4  0.6376098E-003  0.2093025E+03  0.7818608E-02  0.1142120E+00
         21   -1    0    0  501  502  0.00000000000E+00  0.00000000000E+00  0.97627950388E+02  0.97627950388E+02  0.00000000000E+00 0. -1.
         -4   -1    0    0    0  501 -0.00000000000E+00 -0.00000000000E+00 -0.36583130211E+03  0.36583350653E+03  0.12700000000E+01 0. -1.
         25    2    1    2    0    0  0.17475098675E+02  0.16696358479E+03 -0.13388305364E+03  0.24845965903E+03  0.12500124956E+03 0.  0.
    9000005    1    3    3    0    0  0.56760497220E+02  0.85147920387E+02 -0.22505774462E+02  0.10478278616E+03  0.10000000000E+01 0.  0.
    9000005    1    3    3    0    0 -0.39285398544E+02  0.81815664406E+02 -0.11137727918E+03  0.14367687287E+03  0.10000000000E+01 0.  0.
         -4    1    1    2    0  502 -0.17475098675E+02 -0.16696358479E+03 -0.13432029808E+03  0.21500179789E+03  0.12700000000E+01 0.  1.
<mgrwt>
<rscale>  1 0.20930248E+03</rscale>
<asrwt>0</asrwt>
<pdfrwt beam="1">  1       21 0.15019684E-01 0.20930248E+03</pdfrwt>
<pdfrwt beam="2">  1       -4 0.56282545E-01 0.20930248E+03</pdfrwt>
<totfact> 0.50114937E+03</totfact>
</mgrwt>
</event>
<event>
 6    4  0.6376098E-003  0.1285837E+03  0.7818608E-02  0.1229573E+00
         -4   -1    0    0    0  501 -0.00000000000E+00  0.00000000000E+00  0.44682618556E+03  0.44682799040E+03  0.12700000000E+01 0.  1.
         21   -1    0    0  501  502  0.00000000000E+00 -0.00000000000E+00 -0.14181413976E+02  0.14181413976E+02  0.00000000000E+00 0. -1.
         25    2    1    2    0    0  0.33955975170E+01 -0.29957310312E+02  0.36328877782E+03  0.38537318756E+03  0.12499914828E+03 0.  0.
    9000005    1    3    3    0    0 -0.27019064839E+02 -0.71070475102E+02  0.24418154651E+03  0.25574727750E+03  0.10000000000E+01 0.  0.
    9000005    1    3    3    0    0  0.30414662356E+02  0.41113164790E+02  0.11910723131E+03  0.12962591005E+03  0.10000000000E+01 0.  0.
         -4    1    1    2    0  502 -0.33955975170E+01  0.29957310312E+02  0.69355993764E+02  0.75636216819E+02  0.12700000000E+01 0. -1.
<mgrwt>
<rscale>  1 0.12858366E+03</rscale>
<asrwt>0</asrwt>
<pdfrwt beam="2">  1       21 0.21817563E-02 0.12858366E+03</pdfrwt>
<pdfrwt beam="1">  1       -4 0.68746992E-01 0.12858366E+03</pdfrwt>
<totfact> 0.84491196E+04</totfact>
</mgrwt>
</event>
<event>
 6    4  0.6376098E-003  0.1307446E+03  0.7818608E-02  0.1226355E+00
         21   -1    0    0  501  502  0.00000000000E+00  0.00000000000E+00  0.21889923376E+02  0.21889923376E+02  0.00000000000E+00 0. -1.
          4   -1    0    0  502    0 -0.00000000000E+00 -0.00000000000E+00 -0.33064698418E+03  0.33064942318E+03  0.12700000000E+01 0. -1.
         25    2    1    2    0    0 -0.36741347947E+02  0.10957517142E+02 -0.25409660146E+03  0.28576081298E+03  0.12499666207E+03 0.  0.
    9000005    1    3    3    0    0 -0.73878577949E+02 -0.24264912525E+02 -0.12949271204E+03  0.15105029868E+03  0.10000000000E+01 0.  0.
    9000005    1    3    3    0    0  0.37137230002E+02  0.35222429668E+02 -0.12460388942E+03  0.13471051430E+03  0.10000000000E+01 0.  0.
          4    1    1    2  501    0  0.36741347947E+02 -0.10957517142E+02 -0.54660459347E+02  0.66778533578E+02  0.12700000000E+01 0.  1.
<mgrwt>
<rscale>  1 0.13074463E+03</rscale>
<asrwt>0</asrwt>
<pdfrwt beam="1">  1       21 0.33676807E-02 0.13074463E+03</pdfrwt>
<pdfrwt beam="2">  1        4 0.50871785E-01 0.13074463E+03</pdfrwt>
<totfact> 0.78285462E+04</totfact>
</mgrwt>
</event>
<event>
 6    4  0.6376098E-003  0.1279374E+03  0.7818608E-02  0.1230549E+00
         -4   -1    0    0    0  501 -0.00000000000E+00  0.00000000000E+00  0.22928509598E+02  0.22963655032E+02  0.12700000000E+01 0.  1.
         21   -1    0    0  501  502  0.00000000000E+00 -0.00000000000E+00 -0.26293966514E+03  0.26293966514E+03  0.00000000000E+00 0.  1.
         25    2    1    2    0    0 -0.19963442408E+02 -0.18561445498E+02 -0.19324532079E+03  0.23175793725E+03  0.12499968472E+03 0.  0.
    9000005    1    3    3    0    0 -0.47047327464E+02 -0.58768045517E+02 -0.87536836273E+02  0.11545922181E+03  0.10000000000E+01 0.  0.
    9000005    1    3    3    0    0  0.27083885056E+02  0.40206600019E+02 -0.10570848452E+03  0.11629871545E+03  0.10000000000E+01 0.  0.
         -4    1    1    2    0  502  0.19963442408E+02  0.18561445498E+02 -0.46765834747E+02  0.54145382918E+02  0.12700000000E+01 0. -1.
<mgrwt>
<rscale>  1 0.12793744E+03</rscale>
<asrwt>0</asrwt>
<pdfrwt beam="2">  1       21 0.40452256E-01 0.12793744E+03</pdfrwt>
<pdfrwt beam="1">  1       -4 0.35304024E-02 0.12793744E+03</pdfrwt>
<totfact> 0.98801336E+04</totfact>
</mgrwt>
</event>
<event>
 6    4  0.6376098E-003  0.1303145E+03  0.7818608E-02  0.1226990E+00
          4   -1    0    0  502    0 -0.00000000000E+00  0.00000000000E+00  0.15960413089E+03  0.15960918362E+03  0.12700000000E+01 0.  1.
         21   -1    0    0  501  502  0.00000000000E+00 -0.00000000000E+00 -0.88718554162E+02  0.88718554162E+02  0.00000000000E+00 0. -1.
         25    2    1    2    0    0  0.35422745468E+02 -0.10126199251E+02  0.12649345212E+03  0.18161072712E+03  0.12499820786E+03 0.  0.
    9000005    1    3    3    0    0  0.42708127142E+02 -0.53181827625E+02  0.11918313490E+03  0.13732410771E+03  0.10000000000E+01 0.  0.
    9000005    1    3    3    0    0 -0.72853816736E+01  0.43055628374E+02  0.73103172186E+01  0.44286619409E+02  0.10000000000E+01 0.  0.
          4    1    1    2  501    0 -0.35422745468E+02  0.10126199251E+02 -0.55607875387E+02  0.66717010671E+02  0.12700000000E+01 0. -1.
<mgrwt>
<rscale>  1 0.13031448E+03</rscale>
<asrwt>0</asrwt>
<pdfrwt beam="2">  1       21 0.13649008E-01 0.13031448E+03</pdfrwt>
<pdfrwt beam="1">  1        4 0.24555569E-01 0.13031448E+03</pdfrwt>
<totfact> 0.29182972E+04</totfact>
</mgrwt>
</event>
<event>
 6    4  0.6376098E-003  0.1533546E+03  0.7818608E-02  0.1196410E+00
         -4   -1    0    0    0  501 -0.00000000000E+00  0.00000000000E+00  0.15497235587E+03  0.15497755961E+03  0.12700000000E+01 0.  1.
         21   -1    0    0  501  502  0.00000000000E+00 -0.00000000000E+00 -0.15780062218E+03  0.15780062218E+03  0.00000000000E+00 0. -1.
         25    2    1    2    0    0 -0.81536964681E+02  0.35222383899E+02  0.95191535196E+02  0.18049671171E+03  0.12501496562E+03 0.  0.
    9000005    1    3    3    0    0  0.10348421985E+02  0.57594985225E+02  0.31382859056E+02  0.66409005437E+02  0.10000000000E+01 0.  0.
    9000005    1    3    3    0    0 -0.91885386666E+02 -0.22372601326E+02  0.63808676140E+02  0.11408770628E+03  0.10000000000E+01 0.  0.
         -4    1    1    2    0  502  0.81536964681E+02 -0.35222383899E+02 -0.98019801507E+02  0.13228147007E+03  0.12700000000E+01 0. -1.
<mgrwt>
<rscale>  1 0.15335460E+03</rscale>
<asrwt>0</asrwt>
<pdfrwt beam="2">  1       21 0.24277019E-01 0.15335460E+03</pdfrwt>
<pdfrwt beam="1">  1       -4 0.23842694E-01 0.15335460E+03</pdfrwt>
<totfact> 0.10851181E+04</totfact>
</mgrwt>
</event>
<event>
 6    4  0.6376098E-003  0.1413350E+03  0.7818608E-02  0.1211544E+00
         21   -1    0    0  501  502  0.00000000000E+00  0.00000000000E+00  0.83168102485E+02  0.83168102485E+02  0.00000000000E+00 0.  1.
          4   -1    0    0  502    0 -0.00000000000E+00 -0.00000000000E+00 -0.31259371268E+03  0.31259629253E+03  0.12700000000E+01 0. -1.
         25    2    1    2    0    0 -0.36154087963E+02  0.55158098283E+02 -0.27932972879E+03  0.31305062449E+03  0.12500424881E+03 0.  0.
    9000005    1    3    3    0    0 -0.14022144447E+02  0.64754778062E+02 -0.28113594323E+03  0.28883943705E+03  0.10000000000E+01 0.  0.
    9000005    1    3    3    0    0 -0.22131943517E+02 -0.95966797797E+01  0.18062144395E+01  0.24211187439E+02  0.10000000000E+01 0.  0.
          4    1    1    2  501    0  0.36154087963E+02 -0.55158098283E+02  0.49904118599E+02  0.82713770533E+02  0.12700000000E+01 0.  1.
<mgrwt>
<rscale>  1 0.14133505E+03</rscale>
<asrwt>0</asrwt>
<pdfrwt beam="1">  1       21 0.12795093E-01 0.14133505E+03</pdfrwt>
<pdfrwt beam="2">  1        4 0.48092285E-01 0.14133505E+03</pdfrwt>
<totfact> 0.90334148E+03</totfact>
</mgrwt>
</event>
<event>
 6    4  0.6376098E-003  0.1283088E+03  0.7818608E-02  0.1229987E+00
          4   -1    0    0  502    0 -0.00000000000E+00  0.00000000000E+00  0.15861126869E+03  0.15861635305E+03  0.12700000000E+01 0.  1.
         21   -1    0    0  501  502  0.00000000000E+00 -0.00000000000E+00 -0.46979637015E+02  0.46979637015E+02  0.00000000000E+00 0. -1.
         25    2    1    2    0    0  0.28017121156E+02 -0.72645572615E+01  0.11975013956E+03  0.17550851858E+03  0.12500164519E+03 0.  0.
    9000005    1    3    3    0    0  0.56196419760E+02 -0.25763076740E+02  0.12678654433E+03  0.14105885843E+03  0.10000000000E+01 0.  0.
    9000005    1    3    3    0    0 -0.28179298604E+02  0.18498519479E+02 -0.70364047721E+01  0.34449660156E+02  0.10000000000E+01 0.  0.
          4    1    1    2  501    0 -0.28017121156E+02  0.72645572615E+01 -0.81185078841E+01  0.30087471485E+02  0.12700000000E+01 0. -1.
<mgrwt>
<rscale>  1 0.12830878E+03</rscale>
<asrwt>0</asrwt>
<pdfrwt beam="2">  1       21 0.72276366E-02 0.12830878E+03</pdfrwt>
<pdfrwt beam="1">  1        4 0.24403445E-01 0.12830878E+03</pdfrwt>
<totfact> 0.89591227E+04</totfact>
</mgrwt>
</event>
<event>
 6    4  0.6376098E-003  0.1280016E+03  0.7818608E-02  0.1230452E+00
         21   -1    0    0  501  502  0.00000000000E+00  0.00000000000E+00  0.83161038416E+01  0.83161038416E+01  0.00000000000E+00 0.  1.
          4   -1    0    0  502    0 -0.00000000000E+00 -0.00000000000E+00 -0.92041339399E+03  0.92041427017E+03  0.12700000000E+01 0. -1.
         25    2    1    2    0    0 -0.20598570711E+02  0.18271134791E+02 -0.86286284751E+03  0.87230539086E+03  0.12500506321E+03 0.  0.
    9000005    1    3    3    0    0 -0.41098560744E+02  0.30008138503E+02 -0.13849026942E+03  0.14754705960E+03  0.10000000000E+01 0.  0.
    9000005    1    3    3    0    0  0.20499990032E+02 -0.11737003713E+02 -0.72437257809E+03  0.72475833126E+03  0.10000000000E+01 0.  0.
          4    1    1    2  501    0  0.20598570711E+02 -0.18271134791E+02 -0.49234442636E+02  0.56424983151E+02  0.12700000000E+01 0.  1.
<mgrwt>
<rscale>  1 0.12800157E+03</rscale>
<asrwt>0</asrwt>
<pdfrwt beam="1">  1       21 0.12794008E-02 0.12800157E+03</pdfrwt>
<pdfrwt beam="2">  1        4 0.14160957E+00 0.12800157E+03</pdfrwt>
<totfact> 0.37482190E+04</totfact>
</mgrwt>
</event>
<event>
 6    4  0.6376098E-003  0.1268405E+03  0.7818608E-02  0.1232221E+00
         21   -1    0    0  501  502  0.00000000000E+00  0.00000000000E+00  0.15889644612E+02  0.15889644612E+02  0.00000000000E+00 0. -1.
          4   -1    0    0  502    0 -0.00000000000E+00 -0.00000000000E+00 -0.34655707963E+03  0.34655940666E+03  0.12700000000E+01 0. -1.
         25    2    1    2    0    0  0.19656715590E+02  0.88119489819E+01 -0.28273167358E+03  0.30988017229E+03  0.12499794006E+03 0.  0.
    9000005    1    3    3    0    0 -0.60374519206E+01  0.31414487043E+02 -0.79548287176E+01  0.32978782903E+02  0.10000000000E+01 0.  0.
    9000005    1    3    3    0    0  0.25694167511E+02 -0.22602538061E+02 -0.27477684486E+03  0.27690138938E+03  0.10000000000E+01 0.  0.
          4    1    1    2  501    0 -0.19656715590E+02 -0.88119489819E+01 -0.47935761441E+02  0.52568878983E+02  0.12700000000E+01 0.  1.
<mgrwt>
<rscale>  1 0.12684054E+03</rscale>
<asrwt>0</asrwt>
<pdfrwt beam="1">  1       21 0.24445605E-02 0.12684054E+03</pdfrwt>
<pdfrwt beam="2">  1        4 0.53320561E-01 0.12684054E+03</pdfrwt>
<totfact> 0.11957303E+05</totfact>
</mgrwt>
</event>
<event>
 6    4  0.6376098E-003  0.1330761E+03  0.7818608E-02  0.1222961E+00
         21   -1    0    0  501  502  0.00000000000E+00  0.00000000000E+00  0.20002648711E+03  0.20002648711E+03  0.00000000000E+00 0. -1.
         -4   -1    0    0    0  501 -0.00000000000E+00 -0.00000000000E+00 -0.52255738671E+02  0.52271169147E+02  0.12700000000E+01 0.  1.
         25    2    1    2    0    0  0.90082604309E+01 -0.44721322145E+02  0.46067375809E+02  0.14082418715E+03  0.12501241203E+03 0.  0.
    9000005    1    3    3    0    0 -0.84088654045E+00  0.36726958562E+02  0.45870129823E+02  0.58776231466E+02  0.10000000000E+01 0.  0.
    9000005    1    3    3    0    0  0.98491469714E+01 -0.81448280706E+02  0.19724598629E+00  0.82047955685E+02  0.10000000000E+01 0.  0.
         -4    1    1    2    0  502 -0.90082604309E+01  0.44721322145E+02  0.10170337263E+03  0.11147346911E+03  0.12700000000E+01 0. -1.
<mgrwt>
<rscale>  1 0.13307610E+03</rscale>
<asrwt>0</asrwt>
<pdfrwt beam="1">  1       21 0.30773305E-01 0.13307610E+03</pdfrwt>
<pdfrwt beam="2">  1       -4 0.80408416E-02 0.13307610E+03</pdfrwt>
<totfact> 0.45046248E+04</totfact>
</mgrwt>
</event>
<event>
 6    4  0.6376098E-003  0.1272778E+03  0.7818608E-02  0.1231552E+00
         -4   -1    0    0    0  501 -0.00000000000E+00  0.00000000000E+00  0.26208568245E+03  0.26208875948E+03  0.12700000000E+01 0. -1.
         21   -1    0    0  501  502  0.00000000000E+00 -0.00000000000E+00 -0.24307386904E+02  0.24307386904E+02  0.00000000000E+00 0. -1.
         25    2    1    2    0    0  0.14202728569E+02 -0.19301087354E+02  0.22665495188E+03  0.25994636101E+03  0.12500157567E+03 0.  0.
    9000005    1    3    3    0    0  0.22077543340E+02  0.91733232477E+01  0.22904332304E+03  0.23028984261E+03  0.10000000000E+01 0.  0.
    9000005    1    3    3    0    0 -0.78748147712E+01 -0.28474410602E+02 -0.23883711622E+01  0.29656518400E+02  0.10000000000E+01 0.  0.
         -4    1    1    2    0  502 -0.14202728569E+02  0.19301087354E+02  0.11123343663E+02  0.26449785370E+02  0.12700000000E+01 0.  1.
<mgrwt>
<rscale>  1 0.12727782E+03</rscale>
<asrwt>0</asrwt>
<pdfrwt beam="2">  1       21 0.37395982E-02 0.12727782E+03</pdfrwt>
<pdfrwt beam="1">  1       -4 0.40323661E-01 0.12727782E+03</pdfrwt>
<totfact> 0.10447052E+05</totfact>
</mgrwt>
</event>
<event>
 6    4  0.6376098E-003  0.1413294E+03  0.7818608E-02  0.1211551E+00
          4   -1    0    0  502    0 -0.00000000000E+00  0.00000000000E+00  0.16775225282E+04  0.16775230090E+04  0.12700000000E+01 0. -1.
         21   -1    0    0  501  502  0.00000000000E+00 -0.00000000000E+00 -0.68032844444E+01  0.68032844444E+01  0.00000000000E+00 0. -1.
         25    2    1    2    0    0 -0.55823855083E+02 -0.35076854975E+02  0.92996860455E+03  0.94064638177E+03  0.12500928581E+03 0.  0.
    9000005    1    3    3    0    0  0.37752664707E+02 -0.22826885132E+02  0.21556637280E+03  0.22003679570E+03  0.10000000000E+01 0.  0.
    9000005    1    3    3    0    0 -0.93576519789E+02 -0.12249969844E+02  0.71440223175E+03  0.72060958608E+03  0.10000000000E+01 0.  0.
          4    1    1    2  501    0  0.55823855083E+02  0.35076854975E+02  0.74075063924E+03  0.74367991165E+03  0.12700000000E+01 0.  1.
<mgrwt>
<rscale>  1 0.14132944E+03</rscale>
<asrwt>0</asrwt>
<pdfrwt beam="2">  1       21 0.10466605E-02 0.14132944E+03</pdfrwt>
<pdfrwt beam="1">  1        4 0.25808921E+00 0.14132944E+03</pdfrwt>
<totfact> 0.94066830E+03</totfact>
</mgrwt>
</event>
<event>
 6    4  0.6376098E-003  0.1269450E+03  0.7818608E-02  0.1232061E+00
         -4   -1    0    0    0  501 -0.00000000000E+00  0.00000000000E+00  0.42817211187E+01  0.44660984918E+01  0.12700000000E+01 0. -1.
         21   -1    0    0  501  502  0.00000000000E+00 -0.00000000000E+00 -0.12732685624E+04  0.12732685624E+04  0.00000000000E+00 0. -1.
         25    2    1    2    0    0  0.17167417389E+02 -0.13989357491E+02 -0.10602953247E+04  0.10678675974E+04  0.12499843066E+03 0.  0.
    9000005    1    3    3    0    0  0.15502588843E+02  0.31253689358E+02 -0.91529962419E+03  0.91596480576E+03  0.10000000000E+01 0.  0.
    9000005    1    3    3    0    0  0.16648285457E+01 -0.45243046849E+02 -0.14499570054E+03  0.15190279167E+03  0.10000000000E+01 0.  0.
         -4    1    1    2    0  502 -0.17167417389E+02  0.13989357491E+02 -0.20869151653E+03  0.20986706344E+03  0.12700000000E+01 0.  1.
<mgrwt>
<rscale>  1 0.12694499E+03</rscale>
<asrwt>0</asrwt>
<pdfrwt beam="2">  1       21 0.19588730E+00 0.12694499E+03</pdfrwt>
<pdfrwt beam="1">  1       -4 0.67295850E-03 0.12694499E+03</pdfrwt>
<totfact> 0.31648785E+04</totfact>
</mgrwt>
</event>
<event>
 6    4  0.6376098E-003  0.1322301E+03  0.7818608E-02  0.1224184E+00
         -4   -1    0    0    0  501 -0.00000000000E+00  0.00000000000E+00  0.20355669653E+03  0.20356065829E+03  0.12700000000E+01 0. -1.
         21   -1    0    0  501  502  0.00000000000E+00 -0.00000000000E+00 -0.57862787336E+02  0.57862787336E+02  0.00000000000E+00 0.  1.
         25    2    1    2    0    0 -0.23620193166E+02 -0.36098226386E+02  0.16722913478E+03  0.21319094295E+03  0.12499519656E+03 0.  0.
    9000005    1    3    3    0    0  0.29806471042E+02 -0.58413163472E+02  0.12618641496E+03  0.14221299063E+03  0.10000000000E+01 0.  0.
    9000005    1    3    3    0    0 -0.53426664207E+02  0.22314937085E+02  0.41042719825E+02  0.70977952323E+02  0.10000000000E+01 0.  0.
         -4    1    1    2    0  502  0.23620193166E+02  0.36098226386E+02 -0.21535225586E+02  0.48232502677E+02  0.12700000000E+01 0.  1.
<mgrwt>
<rscale>  1 0.13223008E+03</rscale>
<asrwt>0</asrwt>
<pdfrwt beam="2">  1       21 0.89019674E-02 0.13223008E+03</pdfrwt>
<pdfrwt beam="1">  1       -4 0.31317791E-01 0.13223008E+03</pdfrwt>
<totfact> 0.39400572E+04</totfact>
</mgrwt>
</event>
<event>
 6    4  0.6376098E-003  0.1295881E+03  0.7818608E-02  0.1228068E+00
          4   -1    0    0  502    0 -0.00000000000E+00  0.00000000000E+00  0.83582083372E+02  0.83591731414E+02  0.12700000000E+01 0. -1.
         21   -1    0    0  501  502  0.00000000000E+00 -0.00000000000E+00 -0.17473737361E+03  0.17473737361E+03  0.00000000000E+00 0.  1.
         25    2    1    2    0    0 -0.17656586783E+02 -0.29264626208E+02  0.29513835310E+02  0.13290652267E+03  0.12499961556E+03 0.  0.
    9000005    1    3    3    0    0 -0.48589524624E+02 -0.46016390906E+02 -0.22059480294E+02  0.70470354094E+02  0.10000000000E+01 0.  0.
    9000005    1    3    3    0    0  0.30932937841E+02  0.16751764698E+02  0.51573315604E+02  0.62436168576E+02  0.10000000000E+01 0.  0.
          4    1    1    2  501    0  0.17656586783E+02  0.29264626208E+02 -0.12066912555E+03  0.12542258235E+03  0.12700000000E+01 0.  1.
<mgrwt>
<rscale>  1 0.12958811E+03</rscale>
<asrwt>0</asrwt>
<pdfrwt beam="2">  1       21 0.26882673E-01 0.12958811E+03</pdfrwt>
<pdfrwt beam="1">  1        4 0.12859879E-01 0.12958811E+03</pdfrwt>
<totfact> 0.26375224E+04</totfact>
</mgrwt>
</event>
<event>
 6    4  0.6376098E-003  0.1265995E+03  0.7818608E-02  0.1232590E+00
          4   -1    0    0  502    0 -0.00000000000E+00  0.00000000000E+00  0.50933795222E+03  0.50933953555E+03  0.12700000000E+01 0. -1.
         21   -1    0    0  501  502  0.00000000000E+00 -0.00000000000E+00 -0.14887686060E+02  0.14887686060E+02  0.00000000000E+00 0. -1.
         25    2    1    2    0    0  0.45945830320E+01  0.19639144051E+02  0.48617726399E+03  0.50239005977E+03  0.12498253463E+03 0.  0.
    9000005    1    3    3    0    0  0.33474812070E+02  0.45818434893E+02  0.43159649242E+03  0.43531187014E+03  0.10000000000E+01 0.  0.
    9000005    1    3    3    0    0 -0.28880229038E+02 -0.26179290841E+02  0.54580771568E+02  0.67078189624E+02  0.10000000000E+01 0.  0.
          4    1    1    2  501    0 -0.45945830320E+01 -0.19639144051E+02  0.82730021751E+01  0.21837161842E+02  0.12700000000E+01 0.  1.
<mgrwt>
<rscale>  1 0.12659953E+03</rscale>
<asrwt>0</asrwt>
<pdfrwt beam="2">  1       21 0.22904136E-02 0.12659953E+03</pdfrwt>
<pdfrwt beam="1">  1        4 0.78363960E-01 0.12659953E+03</pdfrwt>
<totfact> 0.58622486E+04</totfact>
</mgrwt>
</event>
<event>
 6    4  0.6376098E-003  0.1284037E+03  0.7818608E-02  0.1229844E+00
          4   -1    0    0  502    0 -0.00000000000E+00  0.00000000000E+00  0.12693966470E+03  0.12694601756E+03  0.12700000000E+01 0. -1.
         21   -1    0    0  501  502  0.00000000000E+00 -0.00000000000E+00 -0.54592814385E+02  0.54592814385E+02  0.00000000000E+00 0.  1.
         25    2    1    2    0    0 -0.22745237087E+02  0.18569312107E+02  0.79848895592E+02  0.15120636179E+03  0.12500141022E+03 0.  0.
    9000005    1    3    3    0    0  0.49761502450E+02  0.20398596948E+02  0.20789948376E+02  0.57667424401E+02  0.10000000000E+01 0.  0.
    9000005    1    3    3    0    0 -0.72506739537E+02 -0.18292848412E+01  0.59058947216E+02  0.93538937388E+02  0.10000000000E+01 0.  0.
          4    1    1    2  501    0  0.22745237087E+02 -0.18569312107E+02 -0.75020452786E+01  0.30332470154E+02  0.12700000000E+01 0.  1.
<mgrwt>
<rscale>  1 0.12840373E+03</rscale>
<asrwt>0</asrwt>
<pdfrwt beam="2">  1       21 0.83988946E-02 0.12840373E+03</pdfrwt>
<pdfrwt beam="1">  1        4 0.19530804E-01 0.12840373E+03</pdfrwt>
<totfact> 0.10365913E+05</totfact>
</mgrwt>
</event>
<event>
 6    4  0.6376098E-003  0.1332732E+03  0.7818608E-02  0.1222678E+00
         21   -1    0    0  501  502  0.00000000000E+00  0.00000000000E+00  0.27323134546E+03  0.27323134546E+03  0.00000000000E+00 0.  1.
         -4   -1    0    0    0  501 -0.00000000000E+00 -0.00000000000E+00 -0.31494286058E+02  0.31519881889E+02  0.12700000000E+01 0. -1.
         25    2    1    2    0    0 -0.22148202592E+02  0.40578264502E+02  0.14161692869E+03  0.19446617895E+03  0.12499840732E+03 0.  0.
    9000005    1    3    3    0    0  0.19507181962E+02  0.62090070698E+02  0.13115823037E+03  0.14642127039E+03  0.10000000000E+01 0.  0.
    9000005    1    3    3    0    0 -0.41655384554E+02 -0.21511806196E+02  0.10458698324E+02  0.48044908563E+02  0.10000000000E+01 0.  0.
         -4    1    1    2    0  502  0.22148202592E+02 -0.40578264502E+02  0.10012013071E+03  0.11028504840E+03  0.12700000000E+01 0.  1.
<mgrwt>
<rscale>  1 0.13327318E+03</rscale>
<asrwt>0</asrwt>
<pdfrwt beam="1">  1       21 0.42035590E-01 0.13327318E+03</pdfrwt>
<pdfrwt beam="2">  1       -4 0.48474709E-02 0.13327318E+03</pdfrwt>
<totfact> 0.55525572E+04</totfact>
</mgrwt>
</event>
<event>
 6    4  0.6376098E-003  0.1349805E+03  0.7818608E-02  0.1220247E+00
         21   -1    0    0  501  502  0.00000000000E+00  0.00000000000E+00  0.13328989903E+02  0.13328989903E+02  0.00000000000E+00 0. -1.
          4   -1    0    0  502    0 -0.00000000000E+00 -0.00000000000E+00 -0.65648390970E+03  0.65648513814E+03  0.12700000000E+01 0. -1.
         25    2    1    2    0    0 -0.24126456536E+02 -0.44857192611E+02 -0.49838666401E+03  0.51634193376E+03  0.12500188823E+03 0.  0.
    9000005    1    3    3    0    0  0.19778079261E+02  0.19460650178E+02 -0.32598766289E+03  0.32716791664E+03  0.10000000000E+01 0.  0.
    9000005    1    3    3    0    0 -0.43904535797E+02 -0.64317842789E+02 -0.17239900112E+03  0.18917401712E+03  0.10000000000E+01 0.  0.
          4    1    1    2  501    0  0.24126456536E+02  0.44857192611E+02 -0.14476825579E+03  0.15347219428E+03  0.12700000000E+01 0.  1.
<mgrwt>
<rscale>  1 0.13498046E+03</rscale>
<asrwt>0</asrwt>
<pdfrwt beam="1">  1       21 0.20506142E-02 0.13498046E+03</pdfrwt>
<pdfrwt beam="2">  1        4 0.10100225E+00 0.13498046E+03</pdfrwt>
<totfact> 0.39906415E+04</totfact>
</mgrwt>
</event>
<event>
 6    4  0.6376098E-003  0.1269000E+03  0.7818608E-02  0.1232129E+00
         21   -1    0    0  501  502  0.00000000000E+00  0.00000000000E+00  0.25548776413E+02  0.25548776413E+02  0.00000000000E+00 0. -1.
          4   -1    0    0  502    0 -0.00000000000E+00 -0.00000000000E+00 -0.30396962144E+03  0.30397227449E+03  0.12700000000E+01 0. -1.
         25    2    1    2    0    0  0.12884971686E+02  0.17699906752E+02 -0.28012171273E+03  0.30752525482E+03  0.12499719682E+03 0.  0.
    9000005    1    3    3    0    0  0.60155992608E+02 -0.22459304197E+02 -0.15794797118E+03  0.17050432661E+03  0.10000000000E+01 0.  0.
    9000005    1    3    3    0    0 -0.47271020922E+02  0.40159210949E+02 -0.12217374155E+03  0.13702092821E+03  0.10000000000E+01 0.  0.
          4    1    1    2  501    0 -0.12884971686E+02 -0.17699906752E+02  0.17008677059E+01  0.21995796083E+02  0.12700000000E+01 0.  1.
<mgrwt>
<rscale>  1 0.12689999E+03</rscale>
<asrwt>0</asrwt>
<pdfrwt beam="1">  1       21 0.39305809E-02 0.12689999E+03</pdfrwt>
<pdfrwt beam="2">  1        4 0.46767190E-01 0.12689999E+03</pdfrwt>
<totfact> 0.71590411E+04</totfact>
</mgrwt>
</event>
<event>
 6    4  0.6376098E-003  0.1779114E+03  0.7818608E-02  0.1169840E+00
          4   -1    0    0  502    0 -0.00000000000E+00  0.00000000000E+00  0.31001936956E+03  0.31002197084E+03  0.12700000000E+01 0. -1.
         21   -1    0    0  501  502  0.00000000000E+00 -0.00000000000E+00 -0.11998188185E+03  0.11998188185E+03  0.00000000000E+00 0.  1.
         25    2    1    2    0    0  0.10660744967E+03  0.68282031209E+02  0.23579348098E+03  0.29538287390E+03  0.12499956965E+03 0.  0.
    9000005    1    3    3    0    0  0.10542637511E+03 -0.36489017665E+01  0.15059992059E+03  0.18387324747E+03  0.10000000000E+01 0.  0.
    9000005    1    3    3    0    0  0.11810745578E+01  0.71930932975E+02  0.85193560385E+02  0.11150962643E+03  0.10000000000E+01 0.  0.
          4    1    1    2  501    0 -0.10660744967E+03 -0.68282031209E+02 -0.45755993267E+02  0.13462097879E+03  0.12700000000E+01 0.  1.
<mgrwt>
<rscale>  1 0.17791143E+03</rscale>
<asrwt>0</asrwt>
<pdfrwt beam="2">  1       21 0.18458751E-01 0.17791143E+03</pdfrwt>
<pdfrwt beam="1">  1        4 0.47696004E-01 0.17791143E+03</pdfrwt>
<totfact> 0.47939024E+03</totfact>
</mgrwt>
</event>
<event>
 6    4  0.6376098E-003  0.1281695E+03  0.7818608E-02  0.1230197E+00
          4   -1    0    0  502    0 -0.00000000000E+00  0.00000000000E+00  0.60754727450E+02  0.60767999865E+02  0.12700000000E+01 0. -1.
         21   -1    0    0  501  502  0.00000000000E+00 -0.00000000000E+00 -0.15308690103E+03  0.15308690103E+03  0.00000000000E+00 0. -1.
         25    2    1    2    0    0  0.21642223991E+02 -0.18258138408E+02 -0.12071683483E+02  0.12873672042E+03  0.12500268863E+03 0.  0.
    9000005    1    3    3    0    0  0.30687230213E+02 -0.59894332211E+02  0.25447661171E+02  0.71955684892E+02  0.10000000000E+01 0.  0.
    9000005    1    3    3    0    0 -0.90450062224E+01  0.41636193803E+02 -0.37519344654E+02  0.56781035524E+02  0.10000000000E+01 0.  0.
          4    1    1    2  501    0 -0.21642223991E+02  0.18258138408E+02 -0.80260490096E+02  0.85118180478E+02  0.12700000000E+01 0.  1.
<mgrwt>
<rscale>  1 0.12816949E+03</rscale>
<asrwt>0</asrwt>
<pdfrwt beam="2">  1       21 0.23551831E-01 0.12816949E+03</pdfrwt>
<pdfrwt beam="1">  1        4 0.93483075E-02 0.12816949E+03</pdfrwt>
<totfact> 0.58100415E+04</totfact>
</mgrwt>
</event>
<event>
 6    4  0.6376098E-003  0.1309711E+03  0.7818608E-02  0.1226022E+00
         21   -1    0    0  501  502  0.00000000000E+00  0.00000000000E+00  0.84674841579E+03  0.84674841579E+03  0.00000000000E+00 0. -1.
          4   -1    0    0  502    0 -0.00000000000E+00 -0.00000000000E+00 -0.11453813641E+02  0.11524007416E+02  0.12700000000E+01 0.  1.
         25    2    1    2    0    0 -0.76058908179E+01  0.38359717916E+02  0.39297298065E+03  0.41422361139E+03  0.12499647665E+03 0.  0.
    9000005    1    3    3    0    0  0.12828573728E+02  0.40167891519E+02  0.39135495879E+03  0.39362130987E+03  0.10000000000E+01 0.  0.
    9000005    1    3    3    0    0 -0.20434464546E+02 -0.18081736028E+01  0.16180218610E+01  0.20602301517E+02  0.10000000000E+01 0.  0.
          4    1    1    2  501    0  0.76058908179E+01 -0.38359717916E+02  0.44232162149E+03  0.44404881181E+03  0.12700000000E+01 0. -1.
<mgrwt>
<rscale>  1 0.13097113E+03</rscale>
<asrwt>0</asrwt>
<pdfrwt beam="1">  1       21 0.13026894E+00 0.13097113E+03</pdfrwt>
<pdfrwt beam="2">  1        4 0.17675986E-02 0.13097113E+03</pdfrwt>
<totfact> 0.21832964E+04</totfact>
</mgrwt>
</event>
<event>
 6    4  0.6376098E-003  0.1339153E+03  0.7818608E-02  0.1221759E+00
          4   -1    0    0  502    0 -0.00000000000E+00  0.00000000000E+00  0.10620368193E+03  0.10621127509E+03  0.12700000000E+01 0. -1.
         21   -1    0    0  501  502  0.00000000000E+00 -0.00000000000E+00 -0.17488158352E+03  0.17488158352E+03  0.00000000000E+00 0.  1.
         25    2    1    2    0    0 -0.36378723071E+02 -0.31290689793E+02  0.57766803924E+02  0.14584347705E+03  0.12502318745E+03 0.  0.
    9000005    1    3    3    0    0 -0.52128534504E+02  0.28563593436E+02  0.59239583530E+02  0.83926105809E+02  0.10000000000E+01 0.  0.
    9000005    1    3    3    0    0  0.15749811434E+02 -0.59854283229E+02 -0.14727796056E+01  0.61917371236E+02  0.10000000000E+01 0.  0.
          4    1    1    2  501    0  0.36378723071E+02  0.31290689793E+02 -0.12644470551E+03  0.13524938156E+03  0.12700000000E+01 0.  1.
<mgrwt>
<rscale>  1 0.13391533E+03</rscale>
<asrwt>0</asrwt>
<pdfrwt beam="2">  1       21 0.26904859E-01 0.13391533E+03</pdfrwt>
<pdfrwt beam="1">  1        4 0.16339967E-01 0.13391533E+03</pdfrwt>
<totfact> 0.17417573E+04</totfact>
</mgrwt>
</event>
<event>
 6    4  0.6376098E-003  0.1978608E+03  0.7818608E-02  0.1151557E+00
          4   -1    0    0  502    0 -0.00000000000E+00  0.00000000000E+00  0.90703286666E+03  0.90703375576E+03  0.12700000000E+01 0. -1.
         21   -1    0    0  501  502  0.00000000000E+00 -0.00000000000E+00 -0.37560896294E+02  0.37560896294E+02  0.00000000000E+00 0.  1.
         25    2    1    2    0    0 -0.99298124726E+02  0.11688733133E+03  0.62888657078E+03  0.65927778752E+03  0.12500446554E+03 0.  0.
    9000005    1    3    3    0    0 -0.73076119444E+02  0.10849873692E+03  0.61436008160E+03  0.62813327010E+03  0.10000000000E+01 0.  0.
    9000005    1    3    3    0    0 -0.26222005282E+02  0.83885944067E+01  0.14526489184E+02  0.31144517417E+02  0.10000000000E+01 0.  0.
          4    1    1    2  501    0  0.99298124726E+02 -0.11688733133E+03  0.24058539958E+03  0.28531686454E+03  0.12700000000E+01 0.  1.
<mgrwt>
<rscale>  1 0.19786076E+03</rscale>
<asrwt>0</asrwt>
<pdfrwt beam="2">  1       21 0.57786001E-02 0.19786076E+03</pdfrwt>
<pdfrwt beam="1">  1        4 0.13954522E+00 0.19786076E+03</pdfrwt>
<totfact> 0.33790736E+03</totfact>
</mgrwt>
</event>
<event>
 6    4  0.6376098E-003  0.1326568E+03  0.7818608E-02  0.1223566E+00
         21   -1    0    0  501  502  0.00000000000E+00  0.00000000000E+00  0.52914152971E+02  0.52914152971E+02  0.00000000000E+00 0. -1.
         -4   -1    0    0    0  501 -0.00000000000E+00 -0.00000000000E+00 -0.48994072062E+03  0.48994236664E+03  0.12700000000E+01 0.  1.
         25    2    1    2    0    0 -0.29995255849E+02  0.32744606530E+02 -0.46946616325E+03  0.48784865751E+03  0.12500363823E+03 0.  0.
    9000005    1    3    3    0    0 -0.60379015910E+02  0.63744102540E+02 -0.34611636905E+03  0.35708049106E+03  0.10000000000E+01 0.  0.
    9000005    1    3    3    0    0  0.30383760060E+02 -0.30999496010E+02 -0.12334979420E+03  0.13076816645E+03  0.10000000000E+01 0.  0.
         -4    1    1    2    0  502  0.29995255849E+02 -0.32744606530E+02  0.32439595595E+02  0.55007862098E+02  0.12700000000E+01 0. -1.
<mgrwt>
<rscale>  1 0.13265683E+03</rscale>
<asrwt>0</asrwt>
<pdfrwt beam="1">  1       21 0.81406387E-02 0.13265683E+03</pdfrwt>
<pdfrwt beam="2">  1       -4 0.75376796E-01 0.13265683E+03</pdfrwt>
<totfact> 0.77232019E+03</totfact>
</mgrwt>
</event>
<event>
 6    4  0.6376098E-003  0.1432188E+03  0.7818608E-02  0.1209062E+00
         21   -1    0    0  501  502  0.00000000000E+00  0.00000000000E+00  0.18209296310E+03  0.18209296310E+03  0.00000000000E+00 0. -1.
          4   -1    0    0  502    0 -0.00000000000E+00 -0.00000000000E+00 -0.14291556674E+03  0.14292120947E+03  0.12700000000E+01 0.  1.
         25    2    1    2    0    0  0.66762129803E+02 -0.20731168951E+02 -0.96282277764E+02  0.17257434984E+03  0.12499866347E+03 0.  0.
    9000005    1    3    3    0    0 -0.14217206077E+02 -0.48662755265E+02 -0.11391863332E+02  0.51970830750E+02  0.10000000000E+01 0.  0.
    9000005    1    3    3    0    0  0.80979335881E+02  0.27931586314E+02 -0.84890414432E+02  0.12060351909E+03  0.10000000000E+01 0.  0.
          4    1    1    2  501    0 -0.66762129803E+02  0.20731168951E+02  0.13545967413E+03  0.15243982274E+03  0.12700000000E+01 0. -1.
<mgrwt>
<rscale>  1 0.14321882E+03</rscale>
<asrwt>0</asrwt>
<pdfrwt beam="1">  1       21 0.28014302E-01 0.14321882E+03</pdfrwt>
<pdfrwt beam="2">  1        4 0.21987785E-01 0.14321882E+03</pdfrwt>
<totfact> 0.95299372E+03</totfact>
</mgrwt>
</event>
<event>
 6    4  0.6376098E-003  0.1326133E+03  0.7818608E-02  0.1223629E+00
          4   -1    0    0  502    0 -0.00000000000E+00  0.00000000000E+00  0.71962496154E+02  0.71973701814E+02  0.12700000000E+01 0. -1.
         21   -1    0    0  501  502  0.00000000000E+00 -0.00000000000E+00 -0.11555424476E+03  0.11555424476E+03  0.00000000000E+00 0.  1.
         25    2    1    2    0    0 -0.15876693268E+01 -0.44251728024E+02 -0.12074744353E+02  0.13316186722E+03  0.12500218920E+03 0.  0.
    9000005    1    3    3    0    0 -0.65185677934E+01 -0.29410982188E+02 -0.68373787149E+02  0.74722636252E+02  0.10000000000E+01 0.  0.
    9000005    1    3    3    0    0  0.49308984666E+01 -0.14840745836E+02  0.56299042797E+02  0.58439230971E+02  0.10000000000E+01 0.  0.
          4    1    1    2  501    0  0.15876693268E+01  0.44251728024E+02 -0.31517004256E+02  0.54366079353E+02  0.12700000000E+01 0.  1.
<mgrwt>
<rscale>  1 0.13261329E+03</rscale>
<asrwt>0</asrwt>
<pdfrwt beam="2">  1       21 0.17777576E-01 0.13261329E+03</pdfrwt>
<pdfrwt beam="1">  1        4 0.11072552E-01 0.13261329E+03</pdfrwt>
<totfact> 0.73882943E+04</totfact>
</mgrwt>
</event>
<event>
 6    4  0.6376098E-003  0.1271046E+03  0.7818608E-02  0.1231816E+00
         21   -1    0    0  501  502  0.00000000000E+00  0.00000000000E+00  0.14400115873E+02  0.14400115873E+02  0.00000000000E+00 0.  1.
          4   -1    0    0  502    0 -0.00000000000E+00 -0.00000000000E+00 -0.48800951835E+03  0.48801117088E+03  0.12700000000E+01 0. -1.
         25    2    1    2    0    0  0.13958100380E+02 -0.18332811253E+02 -0.45600051003E+03  0.47338360121E+03  0.12499859284E+03 0.  0.
    9000005    1    3    3    0    0 -0.44391016980E+02  0.15352940476E+02 -0.93124981525E+02  0.10430502075E+03  0.10000000000E+01 0.  0.
    9000005    1    3    3    0    0  0.58349117360E+02 -0.33685751729E+02 -0.36287552850E+03  0.36907858046E+03  0.10000000000E+01 0.  0.
          4    1    1    2  501    0 -0.13958100380E+02  0.18332811253E+02 -0.17608892450E+02  0.29027685543E+02  0.12700000000E+01 0.  1.
<mgrwt>
<rscale>  1 0.12710456E+03</rscale>
<asrwt>0</asrwt>
<pdfrwt beam="1">  1       21 0.22154024E-02 0.12710456E+03</pdfrwt>
<pdfrwt beam="2">  1        4 0.75082823E-01 0.12710456E+03</pdfrwt>
<totfact> 0.67987908E+04</totfact>
</mgrwt>
</event>
<event>
 6    4  0.6376098E-003  0.1329681E+03  0.7818608E-02  0.1223117E+00
         21   -1    0    0  501  502  0.00000000000E+00  0.00000000000E+00  0.10650179914E+02  0.10650179914E+02  0.00000000000E+00 0. -1.
          4   -1    0    0  502    0 -0.00000000000E+00 -0.00000000000E+00 -0.76281865646E+03  0.76281971365E+03  0.12700000000E+01 0. -1.
         25    2    1    2    0    0  0.43790409033E+02  0.11795714882E+02 -0.60626870427E+03  0.62067887530E+03  0.12499514254E+03 0.  0.
    9000005    1    3    3    0    0  0.27158206025E+02  0.56339099052E+02 -0.50430651492E+03  0.50817095866E+03  0.10000000000E+01 0.  0.
    9000005    1    3    3    0    0  0.16632203008E+02 -0.44543384171E+02 -0.10196218935E+03  0.11250791664E+03  0.10000000000E+01 0.  0.
          4    1    1    2  501    0 -0.43790409033E+02 -0.11795714882E+02 -0.14589977227E+03  0.15279101826E+03  0.12700000000E+01 0.  1.
<mgrwt>
<rscale>  1 0.13296813E+03</rscale>
<asrwt>0</asrwt>
<pdfrwt beam="1">  1       21 0.16384893E-02 0.13296813E+03</pdfrwt>
<pdfrwt beam="2">  1        4 0.11736262E+00 0.13296813E+03</pdfrwt>
<totfact> 0.40160021E+04</totfact>
</mgrwt>
</event>
<event>
 6    4  0.6376098E-003  0.1277511E+03  0.7818608E-02  0.1230831E+00
         -4   -1    0    0    0  501 -0.00000000000E+00  0.00000000000E+00  0.90374038977E+01  0.91262023432E+01  0.12700000000E+01 0. -1.
         21   -1    0    0  501  502  0.00000000000E+00 -0.00000000000E+00 -0.13160386204E+04  0.13160386204E+04  0.00000000000E+00 0.  1.
         25    2    1    2    0    0 -0.81919195776E+01 -0.25052233951E+02 -0.45066496762E+03  0.46842209238E+03  0.12500248646E+03 0.  0.
    9000005    1    3    3    0    0  0.45311281253E+02 -0.31598795491E+02 -0.34900942748E+03  0.35335559505E+03  0.10000000000E+01 0.  0.
    9000005    1    3    3    0    0 -0.53503200830E+02  0.65465615401E+01 -0.10165554014E+03  0.11506649733E+03  0.10000000000E+01 0.  0.
         -4    1    1    2    0  502  0.81919195776E+01  0.25052233951E+02 -0.85633624887E+03  0.85674273034E+03  0.12700000000E+01 0.  1.
<mgrwt>
<rscale>  1 0.12775110E+03</rscale>
<asrwt>0</asrwt>
<pdfrwt beam="2">  1       21 0.20246757E+00 0.12775110E+03</pdfrwt>
<pdfrwt beam="1">  1       -4 0.13972470E-02 0.12775110E+03</pdfrwt>
<totfact> 0.95990305E+03</totfact>
</mgrwt>
</event>
<event>
 6    4  0.6376098E-003  0.1322449E+03  0.7818608E-02  0.1224162E+00
         21   -1    0    0  501  502  0.00000000000E+00  0.00000000000E+00  0.33260951671E+03  0.33260951671E+03  0.00000000000E+00 0. -1.
         -4   -1    0    0    0  501 -0.00000000000E+00 -0.00000000000E+00 -0.37474910831E+02  0.37496424387E+02  0.12700000000E+01 0.  1.
         25    2    1    2    0    0 -0.18227131220E+02  0.39125304973E+02  0.88779514350E+02  0.15928124022E+03  0.12500277403E+03 0.  0.
    9000005    1    3    3    0    0  0.49186649081E+01 -0.44810471679E+02  0.27682117674E+02  0.52910030008E+02  0.10000000000E+01 0.  0.
    9000005    1    3    3    0    0 -0.23145796128E+02  0.83935776652E+02  0.61097396675E+02  0.10637121021E+03  0.10000000000E+01 0.  0.
         -4    1    1    2    0  502  0.18227131220E+02 -0.39125304973E+02  0.20635509153E+03  0.21082470089E+03  0.12700000000E+01 0. -1.
<mgrwt>
<rscale>  1 0.13224489E+03</rscale>
<asrwt>0</asrwt>
<pdfrwt beam="1">  1       21 0.51170693E-01 0.13224489E+03</pdfrwt>
<pdfrwt beam="2">  1       -4 0.57672125E-02 0.13224489E+03</pdfrwt>
<totfact> 0.28058425E+04</totfact>
</mgrwt>
</event>
<event>
 6    4  0.6376098E-003  0.1432412E+03  0.7818608E-02  0.1209033E+00
         21   -1    0    0  501  502  0.00000000000E+00  0.00000000000E+00  0.85970987905E+02  0.85970987905E+02  0.00000000000E+00 0. -1.
         -4   -1    0    0    0  501 -0.00000000000E+00 -0.00000000000E+00 -0.17415563311E+03  0.17416026368E+03  0.12700000000E+01 0.  1.
         25    2    1    2    0    0  0.74423863008E+01  0.69539969907E+02 -0.11653313929E+03  0.18465644423E+03  0.12500733303E+03 0.  0.
    9000005    1    3    3    0    0 -0.33962516108E+02 -0.10596736006E+02  0.20641698551E+01  0.35651144604E+02  0.10000000000E+01 0.  0.
    9000005    1    3    3    0    0  0.41404902409E+02  0.80136705913E+02 -0.11859730915E+03  0.14900529962E+03  0.10000000000E+01 0.  0.
         -4    1    1    2    0  502 -0.74423863008E+01 -0.69539969907E+02  0.28348494088E+02  0.75474807357E+02  0.12700000000E+01 0. -1.
<mgrwt>
<rscale>  1 0.14324116E+03</rscale>
<asrwt>0</asrwt>
<pdfrwt beam="1">  1       21 0.13226306E-01 0.14324116E+03</pdfrwt>
<pdfrwt beam="2">  1       -4 0.26794252E-01 0.14324116E+03</pdfrwt>
<totfact> 0.26531081E+04</totfact>
</mgrwt>
</event>
<event>
 6    4  0.6376098E-003  0.1344384E+03  0.7818608E-02  0.1221015E+00
         -4   -1    0    0    0  501 -0.00000000000E+00  0.00000000000E+00  0.10350470466E+03  0.10351249580E+03  0.12700000000E+01 0. -1.
         21   -1    0    0  501  502  0.00000000000E+00 -0.00000000000E+00 -0.10027673300E+03  0.10027673300E+03  0.00000000000E+00 0.  1.
         25    2    1    2    0    0 -0.36218407902E+02 -0.33704967869E+02  0.42079271709E+02  0.14086996032E+03  0.12500353068E+03 0.  0.
    9000005    1    3    3    0    0 -0.42709692226E+02 -0.38700815819E+02  0.81928329139E+02  0.10017545643E+03  0.10000000000E+01 0.  0.
    9000005    1    3    3    0    0  0.64912843241E+01  0.49958479498E+01 -0.39849057430E+02  0.40694503891E+02  0.10000000000E+01 0.  0.
         -4    1    1    2    0  502  0.36218407902E+02  0.33704967869E+02 -0.38851300052E+02  0.62919268477E+02  0.12700000000E+01 0.  1.
<mgrwt>
<rscale>  1 0.13443839E+03</rscale>
<asrwt>0</asrwt>
<pdfrwt beam="2">  1       21 0.15427190E-01 0.13443839E+03</pdfrwt>
<pdfrwt beam="1">  1       -4 0.15925019E-01 0.13443839E+03</pdfrwt>
<totfact> 0.51152965E+04</totfact>
</mgrwt>
</event>
<event>
 6    4  0.6376098E-003  0.1338540E+03  0.7818608E-02  0.1221847E+00
          4   -1    0    0  502    0 -0.00000000000E+00  0.00000000000E+00  0.48871976825E+03  0.48872141838E+03  0.12700000000E+01 0.  1.
         21   -1    0    0  501  502  0.00000000000E+00 -0.00000000000E+00 -0.19385565911E+02  0.19385565911E+02  0.00000000000E+00 0. -1.
         25    2    1    2    0    0 -0.45990719930E+02 -0.13338936733E+02  0.41305208963E+03  0.43419918589E+03  0.12499532283E+03 0.  0.
    9000005    1    3    3    0    0 -0.58307160892E+02  0.39159067828E+02  0.31031847368E+03  0.31816931453E+03  0.10000000000E+01 0.  0.
    9000005    1    3    3    0    0  0.12316440962E+02 -0.52498004561E+02  0.10273361595E+03  0.11602987136E+03  0.10000000000E+01 0.  0.
          4    1    1    2  501    0  0.45990719930E+02  0.13338936733E+02  0.56282112714E+02  0.73907798400E+02  0.12700000000E+01 0. -1.
<mgrwt>
<rscale>  1 0.13385404E+03</rscale>
<asrwt>0</asrwt>
<pdfrwt beam="2">  1       21 0.29823951E-02 0.13385404E+03</pdfrwt>
<pdfrwt beam="1">  1        4 0.75190974E-01 0.13385404E+03</pdfrwt>
<totfact> 0.42039601E+04</totfact>
</mgrwt>
</event>
<event>
 6    4  0.6376098E-003  0.1395115E+03  0.7818608E-02  0.1213988E+00
         -4   -1    0    0    0  501 -0.00000000000E+00  0.00000000000E+00  0.58771207044E+02  0.58784927297E+02  0.12700000000E+01 0.  1.
         21   -1    0    0  501  502  0.00000000000E+00 -0.00000000000E+00 -0.17505245560E+03  0.17505245560E+03  0.00000000000E+00 0. -1.
         25    2    1    2    0    0 -0.36697317205E+02 -0.49911988508E+02 -0.67537929895E+02  0.15499942439E+03  0.12500219958E+03 0.  0.
    9000005    1    3    3    0    0  0.40868473084E+02 -0.45580925704E+02 -0.22726995005E+02  0.65309793923E+02  0.10000000000E+01 0.  0.
    9000005    1    3    3    0    0 -0.77565790290E+02 -0.43310628044E+01 -0.44810934889E+02  0.89689630471E+02  0.10000000000E+01 0.  0.
         -4    1    1    2    0  502  0.36697317205E+02  0.49911988508E+02 -0.48743318662E+02  0.78837958504E+02  0.12700000000E+01 0. -1.
<mgrwt>
<rscale>  1 0.13951147E+03</rscale>
<asrwt>0</asrwt>
<pdfrwt beam="2">  1       21 0.26931147E-01 0.13951147E+03</pdfrwt>
<pdfrwt beam="1">  1       -4 0.90431340E-02 0.13951147E+03</pdfrwt>
<totfact> 0.48121964E+04</totfact>
</mgrwt>
</event>
<event>
 6    4  0.6376098E-003  0.1344332E+03  0.7818608E-02  0.1221022E+00
         -4   -1    0    0    0  501 -0.00000000000E+00  0.00000000000E+00  0.10724305644E+03  0.10725057601E+03  0.12700000000E+01 0.  1.
         21   -1    0    0  501  502  0.00000000000E+00 -0.00000000000E+00 -0.39144931794E+03  0.39144931794E+03  0.00000000000E+00 0. -1.
         25    2    1    2    0    0 -0.38911351858E+02 -0.30550932006E+02  0.62661459450E+02  0.14831969832E+03  0.12499928664E+03 0.  0.
    9000005    1    3    3    0    0  0.19217740376E-02  0.43629850650E+02  0.45035724702E+02  0.62711883809E+02  0.10000000000E+01 0.  0.
    9000005    1    3    3    0    0 -0.38913273632E+02 -0.74180782656E+02  0.17625734748E+02  0.85607814513E+02  0.10000000000E+01 0.  0.
         -4    1    1    2    0  502  0.38911351858E+02  0.30550932006E+02 -0.34686772095E+03  0.35038019562E+03  0.12700000000E+01 0. -1.
<mgrwt>
<rscale>  1 0.13443316E+03</rscale>
<asrwt>0</asrwt>
<pdfrwt beam="2">  1       21 0.60222973E-01 0.13443316E+03</pdfrwt>
<pdfrwt beam="1">  1       -4 0.16499668E-01 0.13443316E+03</pdfrwt>
<totfact> 0.33975798E+03</totfact>
</mgrwt>
</event>
<event>
 6    4  0.6376098E-003  0.1478673E+03  0.7818608E-02  0.1203118E+00
         21   -1    0    0  501  502  0.00000000000E+00  0.00000000000E+00  0.34311680566E+03  0.34311680566E+03  0.00000000000E+00 0. -1.
          4   -1    0    0  502    0 -0.00000000000E+00 -0.00000000000E+00 -0.30696456899E+03  0.30696719616E+03  0.12700000000E+01 0.  1.
         25    2    1    2    0    0 -0.14064089790E+02  0.77731536007E+02 -0.28407500524E+03  0.32025512243E+03  0.12499897811E+03 0.  0.
    9000005    1    3    3    0    0  0.75699909866E+01  0.39099197939E+02 -0.79783954396E+01  0.40628891651E+02  0.10000000000E+01 0.  0.
    9000005    1    3    3    0    0 -0.21634080777E+02  0.38632338068E+02 -0.27609660980E+03  0.27962623078E+03  0.10000000000E+01 0.  0.
          4    1    1    2  501    0  0.14064089790E+02 -0.77731536007E+02  0.32022724191E+03  0.32982887938E+03  0.12700000000E+01 0. -1.
<mgrwt>
<rscale>  1 0.14786729E+03</rscale>
<asrwt>0</asrwt>
<pdfrwt beam="1">  1       21 0.52787201E-01 0.14786729E+03</pdfrwt>
<pdfrwt beam="2">  1        4 0.47225701E-01 0.14786729E+03</pdfrwt>
<totfact> 0.62296916E+02</totfact>
</mgrwt>
</event>
<event>
 6    4  0.6376098E-003  0.1577070E+03  0.7818608E-02  0.1191310E+00
         -4   -1    0    0    0  501 -0.00000000000E+00  0.00000000000E+00  0.15463488767E+04  0.15463493982E+04  0.12700000000E+01 0.  1.
         21   -1    0    0  501  502  0.00000000000E+00 -0.00000000000E+00 -0.51705058806E+02  0.51705058806E+02  0.00000000000E+00 0. -1.
         25    2    1    2    0    0 -0.70964025198E+02  0.64884017119E+02  0.14935819270E+04  0.15018849761E+04  0.12500272089E+03 0.  0.
    9000005    1    3    3    0    0 -0.81167112918E+02 -0.50570078987E-01  0.54313545801E+03  0.54916775991E+03  0.10000000000E+01 0.  0.
    9000005    1    3    3    0    0  0.10203087720E+02  0.64934587198E+02  0.95044646900E+03  0.95271721620E+03  0.10000000000E+01 0.  0.
         -4    1    1    2    0  502  0.70964025198E+02 -0.64884017119E+02  0.10618909000E+01  0.96169480929E+02  0.12700000000E+01 0. -1.
<mgrwt>
<rscale>  1 0.15770703E+03</rscale>
<asrwt>0</asrwt>
<pdfrwt beam="2">  1       21 0.79546256E-02 0.15770703E+03</pdfrwt>
<pdfrwt beam="1">  1       -4 0.23790103E+00 0.15770703E+03</pdfrwt>
<totfact> 0.43738947E+02</totfact>
</mgrwt>
</event>
<event>
 6    4  0.6376098E-003  0.1300301E+03  0.7818608E-02  0.1227411E+00
         21   -1    0    0  501  502  0.00000000000E+00  0.00000000000E+00  0.36810901931E+02  0.36810901931E+02  0.00000000000E+00 0. -1.
          4   -1    0    0  502    0 -0.00000000000E+00 -0.00000000000E+00 -0.20497355401E+03  0.20497748838E+03  0.12700000000E+01 0. -1.
         25    2    1    2    0    0  0.10626199246E+02 -0.34202440566E+02 -0.15782217751E+03  0.20448877416E+03  0.12500038396E+03 0.  0.
    9000005    1    3    3    0    0  0.35309461857E+01 -0.57191274205E+02 -0.16862461125E+03  0.17809707731E+03  0.10000000000E+01 0.  0.
    9000005    1    3    3    0    0  0.70952530603E+01  0.22988833639E+02  0.10802433736E+02  0.26391696851E+02  0.10000000000E+01 0.  0.
          4    1    1    2  501    0 -0.10626199246E+02  0.34202440566E+02 -0.10340474566E+02  0.37299616156E+02  0.12700000000E+01 0.  1.
<mgrwt>
<rscale>  1 0.13003007E+03</rscale>
<asrwt>0</asrwt>
<pdfrwt beam="1">  1       21 0.56632156E-02 0.13003007E+03</pdfrwt>
<pdfrwt beam="2">  1        4 0.31536381E-01 0.13003007E+03</pdfrwt>
<totfact> 0.84190242E+04</totfact>
</mgrwt>
</event>
<event>
 6    4  0.6376098E-003  0.1271846E+03  0.7818608E-02  0.1231694E+00
         21   -1    0    0  501  502  0.00000000000E+00  0.00000000000E+00  0.19043495634E+02  0.19043495634E+02  0.00000000000E+00 0. -1.
          4   -1    0    0  502    0 -0.00000000000E+00 -0.00000000000E+00 -0.34660334017E+03  0.34660566688E+03  0.12700000000E+01 0.  1.
         25    2    1    2    0    0 -0.11110544901E+02  0.20618741812E+02 -0.31346431752E+03  0.33828360928E+03  0.12500938057E+03 0.  0.
    9000005    1    3    3    0    0  0.55559146792E+02  0.22712481166E+02 -0.16262978294E+03  0.17335547841E+03  0.10000000000E+01 0.  0.
    9000005    1    3    3    0    0 -0.66669691693E+02 -0.20937393543E+01 -0.15083453457E+03  0.16492813088E+03  0.10000000000E+01 0.  0.
          4    1    1    2  501    0  0.11110544901E+02 -0.20618741812E+02 -0.14095527018E+02  0.27365553234E+02  0.12700000000E+01 0. -1.
<mgrwt>
<rscale>  1 0.12718460E+03</rscale>
<asrwt>0</asrwt>
<pdfrwt beam="1">  1       21 0.29297687E-02 0.12718460E+03</pdfrwt>
<pdfrwt beam="2">  1        4 0.53327024E-01 0.12718460E+03</pdfrwt>
<totfact> 0.89006126E+04</totfact>
</mgrwt>
</event>
<event>
 6    4  0.6376098E-003  0.1273276E+03  0.7818608E-02  0.1231476E+00
         -4   -1    0    0    0  501 -0.00000000000E+00  0.00000000000E+00  0.37471239459E+02  0.37492755121E+02  0.12700000000E+01 0.  1.
         21   -1    0    0  501  502  0.00000000000E+00 -0.00000000000E+00 -0.35968014783E+03  0.35968014783E+03  0.00000000000E+00 0. -1.
         25    2    1    2    0    0 -0.14044570999E+02 -0.19786308050E+02 -0.72974442023E+02  0.14675688893E+03  0.12499426907E+03 0.  0.
    9000005    1    3    3    0    0 -0.39680847144E+02  0.42125083316E+02 -0.19685786176E+02  0.61136097781E+02  0.10000000000E+01 0.  0.
    9000005    1    3    3    0    0  0.25636276145E+02 -0.61911391367E+02 -0.53288655847E+02  0.85620791152E+02  0.10000000000E+01 0.  0.
         -4    1    1    2    0  502  0.14044570999E+02  0.19786308050E+02 -0.24923446634E+03  0.25041601401E+03  0.12700000000E+01 0. -1.
<mgrwt>
<rscale>  1 0.12732759E+03</rscale>
<asrwt>0</asrwt>
<pdfrwt beam="2">  1       21 0.55335409E-01 0.12732759E+03</pdfrwt>
<pdfrwt beam="1">  1       -4 0.57666334E-02 0.12732759E+03</pdfrwt>
<totfact> 0.23756260E+04</totfact>
</mgrwt>
</event>
<event>
 6    4  0.6376098E-003  0.1277323E+03  0.7818608E-02  0.1230860E+00
         21   -1    0    0  501  502  0.00000000000E+00  0.00000000000E+00  0.52475184070E+03  0.52475184070E+03  0.00000000000E+00 0. -1.
         -4   -1    0    0    0  501 -0.00000000000E+00 -0.00000000000E+00 -0.17305664861E+02  0.17352202635E+02  0.12700000000E+01 0.  1.
         25    2    1    2    0    0 -0.11819496229E+02 -0.23468466639E+02  0.22734819828E+03  0.26077334940E+03  0.12500026831E+03 0.  0.
    9000005    1    3    3    0    0  0.35357975461E+02  0.69298907446E+01  0.18991373590E+03  0.19330400125E+03  0.10000000000E+01 0.  0.
    9000005    1    3    3    0    0 -0.47177471690E+02 -0.30398357384E+02  0.37434462383E+02  0.67469348156E+02  0.10000000000E+01 0.  0.
         -4    1    1    2    0  502  0.11819496229E+02  0.23468466639E+02  0.28009797756E+03  0.28133069393E+03  0.12700000000E+01 0. -1.
<mgrwt>
<rscale>  1 0.12773228E+03</rscale>
<asrwt>0</asrwt>
<pdfrwt beam="1">  1       21 0.80731040E-01 0.12773228E+03</pdfrwt>
<pdfrwt beam="2">  1       -4 0.26661084E-02 0.12773228E+03</pdfrwt>
<totfact> 0.35669692E+04</totfact>
</mgrwt>
</event>
<event>
 6    4  0.6376098E-003  0.1286245E+03  0.7818608E-02  0.1229511E+00
         21   -1    0    0  501  502  0.00000000000E+00  0.00000000000E+00  0.20774529094E+03  0.20774529094E+03  0.00000000000E+00 0. -1.
         -4   -1    0    0    0  501 -0.00000000000E+00 -0.00000000000E+00 -0.48704827262E+02  0.48721382355E+02  0.12700000000E+01 0. -1.
         25    2    1    2    0    0 -0.19139229519E+02 -0.23502294749E+02  0.41619725297E+02  0.13519049811E+03  0.12500240510E+03 0.  0.
    9000005    1    3    3    0    0  0.34594183272E+02 -0.40473251478E+02  0.55740464671E+02  0.77089824252E+02  0.10000000000E+01 0.  0.
    9000005    1    3    3    0    0 -0.53733412792E+02  0.16970956729E+02 -0.14120739374E+02  0.58100673860E+02  0.10000000000E+01 0.  0.
         -4    1    1    2    0  502  0.19139229519E+02  0.23502294749E+02  0.11742073838E+03  0.12127617518E+03  0.12700000000E+01 0.  1.
<mgrwt>
<rscale>  1 0.12862453E+03</rscale>
<asrwt>0</asrwt>
<pdfrwt beam="1">  1       21 0.31960814E-01 0.12862453E+03</pdfrwt>
<pdfrwt beam="2">  1       -4 0.74946225E-02 0.12862453E+03</pdfrwt>
<totfact> 0.46831984E+04</totfact>
</mgrwt>
</event>
<event>
 6    4  0.6376098E-003  0.1267234E+03  0.7818608E-02  0.1232400E+00
          4   -1    0    0  502    0 -0.00000000000E+00  0.00000000000E+00  0.45984473502E+02  0.46002007600E+02  0.12700000000E+01 0. -1.
         21   -1    0    0  501  502  0.00000000000E+00 -0.00000000000E+00 -0.13923248319E+03  0.13923248319E+03  0.00000000000E+00 0.  1.
         25    2    1    2    0    0 -0.20813299324E+02  0.90305326335E+00 -0.48189494411E+02  0.13557674585E+03  0.12499927083E+03 0.  0.
    9000005    1    3    3    0    0 -0.48490480499E+02  0.29086603315E+02 -0.70357596645E+02  0.90269311491E+02  0.10000000000E+01 0.  0.
    9000005    1    3    3    0    0  0.27677181174E+02 -0.28183550051E+02  0.22168102234E+02  0.45307434356E+02  0.10000000000E+01 0.  0.
          4    1    1    2  501    0  0.20813299324E+02 -0.90305326335E+00 -0.45058515281E+02  0.49657744947E+02  0.12700000000E+01 0.  1.
<mgrwt>
<rscale>  1 0.12672343E+03</rscale>
<asrwt>0</asrwt>
<pdfrwt beam="2">  1       21 0.21420382E-01 0.12672343E+03</pdfrwt>
<pdfrwt beam="1">  1        4 0.70763286E-02 0.12672343E+03</pdfrwt>
<totfact> 0.10986504E+05</totfact>
</mgrwt>
</event>
<event>
 6    4  0.6376098E-003  0.1284192E+03  0.7818608E-02  0.1229820E+00
         21   -1    0    0  501  502  0.00000000000E+00  0.00000000000E+00  0.43178418906E+03  0.43178418906E+03  0.00000000000E+00 0.  1.
          4   -1    0    0  502    0 -0.00000000000E+00 -0.00000000000E+00 -0.17820983265E+02  0.17866178789E+02  0.12700000000E+01 0.  1.
         25    2    1    2    0    0 -0.28776140679E+02  0.61893511821E+01  0.23069932667E+03  0.26403345959E+03  0.12500045646E+03 0.  0.
    9000005    1    3    3    0    0  0.36897044687E+02  0.28537302987E+02  0.41236354591E+02  0.62267218570E+02  0.10000000000E+01 0.  0.
    9000005    1    3    3    0    0 -0.65673185366E+02 -0.22347951805E+02  0.18946297208E+03  0.20176624102E+03  0.10000000000E+01 0.  0.
          4    1    1    2  501    0  0.28776140679E+02 -0.61893511821E+01  0.18326387913E+03  0.18561690827E+03  0.12700000000E+01 0. -1.
<mgrwt>
<rscale>  1 0.12841919E+03</rscale>
<asrwt>0</asrwt>
<pdfrwt beam="1">  1       21 0.66428329E-01 0.12841919E+03</pdfrwt>
<pdfrwt beam="2">  1        4 0.27453103E-02 0.12841919E+03</pdfrwt>
<totfact> 0.52344463E+04</totfact>
</mgrwt>
</event>
<event>
 6    4  0.6376098E-003  0.1266057E+03  0.7818608E-02  0.1232581E+00
         21   -1    0    0  501  502  0.00000000000E+00  0.00000000000E+00  0.18839705922E+02  0.18839705922E+02  0.00000000000E+00 0.  1.
         -4   -1    0    0    0  501 -0.00000000000E+00 -0.00000000000E+00 -0.46085769218E+03  0.46085944207E+03  0.12700000000E+01 0.  1.
         25    2    1    2    0    0 -0.90648823666E+01 -0.17949138490E+02 -0.44176515799E+03  0.45954919794E+03  0.12499866740E+03 0.  0.
    9000005    1    3    3    0    0  0.32281023005E+02 -0.46561358757E+02 -0.35307143252E+03  0.35758979436E+03  0.10000000000E+01 0.  0.
    9000005    1    3    3    0    0 -0.41345905371E+02  0.28612220267E+02 -0.88693725472E+02  0.10195940358E+03  0.10000000000E+01 0.  0.
         -4    1    1    2    0  502  0.90648823666E+01  0.17949138490E+02 -0.25282827354E+00  0.20149950049E+02  0.12700000000E+01 0. -1.
<mgrwt>
<rscale>  1 0.12660573E+03</rscale>
<asrwt>0</asrwt>
<pdfrwt beam="1">  1       21 0.28984167E-02 0.12660573E+03</pdfrwt>
<pdfrwt beam="2">  1       -4 0.70904601E-01 0.12660573E+03</pdfrwt>
<totfact> 0.49680251E+04</totfact>
</mgrwt>
</event>
<event>
 6    4  0.6376098E-003  0.1291638E+03  0.7818608E-02  0.1228702E+00
         -4   -1    0    0    0  501 -0.00000000000E+00  0.00000000000E+00  0.32508659255E+02  0.32533457033E+02  0.12700000000E+01 0.  1.
         21   -1    0    0  501  502  0.00000000000E+00 -0.00000000000E+00 -0.22880928245E+03  0.22880928245E+03  0.00000000000E+00 0.  1.
         25    2    1    2    0    0 -0.32325143575E+02 -0.41175720844E+01 -0.11202032253E+03  0.17097321316E+03  0.12498566979E+03 0.  0.
    9000005    1    3    3    0    0 -0.42140557323E+02  0.51382987706E+02 -0.33813526402E+02  0.74568039835E+02  0.10000000000E+01 0.  0.
    9000005    1    3    3    0    0  0.98154137474E+01 -0.55500559790E+02 -0.78206796129E+02  0.96405173330E+02  0.10000000000E+01 0.  0.
         -4    1    1    2    0  502  0.32325143575E+02  0.41175720844E+01 -0.84280300668E+02  0.90369526323E+02  0.12700000000E+01 0. -1.
<mgrwt>
<rscale>  1 0.12916380E+03</rscale>
<asrwt>0</asrwt>
<pdfrwt beam="2">  1       21 0.35201429E-01 0.12916380E+03</pdfrwt>
<pdfrwt beam="1">  1       -4 0.50035107E-02 0.12916380E+03</pdfrwt>
<totfact> 0.74834495E+04</totfact>
</mgrwt>
</event>
<event>
 6    4  0.6376098E-003  0.1467402E+03  0.7818608E-02  0.1204537E+00
          4   -1    0    0  502    0 -0.00000000000E+00  0.00000000000E+00  0.27290553064E+03  0.27290848568E+03  0.12700000000E+01 0. -1.
         21   -1    0    0  501  502  0.00000000000E+00 -0.00000000000E+00 -0.46700855741E+02  0.46700855741E+02  0.00000000000E+00 0.  1.
         25    2    1    2    0    0  0.46013199708E+02 -0.61558480837E+02  0.16885656759E+03  0.22370793672E+03  0.12500415763E+03 0.  0.
    9000005    1    3    3    0    0  0.71785144704E+02 -0.13454898293E+02  0.14843147636E+03  0.16542987778E+03  0.10000000000E+01 0.  0.
    9000005    1    3    3    0    0 -0.25771944997E+02 -0.48103582544E+02  0.20425091229E+02  0.58278058944E+02  0.10000000000E+01 0.  0.
          4    1    1    2  501    0 -0.46013199708E+02  0.61558480837E+02  0.57348107312E+02  0.95901404696E+02  0.12700000000E+01 0.  1.
<mgrwt>
<rscale>  1 0.14674025E+03</rscale>
<asrwt>0</asrwt>
<pdfrwt beam="2">  1       21 0.71847472E-02 0.14674025E+03</pdfrwt>
<pdfrwt beam="1">  1        4 0.41987021E-01 0.14674025E+03</pdfrwt>
<totfact> 0.32676177E+04</totfact>
</mgrwt>
</event>
<event>
 6    4  0.6376098E-003  0.1266321E+03  0.7818608E-02  0.1232540E+00
         21   -1    0    0  501  502  0.00000000000E+00  0.00000000000E+00  0.37423570004E+03  0.37423570004E+03  0.00000000000E+00 0. -1.
         -4   -1    0    0    0  501 -0.00000000000E+00 -0.00000000000E+00 -0.91924691838E+02  0.91933464362E+02  0.12700000000E+01 0.  1.
         25    2    1    2    0    0 -0.12392165342E+02  0.15996911351E+02 -0.47861241134E+02  0.13537497753E+03  0.12500487672E+03 0.  0.
    9000005    1    3    3    0    0 -0.21769836256E+01 -0.82770740557E+01 -0.87418595778E+02  0.87842245533E+02  0.10000000000E+01 0.  0.
    9000005    1    3    3    0    0 -0.10215181716E+02  0.24273985406E+02  0.39557354643E+02  0.47532732000E+02  0.10000000000E+01 0.  0.
         -4    1    1    2    0  502  0.12392165342E+02 -0.15996911351E+02  0.33017224933E+03  0.33079418686E+03  0.12700000000E+01 0. -1.
<mgrwt>
<rscale>  1 0.12663209E+03</rscale>
<asrwt>0</asrwt>
<pdfrwt beam="1">  1       21 0.57574722E-01 0.12663209E+03</pdfrwt>
<pdfrwt beam="2">  1       -4 0.14143101E-01 0.12663209E+03</pdfrwt>
<totfact> 0.48765570E+03</totfact>
</mgrwt>
</event>
<event>
 6    4  0.6376098E-003  0.1276401E+03  0.7818608E-02  0.1231000E+00
         21   -1    0    0  501  502  0.00000000000E+00  0.00000000000E+00  0.39697910902E+01  0.39697910902E+01  0.00000000000E+00 0.  1.
         -4   -1    0    0    0  501 -0.00000000000E+00 -0.00000000000E+00 -0.27043447749E+04  0.27043450731E+04  0.12700000000E+01 0.  1.
         25    2    1    2    0    0  0.21281629611E+01  0.25753547173E+02 -0.26337732272E+04  0.26368643138E+04  0.12499689100E+03 0.  0.
    9000005    1    3    3    0    0  0.59217129285E+02  0.22561450182E+02 -0.94484541006E+03  0.94696860367E+03  0.10000000000E+01 0.  0.
    9000005    1    3    3    0    0 -0.57088966324E+02  0.31920969912E+01 -0.16889278171E+04  0.16898957101E+04  0.10000000000E+01 0.  0.
         -4    1    1    2    0  502 -0.21281629611E+01 -0.25753547173E+02 -0.66601756611E+02  0.71450550406E+02  0.12700000000E+01 0. -1.
<mgrwt>
<rscale>  1 0.12764011E+03</rscale>
<asrwt>0</asrwt>
<pdfrwt beam="1">  1       21 0.61073947E-03 0.12764011E+03</pdfrwt>
<pdfrwt beam="2">  1       -4 0.41606707E+00 0.12764011E+03</pdfrwt>
<totfact> 0.23959602E+03</totfact>
</mgrwt>
</event>
<event>
 6    4  0.6376098E-003  0.1375458E+03  0.7818608E-02  0.1216670E+00
         21   -1    0    0  501  502  0.00000000000E+00  0.00000000000E+00  0.80814219975E+02  0.80814219975E+02  0.00000000000E+00 0.  1.
         -4   -1    0    0    0  501 -0.00000000000E+00 -0.00000000000E+00 -0.16590636673E+03  0.16591122753E+03  0.12700000000E+01 0. -1.
         25    2    1    2    0    0 -0.47643389825E+02 -0.31995530635E+02 -0.11741610139E+03  0.18084633460E+03  0.12500099719E+03 0.  0.
    9000005    1    3    3    0    0 -0.51571041877E+02  0.39180284561E+02 -0.69173878784E+02  0.94766516052E+02  0.10000000000E+01 0.  0.
    9000005    1    3    3    0    0  0.39276520521E+01 -0.71175815195E+02 -0.48242222603E+02  0.86079818547E+02  0.10000000000E+01 0.  0.
         -4    1    1    2    0  502  0.47643389825E+02  0.31995530635E+02  0.32323954633E+02  0.65879112909E+02  0.12700000000E+01 0.  1.
<mgrwt>
<rscale>  1 0.13754583E+03</rscale>
<asrwt>0</asrwt>
<pdfrwt beam="1">  1       21 0.12432957E-01 0.13754583E+03</pdfrwt>
<pdfrwt beam="2">  1       -4 0.25525197E-01 0.13754583E+03</pdfrwt>
<totfact> 0.32282975E+04</totfact>
</mgrwt>
</event>
<event>
 6    4  0.6376098E-003  0.1300993E+03  0.7818608E-02  0.1227308E+00
         21   -1    0    0  501  502  0.00000000000E+00  0.00000000000E+00  0.19290232342E+03  0.19290232342E+03  0.00000000000E+00 0. -1.
         -4   -1    0    0    0  501 -0.00000000000E+00 -0.00000000000E+00 -0.44666633826E+02  0.44684685042E+02  0.12700000000E+01 0.  1.
         25    2    1    2    0    0 -0.24269076837E+02 -0.26656644144E+02  0.62013063183E+02  0.14412301019E+03  0.12500502907E+03 0.  0.
    9000005    1    3    3    0    0  0.19822292318E+02 -0.56316057980E+02  0.68165565797E+02  0.90619898586E+02  0.10000000000E+01 0.  0.
    9000005    1    3    3    0    0 -0.44091369155E+02  0.29659413837E+02 -0.61525026144E+01  0.53503111605E+02  0.10000000000E+01 0.  0.
         -4    1    1    2    0  502  0.24269076837E+02  0.26656644144E+02  0.86222626410E+02  0.93463998270E+02  0.12700000000E+01 0. -1.
<mgrwt>
<rscale>  1 0.13009928E+03</rscale>
<asrwt>0</asrwt>
<pdfrwt beam="1">  1       21 0.29677280E-01 0.13009928E+03</pdfrwt>
<pdfrwt beam="2">  1       -4 0.68735001E-02 0.13009928E+03</pdfrwt>
<totfact> 0.62393815E+04</totfact>
</mgrwt>
</event>
<event>
 6    4  0.6376098E-003  0.1266220E+03  0.7818608E-02  0.1232556E+00
         21   -1    0    0  501  502  0.00000000000E+00  0.00000000000E+00  0.12122985491E+03  0.12122985491E+03  0.00000000000E+00 0. -1.
          4   -1    0    0  502    0 -0.00000000000E+00 -0.00000000000E+00 -0.89586031125E+02  0.89595032634E+02  0.12700000000E+01 0.  1.
         25    2    1    2    0    0 -0.97944387946E+01 -0.17672808608E+02 -0.42813483967E+02  0.13366425786E+03  0.12499952090E+03 0.  0.
    9000005    1    3    3    0    0  0.33359913344E+02  0.23245597662E+02 -0.59332931920E+02  0.71934959785E+02  0.10000000000E+01 0.  0.
    9000005    1    3    3    0    0 -0.43154352139E+02 -0.40918406271E+02  0.16519447953E+02  0.61729298076E+02  0.10000000000E+01 0.  0.
          4    1    1    2  501    0  0.97944387946E+01  0.17672808608E+02  0.74457307754E+02  0.77160629685E+02  0.12700000000E+01 0. -1.
<mgrwt>
<rscale>  1 0.12662203E+03</rscale>
<asrwt>0</asrwt>
<pdfrwt beam="1">  1       21 0.18650747E-01 0.12662203E+03</pdfrwt>
<pdfrwt beam="2">  1        4 0.13783670E-01 0.12662203E+03</pdfrwt>
<totfact> 0.46225255E+04</totfact>
</mgrwt>
</event>
<event>
 6    4  0.6376098E-003  0.1277571E+03  0.7818608E-02  0.1230822E+00
         -4   -1    0    0    0  501 -0.00000000000E+00  0.00000000000E+00  0.26588267625E+02  0.26618581391E+02  0.12700000000E+01 0.  1.
         21   -1    0    0  501  502  0.00000000000E+00 -0.00000000000E+00 -0.23809383171E+03  0.23809383171E+03  0.00000000000E+00 0.  1.
         25    2    1    2    0    0 -0.10196999216E+02 -0.24373103597E+02 -0.14563956896E+03  0.19373376007E+03  0.12499543501E+03 0.  0.
    9000005    1    3    3    0    0  0.35657106105E+02 -0.54653930830E+02 -0.11101133126E+03  0.12877498608E+03  0.10000000000E+01 0.  0.
    9000005    1    3    3    0    0 -0.45854105320E+02  0.30280827233E+02 -0.34628237695E+02  0.64958773991E+02  0.10000000000E+01 0.  0.
         -4    1    1    2    0  502  0.10196999216E+02  0.24373103597E+02 -0.65865995124E+02  0.70978653027E+02  0.12700000000E+01 0. -1.
<mgrwt>
<rscale>  1 0.12775714E+03</rscale>
<asrwt>0</asrwt>
<pdfrwt beam="2">  1       21 0.36629822E-01 0.12775714E+03</pdfrwt>
<pdfrwt beam="1">  1       -4 0.40930949E-02 0.12775714E+03</pdfrwt>
<totfact> 0.95227269E+04</totfact>
</mgrwt>
</event>
<event>
 6    4  0.6376098E-003  0.1279542E+03  0.7818608E-02  0.1230523E+00
         21   -1    0    0  501  502  0.00000000000E+00  0.00000000000E+00  0.58746538021E+02  0.58746538021E+02  0.00000000000E+00 0. -1.
         -4   -1    0    0    0  501 -0.00000000000E+00 -0.00000000000E+00 -0.10428707955E+03  0.10429481224E+03  0.12700000000E+01 0. -1.
         25    2    1    2    0    0  0.60036542295E+01 -0.26667909752E+02 -0.45109983530E+02  0.13567312864E+03  0.12500026379E+03 0.  0.
    9000005    1    3    3    0    0  0.74667113103E+01 -0.75450884997E+02 -0.42184243746E+02  0.86770376541E+02  0.10000000000E+01 0.  0.
    9000005    1    3    3    0    0 -0.14630570808E+01  0.48782975245E+02 -0.29257397842E+01  0.48902752101E+02  0.10000000000E+01 0.  0.
         -4    1    1    2    0  502 -0.60036542295E+01  0.26667909752E+02 -0.43055799926E+00  0.27368221624E+02  0.12700000000E+01 0.  1.
<mgrwt>
<rscale>  1 0.12795424E+03</rscale>
<asrwt>0</asrwt>
<pdfrwt beam="1">  1       21 0.90379289E-02 0.12795424E+03</pdfrwt>
<pdfrwt beam="2">  1       -4 0.16045817E-01 0.12795424E+03</pdfrwt>
<totfact> 0.12928742E+05</totfact>
</mgrwt>
</event>
<event>
 6    4  0.6376098E-003  0.1291114E+03  0.7818608E-02  0.1228780E+00
         -4   -1    0    0    0  501 -0.00000000000E+00  0.00000000000E+00  0.27328033174E+02  0.27357527249E+02  0.12700000000E+01 0. -1.
         21   -1    0    0  501  502  0.00000000000E+00 -0.00000000000E+00 -0.29927858191E+03  0.29927858191E+03  0.00000000000E+00 0.  1.
         25    2    1    2    0    0 -0.30513130287E+02  0.10645886715E+02 -0.13859922305E+03  0.18941885447E+03  0.12500148708E+03 0.  0.
    9000005    1    3    3    0    0 -0.35937757399E+02  0.64358509990E+02 -0.93503238512E+02  0.11906887010E+03  0.10000000000E+01 0.  0.
    9000005    1    3    3    0    0  0.54246271122E+01 -0.53712623275E+02 -0.45095984539E+02  0.70349984364E+02  0.10000000000E+01 0.  0.
         -4    1    1    2    0  502  0.30513130287E+02 -0.10645886715E+02 -0.13335132568E+03  0.13721725469E+03  0.12700000000E+01 0.  1.
<mgrwt>
<rscale>  1 0.12911142E+03</rscale>
<asrwt>0</asrwt>
<pdfrwt beam="2">  1       21 0.46042861E-01 0.12911142E+03</pdfrwt>
<pdfrwt beam="1">  1       -4 0.42067886E-02 0.12911142E+03</pdfrwt>
<totfact> 0.57694381E+04</totfact>
</mgrwt>
</event>
<event>
 6    4  0.6376098E-003  0.1298350E+03  0.7818608E-02  0.1227701E+00
         -4   -1    0    0    0  501 -0.00000000000E+00  0.00000000000E+00  0.14021255071E+03  0.14021830222E+03  0.12700000000E+01 0. -1.
         21   -1    0    0  501  502  0.00000000000E+00 -0.00000000000E+00 -0.50883890375E+02  0.50883890375E+02  0.00000000000E+00 0. -1.
         25    2    1    2    0    0 -0.33315447985E+02 -0.11064782281E+02  0.86179798662E+02  0.15583355622E+03  0.12499916426E+03 0.  0.
    9000005    1    3    3    0    0 -0.44592928484E+02 -0.49864437390E+02  0.93285201158E+02  0.11479599358E+03  0.10000000000E+01 0.  0.
    9000005    1    3    3    0    0  0.11277480499E+02  0.38799655110E+02 -0.71054024965E+01  0.41037562643E+02  0.10000000000E+01 0.  0.
         -4    1    1    2    0  502  0.33315447985E+02  0.11064782281E+02  0.31488616725E+01  0.35268636367E+02  0.12700000000E+01 0.  1.
<mgrwt>
<rscale>  1 0.12983505E+03</rscale>
<asrwt>0</asrwt>
<pdfrwt beam="2">  1       21 0.78282909E-02 0.12983505E+03</pdfrwt>
<pdfrwt beam="1">  1       -4 0.21572823E-01 0.12983505E+03</pdfrwt>
<totfact> 0.97991589E+04</totfact>
</mgrwt>
</event>
<event>
 6    4  0.6376098E-003  0.1266779E+03  0.7818608E-02  0.1232470E+00
          4   -1    0    0  502    0 -0.00000000000E+00  0.00000000000E+00  0.43102072466E+02  0.43120778644E+02  0.12700000000E+01 0. -1.
         21   -1    0    0  501  502  0.00000000000E+00 -0.00000000000E+00 -0.14486284034E+03  0.14486284034E+03  0.00000000000E+00 0. -1.
         25    2    1    2    0    0 -0.19041242884E+02  0.78101561612E+01 -0.57422179791E+02  0.13908483819E+03  0.12499487195E+03 0.  0.
    9000005    1    3    3    0    0 -0.16116661720E+02 -0.55966068695E+02 -0.89793570359E+01  0.58937055262E+02  0.10000000000E+01 0.  0.
    9000005    1    3    3    0    0 -0.29245811631E+01  0.63776224856E+02 -0.48442822755E+02  0.80147782929E+02  0.10000000000E+01 0.  0.
          4    1    1    2  501    0  0.19041242884E+02 -0.78101561612E+01 -0.44338588086E+02  0.48898780795E+02  0.12700000000E+01 0.  1.
<mgrwt>
<rscale>  1 0.12667788E+03</rscale>
<asrwt>0</asrwt>
<pdfrwt beam="2">  1       21 0.22286591E-01 0.12667788E+03</pdfrwt>
<pdfrwt beam="1">  1        4 0.66329552E-02 0.12667788E+03</pdfrwt>
<totfact> 0.11343583E+05</totfact>
</mgrwt>
</event>
<event>
 6    4  0.6376098E-003  0.1359339E+03  0.7818608E-02  0.1218907E+00
         21   -1    0    0  501  502  0.00000000000E+00  0.00000000000E+00  0.77499844675E+03  0.77499844675E+03  0.00000000000E+00 0.  1.
          4   -1    0    0  502    0 -0.00000000000E+00 -0.00000000000E+00 -0.83255889360E+02  0.83265575199E+02  0.12700000000E+01 0. -1.
         25    2    1    2    0    0 -0.20310713579E+02  0.49407334787E+02 -0.26115635273E+02  0.13841986695E+03  0.12499769335E+03 0.  0.
    9000005    1    3    3    0    0  0.35038109822E+02  0.27682977096E+02 -0.56189986928E+02  0.71779739424E+02  0.10000000000E+01 0.  0.
    9000005    1    3    3    0    0 -0.55348823401E+02  0.21724357691E+02  0.30074351655E+02  0.66640127525E+02  0.10000000000E+01 0.  0.
          4    1    1    2  501    0  0.20310713579E+02 -0.49407334787E+02  0.71785819266E+03  0.71984415500E+03  0.12700000000E+01 0.  1.
<mgrwt>
<rscale>  1 0.13593393E+03</rscale>
<asrwt>0</asrwt>
<pdfrwt beam="1">  1       21 0.11923053E+00 0.13593393E+03</pdfrwt>
<pdfrwt beam="2">  1        4 0.12809424E-01 0.13593393E+03</pdfrwt>
<totfact> 0.11206436E+03</totfact>
</mgrwt>
</event>
<event>
 6    4  0.6376098E-003  0.1339361E+03  0.7818608E-02  0.1221729E+00
         21   -1    0    0  501  502  0.00000000000E+00  0.00000000000E+00  0.57085644025E+02  0.57085644025E+02  0.00000000000E+00 0. -1.
          4   -1    0    0  502    0 -0.00000000000E+00 -0.00000000000E+00 -0.22367257990E+03  0.22367618537E+03  0.12700000000E+01 0.  1.
         25    2    1    2    0    0 -0.45811226187E+02  0.14663484528E+02 -0.18572181299E+03  0.22897918128E+03  0.12500074966E+03 0.  0.
    9000005    1    3    3    0    0 -0.24686378943E+02 -0.71021018307E+00 -0.19839149761E+03  0.19992525610E+03  0.10000000000E+01 0.  0.
    9000005    1    3    3    0    0 -0.21124847244E+02  0.15373694711E+02  0.12669684614E+02  0.29053925180E+02  0.10000000000E+01 0.  0.
          4    1    1    2  501    0  0.45811226187E+02 -0.14663484528E+02  0.19134877116E+02  0.51782648112E+02  0.12700000000E+01 0. -1.
<mgrwt>
<rscale>  1 0.13393608E+03</rscale>
<asrwt>0</asrwt>
<pdfrwt beam="1">  1       21 0.87824069E-02 0.13393608E+03</pdfrwt>
<pdfrwt beam="2">  1        4 0.34412530E-01 0.13393608E+03</pdfrwt>
<totfact> 0.33735013E+04</totfact>
</mgrwt>
</event>
<event>
 6    4  0.6376098E-003  0.1270261E+03  0.7818608E-02  0.1231936E+00
         21   -1    0    0  501  502  0.00000000000E+00  0.00000000000E+00  0.16414003521E+02  0.16414003521E+02  0.00000000000E+00 0.  1.
         -4   -1    0    0    0  501 -0.00000000000E+00 -0.00000000000E+00 -0.35793816983E+03  0.35794042286E+03  0.12700000000E+01 0.  1.
         25    2    1    2    0    0  0.13851119991E+01  0.22562535591E+02 -0.25458601822E+03  0.28451656665E+03  0.12499859792E+03 0.  0.
    9000005    1    3    3    0    0  0.35835347616E+02 -0.18129859299E+02 -0.21336988617E+03  0.21711879757E+03  0.10000000000E+01 0.  0.
    9000005    1    3    3    0    0 -0.34450235617E+02  0.40692394890E+02 -0.41216132050E+02  0.67397769081E+02  0.10000000000E+01 0.  0.
         -4    1    1    2    0  502 -0.13851119991E+01 -0.22562535591E+02 -0.86938148090E+02  0.89837859730E+02  0.12700000000E+01 0. -1.
<mgrwt>
<rscale>  1 0.12702612E+03</rscale>
<asrwt>0</asrwt>
<pdfrwt beam="1">  1       21 0.25252314E-02 0.12702612E+03</pdfrwt>
<pdfrwt beam="2">  1       -4 0.55071362E-01 0.12702612E+03</pdfrwt>
<totfact> 0.10613944E+05</totfact>
</mgrwt>
</event>
<event>
 6    4  0.6376098E-003  0.1324863E+03  0.7818608E-02  0.1223812E+00
         21   -1    0    0  501  502  0.00000000000E+00  0.00000000000E+00  0.32806782482E+02  0.32806782482E+02  0.00000000000E+00 0. -1.
          4   -1    0    0  502    0 -0.00000000000E+00 -0.00000000000E+00 -0.27471631900E+03  0.27471925456E+03  0.12700000000E+01 0.  1.
         25    2    1    2    0    0  0.42321117057E+01 -0.43696409840E+02 -0.22368408222E+03  0.25997535790E+03  0.12500132429E+03 0.  0.
    9000005    1    3    3    0    0 -0.47395648101E+02 -0.42540816039E+02 -0.18437738572E+03  0.19506944623E+03  0.10000000000E+01 0.  0.
    9000005    1    3    3    0    0  0.51627759807E+02 -0.11555938006E+01 -0.39306696497E+02  0.64905911666E+02  0.10000000000E+01 0.  0.
          4    1    1    2  501    0 -0.42321117057E+01  0.43696409840E+02 -0.18225454300E+02  0.47550679141E+02  0.12700000000E+01 0. -1.
<mgrwt>
<rscale>  1 0.13248629E+03</rscale>
<asrwt>0</asrwt>
<pdfrwt beam="1">  1       21 0.50471972E-02 0.13248629E+03</pdfrwt>
<pdfrwt beam="2">  1        4 0.42266167E-01 0.13248629E+03</pdfrwt>
<totfact> 0.58060465E+04</totfact>
</mgrwt>
</event>
<event>
 6    4  0.6376098E-003  0.1349487E+03  0.7818608E-02  0.1220292E+00
         -4   -1    0    0    0  501 -0.00000000000E+00  0.00000000000E+00  0.13618944747E+04  0.13618950668E+04  0.12700000000E+01 0.  1.
         21   -1    0    0  501  502  0.00000000000E+00 -0.00000000000E+00 -0.33175837879E+02  0.33175837879E+02  0.00000000000E+00 0. -1.
         25    2    1    2    0    0  0.37070784275E+02 -0.34813929507E+02  0.13367719722E+04  0.13435663239E+04  0.12499963311E+03 0.  0.
    9000005    1    3    3    0    0  0.25952000554E+02  0.14165770088E+02  0.72591931195E+02  0.78388544122E+02  0.10000000000E+01 0.  0.
    9000005    1    3    3    0    0  0.11118783721E+02 -0.48979699596E+02  0.12641800410E+04  0.12651777798E+04  0.10000000000E+01 0.  0.
         -4    1    1    2    0  502 -0.37070784275E+02  0.34813929507E+02 -0.80533354055E+01  0.51504580822E+02  0.12700000000E+01 0. -1.
<mgrwt>
<rscale>  1 0.13494873E+03</rscale>
<asrwt>0</asrwt>
<pdfrwt beam="2">  1       21 0.51039761E-02 0.13494873E+03</pdfrwt>
<pdfrwt beam="1">  1       -4 0.20952410E+00 0.13494873E+03</pdfrwt>
<totfact> 0.13744807E+03</totfact>
</mgrwt>
</event>
<event>
 6    4  0.6376098E-003  0.1272237E+03  0.7818608E-02  0.1231634E+00
         -4   -1    0    0    0  501 -0.00000000000E+00  0.00000000000E+00  0.12344659509E+03  0.12345312770E+03  0.12700000000E+01 0.  1.
         21   -1    0    0  501  502  0.00000000000E+00 -0.00000000000E+00 -0.10977418200E+03  0.10977418200E+03  0.00000000000E+00 0. -1.
         25    2    1    2    0    0  0.13539325947E+02  0.19456267728E+02  0.88333986315E+02  0.15488304943E+03  0.12499602459E+03 0.  0.
    9000005    1    3    3    0    0  0.35777395293E+02  0.28491254174E+02 -0.15503594011E+02  0.48302536223E+02  0.10000000000E+01 0.  0.
    9000005    1    3    3    0    0 -0.22238069346E+02 -0.90349864457E+01  0.10383758033E+03  0.10658051321E+03  0.10000000000E+01 0.  0.
         -4    1    1    2    0  502 -0.13539325947E+02 -0.19456267728E+02 -0.74661573226E+02  0.78344260272E+02  0.12700000000E+01 0. -1.
<mgrwt>
<rscale>  1 0.12722368E+03</rscale>
<asrwt>0</asrwt>
<pdfrwt beam="2">  1       21 0.16888336E-01 0.12722368E+03</pdfrwt>
<pdfrwt beam="1">  1       -4 0.18992851E-01 0.12722368E+03</pdfrwt>
<totfact> 0.31571053E+04</totfact>
</mgrwt>
</event>
<event>
 6    4  0.6376098E-003  0.1360249E+03  0.7818608E-02  0.1218780E+00
          4   -1    0    0  502    0 -0.00000000000E+00  0.00000000000E+00  0.41364487698E+02  0.41383979298E+02  0.12700000000E+01 0. -1.
         21   -1    0    0  501  502  0.00000000000E+00 -0.00000000000E+00 -0.21746020976E+03  0.21746020976E+03  0.00000000000E+00 0. -1.
         25    2    1    2    0    0 -0.43469169729E+02  0.31434621295E+02 -0.12826447573E+03  0.18696133186E+03  0.12500023898E+03 0.  0.
    9000005    1    3    3    0    0 -0.33746823867E+02  0.77154706093E+02 -0.56872211922E+02  0.10162256286E+03  0.10000000000E+01 0.  0.
    9000005    1    3    3    0    0 -0.97223458619E+01 -0.45720084797E+02 -0.71392263810E+02  0.85338769003E+02  0.10000000000E+01 0.  0.
          4    1    1    2  501    0  0.43469169729E+02 -0.31434621295E+02 -0.47831246325E+02  0.71882857191E+02  0.12700000000E+01 0.  1.
<mgrwt>
<rscale>  1 0.13602486E+03</rscale>
<asrwt>0</asrwt>
<pdfrwt beam="2">  1       21 0.33455417E-01 0.13602486E+03</pdfrwt>
<pdfrwt beam="1">  1        4 0.63655520E-02 0.13602486E+03</pdfrwt>
<totfact> 0.56345535E+04</totfact>
</mgrwt>
</event>
<event>
 6    4  0.6376098E-003  0.1299831E+03  0.7818608E-02  0.1227481E+00
          4   -1    0    0  502    0 -0.00000000000E+00  0.00000000000E+00  0.12779500164E+03  0.12780131198E+03  0.12700000000E+01 0.  1.
         21   -1    0    0  501  502  0.00000000000E+00 -0.00000000000E+00 -0.56497871050E+02  0.56497871050E+02  0.00000000000E+00 0. -1.
         25    2    1    2    0    0 -0.28306102345E+02 -0.21653765481E+02  0.37787787130E+02  0.13536443067E+03  0.12500196496E+03 0.  0.
    9000005    1    3    3    0    0 -0.30455366083E+02 -0.69754473029E+02  0.42145862173E+02  0.87008560091E+02  0.10000000000E+01 0.  0.
    9000005    1    3    3    0    0  0.21492637383E+01  0.48100707549E+02 -0.43580750428E+01  0.48355870578E+02  0.10000000000E+01 0.  0.
          4    1    1    2  501    0  0.28306102345E+02  0.21653765481E+02  0.33509343456E+02  0.48934752358E+02  0.12700000000E+01 0. -1.
<mgrwt>
<rscale>  1 0.12998312E+03</rscale>
<asrwt>0</asrwt>
<pdfrwt beam="2">  1       21 0.86919802E-02 0.12998312E+03</pdfrwt>
<pdfrwt beam="1">  1        4 0.19662353E-01 0.12998312E+03</pdfrwt>
<totfact> 0.96685035E+04</totfact>
</mgrwt>
</event>
<event>
 6    4  0.6376098E-003  0.1270359E+03  0.7818608E-02  0.1231921E+00
         21   -1    0    0  501  502  0.00000000000E+00  0.00000000000E+00  0.32278425978E+03  0.32278425978E+03  0.00000000000E+00 0. -1.
         -4   -1    0    0    0  501 -0.00000000000E+00 -0.00000000000E+00 -0.20723150704E+02  0.20762029648E+02  0.12700000000E+01 0. -1.
         25    2    1    2    0    0  0.20465488787E+02 -0.92784726926E+01  0.18548373350E+03  0.22481624401E+03  0.12503280327E+03 0.  0.
    9000005    1    3    3    0    0 -0.49699106450E+02 -0.14208304447E+02  0.11052704347E+03  0.12202091803E+03  0.10000000000E+01 0.  0.
    9000005    1    3    3    0    0  0.70164595237E+02  0.49298317543E+01  0.74956690024E+02  0.10279532599E+03  0.10000000000E+01 0.  0.
         -4    1    1    2    0  502 -0.20465488787E+02  0.92784726926E+01  0.11657737558E+03  0.11873004541E+03  0.12700000000E+01 0.  1.
<mgrwt>
<rscale>  1 0.12703593E+03</rscale>
<asrwt>0</asrwt>
<pdfrwt beam="1">  1       21 0.49659113E-01 0.12703593E+03</pdfrwt>
<pdfrwt beam="2">  1       -4 0.31913601E-02 0.12703593E+03</pdfrwt>
<totfact> 0.76297876E+04</totfact>
</mgrwt>
</event>
<event>
 6    4  0.6376098E-003  0.1294689E+03  0.7818608E-02  0.1228246E+00
         21   -1    0    0  501  502  0.00000000000E+00  0.00000000000E+00  0.47937703832E+03  0.47937703832E+03  0.00000000000E+00 0.  1.
          4   -1    0    0  502    0 -0.00000000000E+00 -0.00000000000E+00 -0.57855216929E+02  0.57869154356E+02  0.12700000000E+01 0. -1.
         25    2    1    2    0    0 -0.32077902341E+02 -0.10387580584E+02  0.16149767100E+02  0.13047228871E+03  0.12500123797E+03 0.  0.
    9000005    1    3    3    0    0  0.43324569966E+01 -0.47905449414E+02 -0.33293224673E+02  0.58507615541E+02  0.10000000000E+01 0.  0.
    9000005    1    3    3    0    0 -0.36410359337E+02  0.37517868830E+02  0.49442991773E+02  0.71964673167E+02  0.10000000000E+01 0.  0.
          4    1    1    2  501    0  0.32077902341E+02  0.10387580584E+02  0.40537205429E+03  0.40677390397E+03  0.12700000000E+01 0.  1.
<mgrwt>
<rscale>  1 0.12946893E+03</rscale>
<asrwt>0</asrwt>
<pdfrwt beam="1">  1       21 0.73750311E-01 0.12946893E+03</pdfrwt>
<pdfrwt beam="2">  1        4 0.89020044E-02 0.12946893E+03</pdfrwt>
<totfact> 0.62922044E+03</totfact>
</mgrwt>
</event>
<event>
 6    4  0.6376098E-003  0.1275637E+03  0.7818608E-02  0.1231116E+00
         21   -1    0    0  501  502  0.00000000000E+00  0.00000000000E+00  0.18335255056E+02  0.18335255056E+02  0.00000000000E+00 0. -1.
          4   -1    0    0  502    0 -0.00000000000E+00 -0.00000000000E+00 -0.69111920653E+03  0.69112037340E+03  0.12700000000E+01 0.  1.
         25    2    1    2    0    0  0.21894004477E+02  0.12973193870E+02 -0.67196062024E+03  0.68396166907E+03  0.12499935365E+03 0.  0.
    9000005    1    3    3    0    0 -0.18092437683E+02 -0.49876106587E+02 -0.27979799080E+03  0.28478567023E+03  0.10000000000E+01 0.  0.
    9000005    1    3    3    0    0  0.39986442160E+02  0.62849300458E+02 -0.39216262943E+03  0.39917599884E+03  0.10000000000E+01 0.  0.
          4    1    1    2  501    0 -0.21894004477E+02 -0.12973193870E+02 -0.82333123777E+00  0.25493959393E+02  0.12700000000E+01 0. -1.
<mgrwt>
<rscale>  1 0.12756367E+03</rscale>
<asrwt>0</asrwt>
<pdfrwt beam="1">  1       21 0.28208084E-02 0.12756367E+03</pdfrwt>
<pdfrwt beam="2">  1        4 0.10632951E+00 0.12756367E+03</pdfrwt>
<totfact> 0.20936528E+04</totfact>
</mgrwt>
</event>
<event>
 6    4  0.6376098E-003  0.1419190E+03  0.7818608E-02  0.1210770E+00
         21   -1    0    0  501  502  0.00000000000E+00  0.00000000000E+00  0.31080893201E+03  0.31080893201E+03  0.00000000000E+00 0.  1.
         -4   -1    0    0    0  501 -0.00000000000E+00 -0.00000000000E+00 -0.38680718873E+02  0.38701562145E+02  0.12700000000E+01 0. -1.
         25    2    1    2    0    0  0.64085190528E+02  0.20141497986E+02  0.13069871736E+03  0.19293301569E+03  0.12501360821E+03 0.  0.
    9000005    1    3    3    0    0  0.33313482354E+02 -0.14023167529E+02 -0.15744729397E+02  0.39437721003E+02  0.10000000000E+01 0.  0.
    9000005    1    3    3    0    0  0.30771708174E+02  0.34164665515E+02  0.14644344675E+03  0.15349529468E+03  0.10000000000E+01 0.  0.
         -4    1    1    2    0  502 -0.64085190528E+02 -0.20141497986E+02  0.14142949579E+03  0.15657747847E+03  0.12700000000E+01 0.  1.
<mgrwt>
<rscale>  1 0.14191897E+03</rscale>
<asrwt>0</asrwt>
<pdfrwt beam="1">  1       21 0.47816757E-01 0.14191897E+03</pdfrwt>
<pdfrwt beam="2">  1       -4 0.59526829E-02 0.14191897E+03</pdfrwt>
<totfact> 0.30858071E+04</totfact>
</mgrwt>
</event>
<event>
 6    4  0.6376098E-003  0.1275477E+03  0.7818608E-02  0.1231140E+00
         21   -1    0    0  501  502  0.00000000000E+00  0.00000000000E+00  0.92401541258E+02  0.92401541258E+02  0.00000000000E+00 0. -1.
         -4   -1    0    0    0  501 -0.00000000000E+00 -0.00000000000E+00 -0.76762955626E+02  0.76773460626E+02  0.12700000000E+01 0.  1.
         25    2    1    2    0    0 -0.18182828761E+02 -0.17667665155E+02 -0.16071172106E+02  0.12855624649E+03  0.12500265711E+03 0.  0.
    9000005    1    3    3    0    0  0.64209495091E+01  0.32683142446E+02 -0.52158214800E+02  0.61894230457E+02  0.10000000000E+01 0.  0.
    9000005    1    3    3    0    0 -0.24603778270E+02 -0.50350807602E+02  0.36087042694E+02  0.66662016034E+02  0.10000000000E+01 0.  0.
         -4    1    1    2    0  502  0.18182828761E+02  0.17667665155E+02  0.31709757738E+02  0.40618755392E+02  0.12700000000E+01 0. -1.
<mgrwt>
<rscale>  1 0.12754774E+03</rscale>
<asrwt>0</asrwt>
<pdfrwt beam="1">  1       21 0.14215622E-01 0.12754774E+03</pdfrwt>
<pdfrwt beam="2">  1       -4 0.11811165E-01 0.12754774E+03</pdfrwt>
<totfact> 0.98732438E+04</totfact>
</mgrwt>
</event>
<event>
 6    4  0.6376098E-003  0.1298321E+03  0.7818608E-02  0.1227705E+00
         21   -1    0    0  501  502  0.00000000000E+00  0.00000000000E+00  0.13305226327E+03  0.13305226327E+03  0.00000000000E+00 0. -1.
         -4   -1    0    0    0  501 -0.00000000000E+00 -0.00000000000E+00 -0.37225641898E+03  0.37225858535E+03  0.12700000000E+01 0.  1.
         25    2    1    2    0    0 -0.30794966615E+02 -0.16834977535E+02 -0.35832498955E+03  0.38112094406E+03  0.12499851770E+03 0.  0.
    9000005    1    3    3    0    0 -0.22111781229E+02  0.53690824511E+02 -0.18088589463E+03  0.18997984730E+03  0.10000000000E+01 0.  0.
    9000005    1    3    3    0    0 -0.86831853855E+01 -0.70525802046E+02 -0.17743909493E+03  0.19114109676E+03  0.10000000000E+01 0.  0.
         -4    1    1    2    0  502  0.30794966615E+02  0.16834977535E+02  0.11912083385E+03  0.12418990456E+03  0.12700000000E+01 0. -1.
<mgrwt>
<rscale>  1 0.12983211E+03</rscale>
<asrwt>0</asrwt>
<pdfrwt beam="1">  1       21 0.20469579E-01 0.12983211E+03</pdfrwt>
<pdfrwt beam="2">  1       -4 0.57270851E-01 0.12983211E+03</pdfrwt>
<totfact> 0.26714489E+03</totfact>
</mgrwt>
</event>
<event>
 6    4  0.6376098E-003  0.1311679E+03  0.7818608E-02  0.1225733E+00
         21   -1    0    0  501  502  0.00000000000E+00  0.00000000000E+00  0.33682680906E+03  0.33682680906E+03  0.00000000000E+00 0.  1.
         -4   -1    0    0    0  501 -0.00000000000E+00 -0.00000000000E+00 -0.90399523116E+02  0.90408443630E+02  0.12700000000E+01 0. -1.
         25    2    1    2    0    0 -0.27475935341E+02  0.28690606985E+02 -0.40725642725E+02  0.13734476424E+03  0.12500771311E+03 0.  0.
    9000005    1    3    3    0    0 -0.39803339311E+02  0.46318128145E+02 -0.75087852279E+02  0.96792873576E+02  0.10000000000E+01 0.  0.
    9000005    1    3    3    0    0  0.12327403970E+02 -0.17627521160E+02  0.34362209554E+02  0.40551890663E+02  0.10000000000E+01 0.  0.
         -4    1    1    2    0  502  0.27475935341E+02 -0.28690606985E+02  0.28715292867E+03  0.28989048845E+03  0.12700000000E+01 0.  1.
<mgrwt>
<rscale>  1 0.13116786E+03</rscale>
<asrwt>0</asrwt>
<pdfrwt beam="1">  1       21 0.51819509E-01 0.13116786E+03</pdfrwt>
<pdfrwt beam="2">  1       -4 0.13908489E-01 0.13116786E+03</pdfrwt>
<totfact> 0.62704821E+03</totfact>
</mgrwt>
</event>
<event>
 6    4  0.6376098E-003  0.1349480E+03  0.7818608E-02  0.1220293E+00
          4   -1    0    0  502    0 -0.00000000000E+00  0.00000000000E+00  0.41245062227E+02  0.41264610238E+02  0.12700000000E+01 0.  1.
         21   -1    0    0  501  502  0.00000000000E+00 -0.00000000000E+00 -0.28293620874E+03  0.28293620874E+03  0.00000000000E+00 0. -1.
         25    2    1    2    0    0  0.44198867493E+02  0.25140865534E+02 -0.85061956903E+02  0.15951955427E+03  0.12500139469E+03 0.  0.
    9000005    1    3    3    0    0 -0.88059705705E+01 -0.20106872695E+02 -0.87062326311E+02  0.89792427910E+02  0.10000000000E+01 0.  0.
    9000005    1    3    3    0    0  0.53004838063E+02  0.45247738229E+02  0.20003694075E+01  0.69727126363E+02  0.10000000000E+01 0.  0.
          4    1    1    2  501    0 -0.44198867493E+02 -0.25140865534E+02 -0.15662918961E+03  0.16468126471E+03  0.12700000000E+01 0. -1.
<mgrwt>
<rscale>  1 0.13494796E+03</rscale>
<asrwt>0</asrwt>
<pdfrwt beam="2">  1       21 0.43528647E-01 0.13494796E+03</pdfrwt>
<pdfrwt beam="1">  1        4 0.63471171E-02 0.13494796E+03</pdfrwt>
<totfact> 0.33506634E+04</totfact>
</mgrwt>
</event>
<event>
 6    4  0.6376098E-003  0.1271292E+03  0.7818608E-02  0.1231779E+00
          4   -1    0    0  502    0 -0.00000000000E+00  0.00000000000E+00  0.50650717481E+02  0.50666636767E+02  0.12700000000E+01 0.  1.
         21   -1    0    0  501  502  0.00000000000E+00 -0.00000000000E+00 -0.11153015545E+03  0.11153015545E+03  0.00000000000E+00 0.  1.
         25    2    1    2    0    0  0.21566955453E+01 -0.23055346223E+02 -0.50578042405E+02  0.13682097744E+03  0.12500256465E+03 0.  0.
    9000005    1    3    3    0    0  0.43478237987E+02  0.32953578401E+02 -0.36927417291E+02  0.65885731806E+02  0.10000000000E+01 0.  0.
    9000005    1    3    3    0    0 -0.41321542441E+02 -0.56008924623E+02 -0.13650625114E+02  0.70935245634E+02  0.10000000000E+01 0.  0.
          4    1    1    2  501    0 -0.21566955453E+01  0.23055346223E+02 -0.10301395568E+02  0.25375814780E+02  0.12700000000E+01 0. -1.
<mgrwt>
<rscale>  1 0.12712923E+03</rscale>
<asrwt>0</asrwt>
<pdfrwt beam="2">  1       21 0.17158486E-01 0.12712923E+03</pdfrwt>
<pdfrwt beam="1">  1        4 0.77941988E-02 0.12712923E+03</pdfrwt>
<totfact> 0.14104317E+05</totfact>
</mgrwt>
</event>
<event>
 6    4  0.6376098E-003  0.1326005E+03  0.7818608E-02  0.1223647E+00
          4   -1    0    0  502    0 -0.00000000000E+00  0.00000000000E+00  0.56335605897E+03  0.56335749047E+03  0.12700000000E+01 0. -1.
         21   -1    0    0  501  502  0.00000000000E+00 -0.00000000000E+00 -0.13961205291E+02  0.13961205291E+02  0.00000000000E+00 0.  1.
         25    2    1    2    0    0  0.11496788991E+01 -0.44231486585E+02  0.39212630242E+03  0.41393951631E+03  0.12500055977E+03 0.  0.
    9000005    1    3    3    0    0  0.14125147090E+02 -0.58964251336E+01  0.36474054362E+03  0.36506294220E+03  0.10000000000E+01 0.  0.
    9000005    1    3    3    0    0 -0.12975468191E+02 -0.38335061451E+02  0.27385758807E+02  0.48876574110E+02  0.10000000000E+01 0.  0.
          4    1    1    2  501    0 -0.11496788991E+01  0.44231486585E+02  0.15726855125E+03  0.16337917945E+03  0.12700000000E+01 0.  1.
<mgrwt>
<rscale>  1 0.13260048E+03</rscale>
<asrwt>0</asrwt>
<pdfrwt beam="2">  1       21 0.21478782E-02 0.13260048E+03</pdfrwt>
<pdfrwt beam="1">  1        4 0.86674698E-01 0.13260048E+03</pdfrwt>
<totfact> 0.52341529E+04</totfact>
</mgrwt>
</event>
<event>
 6    4  0.6376098E-003  0.1301724E+03  0.7818608E-02  0.1227200E+00
          4   -1    0    0  502    0 -0.00000000000E+00  0.00000000000E+00  0.10429789971E+03  0.10430563160E+03  0.12700000000E+01 0. -1.
         21   -1    0    0  501  502  0.00000000000E+00 -0.00000000000E+00 -0.70423283809E+02  0.70423283809E+02  0.00000000000E+00 0. -1.
         25    2    1    2    0    0  0.10127937205E+02 -0.34895959117E+02  0.86144581350E+01  0.13045712366E+03  0.12499819658E+03 0.  0.
    9000005    1    3    3    0    0  0.29089581095E+02 -0.59522642740E+02  0.46867770020E+02  0.81158712371E+02  0.10000000000E+01 0.  0.
    9000005    1    3    3    0    0 -0.18961643891E+02  0.24626683622E+02 -0.38253311885E+02  0.49298411287E+02  0.10000000000E+01 0.  0.
          4    1    1    2  501    0 -0.10127937205E+02  0.34895959117E+02  0.25260157766E+02  0.44271791754E+02  0.12700000000E+01 0.  1.
<mgrwt>
<rscale>  1 0.13017239E+03</rscale>
<asrwt>0</asrwt>
<pdfrwt beam="2">  1       21 0.10834351E-01 0.13017239E+03</pdfrwt>
<pdfrwt beam="1">  1        4 0.16047306E-01 0.13017239E+03</pdfrwt>
<totfact> 0.94389395E+04</totfact>
</mgrwt>
</event>
<event>
 6    4  0.6376098E-003  0.1277485E+03  0.7818608E-02  0.1230835E+00
          4   -1    0    0  502    0 -0.00000000000E+00  0.00000000000E+00  0.11704121763E+02  0.11772823206E+02  0.12700000000E+01 0. -1.
         21   -1    0    0  501  502  0.00000000000E+00 -0.00000000000E+00 -0.55316929459E+03  0.55316929459E+03  0.00000000000E+00 0.  1.
         25    2    1    2    0    0  0.63399166125E+01 -0.25580290121E+02 -0.36939985313E+03  0.39086560322E+03  0.12500049000E+03 0.  0.
    9000005    1    3    3    0    0 -0.50440952976E+02  0.20646609018E+02 -0.15514450600E+03  0.16444266461E+03  0.10000000000E+01 0.  0.
    9000005    1    3    3    0    0  0.56780869588E+02 -0.46226899139E+02 -0.21425534713E+03  0.22642293861E+03  0.10000000000E+01 0.  0.
          4    1    1    2  501    0 -0.63399166125E+01  0.25580290121E+02 -0.17206531969E+03  0.17407651457E+03  0.12700000000E+01 0.  1.
<mgrwt>
<rscale>  1 0.12774846E+03</rscale>
<asrwt>0</asrwt>
<pdfrwt beam="2">  1       21 0.85102988E-01 0.12774846E+03</pdfrwt>
<pdfrwt beam="1">  1        4 0.18060306E-02 0.12774846E+03</pdfrwt>
<totfact> 0.57809979E+04</totfact>
</mgrwt>
</event>
<event>
 6    4  0.6376098E-003  0.1274312E+03  0.7818608E-02  0.1231318E+00
         -4   -1    0    0    0  501 -0.00000000000E+00  0.00000000000E+00  0.11834793864E+02  0.11902741104E+02  0.12700000000E+01 0.  1.
         21   -1    0    0  501  502  0.00000000000E+00 -0.00000000000E+00 -0.59348296735E+03  0.59348296735E+03  0.00000000000E+00 0.  1.
         25    2    1    2    0    0  0.26633617532E+01 -0.24614340609E+02 -0.35113244757E+03  0.37354077740E+03  0.12500302951E+03 0.  0.
    9000005    1    3    3    0    0  0.16798562428E+01  0.26500724751E+02 -0.30018199081E+03  0.30135583275E+03  0.10000000000E+01 0.  0.
    9000005    1    3    3    0    0  0.98350551045E+00 -0.51115065360E+02 -0.50950456764E+02  0.72184944651E+02  0.10000000000E+01 0.  0.
         -4    1    1    2    0  502 -0.26633617532E+01  0.24614340609E+02 -0.23051572592E+03  0.23184493105E+03  0.12700000000E+01 0. -1.
<mgrwt>
<rscale>  1 0.12743122E+03</rscale>
<asrwt>0</asrwt>
<pdfrwt beam="2">  1       21 0.91305090E-01 0.12743122E+03</pdfrwt>
<pdfrwt beam="1">  1       -4 0.18260684E-02 0.12743122E+03</pdfrwt>
<totfact> 0.48418079E+04</totfact>
</mgrwt>
</event>
<event>
 6    4  0.6376098E-003  0.1267518E+03  0.7818608E-02  0.1232357E+00
          4   -1    0    0  502    0 -0.00000000000E+00  0.00000000000E+00  0.79949313647E+02  0.79959400027E+02  0.12700000000E+01 0. -1.
         21   -1    0    0  501  502  0.00000000000E+00 -0.00000000000E+00 -0.79037501551E+02  0.79037501551E+02  0.00000000000E+00 0.  1.
         25    2    1    2    0    0 -0.19772049199E+02  0.70774136610E+01  0.22633529429E+02  0.12875670288E+03  0.12499995267E+03 0.  0.
    9000005    1    3    3    0    0  0.18683908657E+02  0.11951729958E+02 -0.45349309562E+02  0.50492496170E+02  0.10000000000E+01 0.  0.
    9000005    1    3    3    0    0 -0.38455957856E+02 -0.48743162967E+01  0.67982838991E+02  0.78264206706E+02  0.10000000000E+01 0.  0.
          4    1    1    2  501    0  0.19772049199E+02 -0.70774136610E+01 -0.21721717333E+02  0.30240198702E+02  0.12700000000E+01 0.  1.
<mgrwt>
<rscale>  1 0.12675177E+03</rscale>
<asrwt>0</asrwt>
<pdfrwt beam="2">  1       21 0.12159616E-01 0.12675177E+03</pdfrwt>
<pdfrwt beam="1">  1        4 0.12301455E-01 0.12675177E+03</pdfrwt>
<totfact> 0.12158665E+05</totfact>
</mgrwt>
</event>
<event>
 6    4  0.6376098E-003  0.1387288E+03  0.7818608E-02  0.1215050E+00
         21   -1    0    0  501  502  0.00000000000E+00  0.00000000000E+00  0.69003518823E+02  0.69003518823E+02  0.00000000000E+00 0.  1.
         -4   -1    0    0    0  501 -0.00000000000E+00 -0.00000000000E+00 -0.33548589680E+03  0.33548830062E+03  0.12700000000E+01 0. -1.
         25    2    1    2    0    0  0.46639424788E+02 -0.38029243980E+02 -0.30358692612E+03  0.33378241601E+03  0.12499688069E+03 0.  0.
    9000005    1    3    3    0    0  0.17094354851E+02  0.26701112421E+01 -0.27574437444E+03  0.27628844800E+03  0.10000000000E+01 0.  0.
    9000005    1    3    3    0    0  0.29545069937E+02 -0.40699355223E+02 -0.27842551674E+02  0.57493968004E+02  0.10000000000E+01 0.  0.
         -4    1    1    2    0  502 -0.46639424788E+02  0.38029243980E+02  0.37104548137E+02  0.70709403439E+02  0.12700000000E+01 0.  1.
<mgrwt>
<rscale>  1 0.13872880E+03</rscale>
<asrwt>0</asrwt>
<pdfrwt beam="1">  1       21 0.10615926E-01 0.13872880E+03</pdfrwt>
<pdfrwt beam="2">  1       -4 0.51614299E-01 0.13872880E+03</pdfrwt>
<totfact> 0.10871599E+04</totfact>
</mgrwt>
</event>
<event>
 6    4  0.6376098E-003  0.1288784E+03  0.7818608E-02  0.1229129E+00
         21   -1    0    0  501  502  0.00000000000E+00  0.00000000000E+00  0.20605505310E+03  0.20605505310E+03  0.00000000000E+00 0.  1.
         -4   -1    0    0    0  501 -0.00000000000E+00 -0.00000000000E+00 -0.96931147512E+02  0.96939466978E+02  0.12700000000E+01 0. -1.
         25    2    1    2    0    0  0.31349250802E+02 -0.13350340739E+01 -0.51900600615E+02  0.13893641348E+03  0.12500038722E+03 0.  0.
    9000005    1    3    3    0    0  0.28799733655E+01 -0.33079963846E+02 -0.80835546498E+02  0.87395445145E+02  0.10000000000E+01 0.  0.
    9000005    1    3    3    0    0  0.28469277436E+02  0.31744929772E+02  0.28934945883E+02  0.51540968338E+02  0.10000000000E+01 0.  0.
         -4    1    1    2    0  502 -0.31349250802E+02  0.13350340739E+01  0.16102450620E+03  0.16405810659E+03  0.12700000000E+01 0.  1.
<mgrwt>
<rscale>  1 0.12887845E+03</rscale>
<asrwt>0</asrwt>
<pdfrwt beam="1">  1       21 0.31700777E-01 0.12887845E+03</pdfrwt>
<pdfrwt beam="2">  1       -4 0.14913425E-01 0.12887845E+03</pdfrwt>
<totfact> 0.14855398E+04</totfact>
</mgrwt>
</event>
<event>
 6    4  0.6376098E-003  0.1270478E+03  0.7818608E-02  0.1231903E+00
         21   -1    0    0  501  502  0.00000000000E+00  0.00000000000E+00  0.17095124628E+02  0.17095124628E+02  0.00000000000E+00 0.  1.
         -4   -1    0    0    0  501 -0.00000000000E+00 -0.00000000000E+00 -0.33250930439E+03  0.33251172973E+03  0.12700000000E+01 0.  1.
         25    2    1    2    0    0  0.22828415151E+02 -0.12556396413E+01 -0.25263052035E+03  0.28277786395E+03  0.12497370667E+03 0.  0.
    9000005    1    3    3    0    0  0.75314774782E+01  0.39294535678E+02 -0.23079260543E+03  0.23423708163E+03  0.10000000000E+01 0.  0.
    9000005    1    3    3    0    0  0.15296937673E+02 -0.40550175319E+02 -0.21837914918E+02  0.48540782323E+02  0.10000000000E+01 0.  0.
         -4    1    1    2    0  502 -0.22828415151E+02  0.12556396413E+01 -0.62783659416E+02  0.66828990407E+02  0.12700000000E+01 0. -1.
<mgrwt>
<rscale>  1 0.12704779E+03</rscale>
<asrwt>0</asrwt>
<pdfrwt beam="1">  1       21 0.26300193E-02 0.12704779E+03</pdfrwt>
<pdfrwt beam="2">  1       -4 0.51159090E-01 0.12704779E+03</pdfrwt>
<totfact> 0.11557443E+05</totfact>
</mgrwt>
</event>
<event>
 6    4  0.6376098E-003  0.1270700E+03  0.7818608E-02  0.1231869E+00
          4   -1    0    0  502    0 -0.00000000000E+00  0.00000000000E+00  0.67734336578E+03  0.67734455638E+03  0.12700000000E+01 0. -1.
         21   -1    0    0  501  502  0.00000000000E+00 -0.00000000000E+00 -0.12092494140E+02  0.12092494140E+02  0.00000000000E+00 0.  1.
         25    2    1    2    0    0 -0.10293560658E+02  0.20399457191E+02  0.64911528956E+03  0.66143588709E+03  0.12499871338E+03 0.  0.
    9000005    1    3    3    0    0  0.11955752898E+02 -0.14923153824E+02  0.11256017531E+02  0.22211224146E+02  0.10000000000E+01 0.  0.
    9000005    1    3    3    0    0 -0.22249313556E+02  0.35322611014E+02  0.63785927203E+03  0.63922466294E+03  0.10000000000E+01 0.  0.
          4    1    1    2  501    0  0.10293560658E+02 -0.20399457191E+02  0.16135582080E+02  0.28001163436E+02  0.12700000000E+01 0.  1.
<mgrwt>
<rscale>  1 0.12706996E+03</rscale>
<asrwt>0</asrwt>
<pdfrwt beam="2">  1       21 0.18603842E-02 0.12706996E+03</pdfrwt>
<pdfrwt beam="1">  1        4 0.10421186E+00 0.12706996E+03</pdfrwt>
<totfact> 0.43077557E+04</totfact>
</mgrwt>
</event>
<event>
 6    4  0.6376098E-003  0.1329958E+03  0.7818608E-02  0.1223077E+00
         -4   -1    0    0    0  501 -0.00000000000E+00  0.00000000000E+00  0.12143262831E+03  0.12143926926E+03  0.12700000000E+01 0.  1.
         21   -1    0    0  501  502  0.00000000000E+00 -0.00000000000E+00 -0.71013132545E+02  0.71013132545E+02  0.00000000000E+00 0. -1.
         25    2    1    2    0    0 -0.38745730973E+02  0.23715692256E+02  0.13085091139E+02  0.13363797843E+03  0.12499689573E+03 0.  0.
    9000005    1    3    3    0    0 -0.48499641926E+02  0.18387268376E+02  0.63503129967E+02  0.81999722078E+02  0.10000000000E+01 0.  0.
    9000005    1    3    3    0    0  0.97539109534E+01  0.53284238806E+01 -0.50418038828E+02  0.51638256353E+02  0.10000000000E+01 0.  0.
         -4    1    1    2    0  502  0.38745730973E+02 -0.23715692256E+02  0.37334404623E+02  0.58814423370E+02  0.12700000000E+01 0. -1.
<mgrwt>
<rscale>  1 0.13299583E+03</rscale>
<asrwt>0</asrwt>
<pdfrwt beam="2">  1       21 0.10925097E-01 0.13299583E+03</pdfrwt>
<pdfrwt beam="1">  1       -4 0.18683327E-01 0.13299583E+03</pdfrwt>
<totfact> 0.71270123E+04</totfact>
</mgrwt>
</event>
<event>
 6    4  0.6376098E-003  0.1774549E+03  0.7818608E-02  0.1170289E+00
         21   -1    0    0  501  502  0.00000000000E+00  0.00000000000E+00  0.30210752894E+03  0.30210752894E+03  0.00000000000E+00 0. -1.
          4   -1    0    0  502    0 -0.00000000000E+00 -0.00000000000E+00 -0.17789140290E+03  0.17789593623E+03  0.12700000000E+01 0.  1.
         25    2    1    2    0    0 -0.11192463193E+03  0.57781994853E+02 -0.11372979661E+03  0.21077167439E+03  0.12499739968E+03 0.  0.
    9000005    1    3    3    0    0 -0.36272651172E+01  0.49597213903E+02  0.48421395835E+01  0.49974863631E+02  0.10000000000E+01 0.  0.
    9000005    1    3    3    0    0 -0.10829736681E+03  0.81847809496E+01 -0.11857193620E+03  0.16079681076E+03  0.10000000000E+01 0.  0.
          4    1    1    2  501    0  0.11192463193E+03 -0.57781994853E+02  0.23794592265E+03  0.26923179078E+03  0.12700000000E+01 0. -1.
<mgrwt>
<rscale>  1 0.17745487E+03</rscale>
<asrwt>0</asrwt>
<pdfrwt beam="1">  1       21 0.46478081E-01 0.17745487E+03</pdfrwt>
<pdfrwt beam="2">  1        4 0.27368462E-01 0.17745487E+03</pdfrwt>
<totfact> 0.23532024E+03</totfact>
</mgrwt>
</event>
<event>
 6    4  0.6376098E-003  0.1295156E+03  0.7818608E-02  0.1228176E+00
          4   -1    0    0  502    0 -0.00000000000E+00  0.00000000000E+00  0.36922059594E+03  0.36922278013E+03  0.12700000000E+01 0.  1.
         21   -1    0    0  501  502  0.00000000000E+00 -0.00000000000E+00 -0.34354600967E+02  0.34354600967E+02  0.00000000000E+00 0. -1.
         25    2    1    2    0    0 -0.33603716455E+02  0.41118560490E+01  0.34475930163E+03  0.36828421552E+03  0.12501268024E+03 0.  0.
    9000005    1    3    3    0    0  0.24708365507E+02 -0.44589373260E+02  0.17542613169E+03  0.18268564041E+03  0.10000000000E+01 0.  0.
    9000005    1    3    3    0    0 -0.58312081962E+02  0.48701229309E+02  0.16933316994E+03  0.18559857510E+03  0.10000000000E+01 0.  0.
          4    1    1    2  501    0  0.33603716455E+02 -0.41118560490E+01 -0.98933066582E+01  0.35293165576E+02  0.12700000000E+01 0. -1.
<mgrwt>
<rscale>  1 0.12951559E+03</rscale>
<asrwt>0</asrwt>
<pdfrwt beam="2">  1       21 0.52853235E-02 0.12951559E+03</pdfrwt>
<pdfrwt beam="1">  1        4 0.56805140E-01 0.12951559E+03</pdfrwt>
<totfact> 0.29399752E+04</totfact>
</mgrwt>
</event>
<event>
 6    4  0.6376098E-003  0.1268881E+03  0.7818608E-02  0.1232148E+00
         -4   -1    0    0    0  501 -0.00000000000E+00  0.00000000000E+00  0.15863641486E+03  0.15864149841E+03  0.12700000000E+01 0. -1.
         21   -1    0    0  501  502  0.00000000000E+00 -0.00000000000E+00 -0.10548179993E+03  0.10548179993E+03  0.00000000000E+00 0.  1.
         25    2    1    2    0    0 -0.21827082575E+02 -0.80727577623E+00  0.13152568971E+03  0.18275554373E+03  0.12499403378E+03 0.  0.
    9000005    1    3    3    0    0 -0.67422935966E+02 -0.63063943928E+01  0.35860837051E+02  0.76633038165E+02  0.10000000000E+01 0.  0.
    9000005    1    3    3    0    0  0.45595853391E+02  0.54991186166E+01  0.95664852661E+02  0.10612250556E+03  0.10000000000E+01 0.  0.
         -4    1    1    2    0  502  0.21827082575E+02  0.80727577623E+00 -0.78371074785E+02  0.81367754613E+02  0.12700000000E+01 0.  1.
<mgrwt>
<rscale>  1 0.12688807E+03</rscale>
<asrwt>0</asrwt>
<pdfrwt beam="2">  1       21 0.16227969E-01 0.12688807E+03</pdfrwt>
<pdfrwt beam="1">  1       -4 0.24406581E-01 0.12688807E+03</pdfrwt>
<totfact> 0.21542897E+04</totfact>
</mgrwt>
</event>
<event>
 6    4  0.6376098E-003  0.1279709E+03  0.7818608E-02  0.1230498E+00
         -4   -1    0    0    0  501 -0.00000000000E+00  0.00000000000E+00  0.14148365834E+03  0.14148935818E+03  0.12700000000E+01 0. -1.
         21   -1    0    0  501  502  0.00000000000E+00 -0.00000000000E+00 -0.46886876472E+02  0.46886876472E+02  0.00000000000E+00 0.  1.
         25    2    1    2    0    0 -0.27100141492E+02 -0.44694423385E+01  0.97282824881E+02  0.16074977431E+03  0.12498859284E+03 0.  0.
    9000005    1    3    3    0    0 -0.60621119857E+02 -0.44850807359E+02  0.54846271988E+02  0.93250354661E+02  0.10000000000E+01 0.  0.
    9000005    1    3    3    0    0  0.33520978366E+02  0.40381365020E+02  0.42436552893E+02  0.67499419649E+02  0.10000000000E+01 0.  0.
         -4    1    1    2    0  502  0.27100141492E+02  0.44694423385E+01 -0.26860430137E+01  0.27626460337E+02  0.12700000000E+01 0.  1.
<mgrwt>
<rscale>  1 0.12797086E+03</rscale>
<asrwt>0</asrwt>
<pdfrwt beam="2">  1       21 0.72133657E-02 0.12797086E+03</pdfrwt>
<pdfrwt beam="1">  1       -4 0.21768478E-01 0.12797086E+03</pdfrwt>
<totfact> 0.11071027E+05</totfact>
</mgrwt>
</event>
<event>
 6    4  0.6376098E-003  0.1280259E+03  0.7818608E-02  0.1230415E+00
          4   -1    0    0  502    0 -0.00000000000E+00  0.00000000000E+00  0.12429596853E+03  0.12430245650E+03  0.12700000000E+01 0. -1.
         21   -1    0    0  501  502  0.00000000000E+00 -0.00000000000E+00 -0.87447157007E+02  0.87447157007E+02  0.00000000000E+00 0.  1.
         25    2    1    2    0    0 -0.23346025402E+01 -0.27581138379E+02  0.86765943884E+02  0.15465756006E+03  0.12499784919E+03 0.  0.
    9000005    1    3    3    0    0 -0.29256991996E+01  0.42626813873E+02  0.70717929245E+02  0.82629477146E+02  0.10000000000E+01 0.  0.
    9000005    1    3    3    0    0  0.59109665946E+00 -0.70207952251E+02  0.16048014639E+02  0.72028082915E+02  0.10000000000E+01 0.  0.
          4    1    1    2  501    0  0.23346025402E+01  0.27581138379E+02 -0.49917132364E+02  0.57092053446E+02  0.12700000000E+01 0.  1.
<mgrwt>
<rscale>  1 0.12802590E+03</rscale>
<asrwt>0</asrwt>
<pdfrwt beam="2">  1       21 0.13453409E-01 0.12802590E+03</pdfrwt>
<pdfrwt beam="1">  1        4 0.19123665E-01 0.12802590E+03</pdfrwt>
<totfact> 0.47027470E+04</totfact>
</mgrwt>
</event>
<event>
 6    4  0.6376098E-003  0.1274987E+03  0.7818608E-02  0.1231215E+00
         21   -1    0    0  501  502  0.00000000000E+00  0.00000000000E+00  0.17106325352E+03  0.17106325352E+03  0.00000000000E+00 0.  1.
          4   -1    0    0  502    0 -0.00000000000E+00 -0.00000000000E+00 -0.35016022858E+02  0.35039046174E+02  0.12700000000E+01 0.  1.
         25    2    1    2    0    0 -0.18624281659E+02 -0.16827288299E+02  0.99409202373E+02  0.16167281044E+03  0.12500354643E+03 0.  0.
    9000005    1    3    3    0    0 -0.47547970703E+02  0.11008642609E+02 -0.57065690151E+01  0.49148394277E+02  0.10000000000E+01 0.  0.
    9000005    1    3    3    0    0  0.28923689044E+02 -0.27835930909E+02  0.10511577139E+03  0.11252441616E+03  0.10000000000E+01 0.  0.
          4    1    1    2  501    0  0.18624281659E+02  0.16827288299E+02  0.36638028287E+02  0.44429489256E+02  0.12700000000E+01 0. -1.
<mgrwt>
<rscale>  1 0.12749866E+03</rscale>
<asrwt>0</asrwt>
<pdfrwt beam="1">  1       21 0.26317423E-01 0.12749866E+03</pdfrwt>
<pdfrwt beam="2">  1        4 0.53892142E-02 0.12749866E+03</pdfrwt>
<totfact> 0.11628549E+05</totfact>
</mgrwt>
</event>
<event>
 6    4  0.6376098E-003  0.1318285E+03  0.7818608E-02  0.1224768E+00
         21   -1    0    0  501  502  0.00000000000E+00  0.00000000000E+00  0.16886112514E+02  0.16886112514E+02  0.00000000000E+00 0.  1.
         -4   -1    0    0    0  501 -0.00000000000E+00 -0.00000000000E+00 -0.85035020787E+03  0.85035115624E+03  0.12700000000E+01 0. -1.
         25    2    1    2    0    0  0.40188472231E+02  0.11789398088E+02 -0.80696014491E+03  0.81765727786E+03  0.12499858147E+03 0.  0.
    9000005    1    3    3    0    0  0.47285069714E+02 -0.45319931711E+02 -0.27984946126E+03  0.28741345653E+03  0.10000000000E+01 0.  0.
    9000005    1    3    3    0    0 -0.70965974832E+01  0.57109329800E+02 -0.52711068365E+03  0.53024382133E+03  0.10000000000E+01 0.  0.
         -4    1    1    2    0  502 -0.40188472231E+02 -0.11789398088E+02 -0.26503950447E+02  0.49579990892E+02  0.12700000000E+01 0.  1.
<mgrwt>
<rscale>  1 0.13182848E+03</rscale>
<asrwt>0</asrwt>
<pdfrwt beam="1">  1       21 0.25978629E-02 0.13182848E+03</pdfrwt>
<pdfrwt beam="2">  1       -4 0.13082688E+00 0.13182848E+03</pdfrwt>
<totfact> 0.14640203E+04</totfact>
</mgrwt>
</event>
<event>
 6    4  0.6376098E-003  0.1334965E+03  0.7818608E-02  0.1222358E+00
          4   -1    0    0  502    0 -0.00000000000E+00  0.00000000000E+00  0.91670150621E+02  0.91678947500E+02  0.12700000000E+01 0.  1.
         21   -1    0    0  501  502  0.00000000000E+00 -0.00000000000E+00 -0.17553582856E+03  0.17553582856E+03  0.00000000000E+00 0. -1.
         25    2    1    2    0    0  0.41461970170E+02 -0.21849732735E+02  0.36201970253E+02  0.13831807776E+03  0.12499920877E+03 0.  0.
    9000005    1    3    3    0    0  0.15478963852E+02 -0.54128548988E+02  0.66381398663E+02  0.87045897238E+02  0.10000000000E+01 0.  0.
    9000005    1    3    3    0    0  0.25983006318E+02  0.32278816254E+02 -0.30179428410E+02  0.51272180520E+02  0.10000000000E+01 0.  0.
          4    1    1    2  501    0 -0.41461970170E+02  0.21849732735E+02 -0.12006764819E+03  0.12889669830E+03  0.12700000000E+01 0. -1.
<mgrwt>
<rscale>  1 0.13349647E+03</rscale>
<asrwt>0</asrwt>
<pdfrwt beam="2">  1       21 0.27005512E-01 0.13349647E+03</pdfrwt>
<pdfrwt beam="1">  1        4 0.14104130E-01 0.13349647E+03</pdfrwt>
<totfact> 0.22358895E+04</totfact>
</mgrwt>
</event>
<event>
 6    4  0.6376098E-003  0.1327836E+03  0.7818608E-02  0.1223383E+00
          4   -1    0    0  502    0 -0.00000000000E+00  0.00000000000E+00  0.43546604131E+03  0.43546789323E+03  0.12700000000E+01 0. -1.
         21   -1    0    0  501  502  0.00000000000E+00 -0.00000000000E+00 -0.25592028468E+02  0.25592028468E+02  0.00000000000E+00 0.  1.
         25    2    1    2    0    0 -0.20214495593E+02 -0.40016793369E+02  0.39003400572E+03  0.41201699799E+03  0.12498604495E+03 0.  0.
    9000005    1    3    3    0    0 -0.36725278921E+01 -0.76794660357E+01  0.37080913545E+03  0.37090817812E+03  0.10000000000E+01 0.  0.
    9000005    1    3    3    0    0 -0.16541967701E+02 -0.32337327333E+02  0.19224870267E+02  0.41108819872E+02  0.10000000000E+01 0.  0.
          4    1    1    2  501    0  0.20214495593E+02  0.40016793369E+02  0.19840007127E+02  0.49042923714E+02  0.12700000000E+01 0.  1.
<mgrwt>
<rscale>  1 0.13278359E+03</rscale>
<asrwt>0</asrwt>
<pdfrwt beam="2">  1       21 0.39372355E-02 0.13278359E+03</pdfrwt>
<pdfrwt beam="1">  1        4 0.66997336E-01 0.13278359E+03</pdfrwt>
<totfact> 0.34075628E+04</totfact>
</mgrwt>
</event>
<event>
 6    4  0.6376098E-003  0.1353001E+03  0.7818608E-02  0.1219797E+00
         -4   -1    0    0    0  501 -0.00000000000E+00  0.00000000000E+00  0.17409072176E+04  0.17409076808E+04  0.12700000000E+01 0.  1.
         21   -1    0    0  501  502  0.00000000000E+00 -0.00000000000E+00 -0.51375621640E+01  0.51375621640E+01  0.00000000000E+00 0. -1.
         25    2    1    2    0    0 -0.47499799736E+02  0.20600790453E+02  0.13621637113E+04  0.13688667204E+04  0.12500199278E+03 0.  0.
    9000005    1    3    3    0    0 -0.65603935534E+01  0.45984970140E+02  0.11641074882E+04  0.11650342914E+04  0.10000000000E+01 0.  0.
    9000005    1    3    3    0    0 -0.40939406182E+02 -0.25384179687E+02  0.19805622313E+03  0.20383242892E+03  0.10000000000E+01 0.  0.
         -4    1    1    2    0  502  0.47499799736E+02 -0.20600790453E+02  0.37360594412E+03  0.37717852262E+03  0.12700000000E+01 0. -1.
<mgrwt>
<rscale>  1 0.13530012E+03</rscale>
<asrwt>0</asrwt>
<pdfrwt beam="2">  1       21 0.79039557E-03 0.13530012E+03</pdfrwt>
<pdfrwt beam="1">  1       -4 0.26784352E+00 0.13530012E+03</pdfrwt>
<totfact> 0.12827679E+04</totfact>
</mgrwt>
</event>
<event>
 6    4  0.6376098E-003  0.1272348E+03  0.7818608E-02  0.1231617E+00
          4   -1    0    0  502    0 -0.00000000000E+00  0.00000000000E+00  0.23478606167E+02  0.23512929370E+02  0.12700000000E+01 0.  1.
         21   -1    0    0  501  502  0.00000000000E+00 -0.00000000000E+00 -0.46710171763E+03  0.46710171763E+03  0.00000000000E+00 0. -1.
         25    2    1    2    0    0  0.20418321877E+02 -0.12011032389E+02 -0.15285427341E+03  0.19887965964E+03  0.12501006900E+03 0.  0.
    9000005    1    3    3    0    0  0.48482777013E+02  0.15169377462E+02 -0.15147914844E+03  0.15977365894E+03  0.10000000000E+01 0.  0.
    9000005    1    3    3    0    0 -0.28064455136E+02 -0.27180409851E+02 -0.13751249677E+01  0.39106000696E+02  0.10000000000E+01 0.  0.
          4    1    1    2  501    0 -0.20418321877E+02  0.12011032389E+02 -0.29076883806E+03  0.29173498737E+03  0.12700000000E+01 0. -1.
<mgrwt>
<rscale>  1 0.12723478E+03</rscale>
<asrwt>0</asrwt>
<pdfrwt beam="2">  1       21 0.71861807E-01 0.12723478E+03</pdfrwt>
<pdfrwt beam="1">  1        4 0.36148661E-02 0.12723478E+03</pdfrwt>
<totfact> 0.28629625E+04</totfact>
</mgrwt>
</event>
<event>
 6    4  0.6376098E-003  0.1500369E+03  0.7818608E-02  0.1200428E+00
          4   -1    0    0  502    0 -0.00000000000E+00  0.00000000000E+00  0.15342713172E+03  0.15343238787E+03  0.12700000000E+01 0.  1.
         21   -1    0    0  501  502  0.00000000000E+00 -0.00000000000E+00 -0.36660420773E+03  0.36660420773E+03  0.00000000000E+00 0. -1.
         25    2    1    2    0    0 -0.75035092266E+02 -0.35448334606E+02  0.11021262660E+03  0.18616631817E+03  0.12499690180E+03 0.  0.
    9000005    1    3    3    0    0 -0.10755363258E+03 -0.42110419895E+02  0.95368881723E+02  0.14979083732E+03  0.10000000000E+01 0.  0.
    9000005    1    3    3    0    0  0.32518540315E+02  0.66620852884E+01  0.14843744874E+02  0.36375480842E+02  0.10000000000E+01 0.  0.
          4    1    1    2  501    0  0.75035092266E+02  0.35448334606E+02 -0.32338970261E+03  0.33387027743E+03  0.12700000000E+01 0. -1.
<mgrwt>
<rscale>  1 0.15003691E+03</rscale>
<asrwt>0</asrwt>
<pdfrwt beam="2">  1       21 0.56400647E-01 0.15003691E+03</pdfrwt>
<pdfrwt beam="1">  1        4 0.23604748E-01 0.15003691E+03</pdfrwt>
<totfact> 0.20592984E+03</totfact>
</mgrwt>
</event>
<event>
 6    4  0.6376098E-003  0.1282620E+03  0.7818608E-02  0.1230058E+00
         -4   -1    0    0    0  501 -0.00000000000E+00  0.00000000000E+00  0.42966069183E+02  0.42984834547E+02  0.12700000000E+01 0. -1.
         21   -1    0    0  501  502  0.00000000000E+00 -0.00000000000E+00 -0.23366832649E+03  0.23366832649E+03  0.00000000000E+00 0. -1.
         25    2    1    2    0    0 -0.27769210664E+02 -0.75725687494E+01 -0.57835613952E+02  0.14069864410E+03  0.12499070907E+03 0.  0.
    9000005    1    3    3    0    0 -0.14979676374E+02 -0.63859702276E+02 -0.49905956659E+02  0.82426068626E+02  0.10000000000E+01 0.  0.
    9000005    1    3    3    0    0 -0.12789534290E+02  0.56287133527E+02 -0.79296572934E+01  0.58272575478E+02  0.10000000000E+01 0.  0.
         -4    1    1    2    0  502  0.27769210664E+02  0.75725687494E+01 -0.13286664335E+03  0.13595451693E+03  0.12700000000E+01 0.  1.
<mgrwt>
<rscale>  1 0.12826204E+03</rscale>
<asrwt>0</asrwt>
<pdfrwt beam="2">  1       21 0.35948973E-01 0.12826204E+03</pdfrwt>
<pdfrwt beam="1">  1       -4 0.66118735E-02 0.12826204E+03</pdfrwt>
<totfact> 0.45683210E+04</totfact>
</mgrwt>
</event>
<event>
 6    4  0.6376098E-003  0.1273682E+03  0.7818608E-02  0.1231414E+00
         -4   -1    0    0    0  501 -0.00000000000E+00  0.00000000000E+00  0.23404128738E+02  0.23438561005E+02  0.12700000000E+01 0. -1.
         21   -1    0    0  501  502  0.00000000000E+00 -0.00000000000E+00 -0.46773449583E+03  0.46773449583E+03  0.00000000000E+00 0. -1.
         25    2    1    2    0    0  0.17204093832E+02 -0.17363422980E+02 -0.15414984195E+03  0.19996210345E+03  0.12500079896E+03 0.  0.
    9000005    1    3    3    0    0  0.37336225490E+02 -0.65073180952E+02 -0.10016105864E+03  0.12514691479E+03  0.10000000000E+01 0.  0.
    9000005    1    3    3    0    0 -0.20132131658E+02  0.47709757972E+02 -0.53988783311E+02  0.74815188660E+02  0.10000000000E+01 0.  0.
         -4    1    1    2    0  502 -0.17204093832E+02  0.17363422980E+02 -0.29018052514E+03  0.29121095339E+03  0.12700000000E+01 0.  1.
<mgrwt>
<rscale>  1 0.12736824E+03</rscale>
<asrwt>0</asrwt>
<pdfrwt beam="2">  1       21 0.71959147E-01 0.12736824E+03</pdfrwt>
<pdfrwt beam="1">  1       -4 0.36034168E-02 0.12736824E+03</pdfrwt>
<totfact> 0.28690952E+04</totfact>
</mgrwt>
</event>
<event>
 6    4  0.6376098E-003  0.1408362E+03  0.7818608E-02  0.1212208E+00
         -4   -1    0    0    0  501 -0.00000000000E+00  0.00000000000E+00  0.21178597900E+02  0.21216642265E+02  0.12700000000E+01 0.  1.
         21   -1    0    0  501  502  0.00000000000E+00 -0.00000000000E+00 -0.93326096738E+03  0.93326096738E+03  0.00000000000E+00 0. -1.
         25    2    1    2    0    0 -0.21841534017E+02 -0.61094333787E+02 -0.23268020873E+03  0.27198330259E+03  0.12500106849E+03 0.  0.
    9000005    1    3    3    0    0 -0.63834775258E+02 -0.64801875041E+02 -0.11284535762E+03  0.14494563214E+03  0.10000000000E+01 0.  0.
    9000005    1    3    3    0    0  0.41993241241E+02  0.37075412548E+01 -0.11983485111E+03  0.12703767045E+03  0.10000000000E+01 0.  0.
         -4    1    1    2    0  502  0.21841534017E+02  0.61094333787E+02 -0.67940216074E+03  0.68249430705E+03  0.12700000000E+01 0. -1.
<mgrwt>
<rscale>  1 0.14083621E+03</rscale>
<asrwt>0</asrwt>
<pdfrwt beam="2">  1       21 0.14357864E+00 0.14083621E+03</pdfrwt>
<pdfrwt beam="1">  1       -4 0.32612380E-02 0.14083621E+03</pdfrwt>
<totfact> 0.66244684E+03</totfact>
</mgrwt>
</event>
<event>
 6    4  0.6376098E-003  0.1615205E+03  0.7818608E-02  0.1186991E+00
         -4   -1    0    0    0  501 -0.00000000000E+00  0.00000000000E+00  0.52094007504E+03  0.52094162310E+03  0.12700000000E+01 0. -1.
         21   -1    0    0  501  502  0.00000000000E+00 -0.00000000000E+00 -0.65634140716E+02  0.65634140716E+02  0.00000000000E+00 0.  1.
         25    2    1    2    0    0  0.20395818360E+02  0.10019355362E+03  0.45658378022E+03  0.48431148176E+03  0.12503649632E+03 0.  0.
    9000005    1    3    3    0    0  0.95164331891E+01 -0.11473723650E+02  0.84472981525E+00  0.14964037005E+02  0.10000000000E+01 0.  0.
    9000005    1    3    3    0    0  0.10879385171E+02  0.11166727727E+03  0.45573905041E+03  0.46934744476E+03  0.10000000000E+01 0.  0.
         -4    1    1    2    0  502 -0.20395818360E+02 -0.10019355362E+03 -0.12778459000E+01  0.10226428206E+03  0.12700000000E+01 0.  1.
<mgrwt>
<rscale>  1 0.16152047E+03</rscale>
<asrwt>0</asrwt>
<pdfrwt beam="2">  1       21 0.10097560E-01 0.16152047E+03</pdfrwt>
<pdfrwt beam="1">  1       -4 0.80145689E-01 0.16152047E+03</pdfrwt>
<totfact> 0.47020150E+03</totfact>
</mgrwt>
</event>
<event>
 6    4  0.6376098E-003  0.1391855E+03  0.7818608E-02  0.1214429E+00
         -4   -1    0    0    0  501 -0.00000000000E+00  0.00000000000E+00  0.55421268891E+03  0.55421414404E+03  0.12700000000E+01 0. -1.
         21   -1    0    0  501  502  0.00000000000E+00 -0.00000000000E+00 -0.30563456617E+02  0.30563456617E+02  0.00000000000E+00 0.  1.
         25    2    1    2    0    0  0.58016642754E+02 -0.19546872137E+02  0.50020536094E+03  0.51920901785E+03  0.12499836022E+03 0.  0.
    9000005    1    3    3    0    0  0.86968410347E+01 -0.45133708912E+02  0.60400310893E+02  0.75907076614E+02  0.10000000000E+01 0.  0.
    9000005    1    3    3    0    0  0.49319801719E+02  0.25586836775E+02  0.43980505005E+03  0.44330194124E+03  0.10000000000E+01 0.  0.
         -4    1    1    2    0  502 -0.58016642754E+02  0.19546872137E+02  0.23443871355E+02  0.65568582804E+02  0.12700000000E+01 0.  1.
<mgrwt>
<rscale>  1 0.13918549E+03</rscale>
<asrwt>0</asrwt>
<pdfrwt beam="2">  1       21 0.47020707E-02 0.13918549E+03</pdfrwt>
<pdfrwt beam="1">  1       -4 0.85265625E-01 0.13918549E+03</pdfrwt>
<totfact> 0.15024107E+04</totfact>
</mgrwt>
</event>
<event>
 6    4  0.6376098E-003  0.1314667E+03  0.7818608E-02  0.1225295E+00
         -4   -1    0    0    0  501 -0.00000000000E+00  0.00000000000E+00  0.61177489649E+02  0.61190670365E+02  0.12700000000E+01 0. -1.
         21   -1    0    0  501  502  0.00000000000E+00 -0.00000000000E+00 -0.17659078606E+03  0.17659078606E+03  0.00000000000E+00 0. -1.
         25    2    1    2    0    0  0.40712926003E+02 -0.49680631403E+00 -0.18636948367E+02  0.13278115356E+03  0.12500283892E+03 0.  0.
    9000005    1    3    3    0    0  0.33924928542E+02 -0.98645338667E+01  0.51073365883E+02  0.62110373591E+02  0.10000000000E+01 0.  0.
    9000005    1    3    3    0    0  0.67879974607E+01  0.93677275526E+01 -0.69710314250E+02  0.70670779972E+02  0.10000000000E+01 0.  0.
         -4    1    1    2    0  502 -0.40712926003E+02  0.49680631403E+00 -0.96776348049E+02  0.10500030287E+03  0.12700000000E+01 0.  1.
<mgrwt>
<rscale>  1 0.13146672E+03</rscale>
<asrwt>0</asrwt>
<pdfrwt beam="2">  1       21 0.27167813E-01 0.13146672E+03</pdfrwt>
<pdfrwt beam="1">  1       -4 0.94132868E-02 0.13146672E+03</pdfrwt>
<totfact> 0.43961575E+04</totfact>
</mgrwt>
</event>
<event>
 6    4  0.6376098E-003  0.1275466E+03  0.7818608E-02  0.1231142E+00
         21   -1    0    0  501  502  0.00000000000E+00  0.00000000000E+00  0.72027214345E+02  0.72027214345E+02  0.00000000000E+00 0.  1.
          4   -1    0    0  502    0 -0.00000000000E+00 -0.00000000000E+00 -0.42172086525E+03  0.42172277752E+03  0.12700000000E+01 0. -1.
         25    2    1    2    0    0  0.16232790011E+02 -0.19460802394E+02 -0.40943593305E+03  0.42884252329E+03  0.12500360079E+03 0.  0.
    9000005    1    3    3    0    0  0.52775365359E+02  0.33824196740E+02 -0.18862031711E+03  0.19876604212E+03  0.10000000000E+01 0.  0.
    9000005    1    3    3    0    0 -0.36542575348E+02 -0.53284999134E+02 -0.22081561593E+03  0.23007648117E+03  0.10000000000E+01 0.  0.
          4    1    1    2  501    0 -0.16232790011E+02  0.19460802394E+02  0.59742282146E+02  0.64907468580E+02  0.12700000000E+01 0.  1.
<mgrwt>
<rscale>  1 0.12754657E+03</rscale>
<asrwt>0</asrwt>
<pdfrwt beam="1">  1       21 0.11081110E-01 0.12754657E+03</pdfrwt>
<pdfrwt beam="2">  1        4 0.64881141E-01 0.12754657E+03</pdfrwt>
<totfact> 0.62107881E+03</totfact>
</mgrwt>
</event>
<event>
 6    4  0.6376098E-003  0.1315344E+03  0.7818608E-02  0.1225197E+00
         -4   -1    0    0    0  501 -0.00000000000E+00  0.00000000000E+00  0.42422673595E+03  0.42422863693E+03  0.12700000000E+01 0.  1.
         21   -1    0    0  501  502  0.00000000000E+00 -0.00000000000E+00 -0.17718992232E+02  0.17718992232E+02  0.00000000000E+00 0.  1.
         25    2    1    2    0    0  0.10714797259E+02 -0.39527536728E+02  0.28971772856E+03  0.31817867676E+03  0.12499630018E+03 0.  0.
    9000005    1    3    3    0    0 -0.41141425822E+02  0.14991878826E+02  0.47819793555E+02  0.64846788703E+02  0.10000000000E+01 0.  0.
    9000005    1    3    3    0    0  0.51856223081E+02 -0.54519415554E+02  0.24189793501E+03  0.25333188805E+03  0.10000000000E+01 0.  0.
         -4    1    1    2    0  502 -0.10714797259E+02  0.39527536728E+02  0.11679001515E+03  0.12376895241E+03  0.12700000000E+01 0. -1.
<mgrwt>
<rscale>  1 0.13153444E+03</rscale>
<asrwt>0</asrwt>
<pdfrwt beam="2">  1       21 0.27259991E-02 0.13153444E+03</pdfrwt>
<pdfrwt beam="1">  1       -4 0.65269291E-01 0.13153444E+03</pdfrwt>
<totfact> 0.65940284E+04</totfact>
</mgrwt>
</event>
<event>
 6    4  0.6376098E-003  0.1369562E+03  0.7818608E-02  0.1217484E+00
         -4   -1    0    0    0  501 -0.00000000000E+00  0.00000000000E+00  0.28106279633E+02  0.28134957878E+02  0.12700000000E+01 0.  1.
         21   -1    0    0  501  502  0.00000000000E+00 -0.00000000000E+00 -0.34559491239E+03  0.34559491239E+03  0.00000000000E+00 0. -1.
         25    2    1    2    0    0 -0.25375505203E+00  0.55961841337E+02 -0.18742207831E+03  0.23212932803E+03  0.12500078966E+03 0.  0.
    9000005    1    3    3    0    0  0.11011809497E+02  0.81828517169E+02 -0.18641060640E+03  0.20388006364E+03  0.10000000000E+01 0.  0.
    9000005    1    3    3    0    0 -0.11265564549E+02 -0.25866675832E+02 -0.10114719110E+01  0.28249264391E+02  0.10000000000E+01 0.  0.
         -4    1    1    2    0  502  0.25375505203E+00 -0.55961841337E+02 -0.13006655445E+03  0.14160054225E+03  0.12700000000E+01 0. -1.
<mgrwt>
<rscale>  1 0.13695616E+03</rscale>
<asrwt>0</asrwt>
<pdfrwt beam="2">  1       21 0.53168447E-01 0.13695616E+03</pdfrwt>
<pdfrwt beam="1">  1       -4 0.43264286E-02 0.13695616E+03</pdfrwt>
<totfact> 0.41270161E+04</totfact>
</mgrwt>
</event>
<event>
 6    4  0.6376098E-003  0.1303429E+03  0.7818608E-02  0.1226948E+00
         21   -1    0    0  501  502  0.00000000000E+00  0.00000000000E+00  0.88737056834E+02  0.88737056834E+02  0.00000000000E+00 0. -1.
          4   -1    0    0  502    0 -0.00000000000E+00 -0.00000000000E+00 -0.85661889069E+02  0.85671302890E+02  0.12700000000E+01 0. -1.
         25    2    1    2    0    0 -0.35561087517E+02 -0.96448861212E+01 -0.18565603264E+02  0.13165849839E+03  0.12502665235E+03 0.  0.
    9000005    1    3    3    0    0 -0.13099737284E+02  0.37983557381E+02  0.37333428827E+02  0.54855616451E+02  0.10000000000E+01 0.  0.
    9000005    1    3    3    0    0 -0.22461350233E+02 -0.47628443502E+02 -0.55899032091E+02  0.76802881935E+02  0.10000000000E+01 0.  0.
          4    1    1    2  501    0  0.35561087517E+02  0.96448861212E+01  0.21640771030E+02  0.42749861338E+02  0.12700000000E+01 0.  1.
<mgrwt>
<rscale>  1 0.13034293E+03</rscale>
<asrwt>0</asrwt>
<pdfrwt beam="1">  1       21 0.13651855E-01 0.13034293E+03</pdfrwt>
<pdfrwt beam="2">  1        4 0.13180175E-01 0.13034293E+03</pdfrwt>
<totfact> 0.88228131E+04</totfact>
</mgrwt>
</event>
<event>
 6    4  0.6376098E-003  0.1495415E+03  0.7818608E-02  0.1201038E+00
         -4   -1    0    0    0  501 -0.00000000000E+00  0.00000000000E+00  0.38784377597E+03  0.38784585528E+03  0.12700000000E+01 0.  1.
         21   -1    0    0  501  502  0.00000000000E+00 -0.00000000000E+00 -0.34808929500E+02  0.34808929500E+02  0.00000000000E+00 0.  1.
         25    2    1    2    0    0  0.54707646379E+02  0.61196205419E+02  0.24382240521E+03  0.28602802183E+03  0.12499904742E+03 0.  0.
    9000005    1    3    3    0    0  0.40293883328E+02  0.17065272141E+02  0.23464678819E+03  0.23869423067E+03  0.10000000000E+01 0.  0.
    9000005    1    3    3    0    0  0.14413763050E+02  0.44130933278E+02  0.91756170169E+01  0.47333791152E+02  0.10000000000E+01 0.  0.
         -4    1    1    2    0  502 -0.54707646379E+02 -0.61196205419E+02  0.10921244126E+03  0.13662676296E+03  0.12700000000E+01 0. -1.
<mgrwt>
<rscale>  1 0.14954151E+03</rscale>
<asrwt>0</asrwt>
<pdfrwt beam="2">  1       21 0.53552202E-02 0.14954151E+03</pdfrwt>
<pdfrwt beam="1">  1       -4 0.59670212E-01 0.14954151E+03</pdfrwt>
<totfact> 0.26364523E+04</totfact>
</mgrwt>
</event>
<event>
 6    4  0.6376098E-003  0.1282759E+03  0.7818608E-02  0.1230037E+00
         -4   -1    0    0    0  501 -0.00000000000E+00  0.00000000000E+00  0.76370713728E+03  0.76370819325E+03  0.12700000000E+01 0.  1.
         21   -1    0    0  501  502  0.00000000000E+00 -0.00000000000E+00 -0.81674557850E+01  0.81674557850E+01  0.00000000000E+00 0.  1.
         25    2    1    2    0    0  0.27688065947E+02  0.78660202704E+01  0.64581757995E+03  0.65843378843E+03  0.12500481549E+03 0.  0.
    9000005    1    3    3    0    0 -0.40402256833E+02 -0.87225249495E+01  0.41897479558E+03  0.42100986227E+03  0.10000000000E+01 0.  0.
    9000005    1    3    3    0    0  0.68090322780E+02  0.16588545220E+02  0.22684278437E+03  0.23742392616E+03  0.10000000000E+01 0.  0.
         -4    1    1    2    0  502 -0.27688065947E+02 -0.78660202704E+01  0.10972210154E+03  0.11344186061E+03  0.12700000000E+01 0. -1.
<mgrwt>
<rscale>  1 0.12827590E+03</rscale>
<asrwt>0</asrwt>
<pdfrwt beam="2">  1       21 0.12565323E-02 0.12827590E+03</pdfrwt>
<pdfrwt beam="1">  1       -4 0.11750103E+00 0.12827590E+03</pdfrwt>
<totfact> 0.60863632E+04</totfact>
</mgrwt>
</event>
<event>
 6    4  0.6376098E-003  0.1276503E+03  0.7818608E-02  0.1230985E+00
         21   -1    0    0  501  502  0.00000000000E+00  0.00000000000E+00  0.14209534210E+04  0.14209534210E+04  0.00000000000E+00 0.  1.
         -4   -1    0    0    0  501 -0.00000000000E+00 -0.00000000000E+00 -0.48700192745E+01  0.50328905943E+01  0.12700000000E+01 0.  1.
         25    2    1    2    0    0 -0.81123999319E+01 -0.24577780980E+02  0.87280117890E+03  0.88208644500E+03  0.12499888080E+03 0.  0.
    9000005    1    3    3    0    0 -0.59754497611E+02 -0.64323099514E+01  0.26059660051E+03  0.26743889544E+03  0.10000000000E+01 0.  0.
    9000005    1    3    3    0    0  0.51642097679E+02 -0.18145471029E+02  0.61220457839E+03  0.61464754956E+03  0.10000000000E+01 0.  0.
         -4    1    1    2    0  502  0.81123999319E+01  0.24577780980E+02  0.54328222279E+03  0.54389986657E+03  0.12700000000E+01 0. -1.
<mgrwt>
<rscale>  1 0.12765030E+03</rscale>
<asrwt>0</asrwt>
<pdfrwt beam="1">  1       21 0.21860789E+00 0.12765030E+03</pdfrwt>
<pdfrwt beam="2">  1       -4 0.76180709E-03 0.12765030E+03</pdfrwt>
<totfact> 0.19052929E+04</totfact>
</mgrwt>
</event>
<event>
 6    4  0.6376098E-003  0.1289189E+03  0.7818608E-02  0.1229069E+00
         -4   -1    0    0    0  501 -0.00000000000E+00  0.00000000000E+00  0.13773760940E+04  0.13773766795E+04  0.12700000000E+01 0.  1.
         21   -1    0    0  501  502  0.00000000000E+00 -0.00000000000E+00 -0.31860315837E+02  0.31860315837E+02  0.00000000000E+00 0. -1.
         25    2    1    2    0    0  0.84441782705E+01  0.30405127463E+02  0.13656902975E+04  0.13717616694E+04  0.12499725264E+03 0.  0.
    9000005    1    3    3    0    0  0.48661626411E+02  0.40723489983E+00  0.23649704211E+03  0.24145386858E+03  0.10000000000E+01 0.  0.
    9000005    1    3    3    0    0 -0.40217448140E+02  0.29997892563E+02  0.11291932554E+04  0.11303078009E+04  0.10000000000E+01 0.  0.
         -4    1    1    2    0  502 -0.84441782705E+01 -0.30405127463E+02 -0.20174519310E+02  0.37475325910E+02  0.12700000000E+01 0. -1.
<mgrwt>
<rscale>  1 0.12891892E+03</rscale>
<asrwt>0</asrwt>
<pdfrwt beam="2">  1       21 0.49015881E-02 0.12891892E+03</pdfrwt>
<pdfrwt beam="1">  1       -4 0.21190596E+00 0.12891892E+03</pdfrwt>
<totfact> 0.14210740E+03</totfact>
</mgrwt>
</event>
<event>
 6    4  0.6376098E-003  0.1272787E+03  0.7818608E-02  0.1231550E+00
          4   -1    0    0  502    0 -0.00000000000E+00  0.00000000000E+00  0.47613521377E+02  0.47630455781E+02  0.12700000000E+01 0. -1.
         21   -1    0    0  501  502  0.00000000000E+00 -0.00000000000E+00 -0.12412374382E+03  0.12412374382E+03  0.00000000000E+00 0. -1.
         25    2    1    2    0    0 -0.50845655829E+01  0.23417116785E+02 -0.52114612629E+02  0.13753471913E+03  0.12500260777E+03 0.  0.
    9000005    1    3    3    0    0 -0.22499607821E+02 -0.43843834954E+02  0.22004934724E+01  0.49339197269E+02  0.10000000000E+01 0.  0.
    9000005    1    3    3    0    0  0.17415042238E+02  0.67260951739E+02 -0.54315106101E+02  0.88195521858E+02  0.10000000000E+01 0.  0.
          4    1    1    2  501    0  0.50845655829E+01 -0.23417116785E+02 -0.24395609811E+02  0.34219480472E+02  0.12700000000E+01 0.  1.
<mgrwt>
<rscale>  1 0.12727869E+03</rscale>
<asrwt>0</asrwt>
<pdfrwt beam="2">  1       21 0.19095961E-01 0.12727869E+03</pdfrwt>
<pdfrwt beam="1">  1        4 0.73269595E-02 0.12727869E+03</pdfrwt>
<totfact> 0.12841039E+05</totfact>
</mgrwt>
</event>
<event>
 6    4  0.6376098E-003  0.1295794E+03  0.7818608E-02  0.1228081E+00
         21   -1    0    0  501  502  0.00000000000E+00  0.00000000000E+00  0.65570912924E+02  0.65570912924E+02  0.00000000000E+00 0.  1.
          4   -1    0    0  502    0 -0.00000000000E+00 -0.00000000000E+00 -0.31724816040E+03  0.31725070240E+03  0.12700000000E+01 0. -1.
         25    2    1    2    0    0  0.18780372408E+02 -0.28488737162E+02 -0.29818605150E+03  0.32512419524E+03  0.12500604182E+03 0.  0.
    9000005    1    3    3    0    0  0.11578961731E+02  0.49638308910E+02 -0.12472761206E+03  0.13474424395E+03  0.10000000000E+01 0.  0.
    9000005    1    3    3    0    0  0.72014106766E+01 -0.78127046072E+02 -0.17345843944E+03  0.19037995129E+03  0.10000000000E+01 0.  0.
          4    1    1    2  501    0 -0.18780372408E+02  0.28488737162E+02  0.46508804023E+02  0.57697420086E+02  0.12700000000E+01 0.  1.
<mgrwt>
<rscale>  1 0.12957940E+03</rscale>
<asrwt>0</asrwt>
<pdfrwt beam="1">  1       21 0.10087833E-01 0.12957940E+03</pdfrwt>
<pdfrwt beam="2">  1        4 0.48808551E-01 0.12957940E+03</pdfrwt>
<totfact> 0.13241432E+04</totfact>
</mgrwt>
</event>
<event>
 6    4  0.6376098E-003  0.1357962E+03  0.7818608E-02  0.1219100E+00
         21   -1    0    0  501  502  0.00000000000E+00  0.00000000000E+00  0.73432276453E+01  0.73432276453E+01  0.00000000000E+00 0.  1.
         -4   -1    0    0    0  501 -0.00000000000E+00 -0.00000000000E+00 -0.16034657431E+04  0.16034662461E+04  0.12700000000E+01 0. -1.
         25    2    1    2    0    0  0.28577985181E+02  0.44711506951E+02 -0.14295266472E+04  0.14359620650E+04  0.12499918840E+03 0.  0.
    9000005    1    3    3    0    0  0.34822848197E+02 -0.27595424919E+02 -0.23079845174E+03  0.23503842996E+03  0.10000000000E+01 0.  0.
    9000005    1    3    3    0    0 -0.62448630158E+01  0.72306931870E+02 -0.11987281954E+04  0.12009236350E+04  0.10000000000E+01 0.  0.
         -4    1    1    2    0  502 -0.28577985181E+02 -0.44711506951E+02 -0.16659586834E+03  0.17484740873E+03  0.12700000000E+01 0.  1.
<mgrwt>
<rscale>  1 0.13579623E+03</rscale>
<asrwt>0</asrwt>
<pdfrwt beam="1">  1       21 0.11297281E-02 0.13579623E+03</pdfrwt>
<pdfrwt beam="2">  1       -4 0.24669537E+00 0.13579623E+03</pdfrwt>
<totfact> 0.96754003E+03</totfact>
</mgrwt>
</event>
<event>
 6    4  0.6376098E-003  0.1287487E+03  0.7818608E-02  0.1229324E+00
          4   -1    0    0  502    0 -0.00000000000E+00  0.00000000000E+00  0.47808995625E+02  0.47825860814E+02  0.12700000000E+01 0.  1.
         21   -1    0    0  501  502  0.00000000000E+00 -0.00000000000E+00 -0.13626454193E+03  0.13626454193E+03  0.00000000000E+00 0.  1.
         25    2    1    2    0    0 -0.18420345170E+02  0.24740847664E+02 -0.59758442661E+02  0.14194119970E+03  0.12499925618E+03 0.  0.
    9000005    1    3    3    0    0  0.49312363713E+01 -0.48681340821E+02 -0.92430318377E+01  0.49805859834E+02  0.10000000000E+01 0.  0.
    9000005    1    3    3    0    0 -0.23351581541E+02  0.73422188485E+02 -0.50515410823E+02  0.92135339870E+02  0.10000000000E+01 0.  0.
          4    1    1    2  501    0  0.18420345170E+02 -0.24740847664E+02 -0.28697103644E+02  0.42149203040E+02  0.12700000000E+01 0. -1.
<mgrwt>
<rscale>  1 0.12874872E+03</rscale>
<asrwt>0</asrwt>
<pdfrwt beam="2">  1       21 0.20963776E-01 0.12874872E+03</pdfrwt>
<pdfrwt beam="1">  1        4 0.73569827E-02 0.12874872E+03</pdfrwt>
<totfact> 0.10751141E+05</totfact>
</mgrwt>
</event>
<event>
 6    4  0.6376098E-003  0.2382932E+03  0.7818608E-02  0.1120935E+00
          4   -1    0    0  502    0 -0.00000000000E+00  0.00000000000E+00  0.15118558367E+03  0.15119091775E+03  0.12700000000E+01 0.  1.
         21   -1    0    0  501  502  0.00000000000E+00 -0.00000000000E+00 -0.34660035075E+03  0.34660035075E+03  0.00000000000E+00 0. -1.
         25    2    1    2    0    0  0.19981152930E+03 -0.35146512469E+02 -0.38667212987E+02  0.24141004222E+03  0.12499492208E+03 0.  0.
    9000005    1    3    3    0    0  0.10195532352E+03  0.41982082792E+02 -0.38545072135E+02  0.11680798712E+03  0.10000000000E+01 0.  0.
    9000005    1    3    3    0    0  0.97856205773E+02 -0.77128595260E+02 -0.12214085209E+00  0.12460205509E+03  0.10000000000E+01 0.  0.
          4    1    1    2  501    0 -0.19981152930E+03  0.35146512469E+02 -0.15674755409E+03  0.25638122628E+03  0.12700000000E+01 0. -1.
<mgrwt>
<rscale>  1 0.23829321E+03</rscale>
<asrwt>0</asrwt>
<pdfrwt beam="2">  1       21 0.53323130E-01 0.23829321E+03</pdfrwt>
<pdfrwt beam="1">  1        4 0.23259910E-01 0.23829321E+03</pdfrwt>
<totfact> 0.24044173E+03</totfact>
</mgrwt>
</event>
<event>
 6    4  0.6376098E-003  0.1312249E+03  0.7818608E-02  0.1225649E+00
         21   -1    0    0  501  502  0.00000000000E+00  0.00000000000E+00  0.16433356974E+03  0.16433356974E+03  0.00000000000E+00 0. -1.
         -4   -1    0    0    0  501 -0.00000000000E+00 -0.00000000000E+00 -0.23422865959E+03  0.23423210257E+03  0.12700000000E+01 0.  1.
         25    2    1    2    0    0 -0.51806423780E+01 -0.39582909787E+02 -0.21289729559E+03  0.25009045705E+03  0.12500532964E+03 0.  0.
    9000005    1    3    3    0    0 -0.62731402179E+02 -0.69701713942E+01 -0.12545946437E+03  0.14044532498E+03  0.10000000000E+01 0.  0.
    9000005    1    3    3    0    0  0.57550759801E+02 -0.32612738393E+02 -0.87437831213E+02  0.10964513207E+03  0.10000000000E+01 0.  0.
         -4    1    1    2    0  502  0.51806423780E+01  0.39582909787E+02  0.14300220573E+03  0.14847521526E+03  0.12700000000E+01 0. -1.
<mgrwt>
<rscale>  1 0.13122491E+03</rscale>
<asrwt>0</asrwt>
<pdfrwt beam="1">  1       21 0.25282088E-01 0.13122491E+03</pdfrwt>
<pdfrwt beam="2">  1       -4 0.36035821E-01 0.13122491E+03</pdfrwt>
<totfact> 0.45596311E+03</totfact>
</mgrwt>
</event>
<event>
 6    4  0.6376098E-003  0.1274254E+03  0.7818608E-02  0.1231327E+00
         21   -1    0    0  501  502  0.00000000000E+00  0.00000000000E+00  0.22157217909E+02  0.22157217909E+02  0.00000000000E+00 0.  1.
         -4   -1    0    0    0  501 -0.00000000000E+00 -0.00000000000E+00 -0.69393750471E+03  0.69393866684E+03  0.12700000000E+01 0. -1.
         25    2    1    2    0    0 -0.24361064454E+02  0.44810646353E+01 -0.67853017304E+03  0.69039150252E+03  0.12499475838E+03 0.  0.
    9000005    1    3    3    0    0 -0.13821225937E+02 -0.57364869313E+02 -0.43151172085E+03  0.43552855216E+03  0.10000000000E+01 0.  0.
    9000005    1    3    3    0    0 -0.10539838516E+02  0.61845933948E+02 -0.24701845219E+03  0.25486295036E+03  0.10000000000E+01 0.  0.
         -4    1    1    2    0  502  0.24361064454E+02 -0.44810646353E+01  0.67498862443E+01  0.25704382231E+02  0.12700000000E+01 0.  1.
<mgrwt>
<rscale>  1 0.12742539E+03</rscale>
<asrwt>0</asrwt>
<pdfrwt beam="1">  1       21 0.34088027E-02 0.12742539E+03</pdfrwt>
<pdfrwt beam="2">  1       -4 0.10676251E+00 0.12742539E+03</pdfrwt>
<totfact> 0.15195132E+04</totfact>
</mgrwt>
</event>
<event>
 6    4  0.6376098E-003  0.1278944E+03  0.7818608E-02  0.1230614E+00
          4   -1    0    0  502    0 -0.00000000000E+00  0.00000000000E+00  0.16507910276E+04  0.16507915161E+04  0.12700000000E+01 0. -1.
         21   -1    0    0  501  502  0.00000000000E+00 -0.00000000000E+00 -0.28194901071E+02  0.28194901071E+02  0.00000000000E+00 0.  1.
         25    2    1    2    0    0  0.24228640674E+02  0.12051564037E+02  0.16411664760E+04  0.16461422699E+04  0.12499881487E+03 0.  0.
    9000005    1    3    3    0    0  0.68749661041E+02 -0.12453077593E+02  0.12049598071E+04  0.12069841473E+04  0.10000000000E+01 0.  0.
    9000005    1    3    3    0    0 -0.44521020368E+02  0.24504641630E+02  0.43620666891E+03  0.43915812268E+03  0.10000000000E+01 0.  0.
          4    1    1    2  501    0 -0.24228640674E+02 -0.12051564037E+02 -0.18570349516E+02  0.32844147207E+02  0.12700000000E+01 0.  1.
<mgrwt>
<rscale>  1 0.12789437E+03</rscale>
<asrwt>0</asrwt>
<pdfrwt beam="2">  1       21 0.43376784E-02 0.12789437E+03</pdfrwt>
<pdfrwt beam="1">  1        4 0.25397001E+00 0.12789437E+03</pdfrwt>
<totfact> 0.98816546E+02</totfact>
</mgrwt>
</event>
<event>
 6    4  0.6376098E-003  0.1980828E+03  0.7818608E-02  0.1151367E+00
         21   -1    0    0  501  502  0.00000000000E+00  0.00000000000E+00  0.11782418092E+04  0.11782418092E+04  0.00000000000E+00 0.  1.
         -4   -1    0    0    0  501 -0.00000000000E+00 -0.00000000000E+00 -0.61559793900E+02  0.61572892778E+02  0.12700000000E+01 0. -1.
         25    2    1    2    0    0 -0.15358705095E+03 -0.47428431398E+01  0.12051081622E+03  0.23186125684E+03  0.12500123527E+03 0.  0.
    9000005    1    3    3    0    0 -0.16881998550E+02  0.11195722532E+02 -0.24584915892E+02  0.31871055324E+02  0.10000000000E+01 0.  0.
    9000005    1    3    3    0    0 -0.13670505240E+03 -0.15938565672E+02  0.14509573211E+03  0.19999020152E+03  0.10000000000E+01 0.  0.
         -4    1    1    2    0  502  0.15358705095E+03  0.47428431398E+01  0.99617119910E+03  0.10079534452E+04  0.12700000000E+01 0.  1.
<mgrwt>
<rscale>  1 0.19808277E+03</rscale>
<asrwt>0</asrwt>
<pdfrwt beam="1">  1       21 0.18126795E+00 0.19808277E+03</pdfrwt>
<pdfrwt beam="2">  1       -4 0.94717986E-02 0.19808277E+03</pdfrwt>
<totfact> 0.62351770E+02</totfact>
</mgrwt>
</event>
<event>
 6    4  0.6376098E-003  0.1326019E+03  0.7818608E-02  0.1223645E+00
         21   -1    0    0  501  502  0.00000000000E+00  0.00000000000E+00  0.30502202016E+02  0.30502202016E+02  0.00000000000E+00 0.  1.
         -4   -1    0    0    0  501 -0.00000000000E+00 -0.00000000000E+00 -0.99252841075E+03  0.99252922327E+03  0.12700000000E+01 0. -1.
         25    2    1    2    0    0 -0.25305147890E+02 -0.36294895671E+02 -0.96916619739E+03  0.97819547654E+03  0.12500240877E+03 0.  0.
    9000005    1    3    3    0    0  0.16487479620E+02 -0.12181246881E+02 -0.84090218836E+03  0.84115260812E+03  0.10000000000E+01 0.  0.
    9000005    1    3    3    0    0 -0.41792627510E+02 -0.24113648790E+02 -0.12826400903E+03  0.13704286842E+03  0.10000000000E+01 0.  0.
         -4    1    1    2    0  502  0.25305147890E+02  0.36294895671E+02  0.71399886606E+01  0.44835948742E+02  0.12700000000E+01 0.  1.
<mgrwt>
<rscale>  1 0.13260193E+03</rscale>
<asrwt>0</asrwt>
<pdfrwt beam="1">  1       21 0.46926466E-02 0.13260193E+03</pdfrwt>
<pdfrwt beam="2">  1       -4 0.15269877E+00 0.13260193E+03</pdfrwt>
<totfact> 0.37448999E+03</totfact>
</mgrwt>
</event>
<event>
 6    4  0.6376098E-003  0.1267489E+03  0.7818608E-02  0.1232361E+00
         21   -1    0    0  501  502  0.00000000000E+00  0.00000000000E+00  0.90279995501E+02  0.90279995501E+02  0.00000000000E+00 0. -1.
         -4   -1    0    0    0  501 -0.00000000000E+00 -0.00000000000E+00 -0.20637262639E+03  0.20637653409E+03  0.12700000000E+01 0.  1.
         25    2    1    2    0    0  0.16767856778E+01  0.20909156164E+02 -0.18520261978E+03  0.22442213414E+03  0.12500111797E+03 0.  0.
    9000005    1    3    3    0    0 -0.37401842251E+02  0.46632872991E+02 -0.40174902862E+02  0.72031558827E+02  0.10000000000E+01 0.  0.
    9000005    1    3    3    0    0  0.39078627928E+02 -0.25723716826E+02 -0.14502771692E+03  0.15239057531E+03  0.10000000000E+01 0.  0.
         -4    1    1    2    0  502 -0.16767856778E+01 -0.20909156164E+02  0.69109988894E+02  0.72234395454E+02  0.12700000000E+01 0. -1.
<mgrwt>
<rscale>  1 0.12674890E+03</rscale>
<asrwt>0</asrwt>
<pdfrwt beam="1">  1       21 0.13889230E-01 0.12674890E+03</pdfrwt>
<pdfrwt beam="2">  1       -4 0.31750622E-01 0.12674890E+03</pdfrwt>
<totfact> 0.17438888E+04</totfact>
</mgrwt>
</event>
<event>
 6    4  0.6376098E-003  0.1686317E+03  0.7818608E-02  0.1179282E+00
          4   -1    0    0  502    0 -0.00000000000E+00  0.00000000000E+00  0.50193645754E+02  0.50209709958E+02  0.12700000000E+01 0.  1.
         21   -1    0    0  501  502  0.00000000000E+00 -0.00000000000E+00 -0.65666673732E+03  0.65666673732E+03  0.00000000000E+00 0. -1.
         25    2    1    2    0    0 -0.10115813337E+03 -0.50787186816E+02 -0.11889759963E+03  0.20633296313E+03  0.12499738470E+03 0.  0.
    9000005    1    3    3    0    0 -0.24610043065E+02  0.39911446571E+02 -0.52254703052E+02  0.70214897124E+02  0.10000000000E+01 0.  0.
    9000005    1    3    3    0    0 -0.76548090308E+02 -0.90698633387E+02 -0.66642896582E+02  0.13611806601E+03  0.10000000000E+01 0.  0.
          4    1    1    2  501    0  0.10115813337E+03  0.50787186816E+02 -0.48757549193E+03  0.50054348415E+03  0.12700000000E+01 0. -1.
<mgrwt>
<rscale>  1 0.16863171E+03</rscale>
<asrwt>0</asrwt>
<pdfrwt beam="2">  1       21 0.10102565E+00 0.16863171E+03</pdfrwt>
<pdfrwt beam="1">  1        4 0.77234295E-02 0.16863171E+03</pdfrwt>
<totfact> 0.39360676E+03</totfact>
</mgrwt>
</event>
<event>
 6    4  0.6376098E-003  0.1268890E+03  0.7818608E-02  0.1232146E+00
         21   -1    0    0  501  502  0.00000000000E+00  0.00000000000E+00  0.39218671816E+03  0.39218671816E+03  0.00000000000E+00 0.  1.
         -4   -1    0    0    0  501 -0.00000000000E+00 -0.00000000000E+00 -0.16950109870E+02  0.16997621146E+02  0.12700000000E+01 0.  1.
         25    2    1    2    0    0 -0.14259975747E+02  0.16522656943E+02  0.23330360411E+03  0.26557746037E+03  0.12499788265E+03 0.  0.
    9000005    1    3    3    0    0 -0.14773284703E+01 -0.23244666398E+02 -0.48282087241E+01  0.23807742749E+02  0.10000000000E+01 0.  0.
    9000005    1    3    3    0    0 -0.12782647276E+02  0.39767323341E+02  0.23813181283E+03  0.24176971762E+03  0.10000000000E+01 0.  0.
         -4    1    1    2    0  502  0.14259975747E+02 -0.16522656943E+02  0.14193300418E+03  0.14360687893E+03  0.12700000000E+01 0. -1.
<mgrwt>
<rscale>  1 0.12688899E+03</rscale>
<asrwt>0</asrwt>
<pdfrwt beam="1">  1       21 0.60336411E-01 0.12688899E+03</pdfrwt>
<pdfrwt beam="2">  1       -4 0.26115224E-02 0.12688899E+03</pdfrwt>
<totfact> 0.69431892E+04</totfact>
</mgrwt>
</event>
<event>
 6    4  0.6376098E-003  0.1266651E+03  0.7818608E-02  0.1232490E+00
         21   -1    0    0  501  502  0.00000000000E+00  0.00000000000E+00  0.17886204620E+03  0.17886204620E+03  0.00000000000E+00 0.  1.
         -4   -1    0    0    0  501 -0.00000000000E+00 -0.00000000000E+00 -0.81972876542E+02  0.81982713962E+02  0.12700000000E+01 0. -1.
         25    2    1    2    0    0  0.20256093441E+02 -0.28071906647E+01 -0.31750324578E+02  0.13058378359E+03  0.12500340709E+03 0.  0.
    9000005    1    3    3    0    0  0.67022859218E+02  0.14040882306E+02  0.51336936125E+01  0.68677251283E+02  0.10000000000E+01 0.  0.
    9000005    1    3    3    0    0 -0.46766765777E+02 -0.16848072971E+02 -0.36884018190E+02  0.61906532304E+02  0.10000000000E+01 0.  0.
         -4    1    1    2    0  502 -0.20256093441E+02  0.28071906647E+01  0.12863949423E+03  0.13026097657E+03  0.12700000000E+01 0.  1.
<mgrwt>
<rscale>  1 0.12666508E+03</rscale>
<asrwt>0</asrwt>
<pdfrwt beam="1">  1       21 0.27517238E-01 0.12666508E+03</pdfrwt>
<pdfrwt beam="2">  1       -4 0.12612315E-01 0.12666508E+03</pdfrwt>
<totfact> 0.26021284E+04</totfact>
</mgrwt>
</event>
<event>
 6    4  0.6376098E-003  0.1280001E+03  0.7818608E-02  0.1230454E+00
         21   -1    0    0  501  502  0.00000000000E+00  0.00000000000E+00  0.25020474778E+03  0.25020474778E+03  0.00000000000E+00 0.  1.
         -4   -1    0    0    0  501 -0.00000000000E+00 -0.00000000000E+00 -0.24338727314E+02  0.24371839226E+02  0.12700000000E+01 0.  1.
         25    2    1    2    0    0  0.27232780720E+02 -0.41242881001E+01  0.17643392982E+03  0.21797465609E+03  0.12500154002E+03 0.  0.
    9000005    1    3    3    0    0  0.78564541952E+01  0.39061060926E+02  0.16434949340E+03  0.16911311698E+03  0.10000000000E+01 0.  0.
    9000005    1    3    3    0    0  0.19376326525E+02 -0.43185349026E+02  0.12084436412E+02  0.48861539103E+02  0.10000000000E+01 0.  0.
         -4    1    1    2    0  502 -0.27232780720E+02  0.41242881001E+01  0.49432090652E+02  0.56601930924E+02  0.12700000000E+01 0. -1.
<mgrwt>
<rscale>  1 0.12800007E+03</rscale>
<asrwt>0</asrwt>
<pdfrwt beam="1">  1       21 0.38493036E-01 0.12800007E+03</pdfrwt>
<pdfrwt beam="2">  1       -4 0.37472148E-02 0.12800007E+03</pdfrwt>
<totfact> 0.99296393E+04</totfact>
</mgrwt>
</event>
<event>
 6    4  0.6376098E-003  0.1470488E+03  0.7818608E-02  0.1204147E+00
         21   -1    0    0  501  502  0.00000000000E+00  0.00000000000E+00  0.13901206043E+03  0.13901206043E+03  0.00000000000E+00 0.  1.
         -4   -1    0    0    0  501 -0.00000000000E+00 -0.00000000000E+00 -0.14489428283E+03  0.14489984850E+03  0.12700000000E+01 0. -1.
         25    2    1    2    0    0  0.51220933011E+02  0.58095026513E+02 -0.87722101159E+02  0.17122652950E+03  0.12499896514E+03 0.  0.
    9000005    1    3    3    0    0  0.76171128850E+02 -0.19014788980E+01 -0.70935453954E+02  0.10410809344E+03  0.10000000000E+01 0.  0.
    9000005    1    3    3    0    0 -0.24950195839E+02  0.59996505411E+02 -0.16786647205E+02  0.67118436054E+02  0.10000000000E+01 0.  0.
         -4    1    1    2    0  502 -0.51220933011E+02 -0.58095026513E+02  0.81839878759E+02  0.11268537944E+03  0.12700000000E+01 0.  1.
<mgrwt>
<rscale>  1 0.14704883E+03</rscale>
<asrwt>0</asrwt>
<pdfrwt beam="1">  1       21 0.21386471E-01 0.14704883E+03</pdfrwt>
<pdfrwt beam="2">  1       -4 0.22292303E-01 0.14704883E+03</pdfrwt>
<totfact> 0.15522155E+04</totfact>
</mgrwt>
</event>
<event>
 6    4  0.6376098E-003  0.1387235E+03  0.7818608E-02  0.1215057E+00
          4   -1    0    0  502    0 -0.00000000000E+00  0.00000000000E+00  0.10944553056E+04  0.10944560425E+04  0.12700000000E+01 0. -1.
         21   -1    0    0  501  502  0.00000000000E+00 -0.00000000000E+00 -0.10348755843E+02  0.10348755843E+02  0.00000000000E+00 0.  1.
         25    2    1    2    0    0  0.57203284977E+02 -0.18634830663E+02  0.91180659297E+03  0.92229901555E+03  0.12499895350E+03 0.  0.
    9000005    1    3    3    0    0  0.24703427787E+02  0.34269499301E+02  0.70757149789E+03  0.70883219633E+03  0.10000000000E+01 0.  0.
    9000005    1    3    3    0    0  0.32499857189E+02 -0.52904329964E+02  0.20423509509E+03  0.21346681923E+03  0.10000000000E+01 0.  0.
          4    1    1    2  501    0 -0.57203284977E+02  0.18634830663E+02  0.17229995679E+03  0.18250578275E+03  0.12700000000E+01 0.  1.
<mgrwt>
<rscale>  1 0.13872351E+03</rscale>
<asrwt>0</asrwt>
<pdfrwt beam="2">  1       21 0.15921171E-02 0.13872351E+03</pdfrwt>
<pdfrwt beam="1">  1        4 0.16838370E+00 0.13872351E+03</pdfrwt>
<totfact> 0.17084529E+04</totfact>
</mgrwt>
</event>
<event>
 6    4  0.6376098E-003  0.1343030E+03  0.7818608E-02  0.1221207E+00
         -4   -1    0    0    0  501 -0.00000000000E+00  0.00000000000E+00  0.90435602197E+02  0.90444519152E+02  0.12700000000E+01 0. -1.
         21   -1    0    0  501  502  0.00000000000E+00 -0.00000000000E+00 -0.94169350063E+02  0.94169350063E+02  0.00000000000E+00 0. -1.
         25    2    1    2    0    0  0.23662858035E+02  0.43038033642E+02  0.63747051208E+01  0.13445415518E+03  0.12500031916E+03 0.  0.
    9000005    1    3    3    0    0  0.67669892885E+02  0.56390784893E+02  0.59706005816E+00  0.88093651898E+02  0.10000000000E+01 0.  0.
    9000005    1    3    3    0    0 -0.44007034850E+02 -0.13352751252E+02  0.57776450626E+01  0.46360503284E+02  0.10000000000E+01 0.  0.
         -4    1    1    2    0  502 -0.23662858035E+02 -0.43038033642E+02 -0.10108452987E+02  0.50159714033E+02  0.12700000000E+01 0.  1.
<mgrwt>
<rscale>  1 0.13430295E+03</rscale>
<asrwt>0</asrwt>
<pdfrwt beam="2">  1       21 0.14487592E-01 0.13430295E+03</pdfrwt>
<pdfrwt beam="1">  1       -4 0.13914514E-01 0.13430295E+03</pdfrwt>
<totfact> 0.72494077E+04</totfact>
</mgrwt>
</event>
<event>
 6    4  0.6376098E-003  0.1287594E+03  0.7818608E-02  0.1229308E+00
         -4   -1    0    0    0  501 -0.00000000000E+00  0.00000000000E+00  0.70818240023E+03  0.70818353899E+03  0.12700000000E+01 0.  1.
         21   -1    0    0  501  502  0.00000000000E+00 -0.00000000000E+00 -0.95311785790E+01  0.95311785790E+01  0.00000000000E+00 0.  1.
         25    2    1    2    0    0 -0.20531599062E+02 -0.23064270493E+02  0.61959347253E+03  0.63283098692E+03  0.12500191865E+03 0.  0.
    9000005    1    3    3    0    0  0.39343344172E+02  0.29413569069E+02  0.23445777158E+03  0.23955062811E+03  0.10000000000E+01 0.  0.
    9000005    1    3    3    0    0 -0.59874943234E+02 -0.52477839562E+02  0.38513570096E+03  0.39328035881E+03  0.10000000000E+01 0.  0.
         -4    1    1    2    0  502  0.20531599062E+02  0.23064270493E+02  0.79057749120E+02  0.84883730651E+02  0.12700000000E+01 0. -1.
<mgrwt>
<rscale>  1 0.12875941E+03</rscale>
<asrwt>0</asrwt>
<pdfrwt beam="2">  1       21 0.14663357E-02 0.12875941E+03</pdfrwt>
<pdfrwt beam="1">  1       -4 0.10895769E+00 0.12875941E+03</pdfrwt>
<totfact> 0.56930720E+04</totfact>
</mgrwt>
</event>
<event>
 6    4  0.6376098E-003  0.1274996E+03  0.7818608E-02  0.1231214E+00
         -4   -1    0    0    0  501 -0.00000000000E+00  0.00000000000E+00  0.60752301509E+03  0.60752434253E+03  0.12700000000E+01 0. -1.
         21   -1    0    0  501  502  0.00000000000E+00 -0.00000000000E+00 -0.21829265569E+02  0.21829265569E+02  0.00000000000E+00 0.  1.
         25    2    1    2    0    0 -0.24603588086E+02 -0.51765306329E+01  0.59016918742E+03  0.60378457486E+03  0.12499604012E+03 0.  0.
    9000005    1    3    3    0    0 -0.61305258632E+02  0.59514757299E+01  0.15300545104E+03  0.16494066463E+03  0.10000000000E+01 0.  0.
    9000005    1    3    3    0    0  0.36701670546E+02 -0.11128006363E+02  0.43716373638E+03  0.43884391024E+03  0.10000000000E+01 0.  0.
         -4    1    1    2    0  502  0.24603588086E+02  0.51765306329E+01 -0.44754378993E+01  0.25569033234E+02  0.12700000000E+01 0.  1.
<mgrwt>
<rscale>  1 0.12749958E+03</rscale>
<asrwt>0</asrwt>
<pdfrwt beam="2">  1       21 0.33583490E-02 0.12749958E+03</pdfrwt>
<pdfrwt beam="1">  1       -4 0.93468010E-01 0.12749958E+03</pdfrwt>
<totfact> 0.21171318E+04</totfact>
</mgrwt>
</event>
<event>
 6    4  0.6376098E-003  0.1312528E+03  0.7818608E-02  0.1225609E+00
         -4   -1    0    0    0  501 -0.00000000000E+00  0.00000000000E+00  0.98642612907E+02  0.98650788041E+02  0.12700000000E+01 0. -1.
         21   -1    0    0  501  502  0.00000000000E+00 -0.00000000000E+00 -0.80011847780E+02  0.80011847780E+02  0.00000000000E+00 0. -1.
         25    2    1    2    0    0  0.35981641818E+02 -0.17697607717E+02  0.34189594036E+02  0.13563271688E+03  0.12497768474E+03 0.  0.
    9000005    1    3    3    0    0  0.88942453810E+01  0.52777099034E+02  0.20509658022E+01  0.53569919209E+02  0.10000000000E+01 0.  0.
    9000005    1    3    3    0    0  0.27087396437E+02 -0.70474706751E+02  0.32138628234E+02  0.82062797674E+02  0.10000000000E+01 0.  0.
         -4    1    1    2    0  502 -0.35981641818E+02  0.17697607717E+02 -0.15558828909E+02  0.43029918938E+02  0.12700000000E+01 0.  1.
<mgrwt>
<rscale>  1 0.13125283E+03</rscale>
<asrwt>0</asrwt>
<pdfrwt beam="2">  1       21 0.12309515E-01 0.13125283E+03</pdfrwt>
<pdfrwt beam="1">  1       -4 0.15177191E-01 0.13125283E+03</pdfrwt>
<totfact> 0.83147352E+04</totfact>
</mgrwt>
</event>
<event>
 6    4  0.6376098E-003  0.1268138E+03  0.7818608E-02  0.1232262E+00
          4   -1    0    0  502    0 -0.00000000000E+00  0.00000000000E+00  0.57135183304E+02  0.57149296331E+02  0.12700000000E+01 0.  1.
         21   -1    0    0  501  502  0.00000000000E+00 -0.00000000000E+00 -0.17442727295E+03  0.17442727295E+03  0.00000000000E+00 0. -1.
         25    2    1    2    0    0  0.13588382559E+02 -0.16479144566E+02 -0.15730713245E+02  0.12778575840E+03  0.12500215344E+03 0.  0.
    9000005    1    3    3    0    0  0.17741258313E+02 -0.62437039461E+02 -0.39376635799E+02  0.75925329041E+02  0.10000000000E+01 0.  0.
    9000005    1    3    3    0    0 -0.41528757542E+01  0.45957894895E+02  0.23645922554E+02  0.51860429362E+02  0.10000000000E+01 0.  0.
          4    1    1    2  501    0 -0.13588382559E+02  0.16479144566E+02 -0.10156137640E+03  0.10379081087E+03  0.12700000000E+01 0. -1.
<mgrwt>
<rscale>  1 0.12681382E+03</rscale>
<asrwt>0</asrwt>
<pdfrwt beam="2">  1       21 0.26834964E-01 0.12681382E+03</pdfrwt>
<pdfrwt beam="1">  1        4 0.87914697E-02 0.12681382E+03</pdfrwt>
<totfact> 0.50236905E+04</totfact>
</mgrwt>
</event>
<event>
 6    4  0.6376098E-003  0.1334801E+03  0.7818608E-02  0.1222381E+00
         -4   -1    0    0    0  501 -0.00000000000E+00  0.00000000000E+00  0.99731483598E+02  0.99739569483E+02  0.12700000000E+01 0. -1.
         21   -1    0    0  501  502  0.00000000000E+00 -0.00000000000E+00 -0.12519401471E+03  0.12519401471E+03  0.00000000000E+00 0.  1.
         25    2    1    2    0    0  0.41155457387E+02 -0.22227979085E+02  0.44555140263E+02  0.14071991587E+03  0.12501631683E+03 0.  0.
    9000005    1    3    3    0    0 -0.17131530971E+02 -0.57313750297E+02  0.41115088540E+02  0.72593428299E+02  0.10000000000E+01 0.  0.
    9000005    1    3    3    0    0  0.58286988358E+02  0.35085771213E+02  0.34400517226E+01  0.68126487575E+02  0.10000000000E+01 0.  0.
         -4    1    1    2    0  502 -0.41155457387E+02  0.22227979085E+02 -0.70017671372E+02  0.84213668316E+02  0.12700000000E+01 0.  1.
<mgrwt>
<rscale>  1 0.13348009E+03</rscale>
<asrwt>0</asrwt>
<pdfrwt beam="2">  1       21 0.19260617E-01 0.13348009E+03</pdfrwt>
<pdfrwt beam="1">  1       -4 0.15344423E-01 0.13348009E+03</pdfrwt>
<totfact> 0.36376757E+04</totfact>
</mgrwt>
</event>
<event>
 6    4  0.6376098E-003  0.1327080E+03  0.7818608E-02  0.1223492E+00
         -4   -1    0    0    0  501 -0.00000000000E+00  0.00000000000E+00  0.18706065195E+03  0.18706496306E+03  0.12700000000E+01 0. -1.
         21   -1    0    0  501  502  0.00000000000E+00 -0.00000000000E+00 -0.42514108127E+02  0.42514108127E+02  0.00000000000E+00 0. -1.
         25    2    1    2    0    0 -0.43398123165E+02  0.10072260111E+02  0.96785350752E+02  0.16425226214E+03  0.12500621576E+03 0.  0.
    9000005    1    3    3    0    0  0.22560369105E+02  0.38382324890E+02  0.98798213667E+00  0.44543789991E+02  0.10000000000E+01 0.  0.
    9000005    1    3    3    0    0 -0.65958492270E+02 -0.28310064778E+02  0.95797368615E+02  0.11970847215E+03  0.10000000000E+01 0.  0.
         -4    1    1    2    0  502  0.43398123165E+02 -0.10072260111E+02  0.47761193066E+02  0.65326809053E+02  0.12700000000E+01 0.  1.
<mgrwt>
<rscale>  1 0.13270796E+03</rscale>
<asrwt>0</asrwt>
<pdfrwt beam="2">  1       21 0.65406322E-02 0.13270796E+03</pdfrwt>
<pdfrwt beam="1">  1       -4 0.28780352E-01 0.13270796E+03</pdfrwt>
<totfact> 0.78587605E+04</totfact>
</mgrwt>
</event>
