<event>
 5    1  0.3486589E-002  0.1250086E+03  0.7818608E-02  0.1235056E+00
          4   -1    0    0  501    0  0.00000000000E+00  0.00000000000E+00  0.63358394171E+01  0.64618697850E+01  0.12700000000E+01 0. -1.
         -4   -1    0    0    0  501 -0.00000000000E+00 -0.00000000000E+00 -0.61041769495E+03  0.61041901609E+03  0.12700000000E+01 0. -1.
         25    2    1    2    0    0  0.00000000000E+00  0.00000000000E+00 -0.60408185553E+03  0.61688088588E+03  0.12500855642E+03 0.  0.
    9000005    1    3    3    0    0  0.98016451096E+01 -0.59862079786E+02 -0.22781595239E+03  0.23575548563E+03  0.10000000000E+01 0.  0.
    9000005    1    3    3    0    0 -0.98016451096E+01  0.59862079786E+02 -0.37626590315E+03  0.38112540025E+03  0.10000000000E+01 0.  0.
<mgrwt>
<rscale>  0 0.12500856E+03</rscale>
<asrwt>0</asrwt>
<pdfrwt beam="1">  1        4 0.98454127E-03 0.12500856E+03</pdfrwt>
<pdfrwt beam="2">  1       -4 0.93920165E-01 0.12500856E+03</pdfrwt>
<totfact> 0.47810138E+03</totfact>
</mgrwt>
</event>
<event>
 5    1  0.3486589E-002  0.1249983E+03  0.7818608E-02  0.1235072E+00
         -4   -1    0    0    0  501 -0.00000000000E+00  0.00000000000E+00  0.34398910310E+02  0.34422346383E+02  0.12700000000E+01 0. -1.
          4   -1    0    0  501    0  0.00000000000E+00 -0.00000000000E+00 -0.11348855954E+03  0.11349566532E+03  0.12700000000E+01 0. -1.
         25    2    1    2    0    0  0.00000000000E+00  0.00000000000E+00 -0.79089649231E+02  0.14791801170E+03  0.12499826227E+03 0.  0.
    9000005    1    3    3    0    0 -0.55995002870E+01  0.62150674645E+02 -0.35605703624E+02  0.71852814091E+02  0.10000000000E+01 0.  0.
    9000005    1    3    3    0    0  0.55995002870E+01 -0.62150674645E+02 -0.43483945607E+02  0.76065197613E+02  0.10000000000E+01 0.  0.
<mgrwt>
<rscale>  0 0.12499826E+03</rscale>
<asrwt>0</asrwt>
<pdfrwt beam="2">  1        4 0.17462128E-01 0.12499826E+03</pdfrwt>
<pdfrwt beam="1">  1       -4 0.52944895E-02 0.12499826E+03</pdfrwt>
<totfact> 0.99724242E+03</totfact>
</mgrwt>
</event>
<event>
 5    1  0.3486589E-002  0.1250014E+03  0.7818608E-02  0.1235067E+00
         -4   -1    0    0    0  501 -0.00000000000E+00  0.00000000000E+00  0.55914579270E+03  0.55914723498E+03  0.12700000000E+01 0.  1.
          4   -1    0    0  501    0  0.00000000000E+00 -0.00000000000E+00 -0.69270770958E+01  0.70425348484E+01  0.12700000000E+01 0.  1.
         25    2    1    2    0    0  0.00000000000E+00  0.00000000000E+00  0.55221871560E+03  0.56618976983E+03  0.12500138240E+03 0.  0.
    9000005    1    3    3    0    0 -0.34491989039E+02 -0.41954699878E+02  0.41611625255E+03  0.41964703000E+03  0.10000000000E+01 0.  0.
    9000005    1    3    3    0    0  0.34491989039E+02  0.41954699878E+02  0.13610246305E+03  0.14654273983E+03  0.10000000000E+01 0.  0.
<mgrwt>
<rscale>  0 0.12500138E+03</rscale>
<asrwt>0</asrwt>
<pdfrwt beam="2">  1        4 0.10746970E-02 0.12500138E+03</pdfrwt>
<pdfrwt beam="1">  1       -4 0.86031379E-01 0.12500138E+03</pdfrwt>
<totfact> 0.51072279E+03</totfact>
</mgrwt>
</event>
<event>
 5    1  0.3486589E-002  0.1249971E+03  0.7818608E-02  0.1235074E+00
          4   -1    0    0  501    0  0.00000000000E+00  0.00000000000E+00  0.29553521645E+03  0.29553794521E+03  0.12700000000E+01 0.  1.
         -4   -1    0    0    0  501 -0.00000000000E+00 -0.00000000000E+00 -0.13183635159E+02  0.13244664435E+02  0.12700000000E+01 0.  1.
         25    2    1    2    0    0  0.00000000000E+00  0.00000000000E+00  0.28235158129E+03  0.30878260965E+03  0.12499713823E+03 0.  0.
    9000005    1    3    3    0    0 -0.54016614799E+02 -0.29594585105E+02  0.16725338154E+03  0.17823671838E+03  0.10000000000E+01 0.  0.
    9000005    1    3    3    0    0  0.54016614799E+02  0.29594585105E+02  0.11509819975E+03  0.13054589127E+03  0.10000000000E+01 0.  0.
<mgrwt>
<rscale>  0 0.12499714E+03</rscale>
<asrwt>0</asrwt>
<pdfrwt beam="1">  1        4 0.45471859E-01 0.12499714E+03</pdfrwt>
<pdfrwt beam="2">  1       -4 0.20331561E-02 0.12499714E+03</pdfrwt>
<totfact> 0.74514939E+03</totfact>
</mgrwt>
</event>
<event>
 5    1  0.3486589E-002  0.1250015E+03  0.7818608E-02  0.1235067E+00
          4   -1    0    0  501    0  0.00000000000E+00  0.00000000000E+00  0.24706368443E+02  0.24738988290E+02  0.12700000000E+01 0.  1.
         -4   -1    0    0    0  501 -0.00000000000E+00 -0.00000000000E+00 -0.15797128032E+03  0.15797638528E+03  0.12700000000E+01 0.  1.
         25    2    1    2    0    0  0.00000000000E+00  0.00000000000E+00 -0.13326491188E+03  0.18271537357E+03  0.12500148399E+03 0.  0.
    9000005    1    3    3    0    0 -0.24948251265E+02 -0.54944474815E+02 -0.90383809549E+02  0.10868092557E+03  0.10000000000E+01 0.  0.
    9000005    1    3    3    0    0  0.24948251265E+02  0.54944474815E+02 -0.42881102327E+02  0.74034448000E+02  0.10000000000E+01 0.  0.
<mgrwt>
<rscale>  0 0.12500148E+03</rscale>
<asrwt>0</asrwt>
<pdfrwt beam="1">  1        4 0.38038818E-02 0.12500148E+03</pdfrwt>
<pdfrwt beam="2">  1       -4 0.24306175E-01 0.12500148E+03</pdfrwt>
<totfact> 0.93127401E+03</totfact>
</mgrwt>
</event>
<event>
 5    1  0.3486589E-002  0.1250004E+03  0.7818608E-02  0.1235069E+00
         -4   -1    0    0    0  501 -0.00000000000E+00  0.00000000000E+00  0.40597320774E+02  0.40617180528E+02  0.12700000000E+01 0. -1.
          4   -1    0    0  501    0  0.00000000000E+00 -0.00000000000E+00 -0.96172483143E+02  0.96180868232E+02  0.12700000000E+01 0. -1.
         25    2    1    2    0    0  0.00000000000E+00  0.00000000000E+00 -0.55575162368E+02  0.13679804876E+03  0.12500042989E+03 0.  0.
    9000005    1    3    3    0    0 -0.60102673924E+02  0.11226367220E+01 -0.90968819075E+01  0.60805797309E+02  0.10000000000E+01 0.  0.
    9000005    1    3    3    0    0  0.60102673924E+02 -0.11226367220E+01 -0.46478280461E+02  0.75992251451E+02  0.10000000000E+01 0.  0.
<mgrwt>
<rscale>  0 0.12500043E+03</rscale>
<asrwt>0</asrwt>
<pdfrwt beam="2">  1        4 0.14797939E-01 0.12500043E+03</pdfrwt>
<pdfrwt beam="1">  1       -4 0.62479144E-02 0.12500043E+03</pdfrwt>
<totfact> 0.10200211E+04</totfact>
</mgrwt>
</event>
<event>
 5    1  0.3486589E-002  0.1250055E+03  0.7818608E-02  0.1235061E+00
          4   -1    0    0  501    0  0.00000000000E+00  0.00000000000E+00  0.21774916580E+03  0.21775286934E+03  0.12700000000E+01 0.  1.
         -4   -1    0    0    0  501 -0.00000000000E+00 -0.00000000000E+00 -0.17914448576E+02  0.17959408893E+02  0.12700000000E+01 0.  1.
         25    2    1    2    0    0  0.00000000000E+00  0.00000000000E+00  0.19983471722E+03  0.23571227823E+03  0.12500545549E+03 0.  0.
    9000005    1    3    3    0    0  0.17226688438E+02  0.10458530888E+02  0.21146315702E+03  0.21242364850E+03  0.10000000000E+01 0.  0.
    9000005    1    3    3    0    0 -0.17226688438E+02 -0.10458530888E+02 -0.11628439800E+02  0.23288629737E+02  0.10000000000E+01 0.  0.
<mgrwt>
<rscale>  0 0.12500546E+03</rscale>
<asrwt>0</asrwt>
<pdfrwt beam="1">  1        4 0.33503614E-01 0.12500546E+03</pdfrwt>
<pdfrwt beam="2">  1       -4 0.27598125E-02 0.12500546E+03</pdfrwt>
<totfact> 0.84429847E+03</totfact>
</mgrwt>
</event>
<event>
 5    1  0.3486589E-002  0.1249992E+03  0.7818608E-02  0.1235071E+00
         -4   -1    0    0    0  501 -0.00000000000E+00  0.00000000000E+00  0.16069719333E+03  0.16070221169E+03  0.12700000000E+01 0. -1.
          4   -1    0    0  501    0  0.00000000000E+00 -0.00000000000E+00 -0.24285826722E+02  0.24319010662E+02  0.12700000000E+01 0. -1.
         25    2    1    2    0    0  0.00000000000E+00  0.00000000000E+00  0.13641136661E+03  0.18502122236E+03  0.12499916713E+03 0.  0.
    9000005    1    3    3    0    0  0.25187194671E+02  0.51490362604E+02  0.10504835451E+03  0.11967376071E+03  0.10000000000E+01 0.  0.
    9000005    1    3    3    0    0 -0.25187194671E+02 -0.51490362604E+02  0.31363012097E+02  0.65347461651E+02  0.10000000000E+01 0.  0.
<mgrwt>
<rscale>  0 0.12499917E+03</rscale>
<asrwt>0</asrwt>
<pdfrwt beam="2">  1        4 0.37392196E-02 0.12499917E+03</pdfrwt>
<pdfrwt beam="1">  1       -4 0.24725584E-01 0.12499917E+03</pdfrwt>
<totfact> 0.92722625E+03</totfact>
</mgrwt>
</event>
<event>
 5    1  0.3486589E-002  0.1250015E+03  0.7818608E-02  0.1235067E+00
          4   -1    0    0  501    0  0.00000000000E+00  0.00000000000E+00  0.25951861610E+03  0.25952172356E+03  0.12700000000E+01 0. -1.
         -4   -1    0    0    0  501 -0.00000000000E+00 -0.00000000000E+00 -0.15022278723E+02  0.15075866742E+02  0.12700000000E+01 0. -1.
         25    2    1    2    0    0  0.00000000000E+00  0.00000000000E+00  0.24449633737E+03  0.27459759030E+03  0.12500151044E+03 0.  0.
    9000005    1    3    3    0    0 -0.39341204314E+02 -0.36772027948E+02  0.52592283726E+02  0.75278554076E+02  0.10000000000E+01 0.  0.
    9000005    1    3    3    0    0  0.39341204314E+02  0.36772027948E+02  0.19190405365E+03  0.19931903623E+03  0.10000000000E+01 0.  0.
<mgrwt>
<rscale>  0 0.12500151E+03</rscale>
<asrwt>0</asrwt>
<pdfrwt beam="1">  1        4 0.39930302E-01 0.12500151E+03</pdfrwt>
<pdfrwt beam="2">  1       -4 0.23154810E-02 0.12500151E+03</pdfrwt>
<totfact> 0.78897270E+03</totfact>
</mgrwt>
</event>
<event>
 5    1  0.3486589E-002  0.1249982E+03  0.7818608E-02  0.1235072E+00
          4   -1    0    0  501    0  0.00000000000E+00  0.00000000000E+00  0.57854733514E+02  0.57868671057E+02  0.12700000000E+01 0.  1.
         -4   -1    0    0    0  501 -0.00000000000E+00 -0.00000000000E+00 -0.67488225822E+02  0.67500174256E+02  0.12700000000E+01 0.  1.
         25    2    1    2    0    0  0.00000000000E+00  0.00000000000E+00 -0.96334923083E+01  0.12536884531E+03  0.12499817279E+03 0.  0.
    9000005    1    3    3    0    0  0.53714781400E+02  0.31713939569E+02 -0.10527388527E+01  0.62395191825E+02  0.10000000000E+01 0.  0.
    9000005    1    3    3    0    0 -0.53714781400E+02 -0.31713939569E+02 -0.85807534556E+01  0.62973653488E+02  0.10000000000E+01 0.  0.
<mgrwt>
<rscale>  0 0.12499817E+03</rscale>
<asrwt>0</asrwt>
<pdfrwt beam="1">  1        4 0.89027195E-02 0.12499817E+03</pdfrwt>
<pdfrwt beam="2">  1       -4 0.10384795E-01 0.12499817E+03</pdfrwt>
<totfact> 0.10445288E+04</totfact>
</mgrwt>
</event>
<event>
 5    1  0.3486589E-002  0.1249969E+03  0.7818608E-02  0.1235074E+00
         -4   -1    0    0    0  501 -0.00000000000E+00  0.00000000000E+00  0.65467113142E+02  0.65479430382E+02  0.12700000000E+01 0. -1.
          4   -1    0    0  501    0  0.00000000000E+00 -0.00000000000E+00 -0.59639668509E+02  0.59653189017E+02  0.12700000000E+01 0. -1.
         25    2    1    2    0    0  0.00000000000E+00  0.00000000000E+00  0.58274446332E+01  0.12513261940E+03  0.12499685327E+03 0.  0.
    9000005    1    3    3    0    0 -0.45497326506E+01 -0.50817322857E+02 -0.33208054317E+02  0.60884113208E+02  0.10000000000E+01 0.  0.
    9000005    1    3    3    0    0  0.45497326506E+01  0.50817322857E+02  0.39035498950E+02  0.64248506192E+02  0.10000000000E+01 0.  0.
<mgrwt>
<rscale>  0 0.12499685E+03</rscale>
<asrwt>0</asrwt>
<pdfrwt beam="2">  1        4 0.91773212E-02 0.12499685E+03</pdfrwt>
<pdfrwt beam="1">  1       -4 0.10073851E-01 0.12499685E+03</pdfrwt>
<totfact> 0.10450726E+04</totfact>
</mgrwt>
</event>
<event>
 5    1  0.3486589E-002  0.1250015E+03  0.7818608E-02  0.1235067E+00
         -4   -1    0    0    0  501 -0.00000000000E+00  0.00000000000E+00  0.29390793326E+03  0.29391067713E+03  0.12700000000E+01 0. -1.
          4   -1    0    0  501    0  0.00000000000E+00 -0.00000000000E+00 -0.13257899360E+02  0.13318588342E+02  0.12700000000E+01 0. -1.
         25    2    1    2    0    0  0.00000000000E+00  0.00000000000E+00  0.28065003390E+03  0.30722926547E+03  0.12500152014E+03 0.  0.
    9000005    1    3    3    0    0 -0.13343092321E+02  0.42161647261E+02  0.31799603050E+02  0.54478044812E+02  0.10000000000E+01 0.  0.
    9000005    1    3    3    0    0  0.13343092321E+02 -0.42161647261E+02  0.24885043085E+03  0.25275122066E+03  0.10000000000E+01 0.  0.
<mgrwt>
<rscale>  0 0.12500152E+03</rscale>
<asrwt>0</asrwt>
<pdfrwt beam="2">  1        4 0.20445562E-02 0.12500152E+03</pdfrwt>
<pdfrwt beam="1">  1       -4 0.45221486E-01 0.12500152E+03</pdfrwt>
<totfact> 0.74698347E+03</totfact>
</mgrwt>
</event>
<event>
 5    1  0.3486589E-002  0.1250034E+03  0.7818608E-02  0.1235064E+00
          4   -1    0    0  501    0  0.00000000000E+00  0.00000000000E+00  0.15969373372E+02  0.16019793566E+02  0.12700000000E+01 0.  1.
         -4   -1    0    0    0  501 -0.00000000000E+00 -0.00000000000E+00 -0.24418436681E+03  0.24418766941E+03  0.12700000000E+01 0.  1.
         25    2    1    2    0    0  0.00000000000E+00  0.00000000000E+00 -0.22821499344E+03  0.26020746298E+03  0.12500336220E+03 0.  0.
    9000005    1    3    3    0    0 -0.38930101551E+02 -0.20213161490E+01 -0.21578316567E+03  0.21927839180E+03  0.10000000000E+01 0.  0.
    9000005    1    3    3    0    0  0.38930101551E+02  0.20213161490E+01 -0.12431827769E+02  0.40929071177E+02  0.10000000000E+01 0.  0.
<mgrwt>
<rscale>  0 0.12500336E+03</rscale>
<asrwt>0</asrwt>
<pdfrwt beam="1">  1        4 0.24609594E-02 0.12500336E+03</pdfrwt>
<pdfrwt beam="2">  1       -4 0.37570955E-01 0.12500336E+03</pdfrwt>
<totfact> 0.80870904E+03</totfact>
</mgrwt>
</event>
<event>
 5    1  0.3486589E-002  0.1249982E+03  0.7818608E-02  0.1235072E+00
         -4   -1    0    0    0  501 -0.00000000000E+00  0.00000000000E+00  0.21957233597E+02  0.21993931146E+02  0.12700000000E+01 0.  1.
          4   -1    0    0  501    0  0.00000000000E+00 -0.00000000000E+00 -0.17771012882E+03  0.17771466677E+03  0.12700000000E+01 0.  1.
         25    2    1    2    0    0  0.00000000000E+00  0.00000000000E+00 -0.15575289522E+03  0.19970859792E+03  0.12499823883E+03 0.  0.
    9000005    1    3    3    0    0 -0.22009700364E+02 -0.37029432616E+02 -0.55461175568E+01  0.43443816706E+02  0.10000000000E+01 0.  0.
    9000005    1    3    3    0    0  0.22009700364E+02  0.37029432616E+02 -0.15020677767E+03  0.15626478121E+03  0.10000000000E+01 0.  0.
<mgrwt>
<rscale>  0 0.12499824E+03</rscale>
<asrwt>0</asrwt>
<pdfrwt beam="2">  1        4 0.27343191E-01 0.12499824E+03</pdfrwt>
<pdfrwt beam="1">  1       -4 0.33812080E-02 0.12499824E+03</pdfrwt>
<totfact> 0.90188232E+03</totfact>
</mgrwt>
</event>
<event>
 5    1  0.3486589E-002  0.1249941E+03  0.7818608E-02  0.1235078E+00
         -4   -1    0    0    0  501 -0.00000000000E+00  0.00000000000E+00  0.29329843006E+03  0.29330117963E+03  0.12700000000E+01 0.  1.
          4   -1    0    0  501    0  0.00000000000E+00 -0.00000000000E+00 -0.13283998761E+02  0.13344569048E+02  0.12700000000E+01 0.  1.
         25    2    1    2    0    0  0.00000000000E+00  0.00000000000E+00  0.28001443129E+03  0.30664574868E+03  0.12499413366E+03 0.  0.
    9000005    1    3    3    0    0  0.18693233307E+02 -0.55532609148E+02  0.19328216333E+03  0.20197104325E+03  0.10000000000E+01 0.  0.
    9000005    1    3    3    0    0 -0.18693233307E+02  0.55532609148E+02  0.86732267964E+02  0.10467470543E+03  0.10000000000E+01 0.  0.
<mgrwt>
<rscale>  0 0.12499413E+03</rscale>
<asrwt>0</asrwt>
<pdfrwt beam="2">  1        4 0.20485629E-02 0.12499413E+03</pdfrwt>
<pdfrwt beam="1">  1       -4 0.45127705E-01 0.12499413E+03</pdfrwt>
<totfact> 0.74782432E+03</totfact>
</mgrwt>
</event>
<event>
 5    1  0.3486589E-002  0.1250007E+03  0.7818608E-02  0.1235068E+00
          4   -1    0    0  501    0  0.00000000000E+00  0.00000000000E+00  0.26059342285E+03  0.26059651750E+03  0.12700000000E+01 0. -1.
         -4   -1    0    0    0  501 -0.00000000000E+00 -0.00000000000E+00 -0.14959916404E+02  0.15013727012E+02  0.12700000000E+01 0. -1.
         25    2    1    2    0    0  0.00000000000E+00  0.00000000000E+00  0.24563350644E+03  0.27561024451E+03  0.12500074956E+03 0.  0.
    9000005    1    3    3    0    0 -0.58636949950E+01  0.51918837422E+02  0.19840704497E+03  0.20517383871E+03  0.10000000000E+01 0.  0.
    9000005    1    3    3    0    0  0.58636949950E+01 -0.51918837422E+02  0.47226461476E+02  0.70436405799E+02  0.10000000000E+01 0.  0.
<mgrwt>
<rscale>  0 0.12500075E+03</rscale>
<asrwt>0</asrwt>
<pdfrwt beam="1">  1        4 0.40095671E-01 0.12500075E+03</pdfrwt>
<pdfrwt beam="2">  1       -4 0.23059030E-02 0.12500075E+03</pdfrwt>
<totfact> 0.78762466E+03</totfact>
</mgrwt>
</event>
<event>
 5    1  0.3486589E-002  0.1250014E+03  0.7818608E-02  0.1235067E+00
          4   -1    0    0  501    0  0.00000000000E+00  0.00000000000E+00  0.60135534545E+01  0.61461959902E+01  0.12700000000E+01 0. -1.
         -4   -1    0    0    0  501 -0.00000000000E+00 -0.00000000000E+00 -0.64237003158E+03  0.64237128701E+03  0.12700000000E+01 0. -1.
         25    2    1    2    0    0  0.00000000000E+00  0.00000000000E+00 -0.63635647813E+03  0.64851748300E+03  0.12500143400E+03 0.  0.
    9000005    1    3    3    0    0  0.48815661098E+02  0.68198516384E+01 -0.51748835654E+03  0.51983139410E+03  0.10000000000E+01 0.  0.
    9000005    1    3    3    0    0 -0.48815661098E+02 -0.68198516384E+01 -0.11886812159E+03  0.12868608889E+03  0.10000000000E+01 0.  0.
<mgrwt>
<rscale>  0 0.12500143E+03</rscale>
<asrwt>0</asrwt>
<pdfrwt beam="1">  1        4 0.93546242E-03 0.12500143E+03</pdfrwt>
<pdfrwt beam="2">  1       -4 0.98836405E-01 0.12500143E+03</pdfrwt>
<totfact> 0.45940008E+03</totfact>
</mgrwt>
</event>
<event>
 5    1  0.3486589E-002  0.1249991E+03  0.7818608E-02  0.1235071E+00
          4   -1    0    0  501    0  0.00000000000E+00  0.00000000000E+00  0.38389620717E+02  0.38410621953E+02  0.12700000000E+01 0.  1.
         -4   -1    0    0    0  501 -0.00000000000E+00 -0.00000000000E+00 -0.10169855789E+03  0.10170648739E+03  0.12700000000E+01 0.  1.
         25    2    1    2    0    0  0.00000000000E+00  0.00000000000E+00 -0.63308937172E+02  0.14011710934E+03  0.12499913121E+03 0.  0.
    9000005    1    3    3    0    0 -0.13933963176E+02 -0.24872449376E+01  0.36574643994E+02  0.39230680602E+02  0.10000000000E+01 0.  0.
    9000005    1    3    3    0    0  0.13933963176E+02  0.24872449376E+01 -0.99883581166E+02  0.10088642874E+03  0.10000000000E+01 0.  0.
<mgrwt>
<rscale>  0 0.12499913E+03</rscale>
<asrwt>0</asrwt>
<pdfrwt beam="1">  1        4 0.59083210E-02 0.12499913E+03</pdfrwt>
<pdfrwt beam="2">  1       -4 0.15648157E-01 0.12499913E+03</pdfrwt>
<totfact> 0.10131358E+04</totfact>
</mgrwt>
</event>
<event>
 5    1  0.3486589E-002  0.1249989E+03  0.7818608E-02  0.1235071E+00
         -4   -1    0    0    0  501 -0.00000000000E+00  0.00000000000E+00  0.13716073287E+03  0.13716661234E+03  0.12700000000E+01 0. -1.
          4   -1    0    0  501    0  0.00000000000E+00 -0.00000000000E+00 -0.28458220113E+02  0.28486544051E+02  0.12700000000E+01 0. -1.
         25    2    1    2    0    0  0.00000000000E+00  0.00000000000E+00  0.10870251275E+03  0.16565315639E+03  0.12499892777E+03 0.  0.
    9000005    1    3    3    0    0  0.42966605552E+02  0.10238237777E+02 -0.42330805918E+01  0.44383213908E+02  0.10000000000E+01 0.  0.
    9000005    1    3    3    0    0 -0.42966605552E+02 -0.10238237777E+02  0.11293559335E+03  0.12126994248E+03  0.10000000000E+01 0.  0.
<mgrwt>
<rscale>  0 0.12499893E+03</rscale>
<asrwt>0</asrwt>
<pdfrwt beam="2">  1        4 0.43808187E-02 0.12499893E+03</pdfrwt>
<pdfrwt beam="1">  1       -4 0.21104282E-01 0.12499893E+03</pdfrwt>
<totfact> 0.96266156E+03</totfact>
</mgrwt>
</event>
<event>
 5    1  0.3486589E-002  0.1250016E+03  0.7818608E-02  0.1235067E+00
          4   -1    0    0  501    0  0.00000000000E+00  0.00000000000E+00  0.14031170568E+03  0.14031745312E+03  0.12700000000E+01 0.  1.
         -4   -1    0    0    0  501 -0.00000000000E+00 -0.00000000000E+00 -0.27819712916E+02  0.27848686266E+02  0.12700000000E+01 0.  1.
         25    2    1    2    0    0  0.00000000000E+00  0.00000000000E+00  0.11249199276E+03  0.16816613938E+03  0.12500160799E+03 0.  0.
    9000005    1    3    3    0    0 -0.32092432529E+02  0.50937417104E+02  0.33702254585E+02  0.69002801762E+02  0.10000000000E+01 0.  0.
    9000005    1    3    3    0    0  0.32092432529E+02 -0.50937417104E+02  0.78789738174E+02  0.99163337622E+02  0.10000000000E+01 0.  0.
<mgrwt>
<rscale>  0 0.12500161E+03</rscale>
<asrwt>0</asrwt>
<pdfrwt beam="1">  1        4 0.21589088E-01 0.12500161E+03</pdfrwt>
<pdfrwt beam="2">  1       -4 0.42826266E-02 0.12500161E+03</pdfrwt>
<totfact> 0.95787653E+03</totfact>
</mgrwt>
</event>
<event>
 5    1  0.3486589E-002  0.1250014E+03  0.7818608E-02  0.1235067E+00
          4   -1    0    0  501    0  0.00000000000E+00  0.00000000000E+00  0.57822840785E+02  0.57836786014E+02  0.12700000000E+01 0. -1.
         -4   -1    0    0    0  501 -0.00000000000E+00 -0.00000000000E+00 -0.67528958745E+02  0.67540899973E+02  0.12700000000E+01 0. -1.
         25    2    1    2    0    0  0.00000000000E+00  0.00000000000E+00 -0.97061179596E+01  0.12537768599E+03  0.12500142166E+03 0.  0.
    9000005    1    3    3    0    0  0.14187890893E+02  0.60108652347E+02  0.47146540958E+01  0.61948158150E+02  0.10000000000E+01 0.  0.
    9000005    1    3    3    0    0 -0.14187890893E+02 -0.60108652347E+02 -0.14420772055E+02  0.63429527837E+02  0.10000000000E+01 0.  0.
<mgrwt>
<rscale>  0 0.12500142E+03</rscale>
<asrwt>0</asrwt>
<pdfrwt beam="1">  1        4 0.88978129E-02 0.12500142E+03</pdfrwt>
<pdfrwt beam="2">  1       -4 0.10391062E-01 0.12500142E+03</pdfrwt>
<totfact> 0.10444327E+04</totfact>
</mgrwt>
</event>
<event>
 5    1  0.3486589E-002  0.1249990E+03  0.7818608E-02  0.1235071E+00
          4   -1    0    0  501    0  0.00000000000E+00  0.00000000000E+00  0.65676527795E+01  0.66893170826E+01  0.12700000000E+01 0.  1.
         -4   -1    0    0    0  501 -0.00000000000E+00 -0.00000000000E+00 -0.58918095837E+03  0.58918232713E+03  0.12700000000E+01 0.  1.
         25    2    1    2    0    0  0.00000000000E+00  0.00000000000E+00 -0.58261330559E+03  0.59587164421E+03  0.12499901011E+03 0.  0.
    9000005    1    3    3    0    0 -0.26853508231E+02 -0.55842028177E+01 -0.23635959402E+02  0.36220889032E+02  0.10000000000E+01 0.  0.
    9000005    1    3    3    0    0  0.26853508231E+02  0.55842028177E+01 -0.55897734619E+03  0.55965075518E+03  0.10000000000E+01 0.  0.
<mgrwt>
<rscale>  0 0.12499901E+03</rscale>
<asrwt>0</asrwt>
<pdfrwt beam="1">  1        4 0.10198727E-02 0.12499901E+03</pdfrwt>
<pdfrwt beam="2">  1       -4 0.90652647E-01 0.12499901E+03</pdfrwt>
<totfact> 0.49130328E+03</totfact>
</mgrwt>
</event>
<event>
 5    1  0.3486589E-002  0.1250018E+03  0.7818608E-02  0.1235066E+00
          4   -1    0    0  501    0  0.00000000000E+00  0.00000000000E+00  0.70168348200E+01  0.71308394240E+01  0.12700000000E+01 0.  1.
         -4   -1    0    0    0  501 -0.00000000000E+00 -0.00000000000E+00 -0.55211240047E+03  0.55211386113E+03  0.12700000000E+01 0.  1.
         25    2    1    2    0    0  0.00000000000E+00  0.00000000000E+00 -0.54509556565E+03  0.55924470056E+03  0.12500183762E+03 0.  0.
    9000005    1    3    3    0    0  0.62026386887E+02 -0.52242337196E+01 -0.24771886671E+03  0.25542161657E+03  0.10000000000E+01 0.  0.
    9000005    1    3    3    0    0 -0.62026386887E+02  0.52242337196E+01 -0.29737669894E+03  0.30382308399E+03  0.10000000000E+01 0.  0.
<mgrwt>
<rscale>  0 0.12500184E+03</rscale>
<asrwt>0</asrwt>
<pdfrwt beam="1">  1        4 0.10883954E-02 0.12500184E+03</pdfrwt>
<pdfrwt beam="2">  1       -4 0.84949217E-01 0.12500184E+03</pdfrwt>
<totfact> 0.51543521E+03</totfact>
</mgrwt>
</event>
<event>
 5    1  0.3486589E-002  0.1249929E+03  0.7818608E-02  0.1235080E+00
         -4   -1    0    0    0  501 -0.00000000000E+00  0.00000000000E+00  0.38751190769E+02  0.38771996157E+02  0.12700000000E+01 0. -1.
          4   -1    0    0  501    0  0.00000000000E+00 -0.00000000000E+00 -0.10074006672E+03  0.10074807166E+03  0.12700000000E+01 0. -1.
         25    2    1    2    0    0  0.00000000000E+00  0.00000000000E+00 -0.61988875948E+02  0.13952006781E+03  0.12499291412E+03 0.  0.
    9000005    1    3    3    0    0  0.16280412871E+02  0.53199047683E+02  0.76632997041E+00  0.55648699709E+02  0.10000000000E+01 0.  0.
    9000005    1    3    3    0    0 -0.16280412871E+02 -0.53199047683E+02 -0.62755205919E+02  0.83871368104E+02  0.10000000000E+01 0.  0.
<mgrwt>
<rscale>  0 0.12499291E+03</rscale>
<asrwt>0</asrwt>
<pdfrwt beam="2">  1        4 0.15500688E-01 0.12499291E+03</pdfrwt>
<pdfrwt beam="1">  1       -4 0.59639379E-02 0.12499291E+03</pdfrwt>
<totfact> 0.10145162E+04</totfact>
</mgrwt>
</event>
<event>
 5    1  0.3486589E-002  0.1249957E+03  0.7818608E-02  0.1235076E+00
         -4   -1    0    0    0  501 -0.00000000000E+00  0.00000000000E+00  0.50422594236E+03  0.50422754174E+03  0.12700000000E+01 0. -1.
          4   -1    0    0  501    0  0.00000000000E+00 -0.00000000000E+00 -0.76928179504E+01  0.77969447874E+01  0.12700000000E+01 0. -1.
         25    2    1    2    0    0  0.00000000000E+00  0.00000000000E+00  0.49653312441E+03  0.51202448652E+03  0.12499572460E+03 0.  0.
    9000005    1    3    3    0    0 -0.62232171454E+01 -0.28543238416E+02  0.47455114020E+03  0.47545055427E+03  0.10000000000E+01 0.  0.
    9000005    1    3    3    0    0  0.62232171454E+01  0.28543238416E+02  0.21981984209E+02  0.36573932256E+02  0.10000000000E+01 0.  0.
<mgrwt>
<rscale>  0 0.12499572E+03</rscale>
<asrwt>0</asrwt>
<pdfrwt beam="2">  1        4 0.11916431E-02 0.12499572E+03</pdfrwt>
<pdfrwt beam="1">  1       -4 0.77581363E-01 0.12499572E+03</pdfrwt>
<totfact> 0.54948495E+03</totfact>
</mgrwt>
</event>
<event>
 5    1  0.3486589E-002  0.1250215E+03  0.7818608E-02  0.1235036E+00
          4   -1    0    0  501    0  0.00000000000E+00  0.00000000000E+00  0.21012328464E+03  0.21012712259E+03  0.12700000000E+01 0.  1.
         -4   -1    0    0    0  501 -0.00000000000E+00 -0.00000000000E+00 -0.18570967469E+02  0.18614342124E+02  0.12700000000E+01 0.  1.
         25    2    1    2    0    0  0.00000000000E+00  0.00000000000E+00  0.19155231717E+03  0.22874146472E+03  0.12502146802E+03 0.  0.
    9000005    1    3    3    0    0 -0.16877310884E+01 -0.44760758055E+02  0.17553191051E+03  0.18115966854E+03  0.10000000000E+01 0.  0.
    9000005    1    3    3    0    0  0.16877310884E+01  0.44760758055E+02  0.16020406664E+02  0.47581796178E+02  0.10000000000E+01 0.  0.
<mgrwt>
<rscale>  0 0.12502147E+03</rscale>
<asrwt>0</asrwt>
<pdfrwt beam="1">  1        4 0.32330291E-01 0.12502147E+03</pdfrwt>
<pdfrwt beam="2">  1       -4 0.28607037E-02 0.12502147E+03</pdfrwt>
<totfact> 0.85462274E+03</totfact>
</mgrwt>
</event>
<event>
 5    1  0.3486589E-002  0.1249858E+03  0.7818608E-02  0.1235091E+00
          4   -1    0    0  501    0  0.00000000000E+00  0.00000000000E+00  0.10972576112E+04  0.10972583462E+04  0.12700000000E+01 0. -1.
         -4   -1    0    0    0  501 -0.00000000000E+00 -0.00000000000E+00 -0.34451546605E+01  0.36717830321E+01  0.12700000000E+01 0. -1.
         25    2    1    2    0    0  0.00000000000E+00  0.00000000000E+00  0.10938124565E+04  0.11009301292E+04  0.12498583640E+03 0.  0.
    9000005    1    3    3    0    0 -0.39335519543E+02  0.48473002725E+02  0.52286429722E+03  0.52657856811E+03  0.10000000000E+01 0.  0.
    9000005    1    3    3    0    0  0.39335519543E+02 -0.48473002725E+02  0.57094815933E+03  0.57435156109E+03  0.10000000000E+01 0.  0.
<mgrwt>
<rscale>  0 0.12498584E+03</rscale>
<asrwt>0</asrwt>
<pdfrwt beam="1">  1        4 0.16882637E+00 0.12498584E+03</pdfrwt>
<pdfrwt beam="2">  1       -4 0.54751324E-03 0.12498584E+03</pdfrwt>
<totfact> 0.27464663E+03</totfact>
</mgrwt>
</event>
<event>
 5    1  0.3486589E-002  0.1250012E+03  0.7818608E-02  0.1235067E+00
          4   -1    0    0  501    0  0.00000000000E+00  0.00000000000E+00  0.33847274248E+03  0.33847512508E+03  0.12700000000E+01 0. -1.
         -4   -1    0    0    0  501 -0.00000000000E+00 -0.00000000000E+00 -0.11503657650E+02  0.11573549124E+02  0.12700000000E+01 0. -1.
         25    2    1    2    0    0  0.00000000000E+00  0.00000000000E+00  0.32696908483E+03  0.35004867421E+03  0.12500116752E+03 0.  0.
    9000005    1    3    3    0    0 -0.14351801192E+01  0.22038001692E+02  0.32719421105E+03  0.32794021559E+03  0.10000000000E+01 0.  0.
    9000005    1    3    3    0    0  0.14351801192E+01 -0.22038001692E+02 -0.22512621856E+00  0.22108458616E+02  0.10000000000E+01 0.  0.
<mgrwt>
<rscale>  0 0.12500117E+03</rscale>
<asrwt>0</asrwt>
<pdfrwt beam="1">  1        4 0.52078278E-01 0.12500117E+03</pdfrwt>
<pdfrwt beam="2">  1       -4 0.17753534E-02 0.12500117E+03</pdfrwt>
<totfact> 0.69717406E+03</totfact>
</mgrwt>
</event>
<event>
 5    1  0.3486589E-002  0.1249945E+03  0.7818608E-02  0.1235078E+00
          4   -1    0    0  501    0  0.00000000000E+00  0.00000000000E+00  0.22700368041E+03  0.22700723297E+03  0.12700000000E+01 0.  1.
         -4   -1    0    0    0  501 -0.00000000000E+00 -0.00000000000E+00 -0.17179222749E+02  0.17226102120E+02  0.12700000000E+01 0.  1.
         25    2    1    2    0    0  0.00000000000E+00  0.00000000000E+00  0.20982445766E+03  0.24423333509E+03  0.12499447562E+03 0.  0.
    9000005    1    3    3    0    0 -0.15510218980E+02 -0.58682583967E+02  0.13393959246E+03  0.14705450344E+03  0.10000000000E+01 0.  0.
    9000005    1    3    3    0    0  0.15510218980E+02  0.58682583967E+02  0.75884865199E+02  0.97178831646E+02  0.10000000000E+01 0.  0.
<mgrwt>
<rscale>  0 0.12499448E+03</rscale>
<asrwt>0</asrwt>
<pdfrwt beam="1">  1        4 0.34927520E-01 0.12499448E+03</pdfrwt>
<pdfrwt beam="2">  1       -4 0.26468369E-02 0.12499448E+03</pdfrwt>
<totfact> 0.83181141E+03</totfact>
</mgrwt>
</event>
<event>
 5    1  0.3486589E-002  0.1249978E+03  0.7818608E-02  0.1235073E+00
          4   -1    0    0  501    0  0.00000000000E+00  0.00000000000E+00  0.18474550410E+04  0.18474554775E+04  0.12700000000E+01 0. -1.
         -4   -1    0    0    0  501 -0.00000000000E+00 -0.00000000000E+00 -0.19231325077E+01  0.23046341666E+01  0.12700000000E+01 0. -1.
         25    2    1    2    0    0  0.00000000000E+00  0.00000000000E+00  0.18455319085E+04  0.18497601117E+04  0.12499778206E+03 0.  0.
    9000005    1    3    3    0    0  0.85087472296E+01 -0.54094457719E+02  0.13683170797E+04  0.13694127353E+04  0.10000000000E+01 0.  0.
    9000005    1    3    3    0    0 -0.85087472296E+01  0.54094457719E+02  0.47721482881E+03  0.48034737636E+03  0.10000000000E+01 0.  0.
<mgrwt>
<rscale>  0 0.12499778E+03</rscale>
<asrwt>0</asrwt>
<pdfrwt beam="1">  1        4 0.28425313E+00 0.12499778E+03</pdfrwt>
<pdfrwt beam="2">  1       -4 0.32524652E-03 0.12499778E+03</pdfrwt>
<totfact> 0.11952843E+03</totfact>
</mgrwt>
</event>
<event>
 5    1  0.3486589E-002  0.1249912E+03  0.7818608E-02  0.1235083E+00
          4   -1    0    0  501    0  0.00000000000E+00  0.00000000000E+00  0.84026166485E+02  0.84035763542E+02  0.12700000000E+01 0. -1.
         -4   -1    0    0    0  501 -0.00000000000E+00 -0.00000000000E+00 -0.46461013444E+02  0.46478367766E+02  0.12700000000E+01 0. -1.
         25    2    1    2    0    0  0.00000000000E+00  0.00000000000E+00  0.37565153041E+02  0.13051413131E+03  0.12499119068E+03 0.  0.
    9000005    1    3    3    0    0  0.32694190961E+02 -0.46712057429E+02 -0.79162162209E+01  0.57572501345E+02  0.10000000000E+01 0.  0.
    9000005    1    3    3    0    0 -0.32694190961E+02  0.46712057429E+02  0.45481369262E+02  0.72941629964E+02  0.10000000000E+01 0.  0.
<mgrwt>
<rscale>  0 0.12499119E+03</rscale>
<asrwt>0</asrwt>
<pdfrwt beam="1">  1        4 0.12929176E-01 0.12499119E+03</pdfrwt>
<pdfrwt beam="2">  1       -4 0.71499214E-02 0.12499119E+03</pdfrwt>
<totfact> 0.10335571E+04</totfact>
</mgrwt>
</event>
<event>
 5    1  0.3486589E-002  0.1249971E+03  0.7818608E-02  0.1235074E+00
         -4   -1    0    0    0  501 -0.00000000000E+00  0.00000000000E+00  0.44221042882E+03  0.44221225250E+03  0.12700000000E+01 0. -1.
          4   -1    0    0  501    0  0.00000000000E+00 -0.00000000000E+00 -0.87855485150E+01  0.88768667169E+01  0.12700000000E+01 0. -1.
         25    2    1    2    0    0  0.00000000000E+00  0.00000000000E+00  0.43342488031E+03  0.45108911922E+03  0.12499706638E+03 0.  0.
    9000005    1    3    3    0    0  0.16247790823E+02  0.53033557472E+02  0.11283686692E+03  0.12573665918E+03  0.10000000000E+01 0.  0.
    9000005    1    3    3    0    0 -0.16247790823E+02 -0.53033557472E+02  0.32058801339E+03  0.32535246004E+03  0.10000000000E+01 0.  0.
<mgrwt>
<rscale>  0 0.12499707E+03</rscale>
<asrwt>0</asrwt>
<pdfrwt beam="2">  1        4 0.13587880E-02 0.12499707E+03</pdfrwt>
<pdfrwt beam="1">  1       -4 0.68039517E-01 0.12499707E+03</pdfrwt>
<totfact> 0.59873439E+03</totfact>
</mgrwt>
</event>
<event>
 5    1  0.3486589E-002  0.1250008E+03  0.7818608E-02  0.1235068E+00
          4   -1    0    0  501    0  0.00000000000E+00  0.00000000000E+00  0.35314923026E+03  0.35315151384E+03  0.12700000000E+01 0.  1.
         -4   -1    0    0    0  501 -0.00000000000E+00 -0.00000000000E+00 -0.11022556561E+02  0.11095478951E+02  0.12700000000E+01 0.  1.
         25    2    1    2    0    0  0.00000000000E+00  0.00000000000E+00  0.34212667369E+03  0.36424699279E+03  0.12500084362E+03 0.  0.
    9000005    1    3    3    0    0 -0.67378446557E+01  0.61911374934E+02  0.15595402262E+03  0.16793175419E+03  0.10000000000E+01 0.  0.
    9000005    1    3    3    0    0  0.67378446557E+01 -0.61911374934E+02  0.18617265108E+03  0.19631523860E+03  0.10000000000E+01 0.  0.
<mgrwt>
<rscale>  0 0.12500084E+03</rscale>
<asrwt>0</asrwt>
<pdfrwt beam="1">  1        4 0.54336445E-01 0.12500084E+03</pdfrwt>
<pdfrwt beam="2">  1       -4 0.17015627E-02 0.12500084E+03</pdfrwt>
<totfact> 0.68183855E+03</totfact>
</mgrwt>
</event>
<event>
 5    1  0.3486589E-002  0.1250015E+03  0.7818608E-02  0.1235067E+00
         -4   -1    0    0    0  501 -0.00000000000E+00  0.00000000000E+00  0.10007175514E+03  0.10007981353E+03  0.12700000000E+01 0.  1.
          4   -1    0    0  501    0  0.00000000000E+00 -0.00000000000E+00 -0.39015483929E+02  0.39036148455E+02  0.12700000000E+01 0.  1.
         25    2    1    2    0    0  0.00000000000E+00  0.00000000000E+00  0.61056271212E+02  0.13911596199E+03  0.12500153049E+03 0.  0.
    9000005    1    3    3    0    0 -0.43655419076E+02 -0.29391684426E+02 -0.69768857188E+01  0.53097492054E+02  0.10000000000E+01 0.  0.
    9000005    1    3    3    0    0  0.43655419076E+02  0.29391684426E+02  0.68033156930E+02  0.86018469935E+02  0.10000000000E+01 0.  0.
<mgrwt>
<rscale>  0 0.12500153E+03</rscale>
<asrwt>0</asrwt>
<pdfrwt beam="2">  1        4 0.60045916E-02 0.12500153E+03</pdfrwt>
<pdfrwt beam="1">  1       -4 0.15397864E-01 0.12500153E+03</pdfrwt>
<totfact> 0.10151591E+04</totfact>
</mgrwt>
</event>
<event>
 5    1  0.3486589E-002  0.1249775E+03  0.7818608E-02  0.1235104E+00
          4   -1    0    0  501    0  0.00000000000E+00  0.00000000000E+00  0.29697853858E+03  0.29698125408E+03  0.12700000000E+01 0. -1.
         -4   -1    0    0    0  501 -0.00000000000E+00 -0.00000000000E+00 -0.13115128069E+02  0.13176474652E+02  0.12700000000E+01 0. -1.
         25    2    1    2    0    0  0.00000000000E+00  0.00000000000E+00  0.28386341051E+03  0.31015772873E+03  0.12497752145E+03 0.  0.
    9000005    1    3    3    0    0  0.42839999784E+02  0.36820093234E+02  0.75671475733E+02  0.94435994657E+02  0.10000000000E+01 0.  0.
    9000005    1    3    3    0    0 -0.42839999784E+02 -0.36820093234E+02  0.20819193478E+03  0.21572173408E+03  0.10000000000E+01 0.  0.
<mgrwt>
<rscale>  0 0.12497752E+03</rscale>
<asrwt>0</asrwt>
<pdfrwt beam="1">  1        4 0.45693934E-01 0.12497752E+03</pdfrwt>
<pdfrwt beam="2">  1       -4 0.20226399E-02 0.12497752E+03</pdfrwt>
<totfact> 0.74379169E+03</totfact>
</mgrwt>
</event>
<event>
 5    1  0.3486589E-002  0.1249989E+03  0.7818608E-02  0.1235071E+00
          4   -1    0    0  501    0  0.00000000000E+00  0.00000000000E+00  0.14540706845E+03  0.14541261450E+03  0.12700000000E+01 0. -1.
         -4   -1    0    0    0  501 -0.00000000000E+00 -0.00000000000E+00 -0.26842686391E+02  0.26872713162E+02  0.12700000000E+01 0. -1.
         25    2    1    2    0    0  0.00000000000E+00  0.00000000000E+00  0.11856438206E+03  0.17228532766E+03  0.12499888573E+03 0.  0.
    9000005    1    3    3    0    0  0.31394980851E+02 -0.11609865333E+02  0.13201577529E+03  0.13619691157E+03  0.10000000000E+01 0.  0.
    9000005    1    3    3    0    0 -0.31394980851E+02  0.11609865333E+02 -0.13451393235E+02  0.36088416087E+02  0.10000000000E+01 0.  0.
<mgrwt>
<rscale>  0 0.12499889E+03</rscale>
<asrwt>0</asrwt>
<pdfrwt beam="1">  1        4 0.22373054E-01 0.12499889E+03</pdfrwt>
<pdfrwt beam="2">  1       -4 0.41323805E-02 0.12499889E+03</pdfrwt>
<totfact> 0.95026767E+03</totfact>
</mgrwt>
</event>
<event>
 5    1  0.3486589E-002  0.1249445E+03  0.7818608E-02  0.1235156E+00
         -4   -1    0    0    0  501 -0.00000000000E+00  0.00000000000E+00  0.50105550443E+01  0.51690000824E+01  0.12700000000E+01 0. -1.
          4   -1    0    0  501    0  0.00000000000E+00 -0.00000000000E+00 -0.76662977748E+03  0.76663082942E+03  0.12700000000E+01 0. -1.
         25    2    1    2    0    0  0.00000000000E+00  0.00000000000E+00 -0.76161922244E+03  0.77179982951E+03  0.12494453505E+03 0.  0.
    9000005    1    3    3    0    0 -0.61493926684E+02  0.10944924292E+02 -0.37648639562E+03  0.38163372555E+03  0.10000000000E+01 0.  0.
    9000005    1    3    3    0    0  0.61493926684E+02 -0.10944924292E+02 -0.38513282681E+03  0.39016610396E+03  0.10000000000E+01 0.  0.
<mgrwt>
<rscale>  0 0.12494454E+03</rscale>
<asrwt>0</asrwt>
<pdfrwt beam="2">  1        4 0.11795522E+00 0.12494454E+03</pdfrwt>
<pdfrwt beam="1">  1       -4 0.78312423E-03 0.12494454E+03</pdfrwt>
<totfact> 0.39600518E+03</totfact>
</mgrwt>
</event>
<event>
 5    1  0.3486589E-002  0.1249996E+03  0.7818608E-02  0.1235070E+00
          4   -1    0    0  501    0  0.00000000000E+00  0.00000000000E+00  0.14079196435E+03  0.14079769218E+03  0.12700000000E+01 0. -1.
         -4   -1    0    0    0  501 -0.00000000000E+00 -0.00000000000E+00 -0.27723830372E+02  0.27752903821E+02  0.12700000000E+01 0. -1.
         25    2    1    2    0    0  0.00000000000E+00  0.00000000000E+00  0.11306813397E+03  0.16855059601E+03  0.12499960197E+03 0.  0.
    9000005    1    3    3    0    0 -0.68667881604E+01  0.61578490731E+02  0.67502015265E+02  0.91632883646E+02  0.10000000000E+01 0.  0.
    9000005    1    3    3    0    0  0.68667881604E+01 -0.61578490731E+02  0.45566118709E+02  0.76917712359E+02  0.10000000000E+01 0.  0.
<mgrwt>
<rscale>  0 0.12499960E+03</rscale>
<asrwt>0</asrwt>
<pdfrwt beam="1">  1        4 0.21662980E-01 0.12499960E+03</pdfrwt>
<pdfrwt beam="2">  1       -4 0.42678816E-02 0.12499960E+03</pdfrwt>
<totfact> 0.95720014E+03</totfact>
</mgrwt>
</event>
<event>
 5    1  0.3486589E-002  0.1250001E+03  0.7818608E-02  0.1235069E+00
          4   -1    0    0  501    0  0.00000000000E+00  0.00000000000E+00  0.15655439174E+03  0.15655954290E+03  0.12700000000E+01 0.  1.
         -4   -1    0    0    0  501 -0.00000000000E+00 -0.00000000000E+00 -0.24929723782E+02  0.24962051756E+02  0.12700000000E+01 0.  1.
         25    2    1    2    0    0  0.00000000000E+00  0.00000000000E+00  0.13162466796E+03  0.18152159466E+03  0.12500014445E+03 0.  0.
    9000005    1    3    3    0    0 -0.55237542892E+02  0.13714605582E+02  0.28336683101E+02  0.63586509262E+02  0.10000000000E+01 0.  0.
    9000005    1    3    3    0    0  0.55237542892E+02 -0.13714605582E+02  0.10328798486E+03  0.11793508539E+03  0.10000000000E+01 0.  0.
<mgrwt>
<rscale>  0 0.12500014E+03</rscale>
<asrwt>0</asrwt>
<pdfrwt beam="1">  1        4 0.24088175E-01 0.12500014E+03</pdfrwt>
<pdfrwt beam="2">  1       -4 0.38382250E-02 0.12500014E+03</pdfrwt>
<totfact> 0.93343523E+03</totfact>
</mgrwt>
</event>
<event>
 5    1  0.3486589E-002  0.1250000E+03  0.7818608E-02  0.1235069E+00
         -4   -1    0    0    0  501 -0.00000000000E+00  0.00000000000E+00  0.35819300088E+02  0.35841807416E+02  0.12700000000E+01 0. -1.
          4   -1    0    0  501    0  0.00000000000E+00 -0.00000000000E+00 -0.10899393293E+03  0.10900133171E+03  0.12700000000E+01 0. -1.
         25    2    1    2    0    0  0.00000000000E+00  0.00000000000E+00 -0.73174632842E+02  0.14484313913E+03  0.12500003225E+03 0.  0.
    9000005    1    3    3    0    0  0.58972770339E+02 -0.20263181854E+02 -0.41346335846E+02  0.74825822201E+02  0.10000000000E+01 0.  0.
    9000005    1    3    3    0    0 -0.58972770339E+02  0.20263181854E+02 -0.31828296996E+02  0.70017316929E+02  0.10000000000E+01 0.  0.
<mgrwt>
<rscale>  0 0.12500003E+03</rscale>
<asrwt>0</asrwt>
<pdfrwt beam="2">  1        4 0.16770598E-01 0.12500003E+03</pdfrwt>
<pdfrwt beam="1">  1       -4 0.55129621E-02 0.12500003E+03</pdfrwt>
<totfact> 0.10034169E+04</totfact>
</mgrwt>
</event>
<event>
 5    1  0.3486589E-002  0.1250023E+03  0.7818608E-02  0.1235066E+00
          4   -1    0    0  501    0  0.00000000000E+00  0.00000000000E+00  0.10803893091E+03  0.10804639509E+03  0.12700000000E+01 0. -1.
         -4   -1    0    0    0  501 -0.00000000000E+00 -0.00000000000E+00 -0.36137409336E+02  0.36159718659E+02  0.12700000000E+01 0. -1.
         25    2    1    2    0    0  0.00000000000E+00  0.00000000000E+00  0.71901521571E+02  0.14420611375E+03  0.12500229773E+03 0.  0.
    9000005    1    3    3    0    0  0.31819741494E+02 -0.52905348444E+02  0.24770580578E+02  0.66528591635E+02  0.10000000000E+01 0.  0.
    9000005    1    3    3    0    0 -0.31819741494E+02  0.52905348444E+02  0.47130940992E+02  0.77677522112E+02  0.10000000000E+01 0.  0.
<mgrwt>
<rscale>  0 0.12500230E+03</rscale>
<asrwt>0</asrwt>
<pdfrwt beam="1">  1        4 0.16623664E-01 0.12500230E+03</pdfrwt>
<pdfrwt beam="2">  1       -4 0.55618918E-02 0.12500230E+03</pdfrwt>
<totfact> 0.10046623E+04</totfact>
</mgrwt>
</event>
<event>
 5    1  0.3486589E-002  0.1249971E+03  0.7818608E-02  0.1235074E+00
         -4   -1    0    0    0  501 -0.00000000000E+00  0.00000000000E+00  0.69862205892E+03  0.69862321327E+03  0.12700000000E+01 0.  1.
          4   -1    0    0  501    0  0.00000000000E+00 -0.00000000000E+00 -0.55178138700E+01  0.56620817641E+01  0.12700000000E+01 0.  1.
         25    2    1    2    0    0  0.00000000000E+00  0.00000000000E+00  0.69310424505E+03  0.70428529503E+03  0.12499712911E+03 0.  0.
    9000005    1    3    3    0    0 -0.16844118201E+02 -0.57069226181E+02  0.45411622723E+03  0.45799909250E+03  0.10000000000E+01 0.  0.
    9000005    1    3    3    0    0  0.16844118201E+02  0.57069226181E+02  0.23898801782E+03  0.24628620253E+03  0.10000000000E+01 0.  0.
<mgrwt>
<rscale>  0 0.12499713E+03</rscale>
<asrwt>0</asrwt>
<pdfrwt beam="2">  1        4 0.86008073E-03 0.12499713E+03</pdfrwt>
<pdfrwt beam="1">  1       -4 0.10749151E+00 0.12499713E+03</pdfrwt>
<totfact> 0.42864132E+03</totfact>
</mgrwt>
</event>
<event>
 5    1  0.3486589E-002  0.1250008E+03  0.7818608E-02  0.1235068E+00
         -4   -1    0    0    0  501 -0.00000000000E+00  0.00000000000E+00  0.16369905831E+03  0.16370398465E+03  0.12700000000E+01 0.  1.
          4   -1    0    0  501    0  0.00000000000E+00 -0.00000000000E+00 -0.23840488924E+02  0.23874291866E+02  0.12700000000E+01 0.  1.
         25    2    1    2    0    0  0.00000000000E+00  0.00000000000E+00  0.13985856938E+03  0.18757827652E+03  0.12500076156E+03 0.  0.
    9000005    1    3    3    0    0 -0.32371255169E+02  0.40348792049E+01  0.14991540071E+03  0.15342687438E+03  0.10000000000E+01 0.  0.
    9000005    1    3    3    0    0  0.32371255169E+02 -0.40348792049E+01 -0.10056831331E+02  0.34151402135E+02  0.10000000000E+01 0.  0.
<mgrwt>
<rscale>  0 0.12500076E+03</rscale>
<asrwt>0</asrwt>
<pdfrwt beam="2">  1        4 0.36707467E-02 0.12500076E+03</pdfrwt>
<pdfrwt beam="1">  1       -4 0.25187449E-01 0.12500076E+03</pdfrwt>
<totfact> 0.92268827E+03</totfact>
</mgrwt>
</event>
<event>
 5    1  0.3486589E-002  0.1250046E+03  0.7818608E-02  0.1235062E+00
          4   -1    0    0  501    0  0.00000000000E+00  0.00000000000E+00  0.92458776628E+02  0.92467498482E+02  0.12700000000E+01 0. -1.
         -4   -1    0    0    0  501 -0.00000000000E+00 -0.00000000000E+00 -0.42231431036E+02  0.42250522688E+02  0.12700000000E+01 0. -1.
         25    2    1    2    0    0  0.00000000000E+00  0.00000000000E+00  0.50227345592E+02  0.13471802117E+03  0.12500463585E+03 0.  0.
    9000005    1    3    3    0    0 -0.19434428416E+02  0.58982645461E+02  0.32649150751E+02  0.70168486646E+02  0.10000000000E+01 0.  0.
    9000005    1    3    3    0    0  0.19434428416E+02 -0.58982645461E+02  0.17578194841E+02  0.64549534524E+02  0.10000000000E+01 0.  0.
<mgrwt>
<rscale>  0 0.12500464E+03</rscale>
<asrwt>0</asrwt>
<pdfrwt beam="1">  1        4 0.14226566E-01 0.12500464E+03</pdfrwt>
<pdfrwt beam="2">  1       -4 0.64992828E-02 0.12500464E+03</pdfrwt>
<totfact> 0.10242947E+04</totfact>
</mgrwt>
</event>
<event>
 5    1  0.3486589E-002  0.1249997E+03  0.7818608E-02  0.1235070E+00
         -4   -1    0    0    0  501 -0.00000000000E+00  0.00000000000E+00  0.61012960146E+02  0.61026176398E+02  0.12700000000E+01 0.  1.
          4   -1    0    0  501    0  0.00000000000E+00 -0.00000000000E+00 -0.63996507695E+02  0.64009107923E+02  0.12700000000E+01 0.  1.
         25    2    1    2    0    0  0.00000000000E+00  0.00000000000E+00 -0.29835475489E+01  0.12503528432E+03  0.12499968308E+03 0.  0.
    9000005    1    3    3    0    0 -0.37170523244E+02  0.15825015120E+02 -0.49182929249E+02  0.63655631575E+02  0.10000000000E+01 0.  0.
    9000005    1    3    3    0    0  0.37170523244E+02 -0.15825015120E+02  0.46199381700E+02  0.61379652746E+02  0.10000000000E+01 0.  0.
<mgrwt>
<rscale>  0 0.12499968E+03</rscale>
<asrwt>0</asrwt>
<pdfrwt beam="2">  1        4 0.98476025E-02 0.12499968E+03</pdfrwt>
<pdfrwt beam="1">  1       -4 0.93885951E-02 0.12499968E+03</pdfrwt>
<totfact> 0.10452171E+04</totfact>
</mgrwt>
</event>
<event>
 5    1  0.3486589E-002  0.1250118E+03  0.7818608E-02  0.1235051E+00
          4   -1    0    0  501    0  0.00000000000E+00  0.00000000000E+00  0.10607964165E+04  0.10607971767E+04  0.12700000000E+01 0.  1.
         -4   -1    0    0    0  501 -0.00000000000E+00 -0.00000000000E+00 -0.35728073217E+01  0.37918138348E+01  0.12700000000E+01 0.  1.
         25    2    1    2    0    0  0.00000000000E+00  0.00000000000E+00  0.10572236092E+04  0.10645889906E+04  0.12501183555E+03 0.  0.
    9000005    1    3    3    0    0  0.33320860536E+02  0.33535938546E+02  0.18049445395E+03  0.18658560188E+03  0.10000000000E+01 0.  0.
    9000005    1    3    3    0    0 -0.33320860536E+02 -0.33535938546E+02  0.87672915522E+03  0.87800338868E+03  0.10000000000E+01 0.  0.
<mgrwt>
<rscale>  0 0.12501184E+03</rscale>
<asrwt>0</asrwt>
<pdfrwt beam="1">  1        4 0.16321627E+00 0.12501184E+03</pdfrwt>
<pdfrwt beam="2">  1       -4 0.56656808E-03 0.12501184E+03</pdfrwt>
<totfact> 0.28536231E+03</totfact>
</mgrwt>
</event>
<event>
 5    1  0.3486589E-002  0.1250012E+03  0.7818608E-02  0.1235067E+00
          4   -1    0    0  501    0  0.00000000000E+00  0.00000000000E+00  0.16133301920E+02  0.16183211388E+02  0.12700000000E+01 0.  1.
         -4   -1    0    0    0  501 -0.00000000000E+00 -0.00000000000E+00 -0.24170238812E+03  0.24170572464E+03  0.12700000000E+01 0.  1.
         25    2    1    2    0    0  0.00000000000E+00  0.00000000000E+00 -0.22556908620E+03  0.25788893602E+03  0.12500116270E+03 0.  0.
    9000005    1    3    3    0    0  0.31999667536E+02  0.32498773223E+01 -0.22447153540E+01  0.32258009425E+02  0.10000000000E+01 0.  0.
    9000005    1    3    3    0    0 -0.31999667536E+02 -0.32498773223E+01 -0.22332437084E+03  0.22563092660E+03  0.10000000000E+01 0.  0.
<mgrwt>
<rscale>  0 0.12500116E+03</rscale>
<asrwt>0</asrwt>
<pdfrwt beam="1">  1        4 0.24861425E-02 0.12500116E+03</pdfrwt>
<pdfrwt beam="2">  1       -4 0.37189076E-01 0.12500116E+03</pdfrwt>
<totfact> 0.81201133E+03</totfact>
</mgrwt>
</event>
<event>
 5    1  0.3486589E-002  0.1250557E+03  0.7818608E-02  0.1234982E+00
          4   -1    0    0  501    0  0.00000000000E+00  0.00000000000E+00  0.30577017338E+03  0.30577281081E+03  0.12700000000E+01 0. -1.
         -4   -1    0    0    0  501 -0.00000000000E+00 -0.00000000000E+00 -0.12752278748E+02  0.12815362393E+02  0.12700000000E+01 0. -1.
         25    2    1    2    0    0  0.00000000000E+00  0.00000000000E+00  0.29301789463E+03  0.31858817320E+03  0.12505573769E+03 0.  0.
    9000005    1    3    3    0    0 -0.46571448907E+02 -0.40018212620E+02  0.11654091165E+03  0.13173132233E+03  0.10000000000E+01 0.  0.
    9000005    1    3    3    0    0  0.46571448907E+02  0.40018212620E+02  0.17647698299E+03  0.18685685087E+03  0.10000000000E+01 0.  0.
<mgrwt>
<rscale>  0 0.12505574E+03</rscale>
<asrwt>0</asrwt>
<pdfrwt beam="1">  1        4 0.47046615E-01 0.12505574E+03</pdfrwt>
<pdfrwt beam="2">  1       -4 0.19669447E-02 0.12505574E+03</pdfrwt>
<totfact> 0.73233831E+03</totfact>
</mgrwt>
</event>
<event>
 5    1  0.3486589E-002  0.1250065E+03  0.7818608E-02  0.1235059E+00
          4   -1    0    0  501    0  0.00000000000E+00  0.00000000000E+00  0.27318670402E+01  0.30126396276E+01  0.12700000000E+01 0. -1.
         -4   -1    0    0    0  501 -0.00000000000E+00 -0.00000000000E+00 -0.13598558360E+04  0.13598564290E+04  0.12700000000E+01 0. -1.
         25    2    1    2    0    0  0.00000000000E+00  0.00000000000E+00 -0.13571239689E+04  0.13628690686E+04  0.12500652466E+03 0.  0.
    9000005    1    3    3    0    0 -0.37442697071E+02  0.44601477753E+02 -0.92583477628E+03  0.92766496126E+03  0.10000000000E+01 0.  0.
    9000005    1    3    3    0    0  0.37442697071E+02 -0.44601477753E+02 -0.43128919265E+03  0.43520410738E+03  0.10000000000E+01 0.  0.
<mgrwt>
<rscale>  0 0.12500652E+03</rscale>
<asrwt>0</asrwt>
<pdfrwt beam="1">  1        4 0.44193183E-03 0.12500652E+03</pdfrwt>
<pdfrwt beam="2">  1       -4 0.20922972E+00 0.12500652E+03</pdfrwt>
<totfact> 0.20788545E+03</totfact>
</mgrwt>
</event>
<event>
 5    1  0.3486589E-002  0.1250016E+03  0.7818608E-02  0.1235067E+00
          4   -1    0    0  501    0  0.00000000000E+00  0.00000000000E+00  0.80338321843E+03  0.80338422225E+03  0.12700000000E+01 0. -1.
         -4   -1    0    0    0  501 -0.00000000000E+00 -0.00000000000E+00 -0.47784266540E+01  0.49443160586E+01  0.12700000000E+01 0. -1.
         25    2    1    2    0    0  0.00000000000E+00  0.00000000000E+00  0.79860479178E+03  0.80832853831E+03  0.12500164955E+03 0.  0.
    9000005    1    3    3    0    0 -0.39035737629E+02 -0.42349414497E+02  0.24248487865E+03  0.24923318017E+03  0.10000000000E+01 0.  0.
    9000005    1    3    3    0    0  0.39035737629E+02  0.42349414497E+02  0.55611991312E+03  0.55909535814E+03  0.10000000000E+01 0.  0.
<mgrwt>
<rscale>  0 0.12500165E+03</rscale>
<asrwt>0</asrwt>
<pdfrwt beam="1">  1        4 0.12361020E+00 0.12500165E+03</pdfrwt>
<pdfrwt beam="2">  1       -4 0.74798084E-03 0.12500165E+03</pdfrwt>
<totfact> 0.37894261E+03</totfact>
</mgrwt>
</event>
<event>
 5    1  0.3486589E-002  0.1249972E+03  0.7818608E-02  0.1235074E+00
          4   -1    0    0  501    0  0.00000000000E+00  0.00000000000E+00  0.37353075072E+02  0.37374658759E+02  0.12700000000E+01 0.  1.
         -4   -1    0    0    0  501 -0.00000000000E+00 -0.00000000000E+00 -0.10451611865E+03  0.10452383440E+03  0.12700000000E+01 0.  1.
         25    2    1    2    0    0  0.00000000000E+00  0.00000000000E+00 -0.67163043577E+02  0.14189849316E+03  0.12499723172E+03 0.  0.
    9000005    1    3    3    0    0 -0.53511445618E+02 -0.56999914851E+01  0.24802559257E+01  0.53880575205E+02  0.10000000000E+01 0.  0.
    9000005    1    3    3    0    0  0.53511445618E+02  0.56999914851E+01 -0.69643299503E+02  0.88017917952E+02  0.10000000000E+01 0.  0.
<mgrwt>
<rscale>  0 0.12499723E+03</rscale>
<asrwt>0</asrwt>
<pdfrwt beam="1">  1        4 0.57488808E-02 0.12499723E+03</pdfrwt>
<pdfrwt beam="2">  1       -4 0.16081657E-01 0.12499723E+03</pdfrwt>
<totfact> 0.10095019E+04</totfact>
</mgrwt>
</event>
<event>
 5    1  0.3486589E-002  0.1249990E+03  0.7818608E-02  0.1235071E+00
          4   -1    0    0  501    0  0.00000000000E+00  0.00000000000E+00  0.71932969404E+02  0.71944179662E+02  0.12700000000E+01 0. -1.
         -4   -1    0    0    0  501 -0.00000000000E+00 -0.00000000000E+00 -0.54280305763E+02  0.54295160868E+02  0.12700000000E+01 0. -1.
         25    2    1    2    0    0  0.00000000000E+00  0.00000000000E+00  0.17652663641E+02  0.12623934053E+03  0.12499901825E+03 0.  0.
    9000005    1    3    3    0    0 -0.13984573957E+02  0.56307455167E+02 -0.14622385182E+02  0.59840721624E+02  0.10000000000E+01 0.  0.
    9000005    1    3    3    0    0  0.13984573957E+02 -0.56307455167E+02  0.32275048824E+02  0.66398618906E+02  0.10000000000E+01 0.  0.
<mgrwt>
<rscale>  0 0.12499902E+03</rscale>
<asrwt>0</asrwt>
<pdfrwt beam="1">  1        4 0.11068616E-01 0.12499902E+03</pdfrwt>
<pdfrwt beam="2">  1       -4 0.83528214E-02 0.12499902E+03</pdfrwt>
<totfact> 0.10425950E+04</totfact>
</mgrwt>
</event>
<event>
 5    1  0.3486589E-002  0.1250014E+03  0.7818608E-02  0.1235067E+00
          4   -1    0    0  501    0  0.00000000000E+00  0.00000000000E+00  0.26129996344E+02  0.26160841136E+02  0.12700000000E+01 0.  1.
         -4   -1    0    0    0  501 -0.00000000000E+00 -0.00000000000E+00 -0.14937462476E+03  0.14938002351E+03  0.12700000000E+01 0.  1.
         25    2    1    2    0    0  0.00000000000E+00  0.00000000000E+00 -0.12324462842E+03  0.17554086464E+03  0.12500142689E+03 0.  0.
    9000005    1    3    3    0    0 -0.16308743631E+02  0.37976330059E+02  0.42032126149E+01  0.41555309647E+02  0.10000000000E+01 0.  0.
    9000005    1    3    3    0    0  0.16308743631E+02 -0.37976330059E+02 -0.12744784103E+03  0.13398555500E+03  0.10000000000E+01 0.  0.
<mgrwt>
<rscale>  0 0.12500143E+03</rscale>
<asrwt>0</asrwt>
<pdfrwt beam="1">  1        4 0.40227875E-02 0.12500143E+03</pdfrwt>
<pdfrwt beam="2">  1       -4 0.22983499E-01 0.12500143E+03</pdfrwt>
<totfact> 0.94422854E+03</totfact>
</mgrwt>
</event>
<event>
 5    1  0.3486589E-002  0.1249979E+03  0.7818608E-02  0.1235073E+00
         -4   -1    0    0    0  501 -0.00000000000E+00  0.00000000000E+00  0.11618922809E+03  0.11619616871E+03  0.12700000000E+01 0. -1.
          4   -1    0    0  501    0  0.00000000000E+00 -0.00000000000E+00 -0.33598634671E+02  0.33622628567E+02  0.12700000000E+01 0. -1.
         25    2    1    2    0    0  0.00000000000E+00  0.00000000000E+00  0.82590593418E+02  0.14981879728E+03  0.12499786357E+03 0.  0.
    9000005    1    3    3    0    0  0.19622961307E+02  0.41021846888E+02  0.92670019547E+02  0.10323073697E+03  0.10000000000E+01 0.  0.
    9000005    1    3    3    0    0 -0.19622961307E+02 -0.41021846888E+02 -0.10079426129E+02  0.46588060312E+02  0.10000000000E+01 0.  0.
<mgrwt>
<rscale>  0 0.12499786E+03</rscale>
<asrwt>0</asrwt>
<pdfrwt beam="2">  1        4 0.51714004E-02 0.12499786E+03</pdfrwt>
<pdfrwt beam="1">  1       -4 0.17877645E-01 0.12499786E+03</pdfrwt>
<totfact> 0.99344607E+03</totfact>
</mgrwt>
</event>
<event>
 5    1  0.3486589E-002  0.1250009E+03  0.7818608E-02  0.1235068E+00
          4   -1    0    0  501    0  0.00000000000E+00  0.00000000000E+00  0.89037856589E+01  0.89939034385E+01  0.12700000000E+01 0.  1.
         -4   -1    0    0    0  501 -0.00000000000E+00 -0.00000000000E+00 -0.43642401115E+03  0.43642585900E+03  0.12700000000E+01 0.  1.
         25    2    1    2    0    0  0.00000000000E+00  0.00000000000E+00 -0.42752022549E+03  0.44541976244E+03  0.12500088628E+03 0.  0.
    9000005    1    3    3    0    0 -0.27862126289E+02 -0.74999587853E+01 -0.41128442746E+03  0.41229652889E+03  0.10000000000E+01 0.  0.
    9000005    1    3    3    0    0  0.27862126289E+02  0.74999587853E+01 -0.16235798024E+02  0.33123233547E+02  0.10000000000E+01 0.  0.
<mgrwt>
<rscale>  0 0.12500089E+03</rscale>
<asrwt>0</asrwt>
<pdfrwt beam="1">  1        4 0.13768878E-02 0.12500089E+03</pdfrwt>
<pdfrwt beam="2">  1       -4 0.67149213E-01 0.12500089E+03</pdfrwt>
<totfact> 0.60361473E+03</totfact>
</mgrwt>
</event>
<event>
 5    1  0.3486589E-002  0.1249974E+03  0.7818608E-02  0.1235073E+00
          4   -1    0    0  501    0  0.00000000000E+00  0.00000000000E+00  0.15978618255E+02  0.16029009368E+02  0.12700000000E+01 0.  1.
         -4   -1    0    0    0  501 -0.00000000000E+00 -0.00000000000E+00 -0.24402021608E+03  0.24402352091E+03  0.12700000000E+01 0.  1.
         25    2    1    2    0    0  0.00000000000E+00  0.00000000000E+00 -0.22804159783E+03  0.26005253028E+03  0.12499739263E+03 0.  0.
    9000005    1    3    3    0    0  0.36143064933E+02 -0.91192856006E+01 -0.21836812236E+03  0.22152904861E+03  0.10000000000E+01 0.  0.
    9000005    1    3    3    0    0 -0.36143064933E+02  0.91192856006E+01 -0.96734754686E+01  0.38523481673E+02  0.10000000000E+01 0.  0.
<mgrwt>
<rscale>  0 0.12499739E+03</rscale>
<asrwt>0</asrwt>
<pdfrwt beam="1">  1        4 0.24623796E-02 0.12499739E+03</pdfrwt>
<pdfrwt beam="2">  1       -4 0.37545700E-01 0.12499739E+03</pdfrwt>
<totfact> 0.80903386E+03</totfact>
</mgrwt>
</event>
<event>
 5    1  0.3486589E-002  0.1250018E+03  0.7818608E-02  0.1235066E+00
         -4   -1    0    0    0  501 -0.00000000000E+00  0.00000000000E+00  0.45319429203E+02  0.45337220507E+02  0.12700000000E+01 0. -1.
          4   -1    0    0  501    0  0.00000000000E+00 -0.00000000000E+00 -0.86156823956E+02  0.86166183705E+02  0.12700000000E+01 0. -1.
         25    2    1    2    0    0  0.00000000000E+00  0.00000000000E+00 -0.40837394753E+02  0.13150340421E+03  0.12500181002E+03 0.  0.
    9000005    1    3    3    0    0  0.16705740789E+02  0.22964249638E+02 -0.78982085978E+02  0.83938122699E+02  0.10000000000E+01 0.  0.
    9000005    1    3    3    0    0 -0.16705740789E+02 -0.22964249638E+02  0.38144691225E+02  0.47565281513E+02  0.10000000000E+01 0.  0.
<mgrwt>
<rscale>  0 0.12500181E+03</rscale>
<asrwt>0</asrwt>
<pdfrwt beam="2">  1        4 0.13256985E-01 0.12500181E+03</pdfrwt>
<pdfrwt beam="1">  1       -4 0.69743084E-02 0.12500181E+03</pdfrwt>
<totfact> 0.10311888E+04</totfact>
</mgrwt>
</event>
<event>
 5    1  0.3486589E-002  0.1250084E+03  0.7818608E-02  0.1235056E+00
         -4   -1    0    0    0  501 -0.00000000000E+00  0.00000000000E+00  0.45424001847E+01  0.47165982909E+01  0.12700000000E+01 0.  1.
          4   -1    0    0  501    0  0.00000000000E+00 -0.00000000000E+00 -0.84371268004E+03  0.84371363587E+03  0.12700000000E+01 0.  1.
         25    2    1    2    0    0  0.00000000000E+00  0.00000000000E+00 -0.83917027985E+03  0.84843023416E+03  0.12500841433E+03 0.  0.
    9000005    1    3    3    0    0 -0.20472857948E+02 -0.57684288667E+02 -0.50520903962E+03  0.50890449868E+03  0.10000000000E+01 0.  0.
    9000005    1    3    3    0    0  0.20472857948E+02  0.57684288667E+02 -0.33396124024E+03  0.33952573548E+03  0.10000000000E+01 0.  0.
<mgrwt>
<rscale>  0 0.12500841E+03</rscale>
<asrwt>0</asrwt>
<pdfrwt beam="2">  1        4 0.12981530E+00 0.12500841E+03</pdfrwt>
<pdfrwt beam="1">  1       -4 0.71230485E-03 0.12500841E+03</pdfrwt>
<totfact> 0.36185027E+03</totfact>
</mgrwt>
</event>
<event>
 5    1  0.3486589E-002  0.1250016E+03  0.7818608E-02  0.1235067E+00
          4   -1    0    0  501    0  0.00000000000E+00  0.00000000000E+00  0.10260477595E+02  0.10338776546E+02  0.12700000000E+01 0. -1.
         -4   -1    0    0    0  501 -0.00000000000E+00 -0.00000000000E+00 -0.37919154802E+03  0.37919367478E+03  0.12700000000E+01 0. -1.
         25    2    1    2    0    0  0.00000000000E+00  0.00000000000E+00 -0.36893107042E+03  0.38953245132E+03  0.12500158362E+03 0.  0.
    9000005    1    3    3    0    0 -0.59442089883E+02 -0.14395503443E+02 -0.14446652117E+03  0.15688265777E+03  0.10000000000E+01 0.  0.
    9000005    1    3    3    0    0  0.59442089883E+02  0.14395503443E+02 -0.22446454925E+03  0.23264979355E+03  0.10000000000E+01 0.  0.
<mgrwt>
<rscale>  0 0.12500158E+03</rscale>
<asrwt>0</asrwt>
<pdfrwt beam="1">  1        4 0.15847219E-02 0.12500158E+03</pdfrwt>
<pdfrwt beam="2">  1       -4 0.58343337E-01 0.12500158E+03</pdfrwt>
<totfact> 0.65581454E+03</totfact>
</mgrwt>
</event>
<event>
 5    1  0.3486589E-002  0.1250013E+03  0.7818608E-02  0.1235067E+00
          4   -1    0    0  501    0  0.00000000000E+00  0.00000000000E+00  0.52559205419E+02  0.52574546829E+02  0.12700000000E+01 0. -1.
         -4   -1    0    0    0  501 -0.00000000000E+00 -0.00000000000E+00 -0.74290933126E+02  0.74301787628E+02  0.12700000000E+01 0. -1.
         25    2    1    2    0    0  0.00000000000E+00  0.00000000000E+00 -0.21731727707E+02  0.12687633446E+03  0.12500134502E+03 0.  0.
    9000005    1    3    3    0    0  0.36238937564E+02 -0.29603881299E+02 -0.52907978016E+02  0.70639256235E+02  0.10000000000E+01 0.  0.
    9000005    1    3    3    0    0 -0.36238937564E+02  0.29603881299E+02  0.31176250309E+02  0.56237078223E+02  0.10000000000E+01 0.  0.
<mgrwt>
<rscale>  0 0.12500135E+03</rscale>
<asrwt>0</asrwt>
<pdfrwt beam="1">  1        4 0.80880467E-02 0.12500135E+03</pdfrwt>
<pdfrwt beam="2">  1       -4 0.11431389E-01 0.12500135E+03</pdfrwt>
<totfact> 0.10411517E+04</totfact>
</mgrwt>
</event>
<event>
 5    1  0.3486589E-002  0.1250072E+03  0.7818608E-02  0.1235058E+00
         -4   -1    0    0    0  501 -0.00000000000E+00  0.00000000000E+00  0.19595061412E+03  0.19595472966E+03  0.12700000000E+01 0.  1.
          4   -1    0    0  501    0  0.00000000000E+00 -0.00000000000E+00 -0.19912600096E+02  0.19953058477E+02  0.12700000000E+01 0.  1.
         25    2    1    2    0    0  0.00000000000E+00  0.00000000000E+00  0.17603801403E+03  0.21590778813E+03  0.12500716217E+03 0.  0.
    9000005    1    3    3    0    0  0.59591653918E+02  0.10743423015E+02  0.11472652053E+03  0.12972956821E+03  0.10000000000E+01 0.  0.
    9000005    1    3    3    0    0 -0.59591653918E+02 -0.10743423015E+02  0.61311493501E+02  0.86178219928E+02  0.10000000000E+01 0.  0.
<mgrwt>
<rscale>  0 0.12500716E+03</rscale>
<asrwt>0</asrwt>
<pdfrwt beam="2">  1        4 0.30669057E-02 0.12500716E+03</pdfrwt>
<pdfrwt beam="1">  1       -4 0.30149677E-01 0.12500716E+03</pdfrwt>
<totfact> 0.87506054E+03</totfact>
</mgrwt>
</event>
<event>
 5    1  0.3486589E-002  0.1249968E+03  0.7818608E-02  0.1235074E+00
         -4   -1    0    0    0  501 -0.00000000000E+00  0.00000000000E+00  0.67842088541E+01  0.69020569236E+01  0.12700000000E+01 0. -1.
          4   -1    0    0  501    0  0.00000000000E+00 -0.00000000000E+00 -0.57067976520E+03  0.57068117833E+03  0.12700000000E+01 0. -1.
         25    2    1    2    0    0  0.00000000000E+00  0.00000000000E+00 -0.56389555634E+03  0.57758323526E+03  0.12499678071E+03 0.  0.
    9000005    1    3    3    0    0 -0.26786304591E+02 -0.12871232619E+02 -0.27935955344E+02  0.40799415973E+02  0.10000000000E+01 0.  0.
    9000005    1    3    3    0    0  0.26786304591E+02  0.12871232619E+02 -0.53595960100E+03  0.53678381928E+03  0.10000000000E+01 0.  0.
<mgrwt>
<rscale>  0 0.12499678E+03</rscale>
<asrwt>0</asrwt>
<pdfrwt beam="2">  1        4 0.87806023E-01 0.12499678E+03</pdfrwt>
<pdfrwt beam="1">  1       -4 0.10528988E-02 0.12499678E+03</pdfrwt>
<totfact> 0.50317469E+03</totfact>
</mgrwt>
</event>
<event>
 5    1  0.3486589E-002  0.1249990E+03  0.7818608E-02  0.1235071E+00
          4   -1    0    0  501    0  0.00000000000E+00  0.00000000000E+00  0.86938064037E+02  0.86947339686E+02  0.12700000000E+01 0. -1.
         -4   -1    0    0    0  501 -0.00000000000E+00 -0.00000000000E+00 -0.44910024986E+02  0.44927978413E+02  0.12700000000E+01 0. -1.
         25    2    1    2    0    0  0.00000000000E+00  0.00000000000E+00  0.42028039051E+02  0.13187531810E+03  0.12499897382E+03 0.  0.
    9000005    1    3    3    0    0 -0.14509359614E+02 -0.33482175444E+02 -0.32507482715E+02  0.48880609871E+02  0.10000000000E+01 0.  0.
    9000005    1    3    3    0    0  0.14509359614E+02  0.33482175444E+02  0.74535521766E+02  0.82994708228E+02  0.10000000000E+01 0.  0.
<mgrwt>
<rscale>  0 0.12499897E+03</rscale>
<asrwt>0</asrwt>
<pdfrwt beam="1">  1        4 0.13377181E-01 0.12499897E+03</pdfrwt>
<pdfrwt beam="2">  1       -4 0.69113292E-02 0.12499897E+03</pdfrwt>
<totfact> 0.10304599E+04</totfact>
</mgrwt>
</event>
<event>
 5    1  0.3486589E-002  0.1249970E+03  0.7818608E-02  0.1235074E+00
          4   -1    0    0  501    0  0.00000000000E+00  0.00000000000E+00  0.17851780214E+02  0.17896897966E+02  0.12700000000E+01 0.  1.
         -4   -1    0    0    0  501 -0.00000000000E+00 -0.00000000000E+00 -0.21848218738E+03  0.21848587850E+03  0.12700000000E+01 0.  1.
         25    2    1    2    0    0  0.00000000000E+00  0.00000000000E+00 -0.20063040717E+03  0.23638277647E+03  0.12499702688E+03 0.  0.
    9000005    1    3    3    0    0 -0.58563437860E+02  0.21363311802E+02 -0.10855766255E+03  0.12518719361E+03  0.10000000000E+01 0.  0.
    9000005    1    3    3    0    0  0.58563437860E+02 -0.21363311802E+02 -0.92072744623E+02  0.11119558286E+03  0.10000000000E+01 0.  0.
<mgrwt>
<rscale>  0 0.12499703E+03</rscale>
<asrwt>0</asrwt>
<pdfrwt beam="1">  1        4 0.27501824E-02 0.12499703E+03</pdfrwt>
<pdfrwt beam="2">  1       -4 0.33616397E-01 0.12499703E+03</pdfrwt>
<totfact> 0.84344648E+03</totfact>
</mgrwt>
</event>
<event>
 5    1  0.3486589E-002  0.1249999E+03  0.7818608E-02  0.1235069E+00
          4   -1    0    0  501    0  0.00000000000E+00  0.00000000000E+00  0.23019094270E+03  0.23019444607E+03  0.12700000000E+01 0.  1.
         -4   -1    0    0    0  501 -0.00000000000E+00 -0.00000000000E+00 -0.16942182628E+02  0.16989716071E+02  0.12700000000E+01 0.  1.
         25    2    1    2    0    0  0.00000000000E+00  0.00000000000E+00  0.21324876007E+03  0.24718416214E+03  0.12499990536E+03 0.  0.
    9000005    1    3    3    0    0  0.17775141423E+02  0.15588144705E+02  0.22101575362E+03  0.22227889971E+03  0.10000000000E+01 0.  0.
    9000005    1    3    3    0    0 -0.17775141423E+02 -0.15588144705E+02 -0.77669935481E+01  0.24905262430E+02  0.10000000000E+01 0.  0.
<mgrwt>
<rscale>  0 0.12499991E+03</rscale>
<asrwt>0</asrwt>
<pdfrwt beam="1">  1        4 0.35417915E-01 0.12499991E+03</pdfrwt>
<pdfrwt beam="2">  1       -4 0.26104157E-02 0.12499991E+03</pdfrwt>
<totfact> 0.82739090E+03</totfact>
</mgrwt>
</event>
<event>
 5    1  0.3486589E-002  0.1250013E+03  0.7818608E-02  0.1235067E+00
         -4   -1    0    0    0  501 -0.00000000000E+00  0.00000000000E+00  0.26035709952E+01  0.28968054693E+01  0.12700000000E+01 0.  1.
          4   -1    0    0  501    0  0.00000000000E+00 -0.00000000000E+00 -0.14200932925E+04  0.14200938603E+04  0.12700000000E+01 0.  1.
         25    2    1    2    0    0  0.00000000000E+00  0.00000000000E+00 -0.14174897215E+04  0.14229906658E+04  0.12500129814E+03 0.  0.
    9000005    1    3    3    0    0 -0.43578420486E+02 -0.44397515244E+02 -0.64128867850E+03  0.64429992027E+03  0.10000000000E+01 0.  0.
    9000005    1    3    3    0    0  0.43578420486E+02  0.44397515244E+02 -0.77620104297E+03  0.77869074555E+03  0.10000000000E+01 0.  0.
<mgrwt>
<rscale>  0 0.12500130E+03</rscale>
<asrwt>0</asrwt>
<pdfrwt beam="2">  1        4 0.21849791E+00 0.12500130E+03</pdfrwt>
<pdfrwt beam="1">  1       -4 0.42315070E-03 0.12500130E+03</pdfrwt>
<totfact> 0.19492398E+03</totfact>
</mgrwt>
</event>
<event>
 5    1  0.3486589E-002  0.1249945E+03  0.7818608E-02  0.1235078E+00
          4   -1    0    0  501    0  0.00000000000E+00  0.00000000000E+00  0.12073859533E+02  0.12140468855E+02  0.12700000000E+01 0.  1.
         -4   -1    0    0    0  501 -0.00000000000E+00 -0.00000000000E+00 -0.32254340162E+03  0.32254590190E+03  0.12700000000E+01 0.  1.
         25    2    1    2    0    0  0.00000000000E+00  0.00000000000E+00 -0.31046954209E+03  0.33468637075E+03  0.12499452069E+03 0.  0.
    9000005    1    3    3    0    0  0.30777904705E+02  0.40158470209E+02 -0.57038239075E+02  0.76251838433E+02  0.10000000000E+01 0.  0.
    9000005    1    3    3    0    0 -0.30777904705E+02 -0.40158470209E+02 -0.25343130301E+03  0.25843453232E+03  0.10000000000E+01 0.  0.
<mgrwt>
<rscale>  0 0.12499452E+03</rscale>
<asrwt>0</asrwt>
<pdfrwt beam="1">  1        4 0.18628332E-02 0.12499452E+03</pdfrwt>
<pdfrwt beam="2">  1       -4 0.49627371E-01 0.12499452E+03</pdfrwt>
<totfact> 0.71451436E+03</totfact>
</mgrwt>
</event>
<event>
 5    1  0.3486589E-002  0.1250006E+03  0.7818608E-02  0.1235068E+00
          4   -1    0    0  501    0  0.00000000000E+00  0.00000000000E+00  0.28085912144E+01  0.30823829434E+01  0.12700000000E+01 0.  1.
         -4   -1    0    0    0  501 -0.00000000000E+00 -0.00000000000E+00 -0.13259191155E+04  0.13259197237E+04  0.12700000000E+01 0.  1.
         25    2    1    2    0    0  0.00000000000E+00  0.00000000000E+00 -0.13231105243E+04  0.13290021067E+04  0.12500056016E+03 0.  0.
    9000005    1    3    3    0    0 -0.59246149193E+02  0.19638763222E+02 -0.69432138831E+03  0.69712192440E+03  0.10000000000E+01 0.  0.
    9000005    1    3    3    0    0  0.59246149193E+02 -0.19638763222E+02 -0.62878913600E+03  0.63188018229E+03  0.10000000000E+01 0.  0.
<mgrwt>
<rscale>  0 0.12500056E+03</rscale>
<asrwt>0</asrwt>
<pdfrwt beam="1">  1        4 0.45319970E-03 0.12500056E+03</pdfrwt>
<pdfrwt beam="2">  1       -4 0.20400819E+00 0.12500056E+03</pdfrwt>
<totfact> 0.21554007E+03</totfact>
</mgrwt>
</event>
<event>
 5    1  0.3486589E-002  0.1250029E+03  0.7818608E-02  0.1235065E+00
          4   -1    0    0  501    0  0.00000000000E+00  0.00000000000E+00  0.23062004653E+03  0.23062354338E+03  0.12700000000E+01 0.  1.
         -4   -1    0    0    0  501 -0.00000000000E+00 -0.00000000000E+00 -0.16911379208E+02  0.16958998989E+02  0.12700000000E+01 0.  1.
         25    2    1    2    0    0  0.00000000000E+00  0.00000000000E+00  0.21370866732E+03  0.24758254237E+03  0.12500288316E+03 0.  0.
    9000005    1    3    3    0    0 -0.28729525556E+02 -0.49782383989E+02  0.58268325907E+02  0.81852728717E+02  0.10000000000E+01 0.  0.
    9000005    1    3    3    0    0  0.28729525556E+02  0.49782383989E+02  0.15544034141E+03  0.16572981365E+03  0.10000000000E+01 0.  0.
<mgrwt>
<rscale>  0 0.12500288E+03</rscale>
<asrwt>0</asrwt>
<pdfrwt beam="1">  1        4 0.35483938E-01 0.12500288E+03</pdfrwt>
<pdfrwt beam="2">  1       -4 0.26056828E-02 0.12500288E+03</pdfrwt>
<totfact> 0.82675574E+03</totfact>
</mgrwt>
</event>
<event>
 5    1  0.3486589E-002  0.1250074E+03  0.7818608E-02  0.1235058E+00
         -4   -1    0    0    0  501 -0.00000000000E+00  0.00000000000E+00  0.68384098472E+03  0.68384216402E+03  0.12700000000E+01 0. -1.
          4   -1    0    0  501    0  0.00000000000E+00 -0.00000000000E+00 -0.56411153338E+01  0.57823076890E+01  0.12700000000E+01 0. -1.
         25    2    1    2    0    0  0.00000000000E+00  0.00000000000E+00  0.67819986939E+03  0.68962447171E+03  0.12500739632E+03 0.  0.
    9000005    1    3    3    0    0 -0.32503345575E+02 -0.35679806257E+02  0.55811908893E+03  0.56020302880E+03  0.10000000000E+01 0.  0.
    9000005    1    3    3    0    0  0.32503345575E+02  0.35679806257E+02  0.12008078046E+03  0.12942144290E+03  0.10000000000E+01 0.  0.
<mgrwt>
<rscale>  0 0.12500740E+03</rscale>
<asrwt>0</asrwt>
<pdfrwt beam="2">  1        4 0.87881624E-03 0.12500740E+03</pdfrwt>
<pdfrwt beam="1">  1       -4 0.10521718E+00 0.12500740E+03</pdfrwt>
<totfact> 0.43633054E+03</totfact>
</mgrwt>
</event>
<event>
 5    1  0.3486589E-002  0.1250019E+03  0.7818608E-02  0.1235066E+00
         -4   -1    0    0    0  501 -0.00000000000E+00  0.00000000000E+00  0.27608408743E+01  0.30389376981E+01  0.12700000000E+01 0. -1.
          4   -1    0    0  501    0  0.00000000000E+00 -0.00000000000E+00 -0.13467973942E+04  0.13467979929E+04  0.12700000000E+01 0. -1.
         25    2    1    2    0    0  0.00000000000E+00  0.00000000000E+00 -0.13440365533E+04  0.13498369306E+04  0.12500193109E+03 0.  0.
    9000005    1    3    3    0    0  0.22427066490E+02  0.87998698736E+00 -0.42211000457E+02  0.47817530760E+02  0.10000000000E+01 0.  0.
    9000005    1    3    3    0    0 -0.22427066490E+02 -0.87998698736E+00 -0.13018255528E+04  0.13020193999E+04  0.10000000000E+01 0.  0.
<mgrwt>
<rscale>  0 0.12500193E+03</rscale>
<asrwt>0</asrwt>
<pdfrwt beam="2">  1        4 0.20722054E+00 0.12500193E+03</pdfrwt>
<pdfrwt beam="1">  1       -4 0.44618395E-03 0.12500193E+03</pdfrwt>
<totfact> 0.21081092E+03</totfact>
</mgrwt>
</event>
<event>
 5    1  0.3486589E-002  0.1249992E+03  0.7818608E-02  0.1235071E+00
          4   -1    0    0  501    0  0.00000000000E+00  0.00000000000E+00  0.22430646470E+02  0.22466570746E+02  0.12700000000E+01 0. -1.
         -4   -1    0    0    0  501 -0.00000000000E+00 -0.00000000000E+00 -0.17396795855E+03  0.17397259411E+03  0.12700000000E+01 0. -1.
         25    2    1    2    0    0  0.00000000000E+00  0.00000000000E+00 -0.15153731208E+03  0.19643916486E+03  0.12499915415E+03 0.  0.
    9000005    1    3    3    0    0 -0.14854387363E+02  0.52816623260E+02 -0.12278188233E+03  0.13448657608E+03  0.10000000000E+01 0.  0.
    9000005    1    3    3    0    0  0.14854387363E+02 -0.52816623260E+02 -0.28755429750E+02  0.61952588781E+02  0.10000000000E+01 0.  0.
<mgrwt>
<rscale>  0 0.12499915E+03</rscale>
<asrwt>0</asrwt>
<pdfrwt beam="1">  1        4 0.34539888E-02 0.12499915E+03</pdfrwt>
<pdfrwt beam="2">  1       -4 0.26767420E-01 0.12499915E+03</pdfrwt>
<totfact> 0.90740554E+03</totfact>
</mgrwt>
</event>
<event>
 5    1  0.3486589E-002  0.1249980E+03  0.7818608E-02  0.1235072E+00
          4   -1    0    0  501    0  0.00000000000E+00  0.00000000000E+00  0.63218288121E+03  0.63218415686E+03  0.12700000000E+01 0. -1.
         -4   -1    0    0    0  501 -0.00000000000E+00 -0.00000000000E+00 -0.61122381978E+01  0.62427842976E+01  0.12700000000E+01 0. -1.
         25    2    1    2    0    0  0.00000000000E+00  0.00000000000E+00  0.62607064301E+03  0.63842694116E+03  0.12499803664E+03 0.  0.
    9000005    1    3    3    0    0 -0.36041691223E+02 -0.49194654367E+02  0.38269410536E+03  0.38752405835E+03  0.10000000000E+01 0.  0.
    9000005    1    3    3    0    0  0.36041691223E+02  0.49194654367E+02  0.24337653765E+03  0.25090288281E+03  0.10000000000E+01 0.  0.
<mgrwt>
<rscale>  0 0.12499804E+03</rscale>
<asrwt>0</asrwt>
<pdfrwt beam="1">  1        4 0.97269087E-01 0.12499804E+03</pdfrwt>
<pdfrwt beam="2">  1       -4 0.95048406E-03 0.12499804E+03</pdfrwt>
<totfact> 0.46530435E+03</totfact>
</mgrwt>
</event>
<event>
 5    1  0.3486589E-002  0.1250096E+03  0.7818608E-02  0.1235054E+00
         -4   -1    0    0    0  501 -0.00000000000E+00  0.00000000000E+00  0.15749958624E+02  0.15801078972E+02  0.12700000000E+01 0.  1.
          4   -1    0    0  501    0  0.00000000000E+00 -0.00000000000E+00 -0.24759998814E+03  0.24760324518E+03  0.12700000000E+01 0.  1.
         25    2    1    2    0    0  0.00000000000E+00  0.00000000000E+00 -0.23185002951E+03  0.26340432415E+03  0.12500960682E+03 0.  0.
    9000005    1    3    3    0    0  0.76034526135E+01  0.58507204141E+02 -0.72489408876E+02  0.93469887275E+02  0.10000000000E+01 0.  0.
    9000005    1    3    3    0    0 -0.76034526135E+01 -0.58507204141E+02 -0.15936062064E+03  0.16993443688E+03  0.10000000000E+01 0.  0.
<mgrwt>
<rscale>  0 0.12500961E+03</rscale>
<asrwt>0</asrwt>
<pdfrwt beam="2">  1        4 0.38096486E-01 0.12500961E+03</pdfrwt>
<pdfrwt beam="1">  1       -4 0.24272536E-02 0.12500961E+03</pdfrwt>
<totfact> 0.80413481E+03</totfact>
</mgrwt>
</event>
<event>
 5    1  0.3486589E-002  0.1250119E+03  0.7818608E-02  0.1235051E+00
         -4   -1    0    0    0  501 -0.00000000000E+00  0.00000000000E+00  0.48538296575E+03  0.48538462721E+03  0.12700000000E+01 0.  1.
          4   -1    0    0  501    0  0.00000000000E+00 -0.00000000000E+00 -0.79975230403E+01  0.80977326938E+01  0.12700000000E+01 0.  1.
         25    2    1    2    0    0  0.00000000000E+00  0.00000000000E+00  0.47738544271E+03  0.49348235991E+03  0.12501191397E+03 0.  0.
    9000005    1    3    3    0    0  0.41903616789E+02  0.39431418828E+02  0.33500197600E+03  0.33990891988E+03  0.10000000000E+01 0.  0.
    9000005    1    3    3    0    0 -0.41903616789E+02 -0.39431418828E+02  0.14238346671E+03  0.15357344003E+03  0.10000000000E+01 0.  0.
<mgrwt>
<rscale>  0 0.12501191E+03</rscale>
<asrwt>0</asrwt>
<pdfrwt beam="2">  1        4 0.12382247E-02 0.12501191E+03</pdfrwt>
<pdfrwt beam="1">  1       -4 0.74682120E-01 0.12501191E+03</pdfrwt>
<totfact> 0.56358864E+03</totfact>
</mgrwt>
</event>
<event>
 5    1  0.3486589E-002  0.1249839E+03  0.7818608E-02  0.1235094E+00
         -4   -1    0    0    0  501 -0.00000000000E+00  0.00000000000E+00  0.43434363308E+02  0.43452926438E+02  0.12700000000E+01 0.  1.
          4   -1    0    0  501    0  0.00000000000E+00 -0.00000000000E+00 -0.89869193705E+02  0.89878166855E+02  0.12700000000E+01 0.  1.
         25    2    1    2    0    0  0.00000000000E+00  0.00000000000E+00 -0.46434830397E+02  0.13333109329E+03  0.12498394683E+03 0.  0.
    9000005    1    3    3    0    0 -0.60356456900E+02 -0.12610801913E+02 -0.12426914172E+02  0.62907570373E+02  0.10000000000E+01 0.  0.
    9000005    1    3    3    0    0  0.60356456900E+02  0.12610801913E+02 -0.34007916225E+02  0.70423522920E+02  0.10000000000E+01 0.  0.
<mgrwt>
<rscale>  0 0.12498395E+03</rscale>
<asrwt>0</asrwt>
<pdfrwt beam="2">  1        4 0.13828148E-01 0.12498395E+03</pdfrwt>
<pdfrwt beam="1">  1       -4 0.66843279E-02 0.12498395E+03</pdfrwt>
<totfact> 0.10277089E+04</totfact>
</mgrwt>
</event>
<event>
 5    1  0.3486589E-002  0.1250000E+03  0.7818608E-02  0.1235069E+00
         -4   -1    0    0    0  501 -0.00000000000E+00  0.00000000000E+00  0.10061986376E+02  0.10141817876E+02  0.12700000000E+01 0. -1.
          4   -1    0    0  501    0  0.00000000000E+00 -0.00000000000E+00 -0.38660367646E+03  0.38660576244E+03  0.12700000000E+01 0. -1.
         25    2    1    2    0    0  0.00000000000E+00  0.00000000000E+00 -0.37654169009E+03  0.39674758032E+03  0.12499999247E+03 0.  0.
    9000005    1    3    3    0    0  0.46457658759E+02  0.17632968896E+02 -0.30854813072E+03  0.31252549435E+03  0.10000000000E+01 0.  0.
    9000005    1    3    3    0    0 -0.46457658759E+02 -0.17632968896E+02 -0.67993559371E+02  0.84222085972E+02  0.10000000000E+01 0.  0.
<mgrwt>
<rscale>  0 0.12499999E+03</rscale>
<asrwt>0</asrwt>
<pdfrwt beam="2">  1        4 0.59483779E-01 0.12499999E+03</pdfrwt>
<pdfrwt beam="1">  1       -4 0.15542995E-02 0.12499999E+03</pdfrwt>
<totfact> 0.64870365E+03</totfact>
</mgrwt>
</event>
<event>
 5    1  0.3486589E-002  0.1249972E+03  0.7818608E-02  0.1235074E+00
          4   -1    0    0  501    0  0.00000000000E+00  0.00000000000E+00  0.88226573461E+02  0.88235713658E+02  0.12700000000E+01 0.  1.
         -4   -1    0    0    0  501 -0.00000000000E+00 -0.00000000000E+00 -0.44252672139E+02  0.44270892147E+02  0.12700000000E+01 0.  1.
         25    2    1    2    0    0  0.00000000000E+00  0.00000000000E+00  0.43973901322E+02  0.13250660580E+03  0.12499718631E+03 0.  0.
    9000005    1    3    3    0    0 -0.12092225816E+02  0.48883876537E+02 -0.17239022319E+02  0.53235694802E+02  0.10000000000E+01 0.  0.
    9000005    1    3    3    0    0  0.12092225816E+02 -0.48883876537E+02  0.61212923641E+02  0.79270911003E+02  0.10000000000E+01 0.  0.
<mgrwt>
<rscale>  0 0.12499719E+03</rscale>
<asrwt>0</asrwt>
<pdfrwt beam="1">  1        4 0.13575423E-01 0.12499719E+03</pdfrwt>
<pdfrwt beam="2">  1       -4 0.68102081E-02 0.12499719E+03</pdfrwt>
<totfact> 0.10291550E+04</totfact>
</mgrwt>
</event>
<event>
 5    1  0.3486589E-002  0.1250023E+03  0.7818608E-02  0.1235066E+00
          4   -1    0    0  501    0  0.00000000000E+00  0.00000000000E+00  0.57119185007E+02  0.57133301987E+02  0.12700000000E+01 0.  1.
         -4   -1    0    0    0  501 -0.00000000000E+00 -0.00000000000E+00 -0.68361808044E+02  0.68373603818E+02  0.12700000000E+01 0.  1.
         25    2    1    2    0    0  0.00000000000E+00  0.00000000000E+00 -0.11242623037E+02  0.12550690581E+03  0.12500234731E+03 0.  0.
    9000005    1    3    3    0    0  0.43356254568E+02 -0.22694522139E+02  0.33401884736E+02  0.59257843778E+02  0.10000000000E+01 0.  0.
    9000005    1    3    3    0    0 -0.43356254568E+02  0.22694522139E+02 -0.44644507773E+02  0.66249062028E+02  0.10000000000E+01 0.  0.
<mgrwt>
<rscale>  0 0.12500235E+03</rscale>
<asrwt>0</asrwt>
<pdfrwt beam="1">  1        4 0.87895602E-02 0.12500235E+03</pdfrwt>
<pdfrwt beam="2">  1       -4 0.10519195E-01 0.12500235E+03</pdfrwt>
<totfact> 0.10441249E+04</totfact>
</mgrwt>
</event>
<event>
 5    1  0.3486589E-002  0.1250003E+03  0.7818608E-02  0.1235069E+00
          4   -1    0    0  501    0  0.00000000000E+00  0.00000000000E+00  0.10051121759E+03  0.10051924075E+03  0.12700000000E+01 0.  1.
         -4   -1    0    0    0  501 -0.00000000000E+00 -0.00000000000E+00 -0.38844030724E+02  0.38864786412E+02  0.12700000000E+01 0.  1.
         25    2    1    2    0    0  0.00000000000E+00  0.00000000000E+00  0.61667186868E+02  0.13938402717E+03  0.12500026037E+03 0.  0.
    9000005    1    3    3    0    0  0.35228822853E+02 -0.16033677409E+02 -0.23874393681E+02  0.45487750489E+02  0.10000000000E+01 0.  0.
    9000005    1    3    3    0    0 -0.35228822853E+02  0.16033677409E+02  0.85541580549E+02  0.93896276677E+02  0.10000000000E+01 0.  0.
<mgrwt>
<rscale>  0 0.12500026E+03</rscale>
<asrwt>0</asrwt>
<pdfrwt beam="1">  1        4 0.15465478E-01 0.12500026E+03</pdfrwt>
<pdfrwt beam="2">  1       -4 0.59782186E-02 0.12500026E+03</pdfrwt>
<totfact> 0.10146309E+04</totfact>
</mgrwt>
</event>
<event>
 5    1  0.3486589E-002  0.1249937E+03  0.7818608E-02  0.1235079E+00
          4   -1    0    0  501    0  0.00000000000E+00  0.00000000000E+00  0.23588747951E+02  0.23622911123E+02  0.12700000000E+01 0.  1.
         -4   -1    0    0    0  501 -0.00000000000E+00 -0.00000000000E+00 -0.16542503224E+03  0.16542990719E+03  0.12700000000E+01 0.  1.
         25    2    1    2    0    0  0.00000000000E+00  0.00000000000E+00 -0.14183628429E+03  0.18905281831E+03  0.12499374612E+03 0.  0.
    9000005    1    3    3    0    0 -0.54029379806E+02 -0.28942666193E+02 -0.89318933016E+02  0.10833154482E+03  0.10000000000E+01 0.  0.
    9000005    1    3    3    0    0  0.54029379806E+02  0.28942666193E+02 -0.52517351273E+02  0.80721273487E+02  0.10000000000E+01 0.  0.
<mgrwt>
<rscale>  0 0.12499375E+03</rscale>
<asrwt>0</asrwt>
<pdfrwt beam="1">  1        4 0.36320412E-02 0.12499375E+03</pdfrwt>
<pdfrwt beam="2">  1       -4 0.25453007E-01 0.12499375E+03</pdfrwt>
<totfact> 0.92025275E+03</totfact>
</mgrwt>
</event>
<event>
 5    1  0.3486589E-002  0.1250016E+03  0.7818608E-02  0.1235067E+00
         -4   -1    0    0    0  501 -0.00000000000E+00  0.00000000000E+00  0.23153854956E+02  0.23188658851E+02  0.12700000000E+01 0. -1.
          4   -1    0    0  501    0  0.00000000000E+00 -0.00000000000E+00 -0.16854887147E+03  0.16855365607E+03  0.12700000000E+01 0. -1.
         25    2    1    2    0    0  0.00000000000E+00  0.00000000000E+00 -0.14539501651E+03  0.19174231492E+03  0.12500161800E+03 0.  0.
    9000005    1    3    3    0    0 -0.75294664556E+01  0.50820855064E+02 -0.12727352708E+03  0.13725524715E+03  0.10000000000E+01 0.  0.
    9000005    1    3    3    0    0  0.75294664556E+01 -0.50820855064E+02 -0.18121489428E+02  0.54487067765E+02  0.10000000000E+01 0.  0.
<mgrwt>
<rscale>  0 0.12500162E+03</rscale>
<asrwt>0</asrwt>
<pdfrwt beam="2">  1        4 0.25933640E-01 0.12500162E+03</pdfrwt>
<pdfrwt beam="1">  1       -4 0.35651769E-02 0.12500162E+03</pdfrwt>
<totfact> 0.91541722E+03</totfact>
</mgrwt>
</event>
<event>
 5    1  0.3486589E-002  0.1249974E+03  0.7818608E-02  0.1235073E+00
         -4   -1    0    0    0  501 -0.00000000000E+00  0.00000000000E+00  0.21101966696E+02  0.21140148969E+02  0.12700000000E+01 0.  1.
          4   -1    0    0  501    0  0.00000000000E+00 -0.00000000000E+00 -0.18489782381E+03  0.18490218536E+03  0.12700000000E+01 0.  1.
         25    2    1    2    0    0  0.00000000000E+00  0.00000000000E+00 -0.16379585712E+03  0.20604233433E+03  0.12499744288E+03 0.  0.
    9000005    1    3    3    0    0  0.24365284725E+02 -0.18904628558E+02  0.76928641319E+01  0.31799877974E+02  0.10000000000E+01 0.  0.
    9000005    1    3    3    0    0 -0.24365284725E+02  0.18904628558E+02 -0.17148872125E+03  0.17424245635E+03  0.10000000000E+01 0.  0.
<mgrwt>
<rscale>  0 0.12499744E+03</rscale>
<asrwt>0</asrwt>
<pdfrwt beam="2">  1        4 0.28449091E-01 0.12499744E+03</pdfrwt>
<pdfrwt beam="1">  1       -4 0.32497291E-02 0.12499744E+03</pdfrwt>
<totfact> 0.89131424E+03</totfact>
</mgrwt>
</event>
<event>
 5    1  0.3486589E-002  0.1249994E+03  0.7818608E-02  0.1235070E+00
         -4   -1    0    0    0  501 -0.00000000000E+00  0.00000000000E+00  0.60782090572E+03  0.60782223250E+03  0.12700000000E+01 0.  1.
          4   -1    0    0  501    0  0.00000000000E+00 -0.00000000000E+00 -0.63624930654E+01  0.64880057034E+01  0.12700000000E+01 0.  1.
         25    2    1    2    0    0  0.00000000000E+00  0.00000000000E+00  0.60145841265E+03  0.61431023821E+03  0.12499938647E+03 0.  0.
    9000005    1    3    3    0    0 -0.48796046967E+02 -0.34977941579E+02  0.21550806428E+03  0.22371686653E+03  0.10000000000E+01 0.  0.
    9000005    1    3    3    0    0  0.48796046967E+02  0.34977941579E+02  0.38595034837E+03  0.39059337168E+03  0.10000000000E+01 0.  0.
<mgrwt>
<rscale>  0 0.12499939E+03</rscale>
<asrwt>0</asrwt>
<pdfrwt beam="2">  1        4 0.98860201E-03 0.12499939E+03</pdfrwt>
<pdfrwt beam="1">  1       -4 0.93520662E-01 0.12499939E+03</pdfrwt>
<totfact> 0.47977235E+03</totfact>
</mgrwt>
</event>
<event>
 5    1  0.3486589E-002  0.1249996E+03  0.7818608E-02  0.1235070E+00
          4   -1    0    0  501    0  0.00000000000E+00  0.00000000000E+00  0.20739126023E+01  0.24318744791E+01  0.12700000000E+01 0.  1.
         -4   -1    0    0    0  501 -0.00000000000E+00 -0.00000000000E+00 -0.17335120022E+04  0.17335124674E+04  0.12700000000E+01 0.  1.
         25    2    1    2    0    0  0.00000000000E+00  0.00000000000E+00 -0.17314380896E+04  0.17359443419E+04  0.12499960013E+03 0.  0.
    9000005    1    3    3    0    0 -0.16973012585E+02  0.57361559597E+02 -0.11167710917E+04  0.11183725242E+04  0.10000000000E+01 0.  0.
    9000005    1    3    3    0    0  0.16973012585E+02 -0.57361559597E+02 -0.61466699794E+03  0.61757181771E+03  0.10000000000E+01 0.  0.
<mgrwt>
<rscale>  0 0.12499960E+03</rscale>
<asrwt>0</asrwt>
<pdfrwt beam="1">  1        4 0.34663618E-03 0.12499960E+03</pdfrwt>
<pdfrwt beam="2">  1       -4 0.26672066E+00 0.12499960E+03</pdfrwt>
<totfact> 0.13716867E+03</totfact>
</mgrwt>
</event>
<event>
 5    1  0.3486589E-002  0.1249995E+03  0.7818608E-02  0.1235070E+00
         -4   -1    0    0    0  501 -0.00000000000E+00  0.00000000000E+00  0.16484592734E+02  0.16533441796E+02  0.12700000000E+01 0.  1.
          4   -1    0    0  501    0  0.00000000000E+00 -0.00000000000E+00 -0.23656057274E+03  0.23656398177E+03  0.12700000000E+01 0.  1.
         25    2    1    2    0    0  0.00000000000E+00  0.00000000000E+00 -0.22007598000E+03  0.25309742357E+03  0.12499947538E+03 0.  0.
    9000005    1    3    3    0    0  0.45172206910E+02  0.36660938237E+02 -0.63836228376E+02  0.86374861637E+02  0.10000000000E+01 0.  0.
    9000005    1    3    3    0    0 -0.45172206910E+02 -0.36660938237E+02 -0.15623975163E+03  0.16672256193E+03  0.10000000000E+01 0.  0.
<mgrwt>
<rscale>  0 0.12499948E+03</rscale>
<asrwt>0</asrwt>
<pdfrwt beam="2">  1        4 0.36397952E-01 0.12499948E+03</pdfrwt>
<pdfrwt beam="1">  1       -4 0.25401112E-02 0.12499948E+03</pdfrwt>
<totfact> 0.81885563E+03</totfact>
</mgrwt>
</event>
<event>
 5    1  0.3486589E-002  0.1249995E+03  0.7818608E-02  0.1235070E+00
         -4   -1    0    0    0  501 -0.00000000000E+00  0.00000000000E+00  0.20668637574E+03  0.20669027750E+03  0.12700000000E+01 0.  1.
          4   -1    0    0  501    0  0.00000000000E+00 -0.00000000000E+00 -0.18873840435E+02  0.18916520631E+02  0.12700000000E+01 0.  1.
         25    2    1    2    0    0  0.00000000000E+00  0.00000000000E+00  0.18781253530E+03  0.22560679813E+03  0.12499951579E+03 0.  0.
    9000005    1    3    3    0    0  0.48701407931E+02  0.37298269401E+02  0.11543121290E+03  0.13072242710E+03  0.10000000000E+01 0.  0.
    9000005    1    3    3    0    0 -0.48701407931E+02 -0.37298269401E+02  0.72381322403E+02  0.94884371040E+02  0.10000000000E+01 0.  0.
<mgrwt>
<rscale>  0 0.12499952E+03</rscale>
<asrwt>0</asrwt>
<pdfrwt beam="2">  1        4 0.29072509E-02 0.12499952E+03</pdfrwt>
<pdfrwt beam="1">  1       -4 0.31801488E-01 0.12499952E+03</pdfrwt>
<totfact> 0.85989702E+03</totfact>
</mgrwt>
</event>
<event>
 5    1  0.3486589E-002  0.1249906E+03  0.7818608E-02  0.1235084E+00
          4   -1    0    0  501    0  0.00000000000E+00  0.00000000000E+00  0.13124275135E+03  0.13124889593E+03  0.12700000000E+01 0. -1.
         -4   -1    0    0    0  501 -0.00000000000E+00 -0.00000000000E+00 -0.29738673716E+02  0.29765779250E+02  0.12700000000E+01 0. -1.
         25    2    1    2    0    0  0.00000000000E+00  0.00000000000E+00  0.10150407763E+03  0.16101467518E+03  0.12499059103E+03 0.  0.
    9000005    1    3    3    0    0 -0.28834221900E+02 -0.26651890282E+02 -0.11867985445E+02  0.41031508462E+02  0.10000000000E+01 0.  0.
    9000005    1    3    3    0    0  0.28834221900E+02  0.26651890282E+02  0.11337206308E+03  0.11998316672E+03  0.10000000000E+01 0.  0.
<mgrwt>
<rscale>  0 0.12499059E+03</rscale>
<asrwt>0</asrwt>
<pdfrwt beam="1">  1        4 0.20193750E-01 0.12499059E+03</pdfrwt>
<pdfrwt beam="2">  1       -4 0.45777383E-02 0.12499059E+03</pdfrwt>
<totfact> 0.97168066E+03</totfact>
</mgrwt>
</event>
<event>
 5    1  0.3486589E-002  0.1250387E+03  0.7818608E-02  0.1235009E+00
         -4   -1    0    0    0  501 -0.00000000000E+00  0.00000000000E+00  0.61754429566E+01  0.63046804606E+01  0.12700000000E+01 0. -1.
          4   -1    0    0  501    0  0.00000000000E+00 -0.00000000000E+00 -0.62625322856E+03  0.62625451630E+03  0.12700000000E+01 0. -1.
         25    2    1    2    0    0  0.00000000000E+00  0.00000000000E+00 -0.62007778560E+03  0.63255919676E+03  0.12503870282E+03 0.  0.
    9000005    1    3    3    0    0 -0.46146154999E+02  0.12116418071E+02 -0.10570700028E+03  0.11597950300E+03  0.10000000000E+01 0.  0.
    9000005    1    3    3    0    0  0.46146154999E+02 -0.12116418071E+02 -0.51437078532E+03  0.51657969375E+03  0.10000000000E+01 0.  0.
<mgrwt>
<rscale>  0 0.12503870E+03</rscale>
<asrwt>0</asrwt>
<pdfrwt beam="2">  1        4 0.96356641E-01 0.12503870E+03</pdfrwt>
<pdfrwt beam="1">  1       -4 0.96010905E-03 0.12503870E+03</pdfrwt>
<totfact> 0.46835122E+03</totfact>
</mgrwt>
</event>
<event>
 5    1  0.3486589E-002  0.1249927E+03  0.7818608E-02  0.1235081E+00
          4   -1    0    0  501    0  0.00000000000E+00  0.00000000000E+00  0.91011111089E+02  0.91019971663E+02  0.12700000000E+01 0.  1.
         -4   -1    0    0    0  501 -0.00000000000E+00 -0.00000000000E+00 -0.42895232016E+02  0.42914028355E+02  0.12700000000E+01 0.  1.
         25    2    1    2    0    0  0.00000000000E+00  0.00000000000E+00  0.48115879073E+02  0.13393400002E+03  0.12499271396E+03 0.  0.
    9000005    1    3    3    0    0  0.61314403503E+02  0.44594846963E+01  0.36059678192E+02  0.71278632647E+02  0.10000000000E+01 0.  0.
    9000005    1    3    3    0    0 -0.61314403503E+02 -0.44594846963E+01  0.12056200881E+02  0.62655367371E+02  0.10000000000E+01 0.  0.
<mgrwt>
<rscale>  0 0.12499271E+03</rscale>
<asrwt>0</asrwt>
<pdfrwt beam="1">  1        4 0.14003837E-01 0.12499271E+03</pdfrwt>
<pdfrwt beam="2">  1       -4 0.66013940E-02 0.12499271E+03</pdfrwt>
<totfact> 0.10262275E+04</totfact>
</mgrwt>
</event>
<event>
 5    1  0.3486589E-002  0.1249994E+03  0.7818608E-02  0.1235070E+00
         -4   -1    0    0    0  501 -0.00000000000E+00  0.00000000000E+00  0.66221317284E+01  0.67428131094E+01  0.12700000000E+01 0. -1.
          4   -1    0    0  501    0  0.00000000000E+00 -0.00000000000E+00 -0.58442450145E+03  0.58442588136E+03  0.12700000000E+01 0. -1.
         25    2    1    2    0    0  0.00000000000E+00  0.00000000000E+00 -0.57780236972E+03  0.59116869447E+03  0.12499938742E+03 0.  0.
    9000005    1    3    3    0    0 -0.20696449730E+02 -0.33216380143E+02 -0.51931148589E+03  0.52078507113E+03  0.10000000000E+01 0.  0.
    9000005    1    3    3    0    0  0.20696449730E+02  0.33216380143E+02 -0.58490883838E+02  0.70383623332E+02  0.10000000000E+01 0.  0.
<mgrwt>
<rscale>  0 0.12499939E+03</rscale>
<asrwt>0</asrwt>
<pdfrwt beam="2">  1        4 0.89920811E-01 0.12499939E+03</pdfrwt>
<pdfrwt beam="1">  1       -4 0.10281793E-02 0.12499939E+03</pdfrwt>
<totfact> 0.49430536E+03</totfact>
</mgrwt>
</event>
<event>
 5    1  0.3486589E-002  0.1250011E+03  0.7818608E-02  0.1235068E+00
          4   -1    0    0  501    0  0.00000000000E+00  0.00000000000E+00  0.19028966626E+03  0.19029390423E+03  0.12700000000E+01 0. -1.
         -4   -1    0    0    0  501 -0.00000000000E+00 -0.00000000000E+00 -0.20504152445E+02  0.20543445853E+02  0.12700000000E+01 0. -1.
         25    2    1    2    0    0  0.00000000000E+00  0.00000000000E+00  0.16978551382E+03  0.21083735008E+03  0.12500106994E+03 0.  0.
    9000005    1    3    3    0    0  0.18564135265E+02 -0.57645787220E+02  0.58890835506E+02  0.84479550241E+02  0.10000000000E+01 0.  0.
    9000005    1    3    3    0    0 -0.18564135265E+02  0.57645787220E+02  0.11089467831E+03  0.12635779984E+03  0.10000000000E+01 0.  0.
<mgrwt>
<rscale>  0 0.12500107E+03</rscale>
<asrwt>0</asrwt>
<pdfrwt beam="1">  1        4 0.29278681E-01 0.12500107E+03</pdfrwt>
<pdfrwt beam="2">  1       -4 0.31578336E-02 0.12500107E+03</pdfrwt>
<totfact> 0.88337200E+03</totfact>
</mgrwt>
</event>
<event>
 5    1  0.3486589E-002  0.1250013E+03  0.7818608E-02  0.1235067E+00
          4   -1    0    0  501    0  0.00000000000E+00  0.00000000000E+00  0.36851380414E+01  0.38978381680E+01  0.12700000000E+01 0. -1.
         -4   -1    0    0    0  501 -0.00000000000E+00 -0.00000000000E+00 -0.10300761780E+04  0.10300769609E+04  0.12700000000E+01 0. -1.
         25    2    1    2    0    0  0.00000000000E+00  0.00000000000E+00 -0.10263910399E+04  0.10339747990E+04  0.12500127282E+03 0.  0.
    9000005    1    3    3    0    0  0.34297821003E+02 -0.81290065091E+01 -0.86347154590E+02  0.93269782771E+02  0.10000000000E+01 0.  0.
    9000005    1    3    3    0    0 -0.34297821003E+02  0.81290065091E+01 -0.94004388534E+03  0.94070501627E+03  0.10000000000E+01 0.  0.
<mgrwt>
<rscale>  0 0.12500127E+03</rscale>
<asrwt>0</asrwt>
<pdfrwt beam="1">  1        4 0.58336691E-03 0.12500127E+03</pdfrwt>
<pdfrwt beam="2">  1       -4 0.15848946E+00 0.12500127E+03</pdfrwt>
<totfact> 0.29499685E+03</totfact>
</mgrwt>
</event>
<event>
 5    1  0.3486589E-002  0.1249857E+03  0.7818608E-02  0.1235092E+00
         -4   -1    0    0    0  501 -0.00000000000E+00  0.00000000000E+00  0.29202004035E+03  0.29202280196E+03  0.12700000000E+01 0.  1.
          4   -1    0    0  501    0  0.00000000000E+00 -0.00000000000E+00 -0.13340612533E+02  0.13400926937E+02  0.12700000000E+01 0.  1.
         25    2    1    2    0    0  0.00000000000E+00  0.00000000000E+00  0.27867942782E+03  0.30542372890E+03  0.12498572193E+03 0.  0.
    9000005    1    3    3    0    0  0.47443872536E+01  0.59228545074E+02  0.92092279239E+02  0.10960163164E+03  0.10000000000E+01 0.  0.
    9000005    1    3    3    0    0 -0.47443872536E+01 -0.59228545074E+02  0.18658714858E+03  0.19582209726E+03  0.10000000000E+01 0.  0.
<mgrwt>
<rscale>  0 0.12498572E+03</rscale>
<asrwt>0</asrwt>
<pdfrwt beam="2">  1        4 0.20572540E-02 0.12498572E+03</pdfrwt>
<pdfrwt beam="1">  1       -4 0.44931011E-01 0.12498572E+03</pdfrwt>
<totfact> 0.74947238E+03</totfact>
</mgrwt>
</event>
<event>
 5    1  0.3486589E-002  0.1249892E+03  0.7818608E-02  0.1235086E+00
          4   -1    0    0  501    0  0.00000000000E+00  0.00000000000E+00  0.10031917276E+04  0.10031925315E+04  0.12700000000E+01 0. -1.
         -4   -1    0    0    0  501 -0.00000000000E+00 -0.00000000000E+00 -0.37887472493E+01  0.39959361505E+01  0.12700000000E+01 0. -1.
         25    2    1    2    0    0  0.00000000000E+00  0.00000000000E+00  0.99940298039E+03  0.10071884677E+04  0.12498916834E+03 0.  0.
    9000005    1    3    3    0    0 -0.42919881024E+02  0.42130436531E+02  0.63633102421E+03  0.63916763235E+03  0.10000000000E+01 0.  0.
    9000005    1    3    3    0    0  0.42919881024E+02 -0.42130436531E+02  0.36307195618E+03  0.36802083533E+03  0.10000000000E+01 0.  0.
<mgrwt>
<rscale>  0 0.12498917E+03</rscale>
<asrwt>0</asrwt>
<pdfrwt beam="1">  1        4 0.15435301E+00 0.12498917E+03</pdfrwt>
<pdfrwt beam="2">  1       -4 0.59888431E-03 0.12498917E+03</pdfrwt>
<totfact> 0.30375516E+03</totfact>
</mgrwt>
</event>
<event>
 5    1  0.3486589E-002  0.1250008E+03  0.7818608E-02  0.1235068E+00
          4   -1    0    0  501    0  0.00000000000E+00  0.00000000000E+00  0.78643841869E+01  0.79662688028E+01  0.12700000000E+01 0.  1.
         -4   -1    0    0    0  501 -0.00000000000E+00 -0.00000000000E+00 -0.49340808785E+03  0.49340972230E+03  0.12700000000E+01 0.  1.
         25    2    1    2    0    0  0.00000000000E+00  0.00000000000E+00 -0.48554370367E+03  0.50137599110E+03  0.12500078513E+03 0.  0.
    9000005    1    3    3    0    0 -0.49552229792E+02 -0.33730903711E+02 -0.31363148170E+03  0.31931004315E+03  0.10000000000E+01 0.  0.
    9000005    1    3    3    0    0  0.49552229792E+02  0.33730903711E+02 -0.17191222197E+03  0.18206594795E+03  0.10000000000E+01 0.  0.
<mgrwt>
<rscale>  0 0.12500079E+03</rscale>
<asrwt>0</asrwt>
<pdfrwt beam="1">  1        4 0.12178686E-02 0.12500079E+03</pdfrwt>
<pdfrwt beam="2">  1       -4 0.75916876E-01 0.12500079E+03</pdfrwt>
<totfact> 0.55756812E+03</totfact>
</mgrwt>
</event>
<event>
 5    1  0.3486589E-002  0.1249983E+03  0.7818608E-02  0.1235072E+00
          4   -1    0    0  501    0  0.00000000000E+00  0.00000000000E+00  0.26946721745E+03  0.26947021019E+03  0.12700000000E+01 0.  1.
         -4   -1    0    0    0  501 -0.00000000000E+00 -0.00000000000E+00 -0.14464903823E+02  0.14520548977E+02  0.12700000000E+01 0.  1.
         25    2    1    2    0    0  0.00000000000E+00  0.00000000000E+00  0.25500231363E+03  0.28399075917E+03  0.12499828534E+03 0.  0.
    9000005    1    3    3    0    0  0.15564978122E+02  0.25986022022E+02  0.25168395672E+03  0.25350218136E+03  0.10000000000E+01 0.  0.
    9000005    1    3    3    0    0 -0.15564978122E+02 -0.25986022022E+02  0.33183569141E+01  0.30488577814E+02  0.10000000000E+01 0.  0.
<mgrwt>
<rscale>  0 0.12499829E+03</rscale>
<asrwt>0</asrwt>
<pdfrwt beam="1">  1        4 0.41461003E-01 0.12499829E+03</pdfrwt>
<pdfrwt beam="2">  1       -4 0.22298806E-02 0.12499829E+03</pdfrwt>
<totfact> 0.77654878E+03</totfact>
</mgrwt>
</event>
<event>
 5    1  0.3486589E-002  0.1250001E+03  0.7818608E-02  0.1235069E+00
         -4   -1    0    0    0  501 -0.00000000000E+00  0.00000000000E+00  0.21273888819E+02  0.21311763078E+02  0.12700000000E+01 0. -1.
          4   -1    0    0  501    0  0.00000000000E+00 -0.00000000000E+00 -0.18341406876E+03  0.18341846559E+03  0.12700000000E+01 0. -1.
         25    2    1    2    0    0  0.00000000000E+00  0.00000000000E+00 -0.16214017994E+03  0.20473022867E+03  0.12500011432E+03 0.  0.
    9000005    1    3    3    0    0 -0.18043215972E+02  0.41656468382E+02 -0.15141029160E+03  0.15807243720E+03  0.10000000000E+01 0.  0.
    9000005    1    3    3    0    0  0.18043215972E+02 -0.41656468382E+02 -0.10729888342E+02  0.46657791466E+02  0.10000000000E+01 0.  0.
<mgrwt>
<rscale>  0 0.12500011E+03</rscale>
<asrwt>0</asrwt>
<pdfrwt beam="2">  1        4 0.28220800E-01 0.12500011E+03</pdfrwt>
<pdfrwt beam="1">  1       -4 0.32761577E-02 0.12500011E+03</pdfrwt>
<totfact> 0.89343573E+03</totfact>
</mgrwt>
</event>
<event>
 5    1  0.3486589E-002  0.1250028E+03  0.7818608E-02  0.1235065E+00
          4   -1    0    0  501    0  0.00000000000E+00  0.00000000000E+00  0.50651209949E+01  0.52219106363E+01  0.12700000000E+01 0.  1.
         -4   -1    0    0    0  501 -0.00000000000E+00 -0.00000000000E+00 -0.75932750320E+03  0.75932856526E+03  0.12700000000E+01 0.  1.
         25    2    1    2    0    0  0.00000000000E+00  0.00000000000E+00 -0.75426238220E+03  0.76455047589E+03  0.12500275589E+03 0.  0.
    9000005    1    3    3    0    0  0.45391151534E+02 -0.37342601958E+02 -0.50696269568E+03  0.51035967844E+03  0.10000000000E+01 0.  0.
    9000005    1    3    3    0    0 -0.45391151534E+02  0.37342601958E+02 -0.24729968652E+03  0.25419079746E+03  0.10000000000E+01 0.  0.
<mgrwt>
<rscale>  0 0.12500276E+03</rscale>
<asrwt>0</asrwt>
<pdfrwt beam="1">  1        4 0.79139243E-03 0.12500276E+03</pdfrwt>
<pdfrwt beam="2">  1       -4 0.11683167E+00 0.12500276E+03</pdfrwt>
<totfact> 0.39885294E+03</totfact>
</mgrwt>
</event>
<event>
 5    1  0.3486589E-002  0.1249992E+03  0.7818608E-02  0.1235071E+00
          4   -1    0    0  501    0  0.00000000000E+00  0.00000000000E+00  0.14678833335E+03  0.14679382721E+03  0.12700000000E+01 0.  1.
         -4   -1    0    0    0  501 -0.00000000000E+00 -0.00000000000E+00 -0.26589946380E+02  0.26620258234E+02  0.12700000000E+01 0.  1.
         25    2    1    2    0    0  0.00000000000E+00  0.00000000000E+00  0.12019838697E+03  0.17341408545E+03  0.12499917120E+03 0.  0.
    9000005    1    3    3    0    0 -0.35117461776E+02  0.24595705159E+01  0.13173005745E+03  0.13635649469E+03  0.10000000000E+01 0.  0.
    9000005    1    3    3    0    0  0.35117461776E+02 -0.24595705159E+01 -0.11531670478E+02  0.37057590757E+02  0.10000000000E+01 0.  0.
<mgrwt>
<rscale>  0 0.12499917E+03</rscale>
<asrwt>0</asrwt>
<pdfrwt beam="1">  1        4 0.22585575E-01 0.12499917E+03</pdfrwt>
<pdfrwt beam="2">  1       -4 0.40935153E-02 0.12499917E+03</pdfrwt>
<totfact> 0.94817865E+03</totfact>
</mgrwt>
</event>
<event>
 5    1  0.3486589E-002  0.1249972E+03  0.7818608E-02  0.1235074E+00
          4   -1    0    0  501    0  0.00000000000E+00  0.00000000000E+00  0.18490123079E+02  0.18533686937E+02  0.12700000000E+01 0. -1.
         -4   -1    0    0    0  501 -0.00000000000E+00 -0.00000000000E+00 -0.21095800509E+03  0.21096182785E+03  0.12700000000E+01 0. -1.
         25    2    1    2    0    0  0.00000000000E+00  0.00000000000E+00 -0.19246788201E+03  0.22949551479E+03  0.12499722278E+03 0.  0.
    9000005    1    3    3    0    0 -0.15153484473E+02  0.19307362106E+02 -0.20174711777E+03  0.20323705826E+03  0.10000000000E+01 0.  0.
    9000005    1    3    3    0    0  0.15153484473E+02 -0.19307362106E+02  0.92792357561E+01  0.26258456531E+02  0.10000000000E+01 0.  0.
<mgrwt>
<rscale>  0 0.12499722E+03</rscale>
<asrwt>0</asrwt>
<pdfrwt beam="1">  1        4 0.28482796E-02 0.12499722E+03</pdfrwt>
<pdfrwt beam="2">  1       -4 0.32458721E-01 0.12499722E+03</pdfrwt>
<totfact> 0.85392413E+03</totfact>
</mgrwt>
</event>
<event>
 5    1  0.3486589E-002  0.1250009E+03  0.7818608E-02  0.1235068E+00
          4   -1    0    0  501    0  0.00000000000E+00  0.00000000000E+00  0.50635134206E+01  0.52203513445E+01  0.12700000000E+01 0. -1.
         -4   -1    0    0    0  501 -0.00000000000E+00 -0.00000000000E+00 -0.75953934628E+03  0.75954040805E+03  0.12700000000E+01 0. -1.
         25    2    1    2    0    0  0.00000000000E+00  0.00000000000E+00 -0.75447583286E+03  0.76476075939E+03  0.12500094691E+03 0.  0.
    9000005    1    3    3    0    0 -0.60913423337E+02 -0.74183921016E+01 -0.44958396204E+03  0.45375347558E+03  0.10000000000E+01 0.  0.
    9000005    1    3    3    0    0  0.60913423337E+02  0.74183921016E+01 -0.30489187083E+03  0.31100728381E+03  0.10000000000E+01 0.  0.
<mgrwt>
<rscale>  0 0.12500095E+03</rscale>
<asrwt>0</asrwt>
<pdfrwt beam="1">  1        4 0.79114880E-03 0.12500095E+03</pdfrwt>
<pdfrwt beam="2">  1       -4 0.11686426E+00 0.12500095E+03</pdfrwt>
<totfact> 0.39877086E+03</totfact>
</mgrwt>
</event>
<event>
 5    1  0.3486589E-002  0.1249984E+03  0.7818608E-02  0.1235072E+00
         -4   -1    0    0    0  501 -0.00000000000E+00  0.00000000000E+00  0.81662727417E+02  0.81672602194E+02  0.12700000000E+01 0. -1.
          4   -1    0    0  501    0  0.00000000000E+00 -0.00000000000E+00 -0.47811543675E+02  0.47828407966E+02  0.12700000000E+01 0. -1.
         25    2    1    2    0    0  0.00000000000E+00  0.00000000000E+00  0.33851183742E+02  0.12950101016E+03  0.12499843596E+03 0.  0.
    9000005    1    3    3    0    0  0.13612410302E+02  0.75783731740E+01 -0.45772282353E+02  0.48361464887E+02  0.10000000000E+01 0.  0.
    9000005    1    3    3    0    0 -0.13612410302E+02 -0.75783731740E+01  0.79623466095E+02  0.81139545273E+02  0.10000000000E+01 0.  0.
<mgrwt>
<rscale>  0 0.12499844E+03</rscale>
<asrwt>0</asrwt>
<pdfrwt beam="2">  1        4 0.73576790E-02 0.12499844E+03</pdfrwt>
<pdfrwt beam="1">  1       -4 0.12565553E-01 0.12499844E+03</pdfrwt>
<totfact> 0.10355559E+04</totfact>
</mgrwt>
</event>
<event>
 5    1  0.3486589E-002  0.1249990E+03  0.7818608E-02  0.1235071E+00
         -4   -1    0    0    0  501 -0.00000000000E+00  0.00000000000E+00  0.27382351643E+02  0.27411787273E+02  0.12700000000E+01 0.  1.
          4   -1    0    0  501    0  0.00000000000E+00 -0.00000000000E+00 -0.14254446715E+03  0.14255012457E+03  0.12700000000E+01 0.  1.
         25    2    1    2    0    0  0.00000000000E+00  0.00000000000E+00 -0.11516211550E+03  0.16996191184E+03  0.12499895451E+03 0.  0.
    9000005    1    3    3    0    0  0.41963488155E+02  0.98711204574E+01 -0.11909649709E+03  0.12666234238E+03  0.10000000000E+01 0.  0.
    9000005    1    3    3    0    0 -0.41963488155E+02 -0.98711204574E+01  0.39343815867E+01  0.43299569463E+02  0.10000000000E+01 0.  0.
<mgrwt>
<rscale>  0 0.12499895E+03</rscale>
<asrwt>0</asrwt>
<pdfrwt beam="2">  1        4 0.21932617E-01 0.12499895E+03</pdfrwt>
<pdfrwt beam="1">  1       -4 0.42153690E-02 0.12499895E+03</pdfrwt>
<totfact> 0.95457976E+03</totfact>
</mgrwt>
</event>
<event>
 5    1  0.3486589E-002  0.1250105E+03  0.7818608E-02  0.1235053E+00
         -4   -1    0    0    0  501 -0.00000000000E+00  0.00000000000E+00  0.33363651832E+03  0.33363893546E+03  0.12700000000E+01 0. -1.
          4   -1    0    0  501    0  0.00000000000E+00 -0.00000000000E+00 -0.11673159304E+02  0.11742041907E+02  0.12700000000E+01 0. -1.
         25    2    1    2    0    0  0.00000000000E+00  0.00000000000E+00  0.32196335901E+03  0.34538097737E+03  0.12501045948E+03 0.  0.
    9000005    1    3    3    0    0 -0.39361697101E+02  0.17923499134E+02  0.36338875672E+02  0.56498751358E+02  0.10000000000E+01 0.  0.
    9000005    1    3    3    0    0  0.39361697101E+02 -0.17923499134E+02  0.28562448334E+03  0.28888222601E+03  0.10000000000E+01 0.  0.
<mgrwt>
<rscale>  0 0.12501046E+03</rscale>
<asrwt>0</asrwt>
<pdfrwt beam="2">  1        4 0.18013551E-02 0.12501046E+03</pdfrwt>
<pdfrwt beam="1">  1       -4 0.51334185E-01 0.12501046E+03</pdfrwt>
<totfact> 0.70219447E+03</totfact>
</mgrwt>
</event>
<event>
 5    1  0.3486589E-002  0.1249965E+03  0.7818608E-02  0.1235075E+00
          4   -1    0    0  501    0  0.00000000000E+00  0.00000000000E+00  0.71167851746E+01  0.72292137347E+01  0.12700000000E+01 0. -1.
         -4   -1    0    0    0  501 -0.00000000000E+00 -0.00000000000E+00 -0.54443322578E+03  0.54443470704E+03  0.12700000000E+01 0. -1.
         25    2    1    2    0    0  0.00000000000E+00  0.00000000000E+00 -0.53731644060E+03  0.55166392078E+03  0.12499649652E+03 0.  0.
    9000005    1    3    3    0    0  0.58813800694E+01  0.31687096437E+02 -0.50494680396E+03  0.50597523412E+03  0.10000000000E+01 0.  0.
    9000005    1    3    3    0    0 -0.58813800694E+01 -0.31687096437E+02 -0.32369636647E+02  0.45688686661E+02  0.10000000000E+01 0.  0.
<mgrwt>
<rscale>  0 0.12499650E+03</rscale>
<asrwt>0</asrwt>
<pdfrwt beam="1">  1        4 0.11036527E-02 0.12499650E+03</pdfrwt>
<pdfrwt beam="2">  1       -4 0.83767688E-01 0.12499650E+03</pdfrwt>
<totfact> 0.52072169E+03</totfact>
</mgrwt>
</event>
<event>
 5    1  0.3486589E-002  0.1249782E+03  0.7818608E-02  0.1235103E+00
          4   -1    0    0  501    0  0.00000000000E+00  0.00000000000E+00  0.15848377652E+02  0.15899181558E+02  0.12700000000E+01 0.  1.
         -4   -1    0    0    0  501 -0.00000000000E+00 -0.00000000000E+00 -0.24594353638E+03  0.24594681536E+03  0.12700000000E+01 0.  1.
         25    2    1    2    0    0  0.00000000000E+00  0.00000000000E+00 -0.23009515873E+03  0.26184599692E+03  0.12497817423E+03 0.  0.
    9000005    1    3    3    0    0 -0.24400623538E+02  0.55978175079E+02 -0.87336356174E+02  0.10657197391E+03  0.10000000000E+01 0.  0.
    9000005    1    3    3    0    0  0.24400623538E+02 -0.55978175079E+02 -0.14275880255E+03  0.15527402301E+03  0.10000000000E+01 0.  0.
<mgrwt>
<rscale>  0 0.12497817E+03</rscale>
<asrwt>0</asrwt>
<pdfrwt beam="1">  1        4 0.24423724E-02 0.12497817E+03</pdfrwt>
<pdfrwt beam="2">  1       -4 0.37841624E-01 0.12497817E+03</pdfrwt>
<totfact> 0.80686888E+03</totfact>
</mgrwt>
</event>
<event>
 5    1  0.3486589E-002  0.1250001E+03  0.7818608E-02  0.1235069E+00
         -4   -1    0    0    0  501 -0.00000000000E+00  0.00000000000E+00  0.26466238576E+03  0.26466543284E+03  0.12700000000E+01 0. -1.
          4   -1    0    0  501    0  0.00000000000E+00 -0.00000000000E+00 -0.14728933393E+02  0.14783584779E+02  0.12700000000E+01 0. -1.
         25    2    1    2    0    0  0.00000000000E+00  0.00000000000E+00  0.24993345237E+03  0.27944901762E+03  0.12500009133E+03 0.  0.
    9000005    1    3    3    0    0  0.33043446597E+02 -0.52591710740E+02  0.14037419578E+03  0.15350463264E+03  0.10000000000E+01 0.  0.
    9000005    1    3    3    0    0 -0.33043446597E+02  0.52591710740E+02  0.10955925659E+03  0.12594438497E+03  0.10000000000E+01 0.  0.
<mgrwt>
<rscale>  0 0.12500009E+03</rscale>
<asrwt>0</asrwt>
<pdfrwt beam="2">  1        4 0.22704282E-02 0.12500009E+03</pdfrwt>
<pdfrwt beam="1">  1       -4 0.40721727E-01 0.12500009E+03</pdfrwt>
<totfact> 0.78251059E+03</totfact>
</mgrwt>
</event>
<event>
 5    1  0.3486589E-002  0.1249997E+03  0.7818608E-02  0.1235070E+00
         -4   -1    0    0    0  501 -0.00000000000E+00  0.00000000000E+00  0.44956941632E+02  0.44974876330E+02  0.12700000000E+01 0.  1.
          4   -1    0    0  501    0  0.00000000000E+00 -0.00000000000E+00 -0.86848342573E+02  0.86857627804E+02  0.12700000000E+01 0.  1.
         25    2    1    2    0    0  0.00000000000E+00  0.00000000000E+00 -0.41891400941E+02  0.13183250413E+03  0.12499967869E+03 0.  0.
    9000005    1    3    3    0    0  0.47223555824E+02 -0.24496185364E+02  0.13635380132E+02  0.54927688040E+02  0.10000000000E+01 0.  0.
    9000005    1    3    3    0    0 -0.47223555824E+02  0.24496185364E+02 -0.55526781074E+02  0.76904816094E+02  0.10000000000E+01 0.  0.
<mgrwt>
<rscale>  0 0.12499968E+03</rscale>
<asrwt>0</asrwt>
<pdfrwt beam="2">  1        4 0.13363377E-01 0.12499968E+03</pdfrwt>
<pdfrwt beam="1">  1       -4 0.69185464E-02 0.12499968E+03</pdfrwt>
<totfact> 0.10305349E+04</totfact>
</mgrwt>
</event>
<event>
 5    1  0.3486589E-002  0.1250004E+03  0.7818608E-02  0.1235069E+00
          4   -1    0    0  501    0  0.00000000000E+00  0.00000000000E+00  0.38445486938E+02  0.38466457673E+02  0.12700000000E+01 0. -1.
         -4   -1    0    0    0  501 -0.00000000000E+00 -0.00000000000E+00 -0.10155284598E+03  0.10156078685E+03  0.12700000000E+01 0. -1.
         25    2    1    2    0    0  0.00000000000E+00  0.00000000000E+00 -0.63107359040E+02  0.14002724453E+03  0.12500036178E+03 0.  0.
    9000005    1    3    3    0    0  0.93307807419E+01 -0.17459469991E+02  0.34845634257E+02  0.40088836206E+02  0.10000000000E+01 0.  0.
    9000005    1    3    3    0    0 -0.93307807419E+01  0.17459469991E+02 -0.97952993296E+02  0.99938408319E+02  0.10000000000E+01 0.  0.
<mgrwt>
<rscale>  0 0.12500036E+03</rscale>
<asrwt>0</asrwt>
<pdfrwt beam="1">  1        4 0.59169143E-02 0.12500036E+03</pdfrwt>
<pdfrwt beam="2">  1       -4 0.15625739E-01 0.12500036E+03</pdfrwt>
<totfact> 0.10132939E+04</totfact>
</mgrwt>
</event>
<event>
 5    1  0.3486589E-002  0.1250016E+03  0.7818608E-02  0.1235067E+00
          4   -1    0    0  501    0  0.00000000000E+00  0.00000000000E+00  0.69887703684E+02  0.69899241957E+02  0.12700000000E+01 0. -1.
         -4   -1    0    0    0  501 -0.00000000000E+00 -0.00000000000E+00 -0.55871286534E+02  0.55885718739E+02  0.12700000000E+01 0. -1.
         25    2    1    2    0    0  0.00000000000E+00  0.00000000000E+00  0.14016417150E+02  0.12578496070E+03  0.12500158554E+03 0.  0.
    9000005    1    3    3    0    0  0.35306772724E+01  0.55446230397E+02 -0.21782263645E+02  0.59684312485E+02  0.10000000000E+01 0.  0.
    9000005    1    3    3    0    0 -0.35306772724E+01 -0.55446230397E+02  0.35798680796E+02  0.66100648211E+02  0.10000000000E+01 0.  0.
<mgrwt>
<rscale>  0 0.12500159E+03</rscale>
<asrwt>0</asrwt>
<pdfrwt beam="1">  1        4 0.10753952E-01 0.12500159E+03</pdfrwt>
<pdfrwt beam="2">  1       -4 0.85975803E-02 0.12500159E+03</pdfrwt>
<totfact> 0.10435303E+04</totfact>
</mgrwt>
</event>
<event>
 5    1  0.3486589E-002  0.1249993E+03  0.7818608E-02  0.1235070E+00
         -4   -1    0    0    0  501 -0.00000000000E+00  0.00000000000E+00  0.19329907302E+02  0.19371582700E+02  0.12700000000E+01 0.  1.
          4   -1    0    0  501    0  0.00000000000E+00 -0.00000000000E+00 -0.20181956489E+03  0.20182356075E+03  0.12700000000E+01 0.  1.
         25    2    1    2    0    0  0.00000000000E+00  0.00000000000E+00 -0.18248965759E+03  0.22119514345E+03  0.12499926543E+03 0.  0.
    9000005    1    3    3    0    0  0.59050090785E+02 -0.19920657380E+02 -0.83047628373E+02  0.10383474558E+03  0.10000000000E+01 0.  0.
    9000005    1    3    3    0    0 -0.59050090785E+02  0.19920657380E+02 -0.99442029217E+02  0.11736039786E+03  0.10000000000E+01 0.  0.
<mgrwt>
<rscale>  0 0.12499927E+03</rscale>
<asrwt>0</asrwt>
<pdfrwt beam="2">  1        4 0.31052676E-01 0.12499927E+03</pdfrwt>
<pdfrwt beam="1">  1       -4 0.29773452E-02 0.12499927E+03</pdfrwt>
<totfact> 0.86681009E+03</totfact>
</mgrwt>
</event>
<event>
 5    1  0.3486589E-002  0.1249977E+03  0.7818608E-02  0.1235073E+00
          4   -1    0    0  501    0  0.00000000000E+00  0.00000000000E+00  0.13006701362E+02  0.13068556933E+02  0.12700000000E+01 0. -1.
         -4   -1    0    0    0  501 -0.00000000000E+00 -0.00000000000E+00 -0.29953917413E+03  0.29954186642E+03  0.12700000000E+01 0. -1.
         25    2    1    2    0    0  0.00000000000E+00  0.00000000000E+00 -0.28653247277E+03  0.31261042335E+03  0.12499767533E+03 0.  0.
    9000005    1    3    3    0    0  0.37451336843E+02  0.50023171074E+02 -0.14219219263E+03  0.15532076462E+03  0.10000000000E+01 0.  0.
    9000005    1    3    3    0    0 -0.37451336843E+02 -0.50023171074E+02 -0.14434028014E+03  0.15728965874E+03  0.10000000000E+01 0.  0.
<mgrwt>
<rscale>  0 0.12499768E+03</rscale>
<asrwt>0</asrwt>
<pdfrwt beam="1">  1        4 0.20059964E-02 0.12499768E+03</pdfrwt>
<pdfrwt beam="2">  1       -4 0.46087910E-01 0.12499768E+03</pdfrwt>
<totfact> 0.74047543E+03</totfact>
</mgrwt>
</event>
<event>
 5    1  0.3486589E-002  0.1250022E+03  0.7818608E-02  0.1235066E+00
          4   -1    0    0  501    0  0.00000000000E+00  0.00000000000E+00  0.13637302275E+04  0.13637308189E+04  0.12700000000E+01 0.  1.
         -4   -1    0    0    0  501 -0.00000000000E+00 -0.00000000000E+00 -0.27230969446E+01  0.30046891636E+01  0.12700000000E+01 0.  1.
         25    2    1    2    0    0  0.00000000000E+00  0.00000000000E+00  0.13610071306E+04  0.13667355080E+04  0.12500215781E+03 0.  0.
    9000005    1    3    3    0    0  0.26107055813E+02 -0.36448551597E+02  0.20450346146E+03  0.20936270209E+03  0.10000000000E+01 0.  0.
    9000005    1    3    3    0    0 -0.26107055813E+02  0.36448551597E+02  0.11565036691E+04  0.11573728059E+04  0.10000000000E+01 0.  0.
<mgrwt>
<rscale>  0 0.12500216E+03</rscale>
<asrwt>0</asrwt>
<pdfrwt beam="1">  1        4 0.20982691E+00 0.12500216E+03</pdfrwt>
<pdfrwt beam="2">  1       -4 0.44064326E-03 0.12500216E+03</pdfrwt>
<totfact> 0.20704907E+03</totfact>
</mgrwt>
</event>
<event>
 5    1  0.3486589E-002  0.1250036E+03  0.7818608E-02  0.1235064E+00
          4   -1    0    0  501    0  0.00000000000E+00  0.00000000000E+00  0.55034282616E+02  0.55048934259E+02  0.12700000000E+01 0.  1.
         -4   -1    0    0    0  501 -0.00000000000E+00 -0.00000000000E+00 -0.70952799941E+02  0.70964165037E+02  0.12700000000E+01 0.  1.
         25    2    1    2    0    0  0.00000000000E+00  0.00000000000E+00 -0.15918517324E+02  0.12601309930E+03  0.12500360795E+03 0.  0.
    9000005    1    3    3    0    0  0.30269911244E+02  0.46438189600E+02  0.21130363783E+02  0.59331823279E+02  0.10000000000E+01 0.  0.
    9000005    1    3    3    0    0 -0.30269911244E+02 -0.46438189600E+02 -0.37048881107E+02  0.66681276017E+02  0.10000000000E+01 0.  0.
<mgrwt>
<rscale>  0 0.12500361E+03</rscale>
<asrwt>0</asrwt>
<pdfrwt beam="1">  1        4 0.84688140E-02 0.12500361E+03</pdfrwt>
<pdfrwt beam="2">  1       -4 0.10917817E-01 0.12500361E+03</pdfrwt>
<totfact> 0.10429821E+04</totfact>
</mgrwt>
</event>
<event>
 5    1  0.3486589E-002  0.1249989E+03  0.7818608E-02  0.1235071E+00
          4   -1    0    0  501    0  0.00000000000E+00  0.00000000000E+00  0.42727771033E+03  0.42727959774E+03  0.12700000000E+01 0. -1.
         -4   -1    0    0    0  501 -0.00000000000E+00 -0.00000000000E+00 -0.90960019048E+01  0.91842338086E+01  0.12700000000E+01 0. -1.
         25    2    1    2    0    0  0.00000000000E+00  0.00000000000E+00  0.41818170842E+03  0.43646383155E+03  0.12499893995E+03 0.  0.
    9000005    1    3    3    0    0  0.27420862819E+02 -0.45753214080E+02  0.32276957483E+03  0.32714898556E+03  0.10000000000E+01 0.  0.
    9000005    1    3    3    0    0 -0.27420862819E+02  0.45753214080E+02  0.95412133593E+02  0.10931484599E+03  0.10000000000E+01 0.  0.
<mgrwt>
<rscale>  0 0.12499894E+03</rscale>
<asrwt>0</asrwt>
<pdfrwt beam="1">  1        4 0.65741953E-01 0.12499894E+03</pdfrwt>
<pdfrwt beam="2">  1       -4 0.14063174E-02 0.12499894E+03</pdfrwt>
<totfact> 0.61155857E+03</totfact>
</mgrwt>
</event>
<event>
 5    1  0.3486589E-002  0.1250213E+03  0.7818608E-02  0.1235036E+00
          4   -1    0    0  501    0  0.00000000000E+00  0.00000000000E+00  0.67370235485E+03  0.67370355190E+03  0.12700000000E+01 0.  1.
         -4   -1    0    0    0  501 -0.00000000000E+00 -0.00000000000E+00 -0.57294234495E+01  0.58684915492E+01  0.12700000000E+01 0.  1.
         25    2    1    2    0    0  0.00000000000E+00  0.00000000000E+00  0.66797293141E+03  0.67957204344E+03  0.12502129875E+03 0.  0.
    9000005    1    3    3    0    0  0.32839043053E+02  0.18841999059E+02  0.63666953494E+02  0.74080393117E+02  0.10000000000E+01 0.  0.
    9000005    1    3    3    0    0 -0.32839043053E+02 -0.18841999059E+02  0.60430597791E+03  0.60549165033E+03  0.10000000000E+01 0.  0.
<mgrwt>
<rscale>  0 0.12502130E+03</rscale>
<asrwt>0</asrwt>
<pdfrwt beam="1">  1        4 0.10365734E+00 0.12502130E+03</pdfrwt>
<pdfrwt beam="2">  1       -4 0.89223906E-03 0.12502130E+03</pdfrwt>
<totfact> 0.44166618E+03</totfact>
</mgrwt>
</event>
<event>
 5    1  0.3486589E-002  0.1249997E+03  0.7818608E-02  0.1235070E+00
         -4   -1    0    0    0  501 -0.00000000000E+00  0.00000000000E+00  0.10647755850E+02  0.10723227343E+02  0.12700000000E+01 0. -1.
          4   -1    0    0  501    0  0.00000000000E+00 -0.00000000000E+00 -0.36548729247E+03  0.36548949897E+03  0.12700000000E+01 0. -1.
         25    2    1    2    0    0  0.00000000000E+00  0.00000000000E+00 -0.35483953662E+03  0.37621272631E+03  0.12499967476E+03 0.  0.
    9000005    1    3    3    0    0 -0.60642437365E+02 -0.43523668603E+01 -0.22090787162E+03  0.22912384435E+03  0.10000000000E+01 0.  0.
    9000005    1    3    3    0    0  0.60642437365E+02  0.43523668603E+01 -0.13393166500E+03  0.14708888196E+03  0.10000000000E+01 0.  0.
<mgrwt>
<rscale>  0 0.12499967E+03</rscale>
<asrwt>0</asrwt>
<pdfrwt beam="2">  1        4 0.56234780E-01 0.12499967E+03</pdfrwt>
<pdfrwt beam="1">  1       -4 0.16440918E-02 0.12499967E+03</pdfrwt>
<totfact> 0.66934425E+03</totfact>
</mgrwt>
</event>
<event>
 5    1  0.3486589E-002  0.1250014E+03  0.7818608E-02  0.1235067E+00
          4   -1    0    0  501    0  0.00000000000E+00  0.00000000000E+00  0.77170667344E+03  0.77170771846E+03  0.12700000000E+01 0.  1.
         -4   -1    0    0    0  501 -0.00000000000E+00 -0.00000000000E+00 -0.49812223619E+01  0.51405715848E+01  0.12700000000E+01 0.  1.
         25    2    1    2    0    0  0.00000000000E+00  0.00000000000E+00  0.76672545107E+03  0.77684829004E+03  0.12500139365E+03 0.  0.
    9000005    1    3    3    0    0 -0.33629920583E+02  0.40866081398E+02  0.58988675273E+03  0.59225702969E+03  0.10000000000E+01 0.  0.
    9000005    1    3    3    0    0  0.33629920583E+02 -0.40866081398E+02  0.17683869834E+03  0.18459126035E+03  0.10000000000E+01 0.  0.
<mgrwt>
<rscale>  0 0.12500139E+03</rscale>
<asrwt>0</asrwt>
<pdfrwt beam="1">  1        4 0.11873650E+00 0.12500139E+03</pdfrwt>
<pdfrwt beam="2">  1       -4 0.77867956E-03 0.12500139E+03</pdfrwt>
<totfact> 0.39318180E+03</totfact>
</mgrwt>
</event>
<event>
 5    1  0.3486589E-002  0.1249967E+03  0.7818608E-02  0.1235074E+00
         -4   -1    0    0    0  501 -0.00000000000E+00  0.00000000000E+00  0.29073874852E+02  0.29101599594E+02  0.12700000000E+01 0. -1.
          4   -1    0    0  501    0  0.00000000000E+00 -0.00000000000E+00 -0.13425411159E+03  0.13426011835E+03  0.12700000000E+01 0. -1.
         25    2    1    2    0    0  0.00000000000E+00  0.00000000000E+00 -0.10518023674E+03  0.16336171795E+03  0.12499667471E+03 0.  0.
    9000005    1    3    3    0    0  0.42711352647E+02 -0.31904252078E+02 -0.95198818608E+02  0.10911441706E+03  0.10000000000E+01 0.  0.
    9000005    1    3    3    0    0 -0.42711352647E+02  0.31904252078E+02 -0.99814181333E+01  0.54247300887E+02  0.10000000000E+01 0.  0.
<mgrwt>
<rscale>  0 0.12499667E+03</rscale>
<asrwt>0</asrwt>
<pdfrwt beam="2">  1        4 0.20657073E-01 0.12499667E+03</pdfrwt>
<pdfrwt beam="1">  1       -4 0.44754986E-02 0.12499667E+03</pdfrwt>
<totfact> 0.96705785E+03</totfact>
</mgrwt>
</event>
<event>
 5    1  0.3486589E-002  0.1250028E+03  0.7818608E-02  0.1235065E+00
         -4   -1    0    0    0  501 -0.00000000000E+00  0.00000000000E+00  0.24255081406E+03  0.24255413890E+03  0.12700000000E+01 0. -1.
          4   -1    0    0  501    0  0.00000000000E+00 -0.00000000000E+00 -0.16077121565E+02  0.16127204897E+02  0.12700000000E+01 0. -1.
         25    2    1    2    0    0  0.00000000000E+00  0.00000000000E+00  0.22647369249E+03  0.25868134380E+03  0.12500281693E+03 0.  0.
    9000005    1    3    3    0    0  0.15870178906E+02  0.59643235061E+02  0.13353895498E+03  0.14711502494E+03  0.10000000000E+01 0.  0.
    9000005    1    3    3    0    0 -0.15870178906E+02 -0.59643235061E+02  0.92934737513E+02  0.11156631886E+03  0.10000000000E+01 0.  0.
<mgrwt>
<rscale>  0 0.12500282E+03</rscale>
<asrwt>0</asrwt>
<pdfrwt beam="2">  1        4 0.24775118E-02 0.12500282E+03</pdfrwt>
<pdfrwt beam="1">  1       -4 0.37319616E-01 0.12500282E+03</pdfrwt>
<totfact> 0.81086387E+03</totfact>
</mgrwt>
</event>
<event>
 5    1  0.3486589E-002  0.1250180E+03  0.7818608E-02  0.1235041E+00
         -4   -1    0    0    0  501 -0.00000000000E+00  0.00000000000E+00  0.63198891189E+03  0.63199018794E+03  0.12700000000E+01 0.  1.
          4   -1    0    0  501    0  0.00000000000E+00 -0.00000000000E+00 -0.61161520833E+01  0.62466163885E+01  0.12700000000E+01 0.  1.
         25    2    1    2    0    0  0.00000000000E+00  0.00000000000E+00  0.62587275981E+03  0.63823680433E+03  0.12501802642E+03 0.  0.
    9000005    1    3    3    0    0 -0.19154356136E+02  0.49464242062E+02  0.14417432459E+03  0.15362563742E+03  0.10000000000E+01 0.  0.
    9000005    1    3    3    0    0  0.19154356136E+02 -0.49464242062E+02  0.48169843522E+03  0.48461116691E+03  0.10000000000E+01 0.  0.
<mgrwt>
<rscale>  0 0.12501803E+03</rscale>
<asrwt>0</asrwt>
<pdfrwt beam="2">  1        4 0.95108015E-03 0.12501803E+03</pdfrwt>
<pdfrwt beam="1">  1       -4 0.97239218E-01 0.12501803E+03</pdfrwt>
<totfact> 0.46521237E+03</totfact>
</mgrwt>
</event>
<event>
 5    1  0.3486589E-002  0.1249983E+03  0.7818608E-02  0.1235072E+00
          4   -1    0    0  501    0  0.00000000000E+00  0.00000000000E+00  0.49330198360E+03  0.49330361840E+03  0.12700000000E+01 0. -1.
         -4   -1    0    0    0  501 -0.00000000000E+00 -0.00000000000E+00 -0.78657807750E+01  0.79676475324E+01  0.12700000000E+01 0. -1.
         25    2    1    2    0    0  0.00000000000E+00  0.00000000000E+00  0.48543620283E+03  0.50127126593E+03  0.12499830012E+03 0.  0.
    9000005    1    3    3    0    0 -0.24607043266E+02  0.50952930594E+02  0.13635744416E+03  0.14763488846E+03  0.10000000000E+01 0.  0.
    9000005    1    3    3    0    0  0.24607043266E+02 -0.50952930594E+02  0.34907875867E+03  0.35363637747E+03  0.10000000000E+01 0.  0.
<mgrwt>
<rscale>  0 0.12499830E+03</rscale>
<asrwt>0</asrwt>
<pdfrwt beam="1">  1        4 0.75900593E-01 0.12499830E+03</pdfrwt>
<pdfrwt beam="2">  1       -4 0.12180815E-02 0.12499830E+03</pdfrwt>
<totfact> 0.55767940E+03</totfact>
</mgrwt>
</event>
<event>
 5    1  0.3486589E-002  0.1249978E+03  0.7818608E-02  0.1235073E+00
          4   -1    0    0  501    0  0.00000000000E+00  0.00000000000E+00  0.18916516092E+02  0.18959100218E+02  0.12700000000E+01 0. -1.
         -4   -1    0    0    0  501 -0.00000000000E+00 -0.00000000000E+00 -0.20621551629E+03  0.20621942697E+03  0.12700000000E+01 0. -1.
         25    2    1    2    0    0  0.00000000000E+00  0.00000000000E+00 -0.18729900020E+03  0.22517852719E+03  0.12499781450E+03 0.  0.
    9000005    1    3    3    0    0  0.41429141680E+02  0.44686888279E+02 -0.68699338777E+02  0.91836217871E+02  0.10000000000E+01 0.  0.
    9000005    1    3    3    0    0 -0.41429141680E+02 -0.44686888279E+02 -0.11859966142E+03  0.13334230932E+03  0.10000000000E+01 0.  0.
<mgrwt>
<rscale>  0 0.12499781E+03</rscale>
<asrwt>0</asrwt>
<pdfrwt beam="1">  1        4 0.29138099E-02 0.12499781E+03</pdfrwt>
<pdfrwt beam="2">  1       -4 0.31729039E-01 0.12499781E+03</pdfrwt>
<totfact> 0.86059678E+03</totfact>
</mgrwt>
</event>
<event>
 5    1  0.3486589E-002  0.1249981E+03  0.7818608E-02  0.1235072E+00
         -4   -1    0    0    0  501 -0.00000000000E+00  0.00000000000E+00  0.17971730351E+03  0.17972179078E+03  0.12700000000E+01 0.  1.
          4   -1    0    0  501    0  0.00000000000E+00 -0.00000000000E+00 -0.21711561875E+02  0.21748673960E+02  0.12700000000E+01 0.  1.
         25    2    1    2    0    0  0.00000000000E+00  0.00000000000E+00  0.15800574164E+03  0.20147046474E+03  0.12499813508E+03 0.  0.
    9000005    1    3    3    0    0 -0.16097823609E+02  0.60339051956E+02  0.82675599829E+02  0.10361561621E+03  0.10000000000E+01 0.  0.
    9000005    1    3    3    0    0  0.16097823609E+02 -0.60339051956E+02  0.75330141808E+02  0.97854848529E+02  0.10000000000E+01 0.  0.
<mgrwt>
<rscale>  0 0.12499814E+03</rscale>
<asrwt>0</asrwt>
<pdfrwt beam="2">  1        4 0.33434403E-02 0.12499814E+03</pdfrwt>
<pdfrwt beam="1">  1       -4 0.27652015E-01 0.12499814E+03</pdfrwt>
<totfact> 0.89891843E+03</totfact>
</mgrwt>
</event>
<event>
 5    1  0.3486589E-002  0.1250008E+03  0.7818608E-02  0.1235068E+00
         -4   -1    0    0    0  501 -0.00000000000E+00  0.00000000000E+00  0.87135924275E+00  0.15401840572E+01  0.12700000000E+01 0.  1.
          4   -1    0    0  501    0  0.00000000000E+00 -0.00000000000E+00 -0.32389976106E+04  0.32389978596E+04  0.12700000000E+01 0.  1.
         25    2    1    2    0    0  0.00000000000E+00  0.00000000000E+00 -0.32381262514E+04  0.32405380436E+04  0.12500077016E+03 0.  0.
    9000005    1    3    3    0    0 -0.34671508145E+02 -0.28015168961E+01 -0.29649572729E+04  0.29651614782E+04  0.10000000000E+01 0.  0.
    9000005    1    3    3    0    0  0.34671508145E+02  0.28015168961E+01 -0.27316897847E+03  0.27537656540E+03  0.10000000000E+01 0.  0.
<mgrwt>
<rscale>  0 0.12500077E+03</rscale>
<asrwt>0</asrwt>
<pdfrwt beam="2">  1        4 0.49835183E+00 0.12500077E+03</pdfrwt>
<pdfrwt beam="1">  1       -4 0.18552508E-03 0.12500077E+03</pdfrwt>
<totfact> 0.10730307E+02</totfact>
</mgrwt>
</event>
<event>
 5    1  0.3486589E-002  0.1249973E+03  0.7818608E-02  0.1235073E+00
          4   -1    0    0  501    0  0.00000000000E+00  0.00000000000E+00  0.27151587844E+03  0.27151884860E+03  0.12700000000E+01 0.  1.
         -4   -1    0    0    0  501 -0.00000000000E+00 -0.00000000000E+00 -0.14355119860E+02  0.14411188923E+02  0.12700000000E+01 0.  1.
         25    2    1    2    0    0  0.00000000000E+00  0.00000000000E+00  0.25716075858E+03  0.28593003753E+03  0.12499732239E+03 0.  0.
    9000005    1    3    3    0    0  0.17648641062E+02  0.59082803329E+02  0.15177674692E+03  0.16382744912E+03  0.10000000000E+01 0.  0.
    9000005    1    3    3    0    0 -0.17648641062E+02 -0.59082803329E+02  0.10538401167E+03  0.12210258841E+03  0.10000000000E+01 0.  0.
<mgrwt>
<rscale>  0 0.12499732E+03</rscale>
<asrwt>0</asrwt>
<pdfrwt beam="1">  1        4 0.41776215E-01 0.12499732E+03</pdfrwt>
<pdfrwt beam="2">  1       -4 0.22130215E-02 0.12499732E+03</pdfrwt>
<totfact> 0.77402943E+03</totfact>
</mgrwt>
</event>
<event>
 5    1  0.3486589E-002  0.1250000E+03  0.7818608E-02  0.1235069E+00
         -4   -1    0    0    0  501 -0.00000000000E+00  0.00000000000E+00  0.33175874436E+02  0.33200173864E+02  0.12700000000E+01 0. -1.
          4   -1    0    0  501    0  0.00000000000E+00 -0.00000000000E+00 -0.11767292448E+03  0.11767977759E+03  0.12700000000E+01 0. -1.
         25    2    1    2    0    0  0.00000000000E+00  0.00000000000E+00 -0.84497050039E+02  0.15087995146E+03  0.12500003315E+03 0.  0.
    9000005    1    3    3    0    0 -0.15681414203E+02 -0.59875041613E+02 -0.52654625742E+02  0.81267687131E+02  0.10000000000E+01 0.  0.
    9000005    1    3    3    0    0  0.15681414203E+02  0.59875041613E+02 -0.31842424298E+02  0.69612264327E+02  0.10000000000E+01 0.  0.
<mgrwt>
<rscale>  0 0.12500003E+03</rscale>
<asrwt>0</asrwt>
<pdfrwt beam="2">  1        4 0.18105923E-01 0.12500003E+03</pdfrwt>
<pdfrwt beam="1">  1       -4 0.51063771E-02 0.12500003E+03</pdfrwt>
<totfact> 0.99128508E+03</totfact>
</mgrwt>
</event>
<event>
 5    1  0.3486589E-002  0.1249973E+03  0.7818608E-02  0.1235073E+00
          4   -1    0    0  501    0  0.00000000000E+00  0.00000000000E+00  0.63719918308E+02  0.63732573219E+02  0.12700000000E+01 0.  1.
         -4   -1    0    0    0  501 -0.00000000000E+00 -0.00000000000E+00 -0.61275471030E+02  0.61288630675E+02  0.12700000000E+01 0.  1.
         25    2    1    2    0    0  0.00000000000E+00  0.00000000000E+00  0.24444472777E+01  0.12502120389E+03  0.12499730437E+03 0.  0.
    9000005    1    3    3    0    0 -0.11966938478E+02  0.36674761851E+02  0.50392947037E+02  0.63472000791E+02  0.10000000000E+01 0.  0.
    9000005    1    3    3    0    0  0.11966938478E+02 -0.36674761851E+02 -0.47948499760E+02  0.61549203103E+02  0.10000000000E+01 0.  0.
<mgrwt>
<rscale>  0 0.12499730E+03</rscale>
<asrwt>0</asrwt>
<pdfrwt beam="1">  1        4 0.98050501E-02 0.12499730E+03</pdfrwt>
<pdfrwt beam="2">  1       -4 0.94289813E-02 0.12499730E+03</pdfrwt>
<totfact> 0.10453039E+04</totfact>
</mgrwt>
</event>
<event>
 5    1  0.3486589E-002  0.1249943E+03  0.7818608E-02  0.1235078E+00
         -4   -1    0    0    0  501 -0.00000000000E+00  0.00000000000E+00  0.21791851491E+03  0.21792221558E+03  0.12700000000E+01 0. -1.
          4   -1    0    0  501    0  0.00000000000E+00 -0.00000000000E+00 -0.17897281680E+02  0.17942285014E+02  0.12700000000E+01 0. -1.
         25    2    1    2    0    0  0.00000000000E+00  0.00000000000E+00  0.20002123323E+03  0.23586450059E+03  0.12499427545E+03 0.  0.
    9000005    1    3    3    0    0 -0.27791702651E+01 -0.58005528228E+02  0.14355612121E+03  0.15486034040E+03  0.10000000000E+01 0.  0.
    9000005    1    3    3    0    0  0.27791702651E+01  0.58005528228E+02  0.56465112022E+02  0.81004160189E+02  0.10000000000E+01 0.  0.
<mgrwt>
<rscale>  0 0.12499428E+03</rscale>
<asrwt>0</asrwt>
<pdfrwt beam="2">  1        4 0.27571745E-02 0.12499428E+03</pdfrwt>
<pdfrwt beam="1">  1       -4 0.33529671E-01 0.12499428E+03</pdfrwt>
<totfact> 0.84427935E+03</totfact>
</mgrwt>
</event>
<event>
 5    1  0.3486589E-002  0.1250050E+03  0.7818608E-02  0.1235061E+00
         -4   -1    0    0    0  501 -0.00000000000E+00  0.00000000000E+00  0.24708634559E+02  0.24741251419E+02  0.12700000000E+01 0.  1.
          4   -1    0    0  501    0  0.00000000000E+00 -0.00000000000E+00 -0.15796575477E+03  0.15797085990E+03  0.12700000000E+01 0.  1.
         25    2    1    2    0    0  0.00000000000E+00  0.00000000000E+00 -0.13325712021E+03  0.18271211132E+03  0.12500502205E+03 0.  0.
    9000005    1    3    3    0    0  0.35420168811E+02  0.15760346078E+02 -0.13827249624E+03  0.14360800842E+03  0.10000000000E+01 0.  0.
    9000005    1    3    3    0    0 -0.35420168811E+02 -0.15760346078E+02  0.50153760299E+01  0.39104102903E+02  0.10000000000E+01 0.  0.
<mgrwt>
<rscale>  0 0.12500502E+03</rscale>
<asrwt>0</asrwt>
<pdfrwt beam="2">  1        4 0.24305325E-01 0.12500502E+03</pdfrwt>
<pdfrwt beam="1">  1       -4 0.38042302E-02 0.12500502E+03</pdfrwt>
<totfact> 0.93120597E+03</totfact>
</mgrwt>
</event>
<event>
 5    1  0.3486589E-002  0.1249969E+03  0.7818608E-02  0.1235074E+00
          4   -1    0    0  501    0  0.00000000000E+00  0.00000000000E+00  0.83085691218E+01  0.84050711390E+01  0.12700000000E+01 0. -1.
         -4   -1    0    0    0  501 -0.00000000000E+00 -0.00000000000E+00 -0.46731236568E+03  0.46731409139E+03  0.12700000000E+01 0. -1.
         25    2    1    2    0    0  0.00000000000E+00  0.00000000000E+00 -0.45900379656E+03  0.47571916253E+03  0.12499694536E+03 0.  0.
    9000005    1    3    3    0    0  0.34306742559E+02 -0.31850411395E+02 -0.71953752494E+02  0.85847211888E+02  0.10000000000E+01 0.  0.
    9000005    1    3    3    0    0 -0.34306742559E+02  0.31850411395E+02 -0.38705004406E+03  0.38987195064E+03  0.10000000000E+01 0.  0.
<mgrwt>
<rscale>  0 0.12499695E+03</rscale>
<asrwt>0</asrwt>
<pdfrwt beam="1">  1        4 0.12857977E-02 0.12499695E+03</pdfrwt>
<pdfrwt beam="2">  1       -4 0.71901746E-01 0.12499695E+03</pdfrwt>
<totfact> 0.57802630E+03</totfact>
</mgrwt>
</event>
<event>
 5    1  0.3486589E-002  0.1249977E+03  0.7818608E-02  0.1235073E+00
         -4   -1    0    0    0  501 -0.00000000000E+00  0.00000000000E+00  0.28076002037E+03  0.28076289274E+03  0.12700000000E+01 0.  1.
          4   -1    0    0  501    0  0.00000000000E+00 -0.00000000000E+00 -0.13880679240E+02  0.13938656899E+02  0.12700000000E+01 0.  1.
         25    2    1    2    0    0  0.00000000000E+00  0.00000000000E+00  0.26687934113E+03  0.29470154964E+03  0.12499768252E+03 0.  0.
    9000005    1    3    3    0    0 -0.16172371603E+02  0.19241699005E+02  0.26832802705E+03  0.26950458008E+03  0.10000000000E+01 0.  0.
    9000005    1    3    3    0    0  0.16172371603E+02 -0.19241699005E+02 -0.14486859204E+01  0.25196969555E+02  0.10000000000E+01 0.  0.
<mgrwt>
<rscale>  0 0.12499768E+03</rscale>
<asrwt>0</asrwt>
<pdfrwt beam="2">  1        4 0.21401699E-02 0.12499768E+03</pdfrwt>
<pdfrwt beam="1">  1       -4 0.43198530E-01 0.12499768E+03</pdfrwt>
<totfact> 0.76272233E+03</totfact>
</mgrwt>
</event>
<event>
 5    1  0.3486589E-002  0.1250045E+03  0.7818608E-02  0.1235062E+00
          4   -1    0    0  501    0  0.00000000000E+00  0.00000000000E+00  0.24676165213E+01  0.27752533751E+01  0.12700000000E+01 0.  1.
         -4   -1    0    0    0  501 -0.00000000000E+00 -0.00000000000E+00 -0.14899194994E+04  0.14899200407E+04  0.12700000000E+01 0.  1.
         25    2    1    2    0    0  0.00000000000E+00  0.00000000000E+00 -0.14874518829E+04  0.14926952941E+04  0.12500454787E+03 0.  0.
    9000005    1    3    3    0    0  0.23464767646E+02  0.56102243931E+02 -0.91572675023E+03  0.91774426622E+03  0.10000000000E+01 0.  0.
    9000005    1    3    3    0    0 -0.23464767646E+02 -0.56102243931E+02 -0.57172513269E+03  0.57495102786E+03  0.10000000000E+01 0.  0.
<mgrwt>
<rscale>  0 0.12500455E+03</rscale>
<asrwt>0</asrwt>
<pdfrwt beam="1">  1        4 0.40334051E-03 0.12500455E+03</pdfrwt>
<pdfrwt beam="2">  1       -4 0.22924141E+00 0.12500455E+03</pdfrwt>
<totfact> 0.18072808E+03</totfact>
</mgrwt>
</event>
<event>
 5    1  0.3486589E-002  0.1250058E+03  0.7818608E-02  0.1235060E+00
         -4   -1    0    0    0  501 -0.00000000000E+00  0.00000000000E+00  0.69087892541E+01  0.70245475981E+01  0.12700000000E+01 0.  1.
          4   -1    0    0  501    0  0.00000000000E+00 -0.00000000000E+00 -0.56064149912E+03  0.56064293756E+03  0.12700000000E+01 0.  1.
         25    2    1    2    0    0  0.00000000000E+00  0.00000000000E+00 -0.55373270987E+03  0.56766748516E+03  0.12500583878E+03 0.  0.
    9000005    1    3    3    0    0 -0.10096533465E+02 -0.59061981260E+02 -0.35750907628E+03  0.36249689273E+03  0.10000000000E+01 0.  0.
    9000005    1    3    3    0    0  0.10096533465E+02  0.59061981260E+02 -0.19622363359E+03  0.20517059243E+03  0.10000000000E+01 0.  0.
<mgrwt>
<rscale>  0 0.12500584E+03</rscale>
<asrwt>0</asrwt>
<pdfrwt beam="2">  1        4 0.86261518E-01 0.12500584E+03</pdfrwt>
<pdfrwt beam="1">  1       -4 0.10719062E-02 0.12500584E+03</pdfrwt>
<totfact> 0.50967758E+03</totfact>
</mgrwt>
</event>
<event>
 5    1  0.3486589E-002  0.1250011E+03  0.7818608E-02  0.1235068E+00
          4   -1    0    0  501    0  0.00000000000E+00  0.00000000000E+00  0.30183911892E+03  0.30184179070E+03  0.12700000000E+01 0. -1.
         -4   -1    0    0    0  501 -0.00000000000E+00 -0.00000000000E+00 -0.12907824429E+02  0.12970151560E+02  0.12700000000E+01 0. -1.
         25    2    1    2    0    0  0.00000000000E+00  0.00000000000E+00  0.28893129449E+03  0.31481194226E+03  0.12500106420E+03 0.  0.
    9000005    1    3    3    0    0 -0.26457705202E+02  0.61325338365E+01  0.27201083436E+01  0.27313314065E+02  0.10000000000E+01 0.  0.
    9000005    1    3    3    0    0  0.26457705202E+02 -0.61325338365E+01  0.28621118615E+03  0.28749862819E+03  0.10000000000E+01 0.  0.
<mgrwt>
<rscale>  0 0.12500106E+03</rscale>
<asrwt>0</asrwt>
<pdfrwt beam="1">  1        4 0.46441790E-01 0.12500106E+03</pdfrwt>
<pdfrwt beam="2">  1       -4 0.19908190E-02 0.12500106E+03</pdfrwt>
<totfact> 0.73775710E+03</totfact>
</mgrwt>
</event>
<event>
 5    1  0.3486589E-002  0.1249984E+03  0.7818608E-02  0.1235072E+00
         -4   -1    0    0    0  501 -0.00000000000E+00  0.00000000000E+00  0.19542197752E+03  0.19542610418E+03  0.12700000000E+01 0. -1.
          4   -1    0    0  501    0  0.00000000000E+00 -0.00000000000E+00 -0.19963764548E+02  0.20004119449E+02  0.12700000000E+01 0. -1.
         25    2    1    2    0    0  0.00000000000E+00  0.00000000000E+00  0.17545821297E+03  0.21543022363E+03  0.12499838702E+03 0.  0.
    9000005    1    3    3    0    0  0.29741639655E+02 -0.54816683797E+02  0.94561339888E+02  0.11327965816E+03  0.10000000000E+01 0.  0.
    9000005    1    3    3    0    0 -0.29741639655E+02  0.54816683797E+02  0.80896873081E+02  0.10215056547E+03  0.10000000000E+01 0.  0.
<mgrwt>
<rscale>  0 0.12499839E+03</rscale>
<asrwt>0</asrwt>
<pdfrwt beam="2">  1        4 0.30747700E-02 0.12499839E+03</pdfrwt>
<pdfrwt beam="1">  1       -4 0.30068342E-01 0.12499839E+03</pdfrwt>
<totfact> 0.87599819E+03</totfact>
</mgrwt>
</event>
<event>
 5    1  0.3486589E-002  0.1249956E+03  0.7818608E-02  0.1235076E+00
         -4   -1    0    0    0  501 -0.00000000000E+00  0.00000000000E+00  0.37376493061E+01  0.39475210367E+01  0.12700000000E+01 0. -1.
          4   -1    0    0  501    0  0.00000000000E+00 -0.00000000000E+00 -0.10162870568E+04  0.10162878503E+04  0.12700000000E+01 0. -1.
         25    2    1    2    0    0  0.00000000000E+00  0.00000000000E+00 -0.10125494075E+04  0.10202353714E+04  0.12499564137E+03 0.  0.
    9000005    1    3    3    0    0  0.35037213971E+02  0.16214580971E+02 -0.90734028005E+03  0.90816182633E+03  0.10000000000E+01 0.  0.
    9000005    1    3    3    0    0 -0.35037213971E+02 -0.16214580971E+02 -0.10520912744E+03  0.11207354503E+03  0.10000000000E+01 0.  0.
<mgrwt>
<rscale>  0 0.12499564E+03</rscale>
<asrwt>0</asrwt>
<pdfrwt beam="2">  1        4 0.15636785E+00 0.12499564E+03</pdfrwt>
<pdfrwt beam="1">  1       -4 0.59122880E-03 0.12499564E+03</pdfrwt>
<totfact> 0.29945513E+03</totfact>
</mgrwt>
</event>
<event>
 5    1  0.3486589E-002  0.1249999E+03  0.7818608E-02  0.1235069E+00
         -4   -1    0    0    0  501 -0.00000000000E+00  0.00000000000E+00  0.18705240963E+03  0.18705672094E+03  0.12700000000E+01 0. -1.
          4   -1    0    0  501    0  0.00000000000E+00 -0.00000000000E+00 -0.20859290662E+02  0.20897916330E+02  0.12700000000E+01 0. -1.
         25    2    1    2    0    0  0.00000000000E+00  0.00000000000E+00  0.16619311897E+03  0.20795463727E+03  0.12499991348E+03 0.  0.
    9000005    1    3    3    0    0 -0.22754178701E+02 -0.26663791200E+02 -0.29721505673E+01  0.35192955098E+02  0.10000000000E+01 0.  0.
    9000005    1    3    3    0    0  0.22754178701E+02  0.26663791200E+02  0.16916526953E+03  0.17276168217E+03  0.10000000000E+01 0.  0.
<mgrwt>
<rscale>  0 0.12499991E+03</rscale>
<asrwt>0</asrwt>
<pdfrwt beam="2">  1        4 0.32124245E-02 0.12499991E+03</pdfrwt>
<pdfrwt beam="1">  1       -4 0.28780596E-01 0.12499991E+03</pdfrwt>
<totfact> 0.88811180E+03</totfact>
</mgrwt>
</event>
<event>
 5    1  0.3486589E-002  0.1250000E+03  0.7818608E-02  0.1235069E+00
          4   -1    0    0  501    0  0.00000000000E+00  0.00000000000E+00  0.20069806334E+01  0.23750518443E+01  0.12700000000E+01 0.  1.
         -4   -1    0    0    0  501 -0.00000000000E+00 -0.00000000000E+00 -0.17824798331E+04  0.17824802855E+04  0.12700000000E+01 0.  1.
         25    2    1    2    0    0  0.00000000000E+00  0.00000000000E+00 -0.17804728524E+04  0.17848553373E+04  0.12499998795E+03 0.  0.
    9000005    1    3    3    0    0  0.14816347133E+02  0.34191660656E+02 -0.16065528873E+04  0.16069853059E+04  0.10000000000E+01 0.  0.
    9000005    1    3    3    0    0 -0.14816347133E+02 -0.34191660656E+02 -0.17391996515E+03  0.17787003142E+03  0.10000000000E+01 0.  0.
<mgrwt>
<rscale>  0 0.12499999E+03</rscale>
<asrwt>0</asrwt>
<pdfrwt beam="1">  1        4 0.33711565E-03 0.12499999E+03</pdfrwt>
<pdfrwt beam="2">  1       -4 0.27425485E+00 0.12499999E+03</pdfrwt>
<totfact> 0.12938384E+03</totfact>
</mgrwt>
</event>
<event>
 5    1  0.3486589E-002  0.1250013E+03  0.7818608E-02  0.1235067E+00
          4   -1    0    0  501    0  0.00000000000E+00  0.00000000000E+00  0.53031768530E+02  0.53046973273E+02  0.12700000000E+01 0.  1.
         -4   -1    0    0    0  501 -0.00000000000E+00 -0.00000000000E+00 -0.73628987017E+02  0.73639939090E+02  0.12700000000E+01 0.  1.
         25    2    1    2    0    0  0.00000000000E+00  0.00000000000E+00 -0.20597218487E+02  0.12668691236E+03  0.12500131341E+03 0.  0.
    9000005    1    3    3    0    0 -0.29439683772E+02  0.49334634495E+02 -0.35221491888E+02  0.67395508991E+02  0.10000000000E+01 0.  0.
    9000005    1    3    3    0    0  0.29439683772E+02 -0.49334634495E+02  0.14624273401E+02  0.59291403372E+02  0.10000000000E+01 0.  0.
<mgrwt>
<rscale>  0 0.12500131E+03</rscale>
<asrwt>0</asrwt>
<pdfrwt beam="1">  1        4 0.81607457E-02 0.12500131E+03</pdfrwt>
<pdfrwt beam="2">  1       -4 0.11329549E-01 0.12500131E+03</pdfrwt>
<totfact> 0.10415646E+04</totfact>
</mgrwt>
</event>
<event>
 5    1  0.3486589E-002  0.1249958E+03  0.7818608E-02  0.1235076E+00
         -4   -1    0    0    0  501 -0.00000000000E+00  0.00000000000E+00  0.35176294876E+02  0.35199213361E+02  0.12700000000E+01 0. -1.
          4   -1    0    0  501    0  0.00000000000E+00 -0.00000000000E+00 -0.11097763941E+03  0.11098490595E+03  0.12700000000E+01 0. -1.
         25    2    1    2    0    0  0.00000000000E+00  0.00000000000E+00 -0.75801344531E+02  0.14618411931E+03  0.12499581155E+03 0.  0.
    9000005    1    3    3    0    0 -0.54945167710E+02  0.47499603529E+01 -0.72266317384E+02  0.90911793549E+02  0.10000000000E+01 0.  0.
    9000005    1    3    3    0    0  0.54945167710E+02 -0.47499603529E+01 -0.35350271474E+01  0.55272325761E+02  0.10000000000E+01 0.  0.
<mgrwt>
<rscale>  0 0.12499581E+03</rscale>
<asrwt>0</asrwt>
<pdfrwt beam="2">  1        4 0.17075805E-01 0.12499581E+03</pdfrwt>
<pdfrwt beam="1">  1       -4 0.54140596E-02 0.12499581E+03</pdfrwt>
<totfact> 0.10007929E+04</totfact>
</mgrwt>
</event>
<event>
 5    1  0.3486589E-002  0.1249726E+03  0.7818608E-02  0.1235112E+00
          4   -1    0    0  501    0  0.00000000000E+00  0.00000000000E+00  0.67952755345E+02  0.67964622113E+02  0.12700000000E+01 0. -1.
         -4   -1    0    0    0  501 -0.00000000000E+00 -0.00000000000E+00 -0.57435677438E+02  0.57449716646E+02  0.12700000000E+01 0. -1.
         25    2    1    2    0    0  0.00000000000E+00  0.00000000000E+00  0.10517077908E+02  0.12541433876E+03  0.12497258675E+03 0.  0.
    9000005    1    3    3    0    0 -0.16174683682E+02 -0.55548118246E+02 -0.18411335349E+02  0.60722245530E+02  0.10000000000E+01 0.  0.
    9000005    1    3    3    0    0  0.16174683682E+02  0.55548118246E+02  0.28928413257E+02  0.64692093229E+02  0.10000000000E+01 0.  0.
<mgrwt>
<rscale>  0 0.12497259E+03</rscale>
<asrwt>0</asrwt>
<pdfrwt beam="1">  1        4 0.10456263E-01 0.12497259E+03</pdfrwt>
<pdfrwt beam="2">  1       -4 0.88382508E-02 0.12497259E+03</pdfrwt>
<totfact> 0.10450308E+04</totfact>
</mgrwt>
</event>
<event>
 5    1  0.3486589E-002  0.1250030E+03  0.7818608E-02  0.1235065E+00
         -4   -1    0    0    0  501 -0.00000000000E+00  0.00000000000E+00  0.43114368463E+03  0.43114555512E+03  0.12700000000E+01 0. -1.
          4   -1    0    0  501    0  0.00000000000E+00 -0.00000000000E+00 -0.90142320240E+01  0.91032565043E+01  0.12700000000E+01 0. -1.
         25    2    1    2    0    0  0.00000000000E+00  0.00000000000E+00  0.42212945261E+03  0.44024881162E+03  0.12500296547E+03 0.  0.
    9000005    1    3    3    0    0 -0.26813780947E+02  0.51719128789E+02  0.29072432993E+03  0.29650545213E+03  0.10000000000E+01 0.  0.
    9000005    1    3    3    0    0  0.26813780947E+02 -0.51719128789E+02  0.13140512268E+03  0.14374335949E+03  0.10000000000E+01 0.  0.
<mgrwt>
<rscale>  0 0.12500297E+03</rscale>
<asrwt>0</asrwt>
<pdfrwt beam="2">  1        4 0.13937971E-02 0.12500297E+03</pdfrwt>
<pdfrwt beam="1">  1       -4 0.66336777E-01 0.12500297E+03</pdfrwt>
<totfact> 0.60813890E+03</totfact>
</mgrwt>
</event>
<event>
 5    1  0.3486589E-002  0.1249997E+03  0.7818608E-02  0.1235070E+00
         -4   -1    0    0    0  501 -0.00000000000E+00  0.00000000000E+00  0.11177900449E+04  0.11177907664E+04  0.12700000000E+01 0. -1.
          4   -1    0    0  501    0  0.00000000000E+00 -0.00000000000E+00 -0.33784676435E+01  0.36092857491E+01  0.12700000000E+01 0. -1.
         25    2    1    2    0    0  0.00000000000E+00  0.00000000000E+00  0.11144115773E+04  0.11214000521E+04  0.12499965346E+03 0.  0.
    9000005    1    3    3    0    0  0.14836429460E+02  0.29603960046E+02  0.81755033054E+02  0.88212241323E+02  0.10000000000E+01 0.  0.
    9000005    1    3    3    0    0 -0.14836429460E+02 -0.29603960046E+02  0.10326565442E+04  0.10331878108E+04  0.10000000000E+01 0.  0.
<mgrwt>
<rscale>  0 0.12499965E+03</rscale>
<asrwt>0</asrwt>
<pdfrwt beam="2">  1        4 0.53757494E-03 0.12499965E+03</pdfrwt>
<pdfrwt beam="1">  1       -4 0.17198553E+00 0.12499965E+03</pdfrwt>
<totfact> 0.26865567E+03</totfact>
</mgrwt>
</event>
<event>
 5    1  0.3486589E-002  0.1249990E+03  0.7818608E-02  0.1235071E+00
         -4   -1    0    0    0  501 -0.00000000000E+00  0.00000000000E+00  0.11518661127E+03  0.11519361230E+03  0.12700000000E+01 0. -1.
          4   -1    0    0  501    0  0.00000000000E+00 -0.00000000000E+00 -0.33891919468E+02  0.33915705878E+02  0.12700000000E+01 0. -1.
         25    2    1    2    0    0  0.00000000000E+00  0.00000000000E+00  0.81294691800E+02  0.14910931818E+03  0.12499904741E+03 0.  0.
    9000005    1    3    3    0    0  0.49249513726E+02 -0.22392159938E+02  0.33372134776E+01  0.54213101948E+02  0.10000000000E+01 0.  0.
    9000005    1    3    3    0    0 -0.49249513726E+02  0.22392159938E+02  0.77957478323E+02  0.94896216234E+02  0.10000000000E+01 0.  0.
<mgrwt>
<rscale>  0 0.12499905E+03</rscale>
<asrwt>0</asrwt>
<pdfrwt beam="2">  1        4 0.52165097E-02 0.12499905E+03</pdfrwt>
<pdfrwt beam="1">  1       -4 0.17723385E-01 0.12499905E+03</pdfrwt>
<totfact> 0.99483672E+03</totfact>
</mgrwt>
</event>
<event>
 5    1  0.3486589E-002  0.1250070E+03  0.7818608E-02  0.1235058E+00
          4   -1    0    0  501    0  0.00000000000E+00  0.00000000000E+00  0.17687047881E+03  0.17687503830E+03  0.12700000000E+01 0.  1.
         -4   -1    0    0    0  501 -0.00000000000E+00 -0.00000000000E+00 -0.22064731851E+02  0.22101250907E+02  0.12700000000E+01 0.  1.
         25    2    1    2    0    0  0.00000000000E+00  0.00000000000E+00  0.15480574696E+03  0.19897628920E+03  0.12500697731E+03 0.  0.
    9000005    1    3    3    0    0  0.48529516301E+01  0.62211143467E+02  0.82895715580E+02  0.10376163632E+03  0.10000000000E+01 0.  0.
    9000005    1    3    3    0    0 -0.48529516301E+01 -0.62211143467E+02  0.71910031375E+02  0.95214652881E+02  0.10000000000E+01 0.  0.
<mgrwt>
<rscale>  0 0.12500698E+03</rscale>
<asrwt>0</asrwt>
<pdfrwt beam="1">  1        4 0.27214003E-01 0.12500698E+03</pdfrwt>
<pdfrwt beam="2">  1       -4 0.33977340E-02 0.12500698E+03</pdfrwt>
<totfact> 0.90294351E+03</totfact>
</mgrwt>
</event>
<event>
 5    1  0.3486589E-002  0.1249979E+03  0.7818608E-02  0.1235073E+00
          4   -1    0    0  501    0  0.00000000000E+00  0.00000000000E+00  0.38516329071E+02  0.38537261256E+02  0.12700000000E+01 0. -1.
         -4   -1    0    0    0  501 -0.00000000000E+00 -0.00000000000E+00 -0.10136216616E+03  0.10137012197E+03  0.12700000000E+01 0. -1.
         25    2    1    2    0    0  0.00000000000E+00  0.00000000000E+00 -0.62845837087E+02  0.13990738323E+03  0.12499790655E+03 0.  0.
    9000005    1    3    3    0    0 -0.21302251618E+02 -0.17795274816E+02  0.31243260384E+02  0.41804294626E+02  0.10000000000E+01 0.  0.
    9000005    1    3    3    0    0  0.21302251618E+02  0.17795274816E+02 -0.94089097472E+02  0.98103088600E+02  0.10000000000E+01 0.  0.
<mgrwt>
<rscale>  0 0.12499791E+03</rscale>
<asrwt>0</asrwt>
<pdfrwt beam="1">  1        4 0.59278113E-02 0.12499791E+03</pdfrwt>
<pdfrwt beam="2">  1       -4 0.15596402E-01 0.12499791E+03</pdfrwt>
<totfact> 0.10135984E+04</totfact>
</mgrwt>
</event>
<event>
 5    1  0.3486589E-002  0.1249980E+03  0.7818608E-02  0.1235072E+00
          4   -1    0    0  501    0  0.00000000000E+00  0.00000000000E+00  0.44173405865E+03  0.44173588429E+03  0.12700000000E+01 0.  1.
         -4   -1    0    0    0  501 -0.00000000000E+00 -0.00000000000E+00 -0.87952490237E+01  0.88864675428E+01  0.12700000000E+01 0.  1.
         25    2    1    2    0    0  0.00000000000E+00  0.00000000000E+00  0.43293880962E+03  0.45062235183E+03  0.12499796435E+03 0.  0.
    9000005    1    3    3    0    0 -0.59232431290E+02  0.13686997704E+02  0.26862520970E+03  0.27542025726E+03  0.10000000000E+01 0.  0.
    9000005    1    3    3    0    0  0.59232431290E+02 -0.13686997704E+02  0.16431359992E+03  0.17520209457E+03  0.10000000000E+01 0.  0.
<mgrwt>
<rscale>  0 0.12499796E+03</rscale>
<asrwt>0</asrwt>
<pdfrwt beam="1">  1        4 0.67966235E-01 0.12499796E+03</pdfrwt>
<pdfrwt beam="2">  1       -4 0.13602726E-02 0.12499796E+03</pdfrwt>
<totfact> 0.59912607E+03</totfact>
</mgrwt>
</event>
<event>
 5    1  0.3486589E-002  0.1249988E+03  0.7818608E-02  0.1235071E+00
          4   -1    0    0  501    0  0.00000000000E+00  0.00000000000E+00  0.34060028234E+03  0.34060265006E+03  0.12700000000E+01 0.  1.
         -4   -1    0    0    0  501 -0.00000000000E+00 -0.00000000000E+00 -0.11430931021E+02  0.11501264453E+02  0.12700000000E+01 0.  1.
         25    2    1    2    0    0  0.00000000000E+00  0.00000000000E+00  0.32916935132E+03  0.35210391452E+03  0.12499881907E+03 0.  0.
    9000005    1    3    3    0    0  0.12032685554E+02  0.38932372026E+02  0.29804136020E+03  0.30081583652E+03  0.10000000000E+01 0.  0.
    9000005    1    3    3    0    0 -0.12032685554E+02 -0.38932372026E+02  0.31127991121E+02  0.51288077995E+02  0.10000000000E+01 0.  0.
<mgrwt>
<rscale>  0 0.12499882E+03</rscale>
<asrwt>0</asrwt>
<pdfrwt beam="1">  1        4 0.52405629E-01 0.12499882E+03</pdfrwt>
<pdfrwt beam="2">  1       -4 0.17641974E-02 0.12499882E+03</pdfrwt>
<totfact> 0.69495537E+03</totfact>
</mgrwt>
</event>
<event>
 5    1  0.3486589E-002  0.1249994E+03  0.7818608E-02  0.1235070E+00
          4   -1    0    0  501    0  0.00000000000E+00  0.00000000000E+00  0.74443088878E+02  0.74453921198E+02  0.12700000000E+01 0. -1.
         -4   -1    0    0    0  501 -0.00000000000E+00 -0.00000000000E+00 -0.52450169726E+02  0.52465543019E+02  0.12700000000E+01 0. -1.
         25    2    1    2    0    0  0.00000000000E+00  0.00000000000E+00  0.21992919153E+02  0.12691946422E+03  0.12499944762E+03 0.  0.
    9000005    1    3    3    0    0  0.15033965287E+02  0.41161052054E+02 -0.34240807652E+02  0.55620906385E+02  0.10000000000E+01 0.  0.
    9000005    1    3    3    0    0 -0.15033965287E+02 -0.41161052054E+02  0.56233726805E+02  0.71298557831E+02  0.10000000000E+01 0.  0.
<mgrwt>
<rscale>  0 0.12499945E+03</rscale>
<asrwt>0</asrwt>
<pdfrwt beam="1">  1        4 0.11454799E-01 0.12499945E+03</pdfrwt>
<pdfrwt beam="2">  1       -4 0.80712727E-02 0.12499945E+03</pdfrwt>
<totfact> 0.10411026E+04</totfact>
</mgrwt>
</event>
<event>
 5    1  0.3486589E-002  0.1249938E+03  0.7818608E-02  0.1235079E+00
          4   -1    0    0  501    0  0.00000000000E+00  0.00000000000E+00  0.75751450962E+02  0.75762096214E+02  0.12700000000E+01 0.  1.
         -4   -1    0    0    0  501 -0.00000000000E+00 -0.00000000000E+00 -0.51539471888E+02  0.51555116744E+02  0.12700000000E+01 0.  1.
         25    2    1    2    0    0  0.00000000000E+00  0.00000000000E+00  0.24211979073E+02  0.12731721296E+03  0.12499381099E+03 0.  0.
    9000005    1    3    3    0    0 -0.17308149936E+02  0.34405523068E+02 -0.38017977382E+02  0.54126506224E+02  0.10000000000E+01 0.  0.
    9000005    1    3    3    0    0  0.17308149936E+02 -0.34405523068E+02  0.62229956456E+02  0.73190706734E+02  0.10000000000E+01 0.  0.
<mgrwt>
<rscale>  0 0.12499381E+03</rscale>
<asrwt>0</asrwt>
<pdfrwt beam="1">  1        4 0.11656092E-01 0.12499381E+03</pdfrwt>
<pdfrwt beam="2">  1       -4 0.79311718E-02 0.12499381E+03</pdfrwt>
<totfact> 0.10403715E+04</totfact>
</mgrwt>
</event>
<event>
 5    1  0.3486589E-002  0.1249990E+03  0.7818608E-02  0.1235071E+00
          4   -1    0    0  501    0  0.00000000000E+00  0.00000000000E+00  0.69441399331E+03  0.69441515465E+03  0.12700000000E+01 0.  1.
         -4   -1    0    0    0  501 -0.00000000000E+00 -0.00000000000E+00 -0.55522893548E+01  0.56956840748E+01  0.12700000000E+01 0.  1.
         25    2    1    2    0    0  0.00000000000E+00  0.00000000000E+00  0.68886170395E+03  0.70011083872E+03  0.12499895728E+03 0.  0.
    9000005    1    3    3    0    0 -0.57845537594E+01 -0.47800107005E+02  0.56754729110E+03  0.56958690200E+03  0.10000000000E+01 0.  0.
    9000005    1    3    3    0    0  0.57845537594E+01  0.47800107005E+02  0.12131441285E+03  0.13052393672E+03  0.10000000000E+01 0.  0.
<mgrwt>
<rscale>  0 0.12499896E+03</rscale>
<asrwt>0</asrwt>
<pdfrwt beam="1">  1        4 0.10684397E+00 0.12499896E+03</pdfrwt>
<pdfrwt beam="2">  1       -4 0.86531863E-03 0.12499896E+03</pdfrwt>
<totfact> 0.43081845E+03</totfact>
</mgrwt>
</event>
<event>
 5    1  0.3486589E-002  0.1250009E+03  0.7818608E-02  0.1235068E+00
          4   -1    0    0  501    0  0.00000000000E+00  0.00000000000E+00  0.13554685259E+02  0.13614051288E+02  0.12700000000E+01 0. -1.
         -4   -1    0    0    0  501 -0.00000000000E+00 -0.00000000000E+00 -0.28749829728E+03  0.28750110233E+03  0.12700000000E+01 0. -1.
         25    2    1    2    0    0  0.00000000000E+00  0.00000000000E+00 -0.27394361202E+03  0.30111515361E+03  0.12500093267E+03 0.  0.
    9000005    1    3    3    0    0  0.56219804663E+02  0.21203106178E+02 -0.17835099678E+03  0.18820285917E+03  0.10000000000E+01 0.  0.
    9000005    1    3    3    0    0 -0.56219804663E+02 -0.21203106178E+02 -0.95592615241E+02  0.11291229444E+03  0.10000000000E+01 0.  0.
<mgrwt>
<rscale>  0 0.12500093E+03</rscale>
<asrwt>0</asrwt>
<pdfrwt beam="1">  1        4 0.20901188E-02 0.12500093E+03</pdfrwt>
<pdfrwt beam="2">  1       -4 0.44235285E-01 0.12500093E+03</pdfrwt>
<totfact> 0.75457608E+03</totfact>
</mgrwt>
</event>
<event>
 5    1  0.3486589E-002  0.1249916E+03  0.7818608E-02  0.1235082E+00
          4   -1    0    0  501    0  0.00000000000E+00  0.00000000000E+00  0.70490964191E+01  0.71625875440E+01  0.12700000000E+01 0.  1.
         -4   -1    0    0    0  501 -0.00000000000E+00 -0.00000000000E+00 -0.54953544189E+03  0.54953690940E+03  0.12700000000E+01 0.  1.
         25    2    1    2    0    0  0.00000000000E+00  0.00000000000E+00 -0.54248634547E+03  0.55669949694E+03  0.12499157922E+03 0.  0.
    9000005    1    3    3    0    0  0.38510065531E+02 -0.48799194995E+02 -0.24295579938E+03  0.25078458293E+03  0.10000000000E+01 0.  0.
    9000005    1    3    3    0    0 -0.38510065531E+02  0.48799194995E+02 -0.29953054608E+03  0.30591491402E+03  0.10000000000E+01 0.  0.
<mgrwt>
<rscale>  0 0.12499158E+03</rscale>
<asrwt>0</asrwt>
<pdfrwt beam="1">  1        4 0.10933198E-02 0.12499158E+03</pdfrwt>
<pdfrwt beam="2">  1       -4 0.84552724E-01 0.12499158E+03</pdfrwt>
<totfact> 0.51729715E+03</totfact>
</mgrwt>
</event>
<event>
 5    1  0.3486589E-002  0.1250001E+03  0.7818608E-02  0.1235069E+00
          4   -1    0    0  501    0  0.00000000000E+00  0.00000000000E+00  0.65330485145E+03  0.65330608587E+03  0.12700000000E+01 0.  1.
         -4   -1    0    0    0  501 -0.00000000000E+00 -0.00000000000E+00 -0.59105292910E+01  0.60454326975E+01  0.12700000000E+01 0.  1.
         25    2    1    2    0    0  0.00000000000E+00  0.00000000000E+00  0.64739432216E+03  0.65935151857E+03  0.12500006667E+03 0.  0.
    9000005    1    3    3    0    0 -0.24300606202E+01  0.62333213011E+02  0.30401743643E+03  0.31035292216E+03  0.10000000000E+01 0.  0.
    9000005    1    3    3    0    0  0.24300606202E+01 -0.62333213011E+02  0.34337688573E+03  0.34899859641E+03  0.10000000000E+01 0.  0.
<mgrwt>
<rscale>  0 0.12500007E+03</rscale>
<asrwt>0</asrwt>
<pdfrwt beam="1">  1        4 0.10051887E+00 0.12500007E+03</pdfrwt>
<pdfrwt beam="2">  1       -4 0.91978467E-03 0.12500007E+03</pdfrwt>
<totfact> 0.45320848E+03</totfact>
</mgrwt>
</event>
<event>
 5    1  0.3486589E-002  0.1250015E+03  0.7818608E-02  0.1235067E+00
         -4   -1    0    0    0  501 -0.00000000000E+00  0.00000000000E+00  0.85204086914E+02  0.85213551310E+02  0.12700000000E+01 0.  1.
          4   -1    0    0  501    0  0.00000000000E+00 -0.00000000000E+00 -0.45826123116E+02  0.45843717780E+02  0.12700000000E+01 0.  1.
         25    2    1    2    0    0  0.00000000000E+00  0.00000000000E+00  0.39377963798E+02  0.13105726909E+03  0.12500153498E+03 0.  0.
    9000005    1    3    3    0    0 -0.59147642318E+02 -0.18975579426E+02  0.12514234778E+02  0.63372882831E+02  0.10000000000E+01 0.  0.
    9000005    1    3    3    0    0  0.59147642318E+02  0.18975579426E+02  0.26863729020E+02  0.67684386258E+02  0.10000000000E+01 0.  0.
<mgrwt>
<rscale>  0 0.12500153E+03</rscale>
<asrwt>0</asrwt>
<pdfrwt beam="2">  1        4 0.70522543E-02 0.12500153E+03</pdfrwt>
<pdfrwt beam="1">  1       -4 0.13110402E-01 0.12500153E+03</pdfrwt>
<totfact> 0.10321504E+04</totfact>
</mgrwt>
</event>
<event>
 5    1  0.3486589E-002  0.1249953E+03  0.7818608E-02  0.1235077E+00
         -4   -1    0    0    0  501 -0.00000000000E+00  0.00000000000E+00  0.98173515720E+01  0.98991561200E+01  0.12700000000E+01 0. -1.
          4   -1    0    0  501    0  0.00000000000E+00 -0.00000000000E+00 -0.39612872601E+03  0.39613076184E+03  0.12700000000E+01 0. -1.
         25    2    1    2    0    0  0.00000000000E+00  0.00000000000E+00 -0.38631137444E+03  0.40602991796E+03  0.12499526492E+03 0.  0.
    9000005    1    3    3    0    0 -0.16296258028E+02 -0.54845012141E+02 -0.11153120563E+03  0.12535451014E+03  0.10000000000E+01 0.  0.
    9000005    1    3    3    0    0  0.16296258028E+02  0.54845012141E+02 -0.27478016881E+03  0.28067540782E+03  0.10000000000E+01 0.  0.
<mgrwt>
<rscale>  0 0.12499526E+03</rscale>
<asrwt>0</asrwt>
<pdfrwt beam="2">  1        4 0.60949318E-01 0.12499526E+03</pdfrwt>
<pdfrwt beam="1">  1       -4 0.15168113E-02 0.12499526E+03</pdfrwt>
<totfact> 0.63977213E+03</totfact>
</mgrwt>
</event>
<event>
 5    1  0.3486589E-002  0.1250007E+03  0.7818608E-02  0.1235068E+00
         -4   -1    0    0    0  501 -0.00000000000E+00  0.00000000000E+00  0.19296033350E+03  0.19296451281E+03  0.12700000000E+01 0. -1.
          4   -1    0    0  501    0  0.00000000000E+00 -0.00000000000E+00 -0.20219700260E+02  0.20259545370E+02  0.12700000000E+01 0. -1.
         25    2    1    2    0    0  0.00000000000E+00  0.00000000000E+00  0.17274063324E+03  0.21322405818E+03  0.12500069046E+03 0.  0.
    9000005    1    3    3    0    0  0.20092277961E+02  0.11865937813E+02 -0.12517930213E+02  0.26499031882E+02  0.10000000000E+01 0.  0.
    9000005    1    3    3    0    0 -0.20092277961E+02 -0.11865937813E+02  0.18525856345E+03  0.18672502630E+03  0.10000000000E+01 0.  0.
<mgrwt>
<rscale>  0 0.12500069E+03</rscale>
<asrwt>0</asrwt>
<pdfrwt beam="2">  1        4 0.31141094E-02 0.12500069E+03</pdfrwt>
<pdfrwt beam="1">  1       -4 0.29689594E-01 0.12500069E+03</pdfrwt>
<totfact> 0.87950682E+03</totfact>
</mgrwt>
</event>
<event>
 5    1  0.3486589E-002  0.1249936E+03  0.7818608E-02  0.1235079E+00
          4   -1    0    0  501    0  0.00000000000E+00  0.00000000000E+00  0.21872814372E+02  0.21909653319E+02  0.12700000000E+01 0.  1.
         -4   -1    0    0    0  501 -0.00000000000E+00 -0.00000000000E+00 -0.17838156248E+03  0.17838608335E+03  0.12700000000E+01 0.  1.
         25    2    1    2    0    0  0.00000000000E+00  0.00000000000E+00 -0.15650874810E+03  0.20029573666E+03  0.12499357541E+03 0.  0.
    9000005    1    3    3    0    0  0.49610661582E+01 -0.38171939215E+02 -0.15713551971E+03  0.16178467379E+03  0.10000000000E+01 0.  0.
    9000005    1    3    3    0    0 -0.49610661582E+01  0.38171939215E+02  0.62677160169E+00  0.38511062872E+02  0.10000000000E+01 0.  0.
<mgrwt>
<rscale>  0 0.12499358E+03</rscale>
<asrwt>0</asrwt>
<pdfrwt beam="1">  1        4 0.33682300E-02 0.12499358E+03</pdfrwt>
<pdfrwt beam="2">  1       -4 0.27446498E-01 0.12499358E+03</pdfrwt>
<totfact> 0.90098604E+03</totfact>
</mgrwt>
</event>
<event>
 5    1  0.3486589E-002  0.1249993E+03  0.7818608E-02  0.1235070E+00
          4   -1    0    0  501    0  0.00000000000E+00  0.00000000000E+00  0.77980021623E+02  0.77990362689E+02  0.12700000000E+01 0. -1.
         -4   -1    0    0    0  501 -0.00000000000E+00 -0.00000000000E+00 -0.50070661517E+02  0.50086765166E+02  0.12700000000E+01 0. -1.
         25    2    1    2    0    0  0.00000000000E+00  0.00000000000E+00  0.27909360106E+02  0.12807712785E+03  0.12499927319E+03 0.  0.
    9000005    1    3    3    0    0  0.22986745663E+02 -0.57980108412E+02  0.99703420879E+01  0.63170334565E+02  0.10000000000E+01 0.  0.
    9000005    1    3    3    0    0 -0.22986745663E+02  0.57980108412E+02  0.17939018018E+02  0.64906793289E+02  0.10000000000E+01 0.  0.
<mgrwt>
<rscale>  0 0.12499927E+03</rscale>
<asrwt>0</asrwt>
<pdfrwt beam="1">  1        4 0.11998961E-01 0.12499927E+03</pdfrwt>
<pdfrwt beam="2">  1       -4 0.77052129E-02 0.12499927E+03</pdfrwt>
<totfact> 0.10385993E+04</totfact>
</mgrwt>
</event>
<event>
 5    1  0.3486589E-002  0.1250083E+03  0.7818608E-02  0.1235056E+00
         -4   -1    0    0    0  501 -0.00000000000E+00  0.00000000000E+00  0.62293313520E+01  0.63574734835E+01  0.12700000000E+01 0. -1.
          4   -1    0    0  501    0  0.00000000000E+00 -0.00000000000E+00 -0.62064333058E+03  0.62064462995E+03  0.12700000000E+01 0. -1.
         25    2    1    2    0    0  0.00000000000E+00  0.00000000000E+00 -0.61441399923E+03  0.62700210344E+03  0.12500830081E+03 0.  0.
    9000005    1    3    3    0    0 -0.26795078791E+02 -0.54449146865E+02 -0.23229293515E+03  0.24009101100E+03  0.10000000000E+01 0.  0.
    9000005    1    3    3    0    0  0.26795078791E+02  0.54449146865E+02 -0.38212106408E+03  0.38691109244E+03  0.10000000000E+01 0.  0.
<mgrwt>
<rscale>  0 0.12500830E+03</rscale>
<asrwt>0</asrwt>
<pdfrwt beam="2">  1        4 0.95493498E-01 0.12500830E+03</pdfrwt>
<pdfrwt beam="1">  1       -4 0.96831620E-03 0.12500830E+03</pdfrwt>
<totfact> 0.47197778E+03</totfact>
</mgrwt>
</event>
<event>
 5    1  0.3486589E-002  0.1249995E+03  0.7818608E-02  0.1235070E+00
         -4   -1    0    0    0  501 -0.00000000000E+00  0.00000000000E+00  0.89327265277E+01  0.90225552489E+01  0.12700000000E+01 0. -1.
          4   -1    0    0  501    0  0.00000000000E+00 -0.00000000000E+00 -0.43501418951E+03  0.43501604335E+03  0.12700000000E+01 0. -1.
         25    2    1    2    0    0  0.00000000000E+00  0.00000000000E+00 -0.42608146298E+03  0.44403859860E+03  0.12499945581E+03 0.  0.
    9000005    1    3    3    0    0  0.42835522895E+02 -0.43470812433E+02 -0.16529896936E+03  0.17620823711E+03  0.10000000000E+01 0.  0.
    9000005    1    3    3    0    0 -0.42835522895E+02  0.43470812433E+02 -0.26078249362E+03  0.26783036149E+03  0.10000000000E+01 0.  0.
<mgrwt>
<rscale>  0 0.12499946E+03</rscale>
<asrwt>0</asrwt>
<pdfrwt beam="2">  1        4 0.66932296E-01 0.12499946E+03</pdfrwt>
<pdfrwt beam="1">  1       -4 0.13813185E-02 0.12499946E+03</pdfrwt>
<totfact> 0.60484465E+03</totfact>
</mgrwt>
</event>
<event>
 5    1  0.3486589E-002  0.1249994E+03  0.7818608E-02  0.1235070E+00
          4   -1    0    0  501    0  0.00000000000E+00  0.00000000000E+00  0.11110443119E+02  0.11182792420E+02  0.12700000000E+01 0.  1.
         -4   -1    0    0    0  501 -0.00000000000E+00 -0.00000000000E+00 -0.35036590602E+03  0.35036820774E+03  0.12700000000E+01 0.  1.
         25    2    1    2    0    0  0.00000000000E+00  0.00000000000E+00 -0.33925546290E+03  0.36155100016E+03  0.12499942646E+03 0.  0.
    9000005    1    3    3    0    0  0.23505475740E+02 -0.46968145015E+02 -0.71681783120E+02  0.88869522713E+02  0.10000000000E+01 0.  0.
    9000005    1    3    3    0    0 -0.23505475740E+02  0.46968145015E+02 -0.26757367978E+03  0.27268147745E+03  0.10000000000E+01 0.  0.
<mgrwt>
<rscale>  0 0.12499943E+03</rscale>
<asrwt>0</asrwt>
<pdfrwt beam="1">  1        4 0.17150416E-02 0.12499943E+03</pdfrwt>
<pdfrwt beam="2">  1       -4 0.53908181E-01 0.12499943E+03</pdfrwt>
<totfact> 0.68473095E+03</totfact>
</mgrwt>
</event>
<event>
 5    1  0.3486589E-002  0.1249986E+03  0.7818608E-02  0.1235071E+00
         -4   -1    0    0    0  501 -0.00000000000E+00  0.00000000000E+00  0.26500338046E+03  0.26500642361E+03  0.12700000000E+01 0. -1.
          4   -1    0    0  501    0  0.00000000000E+00 -0.00000000000E+00 -0.14709568143E+02  0.14764291211E+02  0.12700000000E+01 0. -1.
         25    2    1    2    0    0  0.00000000000E+00  0.00000000000E+00  0.25029381232E+03  0.27977071483E+03  0.12499864155E+03 0.  0.
    9000005    1    3    3    0    0  0.58379264339E+02  0.84996953615E+01  0.17127652806E+03  0.18115471948E+03  0.10000000000E+01 0.  0.
    9000005    1    3    3    0    0 -0.58379264339E+02 -0.84996953615E+01  0.79017284262E+02  0.98615995346E+02  0.10000000000E+01 0.  0.
<mgrwt>
<rscale>  0 0.12499864E+03</rscale>
<asrwt>0</asrwt>
<pdfrwt beam="2">  1        4 0.22674542E-02 0.12499864E+03</pdfrwt>
<pdfrwt beam="1">  1       -4 0.40774191E-01 0.12499864E+03</pdfrwt>
<totfact> 0.78210880E+03</totfact>
</mgrwt>
</event>
<event>
 5    1  0.3486589E-002  0.1250042E+03  0.7818608E-02  0.1235063E+00
          4   -1    0    0  501    0  0.00000000000E+00  0.00000000000E+00  0.15681595582E+02  0.15732938060E+02  0.12700000000E+01 0.  1.
         -4   -1    0    0    0  501 -0.00000000000E+00 -0.00000000000E+00 -0.24865429710E+03  0.24865754034E+03  0.12700000000E+01 0.  1.
         25    2    1    2    0    0  0.00000000000E+00  0.00000000000E+00 -0.23297270152E+03  0.26439047840E+03  0.12500418159E+03 0.  0.
    9000005    1    3    3    0    0  0.18823812601E+02 -0.50895555451E+02 -0.50925918999E+02  0.74425417105E+02  0.10000000000E+01 0.  0.
    9000005    1    3    3    0    0 -0.18823812601E+02  0.50895555451E+02 -0.18204678252E+03  0.18996506129E+03  0.10000000000E+01 0.  0.
<mgrwt>
<rscale>  0 0.12500418E+03</rscale>
<asrwt>0</asrwt>
<pdfrwt beam="1">  1        4 0.24167522E-02 0.12500418E+03</pdfrwt>
<pdfrwt beam="2">  1       -4 0.38258703E-01 0.12500418E+03</pdfrwt>
<totfact> 0.80286371E+03</totfact>
</mgrwt>
</event>
<event>
 5    1  0.3486589E-002  0.1249965E+03  0.7818608E-02  0.1235075E+00
         -4   -1    0    0    0  501 -0.00000000000E+00  0.00000000000E+00  0.95070604030E+01  0.95915117424E+01  0.12700000000E+01 0. -1.
          4   -1    0    0  501    0  0.00000000000E+00 -0.00000000000E+00 -0.40895344173E+03  0.40895541371E+03  0.12700000000E+01 0. -1.
         25    2    1    2    0    0  0.00000000000E+00  0.00000000000E+00 -0.39944638133E+03  0.41854692545E+03  0.12499646895E+03 0.  0.
    9000005    1    3    3    0    0  0.47018352703E+02  0.29012208883E+02 -0.10195041511E+03  0.11596258403E+03  0.10000000000E+01 0.  0.
    9000005    1    3    3    0    0 -0.47018352703E+02 -0.29012208883E+02 -0.29749596622E+03  0.30258434142E+03  0.10000000000E+01 0.  0.
<mgrwt>
<rscale>  0 0.12499647E+03</rscale>
<asrwt>0</asrwt>
<pdfrwt beam="2">  1        4 0.62922549E-01 0.12499647E+03</pdfrwt>
<pdfrwt beam="1">  1       -4 0.14692729E-02 0.12499647E+03</pdfrwt>
<totfact> 0.62792940E+03</totfact>
</mgrwt>
</event>
<event>
 5    1  0.3486589E-002  0.1249940E+03  0.7818608E-02  0.1235079E+00
          4   -1    0    0  501    0  0.00000000000E+00  0.00000000000E+00  0.15692557817E+03  0.15693071715E+03  0.12700000000E+01 0.  1.
         -4   -1    0    0    0  501 -0.00000000000E+00 -0.00000000000E+00 -0.24868250886E+02  0.24900658669E+02  0.12700000000E+01 0.  1.
         25    2    1    2    0    0  0.00000000000E+00  0.00000000000E+00  0.13205732729E+03  0.18183137582E+03  0.12499404603E+03 0.  0.
    9000005    1    3    3    0    0  0.97363707888E+01  0.54280505952E+02  0.23276029350E+02  0.59866048682E+02  0.10000000000E+01 0.  0.
    9000005    1    3    3    0    0 -0.97363707888E+01 -0.54280505952E+02  0.10878129794E+03  0.12196532714E+03  0.10000000000E+01 0.  0.
<mgrwt>
<rscale>  0 0.12499405E+03</rscale>
<asrwt>0</asrwt>
<pdfrwt beam="1">  1        4 0.24145285E-01 0.12499405E+03</pdfrwt>
<pdfrwt beam="2">  1       -4 0.38287729E-02 0.12499405E+03</pdfrwt>
<totfact> 0.93300837E+03</totfact>
</mgrwt>
</event>
<event>
 5    1  0.3486589E-002  0.1250008E+03  0.7818608E-02  0.1235068E+00
         -4   -1    0    0    0  501 -0.00000000000E+00  0.00000000000E+00  0.37488208072E+03  0.37488423192E+03  0.12700000000E+01 0.  1.
          4   -1    0    0  501    0  0.00000000000E+00 -0.00000000000E+00 -0.10379183598E+02  0.10456593717E+02  0.12700000000E+01 0.  1.
         25    2    1    2    0    0  0.00000000000E+00  0.00000000000E+00  0.36450289712E+03  0.38534082564E+03  0.12500075958E+03 0.  0.
    9000005    1    3    3    0    0 -0.50891342171E+02  0.19411328085E+02  0.87809378145E+02  0.10333545014E+03  0.10000000000E+01 0.  0.
    9000005    1    3    3    0    0  0.50891342171E+02 -0.19411328085E+02  0.27669351898E+03  0.28200537550E+03  0.10000000000E+01 0.  0.
<mgrwt>
<rscale>  0 0.12500076E+03</rscale>
<asrwt>0</asrwt>
<pdfrwt beam="2">  1        4 0.16029175E-02 0.12500076E+03</pdfrwt>
<pdfrwt beam="1">  1       -4 0.57680290E-01 0.12500076E+03</pdfrwt>
<totfact> 0.66002827E+03</totfact>
</mgrwt>
</event>
<event>
 5    1  0.3486589E-002  0.1249985E+03  0.7818608E-02  0.1235072E+00
          4   -1    0    0  501    0  0.00000000000E+00  0.00000000000E+00  0.42522678817E+03  0.42522868469E+03  0.12700000000E+01 0. -1.
         -4   -1    0    0    0  501 -0.00000000000E+00 -0.00000000000E+00 -0.91402365071E+01  0.92280454814E+01  0.12700000000E+01 0. -1.
         25    2    1    2    0    0  0.00000000000E+00  0.00000000000E+00  0.41608655167E+03  0.43445673017E+03  0.12499852763E+03 0.  0.
    9000005    1    3    3    0    0 -0.31116232759E+01  0.34247898049E+02  0.26688021456E+02  0.43541373536E+02  0.10000000000E+01 0.  0.
    9000005    1    3    3    0    0  0.31116232759E+01 -0.34247898049E+02  0.38939853021E+03  0.39091535663E+03  0.10000000000E+01 0.  0.
<mgrwt>
<rscale>  0 0.12499853E+03</rscale>
<asrwt>0</asrwt>
<pdfrwt beam="1">  1        4 0.65426402E-01 0.12499853E+03</pdfrwt>
<pdfrwt beam="2">  1       -4 0.14130907E-02 0.12499853E+03</pdfrwt>
<totfact> 0.61336075E+03</totfact>
</mgrwt>
</event>
<event>
 5    1  0.3486589E-002  0.1250080E+03  0.7818608E-02  0.1235057E+00
          4   -1    0    0  501    0  0.00000000000E+00  0.00000000000E+00  0.19926948796E+03  0.19927353495E+03  0.12700000000E+01 0.  1.
         -4   -1    0    0    0  501 -0.00000000000E+00 -0.00000000000E+00 -0.19580537022E+02  0.19621680103E+02  0.12700000000E+01 0.  1.
         25    2    1    2    0    0  0.00000000000E+00  0.00000000000E+00  0.17968895094E+03  0.21889521505E+03  0.12500798408E+03 0.  0.
    9000005    1    3    3    0    0  0.17658943230E+02 -0.34299807972E+02  0.37498934015E+01  0.38773403300E+02  0.10000000000E+01 0.  0.
    9000005    1    3    3    0    0 -0.17658943230E+02  0.34299807972E+02  0.17593905754E+03  0.18012181175E+03  0.10000000000E+01 0.  0.
<mgrwt>
<rscale>  0 0.12500798E+03</rscale>
<asrwt>0</asrwt>
<pdfrwt beam="1">  1        4 0.30660320E-01 0.12500798E+03</pdfrwt>
<pdfrwt beam="2">  1       -4 0.30158665E-02 0.12500798E+03</pdfrwt>
<totfact> 0.87027946E+03</totfact>
</mgrwt>
</event>
<event>
 5    1  0.3486589E-002  0.1249931E+03  0.7818608E-02  0.1235080E+00
         -4   -1    0    0    0  501 -0.00000000000E+00  0.00000000000E+00  0.43607814749E+03  0.43607999681E+03  0.12700000000E+01 0. -1.
          4   -1    0    0  501    0  0.00000000000E+00 -0.00000000000E+00 -0.89097957366E+01  0.89998533359E+01  0.12700000000E+01 0. -1.
         25    2    1    2    0    0  0.00000000000E+00  0.00000000000E+00  0.42716835175E+03  0.44507985014E+03  0.12499308887E+03 0.  0.
    9000005    1    3    3    0    0 -0.15412998517E+02 -0.29400757126E+02  0.40210185954E+03  0.40347102807E+03  0.10000000000E+01 0.  0.
    9000005    1    3    3    0    0  0.15412998517E+02  0.29400757126E+02  0.25066492207E+02  0.41608822074E+02  0.10000000000E+01 0.  0.
<mgrwt>
<rscale>  0 0.12499309E+03</rscale>
<asrwt>0</asrwt>
<pdfrwt beam="2">  1        4 0.13778080E-02 0.12499309E+03</pdfrwt>
<pdfrwt beam="1">  1       -4 0.67095994E-01 0.12499309E+03</pdfrwt>
<totfact> 0.60401616E+03</totfact>
</mgrwt>
</event>
<event>
 5    1  0.3486589E-002  0.1250007E+03  0.7818608E-02  0.1235068E+00
         -4   -1    0    0    0  501 -0.00000000000E+00  0.00000000000E+00  0.42977042833E+01  0.44814241159E+01  0.12700000000E+01 0.  1.
          4   -1    0    0  501    0  0.00000000000E+00 -0.00000000000E+00 -0.88972061161E+03  0.88972151802E+03  0.12700000000E+01 0.  1.
         25    2    1    2    0    0  0.00000000000E+00  0.00000000000E+00 -0.88542290733E+03  0.89420294213E+03  0.12500070760E+03 0.  0.
    9000005    1    3    3    0    0  0.40548331172E+02 -0.34206754912E+02 -0.67899907519E+03  0.68106902245E+03  0.10000000000E+01 0.  0.
    9000005    1    3    3    0    0 -0.40548331172E+02  0.34206754912E+02 -0.20642383214E+03  0.21313391968E+03  0.10000000000E+01 0.  0.
<mgrwt>
<rscale>  0 0.12500071E+03</rscale>
<asrwt>0</asrwt>
<pdfrwt beam="2">  1        4 0.13689415E+00 0.12500071E+03</pdfrwt>
<pdfrwt beam="1">  1       -4 0.67538800E-03 0.12500071E+03</pdfrwt>
<totfact> 0.34382370E+03</totfact>
</mgrwt>
</event>
<event>
 5    1  0.3486589E-002  0.1249999E+03  0.7818608E-02  0.1235069E+00
         -4   -1    0    0    0  501 -0.00000000000E+00  0.00000000000E+00  0.26065092977E+03  0.26065402374E+03  0.12700000000E+01 0. -1.
          4   -1    0    0  501    0  0.00000000000E+00 -0.00000000000E+00 -0.14956405793E+02  0.15010228987E+02  0.12700000000E+01 0. -1.
         25    2    1    2    0    0  0.00000000000E+00  0.00000000000E+00  0.24569452398E+03  0.27566425273E+03  0.12499992447E+03 0.  0.
    9000005    1    3    3    0    0  0.88223663218E+01  0.47371496122E+02  0.35094760477E+02  0.59619921211E+02  0.10000000000E+01 0.  0.
    9000005    1    3    3    0    0 -0.88223663218E+01 -0.47371496122E+02  0.21059976350E+03  0.21604433152E+03  0.10000000000E+01 0.  0.
<mgrwt>
<rscale>  0 0.12499992E+03</rscale>
<asrwt>0</asrwt>
<pdfrwt beam="2">  1        4 0.23053639E-02 0.12499992E+03</pdfrwt>
<pdfrwt beam="1">  1       -4 0.40104518E-01 0.12499992E+03</pdfrwt>
<totfact> 0.78756662E+03</totfact>
</mgrwt>
</event>
<event>
 5    1  0.3486589E-002  0.1250021E+03  0.7818608E-02  0.1235066E+00
          4   -1    0    0  501    0  0.00000000000E+00  0.00000000000E+00  0.68219714976E+02  0.68231535315E+02  0.12700000000E+01 0.  1.
         -4   -1    0    0    0  501 -0.00000000000E+00 -0.00000000000E+00 -0.57237973097E+02  0.57252060786E+02  0.12700000000E+01 0.  1.
         25    2    1    2    0    0  0.00000000000E+00  0.00000000000E+00  0.10981741879E+02  0.12548359610E+03  0.12500213693E+03 0.  0.
    9000005    1    3    3    0    0  0.49767772534E+02  0.11115088359E+01  0.43416232209E+02  0.66060849633E+02  0.10000000000E+01 0.  0.
    9000005    1    3    3    0    0 -0.49767772534E+02 -0.11115088359E+01 -0.32434490330E+02  0.59422746469E+02  0.10000000000E+01 0.  0.
<mgrwt>
<rscale>  0 0.12500214E+03</rscale>
<asrwt>0</asrwt>
<pdfrwt beam="1">  1        4 0.10497334E-01 0.12500214E+03</pdfrwt>
<pdfrwt beam="2">  1       -4 0.88078350E-02 0.12500214E+03</pdfrwt>
<totfact> 0.10441813E+04</totfact>
</mgrwt>
</event>
<event>
 5    1  0.3486589E-002  0.1249894E+03  0.7818608E-02  0.1235086E+00
         -4   -1    0    0    0  501 -0.00000000000E+00  0.00000000000E+00  0.75301575692E+03  0.75301682787E+03  0.12700000000E+01 0.  1.
          4   -1    0    0  501    0  0.00000000000E+00 -0.00000000000E+00 -0.51077574842E+01  0.52632771652E+01  0.12700000000E+01 0.  1.
         25    2    1    2    0    0  0.00000000000E+00  0.00000000000E+00  0.74790799943E+03  0.75828010504E+03  0.12498936789E+03 0.  0.
    9000005    1    3    3    0    0 -0.53918710072E+02 -0.10546844052E+02  0.55454804425E+03  0.55726384828E+03  0.10000000000E+01 0.  0.
    9000005    1    3    3    0    0  0.53918710072E+02  0.10546844052E+02  0.19335995518E+03  0.20101625676E+03  0.10000000000E+01 0.  0.
<mgrwt>
<rscale>  0 0.12498937E+03</rscale>
<asrwt>0</asrwt>
<pdfrwt beam="2">  1        4 0.79785494E-03 0.12498937E+03</pdfrwt>
<pdfrwt beam="1">  1       -4 0.11586053E+00 0.12498937E+03</pdfrwt>
<totfact> 0.40190567E+03</totfact>
</mgrwt>
</event>
<event>
 5    1  0.3486589E-002  0.1250003E+03  0.7818608E-02  0.1235069E+00
          4   -1    0    0  501    0  0.00000000000E+00  0.00000000000E+00  0.17105654654E+02  0.17152735092E+02  0.12700000000E+01 0. -1.
         -4   -1    0    0    0  501 -0.00000000000E+00 -0.00000000000E+00 -0.22799861715E+03  0.22800215420E+03  0.12700000000E+01 0. -1.
         25    2    1    2    0    0  0.00000000000E+00  0.00000000000E+00 -0.21089296249E+03  0.24515488930E+03  0.12500031246E+03 0.  0.
    9000005    1    3    3    0    0 -0.17814215697E+01  0.13495085829E+02  0.14172386843E+02  0.19676060408E+02  0.10000000000E+01 0.  0.
    9000005    1    3    3    0    0  0.17814215697E+01 -0.13495085829E+02 -0.22506534934E+03  0.22547882889E+03  0.10000000000E+01 0.  0.
<mgrwt>
<rscale>  0 0.12500031E+03</rscale>
<asrwt>0</asrwt>
<pdfrwt beam="1">  1        4 0.26355330E-02 0.12500031E+03</pdfrwt>
<pdfrwt beam="2">  1       -4 0.35080602E-01 0.12500031E+03</pdfrwt>
<totfact> 0.83035001E+03</totfact>
</mgrwt>
</event>
<event>
 5    1  0.3486589E-002  0.1249973E+03  0.7818608E-02  0.1235074E+00
          4   -1    0    0  501    0  0.00000000000E+00  0.00000000000E+00  0.12998542368E+03  0.12999162769E+03  0.12700000000E+01 0. -1.
         -4   -1    0    0    0  501 -0.00000000000E+00 -0.00000000000E+00 -0.30029792309E+02  0.30056635309E+02  0.12700000000E+01 0. -1.
         25    2    1    2    0    0  0.00000000000E+00  0.00000000000E+00  0.99955631371E+02  0.16004826300E+03  0.12499727295E+03 0.  0.
    9000005    1    3    3    0    0  0.43545781144E+02 -0.43321371998E+02  0.35261226989E+02  0.70833116944E+02  0.10000000000E+01 0.  0.
    9000005    1    3    3    0    0 -0.43545781144E+02  0.43321371998E+02  0.64694404382E+02  0.89215146055E+02  0.10000000000E+01 0.  0.
<mgrwt>
<rscale>  0 0.12499727E+03</rscale>
<asrwt>0</asrwt>
<pdfrwt beam="1">  1        4 0.20000299E-01 0.12499727E+03</pdfrwt>
<pdfrwt beam="2">  1       -4 0.46225101E-02 0.12499727E+03</pdfrwt>
<totfact> 0.97339447E+03</totfact>
</mgrwt>
</event>
<event>
 5    1  0.3486589E-002  0.1250015E+03  0.7818608E-02  0.1235067E+00
          4   -1    0    0  501    0  0.00000000000E+00  0.00000000000E+00  0.48758068519E+02  0.48774605541E+02  0.12700000000E+01 0. -1.
         -4   -1    0    0    0  501 -0.00000000000E+00 -0.00000000000E+00 -0.80081728438E+02  0.80091798142E+02  0.12700000000E+01 0. -1.
         25    2    1    2    0    0  0.00000000000E+00  0.00000000000E+00 -0.31323659919E+02  0.12886640368E+03  0.12500151330E+03 0.  0.
    9000005    1    3    3    0    0 -0.54346112419E+02  0.27066598255E+02 -0.30926527484E+02  0.68143604090E+02  0.10000000000E+01 0.  0.
    9000005    1    3    3    0    0  0.54346112419E+02 -0.27066598255E+02 -0.39713243449E+00  0.60722799592E+02  0.10000000000E+01 0.  0.
<mgrwt>
<rscale>  0 0.12500151E+03</rscale>
<asrwt>0</asrwt>
<pdfrwt beam="1">  1        4 0.75032880E-02 0.12500151E+03</pdfrwt>
<pdfrwt beam="2">  1       -4 0.12322313E-01 0.12500151E+03</pdfrwt>
<totfact> 0.10368464E+04</totfact>
</mgrwt>
</event>
<event>
 5    1  0.3486589E-002  0.1250491E+03  0.7818608E-02  0.1234993E+00
         -4   -1    0    0    0  501 -0.00000000000E+00  0.00000000000E+00  0.16838947979E+02  0.16886772013E+02  0.12700000000E+01 0.  1.
          4   -1    0    0  501    0  0.00000000000E+00 -0.00000000000E+00 -0.23178054956E+03  0.23178402890E+03  0.12700000000E+01 0.  1.
         25    2    1    2    0    0  0.00000000000E+00  0.00000000000E+00 -0.21494160158E+03  0.24867080091E+03  0.12504909091E+03 0.  0.
    9000005    1    3    3    0    0  0.18535328653E+01  0.62179987851E+02 -0.95126776046E+02  0.11366569401E+03  0.10000000000E+01 0.  0.
    9000005    1    3    3    0    0 -0.18535328653E+01 -0.62179987851E+02 -0.11981482553E+03  0.13500510691E+03  0.10000000000E+01 0.  0.
<mgrwt>
<rscale>  0 0.12504909E+03</rscale>
<asrwt>0</asrwt>
<pdfrwt beam="2">  1        4 0.35662490E-01 0.12504909E+03</pdfrwt>
<pdfrwt beam="1">  1       -4 0.25945540E-02 0.12504909E+03</pdfrwt>
<totfact> 0.82432531E+03</totfact>
</mgrwt>
</event>
<event>
 5    1  0.3486589E-002  0.1249982E+03  0.7818608E-02  0.1235072E+00
          4   -1    0    0  501    0  0.00000000000E+00  0.00000000000E+00  0.29240278419E+03  0.29240554219E+03  0.12700000000E+01 0.  1.
         -4   -1    0    0    0  501 -0.00000000000E+00 -0.00000000000E+00 -0.13325746089E+02  0.13386127477E+02  0.12700000000E+01 0.  1.
         25    2    1    2    0    0  0.00000000000E+00  0.00000000000E+00  0.27907703810E+03  0.30579166966E+03  0.12499820815E+03 0.  0.
    9000005    1    3    3    0    0 -0.40596003222E+02  0.47188545108E+02  0.15301437745E+03  0.16519441266E+03  0.10000000000E+01 0.  0.
    9000005    1    3    3    0    0  0.40596003222E+02 -0.47188545108E+02  0.12606266065E+03  0.14059725700E+03  0.10000000000E+01 0.  0.
<mgrwt>
<rscale>  0 0.12499821E+03</rscale>
<asrwt>0</asrwt>
<pdfrwt beam="1">  1        4 0.44989896E-01 0.12499821E+03</pdfrwt>
<pdfrwt beam="2">  1       -4 0.20549719E-02 0.12499821E+03</pdfrwt>
<totfact> 0.74881018E+03</totfact>
</mgrwt>
</event>
<event>
 5    1  0.3486589E-002  0.1249993E+03  0.7818608E-02  0.1235070E+00
          4   -1    0    0  501    0  0.00000000000E+00  0.00000000000E+00  0.39520297132E+02  0.39540697836E+02  0.12700000000E+01 0. -1.
         -4   -1    0    0    0  501 -0.00000000000E+00 -0.00000000000E+00 -0.98790574501E+02  0.98798737392E+02  0.12700000000E+01 0. -1.
         25    2    1    2    0    0  0.00000000000E+00  0.00000000000E+00 -0.59270277369E+02  0.13833943523E+03  0.12499933424E+03 0.  0.
    9000005    1    3    3    0    0 -0.47498701581E+02  0.37653605204E+02 -0.12803956650E+02  0.61958550198E+02  0.10000000000E+01 0.  0.
    9000005    1    3    3    0    0  0.47498701581E+02 -0.37653605204E+02 -0.46466320719E+02  0.76380885030E+02  0.10000000000E+01 0.  0.
<mgrwt>
<rscale>  0 0.12499933E+03</rscale>
<asrwt>0</asrwt>
<pdfrwt beam="1">  1        4 0.60822429E-02 0.12499933E+03</pdfrwt>
<pdfrwt beam="2">  1       -4 0.15200747E-01 0.12499933E+03</pdfrwt>
<totfact> 0.10168271E+04</totfact>
</mgrwt>
</event>
<event>
 5    1  0.3486589E-002  0.1250005E+03  0.7818608E-02  0.1235068E+00
          4   -1    0    0  501    0  0.00000000000E+00  0.00000000000E+00  0.33587481959E+02  0.33611483817E+02  0.12700000000E+01 0. -1.
         -4   -1    0    0    0  501 -0.00000000000E+00 -0.00000000000E+00 -0.11623272925E+03  0.11623966728E+03  0.12700000000E+01 0. -1.
         25    2    1    2    0    0  0.00000000000E+00  0.00000000000E+00 -0.82645247293E+02  0.14985115110E+03  0.12500052234E+03 0.  0.
    9000005    1    3    3    0    0 -0.13645822615E+02 -0.34211424441E+02 -0.10184327275E+03  0.10830365757E+03  0.10000000000E+01 0.  0.
    9000005    1    3    3    0    0  0.13645822615E+02  0.34211424441E+02  0.19198025460E+02  0.41547493531E+02  0.10000000000E+01 0.  0.
<mgrwt>
<rscale>  0 0.12500052E+03</rscale>
<asrwt>0</asrwt>
<pdfrwt beam="1">  1        4 0.51696850E-02 0.12500052E+03</pdfrwt>
<pdfrwt beam="2">  1       -4 0.17884338E-01 0.12500052E+03</pdfrwt>
<totfact> 0.99332209E+03</totfact>
</mgrwt>
</event>
<event>
 5    1  0.3486589E-002  0.1250103E+03  0.7818608E-02  0.1235053E+00
         -4   -1    0    0    0  501 -0.00000000000E+00  0.00000000000E+00  0.50192842052E+02  0.50208906514E+02  0.12700000000E+01 0. -1.
          4   -1    0    0  501    0  0.00000000000E+00 -0.00000000000E+00 -0.77804016058E+02  0.77814380514E+02  0.12700000000E+01 0. -1.
         25    2    1    2    0    0  0.00000000000E+00  0.00000000000E+00 -0.27611174006E+02  0.12802328703E+03  0.12501033994E+03 0.  0.
    9000005    1    3    3    0    0 -0.32664969661E+02  0.10982324392E+02 -0.67199346173E+02  0.75527238914E+02  0.10000000000E+01 0.  0.
    9000005    1    3    3    0    0  0.32664969661E+02 -0.10982324392E+02  0.39588172167E+02  0.52496048113E+02  0.10000000000E+01 0.  0.
<mgrwt>
<rscale>  0 0.12501034E+03</rscale>
<asrwt>0</asrwt>
<pdfrwt beam="2">  1        4 0.11971882E-01 0.12501034E+03</pdfrwt>
<pdfrwt beam="1">  1       -4 0.77240087E-02 0.12501034E+03</pdfrwt>
<totfact> 0.10384561E+04</totfact>
</mgrwt>
</event>
<event>
 5    1  0.3486589E-002  0.1249939E+03  0.7818608E-02  0.1235079E+00
          4   -1    0    0  501    0  0.00000000000E+00  0.00000000000E+00  0.82377786102E+01  0.83351002652E+01  0.12700000000E+01 0.  1.
         -4   -1    0    0    0  501 -0.00000000000E+00 -0.00000000000E+00 -0.47125854107E+03  0.47126025233E+03  0.12700000000E+01 0.  1.
         25    2    1    2    0    0  0.00000000000E+00  0.00000000000E+00 -0.46302076246E+03  0.47959535260E+03  0.12499390292E+03 0.  0.
    9000005    1    3    3    0    0 -0.48770499513E+02 -0.28315615881E+02 -0.33479015721E+03  0.33950815173E+03  0.10000000000E+01 0.  0.
    9000005    1    3    3    0    0  0.48770499513E+02  0.28315615881E+02 -0.12823060525E+03  0.14008720087E+03  0.10000000000E+01 0.  0.
<mgrwt>
<rscale>  0 0.12499390E+03</rscale>
<asrwt>0</asrwt>
<pdfrwt beam="1">  1        4 0.12749688E-02 0.12499390E+03</pdfrwt>
<pdfrwt beam="2">  1       -4 0.72508911E-01 0.12499390E+03</pdfrwt>
<totfact> 0.57490737E+03</totfact>
</mgrwt>
</event>
<event>
 5    1  0.3486589E-002  0.1250005E+03  0.7818608E-02  0.1235068E+00
          4   -1    0    0  501    0  0.00000000000E+00  0.00000000000E+00  0.40985741580E+02  0.41005413214E+02  0.12700000000E+01 0. -1.
         -4   -1    0    0    0  501 -0.00000000000E+00 -0.00000000000E+00 -0.95261540521E+02  0.95270005785E+02  0.12700000000E+01 0. -1.
         25    2    1    2    0    0  0.00000000000E+00  0.00000000000E+00 -0.54275798940E+02  0.13627541900E+03  0.12500050989E+03 0.  0.
    9000005    1    3    3    0    0  0.44110190186E+02 -0.41258068922E+02 -0.44626835467E+02  0.75103206145E+02  0.10000000000E+01 0.  0.
    9000005    1    3    3    0    0 -0.44110190186E+02  0.41258068922E+02 -0.96489634736E+01  0.61172212855E+02  0.10000000000E+01 0.  0.
<mgrwt>
<rscale>  0 0.12500051E+03</rscale>
<asrwt>0</asrwt>
<pdfrwt beam="1">  1        4 0.63076631E-02 0.12500051E+03</pdfrwt>
<pdfrwt beam="2">  1       -4 0.14657786E-01 0.12500051E+03</pdfrwt>
<totfact> 0.10211140E+04</totfact>
</mgrwt>
</event>
<event>
 5    1  0.3486589E-002  0.1249993E+03  0.7818608E-02  0.1235070E+00
         -4   -1    0    0    0  501 -0.00000000000E+00  0.00000000000E+00  0.21112846449E+01  0.24638228125E+01  0.12700000000E+01 0.  1.
          4   -1    0    0  501    0  0.00000000000E+00 -0.00000000000E+00 -0.17072385845E+04  0.17072390568E+04  0.12700000000E+01 0.  1.
         25    2    1    2    0    0  0.00000000000E+00  0.00000000000E+00 -0.17051272998E+04  0.17097028796E+04  0.12499931234E+03 0.  0.
    9000005    1    3    3    0    0 -0.58742461373E+02 -0.14441524830E+02 -0.63804927630E+03  0.64091115874E+03  0.10000000000E+01 0.  0.
    9000005    1    3    3    0    0  0.58742461373E+02  0.14441524830E+02 -0.10670780235E+04  0.10687917209E+04  0.10000000000E+01 0.  0.
<mgrwt>
<rscale>  0 0.12499931E+03</rscale>
<asrwt>0</asrwt>
<pdfrwt beam="2">  1        4 0.26267823E+00 0.12499931E+03</pdfrwt>
<pdfrwt beam="1">  1       -4 0.35196904E-03 0.12499931E+03</pdfrwt>
<totfact> 0.14146993E+03</totfact>
</mgrwt>
</event>
<event>
 5    1  0.3486589E-002  0.1250102E+03  0.7818608E-02  0.1235053E+00
          4   -1    0    0  501    0  0.00000000000E+00  0.00000000000E+00  0.15318579990E+02  0.15371135056E+02  0.12700000000E+01 0.  1.
         -4   -1    0    0    0  501 -0.00000000000E+00 -0.00000000000E+00 -0.25455141145E+03  0.25455457956E+03  0.12700000000E+01 0.  1.
         25    2    1    2    0    0  0.00000000000E+00  0.00000000000E+00 -0.23923283146E+03  0.26992571461E+03  0.12501017462E+03 0.  0.
    9000005    1    3    3    0    0 -0.32314744214E+02  0.42564035436E+02 -0.18958166847E+03  0.19697245702E+03  0.10000000000E+01 0.  0.
    9000005    1    3    3    0    0  0.32314744214E+02 -0.42564035436E+02 -0.49651162996E+02  0.72953257590E+02  0.10000000000E+01 0.  0.
<mgrwt>
<rscale>  0 0.12501017E+03</rscale>
<asrwt>0</asrwt>
<pdfrwt beam="1">  1        4 0.23609912E-02 0.12501017E+03</pdfrwt>
<pdfrwt beam="2">  1       -4 0.39166039E-01 0.12501017E+03</pdfrwt>
<totfact> 0.79515000E+03</totfact>
</mgrwt>
</event>
<event>
 5    1  0.3486589E-002  0.1250012E+03  0.7818608E-02  0.1235067E+00
          4   -1    0    0  501    0  0.00000000000E+00  0.00000000000E+00  0.47627926151E+02  0.47644855435E+02  0.12700000000E+01 0.  1.
         -4   -1    0    0    0  501 -0.00000000000E+00 -0.00000000000E+00 -0.81981074371E+02  0.81990910807E+02  0.12700000000E+01 0.  1.
         25    2    1    2    0    0  0.00000000000E+00  0.00000000000E+00 -0.34353148220E+02  0.12963576624E+03  0.12500117238E+03 0.  0.
    9000005    1    3    3    0    0  0.15110269660E+02 -0.28985801504E+02 -0.72413198198E+02  0.79455447965E+02  0.10000000000E+01 0.  0.
    9000005    1    3    3    0    0 -0.15110269660E+02  0.28985801504E+02  0.38060049978E+02  0.50180318277E+02  0.10000000000E+01 0.  0.
<mgrwt>
<rscale>  0 0.12500117E+03</rscale>
<asrwt>0</asrwt>
<pdfrwt beam="1">  1        4 0.73294322E-02 0.12500117E+03</pdfrwt>
<pdfrwt beam="2">  1       -4 0.12614532E-01 0.12500117E+03</pdfrwt>
<totfact> 0.10352031E+04</totfact>
</mgrwt>
</event>
<event>
 5    1  0.3486589E-002  0.1249988E+03  0.7818608E-02  0.1235071E+00
          4   -1    0    0  501    0  0.00000000000E+00  0.00000000000E+00  0.36517645826E+01  0.38663011479E+01  0.12700000000E+01 0.  1.
         -4   -1    0    0    0  501 -0.00000000000E+00 -0.00000000000E+00 -0.10389294288E+04  0.10389302050E+04  0.12700000000E+01 0.  1.
         25    2    1    2    0    0  0.00000000000E+00  0.00000000000E+00 -0.10352776642E+04  0.10427965062E+04  0.12499884508E+03 0.  0.
    9000005    1    3    3    0    0 -0.44382621335E+02 -0.37551514102E+02 -0.32644479823E+03  0.33158277937E+03  0.10000000000E+01 0.  0.
    9000005    1    3    3    0    0  0.44382621335E+02  0.37551514102E+02 -0.70883286596E+03  0.71121372678E+03  0.10000000000E+01 0.  0.
<mgrwt>
<rscale>  0 0.12499885E+03</rscale>
<asrwt>0</asrwt>
<pdfrwt beam="1">  1        4 0.57837329E-03 0.12499885E+03</pdfrwt>
<pdfrwt beam="2">  1       -4 0.15985163E+00 0.12499885E+03</pdfrwt>
<totfact> 0.29221540E+03</totfact>
</mgrwt>
</event>
<event>
 5    1  0.3486589E-002  0.1250000E+03  0.7818608E-02  0.1235069E+00
          4   -1    0    0  501    0  0.00000000000E+00  0.00000000000E+00  0.13566324314E+04  0.13566330259E+04  0.12700000000E+01 0. -1.
         -4   -1    0    0    0  501 -0.00000000000E+00 -0.00000000000E+00 -0.27387107023E+01  0.30188468512E+01  0.12700000000E+01 0. -1.
         25    2    1    2    0    0  0.00000000000E+00  0.00000000000E+00  0.13538937207E+04  0.13596518727E+04  0.12500003198E+03 0.  0.
    9000005    1    3    3    0    0  0.28698098462E+02 -0.13866165299E+02  0.12616312255E+04  0.12620341519E+04  0.10000000000E+01 0.  0.
    9000005    1    3    3    0    0 -0.28698098462E+02  0.13866165299E+02  0.92262495237E+02  0.97617720844E+02  0.10000000000E+01 0.  0.
<mgrwt>
<rscale>  0 0.12500003E+03</rscale>
<asrwt>0</asrwt>
<pdfrwt beam="1">  1        4 0.20873433E+00 0.12500003E+03</pdfrwt>
<pdfrwt beam="2">  1       -4 0.44293465E-03 0.12500003E+03</pdfrwt>
<totfact> 0.20862774E+03</totfact>
</mgrwt>
</event>
<event>
 5    1  0.3486589E-002  0.1249987E+03  0.7818608E-02  0.1235071E+00
         -4   -1    0    0    0  501 -0.00000000000E+00  0.00000000000E+00  0.14113355773E+03  0.14113927171E+03  0.12700000000E+01 0. -1.
          4   -1    0    0  501    0  0.00000000000E+00 -0.00000000000E+00 -0.27656273053E+02  0.27685417447E+02  0.12700000000E+01 0. -1.
         25    2    1    2    0    0  0.00000000000E+00  0.00000000000E+00  0.11347728468E+03  0.16882468916E+03  0.12499872611E+03 0.  0.
    9000005    1    3    3    0    0  0.30793374821E+02  0.38969294506E+02  0.55162304709E+01  0.49982663453E+02  0.10000000000E+01 0.  0.
    9000005    1    3    3    0    0 -0.30793374821E+02 -0.38969294506E+02  0.10796105421E+03  0.11884202570E+03  0.10000000000E+01 0.  0.
<mgrwt>
<rscale>  0 0.12499873E+03</rscale>
<asrwt>0</asrwt>
<pdfrwt beam="2">  1        4 0.42574927E-02 0.12499873E+03</pdfrwt>
<pdfrwt beam="1">  1       -4 0.21715536E-01 0.12499873E+03</pdfrwt>
<totfact> 0.95670657E+03</totfact>
</mgrwt>
</event>
<event>
 5    1  0.3486589E-002  0.1250110E+03  0.7818608E-02  0.1235052E+00
         -4   -1    0    0    0  501 -0.00000000000E+00  0.00000000000E+00  0.15637948279E+02  0.15689433590E+02  0.12700000000E+01 0. -1.
          4   -1    0    0  501    0  0.00000000000E+00 -0.00000000000E+00 -0.24937328373E+03  0.24937651761E+03  0.12700000000E+01 0. -1.
         25    2    1    2    0    0  0.00000000000E+00  0.00000000000E+00 -0.23373533545E+03  0.26506595120E+03  0.12501100531E+03 0.  0.
    9000005    1    3    3    0    0  0.20439675035E+02  0.42209541427E+02 -0.20445885039E+03  0.20977093985E+03  0.10000000000E+01 0.  0.
    9000005    1    3    3    0    0 -0.20439675035E+02 -0.42209541427E+02 -0.29276485058E+02  0.55295011351E+02  0.10000000000E+01 0.  0.
<mgrwt>
<rscale>  0 0.12501101E+03</rscale>
<asrwt>0</asrwt>
<pdfrwt beam="2">  1        4 0.38369327E-01 0.12501101E+03</pdfrwt>
<pdfrwt beam="1">  1       -4 0.24100475E-02 0.12501101E+03</pdfrwt>
<totfact> 0.80180706E+03</totfact>
</mgrwt>
</event>
<event>
 5    1  0.3486589E-002  0.1250024E+03  0.7818608E-02  0.1235065E+00
         -4   -1    0    0    0  501 -0.00000000000E+00  0.00000000000E+00  0.17398972415E+02  0.17445261279E+02  0.12700000000E+01 0. -1.
          4   -1    0    0  501    0  0.00000000000E+00 -0.00000000000E+00 -0.22417282476E+03  0.22417642217E+03  0.12700000000E+01 0. -1.
         25    2    1    2    0    0  0.00000000000E+00  0.00000000000E+00 -0.20677385234E+03  0.24162168345E+03  0.12500244759E+03 0.  0.
    9000005    1    3    3    0    0 -0.72302652761E+01  0.59203726548E+02 -0.13944770401E+03  0.15167076227E+03  0.10000000000E+01 0.  0.
    9000005    1    3    3    0    0  0.72302652761E+01 -0.59203726548E+02 -0.67326148331E+02  0.89950921186E+02  0.10000000000E+01 0.  0.
<mgrwt>
<rscale>  0 0.12500245E+03</rscale>
<asrwt>0</asrwt>
<pdfrwt beam="2">  1        4 0.34491962E-01 0.12500245E+03</pdfrwt>
<pdfrwt beam="1">  1       -4 0.26806026E-02 0.12500245E+03</pdfrwt>
<totfact> 0.83551880E+03</totfact>
</mgrwt>
</event>
<event>
 5    1  0.3486589E-002  0.1250000E+03  0.7818608E-02  0.1235069E+00
          4   -1    0    0  501    0  0.00000000000E+00  0.00000000000E+00  0.13614556379E+03  0.13615148710E+03  0.12700000000E+01 0. -1.
         -4   -1    0    0    0  501 -0.00000000000E+00 -0.00000000000E+00 -0.28671116931E+02  0.28699230757E+02  0.12700000000E+01 0. -1.
         25    2    1    2    0    0  0.00000000000E+00  0.00000000000E+00  0.10747444686E+03  0.16485071786E+03  0.12500000980E+03 0.  0.
    9000005    1    3    3    0    0  0.79702150015E+01  0.43767568744E+02  0.11161650960E+03  0.12015976704E+03  0.10000000000E+01 0.  0.
    9000005    1    3    3    0    0 -0.79702150015E+01 -0.43767568744E+02 -0.41420627401E+01  0.44690950814E+02  0.10000000000E+01 0.  0.
<mgrwt>
<rscale>  0 0.12500001E+03</rscale>
<asrwt>0</asrwt>
<pdfrwt beam="1">  1        4 0.20948089E-01 0.12500001E+03</pdfrwt>
<pdfrwt beam="2">  1       -4 0.44135594E-02 0.12500001E+03</pdfrwt>
<totfact> 0.96415650E+03</totfact>
</mgrwt>
</event>
<event>
 5    1  0.3486589E-002  0.1249940E+03  0.7818608E-02  0.1235079E+00
          4   -1    0    0  501    0  0.00000000000E+00  0.00000000000E+00  0.43752291441E+02  0.43770719737E+02  0.12700000000E+01 0. -1.
         -4   -1    0    0    0  501 -0.00000000000E+00 -0.00000000000E+00 -0.89230774399E+02  0.89239811743E+02  0.12700000000E+01 0. -1.
         25    2    1    2    0    0  0.00000000000E+00  0.00000000000E+00 -0.45478482958E+02  0.13301053148E+03  0.12499403615E+03 0.  0.
    9000005    1    3    3    0    0  0.13580279097E+02 -0.23950801268E+02 -0.82433445243E+02  0.86915693383E+02  0.10000000000E+01 0.  0.
    9000005    1    3    3    0    0 -0.13580279097E+02  0.23950801268E+02  0.36954962284E+02  0.46094838096E+02  0.10000000000E+01 0.  0.
<mgrwt>
<rscale>  0 0.12499404E+03</rscale>
<asrwt>0</asrwt>
<pdfrwt beam="1">  1        4 0.67332345E-02 0.12499404E+03</pdfrwt>
<pdfrwt beam="2">  1       -4 0.13729924E-01 0.12499404E+03</pdfrwt>
<totfact> 0.10281559E+04</totfact>
</mgrwt>
</event>
<event>
 5    1  0.3486589E-002  0.1250027E+03  0.7818608E-02  0.1235065E+00
         -4   -1    0    0    0  501 -0.00000000000E+00  0.00000000000E+00  0.20423666721E+01  0.24050284039E+01  0.12700000000E+01 0.  1.
          4   -1    0    0  501    0  0.00000000000E+00 -0.00000000000E+00 -0.17563588787E+04  0.17563593379E+04  0.12700000000E+01 0.  1.
         25    2    1    2    0    0  0.00000000000E+00  0.00000000000E+00 -0.17543165121E+04  0.17587643663E+04  0.12500268664E+03 0.  0.
    9000005    1    3    3    0    0  0.42749010001E+02  0.42908374064E+02 -0.66064240258E+03  0.66341389080E+03  0.10000000000E+01 0.  0.
    9000005    1    3    3    0    0 -0.42749010001E+02 -0.42908374064E+02 -0.10936741095E+04  0.10953504755E+04  0.10000000000E+01 0.  0.
<mgrwt>
<rscale>  0 0.12500269E+03</rscale>
<asrwt>0</asrwt>
<pdfrwt beam="2">  1        4 0.27023588E+00 0.12500269E+03</pdfrwt>
<pdfrwt beam="1">  1       -4 0.34214404E-03 0.12500269E+03</pdfrwt>
<totfact> 0.13348945E+03</totfact>
</mgrwt>
</event>
<event>
 5    1  0.3486589E-002  0.1249997E+03  0.7818608E-02  0.1235070E+00
         -4   -1    0    0    0  501 -0.00000000000E+00  0.00000000000E+00  0.22224686414E+02  0.22260943067E+02  0.12700000000E+01 0. -1.
          4   -1    0    0  501    0  0.00000000000E+00 -0.00000000000E+00 -0.17557907333E+03  0.17558366635E+03  0.12700000000E+01 0. -1.
         25    2    1    2    0    0  0.00000000000E+00  0.00000000000E+00 -0.15335438691E+03  0.19784460942E+03  0.12499968596E+03 0.  0.
    9000005    1    3    3    0    0 -0.50379982006E+02 -0.14706436212E+02 -0.13037009010E+03  0.14054103402E+03  0.10000000000E+01 0.  0.
    9000005    1    3    3    0    0  0.50379982006E+02  0.14706436212E+02 -0.22984296814E+02  0.57303575394E+02  0.10000000000E+01 0.  0.
<mgrwt>
<rscale>  0 0.12499969E+03</rscale>
<asrwt>0</asrwt>
<pdfrwt beam="2">  1        4 0.27015306E-01 0.12499969E+03</pdfrwt>
<pdfrwt beam="1">  1       -4 0.34223249E-02 0.12499969E+03</pdfrwt>
<totfact> 0.90500646E+03</totfact>
</mgrwt>
</event>
<event>
 5    1  0.3486589E-002  0.1250063E+03  0.7818608E-02  0.1235060E+00
          4   -1    0    0  501    0  0.00000000000E+00  0.00000000000E+00  0.26485466383E+03  0.26485770869E+03  0.12700000000E+01 0.  1.
         -4   -1    0    0    0  501 -0.00000000000E+00 -0.00000000000E+00 -0.14719657058E+02  0.14774342757E+02  0.12700000000E+01 0.  1.
         25    2    1    2    0    0  0.00000000000E+00  0.00000000000E+00  0.25013500677E+03  0.27963205144E+03  0.12500625018E+03 0.  0.
    9000005    1    3    3    0    0  0.23060057726E+01  0.55162116172E+02  0.19057079875E+03  0.19840969245E+03  0.10000000000E+01 0.  0.
    9000005    1    3    3    0    0 -0.23060057726E+01 -0.55162116172E+02  0.59564208021E+02  0.81222358993E+02  0.10000000000E+01 0.  0.
<mgrwt>
<rscale>  0 0.12500625E+03</rscale>
<asrwt>0</asrwt>
<pdfrwt beam="1">  1        4 0.40751307E-01 0.12500625E+03</pdfrwt>
<pdfrwt beam="2">  1       -4 0.22690037E-02 0.12500625E+03</pdfrwt>
<totfact> 0.78216053E+03</totfact>
</mgrwt>
</event>
<event>
 5    1  0.3486589E-002  0.1250113E+03  0.7818608E-02  0.1235052E+00
          4   -1    0    0  501    0  0.00000000000E+00  0.00000000000E+00  0.17626129655E+03  0.17626587180E+03  0.12700000000E+01 0. -1.
         -4   -1    0    0    0  501 -0.00000000000E+00 -0.00000000000E+00 -0.22142647433E+02  0.22179038197E+02  0.12700000000E+01 0. -1.
         25    2    1    2    0    0  0.00000000000E+00  0.00000000000E+00  0.15411864912E+03  0.19844491000E+03  0.12501129668E+03 0.  0.
    9000005    1    3    3    0    0  0.32579566753E+02 -0.52560744787E+02  0.91424868735E+02  0.11037919499E+03  0.10000000000E+01 0.  0.
    9000005    1    3    3    0    0 -0.32579566753E+02  0.52560744787E+02  0.62693780384E+02  0.88065715015E+02  0.10000000000E+01 0.  0.
<mgrwt>
<rscale>  0 0.12501130E+03</rscale>
<asrwt>0</asrwt>
<pdfrwt beam="1">  1        4 0.27120274E-01 0.12501130E+03</pdfrwt>
<pdfrwt beam="2">  1       -4 0.34097124E-02 0.12501130E+03</pdfrwt>
<totfact> 0.90375483E+03</totfact>
</mgrwt>
</event>
<event>
 5    1  0.3486589E-002  0.1250079E+03  0.7818608E-02  0.1235057E+00
          4   -1    0    0  501    0  0.00000000000E+00  0.00000000000E+00  0.55577851740E+01  0.57010416627E+01  0.12700000000E+01 0. -1.
         -4   -1    0    0    0  501 -0.00000000000E+00 -0.00000000000E+00 -0.69384375096E+03  0.69384491325E+03  0.12700000000E+01 0. -1.
         25    2    1    2    0    0  0.00000000000E+00  0.00000000000E+00 -0.68828596579E+03  0.69954595492E+03  0.12500788911E+03 0.  0.
    9000005    1    3    3    0    0 -0.33405118529E+02  0.30486738033E+01 -0.63922580410E+03  0.64010610448E+03  0.10000000000E+01 0.  0.
    9000005    1    3    3    0    0  0.33405118529E+02 -0.30486738033E+01 -0.49060161684E+02  0.59439850440E+02  0.10000000000E+01 0.  0.
<mgrwt>
<rscale>  0 0.12500789E+03</rscale>
<asrwt>0</asrwt>
<pdfrwt beam="1">  1        4 0.86615356E-03 0.12500789E+03</pdfrwt>
<pdfrwt beam="2">  1       -4 0.10675623E+00 0.12500789E+03</pdfrwt>
<totfact> 0.43103251E+03</totfact>
</mgrwt>
</event>
<event>
 4    1  0.3486589E-002  0.1250825E+03  0.7818608E-02  0.1234940E+00
         -4   -1    0    0    0  501 -0.00000000000E+00  0.00000000000E+00  0.38830238331E+02  0.38851001388E+02  0.12700000000E+01 0.  1.
          4   -1    0    0  501    0  0.00000000000E+00 -0.00000000000E+00 -0.10067936153E+03  0.10068737129E+03  0.12700000000E+01 0.  1.
    9000005    1    1    2    0    0  0.61343394611E+01 -0.52741061657E+02  0.59257688653E+01  0.53435610242E+02  0.10000000000E+01 0.  0.
    9000005    1    1    2    0    0 -0.61343394611E+01  0.52741061657E+02 -0.67774892060E+02  0.86102762436E+02  0.10000000000E+01 0.  0.
<mgrwt>
<rscale>  0 0.12508255E+03</rscale>
<asrwt>0</asrwt>
<pdfrwt beam="2">  1        4 0.15491346E-01 0.12508255E+03</pdfrwt>
<pdfrwt beam="1">  1       -4 0.59760962E-02 0.12508255E+03</pdfrwt>
<totfact> 0.10124321E+04</totfact>
</mgrwt>
</event>
<event>
 5    1  0.3486589E-002  0.1249999E+03  0.7818608E-02  0.1235070E+00
          4   -1    0    0  501    0  0.00000000000E+00  0.00000000000E+00  0.48690438504E+03  0.48690604132E+03  0.12700000000E+01 0. -1.
         -4   -1    0    0    0  501 -0.00000000000E+00 -0.00000000000E+00 -0.79706615660E+01  0.80712047303E+01  0.12700000000E+01 0. -1.
         25    2    1    2    0    0  0.00000000000E+00  0.00000000000E+00  0.47893372347E+03  0.49497724605E+03  0.12499985050E+03 0.  0.
    9000005    1    3    3    0    0  0.23290776938E+02 -0.26610434908E+01  0.10080678896E+02  0.25537453472E+02  0.10000000000E+01 0.  0.
    9000005    1    3    3    0    0 -0.23290776938E+02  0.26610434908E+01  0.46885304458E+03  0.46943979258E+03  0.10000000000E+01 0.  0.
<mgrwt>
<rscale>  0 0.12499985E+03</rscale>
<asrwt>0</asrwt>
<pdfrwt beam="1">  1        4 0.74916248E-01 0.12499985E+03</pdfrwt>
<pdfrwt beam="2">  1       -4 0.12341168E-02 0.12499985E+03</pdfrwt>
<totfact> 0.56256360E+03</totfact>
</mgrwt>
</event>
<event>
 5    1  0.3486589E-002  0.1250289E+03  0.7818608E-02  0.1235024E+00
          4   -1    0    0  501    0  0.00000000000E+00  0.00000000000E+00  0.70257632518E+02  0.70269110049E+02  0.12700000000E+01 0. -1.
         -4   -1    0    0    0  501 -0.00000000000E+00 -0.00000000000E+00 -0.55601385912E+02  0.55615888155E+02  0.12700000000E+01 0. -1.
         25    2    1    2    0    0  0.00000000000E+00  0.00000000000E+00  0.14656246606E+02  0.12588499820E+03  0.12502890549E+03 0.  0.
    9000005    1    3    3    0    0 -0.10761819025E+02  0.11425471483E+02  0.68246109547E+02  0.70034917118E+02  0.10000000000E+01 0.  0.
    9000005    1    3    3    0    0  0.10761819025E+02 -0.11425471483E+02 -0.53589862941E+02  0.55850081086E+02  0.10000000000E+01 0.  0.
<mgrwt>
<rscale>  0 0.12502891E+03</rscale>
<asrwt>0</asrwt>
<pdfrwt beam="1">  1        4 0.10810865E-01 0.12502891E+03</pdfrwt>
<pdfrwt beam="2">  1       -4 0.85560578E-02 0.12502891E+03</pdfrwt>
<totfact> 0.10426677E+04</totfact>
</mgrwt>
</event>
<event>
 5    1  0.3486589E-002  0.1249992E+03  0.7818608E-02  0.1235071E+00
         -4   -1    0    0    0  501 -0.00000000000E+00  0.00000000000E+00  0.17149499279E+03  0.17149969520E+03  0.12700000000E+01 0.  1.
          4   -1    0    0  501    0  0.00000000000E+00 -0.00000000000E+00 -0.22754619616E+02  0.22790033214E+02  0.12700000000E+01 0.  1.
         25    2    1    2    0    0  0.00000000000E+00  0.00000000000E+00  0.14874037318E+03  0.19428972841E+03  0.12499919981E+03 0.  0.
    9000005    1    3    3    0    0  0.23643013959E+02 -0.44129294043E+02  0.16237220442E+02  0.52640611978E+02  0.10000000000E+01 0.  0.
    9000005    1    3    3    0    0 -0.23643013959E+02  0.44129294043E+02  0.13250315274E+03  0.14164911643E+03  0.10000000000E+01 0.  0.
<mgrwt>
<rscale>  0 0.12499920E+03</rscale>
<asrwt>0</asrwt>
<pdfrwt beam="2">  1        4 0.35037965E-02 0.12499920E+03</pdfrwt>
<pdfrwt beam="1">  1       -4 0.26386931E-01 0.12499920E+03</pdfrwt>
<totfact> 0.91107859E+03</totfact>
</mgrwt>
</event>
<event>
 5    1  0.3486589E-002  0.1250327E+03  0.7818608E-02  0.1235018E+00
          4   -1    0    0  501    0  0.00000000000E+00  0.00000000000E+00  0.25723626184E+02  0.25754957660E+02  0.12700000000E+01 0.  1.
         -4   -1    0    0    0  501 -0.00000000000E+00 -0.00000000000E+00 -0.15180758330E+03  0.15181289553E+03  0.12700000000E+01 0.  1.
         25    2    1    2    0    0  0.00000000000E+00  0.00000000000E+00 -0.12608395712E+03  0.17756785319E+03  0.12503270869E+03 0.  0.
    9000005    1    3    3    0    0  0.70845422848E+01 -0.60369573478E+02 -0.42333835961E+02  0.74079888016E+02  0.10000000000E+01 0.  0.
    9000005    1    3    3    0    0 -0.70845422848E+01  0.60369573478E+02 -0.83750121156E+02  0.10348796517E+03  0.10000000000E+01 0.  0.
<mgrwt>
<rscale>  0 0.12503271E+03</rscale>
<asrwt>0</asrwt>
<pdfrwt beam="1">  1        4 0.39602998E-02 0.12503271E+03</pdfrwt>
<pdfrwt beam="2">  1       -4 0.23357831E-01 0.12503271E+03</pdfrwt>
<totfact> 0.93987675E+03</totfact>
</mgrwt>
</event>
<event>
 5    1  0.3486589E-002  0.1250055E+03  0.7818608E-02  0.1235061E+00
         -4   -1    0    0    0  501 -0.00000000000E+00  0.00000000000E+00  0.51008071970E+02  0.51023879764E+02  0.12700000000E+01 0. -1.
          4   -1    0    0  501    0  0.00000000000E+00 -0.00000000000E+00 -0.76554814112E+02  0.76565347669E+02  0.12700000000E+01 0. -1.
         25    2    1    2    0    0  0.00000000000E+00  0.00000000000E+00 -0.25546742141E+02  0.12758922743E+03  0.12500549957E+03 0.  0.
    9000005    1    3    3    0    0  0.16789989706E+02  0.57637717281E+02 -0.30498471021E+02  0.67343648121E+02  0.10000000000E+01 0.  0.
    9000005    1    3    3    0    0 -0.16789989706E+02 -0.57637717281E+02  0.49517288792E+01  0.60245579312E+02  0.10000000000E+01 0.  0.
<mgrwt>
<rscale>  0 0.12500550E+03</rscale>
<asrwt>0</asrwt>
<pdfrwt beam="2">  1        4 0.11779690E-01 0.12500550E+03</pdfrwt>
<pdfrwt beam="1">  1       -4 0.78494219E-02 0.12500550E+03</pdfrwt>
<totfact> 0.10395078E+04</totfact>
</mgrwt>
</event>
<event>
 5    1  0.3486589E-002  0.1250004E+03  0.7818608E-02  0.1235069E+00
         -4   -1    0    0    0  501 -0.00000000000E+00  0.00000000000E+00  0.65371194919E+01  0.66593416530E+01  0.12700000000E+01 0. -1.
          4   -1    0    0  501    0  0.00000000000E+00 -0.00000000000E+00 -0.59189548042E+03  0.59189684290E+03  0.12700000000E+01 0. -1.
         25    2    1    2    0    0  0.00000000000E+00  0.00000000000E+00 -0.58535836092E+03  0.59855618455E+03  0.12500038146E+03 0.  0.
    9000005    1    3    3    0    0 -0.21010057399E+02 -0.81744153197E+01 -0.57176854841E+03  0.57221369830E+03  0.10000000000E+01 0.  0.
    9000005    1    3    3    0    0  0.21010057399E+02  0.81744153197E+01 -0.13589812518E+02  0.26342486253E+02  0.10000000000E+01 0.  0.
<mgrwt>
<rscale>  0 0.12500038E+03</rscale>
<asrwt>0</asrwt>
<pdfrwt beam="2">  1        4 0.91070308E-01 0.12500038E+03</pdfrwt>
<pdfrwt beam="1">  1       -4 0.10152177E-02 0.12500038E+03</pdfrwt>
<totfact> 0.48958482E+03</totfact>
</mgrwt>
</event>
<event>
 5    1  0.3486589E-002  0.1249984E+03  0.7818608E-02  0.1235072E+00
         -4   -1    0    0    0  501 -0.00000000000E+00  0.00000000000E+00  0.16481243784E+03  0.16481733090E+03  0.12700000000E+01 0. -1.
          4   -1    0    0  501    0  0.00000000000E+00 -0.00000000000E+00 -0.23678326201E+02  0.23712360314E+02  0.12700000000E+01 0. -1.
         25    2    1    2    0    0  0.00000000000E+00  0.00000000000E+00  0.14113411164E+03  0.18852969122E+03  0.12499842800E+03 0.  0.
    9000005    1    3    3    0    0  0.42429540520E+01 -0.57496949048E+02  0.10692980130E+03  0.12148614824E+03  0.10000000000E+01 0.  0.
    9000005    1    3    3    0    0 -0.42429540520E+01  0.57496949048E+02  0.34204310339E+02  0.67043542976E+02  0.10000000000E+01 0.  0.
<mgrwt>
<rscale>  0 0.12499843E+03</rscale>
<asrwt>0</asrwt>
<pdfrwt beam="2">  1        4 0.36458137E-02 0.12499843E+03</pdfrwt>
<pdfrwt beam="1">  1       -4 0.25358755E-01 0.12499843E+03</pdfrwt>
<totfact> 0.92107017E+03</totfact>
</mgrwt>
</event>
<event>
 5    1  0.3486589E-002  0.1249998E+03  0.7818608E-02  0.1235070E+00
          4   -1    0    0  501    0  0.00000000000E+00  0.00000000000E+00  0.23848910904E+02  0.23882701926E+02  0.12700000000E+01 0.  1.
         -4   -1    0    0    0  501 -0.00000000000E+00 -0.00000000000E+00 -0.16363881874E+03  0.16364374690E+03  0.12700000000E+01 0.  1.
         25    2    1    2    0    0  0.00000000000E+00  0.00000000000E+00 -0.13978990784E+03  0.18752644883E+03  0.12499980270E+03 0.  0.
    9000005    1    3    3    0    0  0.12751473496E+02  0.51128102554E+02 -0.12029309444E+03  0.13133206584E+03  0.10000000000E+01 0.  0.
    9000005    1    3    3    0    0 -0.12751473496E+02 -0.51128102554E+02 -0.19496813401E+02  0.56194382992E+02  0.10000000000E+01 0.  0.
<mgrwt>
<rscale>  0 0.12499980E+03</rscale>
<asrwt>0</asrwt>
<pdfrwt beam="1">  1        4 0.36720417E-02 0.12499980E+03</pdfrwt>
<pdfrwt beam="2">  1       -4 0.25178181E-01 0.12499980E+03</pdfrwt>
<totfact> 0.92279902E+03</totfact>
</mgrwt>
</event>
<event>
 5    1  0.3486589E-002  0.1249978E+03  0.7818608E-02  0.1235073E+00
         -4   -1    0    0    0  501 -0.00000000000E+00  0.00000000000E+00  0.11351250457E+02  0.11422074546E+02  0.12700000000E+01 0. -1.
          4   -1    0    0  501    0  0.00000000000E+00 -0.00000000000E+00 -0.34297061825E+03  0.34297296961E+03  0.12700000000E+01 0. -1.
         25    2    1    2    0    0  0.00000000000E+00  0.00000000000E+00 -0.33161936779E+03  0.35439504415E+03  0.12499776889E+03 0.  0.
    9000005    1    3    3    0    0  0.10747478117E+02  0.17186506370E+02  0.17852517477E+01  0.20373301423E+02  0.10000000000E+01 0.  0.
    9000005    1    3    3    0    0 -0.10747478117E+02 -0.17186506370E+02 -0.33340461954E+03  0.33402174273E+03  0.10000000000E+01 0.  0.
<mgrwt>
<rscale>  0 0.12499777E+03</rscale>
<asrwt>0</asrwt>
<pdfrwt beam="2">  1        4 0.52770332E-01 0.12499777E+03</pdfrwt>
<pdfrwt beam="1">  1       -4 0.17519754E-02 0.12499777E+03</pdfrwt>
<totfact> 0.69247160E+03</totfact>
</mgrwt>
</event>
<event>
 5    1  0.3486589E-002  0.1249994E+03  0.7818608E-02  0.1235070E+00
         -4   -1    0    0    0  501 -0.00000000000E+00  0.00000000000E+00  0.64996745228E+02  0.65009151588E+02  0.12700000000E+01 0. -1.
          4   -1    0    0  501    0  0.00000000000E+00 -0.00000000000E+00 -0.60073746784E+02  0.60087169618E+02  0.12700000000E+01 0. -1.
         25    2    1    2    0    0  0.00000000000E+00  0.00000000000E+00  0.49229984436E+01  0.12509632121E+03  0.12499941466E+03 0.  0.
    9000005    1    3    3    0    0  0.25174036689E+02  0.53054418704E+02 -0.18925841846E+02  0.61706490394E+02  0.10000000000E+01 0.  0.
    9000005    1    3    3    0    0 -0.25174036689E+02 -0.53054418704E+02  0.23848840289E+02  0.63389830812E+02  0.10000000000E+01 0.  0.
<mgrwt>
<rscale>  0 0.12499941E+03</rscale>
<asrwt>0</asrwt>
<pdfrwt beam="2">  1        4 0.92441018E-02 0.12499941E+03</pdfrwt>
<pdfrwt beam="1">  1       -4 0.10001486E-01 0.12499941E+03</pdfrwt>
<totfact> 0.10450909E+04</totfact>
</mgrwt>
</event>
<event>
 5    1  0.3486589E-002  0.1249966E+03  0.7818608E-02  0.1235075E+00
          4   -1    0    0  501    0  0.00000000000E+00  0.00000000000E+00  0.10213254790E+02  0.10291913010E+02  0.12700000000E+01 0.  1.
         -4   -1    0    0    0  501 -0.00000000000E+00 -0.00000000000E+00 -0.38090121174E+03  0.38090332895E+03  0.12700000000E+01 0.  1.
         25    2    1    2    0    0  0.00000000000E+00  0.00000000000E+00 -0.37068795695E+03  0.39119524196E+03  0.12499662357E+03 0.  0.
    9000005    1    3    3    0    0 -0.50023779109E+02  0.37431132114E+02 -0.18926647340E+03  0.19931449040E+03  0.10000000000E+01 0.  0.
    9000005    1    3    3    0    0  0.50023779109E+02 -0.37431132114E+02 -0.18142148354E+03  0.19188075156E+03  0.10000000000E+01 0.  0.
<mgrwt>
<rscale>  0 0.12499662E+03</rscale>
<asrwt>0</asrwt>
<pdfrwt beam="1">  1        4 0.15774838E-02 0.12499662E+03</pdfrwt>
<pdfrwt beam="2">  1       -4 0.58606389E-01 0.12499662E+03</pdfrwt>
<totfact> 0.65423117E+03</totfact>
</mgrwt>
</event>
<event>
 5    1  0.3486589E-002  0.1249999E+03  0.7818608E-02  0.1235069E+00
          4   -1    0    0  501    0  0.00000000000E+00  0.00000000000E+00  0.52758197035E+03  0.52758349892E+03  0.12700000000E+01 0. -1.
         -4   -1    0    0    0  501 -0.00000000000E+00 -0.00000000000E+00 -0.73480421382E+01  0.74569848642E+01  0.12700000000E+01 0. -1.
         25    2    1    2    0    0  0.00000000000E+00  0.00000000000E+00  0.52023392821E+03  0.53504048379E+03  0.12499991692E+03 0.  0.
    9000005    1    3    3    0    0 -0.41054597055E+02  0.46589522603E+02  0.29013461552E+03  0.29670719351E+03  0.10000000000E+01 0.  0.
    9000005    1    3    3    0    0  0.41054597055E+02 -0.46589522603E+02  0.23009931268E+03  0.23833329028E+03  0.10000000000E+01 0.  0.
<mgrwt>
<rscale>  0 0.12499992E+03</rscale>
<asrwt>0</asrwt>
<pdfrwt beam="1">  1        4 0.81174995E-01 0.12499992E+03</pdfrwt>
<pdfrwt beam="2">  1       -4 0.11389652E-02 0.12499992E+03</pdfrwt>
<totfact> 0.53244666E+03</totfact>
</mgrwt>
</event>
<event>
 5    1  0.3486589E-002  0.1249992E+03  0.7818608E-02  0.1235071E+00
         -4   -1    0    0    0  501 -0.00000000000E+00  0.00000000000E+00  0.48170538111E+01  0.49816570957E+01  0.12700000000E+01 0. -1.
          4   -1    0    0  501    0  0.00000000000E+00 -0.00000000000E+00 -0.79712321191E+03  0.79712422361E+03  0.12700000000E+01 0. -1.
         25    2    1    2    0    0  0.00000000000E+00  0.00000000000E+00 -0.79230615810E+03  0.80210588070E+03  0.12499918280E+03 0.  0.
    9000005    1    3    3    0    0  0.21071250793E+02  0.19039833082E+02 -0.75335461417E+03  0.75389036839E+03  0.10000000000E+01 0.  0.
    9000005    1    3    3    0    0 -0.21071250793E+02 -0.19039833082E+02 -0.38951543927E+02  0.48215512318E+02  0.10000000000E+01 0.  0.
<mgrwt>
<rscale>  0 0.12499918E+03</rscale>
<asrwt>0</asrwt>
<pdfrwt beam="2">  1        4 0.12264698E+00 0.12499918E+03</pdfrwt>
<pdfrwt beam="1">  1       -4 0.75382545E-03 0.12499918E+03</pdfrwt>
<totfact> 0.38171595E+03</totfact>
</mgrwt>
</event>
<event>
 5    1  0.3486589E-002  0.1249982E+03  0.7818608E-02  0.1235072E+00
          4   -1    0    0  501    0  0.00000000000E+00  0.00000000000E+00  0.20800106186E+02  0.20838841555E+02  0.12700000000E+01 0. -1.
         -4   -1    0    0    0  501 -0.00000000000E+00 -0.00000000000E+00 -0.18757855847E+03  0.18758285769E+03  0.12700000000E+01 0. -1.
         25    2    1    2    0    0  0.00000000000E+00  0.00000000000E+00 -0.16677845228E+03  0.20842169924E+03  0.12499821026E+03 0.  0.
    9000005    1    3    3    0    0 -0.38226517705E+02 -0.30548955981E+02 -0.18582722882E+02  0.52352869617E+02  0.10000000000E+01 0.  0.
    9000005    1    3    3    0    0  0.38226517705E+02  0.30548955981E+02 -0.14819572940E+03  0.15606882962E+03  0.10000000000E+01 0.  0.
<mgrwt>
<rscale>  0 0.12499821E+03</rscale>
<asrwt>0</asrwt>
<pdfrwt beam="1">  1        4 0.32033268E-02 0.12499821E+03</pdfrwt>
<pdfrwt beam="2">  1       -4 0.28861549E-01 0.12499821E+03</pdfrwt>
<totfact> 0.88737840E+03</totfact>
</mgrwt>
</event>
<event>
 5    1  0.3486589E-002  0.1249996E+03  0.7818608E-02  0.1235070E+00
         -4   -1    0    0    0  501 -0.00000000000E+00  0.00000000000E+00  0.67052096524E+01  0.68244220622E+01  0.12700000000E+01 0.  1.
          4   -1    0    0  501    0  0.00000000000E+00 -0.00000000000E+00 -0.57731271140E+03  0.57731410830E+03  0.12700000000E+01 0.  1.
         25    2    1    2    0    0  0.00000000000E+00  0.00000000000E+00 -0.57060750175E+03  0.58413853037E+03  0.12499960642E+03 0.  0.
    9000005    1    3    3    0    0  0.24499407201E+02  0.30895615307E+02 -0.58743279466E+02  0.70756857483E+02  0.10000000000E+01 0.  0.
    9000005    1    3    3    0    0 -0.24499407201E+02 -0.30895615307E+02 -0.51186422228E+03  0.51338167288E+03  0.10000000000E+01 0.  0.
<mgrwt>
<rscale>  0 0.12499961E+03</rscale>
<asrwt>0</asrwt>
<pdfrwt beam="2">  1        4 0.88826579E-01 0.12499961E+03</pdfrwt>
<pdfrwt beam="1">  1       -4 0.10408488E-02 0.12499961E+03</pdfrwt>
<totfact> 0.49884833E+03</totfact>
</mgrwt>
</event>
<event>
 5    1  0.3486589E-002  0.1250072E+03  0.7818608E-02  0.1235058E+00
          4   -1    0    0  501    0  0.00000000000E+00  0.00000000000E+00  0.78204883816E+02  0.78215195152E+02  0.12700000000E+01 0. -1.
         -4   -1    0    0    0  501 -0.00000000000E+00 -0.00000000000E+00 -0.49933017497E+02  0.49949165522E+02  0.12700000000E+01 0. -1.
         25    2    1    2    0    0  0.00000000000E+00  0.00000000000E+00  0.28271866319E+02  0.12816436067E+03  0.12500721948E+03 0.  0.
    9000005    1    3    3    0    0 -0.20658546095E+02  0.58240050932E+02  0.45717664538E+01  0.61972414088E+02  0.10000000000E+01 0.  0.
    9000005    1    3    3    0    0  0.20658546095E+02 -0.58240050932E+02  0.23700099865E+02  0.66191946587E+02  0.10000000000E+01 0.  0.
<mgrwt>
<rscale>  0 0.12500722E+03</rscale>
<asrwt>0</asrwt>
<pdfrwt beam="1">  1        4 0.12033556E-01 0.12500722E+03</pdfrwt>
<pdfrwt beam="2">  1       -4 0.76840380E-02 0.12500722E+03</pdfrwt>
<totfact> 0.10382247E+04</totfact>
</mgrwt>
</event>
<event>
 5    1  0.3486589E-002  0.1250060E+03  0.7818608E-02  0.1235060E+00
         -4   -1    0    0    0  501 -0.00000000000E+00  0.00000000000E+00  0.34820026007E+03  0.34820257612E+03  0.12700000000E+01 0. -1.
          4   -1    0    0  501    0  0.00000000000E+00 -0.00000000000E+00 -0.11181173298E+02  0.11253067863E+02  0.12700000000E+01 0. -1.
         25    2    1    2    0    0  0.00000000000E+00  0.00000000000E+00  0.33701908677E+03  0.35945564398E+03  0.12500598041E+03 0.  0.
    9000005    1    3    3    0    0  0.54456314520E+02 -0.28785323278E+01  0.25628780436E+03  0.26202712608E+03  0.10000000000E+01 0.  0.
    9000005    1    3    3    0    0 -0.54456314520E+02  0.28785323278E+01  0.80731282415E+02  0.97428517898E+02  0.10000000000E+01 0.  0.
<mgrwt>
<rscale>  0 0.12500598E+03</rscale>
<asrwt>0</asrwt>
<pdfrwt beam="2">  1        4 0.17258891E-02 0.12500598E+03</pdfrwt>
<pdfrwt beam="1">  1       -4 0.53574976E-01 0.12500598E+03</pdfrwt>
<totfact> 0.68687608E+03</totfact>
</mgrwt>
</event>
<event>
 5    1  0.3486589E-002  0.1250034E+03  0.7818608E-02  0.1235064E+00
          4   -1    0    0  501    0  0.00000000000E+00  0.00000000000E+00  0.40407417177E+03  0.40407616756E+03  0.12700000000E+01 0.  1.
         -4   -1    0    0    0  501 -0.00000000000E+00 -0.00000000000E+00 -0.96239449376E+01  0.97073794694E+01  0.12700000000E+01 0.  1.
         25    2    1    2    0    0  0.00000000000E+00  0.00000000000E+00  0.39445022683E+03  0.41378354703E+03  0.12500336934E+03 0.  0.
    9000005    1    3    3    0    0  0.35022617094E+02  0.28057907851E+02  0.53255885966E+02  0.69649259085E+02  0.10000000000E+01 0.  0.
    9000005    1    3    3    0    0 -0.35022617094E+02 -0.28057907851E+02  0.34119434087E+03  0.34413428795E+03  0.10000000000E+01 0.  0.
<mgrwt>
<rscale>  0 0.12500337E+03</rscale>
<asrwt>0</asrwt>
<pdfrwt beam="1">  1        4 0.62171827E-01 0.12500337E+03</pdfrwt>
<pdfrwt beam="2">  1       -4 0.14871785E-02 0.12500337E+03</pdfrwt>
<totfact> 0.63229236E+03</totfact>
</mgrwt>
</event>
<event>
 5    1  0.3486589E-002  0.1249981E+03  0.7818608E-02  0.1235072E+00
          4   -1    0    0  501    0  0.00000000000E+00  0.00000000000E+00  0.26656269445E+02  0.26686505967E+02  0.12700000000E+01 0. -1.
         -4   -1    0    0    0  501 -0.00000000000E+00 -0.00000000000E+00 -0.14642103116E+03  0.14642653881E+03  0.12700000000E+01 0. -1.
         25    2    1    2    0    0  0.00000000000E+00  0.00000000000E+00 -0.11976476172E+03  0.17311304477E+03  0.12499811247E+03 0.  0.
    9000005    1    3    3    0    0 -0.62892171734E+01  0.37600646134E+02 -0.12845743061E+03  0.13399878478E+03  0.10000000000E+01 0.  0.
    9000005    1    3    3    0    0  0.62892171734E+01 -0.37600646134E+02  0.86926688962E+01  0.39114259994E+02  0.10000000000E+01 0.  0.
<mgrwt>
<rscale>  0 0.12499811E+03</rscale>
<asrwt>0</asrwt>
<pdfrwt beam="1">  1        4 0.41037142E-02 0.12499811E+03</pdfrwt>
<pdfrwt beam="2">  1       -4 0.22529062E-01 0.12499811E+03</pdfrwt>
<totfact> 0.94875591E+03</totfact>
</mgrwt>
</event>
<event>
 5    1  0.3486589E-002  0.1249963E+03  0.7818608E-02  0.1235075E+00
         -4   -1    0    0    0  501 -0.00000000000E+00  0.00000000000E+00  0.13040169618E+03  0.13040788038E+03  0.12700000000E+01 0. -1.
          4   -1    0    0  501    0  0.00000000000E+00 -0.00000000000E+00 -0.29933381430E+02  0.29960310810E+02  0.12700000000E+01 0. -1.
         25    2    1    2    0    0  0.00000000000E+00  0.00000000000E+00  0.10046831475E+03  0.16036819119E+03  0.12499629786E+03 0.  0.
    9000005    1    3    3    0    0 -0.17747296431E+02  0.53833385640E+02  0.16483674615E+02  0.59039914201E+02  0.10000000000E+01 0.  0.
    9000005    1    3    3    0    0  0.17747296431E+02 -0.53833385640E+02  0.83984640132E+02  0.10132827699E+03  0.10000000000E+01 0.  0.
<mgrwt>
<rscale>  0 0.12499630E+03</rscale>
<asrwt>0</asrwt>
<pdfrwt beam="2">  1        4 0.46076828E-02 0.12499630E+03</pdfrwt>
<pdfrwt beam="1">  1       -4 0.20064347E-01 0.12499630E+03</pdfrwt>
<totfact> 0.97279942E+03</totfact>
</mgrwt>
</event>
<event>
 5    1  0.3486589E-002  0.1249601E+03  0.7818608E-02  0.1235132E+00
          4   -1    0    0  501    0  0.00000000000E+00  0.00000000000E+00  0.53923513492E+02  0.53938466862E+02  0.12700000000E+01 0. -1.
         -4   -1    0    0    0  501 -0.00000000000E+00 -0.00000000000E+00 -0.72363710214E+02  0.72374853754E+02  0.12700000000E+01 0. -1.
         25    2    1    2    0    0  0.00000000000E+00  0.00000000000E+00 -0.18440196721E+02  0.12631332062E+03  0.12496005006E+03 0.  0.
    9000005    1    3    3    0    0 -0.35538506018E+01 -0.61676901496E+02 -0.18598696080E+02  0.64525820631E+02  0.10000000000E+01 0.  0.
    9000005    1    3    3    0    0  0.35538506018E+01  0.61676901496E+02  0.15849935819E+00  0.61787499984E+02  0.10000000000E+01 0.  0.
<mgrwt>
<rscale>  0 0.12496005E+03</rscale>
<asrwt>0</asrwt>
<pdfrwt beam="1">  1        4 0.82979326E-02 0.12496005E+03</pdfrwt>
<pdfrwt beam="2">  1       -4 0.11134886E-01 0.12496005E+03</pdfrwt>
<totfact> 0.10433507E+04</totfact>
</mgrwt>
</event>
<event>
 4    1  0.3486589E-002  0.1249000E+03  0.7818608E-02  0.1235226E+00
         -4   -1    0    0    0  501 -0.00000000000E+00  0.00000000000E+00  0.13954293662E+02  0.14011966729E+02  0.12700000000E+01 0.  1.
          4   -1    0    0  501    0  0.00000000000E+00 -0.00000000000E+00 -0.27884869993E+03  0.27885159199E+03  0.12700000000E+01 0.  1.
    9000005    1    1    2    0    0 -0.49627910999E+02  0.66428257616E+01 -0.21992830636E+03  0.22555823333E+03  0.10000000000E+01 0.  0.
    9000005    1    1    2    0    0  0.49627910999E+02 -0.66428257616E+01 -0.44966099908E+02  0.67305325385E+02  0.10000000000E+01 0.  0.
<mgrwt>
<rscale>  0 0.12490003E+03</rscale>
<asrwt>0</asrwt>
<pdfrwt beam="2">  1        4 0.42904455E-01 0.12490003E+03</pdfrwt>
<pdfrwt beam="1">  1       -4 0.21514735E-02 0.12490003E+03</pdfrwt>
<totfact> 0.76672937E+03</totfact>
</mgrwt>
</event>
<event>
 5    1  0.3486589E-002  0.1250018E+03  0.7818608E-02  0.1235067E+00
         -4   -1    0    0    0  501 -0.00000000000E+00  0.00000000000E+00  0.24360152131E+03  0.24360483182E+03  0.12700000000E+01 0.  1.
          4   -1    0    0  501    0  0.00000000000E+00 -0.00000000000E+00 -0.16007288818E+02  0.16057589959E+02  0.12700000000E+01 0.  1.
         25    2    1    2    0    0  0.00000000000E+00  0.00000000000E+00  0.22759423249E+03  0.25966242178E+03  0.12500175446E+03 0.  0.
    9000005    1    3    3    0    0 -0.38855345023E+01  0.62367538907E+02  0.11534097254E+03  0.13118440164E+03  0.10000000000E+01 0.  0.
    9000005    1    3    3    0    0  0.38855345023E+01 -0.62367538907E+02  0.11225325996E+03  0.12847802014E+03  0.10000000000E+01 0.  0.
<mgrwt>
<rscale>  0 0.12500175E+03</rscale>
<asrwt>0</asrwt>
<pdfrwt beam="2">  1        4 0.24667839E-02 0.12500175E+03</pdfrwt>
<pdfrwt beam="1">  1       -4 0.37481280E-01 0.12500175E+03</pdfrwt>
<totfact> 0.80950297E+03</totfact>
</mgrwt>
</event>
<event>
 5    1  0.3486589E-002  0.1250018E+03  0.7818608E-02  0.1235066E+00
         -4   -1    0    0    0  501 -0.00000000000E+00  0.00000000000E+00  0.42337333515E+02  0.42356377432E+02  0.12700000000E+01 0. -1.
          4   -1    0    0  501    0  0.00000000000E+00 -0.00000000000E+00 -0.92223450336E+02  0.92232194444E+02  0.12700000000E+01 0. -1.
         25    2    1    2    0    0  0.00000000000E+00  0.00000000000E+00 -0.49886116821E+02  0.13458857188E+03  0.12500183610E+03 0.  0.
    9000005    1    3    3    0    0 -0.56257777788E+01 -0.37151648291E+02  0.28821229993E+02  0.47366207835E+02  0.10000000000E+01 0.  0.
    9000005    1    3    3    0    0  0.56257777788E+01  0.37151648291E+02 -0.78707346814E+02  0.87222364041E+02  0.10000000000E+01 0.  0.
<mgrwt>
<rscale>  0 0.12500184E+03</rscale>
<asrwt>0</asrwt>
<pdfrwt beam="2">  1        4 0.14190361E-01 0.12500184E+03</pdfrwt>
<pdfrwt beam="1">  1       -4 0.65155735E-02 0.12500184E+03</pdfrwt>
<totfact> 0.10246326E+04</totfact>
</mgrwt>
</event>
<event>
 5    1  0.3486589E-002  0.1250019E+03  0.7818608E-02  0.1235066E+00
          4   -1    0    0  501    0  0.00000000000E+00  0.00000000000E+00  0.82440876921E+02  0.82450658502E+02  0.12700000000E+01 0. -1.
         -4   -1    0    0    0  501 -0.00000000000E+00 -0.00000000000E+00 -0.47362804664E+02  0.47379828679E+02  0.12700000000E+01 0. -1.
         25    2    1    2    0    0  0.00000000000E+00  0.00000000000E+00  0.35078072256E+02  0.12983048718E+03  0.12500193698E+03 0.  0.
    9000005    1    3    3    0    0 -0.16682713800E+02 -0.59206200448E+02  0.60818862330E+01  0.61819709247E+02  0.10000000000E+01 0.  0.
    9000005    1    3    3    0    0  0.16682713800E+02  0.59206200448E+02  0.28996186023E+02  0.68010777934E+02  0.10000000000E+01 0.  0.
<mgrwt>
<rscale>  0 0.12500194E+03</rscale>
<asrwt>0</asrwt>
<pdfrwt beam="1">  1        4 0.12685274E-01 0.12500194E+03</pdfrwt>
<pdfrwt beam="2">  1       -4 0.72886473E-02 0.12500194E+03</pdfrwt>
<totfact> 0.10347683E+04</totfact>
</mgrwt>
</event>
<event>
 5    1  0.3486589E-002  0.1249986E+03  0.7818608E-02  0.1235071E+00
          4   -1    0    0  501    0  0.00000000000E+00  0.00000000000E+00  0.10879579464E+02  0.10953453762E+02  0.12700000000E+01 0. -1.
         -4   -1    0    0    0  501 -0.00000000000E+00 -0.00000000000E+00 -0.35774635841E+03  0.35774861265E+03  0.12700000000E+01 0. -1.
         25    2    1    2    0    0  0.00000000000E+00  0.00000000000E+00 -0.34686677894E+03  0.36870206641E+03  0.12499860576E+03 0.  0.
    9000005    1    3    3    0    0  0.31709716609E+02  0.31321029743E+02 -0.30263509970E+03  0.30590115495E+03  0.10000000000E+01 0.  0.
    9000005    1    3    3    0    0 -0.31709716609E+02 -0.31321029743E+02 -0.44231679248E+02  0.62800911464E+02  0.10000000000E+01 0.  0.
<mgrwt>
<rscale>  0 0.12499861E+03</rscale>
<asrwt>0</asrwt>
<pdfrwt beam="1">  1        4 0.16796378E-02 0.12499861E+03</pdfrwt>
<pdfrwt beam="2">  1       -4 0.55043749E-01 0.12499861E+03</pdfrwt>
<totfact> 0.67717035E+03</totfact>
</mgrwt>
</event>
<event>
 5    1  0.3486589E-002  0.1250000E+03  0.7818608E-02  0.1235069E+00
         -4   -1    0    0    0  501 -0.00000000000E+00  0.00000000000E+00  0.15323263167E+04  0.15323268430E+04  0.12700000000E+01 0. -1.
          4   -1    0    0  501    0  0.00000000000E+00 -0.00000000000E+00 -0.23904958615E+01  0.27069116099E+01  0.12700000000E+01 0. -1.
         25    2    1    2    0    0  0.00000000000E+00  0.00000000000E+00  0.15299358208E+04  0.15350337546E+04  0.12500004752E+03 0.  0.
    9000005    1    3    3    0    0  0.30094778250E+02  0.38667511857E+02  0.12412745609E+04  0.12422416865E+04  0.10000000000E+01 0.  0.
    9000005    1    3    3    0    0 -0.30094778250E+02 -0.38667511857E+02  0.28866125991E+03  0.29279206807E+03  0.10000000000E+01 0.  0.
<mgrwt>
<rscale>  0 0.12500005E+03</rscale>
<asrwt>0</asrwt>
<pdfrwt beam="2">  1        4 0.39214885E-03 0.12500005E+03</pdfrwt>
<pdfrwt beam="1">  1       -4 0.23576683E+00 0.12500005E+03</pdfrwt>
<totfact> 0.17251912E+03</totfact>
</mgrwt>
</event>
<event>
 4    1  0.3486589E-002  0.1248749E+03  0.7818608E-02  0.1235265E+00
          4   -1    0    0  501    0  0.00000000000E+00  0.00000000000E+00  0.50221478984E+01  0.51802383645E+01  0.12700000000E+01 0.  1.
         -4   -1    0    0    0  501 -0.00000000000E+00 -0.00000000000E+00 -0.76406181087E+03  0.76406286635E+03  0.12700000000E+01 0.  1.
    9000005    1    1    2    0    0  0.39834378746E+02  0.19141660411E+02 -0.10789777147E+03  0.11660235839E+03  0.10000000000E+01 0.  0.
    9000005    1    1    2    0    0 -0.39834378746E+02 -0.19141660411E+02 -0.65114189150E+03  0.65264074632E+03  0.10000000000E+01 0.  0.
<mgrwt>
<rscale>  0 0.12487491E+03</rscale>
<asrwt>0</asrwt>
<pdfrwt beam="1">  1        4 0.78488074E-03 0.12487491E+03</pdfrwt>
<pdfrwt beam="2">  1       -4 0.11756012E+00 0.12487491E+03</pdfrwt>
<totfact> 0.39778890E+03</totfact>
</mgrwt>
</event>
<event>
 5    1  0.3486589E-002  0.1250042E+03  0.7818608E-02  0.1235063E+00
         -4   -1    0    0    0  501 -0.00000000000E+00  0.00000000000E+00  0.17229318611E+02  0.17276062045E+02  0.12700000000E+01 0. -1.
          4   -1    0    0  501    0  0.00000000000E+00 -0.00000000000E+00 -0.22638057173E+03  0.22638413407E+03  0.12700000000E+01 0. -1.
         25    2    1    2    0    0  0.00000000000E+00  0.00000000000E+00 -0.20915125312E+03  0.24366019611E+03  0.12500417788E+03 0.  0.
    9000005    1    3    3    0    0  0.32129856544E+02  0.42083350820E+02 -0.16928770427E+03  0.17737717699E+03  0.10000000000E+01 0.  0.
    9000005    1    3    3    0    0 -0.32129856544E+02 -0.42083350820E+02 -0.39863548847E+02  0.66283019126E+02  0.10000000000E+01 0.  0.
<mgrwt>
<rscale>  0 0.12500418E+03</rscale>
<asrwt>0</asrwt>
<pdfrwt beam="2">  1        4 0.34831648E-01 0.12500418E+03</pdfrwt>
<pdfrwt beam="1">  1       -4 0.26545342E-02 0.12500418E+03</pdfrwt>
<totfact> 0.83247498E+03</totfact>
</mgrwt>
</event>
<event>
 5    1  0.3486589E-002  0.1249987E+03  0.7818608E-02  0.1235071E+00
          4   -1    0    0  501    0  0.00000000000E+00  0.00000000000E+00  0.10294503962E+03  0.10295287311E+03  0.12700000000E+01 0.  1.
         -4   -1    0    0    0  501 -0.00000000000E+00 -0.00000000000E+00 -0.37924313455E+02  0.37945572219E+02  0.12700000000E+01 0.  1.
         25    2    1    2    0    0  0.00000000000E+00  0.00000000000E+00  0.65020726162E+02  0.14089844533E+03  0.12499870826E+03 0.  0.
    9000005    1    3    3    0    0  0.38610873665E+02  0.48526240151E+02  0.41210538899E+02  0.74464112595E+02  0.10000000000E+01 0.  0.
    9000005    1    3    3    0    0 -0.38610873665E+02 -0.48526240151E+02  0.23810187263E+02  0.66434332734E+02  0.10000000000E+01 0.  0.
<mgrwt>
<rscale>  0 0.12499871E+03</rscale>
<asrwt>0</asrwt>
<pdfrwt beam="1">  1        4 0.15839936E-01 0.12499871E+03</pdfrwt>
<pdfrwt beam="2">  1       -4 0.58367477E-02 0.12499871E+03</pdfrwt>
<totfact> 0.10115293E+04</totfact>
</mgrwt>
</event>
<event>
 5    1  0.3486589E-002  0.1250028E+03  0.7818608E-02  0.1235065E+00
          4   -1    0    0  501    0  0.00000000000E+00  0.00000000000E+00  0.30482657015E+02  0.30509101571E+02  0.12700000000E+01 0. -1.
         -4   -1    0    0    0  501 -0.00000000000E+00 -0.00000000000E+00 -0.12806728061E+03  0.12807357754E+03  0.12700000000E+01 0. -1.
         25    2    1    2    0    0  0.00000000000E+00  0.00000000000E+00 -0.97584623600E+02  0.15858267911E+03  0.12500282937E+03 0.  0.
    9000005    1    3    3    0    0  0.55421969244E+02  0.28258387972E+02 -0.41255344429E+02  0.74653429992E+02  0.10000000000E+01 0.  0.
    9000005    1    3    3    0    0 -0.55421969244E+02 -0.28258387972E+02 -0.56329279171E+02  0.83929249119E+02  0.10000000000E+01 0.  0.
<mgrwt>
<rscale>  0 0.12500283E+03</rscale>
<asrwt>0</asrwt>
<pdfrwt beam="1">  1        4 0.46921582E-02 0.12500283E+03</pdfrwt>
<pdfrwt beam="2">  1       -4 0.19705177E-01 0.12500283E+03</pdfrwt>
<totfact> 0.97610522E+03</totfact>
</mgrwt>
</event>
<event>
 5    1  0.3486589E-002  0.1249716E+03  0.7818608E-02  0.1235114E+00
          4   -1    0    0  501    0  0.00000000000E+00  0.00000000000E+00  0.13268875336E+02  0.13329514345E+02  0.12700000000E+01 0.  1.
         -4   -1    0    0    0  501 -0.00000000000E+00 -0.00000000000E+00 -0.29352523352E+03  0.29352798097E+03  0.12700000000E+01 0.  1.
         25    2    1    2    0    0  0.00000000000E+00  0.00000000000E+00 -0.28025635818E+03  0.30685749531E+03  0.12497158128E+03 0.  0.
    9000005    1    3    3    0    0 -0.51393529222E+02 -0.30292050968E+02 -0.94549185858E+02  0.11180094697E+03  0.10000000000E+01 0.  0.
    9000005    1    3    3    0    0  0.51393529222E+02  0.30292050968E+02 -0.18570717232E+03  0.19505654834E+03  0.10000000000E+01 0.  0.
<mgrwt>
<rscale>  0 0.12497158E+03</rscale>
<asrwt>0</asrwt>
<pdfrwt beam="1">  1        4 0.20462415E-02 0.12497158E+03</pdfrwt>
<pdfrwt beam="2">  1       -4 0.45162599E-01 0.12497158E+03</pdfrwt>
<totfact> 0.74793777E+03</totfact>
</mgrwt>
</event>
<event>
 5    1  0.3486589E-002  0.1250027E+03  0.7818608E-02  0.1235065E+00
          4   -1    0    0  501    0  0.00000000000E+00  0.00000000000E+00  0.11425108401E+04  0.11425115460E+04  0.12700000000E+01 0. -1.
         -4   -1    0    0    0  501 -0.00000000000E+00 -0.00000000000E+00 -0.33004893176E+01  0.35364006752E+01  0.12700000000E+01 0. -1.
         25    2    1    2    0    0  0.00000000000E+00  0.00000000000E+00  0.11392103508E+04  0.11460479467E+04  0.12500269058E+03 0.  0.
    9000005    1    3    3    0    0  0.52974539551E+02  0.10403181522E+01  0.87340766774E+03  0.87501390742E+03  0.10000000000E+01 0.  0.
    9000005    1    3    3    0    0 -0.52974539551E+02 -0.10403181522E+01  0.26580268307E+03  0.27103403925E+03  0.10000000000E+01 0.  0.
<mgrwt>
<rscale>  0 0.12500269E+03</rscale>
<asrwt>0</asrwt>
<pdfrwt beam="1">  1        4 0.17578935E+00 0.12500269E+03</pdfrwt>
<pdfrwt beam="2">  1       -4 0.52596816E-03 0.12500269E+03</pdfrwt>
<totfact> 0.26168560E+03</totfact>
</mgrwt>
</event>
<event>
 5    1  0.3486589E-002  0.1250019E+03  0.7818608E-02  0.1235066E+00
          4   -1    0    0  501    0  0.00000000000E+00  0.00000000000E+00  0.86690107728E+02  0.86699409905E+02  0.12700000000E+01 0.  1.
         -4   -1    0    0    0  501 -0.00000000000E+00 -0.00000000000E+00 -0.45040638737E+02  0.45058540121E+02  0.12700000000E+01 0.  1.
         25    2    1    2    0    0  0.00000000000E+00  0.00000000000E+00  0.41649468991E+02  0.13175795003E+03  0.12500191650E+03 0.  0.
    9000005    1    3    3    0    0 -0.42404416650E+02 -0.40141112065E+02 -0.26482737283E+01  0.58459017978E+02  0.10000000000E+01 0.  0.
    9000005    1    3    3    0    0  0.42404416650E+02  0.40141112065E+02  0.44297742719E+02  0.73298932047E+02  0.10000000000E+01 0.  0.
<mgrwt>
<rscale>  0 0.12500192E+03</rscale>
<asrwt>0</asrwt>
<pdfrwt beam="1">  1        4 0.13339032E-01 0.12500192E+03</pdfrwt>
<pdfrwt beam="2">  1       -4 0.69314217E-02 0.12500192E+03</pdfrwt>
<totfact> 0.10306422E+04</totfact>
</mgrwt>
</event>
<event>
 5    1  0.3486589E-002  0.1250004E+03  0.7818608E-02  0.1235069E+00
          4   -1    0    0  501    0  0.00000000000E+00  0.00000000000E+00  0.20314495391E+03  0.20314892369E+03  0.12700000000E+01 0.  1.
         -4   -1    0    0    0  501 -0.00000000000E+00 -0.00000000000E+00 -0.19203872546E+02  0.19245820865E+02  0.12700000000E+01 0.  1.
         25    2    1    2    0    0  0.00000000000E+00  0.00000000000E+00  0.18394108136E+03  0.22239474456E+03  0.12500040398E+03 0.  0.
    9000005    1    3    3    0    0  0.53603653636E+02  0.17273787811E+02  0.14015699277E+03  0.15105203755E+03  0.10000000000E+01 0.  0.
    9000005    1    3    3    0    0 -0.53603653636E+02 -0.17273787811E+02  0.43784088596E+02  0.71342707003E+02  0.10000000000E+01 0.  0.
<mgrwt>
<rscale>  0 0.12500040E+03</rscale>
<asrwt>0</asrwt>
<pdfrwt beam="1">  1        4 0.31256602E-01 0.12500040E+03</pdfrwt>
<pdfrwt beam="2">  1       -4 0.29579741E-02 0.12500040E+03</pdfrwt>
<totfact> 0.86490044E+03</totfact>
</mgrwt>
</event>
<event>
 5    1  0.3486589E-002  0.1250021E+03  0.7818608E-02  0.1235066E+00
          4   -1    0    0  501    0  0.00000000000E+00  0.00000000000E+00  0.14816460342E+02  0.14870790062E+02  0.12700000000E+01 0. -1.
         -4   -1    0    0    0  501 -0.00000000000E+00 -0.00000000000E+00 -0.26311296515E+03  0.26311603017E+03  0.12700000000E+01 0. -1.
         25    2    1    2    0    0  0.00000000000E+00  0.00000000000E+00 -0.24829650481E+03  0.27798682023E+03  0.12500207167E+03 0.  0.
    9000005    1    3    3    0    0 -0.34895862271E+02 -0.46868634396E+02 -0.17342511481E+03  0.18300726909E+03  0.10000000000E+01 0.  0.
    9000005    1    3    3    0    0  0.34895862271E+02  0.46868634396E+02 -0.74871390001E+02  0.94979551139E+02  0.10000000000E+01 0.  0.
<mgrwt>
<rscale>  0 0.12500207E+03</rscale>
<asrwt>0</asrwt>
<pdfrwt beam="1">  1        4 0.22838706E-02 0.12500207E+03</pdfrwt>
<pdfrwt beam="2">  1       -4 0.40483329E-01 0.12500207E+03</pdfrwt>
<totfact> 0.78442186E+03</totfact>
</mgrwt>
</event>
<event>
 5    1  0.3486589E-002  0.1250158E+03  0.7818608E-02  0.1235045E+00
         -4   -1    0    0    0  501 -0.00000000000E+00  0.00000000000E+00  0.10573955264E+02  0.10649949762E+02  0.12700000000E+01 0. -1.
          4   -1    0    0  501    0  0.00000000000E+00 -0.00000000000E+00 -0.36811490335E+03  0.36811709410E+03  0.12700000000E+01 0. -1.
         25    2    1    2    0    0  0.00000000000E+00  0.00000000000E+00 -0.35754094809E+03  0.37876704386E+03  0.12501577484E+03 0.  0.
    9000005    1    3    3    0    0  0.55512270722E+02 -0.25561800869E+02 -0.13912603875E+03  0.15196075981E+03  0.10000000000E+01 0.  0.
    9000005    1    3    3    0    0 -0.55512270722E+02  0.25561800869E+02 -0.21841490934E+03  0.22680628405E+03  0.10000000000E+01 0.  0.
<mgrwt>
<rscale>  0 0.12501577E+03</rscale>
<asrwt>0</asrwt>
<pdfrwt beam="2">  1        4 0.56639066E-01 0.12501577E+03</pdfrwt>
<pdfrwt beam="1">  1       -4 0.16327769E-02 0.12501577E+03</pdfrwt>
<totfact> 0.66648374E+03</totfact>
</mgrwt>
</event>
<event>
 5    1  0.3486589E-002  0.1250024E+03  0.7818608E-02  0.1235066E+00
         -4   -1    0    0    0  501 -0.00000000000E+00  0.00000000000E+00  0.56348530058E+02  0.56362840061E+02  0.12700000000E+01 0.  1.
          4   -1    0    0  501    0  0.00000000000E+00 -0.00000000000E+00 -0.69296696424E+02  0.69308333087E+02  0.12700000000E+01 0.  1.
         25    2    1    2    0    0  0.00000000000E+00  0.00000000000E+00 -0.12948166366E+02  0.12567117315E+03  0.12500235497E+03 0.  0.
    9000005    1    3    3    0    0  0.59328002224E+02 -0.12180486906E+02 -0.21958473560E+02  0.64430976015E+02  0.10000000000E+01 0.  0.
    9000005    1    3    3    0    0 -0.59328002224E+02  0.12180486906E+02  0.90103071945E+01  0.61240197133E+02  0.10000000000E+01 0.  0.
<mgrwt>
<rscale>  0 0.12500235E+03</rscale>
<asrwt>0</asrwt>
<pdfrwt beam="2">  1        4 0.10663026E-01 0.12500235E+03</pdfrwt>
<pdfrwt beam="1">  1       -4 0.86710005E-02 0.12500235E+03</pdfrwt>
<totfact> 0.10437624E+04</totfact>
</mgrwt>
</event>
<event>
 5    1  0.3486589E-002  0.1249997E+03  0.7818608E-02  0.1235070E+00
         -4   -1    0    0    0  501 -0.00000000000E+00  0.00000000000E+00  0.53585238288E+01  0.55069662813E+01  0.12700000000E+01 0.  1.
          4   -1    0    0  501    0  0.00000000000E+00 -0.00000000000E+00 -0.71886694534E+03  0.71886806717E+03  0.12700000000E+01 0.  1.
         25    2    1    2    0    0  0.00000000000E+00  0.00000000000E+00 -0.71350842151E+03  0.72437503345E+03  0.12499968610E+03 0.  0.
    9000005    1    3    3    0    0  0.32577558977E+02  0.52832193021E+02 -0.39881995677E+03  0.40362221927E+03  0.10000000000E+01 0.  0.
    9000005    1    3    3    0    0 -0.32577558977E+02 -0.52832193021E+02 -0.31468846474E+03  0.32075281418E+03  0.10000000000E+01 0.  0.
<mgrwt>
<rscale>  0 0.12499969E+03</rscale>
<asrwt>0</asrwt>
<pdfrwt beam="2">  1        4 0.11060634E+00 0.12499969E+03</pdfrwt>
<pdfrwt beam="1">  1       -4 0.83589379E-03 0.12499969E+03</pdfrwt>
<totfact> 0.41831078E+03</totfact>
</mgrwt>
</event>
<event>
 5    1  0.3486589E-002  0.1250056E+03  0.7818608E-02  0.1235061E+00
          4   -1    0    0  501    0  0.00000000000E+00  0.00000000000E+00  0.12364012311E+04  0.12364018833E+04  0.12700000000E+01 0. -1.
         -4   -1    0    0    0  501 -0.00000000000E+00 -0.00000000000E+00 -0.30313585124E+01  0.32866448592E+01  0.12700000000E+01 0. -1.
         25    2    1    2    0    0  0.00000000000E+00  0.00000000000E+00  0.12333698725E+04  0.12396885282E+04  0.12500561740E+03 0.  0.
    9000005    1    3    3    0    0  0.59706992984E+02 -0.16133387134E+02  0.52776813992E+03  0.53138067401E+03  0.10000000000E+01 0.  0.
    9000005    1    3    3    0    0 -0.59706992984E+02  0.16133387134E+02  0.70560173263E+03  0.70830785417E+03  0.10000000000E+01 0.  0.
<mgrwt>
<rscale>  0 0.12500562E+03</rscale>
<asrwt>0</asrwt>
<pdfrwt beam="1">  1        4 0.19023508E+00 0.12500562E+03</pdfrwt>
<pdfrwt beam="2">  1       -4 0.48605090E-03 0.12500562E+03</pdfrwt>
<totfact> 0.23694019E+03</totfact>
</mgrwt>
</event>
<event>
 5    1  0.3486589E-002  0.1249742E+03  0.7818608E-02  0.1235110E+00
         -4   -1    0    0    0  501 -0.00000000000E+00  0.00000000000E+00  0.61587974889E+02  0.61601067774E+02  0.12700000000E+01 0. -1.
          4   -1    0    0  501    0  0.00000000000E+00 -0.00000000000E+00 -0.63373114196E+02  0.63385838346E+02  0.12700000000E+01 0. -1.
         25    2    1    2    0    0  0.00000000000E+00  0.00000000000E+00 -0.17851393066E+01  0.12498690612E+03  0.12497415725E+03 0.  0.
    9000005    1    3    3    0    0  0.28064168139E+02 -0.44507409583E+02 -0.34587666612E+02  0.62974707008E+02  0.10000000000E+01 0.  0.
    9000005    1    3    3    0    0 -0.28064168139E+02  0.44507409583E+02  0.32802527306E+02  0.62012199112E+02  0.10000000000E+01 0.  0.
<mgrwt>
<rscale>  0 0.12497416E+03</rscale>
<asrwt>0</asrwt>
<pdfrwt beam="2">  1        4 0.97516959E-02 0.12497416E+03</pdfrwt>
<pdfrwt beam="1">  1       -4 0.94770589E-02 0.12497416E+03</pdfrwt>
<totfact> 0.10459255E+04</totfact>
</mgrwt>
</event>
<event>
 5    1  0.3486589E-002  0.1250241E+03  0.7818608E-02  0.1235032E+00
          4   -1    0    0  501    0  0.00000000000E+00  0.00000000000E+00  0.11724264435E+02  0.11792848533E+02  0.12700000000E+01 0. -1.
         -4   -1    0    0    0  501 -0.00000000000E+00 -0.00000000000E+00 -0.33226298211E+03  0.33226540925E+03  0.12700000000E+01 0. -1.
         25    2    1    2    0    0  0.00000000000E+00  0.00000000000E+00 -0.32053871768E+03  0.34405825778E+03  0.12502405855E+03 0.  0.
    9000005    1    3    3    0    0 -0.35307813893E+02  0.46782706324E+02 -0.22002444171E+03  0.22769940334E+03  0.10000000000E+01 0.  0.
    9000005    1    3    3    0    0  0.35307813893E+02 -0.46782706324E+02 -0.10051427597E+03  0.11635885444E+03  0.10000000000E+01 0.  0.
<mgrwt>
<rscale>  0 0.12502406E+03</rscale>
<asrwt>0</asrwt>
<pdfrwt beam="1">  1        4 0.18091956E-02 0.12502406E+03</pdfrwt>
<pdfrwt beam="2">  1       -4 0.51122837E-01 0.12502406E+03</pdfrwt>
<totfact> 0.70345735E+03</totfact>
</mgrwt>
</event>
<event>
 5    1  0.3486589E-002  0.1250005E+03  0.7818608E-02  0.1235068E+00
         -4   -1    0    0    0  501 -0.00000000000E+00  0.00000000000E+00  0.30699824072E+02  0.30726081724E+02  0.12700000000E+01 0.  1.
          4   -1    0    0  501    0  0.00000000000E+00 -0.00000000000E+00 -0.12715738513E+03  0.12716372711E+03  0.12700000000E+01 0.  1.
         25    2    1    2    0    0  0.00000000000E+00  0.00000000000E+00 -0.96457561058E+02  0.15788980884E+03  0.12500052260E+03 0.  0.
    9000005    1    3    3    0    0 -0.20660518331E+02 -0.32519792233E+02  0.13919581515E+02  0.40977416392E+02  0.10000000000E+01 0.  0.
    9000005    1    3    3    0    0  0.20660518331E+02  0.32519792233E+02 -0.11037714257E+03  0.11691239245E+03  0.10000000000E+01 0.  0.
<mgrwt>
<rscale>  0 0.12500052E+03</rscale>
<asrwt>0</asrwt>
<pdfrwt beam="2">  1        4 0.19565182E-01 0.12500052E+03</pdfrwt>
<pdfrwt beam="1">  1       -4 0.47255576E-02 0.12500052E+03</pdfrwt>
<totfact> 0.97750014E+03</totfact>
</mgrwt>
</event>
<event>
 5    1  0.3486589E-002  0.1250013E+03  0.7818608E-02  0.1235067E+00
          4   -1    0    0  501    0  0.00000000000E+00  0.00000000000E+00  0.58611067842E+02  0.58624825574E+02  0.12700000000E+01 0. -1.
         -4   -1    0    0    0  501 -0.00000000000E+00 -0.00000000000E+00 -0.66620700237E+02  0.66632804234E+02  0.12700000000E+01 0. -1.
         25    2    1    2    0    0  0.00000000000E+00  0.00000000000E+00 -0.80096323949E+01  0.12525762981E+03  0.12500127845E+03 0.  0.
    9000005    1    3    3    0    0 -0.64581348187E+01  0.29153578487E+02  0.51004863219E+02  0.59111206348E+02  0.10000000000E+01 0.  0.
    9000005    1    3    3    0    0  0.64581348187E+01 -0.29153578487E+02 -0.59014495614E+02  0.66146423460E+02  0.10000000000E+01 0.  0.
<mgrwt>
<rscale>  0 0.12500128E+03</rscale>
<asrwt>0</asrwt>
<pdfrwt beam="1">  1        4 0.90190768E-02 0.12500128E+03</pdfrwt>
<pdfrwt beam="2">  1       -4 0.10251328E-01 0.12500128E+03</pdfrwt>
<totfact> 0.10446968E+04</totfact>
</mgrwt>
</event>
<event>
 5    1  0.3486589E-002  0.1249999E+03  0.7818608E-02  0.1235069E+00
          4   -1    0    0  501    0  0.00000000000E+00  0.00000000000E+00  0.10521312487E+04  0.10521320152E+04  0.12700000000E+01 0. -1.
         -4   -1    0    0    0  501 -0.00000000000E+00 -0.00000000000E+00 -0.36032976562E+01  0.38205567656E+01  0.12700000000E+01 0. -1.
         25    2    1    2    0    0  0.00000000000E+00  0.00000000000E+00  0.10485279511E+04  0.10559525720E+04  0.12499988041E+03 0.  0.
    9000005    1    3    3    0    0  0.58425784506E+02 -0.22135220746E+02  0.53528556811E+03  0.53892038347E+03  0.10000000000E+01 0.  0.
    9000005    1    3    3    0    0 -0.58425784506E+02  0.22135220746E+02  0.51324238297E+03  0.51703218852E+03  0.10000000000E+01 0.  0.
<mgrwt>
<rscale>  0 0.12499988E+03</rscale>
<asrwt>0</asrwt>
<pdfrwt beam="1">  1        4 0.16188326E+00 0.12499988E+03</pdfrwt>
<pdfrwt beam="2">  1       -4 0.57112420E-03 0.12499988E+03</pdfrwt>
<totfact> 0.28809678E+03</totfact>
</mgrwt>
</event>
<event>
 5    1  0.3486589E-002  0.1250144E+03  0.7818608E-02  0.1235047E+00
          4   -1    0    0  501    0  0.00000000000E+00  0.00000000000E+00  0.11693725648E+03  0.11694415271E+03  0.12700000000E+01 0.  1.
         -4   -1    0    0    0  501 -0.00000000000E+00 -0.00000000000E+00 -0.33392385899E+02  0.33416527887E+02  0.12700000000E+01 0.  1.
         25    2    1    2    0    0  0.00000000000E+00  0.00000000000E+00  0.83544870585E+02  0.15036068060E+03  0.12501435465E+03 0.  0.
    9000005    1    3    3    0    0  0.61936231974E+02 -0.54762865477E+01  0.49385044120E+02  0.79410132403E+02  0.10000000000E+01 0.  0.
    9000005    1    3    3    0    0 -0.61936231974E+02  0.54762865477E+01  0.34159826465E+02  0.70950548198E+02  0.10000000000E+01 0.  0.
<mgrwt>
<rscale>  0 0.12501435E+03</rscale>
<asrwt>0</asrwt>
<pdfrwt beam="1">  1        4 0.17992734E-01 0.12501435E+03</pdfrwt>
<pdfrwt beam="2">  1       -4 0.51396778E-02 0.12501435E+03</pdfrwt>
<totfact> 0.99199801E+03</totfact>
</mgrwt>
</event>
<event>
 5    1  0.3486589E-002  0.1250017E+03  0.7818608E-02  0.1235067E+00
         -4   -1    0    0    0  501 -0.00000000000E+00  0.00000000000E+00  0.52198158524E+03  0.52198313021E+03  0.12700000000E+01 0.  1.
          4   -1    0    0  501    0  0.00000000000E+00 -0.00000000000E+00 -0.74282599489E+01  0.75360431175E+01  0.12700000000E+01 0.  1.
         25    2    1    2    0    0  0.00000000000E+00  0.00000000000E+00  0.51455332529E+03  0.52951917333E+03  0.12500172142E+03 0.  0.
    9000005    1    3    3    0    0 -0.56054278785E+02 -0.27545009483E+02  0.24824287613E+03  0.25598112287E+03  0.10000000000E+01 0.  0.
    9000005    1    3    3    0    0  0.56054278785E+02  0.27545009483E+02  0.26631044916E+03  0.27353805046E+03  0.10000000000E+01 0.  0.
<mgrwt>
<rscale>  0 0.12500172E+03</rscale>
<asrwt>0</asrwt>
<pdfrwt beam="2">  1        4 0.11512188E-02 0.12500172E+03</pdfrwt>
<pdfrwt beam="1">  1       -4 0.80313288E-01 0.12500172E+03</pdfrwt>
<totfact> 0.53642601E+03</totfact>
</mgrwt>
</event>
<event>
 5    1  0.3486589E-002  0.1249995E+03  0.7818608E-02  0.1235070E+00
          4   -1    0    0  501    0  0.00000000000E+00  0.00000000000E+00  0.34623307755E+02  0.34646592038E+02  0.12700000000E+01 0. -1.
         -4   -1    0    0    0  501 -0.00000000000E+00 -0.00000000000E+00 -0.11275563874E+03  0.11276279071E+03  0.12700000000E+01 0. -1.
         25    2    1    2    0    0  0.00000000000E+00  0.00000000000E+00 -0.78132330988E+02  0.14740938275E+03  0.12499945990E+03 0.  0.
    9000005    1    3    3    0    0  0.28846016722E+02 -0.48689827658E+01  0.26055480495E+02  0.39187851915E+02  0.10000000000E+01 0.  0.
    9000005    1    3    3    0    0 -0.28846016722E+02  0.48689827658E+01 -0.10418781148E+03  0.10822153083E+03  0.10000000000E+01 0.  0.
<mgrwt>
<rscale>  0 0.12499946E+03</rscale>
<asrwt>0</asrwt>
<pdfrwt beam="1">  1        4 0.53290040E-02 0.12499946E+03</pdfrwt>
<pdfrwt beam="2">  1       -4 0.17349362E-01 0.12499946E+03</pdfrwt>
<totfact> 0.99823842E+03</totfact>
</mgrwt>
</event>
<event>
 5    1  0.3486589E-002  0.1249996E+03  0.7818608E-02  0.1235070E+00
         -4   -1    0    0    0  501 -0.00000000000E+00  0.00000000000E+00  0.42779803219E+03  0.42779991731E+03  0.12700000000E+01 0.  1.
          4   -1    0    0  501    0  0.00000000000E+00 -0.00000000000E+00 -0.90849216445E+01  0.91732601231E+01  0.12700000000E+01 0.  1.
         25    2    1    2    0    0  0.00000000000E+00  0.00000000000E+00  0.41871311055E+03  0.43697317743E+03  0.12499955539E+03 0.  0.
    9000005    1    3    3    0    0 -0.36474706360E+02  0.47251431442E+02  0.14469655650E+03  0.15652857707E+03  0.10000000000E+01 0.  0.
    9000005    1    3    3    0    0  0.36474706360E+02 -0.47251431442E+02  0.27401655405E+03  0.28044460036E+03  0.10000000000E+01 0.  0.
<mgrwt>
<rscale>  0 0.12499956E+03</rscale>
<asrwt>0</asrwt>
<pdfrwt beam="2">  1        4 0.14046206E-02 0.12499956E+03</pdfrwt>
<pdfrwt beam="1">  1       -4 0.65822019E-01 0.12499956E+03</pdfrwt>
<totfact> 0.61109561E+03</totfact>
</mgrwt>
</event>
<event>
 5    1  0.3486589E-002  0.1249927E+03  0.7818608E-02  0.1235081E+00
         -4   -1    0    0    0  501 -0.00000000000E+00  0.00000000000E+00  0.44822354980E+02  0.44840343509E+02  0.12700000000E+01 0.  1.
          4   -1    0    0  501    0  0.00000000000E+00 -0.00000000000E+00 -0.87099380371E+02  0.87108638843E+02  0.12700000000E+01 0.  1.
         25    2    1    2    0    0  0.00000000000E+00  0.00000000000E+00 -0.42277025391E+02  0.13194898235E+03  0.12499274806E+03 0.  0.
    9000005    1    3    3    0    0  0.10340063473E+02 -0.55229510580E+02  0.77250782225E+01  0.56726471643E+02  0.10000000000E+01 0.  0.
    9000005    1    3    3    0    0 -0.10340063473E+02  0.55229510580E+02 -0.50002103613E+02  0.75222510708E+02  0.10000000000E+01 0.  0.
<mgrwt>
<rscale>  0 0.12499275E+03</rscale>
<asrwt>0</asrwt>
<pdfrwt beam="2">  1        4 0.13402001E-01 0.12499275E+03</pdfrwt>
<pdfrwt beam="1">  1       -4 0.68978429E-02 0.12499275E+03</pdfrwt>
<totfact> 0.10304473E+04</totfact>
</mgrwt>
</event>
<event>
 5    1  0.3486589E-002  0.1249812E+03  0.7818608E-02  0.1235099E+00
          4   -1    0    0  501    0  0.00000000000E+00  0.00000000000E+00  0.19712095983E+03  0.19712505093E+03  0.12700000000E+01 0.  1.
         -4   -1    0    0    0  501 -0.00000000000E+00 -0.00000000000E+00 -0.19785892839E+02  0.19826609782E+02  0.12700000000E+01 0.  1.
         25    2    1    2    0    0  0.00000000000E+00  0.00000000000E+00  0.17733506699E+03  0.21695166071E+03  0.12498118699E+03 0.  0.
    9000005    1    3    3    0    0  0.19214306652E+02  0.44224074935E+02  0.19687192655E+02  0.52091687807E+02  0.10000000000E+01 0.  0.
    9000005    1    3    3    0    0 -0.19214306652E+02 -0.44224074935E+02  0.15764787434E+03  0.16485997291E+03  0.10000000000E+01 0.  0.
<mgrwt>
<rscale>  0 0.12498119E+03</rscale>
<asrwt>0</asrwt>
<pdfrwt beam="1">  1        4 0.30329748E-01 0.12498119E+03</pdfrwt>
<pdfrwt beam="2">  1       -4 0.30474303E-02 0.12498119E+03</pdfrwt>
<totfact> 0.87389747E+03</totfact>
</mgrwt>
</event>
<event>
 5    1  0.3486589E-002  0.1249902E+03  0.7818608E-02  0.1235085E+00
         -4   -1    0    0    0  501 -0.00000000000E+00  0.00000000000E+00  0.44613062702E+01  0.46385508121E+01  0.12700000000E+01 0. -1.
          4   -1    0    0  501    0  0.00000000000E+00 -0.00000000000E+00 -0.85821811147E+03  0.85821905115E+03  0.12700000000E+01 0. -1.
         25    2    1    2    0    0  0.00000000000E+00  0.00000000000E+00 -0.85375680520E+03  0.86285760196E+03  0.12499023497E+03 0.  0.
    9000005    1    3    3    0    0  0.55061654140E+02 -0.20636430623E+01 -0.22342179905E+03  0.23011811026E+03  0.10000000000E+01 0.  0.
    9000005    1    3    3    0    0 -0.55061654140E+02  0.20636430623E+01 -0.63033500616E+03  0.63273949171E+03  0.10000000000E+01 0.  0.
<mgrwt>
<rscale>  0 0.12499023E+03</rscale>
<asrwt>0</asrwt>
<pdfrwt beam="2">  1        4 0.13204713E+00 0.12499023E+03</pdfrwt>
<pdfrwt beam="1">  1       -4 0.70006197E-03 0.12499023E+03</pdfrwt>
<totfact> 0.35614505E+03</totfact>
</mgrwt>
</event>
<event>
 5    1  0.3486589E-002  0.1250053E+03  0.7818608E-02  0.1235061E+00
         -4   -1    0    0    0  501 -0.00000000000E+00  0.00000000000E+00  0.14982380707E+02  0.15036110921E+02  0.12700000000E+01 0.  1.
          4   -1    0    0  501    0  0.00000000000E+00 -0.00000000000E+00 -0.26022322028E+03  0.26022631933E+03  0.12700000000E+01 0.  1.
         25    2    1    2    0    0  0.00000000000E+00  0.00000000000E+00 -0.24524083957E+03  0.27526243025E+03  0.12500534434E+03 0.  0.
    9000005    1    3    3    0    0  0.78414396867E+01 -0.11617856153E+02  0.11487330031E+02  0.18149972705E+02  0.10000000000E+01 0.  0.
    9000005    1    3    3    0    0 -0.78414396867E+01  0.11617856153E+02 -0.25672816961E+03  0.25711245755E+03  0.10000000000E+01 0.  0.
<mgrwt>
<rscale>  0 0.12500534E+03</rscale>
<asrwt>0</asrwt>
<pdfrwt beam="2">  1        4 0.40038710E-01 0.12500534E+03</pdfrwt>
<pdfrwt beam="1">  1       -4 0.23093533E-02 0.12500534E+03</pdfrwt>
<totfact> 0.78801132E+03</totfact>
</mgrwt>
</event>
<event>
 5    1  0.3486589E-002  0.1250009E+03  0.7818608E-02  0.1235068E+00
         -4   -1    0    0    0  501 -0.00000000000E+00  0.00000000000E+00  0.18431345880E+03  0.18431783418E+03  0.12700000000E+01 0.  1.
          4   -1    0    0  501    0  0.00000000000E+00 -0.00000000000E+00 -0.21170168813E+02  0.21208228299E+02  0.12700000000E+01 0.  1.
         25    2    1    2    0    0  0.00000000000E+00  0.00000000000E+00  0.16314328999E+03  0.20552606248E+03  0.12500091715E+03 0.  0.
    9000005    1    3    3    0    0 -0.54834628661E+02  0.21546218339E+02  0.11583376749E+03  0.12995975421E+03  0.10000000000E+01 0.  0.
    9000005    1    3    3    0    0  0.54834628661E+02 -0.21546218339E+02  0.47309522506E+02  0.75566308265E+02  0.10000000000E+01 0.  0.
<mgrwt>
<rscale>  0 0.12500092E+03</rscale>
<asrwt>0</asrwt>
<pdfrwt beam="2">  1        4 0.32602133E-02 0.12500092E+03</pdfrwt>
<pdfrwt beam="1">  1       -4 0.28359181E-01 0.12500092E+03</pdfrwt>
<totfact> 0.89209956E+03</totfact>
</mgrwt>
</event>
<event>
 5    1  0.3486589E-002  0.1250006E+03  0.7818608E-02  0.1235068E+00
          4   -1    0    0  501    0  0.00000000000E+00  0.00000000000E+00  0.58972966353E+01  0.60324959680E+01  0.12700000000E+01 0.  1.
         -4   -1    0    0    0  501 -0.00000000000E+00 -0.00000000000E+00 -0.65474339071E+03  0.65474462241E+03  0.12700000000E+01 0.  1.
         25    2    1    2    0    0  0.00000000000E+00  0.00000000000E+00 -0.64884609407E+03  0.66077711838E+03  0.12500058552E+03 0.  0.
    9000005    1    3    3    0    0  0.40957945642E+01 -0.22428622427E+02 -0.63199894616E+03  0.63241085267E+03  0.10000000000E+01 0.  0.
    9000005    1    3    3    0    0 -0.40957945642E+01  0.22428622427E+02 -0.16847147915E+02  0.28366265703E+02  0.10000000000E+01 0.  0.
<mgrwt>
<rscale>  0 0.12500059E+03</rscale>
<asrwt>0</asrwt>
<pdfrwt beam="1">  1        4 0.91777162E-03 0.12500059E+03</pdfrwt>
<pdfrwt beam="2">  1       -4 0.10074019E+00 0.12500059E+03</pdfrwt>
<totfact> 0.45238958E+03</totfact>
</mgrwt>
</event>
<event>
 5    1  0.3486589E-002  0.1249974E+03  0.7818608E-02  0.1235073E+00
         -4   -1    0    0    0  501 -0.00000000000E+00  0.00000000000E+00  0.96648991719E+03  0.96649075160E+03  0.12700000000E+01 0. -1.
          4   -1    0    0  501    0  0.00000000000E+00 -0.00000000000E+00 -0.39408897528E+01  0.41404724421E+01  0.12700000000E+01 0. -1.
         25    2    1    2    0    0  0.00000000000E+00  0.00000000000E+00  0.96254902744E+03  0.97063122404E+03  0.12499737144E+03 0.  0.
    9000005    1    3    3    0    0 -0.55239872632E+02  0.28998005284E+02  0.50901043505E+03  0.51282058347E+03  0.10000000000E+01 0.  0.
    9000005    1    3    3    0    0  0.55239872632E+02 -0.28998005284E+02  0.45353859239E+03  0.45781064058E+03  0.10000000000E+01 0.  0.
<mgrwt>
<rscale>  0 0.12499737E+03</rscale>
<asrwt>0</asrwt>
<pdfrwt beam="2">  1        4 0.62170745E-03 0.12499737E+03</pdfrwt>
<pdfrwt beam="1">  1       -4 0.14870617E+00 0.12499737E+03</pdfrwt>
<totfact> 0.31596433E+03</totfact>
</mgrwt>
</event>
<event>
 5    1  0.3486589E-002  0.1249996E+03  0.7818608E-02  0.1235070E+00
          4   -1    0    0  501    0  0.00000000000E+00  0.00000000000E+00  0.19144202041E+03  0.19144623287E+03  0.12700000000E+01 0.  1.
         -4   -1    0    0    0  501 -0.00000000000E+00 -0.00000000000E+00 -0.20380003544E+02  0.20419535853E+02  0.12700000000E+01 0.  1.
         25    2    1    2    0    0  0.00000000000E+00  0.00000000000E+00  0.17106201687E+03  0.21186576872E+03  0.12499956136E+03 0.  0.
    9000005    1    3    3    0    0 -0.53616261928E+02 -0.26167167689E+02  0.54012636251E+02  0.80484713348E+02  0.10000000000E+01 0.  0.
    9000005    1    3    3    0    0  0.53616261928E+02  0.26167167689E+02  0.11704938062E+03  0.13138105537E+03  0.10000000000E+01 0.  0.
<mgrwt>
<rscale>  0 0.12499956E+03</rscale>
<asrwt>0</asrwt>
<pdfrwt beam="1">  1        4 0.29455982E-01 0.12499956E+03</pdfrwt>
<pdfrwt beam="2">  1       -4 0.31387503E-02 0.12499956E+03</pdfrwt>
<totfact> 0.88172946E+03</totfact>
</mgrwt>
</event>
<event>
 5    1  0.3486589E-002  0.1249974E+03  0.7818608E-02  0.1235073E+00
          4   -1    0    0  501    0  0.00000000000E+00  0.00000000000E+00  0.91613486242E+01  0.92489571636E+01  0.12700000000E+01 0. -1.
         -4   -1    0    0    0  501 -0.00000000000E+00 -0.00000000000E+00 -0.42424821399E+03  0.42425011488E+03  0.12700000000E+01 0. -1.
         25    2    1    2    0    0  0.00000000000E+00  0.00000000000E+00 -0.41508686537E+03  0.43349907204E+03  0.12499735862E+03 0.  0.
    9000005    1    3    3    0    0  0.58778820241E+02  0.74239464816E+01 -0.27647164299E+03  0.28275012656E+03  0.10000000000E+01 0.  0.
    9000005    1    3    3    0    0 -0.58778820241E+02 -0.74239464816E+01 -0.13861522237E+03  0.15074894548E+03  0.10000000000E+01 0.  0.
<mgrwt>
<rscale>  0 0.12499736E+03</rscale>
<asrwt>0</asrwt>
<pdfrwt beam="1">  1        4 0.14163239E-02 0.12499736E+03</pdfrwt>
<pdfrwt beam="2">  1       -4 0.65275826E-01 0.12499736E+03</pdfrwt>
<totfact> 0.61423681E+03</totfact>
</mgrwt>
</event>
<event>
 5    1  0.3486589E-002  0.1249988E+03  0.7818608E-02  0.1235071E+00
         -4   -1    0    0    0  501 -0.00000000000E+00  0.00000000000E+00  0.21425529000E+02  0.21463135673E+02  0.12700000000E+01 0.  1.
          4   -1    0    0  501    0  0.00000000000E+00 -0.00000000000E+00 -0.18211438166E+03  0.18211880986E+03  0.12700000000E+01 0.  1.
         25    2    1    2    0    0  0.00000000000E+00  0.00000000000E+00 -0.16068885266E+03  0.20358194554E+03  0.12499880472E+03 0.  0.
    9000005    1    3    3    0    0  0.15253161718E+02 -0.60596415449E+02 -0.81596266941E+02  0.10277906054E+03  0.10000000000E+01 0.  0.
    9000005    1    3    3    0    0 -0.15253161718E+02  0.60596415449E+02 -0.79092585716E+02  0.10080288499E+03  0.10000000000E+01 0.  0.
<mgrwt>
<rscale>  0 0.12499880E+03</rscale>
<asrwt>0</asrwt>
<pdfrwt beam="2">  1        4 0.28020830E-01 0.12499880E+03</pdfrwt>
<pdfrwt beam="1">  1       -4 0.32994688E-02 0.12499880E+03</pdfrwt>
<totfact> 0.89537273E+03</totfact>
</mgrwt>
</event>
<event>
 5    1  0.3486589E-002  0.1250001E+03  0.7818608E-02  0.1235069E+00
          4   -1    0    0  501    0  0.00000000000E+00  0.00000000000E+00  0.13437974153E+04  0.13437980155E+04  0.12700000000E+01 0.  1.
         -4   -1    0    0    0  501 -0.00000000000E+00 -0.00000000000E+00 -0.27675344436E+01  0.30450200158E+01  0.12700000000E+01 0.  1.
         25    2    1    2    0    0  0.00000000000E+00  0.00000000000E+00  0.13410298809E+04  0.13468430355E+04  0.12500008309E+03 0.  0.
    9000005    1    3    3    0    0 -0.62377059143E+02 -0.37183482302E+01  0.67837069385E+03  0.68124336466E+03  0.10000000000E+01 0.  0.
    9000005    1    3    3    0    0  0.62377059143E+02  0.37183482302E+01  0.66265918705E+03  0.66559967083E+03  0.10000000000E+01 0.  0.
<mgrwt>
<rscale>  0 0.12500008E+03</rscale>
<asrwt>0</asrwt>
<pdfrwt beam="1">  1        4 0.20675981E+00 0.12500008E+03</pdfrwt>
<pdfrwt beam="2">  1       -4 0.44716498E-03 0.12500008E+03</pdfrwt>
<totfact> 0.21149080E+03</totfact>
</mgrwt>
</event>
<event>
 5    1  0.3486589E-002  0.1249752E+03  0.7818608E-02  0.1235108E+00
          4   -1    0    0  501    0  0.00000000000E+00  0.00000000000E+00  0.10579605742E+03  0.10580367984E+03  0.12700000000E+01 0.  1.
         -4   -1    0    0    0  501 -0.00000000000E+00 -0.00000000000E+00 -0.36887942082E+02  0.36909797765E+02  0.12700000000E+01 0.  1.
         25    2    1    2    0    0  0.00000000000E+00  0.00000000000E+00  0.68908115343E+02  0.14271347760E+03  0.12497523086E+03 0.  0.
    9000005    1    3    3    0    0 -0.57848060044E+02  0.22913171438E+02  0.27965037281E+02  0.68223564744E+02  0.10000000000E+01 0.  0.
    9000005    1    3    3    0    0  0.57848060044E+02 -0.22913171438E+02  0.40943078062E+02  0.74489912857E+02  0.10000000000E+01 0.  0.
<mgrwt>
<rscale>  0 0.12497523E+03</rscale>
<asrwt>0</asrwt>
<pdfrwt beam="1">  1        4 0.16278584E-01 0.12497523E+03</pdfrwt>
<pdfrwt beam="2">  1       -4 0.56773356E-02 0.12497523E+03</pdfrwt>
<totfact> 0.10083278E+04</totfact>
</mgrwt>
</event>
<event>
 5    1  0.3486589E-002  0.1249567E+03  0.7818608E-02  0.1235137E+00
          4   -1    0    0  501    0  0.00000000000E+00  0.00000000000E+00  0.29044199058E+01  0.31699455814E+01  0.12700000000E+01 0. -1.
         -4   -1    0    0    0  501 -0.00000000000E+00 -0.00000000000E+00 -0.12849868392E+04  0.12849874668E+04  0.12700000000E+01 0. -1.
         25    2    1    2    0    0  0.00000000000E+00  0.00000000000E+00 -0.12820824193E+04  0.12881574124E+04  0.12495674929E+03 0.  0.
    9000005    1    3    3    0    0  0.38208051650E+02  0.42541076895E+02 -0.90039555610E+03  0.90220992894E+03  0.10000000000E+01 0.  0.
    9000005    1    3    3    0    0 -0.38208051650E+02 -0.42541076895E+02 -0.38168686317E+03  0.38594748341E+03  0.10000000000E+01 0.  0.
<mgrwt>
<rscale>  0 0.12495675E+03</rscale>
<asrwt>0</asrwt>
<pdfrwt beam="1">  1        4 0.46730819E-03 0.12495675E+03</pdfrwt>
<pdfrwt beam="2">  1       -4 0.19771032E+00 0.12495675E+03</pdfrwt>
<totfact> 0.22531084E+03</totfact>
</mgrwt>
</event>
<event>
 5    1  0.3486589E-002  0.1250000E+03  0.7818608E-02  0.1235069E+00
          4   -1    0    0  501    0  0.00000000000E+00  0.00000000000E+00  0.11726043590E+02  0.11794617344E+02  0.12700000000E+01 0. -1.
         -4   -1    0    0    0  501 -0.00000000000E+00 -0.00000000000E+00 -0.33208494474E+03  0.33208737318E+03  0.12700000000E+01 0. -1.
         25    2    1    2    0    0  0.00000000000E+00  0.00000000000E+00 -0.32035890115E+03  0.34388199052E+03  0.12499999143E+03 0.  0.
    9000005    1    3    3    0    0  0.66864982498E+01 -0.58891089445E+02 -0.21467396206E+03  0.22270783476E+03  0.10000000000E+01 0.  0.
    9000005    1    3    3    0    0 -0.66864982498E+01  0.58891089445E+02 -0.10568493909E+03  0.12117415576E+03  0.10000000000E+01 0.  0.
<mgrwt>
<rscale>  0 0.12499999E+03</rscale>
<asrwt>0</asrwt>
<pdfrwt beam="1">  1        4 0.18094687E-02 0.12499999E+03</pdfrwt>
<pdfrwt beam="2">  1       -4 0.51095446E-01 0.12499999E+03</pdfrwt>
<totfact> 0.70402914E+03</totfact>
</mgrwt>
</event>
<event>
 5    1  0.3486589E-002  0.1250013E+03  0.7818608E-02  0.1235067E+00
         -4   -1    0    0    0  501 -0.00000000000E+00  0.00000000000E+00  0.43229982304E+02  0.43248633158E+02  0.12700000000E+01 0.  1.
          4   -1    0    0  501    0  0.00000000000E+00 -0.00000000000E+00 -0.90319040301E+02  0.90327968763E+02  0.12700000000E+01 0.  1.
         25    2    1    2    0    0  0.00000000000E+00  0.00000000000E+00 -0.47089057997E+02  0.13357660192E+03  0.12500131678E+03 0.  0.
    9000005    1    3    3    0    0 -0.39394477912E+02  0.46795122081E+02 -0.37213607928E+02  0.71606989572E+02  0.10000000000E+01 0.  0.
    9000005    1    3    3    0    0  0.39394477912E+02 -0.46795122081E+02 -0.98754500690E+01  0.61969612349E+02  0.10000000000E+01 0.  0.
<mgrwt>
<rscale>  0 0.12500132E+03</rscale>
<asrwt>0</asrwt>
<pdfrwt beam="2">  1        4 0.13897358E-01 0.12500132E+03</pdfrwt>
<pdfrwt beam="1">  1       -4 0.66528880E-02 0.12500132E+03</pdfrwt>
<totfact> 0.10267855E+04</totfact>
</mgrwt>
</event>
<event>
 5    1  0.3486589E-002  0.1250011E+03  0.7818608E-02  0.1235068E+00
         -4   -1    0    0    0  501 -0.00000000000E+00  0.00000000000E+00  0.53603843882E+02  0.53618886402E+02  0.12700000000E+01 0. -1.
          4   -1    0    0  501    0  0.00000000000E+00 -0.00000000000E+00 -0.72842998485E+02  0.72854068715E+02  0.12700000000E+01 0. -1.
         25    2    1    2    0    0  0.00000000000E+00  0.00000000000E+00 -0.19239154603E+02  0.12647295512E+03  0.12500105322E+03 0.  0.
    9000005    1    3    3    0    0 -0.18701573693E+02 -0.55544872491E+02 -0.31562134094E+02  0.66574394682E+02  0.10000000000E+01 0.  0.
    9000005    1    3    3    0    0  0.18701573693E+02  0.55544872491E+02  0.12322979491E+02  0.59898560435E+02  0.10000000000E+01 0.  0.
<mgrwt>
<rscale>  0 0.12500105E+03</rscale>
<asrwt>0</asrwt>
<pdfrwt beam="2">  1        4 0.11208624E-01 0.12500105E+03</pdfrwt>
<pdfrwt beam="1">  1       -4 0.82487539E-02 0.12500105E+03</pdfrwt>
<totfact> 0.10420370E+04</totfact>
</mgrwt>
</event>
<event>
 5    1  0.3486589E-002  0.1250008E+03  0.7818608E-02  0.1235068E+00
         -4   -1    0    0    0  501 -0.00000000000E+00  0.00000000000E+00  0.56643705695E+02  0.56657941146E+02  0.12700000000E+01 0. -1.
          4   -1    0    0  501    0  0.00000000000E+00 -0.00000000000E+00 -0.68933940343E+02  0.68945638232E+02  0.12700000000E+01 0. -1.
         25    2    1    2    0    0  0.00000000000E+00  0.00000000000E+00 -0.12290234648E+02  0.12560357938E+03  0.12500083714E+03 0.  0.
    9000005    1    3    3    0    0  0.10032539385E+02  0.53608431391E+02 -0.36801022626E+02  0.65801451572E+02  0.10000000000E+01 0.  0.
    9000005    1    3    3    0    0 -0.10032539385E+02 -0.53608431391E+02  0.24510787978E+02  0.59802127805E+02  0.10000000000E+01 0.  0.
<mgrwt>
<rscale>  0 0.12500084E+03</rscale>
<asrwt>0</asrwt>
<pdfrwt beam="2">  1        4 0.10607216E-01 0.12500084E+03</pdfrwt>
<pdfrwt beam="1">  1       -4 0.87164112E-02 0.12500084E+03</pdfrwt>
<totfact> 0.10439471E+04</totfact>
</mgrwt>
</event>
<event>
 5    1  0.3486589E-002  0.1249999E+03  0.7818608E-02  0.1235069E+00
          4   -1    0    0  501    0  0.00000000000E+00  0.00000000000E+00  0.65463474988E+01  0.66684005260E+01  0.12700000000E+01 0.  1.
         -4   -1    0    0    0  501 -0.00000000000E+00 -0.00000000000E+00 -0.59107203541E+03  0.59107339979E+03  0.12700000000E+01 0.  1.
         25    2    1    2    0    0  0.00000000000E+00  0.00000000000E+00 -0.58452568791E+03  0.59774180032E+03  0.12499992009E+03 0.  0.
    9000005    1    3    3    0    0  0.57740438863E+02  0.27467661279E-01 -0.17796693876E+03  0.18710208530E+03  0.10000000000E+01 0.  0.
    9000005    1    3    3    0    0 -0.57740438863E+02 -0.27467661279E-01 -0.40655874916E+03  0.41063971502E+03  0.10000000000E+01 0.  0.
<mgrwt>
<rscale>  0 0.12499992E+03</rscale>
<asrwt>0</asrwt>
<pdfrwt beam="1">  1        4 0.10166245E-02 0.12499992E+03</pdfrwt>
<pdfrwt beam="2">  1       -4 0.90943611E-01 0.12499992E+03</pdfrwt>
<totfact> 0.49010568E+03</totfact>
</mgrwt>
</event>
<event>
 5    1  0.3486589E-002  0.1250041E+03  0.7818608E-02  0.1235063E+00
          4   -1    0    0  501    0  0.00000000000E+00  0.00000000000E+00  0.35043080946E+02  0.35066086496E+02  0.12700000000E+01 0.  1.
         -4   -1    0    0    0  501 -0.00000000000E+00 -0.00000000000E+00 -0.11141399835E+03  0.11142123643E+03  0.12700000000E+01 0.  1.
         25    2    1    2    0    0  0.00000000000E+00  0.00000000000E+00 -0.76370917402E+02  0.14648732293E+03  0.12500407495E+03 0.  0.
    9000005    1    3    3    0    0  0.27937898656E+02 -0.45942875260E+02 -0.86523381658E+00  0.53786825506E+02  0.10000000000E+01 0.  0.
    9000005    1    3    3    0    0 -0.27937898656E+02  0.45942875260E+02 -0.75505683585E+02  0.92700497421E+02  0.10000000000E+01 0.  0.
<mgrwt>
<rscale>  0 0.12500407E+03</rscale>
<asrwt>0</asrwt>
<pdfrwt beam="1">  1        4 0.53935697E-02 0.12500407E+03</pdfrwt>
<pdfrwt beam="2">  1       -4 0.17142941E-01 0.12500407E+03</pdfrwt>
<totfact> 0.99999390E+03</totfact>
</mgrwt>
</event>
<event>
 5    1  0.3486589E-002  0.1249996E+03  0.7818608E-02  0.1235070E+00
         -4   -1    0    0    0  501 -0.00000000000E+00  0.00000000000E+00  0.51157016613E+03  0.51157174255E+03  0.12700000000E+01 0.  1.
          4   -1    0    0  501    0  0.00000000000E+00 -0.00000000000E+00 -0.75813507914E+01  0.76869876950E+01  0.12700000000E+01 0.  1.
         25    2    1    2    0    0  0.00000000000E+00  0.00000000000E+00  0.50398881534E+03  0.51925873025E+03  0.12499961179E+03 0.  0.
    9000005    1    3    3    0    0 -0.40280763414E+02  0.41113804864E+02  0.35309669889E+03  0.35775852697E+03  0.10000000000E+01 0.  0.
    9000005    1    3    3    0    0  0.40280763414E+02 -0.41113804864E+02  0.15089211645E+03  0.16150020328E+03  0.10000000000E+01 0.  0.
<mgrwt>
<rscale>  0 0.12499961E+03</rscale>
<asrwt>0</asrwt>
<pdfrwt beam="2">  1        4 0.11746088E-02 0.12499961E+03</pdfrwt>
<pdfrwt beam="1">  1       -4 0.78711350E-01 0.12499961E+03</pdfrwt>
<totfact> 0.54400949E+03</totfact>
</mgrwt>
</event>
<event>
 5    1  0.3486589E-002  0.1249969E+03  0.7818608E-02  0.1235074E+00
         -4   -1    0    0    0  501 -0.00000000000E+00  0.00000000000E+00  0.76983719558E+02  0.76994194437E+02  0.12700000000E+01 0.  1.
          4   -1    0    0  501    0  0.00000000000E+00 -0.00000000000E+00 -0.50716881974E+02  0.50732780499E+02  0.12700000000E+01 0.  1.
         25    2    1    2    0    0  0.00000000000E+00  0.00000000000E+00  0.26266837584E+02  0.12772697494E+03  0.12499693344E+03 0.  0.
    9000005    1    3    3    0    0 -0.54932276052E+02 -0.22521106144E+02  0.33060708725E+02  0.67961501129E+02  0.10000000000E+01 0.  0.
    9000005    1    3    3    0    0  0.54932276052E+02  0.22521106144E+02 -0.67938711414E+01  0.59765473807E+02  0.10000000000E+01 0.  0.
<mgrwt>
<rscale>  0 0.12499693E+03</rscale>
<asrwt>0</asrwt>
<pdfrwt beam="2">  1        4 0.78046260E-02 0.12499693E+03</pdfrwt>
<pdfrwt beam="1">  1       -4 0.11845678E-01 0.12499693E+03</pdfrwt>
<totfact> 0.10394108E+04</totfact>
</mgrwt>
</event>
<event>
 5    1  0.3486589E-002  0.1249991E+03  0.7818608E-02  0.1235071E+00
         -4   -1    0    0    0  501 -0.00000000000E+00  0.00000000000E+00  0.16655418715E+02  0.16703768215E+02  0.12700000000E+01 0. -1.
          4   -1    0    0  501    0  0.00000000000E+00 -0.00000000000E+00 -0.23413991428E+03  0.23414335856E+03  0.12700000000E+01 0. -1.
         25    2    1    2    0    0  0.00000000000E+00  0.00000000000E+00 -0.21748449556E+03  0.25084712678E+03  0.12499910080E+03 0.  0.
    9000005    1    3    3    0    0 -0.92597281394E+01 -0.61801702273E+02 -0.10868438532E+03  0.12537339663E+03  0.10000000000E+01 0.  0.
    9000005    1    3    3    0    0  0.92597281394E+01  0.61801702273E+02 -0.10880011024E+03  0.12547373015E+03  0.10000000000E+01 0.  0.
<mgrwt>
<rscale>  0 0.12499910E+03</rscale>
<asrwt>0</asrwt>
<pdfrwt beam="2">  1        4 0.36025507E-01 0.12499910E+03</pdfrwt>
<pdfrwt beam="1">  1       -4 0.25663564E-02 0.12499910E+03</pdfrwt>
<totfact> 0.82209593E+03</totfact>
</mgrwt>
</event>
<event>
 5    1  0.3486589E-002  0.1249906E+03  0.7818608E-02  0.1235084E+00
          4   -1    0    0  501    0  0.00000000000E+00  0.00000000000E+00  0.21475622909E+02  0.21513142014E+02  0.12700000000E+01 0.  1.
         -4   -1    0    0    0  501 -0.00000000000E+00 -0.00000000000E+00 -0.18166637699E+03  0.18167081611E+03  0.12700000000E+01 0.  1.
         25    2    1    2    0    0  0.00000000000E+00  0.00000000000E+00 -0.16019075408E+03  0.20318395813E+03  0.12499057224E+03 0.  0.
    9000005    1    3    3    0    0  0.35698875733E+02  0.48041875086E+01  0.29082184244E+01  0.36151731364E+02  0.10000000000E+01 0.  0.
    9000005    1    3    3    0    0 -0.35698875733E+02 -0.48041875086E+01 -0.16309897250E+03  0.16703222676E+03  0.10000000000E+01 0.  0.
<mgrwt>
<rscale>  0 0.12499057E+03</rscale>
<asrwt>0</asrwt>
<pdfrwt beam="1">  1        4 0.33071697E-02 0.12499057E+03</pdfrwt>
<pdfrwt beam="2">  1       -4 0.27951900E-01 0.12499057E+03</pdfrwt>
<totfact> 0.89620171E+03</totfact>
</mgrwt>
</event>
<event>
 5    1  0.3486589E-002  0.1250001E+03  0.7818608E-02  0.1235069E+00
          4   -1    0    0  501    0  0.00000000000E+00  0.00000000000E+00  0.50340562634E+01  0.51917841310E+01  0.12700000000E+01 0.  1.
         -4   -1    0    0    0  501 -0.00000000000E+00 -0.00000000000E+00 -0.76383895399E+03  0.76384000977E+03  0.12700000000E+01 0.  1.
         25    2    1    2    0    0  0.00000000000E+00  0.00000000000E+00 -0.75880489773E+03  0.76903179391E+03  0.12500010890E+03 0.  0.
    9000005    1    3    3    0    0  0.21482274346E+02  0.27581673499E+02 -0.69807588066E+03  0.69895148043E+03  0.10000000000E+01 0.  0.
    9000005    1    3    3    0    0 -0.21482274346E+02 -0.27581673499E+02 -0.60729017063E+02  0.70080313480E+02  0.10000000000E+01 0.  0.
<mgrwt>
<rscale>  0 0.12500011E+03</rscale>
<asrwt>0</asrwt>
<pdfrwt beam="1">  1        4 0.78668493E-03 0.12500011E+03</pdfrwt>
<pdfrwt beam="2">  1       -4 0.11752581E+00 0.12500011E+03</pdfrwt>
<totfact> 0.39679893E+03</totfact>
</mgrwt>
</event>
<event>
 5    1  0.3486589E-002  0.1249980E+03  0.7818608E-02  0.1235072E+00
          4   -1    0    0  501    0  0.00000000000E+00  0.00000000000E+00  0.85392584659E+03  0.85392679099E+03  0.12700000000E+01 0. -1.
         -4   -1    0    0    0  501 -0.00000000000E+00 -0.00000000000E+00 -0.44852014144E+01  0.46615374854E+01  0.12700000000E+01 0. -1.
         25    2    1    2    0    0  0.00000000000E+00  0.00000000000E+00  0.84944064518E+03  0.85858832848E+03  0.12499803247E+03 0.  0.
    9000005    1    3    3    0    0 -0.30311459260E+02  0.39999563459E+02  0.68047438279E+03  0.68232333631E+03  0.10000000000E+01 0.  0.
    9000005    1    3    3    0    0  0.30311459260E+02 -0.39999563459E+02  0.16896626238E+03  0.17626499217E+03  0.10000000000E+01 0.  0.
<mgrwt>
<rscale>  0 0.12499803E+03</rscale>
<asrwt>0</asrwt>
<pdfrwt beam="1">  1        4 0.13138672E+00 0.12499803E+03</pdfrwt>
<pdfrwt beam="2">  1       -4 0.70366859E-03 0.12499803E+03</pdfrwt>
<totfact> 0.35780004E+03</totfact>
</mgrwt>
</event>
<event>
 5    1  0.3486589E-002  0.1250139E+03  0.7818608E-02  0.1235048E+00
         -4   -1    0    0    0  501 -0.00000000000E+00  0.00000000000E+00  0.26929566149E+01  0.29774007674E+01  0.12700000000E+01 0. -1.
          4   -1    0    0  501    0  0.00000000000E+00 -0.00000000000E+00 -0.13778003350E+04  0.13778009203E+04  0.12700000000E+01 0. -1.
         25    2    1    2    0    0  0.00000000000E+00  0.00000000000E+00 -0.13751073784E+04  0.13807783211E+04  0.12501387878E+03 0.  0.
    9000005    1    3    3    0    0  0.23615142172E+02 -0.55360822417E+02 -0.50154399010E+03  0.50514341489E+03  0.10000000000E+01 0.  0.
    9000005    1    3    3    0    0 -0.23615142172E+02  0.55360822417E+02 -0.87356338831E+03  0.87563490622E+03  0.10000000000E+01 0.  0.
<mgrwt>
<rscale>  0 0.12501388E+03</rscale>
<asrwt>0</asrwt>
<pdfrwt beam="2">  1        4 0.21199067E+00 0.12501388E+03</pdfrwt>
<pdfrwt beam="1">  1       -4 0.43622746E-03 0.12501388E+03</pdfrwt>
<totfact> 0.20391094E+03</totfact>
</mgrwt>
</event>
<event>
 5    1  0.3486589E-002  0.1250229E+03  0.7818608E-02  0.1235034E+00
          4   -1    0    0  501    0  0.00000000000E+00  0.00000000000E+00  0.95762874060E+02  0.95771295012E+02  0.12700000000E+01 0.  1.
         -4   -1    0    0    0  501 -0.00000000000E+00 -0.00000000000E+00 -0.40785698904E+02  0.40805466976E+02  0.12700000000E+01 0.  1.
         25    2    1    2    0    0  0.00000000000E+00  0.00000000000E+00  0.54977175156E+02  0.13657676199E+03  0.12502288641E+03 0.  0.
    9000005    1    3    3    0    0 -0.56711138635E+02 -0.17949671735E+02  0.48454304188E+02  0.76727853841E+02  0.10000000000E+01 0.  0.
    9000005    1    3    3    0    0  0.56711138635E+02  0.17949671735E+02  0.65228709676E+01  0.59848908146E+02  0.10000000000E+01 0.  0.
<mgrwt>
<rscale>  0 0.12502289E+03</rscale>
<asrwt>0</asrwt>
<pdfrwt beam="1">  1        4 0.14734918E-01 0.12502289E+03</pdfrwt>
<pdfrwt beam="2">  1       -4 0.62768913E-02 0.12502289E+03</pdfrwt>
<totfact> 0.10199678E+04</totfact>
</mgrwt>
</event>
<event>
 5    1  0.3486589E-002  0.1250028E+03  0.7818608E-02  0.1235065E+00
          4   -1    0    0  501    0  0.00000000000E+00  0.00000000000E+00  0.13353530173E+03  0.13354134082E+03  0.12700000000E+01 0.  1.
         -4   -1    0    0    0  501 -0.00000000000E+00 -0.00000000000E+00 -0.29233381629E+02  0.29260955238E+02  0.12700000000E+01 0.  1.
         25    2    1    2    0    0  0.00000000000E+00  0.00000000000E+00  0.10430192010E+03  0.16280229605E+03  0.12500278823E+03 0.  0.
    9000005    1    3    3    0    0 -0.14560495387E+02 -0.28555632602E+02 -0.17718216227E+02  0.36638331914E+02  0.10000000000E+01 0.  0.
    9000005    1    3    3    0    0  0.14560495387E+02  0.28555632602E+02  0.12202013632E+03  0.12616396414E+03  0.10000000000E+01 0.  0.
<mgrwt>
<rscale>  0 0.12500279E+03</rscale>
<asrwt>0</asrwt>
<pdfrwt beam="1">  1        4 0.20546478E-01 0.12500279E+03</pdfrwt>
<pdfrwt beam="2">  1       -4 0.45000290E-02 0.12500279E+03</pdfrwt>
<totfact> 0.96799164E+03</totfact>
</mgrwt>
</event>
<event>
 5    1  0.3486589E-002  0.1250004E+03  0.7818608E-02  0.1235069E+00
         -4   -1    0    0    0  501 -0.00000000000E+00  0.00000000000E+00  0.59744461015E+02  0.59757957813E+02  0.12700000000E+01 0. -1.
          4   -1    0    0  501    0  0.00000000000E+00 -0.00000000000E+00 -0.65356012378E+02  0.65368350552E+02  0.12700000000E+01 0. -1.
         25    2    1    2    0    0  0.00000000000E+00  0.00000000000E+00 -0.56115513627E+01  0.12512630837E+03  0.12500041415E+03 0.  0.
    9000005    1    3    3    0    0 -0.16419957758E+02  0.25661457832E+02  0.51812447925E+02  0.60113685553E+02  0.10000000000E+01 0.  0.
    9000005    1    3    3    0    0  0.16419957758E+02 -0.25661457832E+02 -0.57423999287E+02  0.65012622813E+02  0.10000000000E+01 0.  0.
<mgrwt>
<rscale>  0 0.12500041E+03</rscale>
<asrwt>0</asrwt>
<pdfrwt beam="2">  1        4 0.10056758E-01 0.12500041E+03</pdfrwt>
<pdfrwt beam="1">  1       -4 0.91934429E-02 0.12500041E+03</pdfrwt>
<totfact> 0.10450022E+04</totfact>
</mgrwt>
</event>
<event>
 5    1  0.3486589E-002  0.1250000E+03  0.7818608E-02  0.1235069E+00
         -4   -1    0    0    0  501 -0.00000000000E+00  0.00000000000E+00  0.30740624129E+01  0.33260727169E+01  0.12700000000E+01 0. -1.
          4   -1    0    0  501    0  0.00000000000E+00 -0.00000000000E+00 -0.12204241798E+04  0.12204248406E+04  0.12700000000E+01 0. -1.
         25    2    1    2    0    0  0.00000000000E+00  0.00000000000E+00 -0.12173501174E+04  0.12237509133E+04  0.12499995811E+03 0.  0.
    9000005    1    3    3    0    0  0.38129361943E+02 -0.82672025717E+01 -0.10865892940E+04  0.10872899745E+04  0.10000000000E+01 0.  0.
    9000005    1    3    3    0    0 -0.38129361943E+02  0.82672025717E+01 -0.13076082344E+03  0.13646093883E+03  0.10000000000E+01 0.  0.
<mgrwt>
<rscale>  0 0.12499996E+03</rscale>
<asrwt>0</asrwt>
<pdfrwt beam="2">  1        4 0.18777663E+00 0.12499996E+03</pdfrwt>
<pdfrwt beam="1">  1       -4 0.49236989E-03 0.12499996E+03</pdfrwt>
<totfact> 0.24099489E+03</totfact>
</mgrwt>
</event>
<event>
 5    1  0.3486589E-002  0.1249979E+03  0.7818608E-02  0.1235073E+00
         -4   -1    0    0    0  501 -0.00000000000E+00  0.00000000000E+00  0.31943976282E+01  0.34375974469E+01  0.12700000000E+01 0. -1.
          4   -1    0    0  501    0  0.00000000000E+00 -0.00000000000E+00 -0.11777180326E+04  0.11777187173E+04  0.12700000000E+01 0. -1.
         25    2    1    2    0    0  0.00000000000E+00  0.00000000000E+00 -0.11745236349E+04  0.11811563148E+04  0.12499788355E+03 0.  0.
    9000005    1    3    3    0    0 -0.47050161381E+02  0.19928181593E+00 -0.97587970420E+03  0.97701379441E+03  0.10000000000E+01 0.  0.
    9000005    1    3    3    0    0  0.47050161381E+02 -0.19928181593E+00 -0.19864393073E+03  0.20414252035E+03  0.10000000000E+01 0.  0.
<mgrwt>
<rscale>  0 0.12499788E+03</rscale>
<asrwt>0</asrwt>
<pdfrwt beam="2">  1        4 0.18120582E+00 0.12499788E+03</pdfrwt>
<pdfrwt beam="1">  1       -4 0.51020708E-03 0.12499788E+03</pdfrwt>
<totfact> 0.25212599E+03</totfact>
</mgrwt>
</event>
<event>
 5    1  0.3486589E-002  0.1250002E+03  0.7818608E-02  0.1235069E+00
          4   -1    0    0  501    0  0.00000000000E+00  0.00000000000E+00  0.32668628566E+01  0.35050382200E+01  0.12700000000E+01 0. -1.
         -4   -1    0    0    0  501 -0.00000000000E+00 -0.00000000000E+00 -0.11534286695E+04  0.11534293687E+04  0.12700000000E+01 0. -1.
         25    2    1    2    0    0  0.00000000000E+00  0.00000000000E+00 -0.11501618067E+04  0.11569344069E+04  0.12500016160E+03 0.  0.
    9000005    1    3    3    0    0 -0.40123361769E+02 -0.47450862645E+02 -0.63632911924E+03  0.63935687727E+03  0.10000000000E+01 0.  0.
    9000005    1    3    3    0    0  0.40123361769E+02  0.47450862645E+02 -0.51383268745E+03  0.51757752967E+03  0.10000000000E+01 0.  0.
<mgrwt>
<rscale>  0 0.12500016E+03</rscale>
<asrwt>0</asrwt>
<pdfrwt beam="1">  1        4 0.52097017E-03 0.12500016E+03</pdfrwt>
<pdfrwt beam="2">  1       -4 0.17746863E+00 0.12500016E+03</pdfrwt>
<totfact> 0.25868574E+03</totfact>
</mgrwt>
</event>
<event>
 5    1  0.3486589E-002  0.1250009E+03  0.7818608E-02  0.1235068E+00
         -4   -1    0    0    0  501 -0.00000000000E+00  0.00000000000E+00  0.66944152882E+01  0.68138165554E+01  0.12700000000E+01 0. -1.
          4   -1    0    0  501    0  0.00000000000E+00 -0.00000000000E+00 -0.57823951034E+03  0.57824090501E+03  0.12700000000E+01 0. -1.
         25    2    1    2    0    0  0.00000000000E+00  0.00000000000E+00 -0.57154509506E+03  0.58505472156E+03  0.12500092615E+03 0.  0.
    9000005    1    3    3    0    0 -0.28103474484E+02  0.39394284907E+02 -0.10069867774E+03  0.11172707219E+03  0.10000000000E+01 0.  0.
    9000005    1    3    3    0    0  0.28103474484E+02 -0.39394284907E+02 -0.47084641732E+03  0.47332764937E+03  0.10000000000E+01 0.  0.
<mgrwt>
<rscale>  0 0.12500093E+03</rscale>
<asrwt>0</asrwt>
<pdfrwt beam="2">  1        4 0.88969178E-01 0.12500093E+03</pdfrwt>
<pdfrwt beam="1">  1       -4 0.10392025E-02 0.12500093E+03</pdfrwt>
<totfact> 0.49823800E+03</totfact>
</mgrwt>
</event>
<event>
 5    1  0.3486589E-002  0.1249961E+03  0.7818608E-02  0.1235075E+00
         -4   -1    0    0    0  501 -0.00000000000E+00  0.00000000000E+00  0.22931735997E+02  0.22966876493E+02  0.12700000000E+01 0. -1.
          4   -1    0    0  501    0  0.00000000000E+00 -0.00000000000E+00 -0.17016404868E+03  0.17016878787E+03  0.12700000000E+01 0. -1.
         25    2    1    2    0    0  0.00000000000E+00  0.00000000000E+00 -0.14723231269E+03  0.19313566436E+03  0.12499612374E+03 0.  0.
    9000005    1    3    3    0    0  0.50347195321E+02  0.27218446086E+02 -0.34854437317E+02  0.67018771137E+02  0.10000000000E+01 0.  0.
    9000005    1    3    3    0    0 -0.50347195321E+02 -0.27218446086E+02 -0.11237787537E+03  0.12611689322E+03  0.10000000000E+01 0.  0.
<mgrwt>
<rscale>  0 0.12499612E+03</rscale>
<asrwt>0</asrwt>
<pdfrwt beam="2">  1        4 0.26182151E-01 0.12499612E+03</pdfrwt>
<pdfrwt beam="1">  1       -4 0.35310272E-02 0.12499612E+03</pdfrwt>
<totfact> 0.91312490E+03</totfact>
</mgrwt>
</event>
<event>
 5    1  0.3486589E-002  0.1249993E+03  0.7818608E-02  0.1235070E+00
         -4   -1    0    0    0  501 -0.00000000000E+00  0.00000000000E+00  0.18417599309E+02  0.18461334304E+02  0.12700000000E+01 0. -1.
          4   -1    0    0  501    0  0.00000000000E+00 -0.00000000000E+00 -0.21179380769E+03  0.21179761537E+03  0.12700000000E+01 0. -1.
         25    2    1    2    0    0  0.00000000000E+00  0.00000000000E+00 -0.19337620838E+03  0.23025894967E+03  0.12499930374E+03 0.  0.
    9000005    1    3    3    0    0 -0.77378316359E+01  0.50844731497E+02 -0.16207930469E+03  0.17004635182E+03  0.10000000000E+01 0.  0.
    9000005    1    3    3    0    0  0.77378316359E+01 -0.50844731497E+02 -0.31296903695E+02  0.60212597853E+02  0.10000000000E+01 0.  0.
<mgrwt>
<rscale>  0 0.12499930E+03</rscale>
<asrwt>0</asrwt>
<pdfrwt beam="2">  1        4 0.32587318E-01 0.12499930E+03</pdfrwt>
<pdfrwt beam="1">  1       -4 0.28371341E-02 0.12499930E+03</pdfrwt>
<totfact> 0.85271176E+03</totfact>
</mgrwt>
</event>
<event>
 5    1  0.3486589E-002  0.1249875E+03  0.7818608E-02  0.1235089E+00
         -4   -1    0    0    0  501 -0.00000000000E+00  0.00000000000E+00  0.55713216517E+02  0.55727689659E+02  0.12700000000E+01 0.  1.
          4   -1    0    0  501    0  0.00000000000E+00 -0.00000000000E+00 -0.70070126549E+02  0.70081634788E+02  0.12700000000E+01 0.  1.
         25    2    1    2    0    0  0.00000000000E+00  0.00000000000E+00 -0.14356910032E+02  0.12580932445E+03  0.12498746038E+03 0.  0.
    9000005    1    3    3    0    0  0.16224761406E+02  0.20111046084E+02  0.50088258068E+02  0.56369589794E+02  0.10000000000E+01 0.  0.
    9000005    1    3    3    0    0 -0.16224761406E+02 -0.20111046084E+02 -0.64445168099E+02  0.69439734652E+02  0.10000000000E+01 0.  0.
<mgrwt>
<rscale>  0 0.12498746E+03</rscale>
<asrwt>0</asrwt>
<pdfrwt beam="2">  1        4 0.10782018E-01 0.12498746E+03</pdfrwt>
<pdfrwt beam="1">  1       -4 0.85732626E-02 0.12498746E+03</pdfrwt>
<totfact> 0.10438094E+04</totfact>
</mgrwt>
</event>
<event>
 5    1  0.3486589E-002  0.1250022E+03  0.7818608E-02  0.1235066E+00
         -4   -1    0    0    0  501 -0.00000000000E+00  0.00000000000E+00  0.80623714538E+01  0.81617849432E+01  0.12700000000E+01 0. -1.
          4   -1    0    0  501    0  0.00000000000E+00 -0.00000000000E+00 -0.48145169890E+03  0.48145337394E+03  0.12700000000E+01 0. -1.
         25    2    1    2    0    0  0.00000000000E+00  0.00000000000E+00 -0.47338932745E+03  0.48961515888E+03  0.12500219384E+03 0.  0.
    9000005    1    3    3    0    0  0.42243920084E+02 -0.19180474292E+02 -0.40068630200E+03  0.40336453982E+03  0.10000000000E+01 0.  0.
    9000005    1    3    3    0    0 -0.42243920084E+02  0.19180474292E+02 -0.72703025452E+02  0.86250619059E+02  0.10000000000E+01 0.  0.
<mgrwt>
<rscale>  0 0.12500219E+03</rscale>
<asrwt>0</asrwt>
<pdfrwt beam="2">  1        4 0.74077246E-01 0.12500219E+03</pdfrwt>
<pdfrwt beam="1">  1       -4 0.12481413E-02 0.12500219E+03</pdfrwt>
<totfact> 0.56676476E+03</totfact>
</mgrwt>
</event>
<event>
 5    1  0.3486589E-002  0.1250005E+03  0.7818608E-02  0.1235069E+00
          4   -1    0    0  501    0  0.00000000000E+00  0.00000000000E+00  0.16233553565E+03  0.16234050337E+03  0.12700000000E+01 0. -1.
         -4   -1    0    0    0  501 -0.00000000000E+00 -0.00000000000E+00 -0.24040892080E+02  0.24074413637E+02  0.12700000000E+01 0. -1.
         25    2    1    2    0    0  0.00000000000E+00  0.00000000000E+00  0.13829464357E+03  0.18641491701E+03  0.12500045137E+03 0.  0.
    9000005    1    3    3    0    0  0.50024917518E+02 -0.33461028328E+02  0.44053093060E+02  0.74590936431E+02  0.10000000000E+01 0.  0.
    9000005    1    3    3    0    0 -0.50024917518E+02  0.33461028328E+02  0.94241550510E+02  0.11182398058E+03  0.10000000000E+01 0.  0.
<mgrwt>
<rscale>  0 0.12500045E+03</rscale>
<asrwt>0</asrwt>
<pdfrwt beam="1">  1        4 0.24977659E-01 0.12500045E+03</pdfrwt>
<pdfrwt beam="2">  1       -4 0.37015595E-02 0.12500045E+03</pdfrwt>
<totfact> 0.92473940E+03</totfact>
</mgrwt>
</event>
<event>
 5    1  0.3486589E-002  0.1250008E+03  0.7818608E-02  0.1235068E+00
          4   -1    0    0  501    0  0.00000000000E+00  0.00000000000E+00  0.30936385696E+02  0.30962442732E+02  0.12700000000E+01 0.  1.
         -4   -1    0    0    0  501 -0.00000000000E+00 -0.00000000000E+00 -0.12618640743E+03  0.12619279821E+03  0.12700000000E+01 0.  1.
         25    2    1    2    0    0  0.00000000000E+00  0.00000000000E+00 -0.95250021734E+02  0.15715524094E+03  0.12500081246E+03 0.  0.
    9000005    1    3    3    0    0 -0.18126266949E+02  0.37614689317E+02  0.10831280595E+02  0.43147920521E+02  0.10000000000E+01 0.  0.
    9000005    1    3    3    0    0  0.18126266949E+02 -0.37614689317E+02 -0.10608130233E+03  0.11400732042E+03  0.10000000000E+01 0.  0.
<mgrwt>
<rscale>  0 0.12500081E+03</rscale>
<asrwt>0</asrwt>
<pdfrwt beam="1">  1        4 0.47619400E-02 0.12500081E+03</pdfrwt>
<pdfrwt beam="2">  1       -4 0.19415789E-01 0.12500081E+03</pdfrwt>
<totfact> 0.97892264E+03</totfact>
</mgrwt>
</event>
<event>
 5    1  0.3486589E-002  0.1249997E+03  0.7818608E-02  0.1235070E+00
         -4   -1    0    0    0  501 -0.00000000000E+00  0.00000000000E+00  0.58004746494E+03  0.58004885525E+03  0.12700000000E+01 0. -1.
          4   -1    0    0  501    0  0.00000000000E+00 -0.00000000000E+00 -0.66730413167E+01  0.67928182968E+01  0.12700000000E+01 0. -1.
         25    2    1    2    0    0  0.00000000000E+00  0.00000000000E+00  0.57337442362E+03  0.58684167355E+03  0.12499968061E+03 0.  0.
    9000005    1    3    3    0    0  0.26650934243E+02 -0.41551962329E+02  0.46658800304E+03  0.46919313981E+03  0.10000000000E+01 0.  0.
    9000005    1    3    3    0    0 -0.26650934243E+02  0.41551962329E+02  0.10678642059E+03  0.11764853374E+03  0.10000000000E+01 0.  0.
<mgrwt>
<rscale>  0 0.12499968E+03</rscale>
<asrwt>0</asrwt>
<pdfrwt beam="2">  1        4 0.10359427E-02 0.12499968E+03</pdfrwt>
<pdfrwt beam="1">  1       -4 0.89247361E-01 0.12499968E+03</pdfrwt>
<totfact> 0.49709238E+03</totfact>
</mgrwt>
</event>
<event>
 5    1  0.3486589E-002  0.1249954E+03  0.7818608E-02  0.1235076E+00
          4   -1    0    0  501    0  0.00000000000E+00  0.00000000000E+00  0.35560322592E+03  0.35560549375E+03  0.12700000000E+01 0.  1.
         -4   -1    0    0    0  501 -0.00000000000E+00 -0.00000000000E+00 -0.10945025356E+02  0.11018460875E+02  0.12700000000E+01 0.  1.
         25    2    1    2    0    0  0.00000000000E+00  0.00000000000E+00  0.34465820057E+03  0.36662395463E+03  0.12499539547E+03 0.  0.
    9000005    1    3    3    0    0 -0.57170238934E+02  0.21431810434E+02  0.21137387984E+03  0.22001744430E+03  0.10000000000E+01 0.  0.
    9000005    1    3    3    0    0  0.57170238934E+02 -0.21431810434E+02  0.13328432073E+03  0.14660651033E+03  0.10000000000E+01 0.  0.
<mgrwt>
<rscale>  0 0.12499540E+03</rscale>
<asrwt>0</asrwt>
<pdfrwt beam="1">  1        4 0.54714011E-01 0.12499540E+03</pdfrwt>
<pdfrwt beam="2">  1       -4 0.16896734E-02 0.12499540E+03</pdfrwt>
<totfact> 0.67940535E+03</totfact>
</mgrwt>
</event>
<event>
 5    1  0.3486589E-002  0.1250019E+03  0.7818608E-02  0.1235066E+00
         -4   -1    0    0    0  501 -0.00000000000E+00  0.00000000000E+00  0.64851802601E+02  0.64864236684E+02  0.12700000000E+01 0.  1.
          4   -1    0    0  501    0  0.00000000000E+00 -0.00000000000E+00 -0.60210385918E+02  0.60223778297E+02  0.12700000000E+01 0.  1.
         25    2    1    2    0    0  0.00000000000E+00  0.00000000000E+00  0.46414166829E+01  0.12508801498E+03  0.12500187496E+03 0.  0.
    9000005    1    3    3    0    0  0.45445100513E+02  0.39830731328E+02 -0.13615807446E+02  0.61952679774E+02  0.10000000000E+01 0.  0.
    9000005    1    3    3    0    0 -0.45445100513E+02 -0.39830731328E+02  0.18257224129E+02  0.63135335207E+02  0.10000000000E+01 0.  0.
<mgrwt>
<rscale>  0 0.12500187E+03</rscale>
<asrwt>0</asrwt>
<pdfrwt beam="2">  1        4 0.92651229E-02 0.12500187E+03</pdfrwt>
<pdfrwt beam="1">  1       -4 0.99791871E-02 0.12500187E+03</pdfrwt>
<totfact> 0.10450508E+04</totfact>
</mgrwt>
</event>
<event>
 5    1  0.3486589E-002  0.1249991E+03  0.7818608E-02  0.1235071E+00
         -4   -1    0    0    0  501 -0.00000000000E+00  0.00000000000E+00  0.14990906836E+03  0.14991444786E+03  0.12700000000E+01 0. -1.
          4   -1    0    0  501    0  0.00000000000E+00 -0.00000000000E+00 -0.26035741850E+02  0.26066698174E+02  0.12700000000E+01 0. -1.
         25    2    1    2    0    0  0.00000000000E+00  0.00000000000E+00  0.12387332651E+03  0.17598114603E+03  0.12499905095E+03 0.  0.
    9000005    1    3    3    0    0 -0.30549636948E+02 -0.14688599949E+02 -0.11974710806E+02  0.35964273731E+02  0.10000000000E+01 0.  0.
    9000005    1    3    3    0    0  0.30549636948E+02  0.14688599949E+02  0.13584803732E+03  0.14001687230E+03  0.10000000000E+01 0.  0.
<mgrwt>
<rscale>  0 0.12499905E+03</rscale>
<asrwt>0</asrwt>
<pdfrwt beam="2">  1        4 0.40082938E-02 0.12499905E+03</pdfrwt>
<pdfrwt beam="1">  1       -4 0.23065729E-01 0.12499905E+03</pdfrwt>
<totfact> 0.94347461E+03</totfact>
</mgrwt>
</event>
<event>
 5    1  0.3486589E-002  0.1249987E+03  0.7818608E-02  0.1235071E+00
         -4   -1    0    0    0  501 -0.00000000000E+00  0.00000000000E+00  0.87711024228E+03  0.87711116172E+03  0.12700000000E+01 0.  1.
          4   -1    0    0  501    0  0.00000000000E+00 -0.00000000000E+00 -0.43619694143E+01  0.45430911471E+01  0.12700000000E+01 0.  1.
         25    2    1    2    0    0  0.00000000000E+00  0.00000000000E+00  0.87274827286E+03  0.88165425286E+03  0.12499869522E+03 0.  0.
    9000005    1    3    3    0    0 -0.18538024993E+00  0.12238806468E+02  0.41412686489E+01  0.12960434237E+02  0.10000000000E+01 0.  0.
    9000005    1    3    3    0    0  0.18538024993E+00 -0.12238806468E+02  0.86860700421E+03  0.86869381863E+03  0.10000000000E+01 0.  0.
<mgrwt>
<rscale>  0 0.12499870E+03</rscale>
<asrwt>0</asrwt>
<pdfrwt beam="2">  1        4 0.68507543E-03 0.12499870E+03</pdfrwt>
<pdfrwt beam="1">  1       -4 0.13495403E+00 0.12499870E+03</pdfrwt>
<totfact> 0.34866826E+03</totfact>
</mgrwt>
</event>
<event>
 5    1  0.3486589E-002  0.1249998E+03  0.7818608E-02  0.1235070E+00
          4   -1    0    0  501    0  0.00000000000E+00  0.00000000000E+00  0.11902449599E+04  0.11902456374E+04  0.12700000000E+01 0.  1.
         -4   -1    0    0    0  501 -0.00000000000E+00 -0.00000000000E+00 -0.31583092202E+01  0.34040882965E+01  0.12700000000E+01 0.  1.
         25    2    1    2    0    0  0.00000000000E+00  0.00000000000E+00  0.11870866506E+04  0.11936497257E+04  0.12499980620E+03 0.  0.
    9000005    1    3    3    0    0 -0.38936159600E+02  0.34520264922E+02  0.92400191952E+03  0.92546648805E+03  0.10000000000E+01 0.  0.
    9000005    1    3    3    0    0  0.38936159600E+02 -0.34520264922E+02  0.26308473111E+03  0.26818323765E+03  0.10000000000E+01 0.  0.
<mgrwt>
<rscale>  0 0.12499981E+03</rscale>
<asrwt>0</asrwt>
<pdfrwt beam="1">  1        4 0.18313378E+00 0.12499981E+03</pdfrwt>
<pdfrwt beam="2">  1       -4 0.50485133E-03 0.12499981E+03</pdfrwt>
<totfact> 0.24879640E+03</totfact>
</mgrwt>
</event>
<event>
 5    1  0.3486589E-002  0.1249982E+03  0.7818608E-02  0.1235072E+00
         -4   -1    0    0    0  501 -0.00000000000E+00  0.00000000000E+00  0.23450701027E+03  0.23451044916E+03  0.12700000000E+01 0. -1.
          4   -1    0    0  501    0  0.00000000000E+00 -0.00000000000E+00 -0.16629021679E+02  0.16677447706E+02  0.12700000000E+01 0. -1.
         25    2    1    2    0    0  0.00000000000E+00  0.00000000000E+00  0.21787798859E+03  0.25118789686E+03  0.12499816647E+03 0.  0.
    9000005    1    3    3    0    0  0.42682598309E+02 -0.38755737292E+02  0.15739015730E+03  0.16762002561E+03  0.10000000000E+01 0.  0.
    9000005    1    3    3    0    0 -0.42682598309E+02  0.38755737292E+02  0.60487831285E+02  0.83567871248E+02  0.10000000000E+01 0.  0.
<mgrwt>
<rscale>  0 0.12499817E+03</rscale>
<asrwt>0</asrwt>
<pdfrwt beam="2">  1        4 0.25623006E-02 0.12499817E+03</pdfrwt>
<pdfrwt beam="1">  1       -4 0.36081992E-01 0.12499817E+03</pdfrwt>
<totfact> 0.82162196E+03</totfact>
</mgrwt>
</event>
<event>
 5    1  0.3486589E-002  0.1250054E+03  0.7818608E-02  0.1235061E+00
         -4   -1    0    0    0  501 -0.00000000000E+00  0.00000000000E+00  0.37582453863E+02  0.37603905893E+02  0.12700000000E+01 0. -1.
          4   -1    0    0  501    0  0.00000000000E+00 -0.00000000000E+00 -0.10389213724E+03  0.10389989932E+03  0.12700000000E+01 0. -1.
         25    2    1    2    0    0  0.00000000000E+00  0.00000000000E+00 -0.66309683373E+02  0.14150380522E+03  0.12500541101E+03 0.  0.
    9000005    1    3    3    0    0 -0.11251584755E+02 -0.31651564930E+01 -0.10264939240E+03  0.10331754031E+03  0.10000000000E+01 0.  0.
    9000005    1    3    3    0    0  0.11251584755E+02  0.31651564930E+01  0.36339709030E+02  0.38186264906E+02  0.10000000000E+01 0.  0.
<mgrwt>
<rscale>  0 0.12500541E+03</rscale>
<asrwt>0</asrwt>
<pdfrwt beam="2">  1        4 0.15985653E-01 0.12500541E+03</pdfrwt>
<pdfrwt beam="1">  1       -4 0.57841633E-02 0.12500541E+03</pdfrwt>
<totfact> 0.10101282E+04</totfact>
</mgrwt>
</event>
<event>
 5    1  0.3486589E-002  0.1250021E+03  0.7818608E-02  0.1235066E+00
         -4   -1    0    0    0  501 -0.00000000000E+00  0.00000000000E+00  0.26755145207E+02  0.26785270114E+02  0.12700000000E+01 0.  1.
          4   -1    0    0  501    0  0.00000000000E+00 -0.00000000000E+00 -0.14588987556E+03  0.14589540325E+03  0.12700000000E+01 0.  1.
         25    2    1    2    0    0  0.00000000000E+00  0.00000000000E+00 -0.11913473035E+03  0.17268067337E+03  0.12500212390E+03 0.  0.
    9000005    1    3    3    0    0 -0.55677702653E+02 -0.26100150167E+02 -0.74960046496E+02  0.96959955560E+02  0.10000000000E+01 0.  0.
    9000005    1    3    3    0    0  0.55677702653E+02  0.26100150167E+02 -0.44174683855E+02  0.75720717807E+02  0.10000000000E+01 0.  0.
<mgrwt>
<rscale>  0 0.12500212E+03</rscale>
<asrwt>0</asrwt>
<pdfrwt beam="2">  1        4 0.22447338E-01 0.12500212E+03</pdfrwt>
<pdfrwt beam="1">  1       -4 0.41189188E-02 0.12500212E+03</pdfrwt>
<totfact> 0.94946819E+03</totfact>
</mgrwt>
</event>
<event>
 5    1  0.3486589E-002  0.1249961E+03  0.7818608E-02  0.1235075E+00
          4   -1    0    0  501    0  0.00000000000E+00  0.00000000000E+00  0.25052649145E+01  0.28087812823E+01  0.12700000000E+01 0. -1.
         -4   -1    0    0    0  501 -0.00000000000E+00 -0.00000000000E+00 -0.14697655651E+04  0.14697661138E+04  0.12700000000E+01 0. -1.
         25    2    1    2    0    0  0.00000000000E+00  0.00000000000E+00 -0.14672603002E+04  0.14725748951E+04  0.12499613236E+03 0.  0.
    9000005    1    3    3    0    0  0.22342999358E+02 -0.54538291326E+02 -0.97831524531E+03  0.98008946227E+03  0.10000000000E+01 0.  0.
    9000005    1    3    3    0    0 -0.22342999358E+02  0.54538291326E+02 -0.48894505490E+03  0.49248543283E+03  0.10000000000E+01 0.  0.
<mgrwt>
<rscale>  0 0.12499613E+03</rscale>
<asrwt>0</asrwt>
<pdfrwt beam="1">  1        4 0.40881617E-03 0.12499613E+03</pdfrwt>
<pdfrwt beam="2">  1       -4 0.22614052E+00 0.12499613E+03</pdfrwt>
<totfact> 0.18476699E+03</totfact>
</mgrwt>
</event>
<event>
 5    1  0.3486589E-002  0.1249984E+03  0.7818608E-02  0.1235072E+00
         -4   -1    0    0    0  501 -0.00000000000E+00  0.00000000000E+00  0.16785946837E+02  0.16833921445E+02  0.12700000000E+01 0.  1.
          4   -1    0    0  501    0  0.00000000000E+00 -0.00000000000E+00 -0.23232171399E+03  0.23232518523E+03  0.12700000000E+01 0.  1.
         25    2    1    2    0    0  0.00000000000E+00  0.00000000000E+00 -0.21553576715E+03  0.24915910667E+03  0.12499837405E+03 0.  0.
    9000005    1    3    3    0    0 -0.59501385729E+00 -0.25367083374E+02 -0.22160087196E+03  0.22305109149E+03  0.10000000000E+01 0.  0.
    9000005    1    3    3    0    0  0.59501385729E+00  0.25367083374E+02  0.60651048096E+01  0.26108015182E+02  0.10000000000E+01 0.  0.
<mgrwt>
<rscale>  0 0.12499837E+03</rscale>
<asrwt>0</asrwt>
<pdfrwt beam="2">  1        4 0.35745757E-01 0.12499837E+03</pdfrwt>
<pdfrwt beam="1">  1       -4 0.25864109E-02 0.12499837E+03</pdfrwt>
<totfact> 0.82454903E+03</totfact>
</mgrwt>
</event>
<event>
 5    1  0.3486589E-002  0.1249990E+03  0.7818608E-02  0.1235071E+00
          4   -1    0    0  501    0  0.00000000000E+00  0.00000000000E+00  0.17771917633E+03  0.17772371405E+03  0.12700000000E+01 0.  1.
         -4   -1    0    0    0  501 -0.00000000000E+00 -0.00000000000E+00 -0.21956368090E+02  0.21993067083E+02  0.12700000000E+01 0.  1.
         25    2    1    2    0    0  0.00000000000E+00  0.00000000000E+00  0.15576280824E+03  0.19971678114E+03  0.12499896094E+03 0.  0.
    9000005    1    3    3    0    0  0.35289026664E+02  0.46382170835E+02  0.41850022720E+02  0.71756850376E+02  0.10000000000E+01 0.  0.
    9000005    1    3    3    0    0 -0.35289026664E+02 -0.46382170835E+02  0.11391278552E+03  0.12795993076E+03  0.10000000000E+01 0.  0.
<mgrwt>
<rscale>  0 0.12499896E+03</rscale>
<asrwt>0</asrwt>
<pdfrwt beam="1">  1        4 0.27344583E-01 0.12499896E+03</pdfrwt>
<pdfrwt beam="2">  1       -4 0.33810750E-02 0.12499896E+03</pdfrwt>
<totfact> 0.90185393E+03</totfact>
</mgrwt>
</event>
<event>
 5    1  0.3486589E-002  0.1250017E+03  0.7818608E-02  0.1235067E+00
          4   -1    0    0  501    0  0.00000000000E+00  0.00000000000E+00  0.22241243572E+02  0.22277473278E+02  0.12700000000E+01 0.  1.
         -4   -1    0    0    0  501 -0.00000000000E+00 -0.00000000000E+00 -0.17545410231E+03  0.17545869861E+03  0.12700000000E+01 0.  1.
         25    2    1    2    0    0  0.00000000000E+00  0.00000000000E+00 -0.15321285874E+03  0.19773617189E+03  0.12500165435E+03 0.  0.
    9000005    1    3    3    0    0  0.58705856663E+02  0.20453217954E+02 -0.66521888879E+02  0.91054233461E+02  0.10000000000E+01 0.  0.
    9000005    1    3    3    0    0 -0.58705856663E+02 -0.20453217954E+02 -0.86690969861E+02  0.10668193843E+03  0.10000000000E+01 0.  0.
<mgrwt>
<rscale>  0 0.12500165E+03</rscale>
<asrwt>0</asrwt>
<pdfrwt beam="1">  1        4 0.34248704E-02 0.12500165E+03</pdfrwt>
<pdfrwt beam="2">  1       -4 0.26996078E-01 0.12500165E+03</pdfrwt>
<totfact> 0.90515046E+03</totfact>
</mgrwt>
</event>
<event>
 5    1  0.3486589E-002  0.1250024E+03  0.7818608E-02  0.1235066E+00
          4   -1    0    0  501    0  0.00000000000E+00  0.00000000000E+00  0.94601879573E+02  0.94610403861E+02  0.12700000000E+01 0.  1.
         -4   -1    0    0    0  501 -0.00000000000E+00 -0.00000000000E+00 -0.41272889135E+02  0.41292423973E+02  0.12700000000E+01 0.  1.
         25    2    1    2    0    0  0.00000000000E+00  0.00000000000E+00  0.53328990438E+02  0.13590282783E+03  0.12500238955E+03 0.  0.
    9000005    1    3    3    0    0  0.48632256824E+02  0.32029995848E+02  0.20067596550E+01  0.58275587703E+02  0.10000000000E+01 0.  0.
    9000005    1    3    3    0    0 -0.48632256824E+02 -0.32029995848E+02  0.51322230783E+02  0.77627240131E+02  0.10000000000E+01 0.  0.
<mgrwt>
<rscale>  0 0.12500239E+03</rscale>
<asrwt>0</asrwt>
<pdfrwt beam="1">  1        4 0.14556294E-01 0.12500239E+03</pdfrwt>
<pdfrwt beam="2">  1       -4 0.63518336E-02 0.12500239E+03</pdfrwt>
<totfact> 0.10218526E+04</totfact>
</mgrwt>
</event>
<event>
 5    1  0.3486589E-002  0.1249985E+03  0.7818608E-02  0.1235072E+00
         -4   -1    0    0    0  501 -0.00000000000E+00  0.00000000000E+00  0.22354729006E+02  0.22390775086E+02  0.12700000000E+01 0. -1.
          4   -1    0    0  501    0  0.00000000000E+00 -0.00000000000E+00 -0.17455610203E+03  0.17456072197E+03  0.12700000000E+01 0. -1.
         25    2    1    2    0    0  0.00000000000E+00  0.00000000000E+00 -0.15220137302E+03  0.19695149706E+03  0.12499853697E+03 0.  0.
    9000005    1    3    3    0    0 -0.39892257582E+02  0.47047029243E+02 -0.60317353096E+02  0.86278608357E+02  0.10000000000E+01 0.  0.
    9000005    1    3    3    0    0  0.39892257582E+02 -0.47047029243E+02 -0.91884019929E+02  0.11067288870E+03  0.10000000000E+01 0.  0.
<mgrwt>
<rscale>  0 0.12499854E+03</rscale>
<asrwt>0</asrwt>
<pdfrwt beam="2">  1        4 0.26857912E-01 0.12499854E+03</pdfrwt>
<pdfrwt beam="1">  1       -4 0.34423174E-02 0.12499854E+03</pdfrwt>
<totfact> 0.90654617E+03</totfact>
</mgrwt>
</event>
<event>
 4    1  0.3486589E-002  0.1251422E+03  0.7818608E-02  0.1234847E+00
         -4   -1    0    0    0  501 -0.00000000000E+00  0.00000000000E+00  0.33149523555E+02  0.33173842285E+02  0.12700000000E+01 0.  1.
          4   -1    0    0  501    0  0.00000000000E+00 -0.00000000000E+00 -0.11803457242E+03  0.11804140454E+03  0.12700000000E+01 0.  1.
    9000005    1    1    2    0    0  0.26580119225E+02  0.55083781334E+02 -0.58355088932E+02  0.84540180437E+02  0.10000000000E+01 0.  0.
    9000005    1    1    2    0    0 -0.26580119225E+02 -0.55083781334E+02 -0.26529959932E+02  0.66675066390E+02  0.10000000000E+01 0.  0.
<mgrwt>
<rscale>  0 0.12514224E+03</rscale>
<asrwt>0</asrwt>
<pdfrwt beam="2">  1        4 0.18161561E-01 0.12514224E+03</pdfrwt>
<pdfrwt beam="1">  1       -4 0.51023230E-02 0.12514224E+03</pdfrwt>
<totfact> 0.98745606E+03</totfact>
</mgrwt>
</event>
<event>
 5    1  0.3486589E-002  0.1249987E+03  0.7818608E-02  0.1235071E+00
          4   -1    0    0  501    0  0.00000000000E+00  0.00000000000E+00  0.56313763586E+01  0.57728069162E+01  0.12700000000E+01 0. -1.
         -4   -1    0    0    0  501 -0.00000000000E+00 -0.00000000000E+00 -0.68489883750E+03  0.68490001497E+03  0.12700000000E+01 0. -1.
         25    2    1    2    0    0  0.00000000000E+00  0.00000000000E+00 -0.67926746114E+03  0.69067282189E+03  0.12499865251E+03 0.  0.
    9000005    1    3    3    0    0  0.48467766484E+02 -0.39346615459E+02 -0.32411791283E+03  0.33007681221E+03  0.10000000000E+01 0.  0.
    9000005    1    3    3    0    0 -0.48467766484E+02  0.39346615459E+02 -0.35514954831E+03  0.36059600968E+03  0.10000000000E+01 0.  0.
<mgrwt>
<rscale>  0 0.12499865E+03</rscale>
<asrwt>0</asrwt>
<pdfrwt beam="1">  1        4 0.87733598E-03 0.12499865E+03</pdfrwt>
<pdfrwt beam="2">  1       -4 0.10537996E+00 0.12499865E+03</pdfrwt>
<totfact> 0.43584960E+03</totfact>
</mgrwt>
</event>
<event>
 5    1  0.3486589E-002  0.1249961E+03  0.7818608E-02  0.1235075E+00
         -4   -1    0    0    0  501 -0.00000000000E+00  0.00000000000E+00  0.26003477816E+04  0.26003480917E+04  0.12700000000E+01 0.  1.
          4   -1    0    0  501    0  0.00000000000E+00 -0.00000000000E+00 -0.12333036011E+01  0.17702931318E+01  0.12700000000E+01 0.  1.
         25    2    1    2    0    0  0.00000000000E+00  0.00000000000E+00  0.25991144780E+04  0.26021183849E+04  0.12499607634E+03 0.  0.
    9000005    1    3    3    0    0  0.45120664086E+01  0.25842374671E+02  0.24802690174E+04  0.24804079474E+04  0.10000000000E+01 0.  0.
    9000005    1    3    3    0    0 -0.45120664086E+01 -0.25842374671E+02  0.11884546064E+03  0.12171043746E+03  0.10000000000E+01 0.  0.
<mgrwt>
<rscale>  0 0.12499608E+03</rscale>
<asrwt>0</asrwt>
<pdfrwt beam="2">  1        4 0.23107008E-03 0.12499608E+03</pdfrwt>
<pdfrwt beam="1">  1       -4 0.40009428E+00 0.12499608E+03</pdfrwt>
<totfact> 0.39161849E+02</totfact>
</mgrwt>
</event>
<event>
 5    1  0.3486589E-002  0.1250212E+03  0.7818608E-02  0.1235036E+00
         -4   -1    0    0    0  501 -0.00000000000E+00  0.00000000000E+00  0.40928436043E+03  0.40928633081E+03  0.12700000000E+01 0. -1.
          4   -1    0    0  501    0  0.00000000000E+00 -0.00000000000E+00 -0.95030943383E+01  0.95875806126E+01  0.12700000000E+01 0. -1.
         25    2    1    2    0    0  0.00000000000E+00  0.00000000000E+00  0.39978126609E+03  0.41887391142E+03  0.12502117004E+03 0.  0.
    9000005    1    3    3    0    0  0.32986366500E+02 -0.50609189320E+02  0.14616015174E+03  0.15815555753E+03  0.10000000000E+01 0.  0.
    9000005    1    3    3    0    0 -0.32986366500E+02  0.50609189320E+02  0.25362111434E+03  0.26071835390E+03  0.10000000000E+01 0.  0.
<mgrwt>
<rscale>  0 0.12502117E+03</rscale>
<asrwt>0</asrwt>
<pdfrwt beam="2">  1        4 0.14686653E-02 0.12502117E+03</pdfrwt>
<pdfrwt beam="1">  1       -4 0.62973465E-01 0.12502117E+03</pdfrwt>
<totfact> 0.62728323E+03</totfact>
</mgrwt>
</event>
<event>
 5    1  0.3486589E-002  0.1249953E+03  0.7818608E-02  0.1235077E+00
          4   -1    0    0  501    0  0.00000000000E+00  0.00000000000E+00  0.11167921570E+03  0.11168643660E+03  0.12700000000E+01 0.  1.
         -4   -1    0    0    0  501 -0.00000000000E+00 -0.00000000000E+00 -0.34954910242E+02  0.34977973784E+02  0.12700000000E+01 0.  1.
         25    2    1    2    0    0  0.00000000000E+00  0.00000000000E+00  0.76724305458E+02  0.14666441038E+03  0.12499532081E+03 0.  0.
    9000005    1    3    3    0    0 -0.42465020312E+02 -0.12284284923E+02 -0.13462294855E+02  0.46221369396E+02  0.10000000000E+01 0.  0.
    9000005    1    3    3    0    0  0.42465020312E+02  0.12284284923E+02  0.90186600312E+02  0.10044304098E+03  0.10000000000E+01 0.  0.
<mgrwt>
<rscale>  0 0.12499532E+03</rscale>
<asrwt>0</asrwt>
<pdfrwt beam="1">  1        4 0.17183748E-01 0.12499532E+03</pdfrwt>
<pdfrwt beam="2">  1       -4 0.53800079E-02 0.12499532E+03</pdfrwt>
<totfact> 0.99983335E+03</totfact>
</mgrwt>
</event>
<event>
 5    1  0.3486589E-002  0.1250002E+03  0.7818608E-02  0.1235069E+00
          4   -1    0    0  501    0  0.00000000000E+00  0.00000000000E+00  0.17205228945E+02  0.17252037649E+02  0.12700000000E+01 0.  1.
         -4   -1    0    0    0  501 -0.00000000000E+00 -0.00000000000E+00 -0.22668226449E+03  0.22668582208E+03  0.12700000000E+01 0.  1.
         25    2    1    2    0    0  0.00000000000E+00  0.00000000000E+00 -0.20947703554E+03  0.24393785973E+03  0.12500020396E+03 0.  0.
    9000005    1    3    3    0    0 -0.61622021741E+02  0.21479047591E+01 -0.84896871771E+02  0.10493029064E+03  0.10000000000E+01 0.  0.
    9000005    1    3    3    0    0  0.61622021741E+02 -0.21479047591E+01 -0.12458016377E+03  0.13900756909E+03  0.10000000000E+01 0.  0.
<mgrwt>
<rscale>  0 0.12500020E+03</rscale>
<asrwt>0</asrwt>
<pdfrwt beam="1">  1        4 0.26508328E-02 0.12500020E+03</pdfrwt>
<pdfrwt beam="2">  1       -4 0.34878067E-01 0.12500020E+03</pdfrwt>
<totfact> 0.83213989E+03</totfact>
</mgrwt>
</event>
<event>
 5    1  0.3486589E-002  0.1249994E+03  0.7818608E-02  0.1235070E+00
          4   -1    0    0  501    0  0.00000000000E+00  0.00000000000E+00  0.36376981399E+03  0.36377203091E+03  0.12700000000E+01 0.  1.
         -4   -1    0    0    0  501 -0.00000000000E+00 -0.00000000000E+00 -0.10698335759E+02  0.10773452929E+02  0.12700000000E+01 0.  1.
         25    2    1    2    0    0  0.00000000000E+00  0.00000000000E+00  0.35307147823E+03  0.37454548384E+03  0.12499940289E+03 0.  0.
    9000005    1    3    3    0    0  0.29761317867E+02 -0.45650713622E+02  0.84889221864E+02  0.10088064078E+03  0.10000000000E+01 0.  0.
    9000005    1    3    3    0    0 -0.29761317867E+02  0.45650713622E+02  0.26818225637E+03  0.27366484306E+03  0.10000000000E+01 0.  0.
<mgrwt>
<rscale>  0 0.12499940E+03</rscale>
<asrwt>0</asrwt>
<pdfrwt beam="1">  1        4 0.55970542E-01 0.12499940E+03</pdfrwt>
<pdfrwt beam="2">  1       -4 0.16518464E-02 0.12499940E+03</pdfrwt>
<totfact> 0.67106940E+03</totfact>
</mgrwt>
</event>
<event>
 5    1  0.3486589E-002  0.1250079E+03  0.7818608E-02  0.1235057E+00
         -4   -1    0    0    0  501 -0.00000000000E+00  0.00000000000E+00  0.83097106782E+02  0.83106811126E+02  0.12700000000E+01 0.  1.
          4   -1    0    0  501    0  0.00000000000E+00 -0.00000000000E+00 -0.46993175523E+02  0.47010333394E+02  0.12700000000E+01 0.  1.
         25    2    1    2    0    0  0.00000000000E+00  0.00000000000E+00  0.36103931259E+02  0.13011714452E+03  0.12500790953E+03 0.  0.
    9000005    1    3    3    0    0  0.12021639814E+02  0.34560135139E+02  0.70786470607E+02  0.79690947953E+02  0.10000000000E+01 0.  0.
    9000005    1    3    3    0    0 -0.12021639814E+02 -0.34560135139E+02 -0.34682539348E+02  0.50426196567E+02  0.10000000000E+01 0.  0.
<mgrwt>
<rscale>  0 0.12500791E+03</rscale>
<asrwt>0</asrwt>
<pdfrwt beam="2">  1        4 0.72317858E-02 0.12500791E+03</pdfrwt>
<pdfrwt beam="1">  1       -4 0.12786236E-01 0.12500791E+03</pdfrwt>
<totfact> 0.10340156E+04</totfact>
</mgrwt>
</event>
<event>
 5    1  0.3486589E-002  0.1250014E+03  0.7818608E-02  0.1235067E+00
          4   -1    0    0  501    0  0.00000000000E+00  0.00000000000E+00  0.35893574271E+02  0.35916035053E+02  0.12700000000E+01 0.  1.
         -4   -1    0    0    0  501 -0.00000000000E+00 -0.00000000000E+00 -0.10877081615E+03  0.10877823011E+03  0.12700000000E+01 0.  1.
         25    2    1    2    0    0  0.00000000000E+00  0.00000000000E+00 -0.72877241875E+02  0.14469426516E+03  0.12500135194E+03 0.  0.
    9000005    1    3    3    0    0 -0.94405642307E+01  0.56787145264E+02 -0.82879712929E+01  0.58168673600E+02  0.10000000000E+01 0.  0.
    9000005    1    3    3    0    0  0.94405642307E+01 -0.56787145264E+02 -0.64589270582E+02  0.86525591558E+02  0.10000000000E+01 0.  0.
<mgrwt>
<rscale>  0 0.12500135E+03</rscale>
<asrwt>0</asrwt>
<pdfrwt beam="1">  1        4 0.55243865E-02 0.12500135E+03</pdfrwt>
<pdfrwt beam="2">  1       -4 0.16736270E-01 0.12500135E+03</pdfrwt>
<totfact> 0.10036898E+04</totfact>
</mgrwt>
</event>
<event>
 5    1  0.3486589E-002  0.1249970E+03  0.7818608E-02  0.1235074E+00
          4   -1    0    0  501    0  0.00000000000E+00  0.00000000000E+00  0.21976949638E+03  0.21977316587E+03  0.12700000000E+01 0.  1.
         -4   -1    0    0    0  501 -0.00000000000E+00 -0.00000000000E+00 -0.17746935651E+02  0.17792319270E+02  0.12700000000E+01 0.  1.
         25    2    1    2    0    0  0.00000000000E+00  0.00000000000E+00  0.20202256073E+03  0.23756548514E+03  0.12499697872E+03 0.  0.
    9000005    1    3    3    0    0 -0.35662624916E+02 -0.26825567312E+02  0.17870804352E+02  0.48081176418E+02  0.10000000000E+01 0.  0.
    9000005    1    3    3    0    0  0.35662624916E+02  0.26825567312E+02  0.18415175637E+03  0.18948430873E+03  0.10000000000E+01 0.  0.
<mgrwt>
<rscale>  0 0.12499698E+03</rscale>
<asrwt>0</asrwt>
<pdfrwt beam="1">  1        4 0.33814465E-01 0.12499698E+03</pdfrwt>
<pdfrwt beam="2">  1       -4 0.27340711E-02 0.12499698E+03</pdfrwt>
<totfact> 0.84166956E+03</totfact>
</mgrwt>
</event>
<event>
 5    1  0.3486589E-002  0.1249891E+03  0.7818608E-02  0.1235086E+00
          4   -1    0    0  501    0  0.00000000000E+00  0.00000000000E+00  0.14509694093E+03  0.14510249883E+03  0.12700000000E+01 0.  1.
         -4   -1    0    0    0  501 -0.00000000000E+00 -0.00000000000E+00 -0.26895889252E+02  0.26925856693E+02  0.12700000000E+01 0.  1.
         25    2    1    2    0    0  0.00000000000E+00  0.00000000000E+00  0.11820105168E+03  0.17202835552E+03  0.12498906547E+03 0.  0.
    9000005    1    3    3    0    0 -0.48486955391E+02 -0.28566958254E+02  0.96478191260E+02  0.11169645176E+03  0.10000000000E+01 0.  0.
    9000005    1    3    3    0    0  0.48486955391E+02  0.28566958254E+02  0.21722860415E+02  0.60331903762E+02  0.10000000000E+01 0.  0.
<mgrwt>
<rscale>  0 0.12498907E+03</rscale>
<asrwt>0</asrwt>
<pdfrwt beam="1">  1        4 0.22325339E-01 0.12498907E+03</pdfrwt>
<pdfrwt beam="2">  1       -4 0.41405619E-02 0.12498907E+03</pdfrwt>
<totfact> 0.95095257E+03</totfact>
</mgrwt>
</event>
<event>
 5    1  0.3486589E-002  0.1249965E+03  0.7818608E-02  0.1235075E+00
          4   -1    0    0  501    0  0.00000000000E+00  0.00000000000E+00  0.43005552884E+02  0.43024301026E+02  0.12700000000E+01 0. -1.
         -4   -1    0    0    0  501 -0.00000000000E+00 -0.00000000000E+00 -0.90783194821E+02  0.90792077639E+02  0.12700000000E+01 0. -1.
         25    2    1    2    0    0  0.00000000000E+00  0.00000000000E+00 -0.47777641938E+02  0.13381637867E+03  0.12499648047E+03 0.  0.
    9000005    1    3    3    0    0 -0.12635830453E+02 -0.35047157288E+02  0.29821592465E+02  0.47731486697E+02  0.10000000000E+01 0.  0.
    9000005    1    3    3    0    0  0.12635830453E+02  0.35047157288E+02 -0.77599234403E+02  0.86084891968E+02  0.10000000000E+01 0.  0.
<mgrwt>
<rscale>  0 0.12499648E+03</rscale>
<asrwt>0</asrwt>
<pdfrwt beam="1">  1        4 0.66183644E-02 0.12499648E+03</pdfrwt>
<pdfrwt beam="2">  1       -4 0.13968771E-01 0.12499648E+03</pdfrwt>
<totfact> 0.10263894E+04</totfact>
</mgrwt>
</event>
<event>
 5    1  0.3486589E-002  0.1249984E+03  0.7818608E-02  0.1235072E+00
         -4   -1    0    0    0  501 -0.00000000000E+00  0.00000000000E+00  0.13408189470E+03  0.13408790917E+03  0.12700000000E+01 0. -1.
          4   -1    0    0  501    0  0.00000000000E+00 -0.00000000000E+00 -0.29112078796E+02  0.29139767189E+02  0.12700000000E+01 0. -1.
         25    2    1    2    0    0  0.00000000000E+00  0.00000000000E+00  0.10496981590E+03  0.16322767636E+03  0.12499844831E+03 0.  0.
    9000005    1    3    3    0    0  0.96907699744E+01  0.19265331111E+02  0.12907525132E+03  0.13086819518E+03  0.10000000000E+01 0.  0.
    9000005    1    3    3    0    0 -0.96907699744E+01 -0.19265331111E+02 -0.24105435420E+02  0.32359481181E+02  0.10000000000E+01 0.  0.
<mgrwt>
<rscale>  0 0.12499845E+03</rscale>
<asrwt>0</asrwt>
<pdfrwt beam="2">  1        4 0.44813739E-02 0.12499845E+03</pdfrwt>
<pdfrwt beam="1">  1       -4 0.20630576E-01 0.12499845E+03</pdfrwt>
<totfact> 0.96727471E+03</totfact>
</mgrwt>
</event>
<event>
 5    1  0.3486589E-002  0.1249989E+03  0.7818608E-02  0.1235071E+00
         -4   -1    0    0    0  501 -0.00000000000E+00  0.00000000000E+00  0.20818194905E+03  0.20818582279E+03  0.12700000000E+01 0.  1.
          4   -1    0    0  501    0  0.00000000000E+00 -0.00000000000E+00 -0.18737753276E+02  0.18780742739E+02  0.12700000000E+01 0.  1.
         25    2    1    2    0    0  0.00000000000E+00  0.00000000000E+00  0.18944419577E+03  0.22696656553E+03  0.12499887422E+03 0.  0.
    9000005    1    3    3    0    0  0.12477033642E+02 -0.27617508897E+02  0.19395533187E+03  0.19631116608E+03  0.10000000000E+01 0.  0.
    9000005    1    3    3    0    0 -0.12477033642E+02  0.27617508897E+02 -0.45111361018E+01  0.30655399444E+02  0.10000000000E+01 0.  0.
<mgrwt>
<rscale>  0 0.12499887E+03</rscale>
<asrwt>0</asrwt>
<pdfrwt beam="2">  1        4 0.28863364E-02 0.12499887E+03</pdfrwt>
<pdfrwt beam="1">  1       -4 0.32031594E-01 0.12499887E+03</pdfrwt>
<totfact> 0.85779728E+03</totfact>
</mgrwt>
</event>
<event>
 4    1  0.3486589E-002  0.1251451E+03  0.7818608E-02  0.1234843E+00
          4   -1    0    0  501    0  0.00000000000E+00  0.00000000000E+00  0.16319255544E+02  0.16368598031E+02  0.12700000000E+01 0. -1.
         -4   -1    0    0    0  501 -0.00000000000E+00 -0.00000000000E+00 -0.23950740666E+03  0.23951077375E+03  0.12700000000E+01 0. -1.
    9000005    1    1    2    0    0 -0.61775654622E+01  0.60919009411E+02 -0.13786120811E+03  0.15085092219E+03  0.10000000000E+01 0.  0.
    9000005    1    1    2    0    0  0.61775654622E+01 -0.60919009411E+02 -0.85326943000E+02  0.10502844959E+03  0.10000000000E+01 0.  0.
<mgrwt>
<rscale>  0 0.12514512E+03</rscale>
<asrwt>0</asrwt>
<pdfrwt beam="1">  1        4 0.25147095E-02 0.12514512E+03</pdfrwt>
<pdfrwt beam="2">  1       -4 0.36851345E-01 0.12514512E+03</pdfrwt>
<totfact> 0.81225072E+03</totfact>
</mgrwt>
</event>
<event>
 5    1  0.3486589E-002  0.1250306E+03  0.7818608E-02  0.1235021E+00
          4   -1    0    0  501    0  0.00000000000E+00  0.00000000000E+00  0.21282026454E+03  0.21282405385E+03  0.12700000000E+01 0. -1.
         -4   -1    0    0    0  501 -0.00000000000E+00 -0.00000000000E+00 -0.18337765242E+02  0.18381690186E+02  0.12700000000E+01 0. -1.
         25    2    1    2    0    0  0.00000000000E+00  0.00000000000E+00  0.19448249930E+03  0.23120574404E+03  0.12503061043E+03 0.  0.
    9000005    1    3    3    0    0 -0.46312656959E+02 -0.88233264669E+00  0.17485280512E+03  0.18088710337E+03  0.10000000000E+01 0.  0.
    9000005    1    3    3    0    0  0.46312656959E+02  0.88233264669E+00  0.19629694173E+02  0.50318640669E+02  0.10000000000E+01 0.  0.
<mgrwt>
<rscale>  0 0.12503061E+03</rscale>
<asrwt>0</asrwt>
<pdfrwt beam="1">  1        4 0.32745249E-01 0.12503061E+03</pdfrwt>
<pdfrwt beam="2">  1       -4 0.28248650E-02 0.12503061E+03</pdfrwt>
<totfact> 0.85066691E+03</totfact>
</mgrwt>
</event>
<event>
 5    1  0.3486589E-002  0.1250044E+03  0.7818608E-02  0.1235062E+00
          4   -1    0    0  501    0  0.00000000000E+00  0.00000000000E+00  0.75075404963E+01  0.76142014883E+01  0.12700000000E+01 0.  1.
         -4   -1    0    0    0  501 -0.00000000000E+00 -0.00000000000E+00 -0.51656910153E+03  0.51657066269E+03  0.12700000000E+01 0.  1.
         25    2    1    2    0    0  0.00000000000E+00  0.00000000000E+00 -0.50906156103E+03  0.52418486418E+03  0.12500439558E+03 0.  0.
    9000005    1    3    3    0    0 -0.47824328874E+02 -0.12927967418E+02 -0.94785987655E+02  0.10695645015E+03  0.10000000000E+01 0.  0.
    9000005    1    3    3    0    0  0.47824328874E+02  0.12927967418E+02 -0.41427557338E+03  0.41722841403E+03  0.10000000000E+01 0.  0.
<mgrwt>
<rscale>  0 0.12500440E+03</rscale>
<asrwt>0</asrwt>
<pdfrwt beam="1">  1        4 0.11633314E-02 0.12500440E+03</pdfrwt>
<pdfrwt beam="2">  1       -4 0.79480466E-01 0.12500440E+03</pdfrwt>
<totfact> 0.54030353E+03</totfact>
</mgrwt>
</event>
<event>
 5    1  0.3486589E-002  0.1250044E+03  0.7818608E-02  0.1235062E+00
         -4   -1    0    0    0  501 -0.00000000000E+00  0.00000000000E+00  0.25372247515E+03  0.25372565360E+03  0.12700000000E+01 0.  1.
          4   -1    0    0  501    0  0.00000000000E+00 -0.00000000000E+00 -0.15367372114E+02  0.15419760883E+02  0.12700000000E+01 0.  1.
         25    2    1    2    0    0  0.00000000000E+00  0.00000000000E+00  0.23835510304E+03  0.26914541449E+03  0.12500439590E+03 0.  0.
    9000005    1    3    3    0    0 -0.38149233723E+02  0.25848680964E+02  0.28287504102E+02  0.54080506928E+02  0.10000000000E+01 0.  0.
    9000005    1    3    3    0    0  0.38149233723E+02 -0.25848680964E+02  0.21006759893E+03  0.21506490756E+03  0.10000000000E+01 0.  0.
<mgrwt>
<rscale>  0 0.12500440E+03</rscale>
<asrwt>0</asrwt>
<pdfrwt beam="2">  1        4 0.23684858E-02 0.12500440E+03</pdfrwt>
<pdfrwt beam="1">  1       -4 0.39038496E-01 0.12500440E+03</pdfrwt>
<totfact> 0.79631735E+03</totfact>
</mgrwt>
</event>
<event>
 5    1  0.3486589E-002  0.1249991E+03  0.7818608E-02  0.1235071E+00
          4   -1    0    0  501    0  0.00000000000E+00  0.00000000000E+00  0.36173506315E+02  0.36195793390E+02  0.12700000000E+01 0. -1.
         -4   -1    0    0    0  501 -0.00000000000E+00 -0.00000000000E+00 -0.10792564807E+03  0.10793312009E+03  0.12700000000E+01 0. -1.
         25    2    1    2    0    0  0.00000000000E+00  0.00000000000E+00 -0.71752141760E+02  0.14412891348E+03  0.12499909541E+03 0.  0.
    9000005    1    3    3    0    0  0.68530765656E+01 -0.62112034491E+02 -0.36532368718E+02  0.72391183518E+02  0.10000000000E+01 0.  0.
    9000005    1    3    3    0    0 -0.68530765656E+01  0.62112034491E+02 -0.35219773041E+02  0.71737729962E+02  0.10000000000E+01 0.  0.
<mgrwt>
<rscale>  0 0.12499910E+03</rscale>
<asrwt>0</asrwt>
<pdfrwt beam="1">  1        4 0.55674440E-02 0.12499910E+03</pdfrwt>
<pdfrwt beam="2">  1       -4 0.16606235E-01 0.12499910E+03</pdfrwt>
<totfact> 0.10048922E+04</totfact>
</mgrwt>
</event>
<event>
 5    1  0.3486589E-002  0.1250444E+03  0.7818608E-02  0.1235000E+00
         -4   -1    0    0    0  501 -0.00000000000E+00  0.00000000000E+00  0.18343205062E+04  0.18343209458E+04  0.12700000000E+01 0. -1.
          4   -1    0    0  501    0  0.00000000000E+00 -0.00000000000E+00 -0.19413536311E+01  0.23198607547E+01  0.12700000000E+01 0. -1.
         25    2    1    2    0    0  0.00000000000E+00  0.00000000000E+00  0.18323791525E+04  0.18366408066E+04  0.12504436692E+03 0.  0.
    9000005    1    3    3    0    0  0.55453302144E+02 -0.15301446100E+02  0.12756146826E+04  0.12769115167E+04  0.10000000000E+01 0.  0.
    9000005    1    3    3    0    0 -0.55453302144E+02  0.15301446100E+02  0.55676446994E+03  0.55972928989E+03  0.10000000000E+01 0.  0.
<mgrwt>
<rscale>  0 0.12504437E+03</rscale>
<asrwt>0</asrwt>
<pdfrwt beam="2">  1        4 0.32781888E-03 0.12504437E+03</pdfrwt>
<pdfrwt beam="1">  1       -4 0.28223287E+00 0.12504437E+03</pdfrwt>
<totfact> 0.12135523E+03</totfact>
</mgrwt>
</event>
<event>
 5    1  0.3486589E-002  0.1249992E+03  0.7818608E-02  0.1235070E+00
          4   -1    0    0  501    0  0.00000000000E+00  0.00000000000E+00  0.79860887264E+01  0.80864400786E+01  0.12700000000E+01 0.  1.
         -4   -1    0    0    0  501 -0.00000000000E+00 -0.00000000000E+00 -0.48597065128E+03  0.48597231074E+03  0.12700000000E+01 0.  1.
         25    2    1    2    0    0  0.00000000000E+00  0.00000000000E+00 -0.47798456255E+03  0.49405875082E+03  0.12499922888E+03 0.  0.
    9000005    1    3    3    0    0  0.38382972228E+02 -0.26888400113E+02 -0.40238684985E+03  0.40510790606E+03  0.10000000000E+01 0.  0.
    9000005    1    3    3    0    0 -0.38382972228E+02  0.26888400113E+02 -0.75597712703E+02  0.88950844760E+02  0.10000000000E+01 0.  0.
<mgrwt>
<rscale>  0 0.12499923E+03</rscale>
<asrwt>0</asrwt>
<pdfrwt beam="1">  1        4 0.12364764E-02 0.12499923E+03</pdfrwt>
<pdfrwt beam="2">  1       -4 0.74772539E-01 0.12499923E+03</pdfrwt>
<totfact> 0.56329264E+03</totfact>
</mgrwt>
</event>
<event>
 5    1  0.3486589E-002  0.1250046E+03  0.7818608E-02  0.1235062E+00
         -4   -1    0    0    0  501 -0.00000000000E+00  0.00000000000E+00  0.21279337072E+01  0.24781044898E+01  0.12700000000E+01 0. -1.
          4   -1    0    0  501    0  0.00000000000E+00 -0.00000000000E+00 -0.16959186112E+04  0.16959190867E+04  0.12700000000E+01 0. -1.
         25    2    1    2    0    0  0.00000000000E+00  0.00000000000E+00 -0.16937906775E+04  0.16983971912E+04  0.12500463976E+03 0.  0.
    9000005    1    3    3    0    0 -0.44010879957E+02 -0.51563374991E+01 -0.24815689915E+03  0.25208409701E+03  0.10000000000E+01 0.  0.
    9000005    1    3    3    0    0  0.44010879957E+02  0.51563374991E+01 -0.14456337783E+04  0.14463130942E+04  0.10000000000E+01 0.  0.
<mgrwt>
<rscale>  0 0.12500464E+03</rscale>
<asrwt>0</asrwt>
<pdfrwt beam="2">  1        4 0.26093653E+00 0.12500464E+03</pdfrwt>
<pdfrwt beam="1">  1       -4 0.35434856E-03 0.12500464E+03</pdfrwt>
<totfact> 0.14333326E+03</totfact>
</mgrwt>
</event>
<event>
 5    1  0.3486589E-002  0.1250015E+03  0.7818608E-02  0.1235067E+00
         -4   -1    0    0    0  501 -0.00000000000E+00  0.00000000000E+00  0.13780675113E+03  0.13781260304E+03  0.12700000000E+01 0. -1.
          4   -1    0    0  501    0  0.00000000000E+00 -0.00000000000E+00 -0.28325872158E+02  0.28354328303E+02  0.12700000000E+01 0. -1.
         25    2    1    2    0    0  0.00000000000E+00  0.00000000000E+00  0.10948087897E+03  0.16616693135E+03  0.12500154484E+03 0.  0.
    9000005    1    3    3    0    0 -0.15535477871E+02  0.57204951429E+02  0.81045812715E+02  0.10041504518E+03  0.10000000000E+01 0.  0.
    9000005    1    3    3    0    0  0.15535477871E+02 -0.57204951429E+02  0.28435066259E+02  0.65751886161E+02  0.10000000000E+01 0.  0.
<mgrwt>
<rscale>  0 0.12500154E+03</rscale>
<asrwt>0</asrwt>
<pdfrwt beam="2">  1        4 0.43604656E-02 0.12500154E+03</pdfrwt>
<pdfrwt beam="1">  1       -4 0.21203677E-01 0.12500154E+03</pdfrwt>
<totfact> 0.96163513E+03</totfact>
</mgrwt>
</event>
<event>
 5    1  0.3486589E-002  0.1250000E+03  0.7818608E-02  0.1235069E+00
         -4   -1    0    0    0  501 -0.00000000000E+00  0.00000000000E+00  0.14882047029E+03  0.14882588914E+03  0.12700000000E+01 0.  1.
          4   -1    0    0  501    0  0.00000000000E+00 -0.00000000000E+00 -0.26226791822E+02  0.26257522908E+02  0.12700000000E+01 0.  1.
         25    2    1    2    0    0  0.00000000000E+00  0.00000000000E+00  0.12259367847E+03  0.17508341204E+03  0.12499996469E+03 0.  0.
    9000005    1    3    3    0    0 -0.61908236255E+01  0.47109678354E+01 -0.25552783697E+02  0.26729464450E+02  0.10000000000E+01 0.  0.
    9000005    1    3    3    0    0  0.61908236255E+01 -0.47109678354E+01  0.14814646216E+03  0.14835394759E+03  0.10000000000E+01 0.  0.
<mgrwt>
<rscale>  0 0.12499996E+03</rscale>
<asrwt>0</asrwt>
<pdfrwt beam="2">  1        4 0.40376718E-02 0.12499996E+03</pdfrwt>
<pdfrwt beam="1">  1       -4 0.22898238E-01 0.12499996E+03</pdfrwt>
<totfact> 0.94509640E+03</totfact>
</mgrwt>
</event>
<event>
 5    1  0.3486589E-002  0.1249937E+03  0.7818608E-02  0.1235079E+00
         -4   -1    0    0    0  501 -0.00000000000E+00  0.00000000000E+00  0.24216561023E+02  0.24249839747E+02  0.12700000000E+01 0.  1.
          4   -1    0    0  501    0  0.00000000000E+00 -0.00000000000E+00 -0.16114223339E+03  0.16114723790E+03  0.12700000000E+01 0.  1.
         25    2    1    2    0    0  0.00000000000E+00  0.00000000000E+00 -0.13692567237E+03  0.18539707765E+03  0.12499374643E+03 0.  0.
    9000005    1    3    3    0    0  0.42428575127E+02  0.16695003966E+02 -0.13184386424E+03  0.13950882295E+03  0.10000000000E+01 0.  0.
    9000005    1    3    3    0    0 -0.42428575127E+02 -0.16695003966E+02 -0.50818081295E+01  0.45888254691E+02  0.10000000000E+01 0.  0.
<mgrwt>
<rscale>  0 0.12499375E+03</rscale>
<asrwt>0</asrwt>
<pdfrwt beam="2">  1        4 0.24794057E-01 0.12499375E+03</pdfrwt>
<pdfrwt beam="1">  1       -4 0.37285697E-02 0.12499375E+03</pdfrwt>
<totfact> 0.92667420E+03</totfact>
</mgrwt>
</event>
<event>
 5    1  0.3486589E-002  0.1250005E+03  0.7818608E-02  0.1235069E+00
         -4   -1    0    0    0  501 -0.00000000000E+00  0.00000000000E+00  0.21558230683E+02  0.21595606271E+02  0.12700000000E+01 0. -1.
          4   -1    0    0  501    0  0.00000000000E+00 -0.00000000000E+00 -0.18100016668E+03  0.18100462215E+03  0.12700000000E+01 0. -1.
         25    2    1    2    0    0  0.00000000000E+00  0.00000000000E+00 -0.15944193600E+03  0.20260022842E+03  0.12500048640E+03 0.  0.
    9000005    1    3    3    0    0 -0.25192929648E+02  0.22746145619E+02 -0.16476578712E+03  0.16822852151E+03  0.10000000000E+01 0.  0.
    9000005    1    3    3    0    0  0.25192929648E+02 -0.22746145619E+02  0.53238511226E+01  0.34371706905E+02  0.10000000000E+01 0.  0.
<mgrwt>
<rscale>  0 0.12500049E+03</rscale>
<asrwt>0</asrwt>
<pdfrwt beam="2">  1        4 0.27849396E-01 0.12500049E+03</pdfrwt>
<pdfrwt beam="1">  1       -4 0.33198688E-02 0.12500049E+03</pdfrwt>
<totfact> 0.89697827E+03</totfact>
</mgrwt>
</event>
<event>
 5    1  0.3486589E-002  0.1249999E+03  0.7818608E-02  0.1235069E+00
          4   -1    0    0  501    0  0.00000000000E+00  0.00000000000E+00  0.39615918858E+02  0.39636270346E+02  0.12700000000E+01 0. -1.
         -4   -1    0    0    0  501 -0.00000000000E+00 -0.00000000000E+00 -0.98553097922E+02  0.98561280481E+02  0.12700000000E+01 0. -1.
         25    2    1    2    0    0  0.00000000000E+00  0.00000000000E+00 -0.58937179065E+02  0.13819755083E+03  0.12499988791E+03 0.  0.
    9000005    1    3    3    0    0  0.22033234255E+02 -0.47277878501E+02  0.85830390015E+01  0.52870878239E+02  0.10000000000E+01 0.  0.
    9000005    1    3    3    0    0 -0.22033234255E+02  0.47277878501E+02 -0.67520218066E+02  0.85326672588E+02  0.10000000000E+01 0.  0.
<mgrwt>
<rscale>  0 0.12499989E+03</rscale>
<asrwt>0</asrwt>
<pdfrwt beam="1">  1        4 0.60969517E-02 0.12499989E+03</pdfrwt>
<pdfrwt beam="2">  1       -4 0.15164210E-01 0.12499989E+03</pdfrwt>
<totfact> 0.10171105E+04</totfact>
</mgrwt>
</event>
<event>
 5    1  0.3486589E-002  0.1249994E+03  0.7818608E-02  0.1235070E+00
          4   -1    0    0  501    0  0.00000000000E+00  0.00000000000E+00  0.60748969452E+03  0.60749102203E+03  0.12700000000E+01 0. -1.
         -4   -1    0    0    0  501 -0.00000000000E+00 -0.00000000000E+00 -0.63660289874E+01  0.64914732587E+01  0.12700000000E+01 0. -1.
         25    2    1    2    0    0  0.00000000000E+00  0.00000000000E+00  0.60112366553E+03  0.61398249529E+03  0.12499937303E+03 0.  0.
    9000005    1    3    3    0    0 -0.30884977255E+02 -0.37103974494E+02  0.10565072133E+03  0.11616222131E+03  0.10000000000E+01 0.  0.
    9000005    1    3    3    0    0  0.30884977255E+02  0.37103974494E+02  0.49547294420E+03  0.49782027398E+03  0.10000000000E+01 0.  0.
<mgrwt>
<rscale>  0 0.12499937E+03</rscale>
<asrwt>0</asrwt>
<pdfrwt beam="1">  1        4 0.93469683E-01 0.12499937E+03</pdfrwt>
<pdfrwt beam="2">  1       -4 0.98914098E-03 0.12499937E+03</pdfrwt>
<totfact> 0.47997393E+03</totfact>
</mgrwt>
</event>
<event>
 5    1  0.3486589E-002  0.1250142E+03  0.7818608E-02  0.1235047E+00
          4   -1    0    0  501    0  0.00000000000E+00  0.00000000000E+00  0.53394238566E+02  0.53409340120E+02  0.12700000000E+01 0. -1.
         -4   -1    0    0    0  501 -0.00000000000E+00 -0.00000000000E+00 -0.73144305114E+02  0.73155329748E+02  0.12700000000E+01 0. -1.
         25    2    1    2    0    0  0.00000000000E+00  0.00000000000E+00 -0.19750066548E+02  0.12656466987E+03  0.12501420131E+03 0.  0.
    9000005    1    3    3    0    0  0.33544742448E+02 -0.48901835657E+02 -0.29855514986E+02  0.66400233822E+02  0.10000000000E+01 0.  0.
    9000005    1    3    3    0    0 -0.33544742448E+02  0.48901835657E+02  0.10105448438E+02  0.60164436046E+02  0.10000000000E+01 0.  0.
<mgrwt>
<rscale>  0 0.12501420E+03</rscale>
<asrwt>0</asrwt>
<pdfrwt beam="1">  1        4 0.82165079E-02 0.12501420E+03</pdfrwt>
<pdfrwt beam="2">  1       -4 0.11254980E-01 0.12501420E+03</pdfrwt>
<totfact> 0.10415279E+04</totfact>
</mgrwt>
</event>
<event>
 5    1  0.3486589E-002  0.1249791E+03  0.7818608E-02  0.1235102E+00
         -4   -1    0    0    0  501 -0.00000000000E+00  0.00000000000E+00  0.19197636925E+02  0.19239598840E+02  0.12700000000E+01 0.  1.
          4   -1    0    0  501    0  0.00000000000E+00 -0.00000000000E+00 -0.20314150494E+03  0.20314547480E+03  0.12700000000E+01 0.  1.
         25    2    1    2    0    0  0.00000000000E+00  0.00000000000E+00 -0.18394386802E+03  0.22238507364E+03  0.12497909583E+03 0.  0.
    9000005    1    3    3    0    0  0.25459487628E+02  0.27322210472E+02 -0.18110536963E+03  0.18491847827E+03  0.10000000000E+01 0.  0.
    9000005    1    3    3    0    0 -0.25459487628E+02 -0.27322210472E+02 -0.28384983837E+01  0.37466595367E+02  0.10000000000E+01 0.  0.
<mgrwt>
<rscale>  0 0.12497910E+03</rscale>
<asrwt>0</asrwt>
<pdfrwt beam="2">  1        4 0.31256071E-01 0.12497910E+03</pdfrwt>
<pdfrwt beam="1">  1       -4 0.29570160E-02 0.12497910E+03</pdfrwt>
<totfact> 0.86532735E+03</totfact>
</mgrwt>
</event>
<event>
 5    1  0.3486589E-002  0.1250021E+03  0.7818608E-02  0.1235066E+00
          4   -1    0    0  501    0  0.00000000000E+00  0.00000000000E+00  0.66111974968E+01  0.67320748913E+01  0.12700000000E+01 0.  1.
         -4   -1    0    0    0  501 -0.00000000000E+00 -0.00000000000E+00 -0.58539941643E+03  0.58540079403E+03  0.12700000000E+01 0.  1.
         25    2    1    2    0    0  0.00000000000E+00  0.00000000000E+00 -0.57878821893E+03  0.59213286892E+03  0.12500212833E+03 0.  0.
    9000005    1    3    3    0    0  0.28841142795E+02 -0.54165796896E+02 -0.34537032004E+03  0.35078113267E+03  0.10000000000E+01 0.  0.
    9000005    1    3    3    0    0 -0.28841142795E+02  0.54165796896E+02 -0.23341789889E+03  0.24135173625E+03  0.10000000000E+01 0.  0.
<mgrwt>
<rscale>  0 0.12500213E+03</rscale>
<asrwt>0</asrwt>
<pdfrwt beam="1">  1        4 0.10265120E-02 0.12500213E+03</pdfrwt>
<pdfrwt beam="2">  1       -4 0.90070813E-01 0.12500213E+03</pdfrwt>
<totfact> 0.49365714E+03</totfact>
</mgrwt>
</event>
<event>
 5    1  0.3486589E-002  0.1249986E+03  0.7818608E-02  0.1235072E+00
         -4   -1    0    0    0  501 -0.00000000000E+00  0.00000000000E+00  0.13007033234E+02  0.13068887234E+02  0.12700000000E+01 0.  1.
          4   -1    0    0  501    0  0.00000000000E+00 -0.00000000000E+00 -0.29953582561E+03  0.29953851793E+03  0.12700000000E+01 0.  1.
         25    2    1    2    0    0  0.00000000000E+00  0.00000000000E+00 -0.28652879238E+03  0.31260740516E+03  0.12499856360E+03 0.  0.
    9000005    1    3    3    0    0  0.32021670395E+02 -0.15097045543E+02 -0.27205046476E+03  0.27434606528E+03  0.10000000000E+01 0.  0.
    9000005    1    3    3    0    0 -0.32021670395E+02  0.15097045543E+02 -0.14478327615E+02  0.38261339882E+02  0.10000000000E+01 0.  0.
<mgrwt>
<rscale>  0 0.12499856E+03</rscale>
<asrwt>0</asrwt>
<pdfrwt beam="2">  1        4 0.46087395E-01 0.12499856E+03</pdfrwt>
<pdfrwt beam="1">  1       -4 0.20060474E-02 0.12499856E+03</pdfrwt>
<totfact> 0.74046451E+03</totfact>
</mgrwt>
</event>
<event>
 5    1  0.3486589E-002  0.1250014E+03  0.7818608E-02  0.1235067E+00
          4   -1    0    0  501    0  0.00000000000E+00  0.00000000000E+00  0.97762906666E+01  0.98584359408E+01  0.12700000000E+01 0. -1.
         -4   -1    0    0    0  501 -0.00000000000E+00 -0.00000000000E+00 -0.39781777443E+03  0.39781980161E+03  0.12700000000E+01 0. -1.
         25    2    1    2    0    0  0.00000000000E+00  0.00000000000E+00 -0.38804148377E+03  0.40767823755E+03  0.12500140900E+03 0.  0.
    9000005    1    3    3    0    0  0.17983886756E+02  0.59669285004E+02 -0.17890030484E+03  0.18944699213E+03  0.10000000000E+01 0.  0.
    9000005    1    3    3    0    0 -0.17983886756E+02 -0.59669285004E+02 -0.20914117892E+03  0.21823124542E+03  0.10000000000E+01 0.  0.
<mgrwt>
<rscale>  0 0.12500141E+03</rscale>
<asrwt>0</asrwt>
<pdfrwt beam="1">  1        4 0.15105198E-02 0.12500141E+03</pdfrwt>
<pdfrwt beam="2">  1       -4 0.61209197E-01 0.12500141E+03</pdfrwt>
<totfact> 0.63810823E+03</totfact>
</mgrwt>
</event>
<event>
 5    1  0.3486589E-002  0.1250052E+03  0.7818608E-02  0.1235061E+00
         -4   -1    0    0    0  501 -0.00000000000E+00  0.00000000000E+00  0.65259340301E+03  0.65259463877E+03  0.12700000000E+01 0.  1.
          4   -1    0    0  501    0  0.00000000000E+00 -0.00000000000E+00 -0.59176189858E+01  0.60523643695E+01  0.12700000000E+01 0.  1.
         25    2    1    2    0    0  0.00000000000E+00  0.00000000000E+00  0.64667578402E+03  0.65864700314E+03  0.12500522030E+03 0.  0.
    9000005    1    3    3    0    0 -0.60885519150E+01 -0.59620367441E+01  0.64954371545E+03  0.64960038072E+03  0.10000000000E+01 0.  0.
    9000005    1    3    3    0    0  0.60885519150E+01  0.59620367441E+01 -0.28679314279E+01  0.90466224214E+01  0.10000000000E+01 0.  0.
<mgrwt>
<rscale>  0 0.12500522E+03</rscale>
<asrwt>0</asrwt>
<pdfrwt beam="2">  1        4 0.92086377E-03 0.12500522E+03</pdfrwt>
<pdfrwt beam="1">  1       -4 0.10040936E+00 0.12500522E+03</pdfrwt>
<totfact> 0.45356048E+03</totfact>
</mgrwt>
</event>
<event>
 5    1  0.3486589E-002  0.1250043E+03  0.7818608E-02  0.1235063E+00
          4   -1    0    0  501    0  0.00000000000E+00  0.00000000000E+00  0.17864105366E+03  0.17864556796E+03  0.12700000000E+01 0.  1.
         -4   -1    0    0    0  501 -0.00000000000E+00 -0.00000000000E+00 -0.21844740657E+02  0.21881626868E+02  0.12700000000E+01 0.  1.
         25    2    1    2    0    0  0.00000000000E+00  0.00000000000E+00  0.15679631300E+03  0.20052719483E+03  0.12500428831E+03 0.  0.
    9000005    1    3    3    0    0  0.18512016896E+02  0.48064697109E+02  0.13517300481E+03  0.14465701195E+03  0.10000000000E+01 0.  0.
    9000005    1    3    3    0    0 -0.18512016896E+02 -0.48064697109E+02  0.21623308196E+02  0.55870182881E+02  0.10000000000E+01 0.  0.
<mgrwt>
<rscale>  0 0.12500429E+03</rscale>
<asrwt>0</asrwt>
<pdfrwt beam="1">  1        4 0.27486423E-01 0.12500429E+03</pdfrwt>
<pdfrwt beam="2">  1       -4 0.33639141E-02 0.12500429E+03</pdfrwt>
<totfact> 0.90038027E+03</totfact>
</mgrwt>
</event>
<event>
 5    1  0.3486589E-002  0.1249978E+03  0.7818608E-02  0.1235073E+00
         -4   -1    0    0    0  501 -0.00000000000E+00  0.00000000000E+00  0.71909477266E+02  0.71920691186E+02  0.12700000000E+01 0.  1.
          4   -1    0    0  501    0  0.00000000000E+00 -0.00000000000E+00 -0.54296945394E+02  0.54311795948E+02  0.12700000000E+01 0.  1.
         25    2    1    2    0    0  0.00000000000E+00  0.00000000000E+00  0.17612531872E+02  0.12623248713E+03  0.12499775810E+03 0.  0.
    9000005    1    3    3    0    0  0.40718238952E+02  0.44862826631E+02  0.24269661186E+02  0.65273766942E+02  0.10000000000E+01 0.  0.
    9000005    1    3    3    0    0 -0.40718238952E+02 -0.44862826631E+02 -0.66571293148E+01  0.60958720192E+02  0.10000000000E+01 0.  0.
<mgrwt>
<rscale>  0 0.12499776E+03</rscale>
<asrwt>0</asrwt>
<pdfrwt beam="2">  1        4 0.83553812E-02 0.12499776E+03</pdfrwt>
<pdfrwt beam="1">  1       -4 0.11065001E-01 0.12499776E+03</pdfrwt>
<totfact> 0.10426396E+04</totfact>
</mgrwt>
</event>
<event>
 5    1  0.3486589E-002  0.1250157E+03  0.7818608E-02  0.1235045E+00
          4   -1    0    0  501    0  0.00000000000E+00  0.00000000000E+00  0.13644195210E+02  0.13703173462E+02  0.12700000000E+01 0.  1.
         -4   -1    0    0    0  501 -0.00000000000E+00 -0.00000000000E+00 -0.28568801262E+03  0.28569083544E+03  0.12700000000E+01 0.  1.
         25    2    1    2    0    0  0.00000000000E+00  0.00000000000E+00 -0.27204381741E+03  0.29939400890E+03  0.12501573491E+03 0.  0.
    9000005    1    3    3    0    0 -0.37275702886E+02 -0.49262250639E+02 -0.11330411167E+03  0.12905451982E+03  0.10000000000E+01 0.  0.
    9000005    1    3    3    0    0  0.37275702886E+02  0.49262250639E+02 -0.15873970574E+03  0.17033948909E+03  0.10000000000E+01 0.  0.
<mgrwt>
<rscale>  0 0.12501573E+03</rscale>
<asrwt>0</asrwt>
<pdfrwt beam="1">  1        4 0.21038611E-02 0.12501573E+03</pdfrwt>
<pdfrwt beam="2">  1       -4 0.43956752E-01 0.12501573E+03</pdfrwt>
<totfact> 0.75648489E+03</totfact>
</mgrwt>
</event>
<event>
 5    1  0.3486589E-002  0.1249954E+03  0.7818608E-02  0.1235076E+00
         -4   -1    0    0    0  501 -0.00000000000E+00  0.00000000000E+00  0.79118221568E+03  0.79118323498E+03  0.12700000000E+01 0.  1.
          4   -1    0    0  501    0  0.00000000000E+00 -0.00000000000E+00 -0.48541543833E+01  0.50175407100E+01  0.12700000000E+01 0.  1.
         25    2    1    2    0    0  0.00000000000E+00  0.00000000000E+00  0.78632806130E+03  0.79620077569E+03  0.12499542080E+03 0.  0.
    9000005    1    3    3    0    0  0.48137937289E+02  0.28481494200E+02  0.21566284381E+03  0.22280017666E+03  0.10000000000E+01 0.  0.
    9000005    1    3    3    0    0 -0.48137937289E+02 -0.28481494200E+02  0.57066521749E+03  0.57340059903E+03  0.10000000000E+01 0.  0.
<mgrwt>
<rscale>  0 0.12499542E+03</rscale>
<asrwt>0</asrwt>
<pdfrwt beam="2">  1        4 0.75943964E-03 0.12499542E+03</pdfrwt>
<pdfrwt beam="1">  1       -4 0.12173298E+00 0.12499542E+03</pdfrwt>
<totfact> 0.38438744E+03</totfact>
</mgrwt>
</event>
<event>
 5    1  0.3486589E-002  0.1249819E+03  0.7818608E-02  0.1235097E+00
         -4   -1    0    0    0  501 -0.00000000000E+00  0.00000000000E+00  0.32221259198E+03  0.32221509482E+03  0.12700000000E+01 0.  1.
          4   -1    0    0  501    0  0.00000000000E+00 -0.00000000000E+00 -0.12083878635E+02  0.12150433032E+02  0.12700000000E+01 0.  1.
         25    2    1    2    0    0  0.00000000000E+00  0.00000000000E+00  0.31012871334E+03  0.33436552785E+03  0.12498194820E+03 0.  0.
    9000005    1    3    3    0    0  0.17466386624E+02 -0.19421366697E+02  0.32099554110E+01  0.26335678458E+02  0.10000000000E+01 0.  0.
    9000005    1    3    3    0    0 -0.17466386624E+02  0.19421366697E+02  0.30691875793E+03  0.30802984939E+03  0.10000000000E+01 0.  0.
<mgrwt>
<rscale>  0 0.12498195E+03</rscale>
<asrwt>0</asrwt>
<pdfrwt beam="2">  1        4 0.18643703E-02 0.12498195E+03</pdfrwt>
<pdfrwt beam="1">  1       -4 0.49576481E-01 0.12498195E+03</pdfrwt>
<totfact> 0.71508078E+03</totfact>
</mgrwt>
</event>
<event>
 5    1  0.3486589E-002  0.1250058E+03  0.7818608E-02  0.1235060E+00
         -4   -1    0    0    0  501 -0.00000000000E+00  0.00000000000E+00  0.14303192152E+03  0.14303755966E+03  0.12700000000E+01 0.  1.
          4   -1    0    0  501    0  0.00000000000E+00 -0.00000000000E+00 -0.27291920438E+02  0.27321453498E+02  0.12700000000E+01 0.  1.
         25    2    1    2    0    0  0.00000000000E+00  0.00000000000E+00  0.11574000108E+03  0.17035901316E+03  0.12500578192E+03 0.  0.
    9000005    1    3    3    0    0 -0.51217614386E+02 -0.40503519324E+01  0.93807635465E+01  0.52236463308E+02  0.10000000000E+01 0.  0.
    9000005    1    3    3    0    0  0.51217614386E+02  0.40503519324E+01  0.10635923753E+03  0.11812254985E+03  0.10000000000E+01 0.  0.
<mgrwt>
<rscale>  0 0.12500578E+03</rscale>
<asrwt>0</asrwt>
<pdfrwt beam="2">  1        4 0.42014625E-02 0.12500578E+03</pdfrwt>
<pdfrwt beam="1">  1       -4 0.22007616E-01 0.12500578E+03</pdfrwt>
<totfact> 0.95369387E+03</totfact>
</mgrwt>
</event>
<event>
 5    1  0.3486589E-002  0.1250015E+03  0.7818608E-02  0.1235067E+00
         -4   -1    0    0    0  501 -0.00000000000E+00  0.00000000000E+00  0.22101136505E+03  0.22101501392E+03  0.12700000000E+01 0. -1.
          4   -1    0    0  501    0  0.00000000000E+00 -0.00000000000E+00 -0.17648227146E+02  0.17693863948E+02  0.12700000000E+01 0. -1.
         25    2    1    2    0    0  0.00000000000E+00  0.00000000000E+00  0.20336313790E+03  0.23870887787E+03  0.12500145006E+03 0.  0.
    9000005    1    3    3    0    0 -0.58556338885E+02  0.12373354024E+02  0.67339948351E+02  0.90097798848E+02  0.10000000000E+01 0.  0.
    9000005    1    3    3    0    0  0.58556338885E+02 -0.12373354024E+02  0.13602318955E+03  0.14861107902E+03  0.10000000000E+01 0.  0.
<mgrwt>
<rscale>  0 0.12500145E+03</rscale>
<asrwt>0</asrwt>
<pdfrwt beam="2">  1        4 0.27189031E-02 0.12500145E+03</pdfrwt>
<pdfrwt beam="1">  1       -4 0.34005540E-01 0.12500145E+03</pdfrwt>
<totfact> 0.83987317E+03</totfact>
</mgrwt>
</event>
<event>
 5    1  0.3486589E-002  0.1249985E+03  0.7818608E-02  0.1235072E+00
          4   -1    0    0  501    0  0.00000000000E+00  0.00000000000E+00  0.20246986475E+03  0.20247384777E+03  0.12700000000E+01 0.  1.
         -4   -1    0    0    0  501 -0.00000000000E+00 -0.00000000000E+00 -0.19267448582E+02  0.19309258785E+02  0.12700000000E+01 0.  1.
         25    2    1    2    0    0  0.00000000000E+00  0.00000000000E+00  0.18320241616E+03  0.22178310655E+03  0.12499848425E+03 0.  0.
    9000005    1    3    3    0    0  0.36356888690E+02  0.50010627212E+02  0.75508022201E+02  0.97597887303E+02  0.10000000000E+01 0.  0.
    9000005    1    3    3    0    0 -0.36356888690E+02 -0.50010627212E+02  0.10769439396E+03  0.12418521925E+03  0.10000000000E+01 0.  0.
<mgrwt>
<rscale>  0 0.12499848E+03</rscale>
<asrwt>0</asrwt>
<pdfrwt beam="1">  1        4 0.31152729E-01 0.12499848E+03</pdfrwt>
<pdfrwt beam="2">  1       -4 0.29677458E-02 0.12499848E+03</pdfrwt>
<totfact> 0.86589915E+03</totfact>
</mgrwt>
</event>
<event>
 5    1  0.3486589E-002  0.1250058E+03  0.7818608E-02  0.1235060E+00
         -4   -1    0    0    0  501 -0.00000000000E+00  0.00000000000E+00  0.52506388221E+03  0.52506541811E+03  0.12700000000E+01 0. -1.
          4   -1    0    0  501    0  0.00000000000E+00 -0.00000000000E+00 -0.73845051309E+01  0.74929177247E+01  0.12700000000E+01 0. -1.
         25    2    1    2    0    0  0.00000000000E+00  0.00000000000E+00  0.51767937708E+03  0.53255833584E+03  0.12500577435E+03 0.  0.
    9000005    1    3    3    0    0  0.48385118661E+02 -0.12106404642E+02  0.98417690805E+02  0.11033914357E+03  0.10000000000E+01 0.  0.
    9000005    1    3    3    0    0 -0.48385118661E+02  0.12106404642E+02  0.41926168627E+03  0.42221919226E+03  0.10000000000E+01 0.  0.
<mgrwt>
<rscale>  0 0.12500577E+03</rscale>
<asrwt>0</asrwt>
<pdfrwt beam="2">  1        4 0.11445353E-02 0.12500577E+03</pdfrwt>
<pdfrwt beam="1">  1       -4 0.80787519E-01 0.12500577E+03</pdfrwt>
<totfact> 0.53417086E+03</totfact>
</mgrwt>
</event>
<event>
 4    1  0.3486589E-002  0.1247506E+03  0.7818608E-02  0.1235460E+00
          4   -1    0    0  501    0  0.00000000000E+00  0.00000000000E+00  0.15370063188E+03  0.15370587868E+03  0.12700000000E+01 0. -1.
         -4   -1    0    0    0  501 -0.00000000000E+00 -0.00000000000E+00 -0.25291727836E+02  0.25323593681E+02  0.12700000000E+01 0. -1.
    9000005    1    1    2    0    0  0.58564998063E+01  0.57937451931E+02  0.32158665991E+02  0.66529893466E+02  0.10000000000E+01 0.  0.
    9000005    1    1    2    0    0 -0.58564998063E+01 -0.57937451931E+02  0.96250238057E+02  0.11249957890E+03  0.10000000000E+01 0.  0.
<mgrwt>
<rscale>  0 0.12475057E+03</rscale>
<asrwt>0</asrwt>
<pdfrwt beam="1">  1        4 0.23649105E-01 0.12475057E+03</pdfrwt>
<pdfrwt beam="2">  1       -4 0.38938899E-02 0.12475057E+03</pdfrwt>
<totfact> 0.94318525E+03</totfact>
</mgrwt>
</event>
<event>
 5    1  0.3486589E-002  0.1250009E+03  0.7818608E-02  0.1235068E+00
          4   -1    0    0  501    0  0.00000000000E+00  0.00000000000E+00  0.16994676810E+04  0.16994681556E+04  0.12700000000E+01 0.  1.
         -4   -1    0    0    0  501 -0.00000000000E+00 -0.00000000000E+00 -0.21226084794E+01  0.24735332537E+01  0.12700000000E+01 0.  1.
         25    2    1    2    0    0  0.00000000000E+00  0.00000000000E+00  0.16973450726E+04  0.17019416888E+04  0.12500086725E+03 0.  0.
    9000005    1    3    3    0    0 -0.37407517365E+02  0.48201833383E+02  0.66470527734E+03  0.66750044556E+03  0.10000000000E+01 0.  0.
    9000005    1    3    3    0    0  0.37407517365E+02 -0.48201833383E+02  0.10326397952E+04  0.10344412433E+04  0.10000000000E+01 0.  0.
<mgrwt>
<rscale>  0 0.12500087E+03</rscale>
<asrwt>0</asrwt>
<pdfrwt beam="1">  1        4 0.26148278E+00 0.12500087E+03</pdfrwt>
<pdfrwt beam="2">  1       -4 0.35358698E-03 0.12500087E+03</pdfrwt>
<totfact> 0.14275364E+03</totfact>
</mgrwt>
</event>
<event>
 5    1  0.3486589E-002  0.1249999E+03  0.7818608E-02  0.1235069E+00
         -4   -1    0    0    0  501 -0.00000000000E+00  0.00000000000E+00  0.58772470612E+02  0.58786190571E+02  0.12700000000E+01 0.  1.
          4   -1    0    0  501    0  0.00000000000E+00 -0.00000000000E+00 -0.66436249762E+02  0.66448387358E+02  0.12700000000E+01 0.  1.
         25    2    1    2    0    0  0.00000000000E+00  0.00000000000E+00 -0.76637791505E+01  0.12523457793E+03  0.12499986399E+03 0.  0.
    9000005    1    3    3    0    0 -0.96656399890E+01  0.14713873028E+02 -0.63905456789E+02  0.66293514489E+02  0.10000000000E+01 0.  0.
    9000005    1    3    3    0    0  0.96656399890E+01 -0.14713873028E+02  0.56241677638E+02  0.58941063440E+02  0.10000000000E+01 0.  0.
<mgrwt>
<rscale>  0 0.12499986E+03</rscale>
<asrwt>0</asrwt>
<pdfrwt beam="2">  1        4 0.10222951E-01 0.12499986E+03</pdfrwt>
<pdfrwt beam="1">  1       -4 0.90439076E-02 0.12499986E+03</pdfrwt>
<totfact> 0.10447802E+04</totfact>
</mgrwt>
</event>
<event>
 5    1  0.3486589E-002  0.1250011E+03  0.7818608E-02  0.1235068E+00
          4   -1    0    0  501    0  0.00000000000E+00  0.00000000000E+00  0.44557477232E+03  0.44557658223E+03  0.12700000000E+01 0.  1.
         -4   -1    0    0    0  501 -0.00000000000E+00 -0.00000000000E+00 -0.87190848538E+01  0.88110919124E+01  0.12700000000E+01 0.  1.
         25    2    1    2    0    0  0.00000000000E+00  0.00000000000E+00  0.43685568747E+03  0.45438767414E+03  0.12500106694E+03 0.  0.
    9000005    1    3    3    0    0  0.14537971646E+00 -0.62341771517E+02  0.23418874471E+03  0.24234662317E+03  0.10000000000E+01 0.  0.
    9000005    1    3    3    0    0 -0.14537971646E+00  0.62341771517E+02  0.20266694275E+03  0.21204105097E+03  0.10000000000E+01 0.  0.
<mgrwt>
<rscale>  0 0.12500107E+03</rscale>
<asrwt>0</asrwt>
<pdfrwt beam="1">  1        4 0.68557173E-01 0.12500107E+03</pdfrwt>
<pdfrwt beam="2">  1       -4 0.13486145E-02 0.12500107E+03</pdfrwt>
<totfact> 0.59584170E+03</totfact>
</mgrwt>
</event>
<event>
 5    1  0.3486589E-002  0.1250016E+03  0.7818608E-02  0.1235067E+00
          4   -1    0    0  501    0  0.00000000000E+00  0.00000000000E+00  0.53506125505E+03  0.53506276226E+03  0.12700000000E+01 0.  1.
         -4   -1    0    0    0  501 -0.00000000000E+00 -0.00000000000E+00 -0.72439976418E+01  0.73544817516E+01  0.12700000000E+01 0.  1.
         25    2    1    2    0    0  0.00000000000E+00  0.00000000000E+00  0.52781725741E+03  0.54241724401E+03  0.12500163752E+03 0.  0.
    9000005    1    3    3    0    0 -0.28539000062E+02  0.50564763352E+02  0.36419039410E+03  0.36879115088E+03  0.10000000000E+01 0.  0.
    9000005    1    3    3    0    0  0.28539000062E+02 -0.50564763352E+02  0.16362686331E+03  0.17362609313E+03  0.10000000000E+01 0.  0.
<mgrwt>
<rscale>  0 0.12500164E+03</rscale>
<asrwt>0</asrwt>
<pdfrwt beam="1">  1        4 0.82325754E-01 0.12500164E+03</pdfrwt>
<pdfrwt beam="2">  1       -4 0.11230756E-02 0.12500164E+03</pdfrwt>
<totfact> 0.52715325E+03</totfact>
</mgrwt>
</event>
<event>
 5    1  0.3486589E-002  0.1250015E+03  0.7818608E-02  0.1235067E+00
          4   -1    0    0  501    0  0.00000000000E+00  0.00000000000E+00  0.30277926743E+02  0.30304549953E+02  0.12700000000E+01 0. -1.
         -4   -1    0    0    0  501 -0.00000000000E+00 -0.00000000000E+00 -0.12892972962E+03  0.12893598442E+03  0.12700000000E+01 0. -1.
         25    2    1    2    0    0  0.00000000000E+00  0.00000000000E+00 -0.98651802873E+02  0.15924053438E+03  0.12500147830E+03 0.  0.
    9000005    1    3    3    0    0 -0.53645016952E+02 -0.31299617334E+01 -0.89966558063E+02  0.10479773888E+03  0.10000000000E+01 0.  0.
    9000005    1    3    3    0    0  0.53645016952E+02  0.31299617334E+01 -0.86852448099E+01  0.54442795498E+02  0.10000000000E+01 0.  0.
<mgrwt>
<rscale>  0 0.12500148E+03</rscale>
<asrwt>0</asrwt>
<pdfrwt beam="1">  1        4 0.46606717E-02 0.12500148E+03</pdfrwt>
<pdfrwt beam="2">  1       -4 0.19837872E-01 0.12500148E+03</pdfrwt>
<totfact> 0.97486164E+03</totfact>
</mgrwt>
</event>
<event>
 5    1  0.3486589E-002  0.1249634E+03  0.7818608E-02  0.1235126E+00
         -4   -1    0    0    0  501 -0.00000000000E+00  0.00000000000E+00  0.73977647354E+02  0.73988547816E+02  0.12700000000E+01 0. -1.
          4   -1    0    0  501    0  0.00000000000E+00 -0.00000000000E+00 -0.52749794044E+02  0.52765080040E+02  0.12700000000E+01 0. -1.
         25    2    1    2    0    0  0.00000000000E+00  0.00000000000E+00  0.21227853310E+02  0.12675362786E+03  0.12496343633E+03 0.  0.
    9000005    1    3    3    0    0  0.15174846446E+02 -0.44881434004E+02  0.51920104987E+02  0.70294497542E+02  0.10000000000E+01 0.  0.
    9000005    1    3    3    0    0 -0.15174846446E+02  0.44881434004E+02 -0.30692251677E+02  0.56459130315E+02  0.10000000000E+01 0.  0.
<mgrwt>
<rscale>  0 0.12496344E+03</rscale>
<asrwt>0</asrwt>
<pdfrwt beam="2">  1        4 0.81173673E-02 0.12496344E+03</pdfrwt>
<pdfrwt beam="1">  1       -4 0.11383191E-01 0.12496344E+03</pdfrwt>
<totfact> 0.10423103E+04</totfact>
</mgrwt>
</event>
<event>
 5    1  0.3486589E-002  0.1249973E+03  0.7818608E-02  0.1235074E+00
         -4   -1    0    0    0  501 -0.00000000000E+00  0.00000000000E+00  0.11241014588E+03  0.11241731982E+03  0.12700000000E+01 0.  1.
          4   -1    0    0  501    0  0.00000000000E+00 -0.00000000000E+00 -0.34728574664E+02  0.34751788417E+02  0.12700000000E+01 0.  1.
         25    2    1    2    0    0  0.00000000000E+00  0.00000000000E+00  0.77681571212E+02  0.14716910824E+03  0.12499727963E+03 0.  0.
    9000005    1    3    3    0    0 -0.22613246116E+02  0.46787618052E+02 -0.20235756030E+01  0.52014757147E+02  0.10000000000E+01 0.  0.
    9000005    1    3    3    0    0  0.22613246116E+02 -0.46787618052E+02  0.79705146815E+02  0.95154351091E+02  0.10000000000E+01 0.  0.
<mgrwt>
<rscale>  0 0.12499728E+03</rscale>
<asrwt>0</asrwt>
<pdfrwt beam="2">  1        4 0.53451952E-02 0.12499728E+03</pdfrwt>
<pdfrwt beam="1">  1       -4 0.17296206E-01 0.12499728E+03</pdfrwt>
<totfact> 0.99877133E+03</totfact>
</mgrwt>
</event>
<event>
 5    1  0.3486589E-002  0.1250012E+03  0.7818608E-02  0.1235067E+00
          4   -1    0    0  501    0  0.00000000000E+00  0.00000000000E+00  0.24302115498E+02  0.24335277226E+02  0.12700000000E+01 0.  1.
         -4   -1    0    0    0  501 -0.00000000000E+00 -0.00000000000E+00 -0.16059494224E+03  0.16059996380E+03  0.12700000000E+01 0.  1.
         25    2    1    2    0    0  0.00000000000E+00  0.00000000000E+00 -0.13629282674E+03  0.18493524103E+03  0.12500123500E+03 0.  0.
    9000005    1    3    3    0    0  0.54491204026E+02 -0.17310768465E+02 -0.30824723182E+02  0.64962432069E+02  0.10000000000E+01 0.  0.
    9000005    1    3    3    0    0 -0.54491204026E+02  0.17310768465E+02 -0.10546810356E+03  0.11997280896E+03  0.10000000000E+01 0.  0.
<mgrwt>
<rscale>  0 0.12500124E+03</rscale>
<asrwt>0</asrwt>
<pdfrwt beam="1">  1        4 0.37417243E-02 0.12500124E+03</pdfrwt>
<pdfrwt beam="2">  1       -4 0.24709851E-01 0.12500124E+03</pdfrwt>
<totfact> 0.92733545E+03</totfact>
</mgrwt>
</event>
<event>
 5    1  0.3486589E-002  0.1250025E+03  0.7818608E-02  0.1235065E+00
          4   -1    0    0  501    0  0.00000000000E+00  0.00000000000E+00  0.48650998988E+01  0.50281305697E+01  0.12700000000E+01 0. -1.
         -4   -1    0    0    0  501 -0.00000000000E+00 -0.00000000000E+00 -0.78954918645E+03  0.78955020786E+03  0.12700000000E+01 0. -1.
         25    2    1    2    0    0  0.00000000000E+00  0.00000000000E+00 -0.78468408655E+03  0.79457833843E+03  0.12500248080E+03 0.  0.
    9000005    1    3    3    0    0 -0.11870356095E+02  0.60725776407E+02 -0.44807654833E+03  0.45232965681E+03  0.10000000000E+01 0.  0.
    9000005    1    3    3    0    0  0.11870356095E+02 -0.60725776407E+02 -0.33660753823E+03  0.34224868161E+03  0.10000000000E+01 0.  0.
<mgrwt>
<rscale>  0 0.12500248E+03</rscale>
<asrwt>0</asrwt>
<pdfrwt beam="1">  1        4 0.76109693E-03 0.12500248E+03</pdfrwt>
<pdfrwt beam="2">  1       -4 0.12148162E+00 0.12500248E+03</pdfrwt>
<totfact> 0.38505853E+03</totfact>
</mgrwt>
</event>
<event>
 5    1  0.3486589E-002  0.1249998E+03  0.7818608E-02  0.1235070E+00
         -4   -1    0    0    0  501 -0.00000000000E+00  0.00000000000E+00  0.28944867760E+03  0.28945146374E+03  0.12700000000E+01 0.  1.
          4   -1    0    0  501    0  0.00000000000E+00 -0.00000000000E+00 -0.13462696086E+02  0.13522465970E+02  0.12700000000E+01 0.  1.
         25    2    1    2    0    0  0.00000000000E+00  0.00000000000E+00  0.27598598151E+03  0.30297392971E+03  0.12499976038E+03 0.  0.
    9000005    1    3    3    0    0 -0.35138965212E+02  0.33741323703E+02  0.43123394399E+02  0.65068048580E+02  0.10000000000E+01 0.  0.
    9000005    1    3    3    0    0  0.35138965212E+02 -0.33741323703E+02  0.23286258711E+03  0.23790588113E+03  0.10000000000E+01 0.  0.
<mgrwt>
<rscale>  0 0.12499976E+03</rscale>
<asrwt>0</asrwt>
<pdfrwt beam="2">  1        4 0.20759959E-02 0.12499976E+03</pdfrwt>
<pdfrwt beam="1">  1       -4 0.44535380E-01 0.12499976E+03</pdfrwt>
<totfact> 0.75227699E+03</totfact>
</mgrwt>
</event>
<event>
 5    1  0.3486589E-002  0.1249976E+03  0.7818608E-02  0.1235073E+00
          4   -1    0    0  501    0  0.00000000000E+00  0.00000000000E+00  0.16857839792E+02  0.16905610384E+02  0.12700000000E+01 0. -1.
         -4   -1    0    0    0  501 -0.00000000000E+00 -0.00000000000E+00 -0.23133076296E+03  0.23133424907E+03  0.12700000000E+01 0. -1.
         25    2    1    2    0    0  0.00000000000E+00  0.00000000000E+00 -0.21447292317E+03  0.24823985945E+03  0.12499757217E+03 0.  0.
    9000005    1    3    3    0    0  0.45565400266E+01  0.36549533772E+02 -0.69806601516E+01  0.37501467866E+02  0.10000000000E+01 0.  0.
    9000005    1    3    3    0    0 -0.45565400266E+01 -0.36549533772E+02 -0.20749226301E+03  0.21073839158E+03  0.10000000000E+01 0.  0.
<mgrwt>
<rscale>  0 0.12499757E+03</rscale>
<asrwt>0</asrwt>
<pdfrwt beam="1">  1        4 0.25974568E-02 0.12499757E+03</pdfrwt>
<pdfrwt beam="2">  1       -4 0.35593289E-01 0.12499757E+03</pdfrwt>
<totfact> 0.82589758E+03</totfact>
</mgrwt>
</event>
<event>
 5    1  0.3486589E-002  0.1250061E+03  0.7818608E-02  0.1235060E+00
          4   -1    0    0  501    0  0.00000000000E+00  0.00000000000E+00  0.14226521745E+03  0.14227088598E+03  0.12700000000E+01 0.  1.
         -4   -1    0    0    0  501 -0.00000000000E+00 -0.00000000000E+00 -0.27439283904E+02  0.27468658525E+02  0.12700000000E+01 0.  1.
         25    2    1    2    0    0  0.00000000000E+00  0.00000000000E+00  0.11482593355E+03  0.16973954450E+03  0.12500607166E+03 0.  0.
    9000005    1    3    3    0    0  0.37453222296E+02 -0.40894448813E+02  0.96544737870E+02  0.11134175414E+03  0.10000000000E+01 0.  0.
    9000005    1    3    3    0    0 -0.37453222296E+02  0.40894448813E+02  0.18281195678E+02  0.58397790364E+02  0.10000000000E+01 0.  0.
<mgrwt>
<rscale>  0 0.12500607E+03</rscale>
<asrwt>0</asrwt>
<pdfrwt beam="1">  1        4 0.21889652E-01 0.12500607E+03</pdfrwt>
<pdfrwt beam="2">  1       -4 0.42241239E-02 0.12500607E+03</pdfrwt>
<totfact> 0.95484190E+03</totfact>
</mgrwt>
</event>
<event>
 5    1  0.3486589E-002  0.1250017E+03  0.7818608E-02  0.1235067E+00
          4   -1    0    0  501    0  0.00000000000E+00  0.00000000000E+00  0.29400899224E+03  0.29401173517E+03  0.12700000000E+01 0.  1.
         -4   -1    0    0    0  501 -0.00000000000E+00 -0.00000000000E+00 -0.13253357513E+02  0.13314067199E+02  0.12700000000E+01 0.  1.
         25    2    1    2    0    0  0.00000000000E+00  0.00000000000E+00  0.28075563473E+03  0.30732580237E+03  0.12500168947E+03 0.  0.
    9000005    1    3    3    0    0  0.45553612379E+02 -0.42764658740E+02  0.13746054136E+03  0.15099784128E+03  0.10000000000E+01 0.  0.
    9000005    1    3    3    0    0 -0.45553612379E+02  0.42764658740E+02  0.14329509337E+03  0.15632796110E+03  0.10000000000E+01 0.  0.
<mgrwt>
<rscale>  0 0.12500169E+03</rscale>
<asrwt>0</asrwt>
<pdfrwt beam="1">  1        4 0.45237036E-01 0.12500169E+03</pdfrwt>
<pdfrwt beam="2">  1       -4 0.20438589E-02 0.12500169E+03</pdfrwt>
<totfact> 0.74686194E+03</totfact>
</mgrwt>
</event>
<event>
 5    1  0.3486589E-002  0.1250010E+03  0.7818608E-02  0.1235068E+00
          4   -1    0    0  501    0  0.00000000000E+00  0.00000000000E+00  0.63695913632E+01  0.64949668309E+01  0.12700000000E+01 0. -1.
         -4   -1    0    0    0  501 -0.00000000000E+00 -0.00000000000E+00 -0.60717207281E+03  0.60717340102E+03  0.12700000000E+01 0. -1.
         25    2    1    2    0    0  0.00000000000E+00  0.00000000000E+00 -0.60080248145E+03  0.61366836785E+03  0.12500097593E+03 0.  0.
    9000005    1    3    3    0    0  0.45048466955E+02  0.12486811724E+02 -0.96796512468E+02  0.10749813797E+03  0.10000000000E+01 0.  0.
    9000005    1    3    3    0    0 -0.45048466955E+02 -0.12486811724E+02 -0.50400596898E+03  0.50617022988E+03  0.10000000000E+01 0.  0.
<mgrwt>
<rscale>  0 0.12500098E+03</rscale>
<asrwt>0</asrwt>
<pdfrwt beam="1">  1        4 0.98968405E-03 0.12500098E+03</pdfrwt>
<pdfrwt beam="2">  1       -4 0.93420789E-01 0.12500098E+03</pdfrwt>
<totfact> 0.48015026E+03</totfact>
</mgrwt>
</event>
<event>
 5    1  0.3486589E-002  0.1249999E+03  0.7818608E-02  0.1235069E+00
         -4   -1    0    0    0  501 -0.00000000000E+00  0.00000000000E+00  0.12561407232E+03  0.12562049222E+03  0.12700000000E+01 0.  1.
          4   -1    0    0  501    0  0.00000000000E+00 -0.00000000000E+00 -0.31076978874E+02  0.31102918125E+02  0.12700000000E+01 0.  1.
         25    2    1    2    0    0  0.00000000000E+00  0.00000000000E+00  0.94537093450E+02  0.15672341035E+03  0.12499986125E+03 0.  0.
    9000005    1    3    3    0    0 -0.17637637664E+02  0.19182052545E+02  0.11848334529E+03  0.12131916795E+03  0.10000000000E+01 0.  0.
    9000005    1    3    3    0    0  0.17637637664E+02 -0.19182052545E+02 -0.23946251839E+02  0.35404242392E+02  0.10000000000E+01 0.  0.
<mgrwt>
<rscale>  0 0.12499986E+03</rscale>
<asrwt>0</asrwt>
<pdfrwt beam="2">  1        4 0.47835627E-02 0.12499986E+03</pdfrwt>
<pdfrwt beam="1">  1       -4 0.19327731E-01 0.12499986E+03</pdfrwt>
<totfact> 0.97978536E+03</totfact>
</mgrwt>
</event>
<event>
 5    1  0.3486589E-002  0.1249916E+03  0.7818608E-02  0.1235082E+00
          4   -1    0    0  501    0  0.00000000000E+00  0.00000000000E+00  0.24210783670E+03  0.24211116763E+03  0.12700000000E+01 0. -1.
         -4   -1    0    0    0  501 -0.00000000000E+00 -0.00000000000E+00 -0.16103720787E+02  0.16153721651E+02  0.12700000000E+01 0. -1.
         25    2    1    2    0    0  0.00000000000E+00  0.00000000000E+00  0.22600411591E+03  0.25826488928E+03  0.12499157022E+03 0.  0.
    9000005    1    3    3    0    0 -0.37546188762E+02  0.34171099469E+02  0.37722649431E+02  0.63256451130E+02  0.10000000000E+01 0.  0.
    9000005    1    3    3    0    0  0.37546188762E+02 -0.34171099469E+02  0.18828146648E+03  0.19500843815E+03  0.10000000000E+01 0.  0.
<mgrwt>
<rscale>  0 0.12499157E+03</rscale>
<asrwt>0</asrwt>
<pdfrwt beam="1">  1        4 0.37251461E-01 0.12499157E+03</pdfrwt>
<pdfrwt beam="2">  1       -4 0.24815980E-02 0.12499157E+03</pdfrwt>
<totfact> 0.81165408E+03</totfact>
</mgrwt>
</event>
<event>
 5    1  0.3486589E-002  0.1249804E+03  0.7818608E-02  0.1235100E+00
          4   -1    0    0  501    0  0.00000000000E+00  0.00000000000E+00  0.72896039960E+02  0.72907102135E+02  0.12700000000E+01 0. -1.
         -4   -1    0    0    0  501 -0.00000000000E+00 -0.00000000000E+00 -0.53547168642E+02  0.53562227079E+02  0.12700000000E+01 0. -1.
         25    2    1    2    0    0  0.00000000000E+00  0.00000000000E+00  0.19348871317E+02  0.12646932921E+03  0.12498044811E+03 0.  0.
    9000005    1    3    3    0    0  0.35364104915E+01 -0.54079975534E+02 -0.21790656675E+02  0.58420738366E+02  0.10000000000E+01 0.  0.
    9000005    1    3    3    0    0 -0.35364104915E+01  0.54079975534E+02  0.41139527992E+02  0.68048590848E+02  0.10000000000E+01 0.  0.
<mgrwt>
<rscale>  0 0.12498045E+03</rscale>
<asrwt>0</asrwt>
<pdfrwt beam="1">  1        4 0.11216785E-01 0.12498045E+03</pdfrwt>
<pdfrwt beam="2">  1       -4 0.82400352E-02 0.12498045E+03</pdfrwt>
<totfact> 0.10425297E+04</totfact>
</mgrwt>
</event>
<event>
 5    1  0.3486589E-002  0.1250131E+03  0.7818608E-02  0.1235049E+00
         -4   -1    0    0    0  501 -0.00000000000E+00  0.00000000000E+00  0.13897601278E+03  0.13898181546E+03  0.12700000000E+01 0.  1.
          4   -1    0    0  501    0  0.00000000000E+00 -0.00000000000E+00 -0.28092537211E+02  0.28121229471E+02  0.12700000000E+01 0.  1.
         25    2    1    2    0    0  0.00000000000E+00  0.00000000000E+00  0.11088347557E+03  0.16710304493E+03  0.12501312919E+03 0.  0.
    9000005    1    3    3    0    0  0.41027641139E+02 -0.45364049806E+02  0.72606876438E+02  0.94941681354E+02  0.10000000000E+01 0.  0.
    9000005    1    3    3    0    0 -0.41027641139E+02  0.45364049806E+02  0.38276599132E+02  0.72161363577E+02  0.10000000000E+01 0.  0.
<mgrwt>
<rscale>  0 0.12501313E+03</rscale>
<asrwt>0</asrwt>
<pdfrwt beam="2">  1        4 0.43245822E-02 0.12501313E+03</pdfrwt>
<pdfrwt beam="1">  1       -4 0.21383579E-01 0.12501313E+03</pdfrwt>
<totfact> 0.95962285E+03</totfact>
</mgrwt>
</event>
<event>
 5    1  0.3486589E-002  0.1249777E+03  0.7818608E-02  0.1235104E+00
          4   -1    0    0  501    0  0.00000000000E+00  0.00000000000E+00  0.96590723307E+02  0.96599072091E+02  0.12700000000E+01 0.  1.
         -4   -1    0    0    0  501 -0.00000000000E+00 -0.00000000000E+00 -0.40406760096E+02  0.40426713464E+02  0.12700000000E+01 0.  1.
         25    2    1    2    0    0  0.00000000000E+00  0.00000000000E+00  0.56183963210E+02  0.13702578556E+03  0.12497771075E+03 0.  0.
    9000005    1    3    3    0    0 -0.51057266760E+02 -0.29557548048E+02  0.50651335243E+02  0.77762786071E+02  0.10000000000E+01 0.  0.
    9000005    1    3    3    0    0  0.51057266760E+02  0.29557548048E+02  0.55326279666E+01  0.59262999484E+02  0.10000000000E+01 0.  0.
<mgrwt>
<rscale>  0 0.12497771E+03</rscale>
<asrwt>0</asrwt>
<pdfrwt beam="1">  1        4 0.14862288E-01 0.12497771E+03</pdfrwt>
<pdfrwt beam="2">  1       -4 0.62186017E-02 0.12497771E+03</pdfrwt>
<totfact> 0.10200672E+04</totfact>
</mgrwt>
</event>
<event>
 5    1  0.3486589E-002  0.1250016E+03  0.7818608E-02  0.1235067E+00
         -4   -1    0    0    0  501 -0.00000000000E+00  0.00000000000E+00  0.63365806654E+02  0.63378532272E+02  0.12700000000E+01 0. -1.
          4   -1    0    0  501    0  0.00000000000E+00 -0.00000000000E+00 -0.61622154585E+02  0.61635240209E+02  0.12700000000E+01 0. -1.
         25    2    1    2    0    0  0.00000000000E+00  0.00000000000E+00  0.17436520694E+01  0.12501377248E+03  0.12500161194E+03 0.  0.
    9000005    1    3    3    0    0  0.37985036936E+02  0.42980309344E+02  0.25677075957E+02  0.62852861924E+02  0.10000000000E+01 0.  0.
    9000005    1    3    3    0    0 -0.37985036936E+02 -0.42980309344E+02 -0.23933423887E+02  0.62160910557E+02  0.10000000000E+01 0.  0.
<mgrwt>
<rscale>  0 0.12500161E+03</rscale>
<asrwt>0</asrwt>
<pdfrwt beam="2">  1        4 0.94823170E-02 0.12500161E+03</pdfrwt>
<pdfrwt beam="1">  1       -4 0.97505711E-02 0.12500161E+03</pdfrwt>
<totfact> 0.10452183E+04</totfact>
</mgrwt>
</event>
<event>
 5    1  0.3486589E-002  0.1250000E+03  0.7818608E-02  0.1235069E+00
          4   -1    0    0  501    0  0.00000000000E+00  0.00000000000E+00  0.13653021034E+02  0.13711961324E+02  0.12700000000E+01 0.  1.
         -4   -1    0    0    0  501 -0.00000000000E+00 -0.00000000000E+00 -0.28543203331E+03  0.28543485867E+03  0.12700000000E+01 0.  1.
         25    2    1    2    0    0  0.00000000000E+00  0.00000000000E+00 -0.27177901228E+03  0.29914681999E+03  0.12499995358E+03 0.  0.
    9000005    1    3    3    0    0  0.44990526193E+02  0.24648328161E+02 -0.22129467795E+03  0.22716518663E+03  0.10000000000E+01 0.  0.
    9000005    1    3    3    0    0 -0.44990526193E+02 -0.24648328161E+02 -0.50484334330E+02  0.71981633359E+02  0.10000000000E+01 0.  0.
<mgrwt>
<rscale>  0 0.12499995E+03</rscale>
<asrwt>0</asrwt>
<pdfrwt beam="1">  1        4 0.21052162E-02 0.12499995E+03</pdfrwt>
<pdfrwt beam="2">  1       -4 0.43917367E-01 0.12499995E+03</pdfrwt>
<totfact> 0.75706065E+03</totfact>
</mgrwt>
</event>
<event>
 5    1  0.3486589E-002  0.1250100E+03  0.7818608E-02  0.1235054E+00
         -4   -1    0    0    0  501 -0.00000000000E+00  0.00000000000E+00  0.35707052881E+02  0.35729630916E+02  0.12700000000E+01 0.  1.
          4   -1    0    0  501    0  0.00000000000E+00 -0.00000000000E+00 -0.10935376195E+03  0.10936113639E+03  0.12700000000E+01 0.  1.
         25    2    1    2    0    0  0.00000000000E+00  0.00000000000E+00 -0.73646709073E+02  0.14509076731E+03  0.12500997161E+03 0.  0.
    9000005    1    3    3    0    0 -0.57278971109E+02  0.23433206599E+02 -0.46933368688E+02  0.77677131765E+02  0.10000000000E+01 0.  0.
    9000005    1    3    3    0    0  0.57278971109E+02 -0.23433206599E+02 -0.26713340384E+02  0.67413635545E+02  0.10000000000E+01 0.  0.
<mgrwt>
<rscale>  0 0.12500997E+03</rscale>
<asrwt>0</asrwt>
<pdfrwt beam="2">  1        4 0.16825960E-01 0.12500997E+03</pdfrwt>
<pdfrwt beam="1">  1       -4 0.54956968E-02 0.12500997E+03</pdfrwt>
<totfact> 0.10026893E+04</totfact>
</mgrwt>
</event>
<event>
 5    1  0.3486589E-002  0.1250001E+03  0.7818608E-02  0.1235069E+00
         -4   -1    0    0    0  501 -0.00000000000E+00  0.00000000000E+00  0.40160509174E+02  0.40180584827E+02  0.12700000000E+01 0. -1.
          4   -1    0    0  501    0  0.00000000000E+00 -0.00000000000E+00 -0.97217534284E+02  0.97225829245E+02  0.12700000000E+01 0. -1.
         25    2    1    2    0    0  0.00000000000E+00  0.00000000000E+00 -0.57057025111E+02  0.13740641407E+03  0.12500007405E+03 0.  0.
    9000005    1    3    3    0    0 -0.49142410756E+01 -0.55960899994E+02 -0.58622344687E+02  0.81199454371E+02  0.10000000000E+01 0.  0.
    9000005    1    3    3    0    0  0.49142410756E+01  0.55960899994E+02  0.15653195765E+01  0.56206959701E+02  0.10000000000E+01 0.  0.
<mgrwt>
<rscale>  0 0.12500007E+03</rscale>
<asrwt>0</asrwt>
<pdfrwt beam="2">  1        4 0.14958726E-01 0.12500007E+03</pdfrwt>
<pdfrwt beam="1">  1       -4 0.61807222E-02 0.12500007E+03</pdfrwt>
<totfact> 0.10187578E+04</totfact>
</mgrwt>
</event>
<event>
 5    1  0.3486589E-002  0.1249995E+03  0.7818608E-02  0.1235070E+00
         -4   -1    0    0    0  501 -0.00000000000E+00  0.00000000000E+00  0.10434326474E+02  0.10511330504E+02  0.12700000000E+01 0.  1.
          4   -1    0    0  501    0  0.00000000000E+00 -0.00000000000E+00 -0.37290804652E+03  0.37291020911E+03  0.12700000000E+01 0.  1.
         25    2    1    2    0    0  0.00000000000E+00  0.00000000000E+00 -0.36247372005E+03  0.38342153962E+03  0.12499951727E+03 0.  0.
    9000005    1    3    3    0    0  0.19297987842E+02  0.19695034258E+02 -0.35325430675E+03  0.35433023008E+03  0.10000000000E+01 0.  0.
    9000005    1    3    3    0    0 -0.19297987842E+02 -0.19695034258E+02 -0.92194132982E+01  0.29091309539E+02  0.10000000000E+01 0.  0.
<mgrwt>
<rscale>  0 0.12499952E+03</rscale>
<asrwt>0</asrwt>
<pdfrwt beam="2">  1        4 0.57376548E-01 0.12499952E+03</pdfrwt>
<pdfrwt beam="1">  1       -4 0.16113710E-02 0.12499952E+03</pdfrwt>
<totfact> 0.66198484E+03</totfact>
</mgrwt>
</event>
<event>
 5    1  0.3486589E-002  0.1249970E+03  0.7818608E-02  0.1235074E+00
          4   -1    0    0  501    0  0.00000000000E+00  0.00000000000E+00  0.36106125455E+01  0.38274564601E+01  0.12700000000E+01 0.  1.
         -4   -1    0    0    0  501 -0.00000000000E+00 -0.00000000000E+00 -0.10500721696E+04  0.10500729376E+04  0.12700000000E+01 0.  1.
         25    2    1    2    0    0  0.00000000000E+00  0.00000000000E+00 -0.10464615570E+04  0.10539003940E+04  0.12499700074E+03 0.  0.
    9000005    1    3    3    0    0 -0.11070740559E+02  0.28396550563E+02 -0.98319753670E+03  0.98367033174E+03  0.10000000000E+01 0.  0.
    9000005    1    3    3    0    0  0.11070740559E+02 -0.28396550563E+02 -0.63264020329E+02  0.70230062285E+02  0.10000000000E+01 0.  0.
<mgrwt>
<rscale>  0 0.12499700E+03</rscale>
<asrwt>0</asrwt>
<pdfrwt beam="1">  1        4 0.57221907E-03 0.12499700E+03</pdfrwt>
<pdfrwt beam="2">  1       -4 0.16156607E+00 0.12499700E+03</pdfrwt>
<totfact> 0.28875230E+03</totfact>
</mgrwt>
</event>
<event>
 5    1  0.3486589E-002  0.1249993E+03  0.7818608E-02  0.1235070E+00
          4   -1    0    0  501    0  0.00000000000E+00  0.00000000000E+00  0.57498078496E+01  0.58883945442E+01  0.12700000000E+01 0. -1.
         -4   -1    0    0    0  501 -0.00000000000E+00 -0.00000000000E+00 -0.67113389305E+03  0.67113509467E+03  0.12700000000E+01 0. -1.
         25    2    1    2    0    0  0.00000000000E+00  0.00000000000E+00 -0.66538408520E+03  0.67702348921E+03  0.12499929645E+03 0.  0.
    9000005    1    3    3    0    0  0.47134882336E+02 -0.33910186414E+02 -0.20757761416E+03  0.21554828642E+03  0.10000000000E+01 0.  0.
    9000005    1    3    3    0    0 -0.47134882336E+02  0.33910186414E+02 -0.45780647104E+03  0.46147520280E+03  0.10000000000E+01 0.  0.
<mgrwt>
<rscale>  0 0.12499930E+03</rscale>
<asrwt>0</asrwt>
<pdfrwt beam="1">  1        4 0.89533930E-03 0.12499930E+03</pdfrwt>
<pdfrwt beam="2">  1       -4 0.10326206E+00 0.12499930E+03</pdfrwt>
<totfact> 0.44328370E+03</totfact>
</mgrwt>
</event>
<event>
 5    1  0.3486589E-002  0.1249847E+03  0.7818608E-02  0.1235093E+00
          4   -1    0    0  501    0  0.00000000000E+00  0.00000000000E+00  0.36535419286E+02  0.36557485723E+02  0.12700000000E+01 0.  1.
         -4   -1    0    0    0  501 -0.00000000000E+00 -0.00000000000E+00 -0.10683254288E+03  0.10684009135E+03  0.12700000000E+01 0.  1.
         25    2    1    2    0    0  0.00000000000E+00  0.00000000000E+00 -0.70297123598E+02  0.14339757707E+03  0.12498471716E+03 0.  0.
    9000005    1    3    3    0    0 -0.30201383975E+02  0.38424544501E+02 -0.79816427734E+02  0.93596107560E+02  0.10000000000E+01 0.  0.
    9000005    1    3    3    0    0  0.30201383975E+02 -0.38424544501E+02  0.95193041356E+01  0.49801469510E+02  0.10000000000E+01 0.  0.
<mgrwt>
<rscale>  0 0.12498472E+03</rscale>
<asrwt>0</asrwt>
<pdfrwt beam="1">  1        4 0.56231119E-02 0.12498472E+03</pdfrwt>
<pdfrwt beam="2">  1       -4 0.16438054E-01 0.12498472E+03</pdfrwt>
<totfact> 0.10067113E+04</totfact>
</mgrwt>
</event>
<event>
 4    1  0.3486589E-002  0.1251221E+03  0.7818608E-02  0.1234879E+00
          4   -1    0    0  501    0  0.00000000000E+00  0.00000000000E+00  0.44287867013E+02  0.44306072547E+02  0.12700000000E+01 0.  1.
         -4   -1    0    0    0  501 -0.00000000000E+00 -0.00000000000E+00 -0.88332787090E+02  0.88341916297E+02  0.12700000000E+01 0.  1.
    9000005    1    1    2    0    0 -0.13805188997E+02 -0.58345452237E+02 -0.40930840410E+02  0.72602401728E+02  0.10000000000E+01 0.  0.
    9000005    1    1    2    0    0  0.13805188997E+02  0.58345452237E+02 -0.31140796674E+01  0.60045587117E+02  0.10000000000E+01 0.  0.
<mgrwt>
<rscale>  0 0.12512208E+03</rscale>
<asrwt>0</asrwt>
<pdfrwt beam="1">  1        4 0.68156207E-02 0.12512208E+03</pdfrwt>
<pdfrwt beam="2">  1       -4 0.13591762E-01 0.12512208E+03</pdfrwt>
<totfact> 0.10259608E+04</totfact>
</mgrwt>
</event>
<event>
 5    1  0.3486589E-002  0.1250018E+03  0.7818608E-02  0.1235066E+00
         -4   -1    0    0    0  501 -0.00000000000E+00  0.00000000000E+00  0.16430527104E+02  0.16479536429E+02  0.12700000000E+01 0. -1.
          4   -1    0    0  501    0  0.00000000000E+00 -0.00000000000E+00 -0.23734548170E+03  0.23734887946E+03  0.12700000000E+01 0. -1.
         25    2    1    2    0    0  0.00000000000E+00  0.00000000000E+00 -0.22091495459E+03  0.25382841589E+03  0.12500179019E+03 0.  0.
    9000005    1    3    3    0    0 -0.45251638039E+02  0.41432904222E+02 -0.13456655317E+03  0.14789710454E+03  0.10000000000E+01 0.  0.
    9000005    1    3    3    0    0  0.45251638039E+02 -0.41432904222E+02 -0.86348401419E+02  0.10593131135E+03  0.10000000000E+01 0.  0.
<mgrwt>
<rscale>  0 0.12500179E+03</rscale>
<asrwt>0</asrwt>
<pdfrwt beam="2">  1        4 0.36518718E-01 0.12500179E+03</pdfrwt>
<pdfrwt beam="1">  1       -4 0.25318049E-02 0.12500179E+03</pdfrwt>
<totfact> 0.81776773E+03</totfact>
</mgrwt>
</event>
<event>
 5    1  0.3486589E-002  0.1249998E+03  0.7818608E-02  0.1235070E+00
         -4   -1    0    0    0  501 -0.00000000000E+00  0.00000000000E+00  0.59561411466E+02  0.59574949734E+02  0.12700000000E+01 0. -1.
          4   -1    0    0  501    0  0.00000000000E+00 -0.00000000000E+00 -0.65556240765E+02  0.65568541262E+02  0.12700000000E+01 0. -1.
         25    2    1    2    0    0  0.00000000000E+00  0.00000000000E+00 -0.59948292989E+01  0.12514349100E+03  0.12499982144E+03 0.  0.
    9000005    1    3    3    0    0  0.55782107786E+02 -0.14523057986E+02  0.21169013602E+02  0.61414085512E+02  0.10000000000E+01 0.  0.
    9000005    1    3    3    0    0 -0.55782107786E+02  0.14523057986E+02 -0.27163842901E+02  0.63729405485E+02  0.10000000000E+01 0.  0.
<mgrwt>
<rscale>  0 0.12499982E+03</rscale>
<asrwt>0</asrwt>
<pdfrwt beam="2">  1        4 0.10087563E-01 0.12499982E+03</pdfrwt>
<pdfrwt beam="1">  1       -4 0.91652817E-02 0.12499982E+03</pdfrwt>
<totfact> 0.10449789E+04</totfact>
</mgrwt>
</event>
<event>
 5    1  0.3486589E-002  0.1249977E+03  0.7818608E-02  0.1235073E+00
          4   -1    0    0  501    0  0.00000000000E+00  0.00000000000E+00  0.55765761404E+02  0.55780220911E+02  0.12700000000E+01 0.  1.
         -4   -1    0    0    0  501 -0.00000000000E+00 -0.00000000000E+00 -0.70015541742E+02  0.70027058952E+02  0.12700000000E+01 0.  1.
         25    2    1    2    0    0  0.00000000000E+00  0.00000000000E+00 -0.14249780339E+02  0.12580727986E+03  0.12499766169E+03 0.  0.
    9000005    1    3    3    0    0 -0.22899767359E+02 -0.58074569859E+02 -0.99803149817E+01  0.63227064589E+02  0.10000000000E+01 0.  0.
    9000005    1    3    3    0    0  0.22899767359E+02  0.58074569859E+02 -0.42694653570E+01  0.62580215275E+02  0.10000000000E+01 0.  0.
<mgrwt>
<rscale>  0 0.12499766E+03</rscale>
<asrwt>0</asrwt>
<pdfrwt beam="1">  1        4 0.85813461E-02 0.12499766E+03</pdfrwt>
<pdfrwt beam="2">  1       -4 0.10773620E-01 0.12499766E+03</pdfrwt>
<totfact> 0.10435736E+04</totfact>
</mgrwt>
</event>
<event>
 5    1  0.3486589E-002  0.1250067E+03  0.7818608E-02  0.1235059E+00
         -4   -1    0    0    0  501 -0.00000000000E+00  0.00000000000E+00  0.41209305178E+02  0.41228870142E+02  0.12700000000E+01 0. -1.
          4   -1    0    0  501    0  0.00000000000E+00 -0.00000000000E+00 -0.94754371333E+02  0.94762881904E+02  0.12700000000E+01 0. -1.
         25    2    1    2    0    0  0.00000000000E+00  0.00000000000E+00 -0.53545066156E+02  0.13599175205E+03  0.12500672988E+03 0.  0.
    9000005    1    3    3    0    0  0.30563167439E+01 -0.52034676268E+02 -0.64280137666E+02  0.82764030259E+02  0.10000000000E+01 0.  0.
    9000005    1    3    3    0    0 -0.30563167439E+01  0.52034676268E+02  0.10735071510E+02  0.53227721788E+02  0.10000000000E+01 0.  0.
<mgrwt>
<rscale>  0 0.12500673E+03</rscale>
<asrwt>0</asrwt>
<pdfrwt beam="2">  1        4 0.14579755E-01 0.12500673E+03</pdfrwt>
<pdfrwt beam="1">  1       -4 0.63420528E-02 0.12500673E+03</pdfrwt>
<totfact> 0.10215659E+04</totfact>
</mgrwt>
</event>
<event>
 5    1  0.3486589E-002  0.1249992E+03  0.7818608E-02  0.1235071E+00
          4   -1    0    0  501    0  0.00000000000E+00  0.00000000000E+00  0.11181933088E+02  0.11253822799E+02  0.12700000000E+01 0.  1.
         -4   -1    0    0    0  501 -0.00000000000E+00 -0.00000000000E+00 -0.34813895897E+03  0.34814127542E+03  0.12700000000E+01 0.  1.
         25    2    1    2    0    0  0.00000000000E+00  0.00000000000E+00 -0.33695702588E+03  0.35939509822E+03  0.12499919733E+03 0.  0.
    9000005    1    3    3    0    0  0.32695361817E+02  0.51183673421E+02 -0.21077832399E+03  0.21935646098E+03  0.10000000000E+01 0.  0.
    9000005    1    3    3    0    0 -0.32695361817E+02 -0.51183673421E+02 -0.12617870189E+03  0.14003863724E+03  0.10000000000E+01 0.  0.
<mgrwt>
<rscale>  0 0.12499920E+03</rscale>
<asrwt>0</asrwt>
<pdfrwt beam="1">  1        4 0.17260058E-02 0.12499920E+03</pdfrwt>
<pdfrwt beam="2">  1       -4 0.53565540E-01 0.12499920E+03</pdfrwt>
<totfact> 0.68704422E+03</totfact>
</mgrwt>
</event>
<event>
 5    1  0.3486589E-002  0.1249984E+03  0.7818608E-02  0.1235072E+00
         -4   -1    0    0    0  501 -0.00000000000E+00  0.00000000000E+00  0.47267589816E+02  0.47284648112E+02  0.12700000000E+01 0. -1.
          4   -1    0    0  501    0  0.00000000000E+00 -0.00000000000E+00 -0.82602293315E+02  0.82612055784E+02  0.12700000000E+01 0. -1.
         25    2    1    2    0    0  0.00000000000E+00  0.00000000000E+00 -0.35334703498E+02  0.12989670390E+03  0.12499844964E+03 0.  0.
    9000005    1    3    3    0    0 -0.26409062190E+02 -0.47862731142E+02 -0.49133835578E+02  0.73507913837E+02  0.10000000000E+01 0.  0.
    9000005    1    3    3    0    0  0.26409062190E+02  0.47862731142E+02  0.13799132080E+02  0.56388790059E+02  0.10000000000E+01 0.  0.
<mgrwt>
<rscale>  0 0.12499845E+03</rscale>
<asrwt>0</asrwt>
<pdfrwt beam="2">  1        4 0.12710108E-01 0.12499845E+03</pdfrwt>
<pdfrwt beam="1">  1       -4 0.72740000E-02 0.12499845E+03</pdfrwt>
<totfact> 0.10347080E+04</totfact>
</mgrwt>
</event>
<event>
 5    1  0.3486589E-002  0.1250011E+03  0.7818608E-02  0.1235068E+00
          4   -1    0    0  501    0  0.00000000000E+00  0.00000000000E+00  0.14964170928E+02  0.15017966293E+02  0.12700000000E+01 0.  1.
         -4   -1    0    0    0  501 -0.00000000000E+00 -0.00000000000E+00 -0.26052113395E+03  0.26052422946E+03  0.12700000000E+01 0.  1.
         25    2    1    2    0    0  0.00000000000E+00  0.00000000000E+00 -0.24555696302E+03  0.27554219575E+03  0.12500111820E+03 0.  0.
    9000005    1    3    3    0    0 -0.50794279999E+02 -0.27289332144E+02 -0.17589080340E+03  0.18510359599E+03  0.10000000000E+01 0.  0.
    9000005    1    3    3    0    0  0.50794279999E+02  0.27289332144E+02 -0.69666159626E+02  0.90438599760E+02  0.10000000000E+01 0.  0.
<mgrwt>
<rscale>  0 0.12500112E+03</rscale>
<asrwt>0</asrwt>
<pdfrwt beam="1">  1        4 0.23065566E-02 0.12500112E+03</pdfrwt>
<pdfrwt beam="2">  1       -4 0.40084547E-01 0.12500112E+03</pdfrwt>
<totfact> 0.78770957E+03</totfact>
</mgrwt>
</event>
<event>
 5    1  0.3486589E-002  0.1250013E+03  0.7818608E-02  0.1235067E+00
         -4   -1    0    0    0  501 -0.00000000000E+00  0.00000000000E+00  0.19972916779E+02  0.20013253226E+02  0.12700000000E+01 0. -1.
          4   -1    0    0  501    0  0.00000000000E+00 -0.00000000000E+00 -0.19534164488E+03  0.19534577324E+03  0.12700000000E+01 0. -1.
         25    2    1    2    0    0  0.00000000000E+00  0.00000000000E+00 -0.17536872810E+03  0.21535902647E+03  0.12500127794E+03 0.  0.
    9000005    1    3    3    0    0 -0.39840602074E+01  0.61238064987E+02 -0.10802255367E+03  0.12424107791E+03  0.10000000000E+01 0.  0.
    9000005    1    3    3    0    0  0.39840602074E+01 -0.61238064987E+02 -0.67346174425E+02  0.91117948554E+02  0.10000000000E+01 0.  0.
<mgrwt>
<rscale>  0 0.12500128E+03</rscale>
<asrwt>0</asrwt>
<pdfrwt beam="2">  1        4 0.30055980E-01 0.12500128E+03</pdfrwt>
<pdfrwt beam="1">  1       -4 0.30761769E-02 0.12500128E+03</pdfrwt>
<totfact> 0.87605591E+03</totfact>
</mgrwt>
</event>
<event>
 5    1  0.3486589E-002  0.1250007E+03  0.7818608E-02  0.1235068E+00
          4   -1    0    0  501    0  0.00000000000E+00  0.00000000000E+00  0.31357971713E+02  0.31383678719E+02  0.12700000000E+01 0. -1.
         -4   -1    0    0    0  501 -0.00000000000E+00 -0.00000000000E+00 -0.12449095164E+03  0.12449742945E+03  0.12700000000E+01 0. -1.
         25    2    1    2    0    0  0.00000000000E+00  0.00000000000E+00 -0.93132979928E+02  0.15588110817E+03  0.12500067174E+03 0.  0.
    9000005    1    3    3    0    0 -0.25189270906E+02  0.57172711134E+02 -0.48362281114E+02  0.79013470381E+02  0.10000000000E+01 0.  0.
    9000005    1    3    3    0    0  0.25189270906E+02 -0.57172711134E+02 -0.44770698814E+02  0.76867637791E+02  0.10000000000E+01 0.  0.
<mgrwt>
<rscale>  0 0.12500067E+03</rscale>
<asrwt>0</asrwt>
<pdfrwt beam="1">  1        4 0.48267791E-02 0.12500067E+03</pdfrwt>
<pdfrwt beam="2">  1       -4 0.19154930E-01 0.12500067E+03</pdfrwt>
<totfact> 0.98141321E+03</totfact>
</mgrwt>
</event>
<event>
 5    1  0.3486589E-002  0.1250035E+03  0.7818608E-02  0.1235064E+00
          4   -1    0    0  501    0  0.00000000000E+00  0.00000000000E+00  0.36628593307E+02  0.36650603646E+02  0.12700000000E+01 0. -1.
         -4   -1    0    0    0  501 -0.00000000000E+00 -0.00000000000E+00 -0.10659295068E+03  0.10660051611E+03  0.12700000000E+01 0. -1.
         25    2    1    2    0    0  0.00000000000E+00  0.00000000000E+00 -0.69964357375E+02  0.14325111976E+03  0.12500348799E+03 0.  0.
    9000005    1    3    3    0    0 -0.27461500636E+02 -0.50415847261E+02 -0.66884658426E+01  0.57806809698E+02  0.10000000000E+01 0.  0.
    9000005    1    3    3    0    0  0.27461500636E+02  0.50415847261E+02 -0.63275891533E+02  0.85444310059E+02  0.10000000000E+01 0.  0.
<mgrwt>
<rscale>  0 0.12500349E+03</rscale>
<asrwt>0</asrwt>
<pdfrwt beam="1">  1        4 0.56374433E-02 0.12500349E+03</pdfrwt>
<pdfrwt beam="2">  1       -4 0.16401190E-01 0.12500349E+03</pdfrwt>
<totfact> 0.10065853E+04</totfact>
</mgrwt>
</event>
<event>
 5    1  0.3486589E-002  0.1249665E+03  0.7818608E-02  0.1235122E+00
         -4   -1    0    0    0  501 -0.00000000000E+00  0.00000000000E+00  0.93506852684E+02  0.93515476788E+02  0.12700000000E+01 0.  1.
          4   -1    0    0  501    0  0.00000000000E+00 -0.00000000000E+00 -0.41732422724E+02  0.41751742556E+02  0.12700000000E+01 0.  1.
         25    2    1    2    0    0  0.00000000000E+00  0.00000000000E+00  0.51774429960E+02  0.13526721934E+03  0.12496651164E+03 0.  0.
    9000005    1    3    3    0    0 -0.32734369246E+02 -0.53083487299E+02  0.21871757578E+02  0.66096666582E+02  0.10000000000E+01 0.  0.
    9000005    1    3    3    0    0  0.32734369246E+02  0.53083487299E+02  0.29902672382E+02  0.69170552761E+02  0.10000000000E+01 0.  0.
<mgrwt>
<rscale>  0 0.12496651E+03</rscale>
<asrwt>0</asrwt>
<pdfrwt beam="2">  1        4 0.64225222E-02 0.12496651E+03</pdfrwt>
<pdfrwt beam="1">  1       -4 0.14387819E-01 0.12496651E+03</pdfrwt>
<totfact> 0.10240173E+04</totfact>
</mgrwt>
</event>
<event>
 5    1  0.3486589E-002  0.1250027E+03  0.7818608E-02  0.1235065E+00
          4   -1    0    0  501    0  0.00000000000E+00  0.00000000000E+00  0.34804303245E+02  0.34827466522E+02  0.12700000000E+01 0.  1.
         -4   -1    0    0    0  501 -0.00000000000E+00 -0.00000000000E+00 -0.11217548343E+03  0.11218267238E+03  0.12700000000E+01 0.  1.
         25    2    1    2    0    0  0.00000000000E+00  0.00000000000E+00 -0.77371180181E+02  0.14701013890E+03  0.12500272564E+03 0.  0.
    9000005    1    3    3    0    0 -0.27708883293E+02 -0.36152898831E+02  0.11632627812E+02  0.47022678964E+02  0.10000000000E+01 0.  0.
    9000005    1    3    3    0    0  0.27708883293E+02  0.36152898831E+02 -0.89003807993E+02  0.99987459936E+02  0.10000000000E+01 0.  0.
<mgrwt>
<rscale>  0 0.12500273E+03</rscale>
<asrwt>0</asrwt>
<pdfrwt beam="1">  1        4 0.53568430E-02 0.12500273E+03</pdfrwt>
<pdfrwt beam="2">  1       -4 0.17260101E-01 0.12500273E+03</pdfrwt>
<totfact> 0.99896926E+03</totfact>
</mgrwt>
</event>
<event>
 5    1  0.3486589E-002  0.1249840E+03  0.7818608E-02  0.1235094E+00
          4   -1    0    0  501    0  0.00000000000E+00  0.00000000000E+00  0.11945851376E+03  0.11946526445E+03  0.12700000000E+01 0.  1.
         -4   -1    0    0    0  501 -0.00000000000E+00 -0.00000000000E+00 -0.32671241126E+02  0.32695915596E+02  0.12700000000E+01 0.  1.
         25    2    1    2    0    0  0.00000000000E+00  0.00000000000E+00  0.86787272631E+02  0.15216118004E+03  0.12498397506E+03 0.  0.
    9000005    1    3    3    0    0 -0.59805008287E+02 -0.32936563012E+01  0.21725797079E+02  0.63722032663E+02  0.10000000000E+01 0.  0.
    9000005    1    3    3    0    0  0.59805008287E+02  0.32936563012E+01  0.65061475552E+02  0.88439147378E+02  0.10000000000E+01 0.  0.
<mgrwt>
<rscale>  0 0.12498398E+03</rscale>
<asrwt>0</asrwt>
<pdfrwt beam="1">  1        4 0.18380650E-01 0.12498398E+03</pdfrwt>
<pdfrwt beam="2">  1       -4 0.50287620E-02 0.12498398E+03</pdfrwt>
<totfact> 0.98910290E+03</totfact>
</mgrwt>
</event>
<event>
 5    1  0.3486589E-002  0.1250064E+03  0.7818608E-02  0.1235059E+00
         -4   -1    0    0    0  501 -0.00000000000E+00  0.00000000000E+00  0.81121255483E+02  0.81131196165E+02  0.12700000000E+01 0.  1.
          4   -1    0    0  501    0  0.00000000000E+00 -0.00000000000E+00 -0.48136869367E+02  0.48153619724E+02  0.12700000000E+01 0.  1.
         25    2    1    2    0    0  0.00000000000E+00  0.00000000000E+00  0.32984386116E+02  0.12928481589E+03  0.12500637540E+03 0.  0.
    9000005    1    3    3    0    0 -0.21632262797E+02 -0.58613867969E+02  0.17993837947E+02  0.65025522036E+02  0.10000000000E+01 0.  0.
    9000005    1    3    3    0    0  0.21632262797E+02  0.58613867969E+02  0.14990548169E+02  0.64259293852E+02  0.10000000000E+01 0.  0.
<mgrwt>
<rscale>  0 0.12500638E+03</rscale>
<asrwt>0</asrwt>
<pdfrwt beam="2">  1        4 0.74077254E-02 0.12500638E+03</pdfrwt>
<pdfrwt beam="1">  1       -4 0.12482246E-01 0.12500638E+03</pdfrwt>
<totfact> 0.10358340E+04</totfact>
</mgrwt>
</event>
<event>
 5    1  0.3486589E-002  0.1249965E+03  0.7818608E-02  0.1235075E+00
          4   -1    0    0  501    0  0.00000000000E+00  0.00000000000E+00  0.23295437260E+04  0.23295440722E+04  0.12700000000E+01 0. -1.
         -4   -1    0    0    0  501 -0.00000000000E+00 -0.00000000000E+00 -0.14358573184E+01  0.19169210309E+01  0.12700000000E+01 0. -1.
         25    2    1    2    0    0  0.00000000000E+00  0.00000000000E+00  0.23281078687E+04  0.23314609932E+04  0.12499645860E+03 0.  0.
    9000005    1    3    3    0    0 -0.32020372431E+02  0.53452519726E+02  0.12526324247E+04  0.12541815927E+04  0.10000000000E+01 0.  0.
    9000005    1    3    3    0    0  0.32020372431E+02 -0.53452519726E+02  0.10754754440E+04  0.10772794005E+04  0.10000000000E+01 0.  0.
<mgrwt>
<rscale>  0 0.12499646E+03</rscale>
<asrwt>0</asrwt>
<pdfrwt beam="1">  1        4 0.35842845E+00 0.12499646E+03</pdfrwt>
<pdfrwt beam="2">  1       -4 0.25793260E-03 0.12499646E+03</pdfrwt>
<totfact> 0.61323703E+02</totfact>
</mgrwt>
</event>
<event>
 5    1  0.3486589E-002  0.1250016E+03  0.7818608E-02  0.1235067E+00
          4   -1    0    0  501    0  0.00000000000E+00  0.00000000000E+00  0.94258659807E+01  0.95110382969E+01  0.12700000000E+01 0.  1.
         -4   -1    0    0    0  501 -0.00000000000E+00 -0.00000000000E+00 -0.41247896381E+03  0.41248091893E+03  0.12700000000E+01 0.  1.
         25    2    1    2    0    0  0.00000000000E+00  0.00000000000E+00 -0.40305309783E+03  0.42199195723E+03  0.12500164918E+03 0.  0.
    9000005    1    3    3    0    0  0.21150234858E+02 -0.55862003514E+02 -0.26354169665E+03  0.27022790704E+03  0.10000000000E+01 0.  0.
    9000005    1    3    3    0    0 -0.21150234858E+02  0.55862003514E+02 -0.13951140118E+03  0.15176405019E+03  0.10000000000E+01 0.  0.
<mgrwt>
<rscale>  0 0.12500165E+03</rscale>
<asrwt>0</asrwt>
<pdfrwt beam="1">  1        4 0.14568357E-02 0.12500165E+03</pdfrwt>
<pdfrwt beam="2">  1       -4 0.63464990E-01 0.12500165E+03</pdfrwt>
<totfact> 0.62466374E+03</totfact>
</mgrwt>
</event>
<event>
 5    1  0.3486589E-002  0.1250015E+03  0.7818608E-02  0.1235067E+00
         -4   -1    0    0    0  501 -0.00000000000E+00  0.00000000000E+00  0.27473083014E+02  0.27502421535E+02  0.12700000000E+01 0.  1.
          4   -1    0    0  501    0  0.00000000000E+00 -0.00000000000E+00 -0.14207995517E+03  0.14208563109E+03  0.12700000000E+01 0.  1.
         25    2    1    2    0    0  0.00000000000E+00  0.00000000000E+00 -0.11460687216E+03  0.16958805263E+03  0.12500148978E+03 0.  0.
    9000005    1    3    3    0    0  0.61702452452E+02  0.64227363530E+01 -0.47069749372E+02  0.77878145116E+02  0.10000000000E+01 0.  0.
    9000005    1    3    3    0    0 -0.61702452452E+02 -0.64227363530E+01 -0.67537122788E+02  0.91709907509E+02  0.10000000000E+01 0.  0.
<mgrwt>
<rscale>  0 0.12500149E+03</rscale>
<asrwt>0</asrwt>
<pdfrwt beam="2">  1        4 0.21861148E-01 0.12500149E+03</pdfrwt>
<pdfrwt beam="1">  1       -4 0.42293216E-02 0.12500149E+03</pdfrwt>
<totfact> 0.95522279E+03</totfact>
</mgrwt>
</event>
<event>
 5    1  0.3486589E-002  0.1249982E+03  0.7818608E-02  0.1235072E+00
         -4   -1    0    0    0  501 -0.00000000000E+00  0.00000000000E+00  0.14762870636E+03  0.14763416895E+03  0.12700000000E+01 0. -1.
          4   -1    0    0  501    0  0.00000000000E+00 -0.00000000000E+00 -0.26438005721E+02  0.26468491580E+02  0.12700000000E+01 0. -1.
         25    2    1    2    0    0  0.00000000000E+00  0.00000000000E+00  0.12119070064E+03  0.17410266053E+03  0.12499820192E+03 0.  0.
    9000005    1    3    3    0    0 -0.52679480019E+02 -0.24827063089E+01  0.10728870511E+03  0.11955399487E+03  0.10000000000E+01 0.  0.
    9000005    1    3    3    0    0  0.52679480019E+02  0.24827063089E+01  0.13901995534E+02  0.54548665662E+02  0.10000000000E+01 0.  0.
<mgrwt>
<rscale>  0 0.12499820E+03</rscale>
<asrwt>0</asrwt>
<pdfrwt beam="2">  1        4 0.40701507E-02 0.12499820E+03</pdfrwt>
<pdfrwt beam="1">  1       -4 0.22714874E-01 0.12499820E+03</pdfrwt>
<totfact> 0.94693263E+03</totfact>
</mgrwt>
</event>
<event>
 5    1  0.3486589E-002  0.1250078E+03  0.7818608E-02  0.1235057E+00
          4   -1    0    0  501    0  0.00000000000E+00  0.00000000000E+00  0.97260661063E+02  0.97268952346E+02  0.12700000000E+01 0.  1.
         -4   -1    0    0    0  501 -0.00000000000E+00 -0.00000000000E+00 -0.40147631415E+02  0.40167713505E+02  0.12700000000E+01 0.  1.
         25    2    1    2    0    0  0.00000000000E+00  0.00000000000E+00  0.57113029648E+02  0.13743666585E+03  0.12500775562E+03 0.  0.
    9000005    1    3    3    0    0 -0.60124495681E+02  0.15185303535E+02  0.37085837334E+02  0.72262768804E+02  0.10000000000E+01 0.  0.
    9000005    1    3    3    0    0  0.60124495681E+02 -0.15185303535E+02  0.20027192314E+02  0.65173897048E+02  0.10000000000E+01 0.  0.
<mgrwt>
<rscale>  0 0.12500776E+03</rscale>
<asrwt>0</asrwt>
<pdfrwt beam="1">  1        4 0.14965361E-01 0.12500776E+03</pdfrwt>
<pdfrwt beam="2">  1       -4 0.61787413E-02 0.12500776E+03</pdfrwt>
<totfact> 0.10185182E+04</totfact>
</mgrwt>
</event>
<event>
 5    1  0.3486589E-002  0.1249994E+03  0.7818608E-02  0.1235070E+00
          4   -1    0    0  501    0  0.00000000000E+00  0.00000000000E+00  0.76202305244E+03  0.76202411074E+03  0.12700000000E+01 0. -1.
         -4   -1    0    0    0  501 -0.00000000000E+00 -0.00000000000E+00 -0.50463685716E+01  0.52037232594E+01  0.12700000000E+01 0. -1.
         25    2    1    2    0    0  0.00000000000E+00  0.00000000000E+00  0.75697668387E+03  0.76722783400E+03  0.12499939737E+03 0.  0.
    9000005    1    3    3    0    0 -0.41569990211E+01 -0.58238179855E+02  0.24175797316E+03  0.24871044171E+03  0.10000000000E+01 0.  0.
    9000005    1    3    3    0    0  0.41569990211E+01  0.58238179855E+02  0.51521871071E+03  0.51851739228E+03  0.10000000000E+01 0.  0.
<mgrwt>
<rscale>  0 0.12499940E+03</rscale>
<asrwt>0</asrwt>
<pdfrwt beam="1">  1        4 0.11724651E+00 0.12499940E+03</pdfrwt>
<pdfrwt beam="2">  1       -4 0.78854999E-03 0.12499940E+03</pdfrwt>
<totfact> 0.39763893E+03</totfact>
</mgrwt>
</event>
<event>
 5    1  0.3486589E-002  0.1249989E+03  0.7818608E-02  0.1235071E+00
          4   -1    0    0  501    0  0.00000000000E+00  0.00000000000E+00  0.95544052751E+02  0.95552492987E+02  0.12700000000E+01 0. -1.
         -4   -1    0    0    0  501 -0.00000000000E+00 -0.00000000000E+00 -0.40863446303E+02  0.40883176781E+02  0.12700000000E+01 0. -1.
         25    2    1    2    0    0  0.00000000000E+00  0.00000000000E+00  0.54680606448E+02  0.13643566977E+03  0.12499889305E+03 0.  0.
    9000005    1    3    3    0    0 -0.58559825384E+02  0.89084080568E+00  0.51132242707E+02  0.77753154216E+02  0.10000000000E+01 0.  0.
    9000005    1    3    3    0    0  0.58559825384E+02 -0.89084080568E+00  0.35483637416E+01  0.58682515552E+02  0.10000000000E+01 0.  0.
<mgrwt>
<rscale>  0 0.12499889E+03</rscale>
<asrwt>0</asrwt>
<pdfrwt beam="1">  1        4 0.14701252E-01 0.12499889E+03</pdfrwt>
<pdfrwt beam="2">  1       -4 0.62888511E-02 0.12499889E+03</pdfrwt>
<totfact> 0.10208153E+04</totfact>
</mgrwt>
</event>
<event>
 5    1  0.3486589E-002  0.1250581E+03  0.7818608E-02  0.1234979E+00
         -4   -1    0    0    0  501 -0.00000000000E+00  0.00000000000E+00  0.40642112280E+03  0.40642310707E+03  0.12700000000E+01 0. -1.
          4   -1    0    0  501    0  0.00000000000E+00 -0.00000000000E+00 -0.95763390270E+01  0.96601847373E+01  0.12700000000E+01 0. -1.
         25    2    1    2    0    0  0.00000000000E+00  0.00000000000E+00  0.39684478378E+03  0.41608329181E+03  0.12505807975E+03 0.  0.
    9000005    1    3    3    0    0 -0.57050389115E+02  0.25549850546E+02  0.19457231299E+03  0.20436958371E+03  0.10000000000E+01 0.  0.
    9000005    1    3    3    0    0  0.57050389115E+02 -0.25549850546E+02  0.20227247078E+03  0.21171370810E+03  0.10000000000E+01 0.  0.
<mgrwt>
<rscale>  0 0.12505808E+03</rscale>
<asrwt>0</asrwt>
<pdfrwt beam="2">  1        4 0.14798853E-02 0.12505808E+03</pdfrwt>
<pdfrwt beam="1">  1       -4 0.62532927E-01 0.12505808E+03</pdfrwt>
<totfact> 0.62937361E+03</totfact>
</mgrwt>
</event>
<event>
 5    1  0.3486589E-002  0.1249968E+03  0.7818608E-02  0.1235074E+00
         -4   -1    0    0    0  501 -0.00000000000E+00  0.00000000000E+00  0.99659494296E+02  0.99667586021E+02  0.12700000000E+01 0.  1.
          4   -1    0    0  501    0  0.00000000000E+00 -0.00000000000E+00 -0.39174002264E+02  0.39194583215E+02  0.12700000000E+01 0.  1.
         25    2    1    2    0    0  0.00000000000E+00  0.00000000000E+00  0.60485492032E+02  0.13886216924E+03  0.12499682915E+03 0.  0.
    9000005    1    3    3    0    0  0.14076027244E+02 -0.84351930016E+01  0.97228560054E+02  0.98608721289E+02  0.10000000000E+01 0.  0.
    9000005    1    3    3    0    0 -0.14076027244E+02  0.84351930016E+01 -0.36743068022E+02  0.40253447947E+02  0.10000000000E+01 0.  0.
<mgrwt>
<rscale>  0 0.12499683E+03</rscale>
<asrwt>0</asrwt>
<pdfrwt beam="2">  1        4 0.60289753E-02 0.12499683E+03</pdfrwt>
<pdfrwt beam="1">  1       -4 0.15334435E-01 0.12499683E+03</pdfrwt>
<totfact> 0.10157948E+04</totfact>
</mgrwt>
</event>
<event>
 5    1  0.3486589E-002  0.1249982E+03  0.7818608E-02  0.1235072E+00
         -4   -1    0    0    0  501 -0.00000000000E+00  0.00000000000E+00  0.79635152341E+02  0.79645278507E+02  0.12700000000E+01 0.  1.
          4   -1    0    0  501    0  0.00000000000E+00 -0.00000000000E+00 -0.49028954223E+02  0.49045399909E+02  0.12700000000E+01 0.  1.
         25    2    1    2    0    0  0.00000000000E+00  0.00000000000E+00  0.30606198118E+02  0.12869067842E+03  0.12499820538E+03 0.  0.
    9000005    1    3    3    0    0 -0.24615786705E+02  0.46421255090E+02  0.50129386562E+02  0.72627992374E+02  0.10000000000E+01 0.  0.
    9000005    1    3    3    0    0  0.24615786705E+02 -0.46421255090E+02 -0.19523188444E+02  0.56062686042E+02  0.10000000000E+01 0.  0.
<mgrwt>
<rscale>  0 0.12499821E+03</rscale>
<asrwt>0</asrwt>
<pdfrwt beam="2">  1        4 0.75449600E-02 0.12499821E+03</pdfrwt>
<pdfrwt beam="1">  1       -4 0.12253606E-01 0.12499821E+03</pdfrwt>
<totfact> 0.10373019E+04</totfact>
</mgrwt>
</event>
<event>
 5    1  0.3486589E-002  0.1250006E+03  0.7818608E-02  0.1235068E+00
          4   -1    0    0  501    0  0.00000000000E+00  0.00000000000E+00  0.16046467418E+03  0.16046969982E+03  0.12700000000E+01 0.  1.
         -4   -1    0    0    0  501 -0.00000000000E+00 -0.00000000000E+00 -0.24321636326E+02  0.24354771474E+02  0.12700000000E+01 0.  1.
         25    2    1    2    0    0  0.00000000000E+00  0.00000000000E+00  0.13614303785E+03  0.18482447129E+03  0.12500063373E+03 0.  0.
    9000005    1    3    3    0    0 -0.56967169531E+02 -0.25688391858E+02  0.68620247301E+02  0.92816432921E+02  0.10000000000E+01 0.  0.
    9000005    1    3    3    0    0  0.56967169531E+02  0.25688391858E+02  0.67522790553E+02  0.92008038370E+02  0.10000000000E+01 0.  0.
<mgrwt>
<rscale>  0 0.12500063E+03</rscale>
<asrwt>0</asrwt>
<pdfrwt beam="1">  1        4 0.24689809E-01 0.12500063E+03</pdfrwt>
<pdfrwt beam="2">  1       -4 0.37447256E-02 0.12500063E+03</pdfrwt>
<totfact> 0.92754402E+03</totfact>
</mgrwt>
</event>
<event>
 5    1  0.3486589E-002  0.1249904E+03  0.7818608E-02  0.1235084E+00
          4   -1    0    0  501    0  0.00000000000E+00  0.00000000000E+00  0.25431027662E+03  0.25431344773E+03  0.12700000000E+01 0. -1.
         -4   -1    0    0    0  501 -0.00000000000E+00 -0.00000000000E+00 -0.15328297851E+02  0.15380819711E+02  0.12700000000E+01 0. -1.
         25    2    1    2    0    0  0.00000000000E+00  0.00000000000E+00  0.23898197877E+03  0.26969426744E+03  0.12499044648E+03 0.  0.
    9000005    1    3    3    0    0  0.17271279358E+01 -0.59375357322E+02  0.77638086124E+02  0.97760362341E+02  0.10000000000E+01 0.  0.
    9000005    1    3    3    0    0 -0.17271279358E+01  0.59375357322E+02  0.16134389264E+03  0.17193390510E+03  0.10000000000E+01 0.  0.
<mgrwt>
<rscale>  0 0.12499045E+03</rscale>
<asrwt>0</asrwt>
<pdfrwt beam="1">  1        4 0.39128939E-01 0.12499045E+03</pdfrwt>
<pdfrwt beam="2">  1       -4 0.23624839E-02 0.12499045E+03</pdfrwt>
<totfact> 0.79581479E+03</totfact>
</mgrwt>
</event>
<event>
 5    1  0.3486589E-002  0.1249971E+03  0.7818608E-02  0.1235074E+00
          4   -1    0    0  501    0  0.00000000000E+00  0.00000000000E+00  0.19724646853E+03  0.19725055703E+03  0.12700000000E+01 0. -1.
         -4   -1    0    0    0  501 -0.00000000000E+00 -0.00000000000E+00 -0.19778311510E+02  0.19819044028E+02  0.12700000000E+01 0. -1.
         25    2    1    2    0    0  0.00000000000E+00  0.00000000000E+00  0.17746815702E+03  0.21706960106E+03  0.12499705975E+03 0.  0.
    9000005    1    3    3    0    0  0.17606190656E+02  0.58357892591E+02  0.64831739916E+02  0.88993123766E+02  0.10000000000E+01 0.  0.
    9000005    1    3    3    0    0 -0.17606190656E+02 -0.58357892591E+02  0.11263641710E+03  0.12807647729E+03  0.10000000000E+01 0.  0.
<mgrwt>
<rscale>  0 0.12499706E+03</rscale>
<asrwt>0</asrwt>
<pdfrwt beam="1">  1        4 0.30349059E-01 0.12499706E+03</pdfrwt>
<pdfrwt beam="2">  1       -4 0.30462648E-02 0.12499706E+03</pdfrwt>
<totfact> 0.87339917E+03</totfact>
</mgrwt>
</event>
<event>
 5    1  0.3486589E-002  0.1249999E+03  0.7818608E-02  0.1235069E+00
         -4   -1    0    0    0  501 -0.00000000000E+00  0.00000000000E+00  0.22756719574E+02  0.22792129909E+02  0.12700000000E+01 0. -1.
          4   -1    0    0  501    0  0.00000000000E+00 -0.00000000000E+00 -0.17148118637E+03  0.17148588916E+03  0.12700000000E+01 0. -1.
         25    2    1    2    0    0  0.00000000000E+00  0.00000000000E+00 -0.14872446680E+03  0.19427801906E+03  0.12499992667E+03 0.  0.
    9000005    1    3    3    0    0  0.25339977712E+02  0.25840811485E+02 -0.15354208260E+03  0.15775307648E+03  0.10000000000E+01 0.  0.
    9000005    1    3    3    0    0 -0.25339977712E+02 -0.25840811485E+02  0.48176158074E+01  0.36524942583E+02  0.10000000000E+01 0.  0.
<mgrwt>
<rscale>  0 0.12499993E+03</rscale>
<asrwt>0</asrwt>
<pdfrwt beam="2">  1        4 0.26384806E-01 0.12499993E+03</pdfrwt>
<pdfrwt beam="1">  1       -4 0.35041195E-02 0.12499993E+03</pdfrwt>
<totfact> 0.91108386E+03</totfact>
</mgrwt>
</event>
<event>
 5    1  0.3486589E-002  0.1249946E+03  0.7818608E-02  0.1235078E+00
          4   -1    0    0  501    0  0.00000000000E+00  0.00000000000E+00  0.96778826807E+03  0.96778910136E+03  0.12700000000E+01 0.  1.
         -4   -1    0    0    0  501 -0.00000000000E+00 -0.00000000000E+00 -0.39351537156E+01  0.41350132727E+01  0.12700000000E+01 0.  1.
         25    2    1    2    0    0  0.00000000000E+00  0.00000000000E+00  0.96385311436E+03  0.97192411464E+03  0.12499463411E+03 0.  0.
    9000005    1    3    3    0    0  0.45010535017E+02 -0.36153978144E+02  0.29598159322E+03  0.30156120759E+03  0.10000000000E+01 0.  0.
    9000005    1    3    3    0    0 -0.45010535017E+02  0.36153978144E+02  0.66787152114E+03  0.67036290704E+03  0.10000000000E+01 0.  0.
<mgrwt>
<rscale>  0 0.12499463E+03</rscale>
<asrwt>0</asrwt>
<pdfrwt beam="1">  1        4 0.14890614E+00 0.12499463E+03</pdfrwt>
<pdfrwt beam="2">  1       -4 0.62084533E-03 0.12499463E+03</pdfrwt>
<totfact> 0.31553793E+03</totfact>
</mgrwt>
</event>
<event>
 5    1  0.3486589E-002  0.1250032E+03  0.7818608E-02  0.1235064E+00
          4   -1    0    0  501    0  0.00000000000E+00  0.00000000000E+00  0.12583929022E+04  0.12583935430E+04  0.12700000000E+01 0. -1.
         -4   -1    0    0    0  501 -0.00000000000E+00 -0.00000000000E+00 -0.29737541401E+01  0.32335914531E+01  0.12700000000E+01 0. -1.
         25    2    1    2    0    0  0.00000000000E+00  0.00000000000E+00  0.12554191480E+04  0.12616271345E+04  0.12500315683E+03 0.  0.
    9000005    1    3    3    0    0 -0.76209462016E+01  0.61287725490E+02  0.72408524721E+03  0.72671501247E+03  0.10000000000E+01 0.  0.
    9000005    1    3    3    0    0  0.76209462016E+01 -0.61287725490E+02  0.53133390082E+03  0.53491212201E+03  0.10000000000E+01 0.  0.
<mgrwt>
<rscale>  0 0.12500316E+03</rscale>
<asrwt>0</asrwt>
<pdfrwt beam="1">  1        4 0.19361928E+00 0.12500316E+03</pdfrwt>
<pdfrwt beam="2">  1       -4 0.47753659E-03 0.12500316E+03</pdfrwt>
<totfact> 0.23151037E+03</totfact>
</mgrwt>
</event>
<event>
 5    1  0.3486589E-002  0.1249962E+03  0.7818608E-02  0.1235075E+00
          4   -1    0    0  501    0  0.00000000000E+00  0.00000000000E+00  0.50163957190E+03  0.50164117952E+03  0.12700000000E+01 0.  1.
         -4   -1    0    0    0  501 -0.00000000000E+00 -0.00000000000E+00 -0.77330717030E+01  0.78366637010E+01  0.12700000000E+01 0.  1.
         25    2    1    2    0    0  0.00000000000E+00  0.00000000000E+00  0.49390650019E+03  0.50947784322E+03  0.12499616715E+03 0.  0.
    9000005    1    3    3    0    0  0.44789303724E+02  0.15996878938E+02  0.81737606933E+02  0.94572819831E+02  0.10000000000E+01 0.  0.
    9000005    1    3    3    0    0 -0.44789303724E+02 -0.15996878938E+02  0.41216889326E+03  0.41490502339E+03  0.10000000000E+01 0.  0.
<mgrwt>
<rscale>  0 0.12499617E+03</rscale>
<asrwt>0</asrwt>
<pdfrwt beam="1">  1        4 0.77183427E-01 0.12499617E+03</pdfrwt>
<pdfrwt beam="2">  1       -4 0.11977954E-02 0.12499617E+03</pdfrwt>
<totfact> 0.55141065E+03</totfact>
</mgrwt>
</event>
<event>
 5    1  0.3486589E-002  0.1249799E+03  0.7818608E-02  0.1235101E+00
          4   -1    0    0  501    0  0.00000000000E+00  0.00000000000E+00  0.66522870624E+01  0.67724311116E+01  0.12700000000E+01 0. -1.
         -4   -1    0    0    0  501 -0.00000000000E+00 -0.00000000000E+00 -0.58164125326E+03  0.58164263976E+03  0.12700000000E+01 0. -1.
         25    2    1    2    0    0  0.00000000000E+00  0.00000000000E+00 -0.57498896620E+03  0.58841507088E+03  0.12497993594E+03 0.  0.
    9000005    1    3    3    0    0  0.17828677408E+02  0.59816907683E+02 -0.27411831404E+03  0.28113657584E+03  0.10000000000E+01 0.  0.
    9000005    1    3    3    0    0 -0.17828677408E+02 -0.59816907683E+02 -0.30087065216E+03  0.30727849504E+03  0.10000000000E+01 0.  0.
<mgrwt>
<rscale>  0 0.12497994E+03</rscale>
<asrwt>0</asrwt>
<pdfrwt beam="1">  1        4 0.10327777E-02 0.12497994E+03</pdfrwt>
<pdfrwt beam="2">  1       -4 0.89492578E-01 0.12497994E+03</pdfrwt>
<totfact> 0.49629000E+03</totfact>
</mgrwt>
</event>
<event>
 5    1  0.3486589E-002  0.1249974E+03  0.7818608E-02  0.1235073E+00
         -4   -1    0    0    0  501 -0.00000000000E+00  0.00000000000E+00  0.18201992155E+03  0.18202435205E+03  0.12700000000E+01 0. -1.
          4   -1    0    0  501    0  0.00000000000E+00 -0.00000000000E+00 -0.21436172248E+02  0.21473760282E+02  0.12700000000E+01 0. -1.
         25    2    1    2    0    0  0.00000000000E+00  0.00000000000E+00  0.16058374930E+03  0.20349811233E+03  0.12499736471E+03 0.  0.
    9000005    1    3    3    0    0 -0.31665914264E+02 -0.25477192767E+01  0.16790085611E+03  0.17088276239E+03  0.10000000000E+01 0.  0.
    9000005    1    3    3    0    0  0.31665914264E+02  0.25477192767E+01 -0.73171068145E+01  0.32615349941E+02  0.10000000000E+01 0.  0.
<mgrwt>
<rscale>  0 0.12499736E+03</rscale>
<asrwt>0</asrwt>
<pdfrwt beam="2">  1        4 0.33011048E-02 0.12499736E+03</pdfrwt>
<pdfrwt beam="1">  1       -4 0.28006297E-01 0.12499736E+03</pdfrwt>
<totfact> 0.89554135E+03</totfact>
</mgrwt>
</event>
<event>
 5    1  0.3486589E-002  0.1250087E+03  0.7818608E-02  0.1235056E+00
          4   -1    0    0  501    0  0.00000000000E+00  0.00000000000E+00  0.34659413498E+02  0.34682673542E+02  0.12700000000E+01 0. -1.
         -4   -1    0    0    0  501 -0.00000000000E+00 -0.00000000000E+00 -0.11265497093E+03  0.11266212929E+03  0.12700000000E+01 0. -1.
         25    2    1    2    0    0  0.00000000000E+00  0.00000000000E+00 -0.77995557432E+02  0.14734480283E+03  0.12500873546E+03 0.  0.
    9000005    1    3    3    0    0 -0.46261395075E+02 -0.39950635645E+02 -0.54348921080E+02  0.81798381312E+02  0.10000000000E+01 0.  0.
    9000005    1    3    3    0    0  0.46261395075E+02  0.39950635645E+02 -0.23646636352E+02  0.65546421516E+02  0.10000000000E+01 0.  0.
<mgrwt>
<rscale>  0 0.12500874E+03</rscale>
<asrwt>0</asrwt>
<pdfrwt beam="1">  1        4 0.53345574E-02 0.12500874E+03</pdfrwt>
<pdfrwt beam="2">  1       -4 0.17333874E-01 0.12500874E+03</pdfrwt>
<totfact> 0.99815999E+03</totfact>
</mgrwt>
</event>
<event>
 5    1  0.3486589E-002  0.1250000E+03  0.7818608E-02  0.1235069E+00
         -4   -1    0    0    0  501 -0.00000000000E+00  0.00000000000E+00  0.20784412555E+02  0.20823177117E+02  0.12700000000E+01 0. -1.
          4   -1    0    0  501    0  0.00000000000E+00 -0.00000000000E+00 -0.18772542947E+03  0.18772972532E+03  0.12700000000E+01 0. -1.
         25    2    1    2    0    0  0.00000000000E+00  0.00000000000E+00 -0.16694101692E+03  0.20855290244E+03  0.12500003995E+03 0.  0.
    9000005    1    3    3    0    0  0.47347743276E+02 -0.40784915210E+02 -0.83779931509E+02  0.10452413609E+03  0.10000000000E+01 0.  0.
    9000005    1    3    3    0    0 -0.47347743276E+02  0.40784915210E+02 -0.83161085407E+02  0.10402876635E+03  0.10000000000E+01 0.  0.
<mgrwt>
<rscale>  0 0.12500004E+03</rscale>
<asrwt>0</asrwt>
<pdfrwt beam="2">  1        4 0.28884147E-01 0.12500004E+03</pdfrwt>
<pdfrwt beam="1">  1       -4 0.32009144E-02 0.12500004E+03</pdfrwt>
<totfact> 0.88712679E+03</totfact>
</mgrwt>
</event>
<event>
 5    1  0.3486589E-002  0.1249939E+03  0.7818608E-02  0.1235079E+00
          4   -1    0    0  501    0  0.00000000000E+00  0.00000000000E+00  0.25249663981E+03  0.25249983370E+03  0.12700000000E+01 0. -1.
         -4   -1    0    0    0  501 -0.00000000000E+00 -0.00000000000E+00 -0.15439616822E+02  0.15491761281E+02  0.12700000000E+01 0. -1.
         25    2    1    2    0    0  0.00000000000E+00  0.00000000000E+00  0.23705702299E+03  0.26799159498E+03  0.12499385117E+03 0.  0.
    9000005    1    3    3    0    0 -0.26410981912E+02 -0.52161965880E+02  0.16581683154E+03  0.17582557343E+03  0.10000000000E+01 0.  0.
    9000005    1    3    3    0    0  0.26410981912E+02  0.52161965880E+02  0.71240191451E+02  0.92166021548E+02  0.10000000000E+01 0.  0.
<mgrwt>
<rscale>  0 0.12499385E+03</rscale>
<asrwt>0</asrwt>
<pdfrwt beam="1">  1        4 0.38849895E-01 0.12499385E+03</pdfrwt>
<pdfrwt beam="2">  1       -4 0.23795824E-02 0.12499385E+03</pdfrwt>
<totfact> 0.79808386E+03</totfact>
</mgrwt>
</event>
<event>
 5    1  0.3486589E-002  0.1249959E+03  0.7818608E-02  0.1235076E+00
          4   -1    0    0  501    0  0.00000000000E+00  0.00000000000E+00  0.49188896438E+02  0.49205288667E+02  0.12700000000E+01 0. -1.
         -4   -1    0    0    0  501 -0.00000000000E+00 -0.00000000000E+00 -0.79373278966E+02  0.79383438536E+02  0.12700000000E+01 0. -1.
         25    2    1    2    0    0  0.00000000000E+00  0.00000000000E+00 -0.30184382528E+02  0.12858872720E+03  0.12499585519E+03 0.  0.
    9000005    1    3    3    0    0 -0.22459283084E+02  0.92671896726E+01  0.44136044126E+02  0.50391374184E+02  0.10000000000E+01 0.  0.
    9000005    1    3    3    0    0  0.22459283084E+02 -0.92671896726E+01 -0.74320426654E+02  0.78197353019E+02  0.10000000000E+01 0.  0.
<mgrwt>
<rscale>  0 0.12499586E+03</rscale>
<asrwt>0</asrwt>
<pdfrwt beam="1">  1        4 0.75695650E-02 0.12499586E+03</pdfrwt>
<pdfrwt beam="2">  1       -4 0.12213316E-01 0.12499586E+03</pdfrwt>
<totfact> 0.10375764E+04</totfact>
</mgrwt>
</event>
<event>
 5    1  0.3486589E-002  0.1249994E+03  0.7818608E-02  0.1235070E+00
         -4   -1    0    0    0  501 -0.00000000000E+00  0.00000000000E+00  0.45721533174E+03  0.45721709556E+03  0.12700000000E+01 0. -1.
          4   -1    0    0  501    0  0.00000000000E+00 -0.00000000000E+00 -0.84945006668E+01  0.85889138765E+01  0.12700000000E+01 0. -1.
         25    2    1    2    0    0  0.00000000000E+00  0.00000000000E+00  0.44872083107E+03  0.46580600944E+03  0.12499941677E+03 0.  0.
    9000005    1    3    3    0    0  0.55160036127E+02 -0.29354189236E+02  0.22079479521E+03  0.22946816686E+03  0.10000000000E+01 0.  0.
    9000005    1    3    3    0    0 -0.55160036127E+02  0.29354189236E+02  0.22792603586E+03  0.23633784258E+03  0.10000000000E+01 0.  0.
<mgrwt>
<rscale>  0 0.12499942E+03</rscale>
<asrwt>0</asrwt>
<pdfrwt beam="2">  1        4 0.13142441E-02 0.12499942E+03</pdfrwt>
<pdfrwt beam="1">  1       -4 0.70348237E-01 0.12499942E+03</pdfrwt>
<totfact> 0.58619307E+03</totfact>
</mgrwt>
</event>
<event>
 5    1  0.3486589E-002  0.1250002E+03  0.7818608E-02  0.1235069E+00
          4   -1    0    0  501    0  0.00000000000E+00  0.00000000000E+00  0.25399323109E+02  0.25431054134E+02  0.12700000000E+01 0. -1.
         -4   -1    0    0    0  501 -0.00000000000E+00 -0.00000000000E+00 -0.15366369853E+03  0.15366894659E+03  0.12700000000E+01 0. -1.
         25    2    1    2    0    0  0.00000000000E+00  0.00000000000E+00 -0.12826437542E+03  0.17910000072E+03  0.12500024103E+03 0.  0.
    9000005    1    3    3    0    0  0.52906639881E+01 -0.61333077639E+02 -0.48731948240E+02  0.78520954638E+02  0.10000000000E+01 0.  0.
    9000005    1    3    3    0    0 -0.52906639881E+01  0.61333077639E+02 -0.79532427180E+02  0.10057904608E+03  0.10000000000E+01 0.  0.
<mgrwt>
<rscale>  0 0.12500024E+03</rscale>
<asrwt>0</asrwt>
<pdfrwt beam="1">  1        4 0.39104328E-02 0.12500024E+03</pdfrwt>
<pdfrwt beam="2">  1       -4 0.23643413E-01 0.12500024E+03</pdfrwt>
<totfact> 0.93778751E+03</totfact>
</mgrwt>
</event>
<event>
 5    1  0.3486589E-002  0.1250182E+03  0.7818608E-02  0.1235041E+00
          4   -1    0    0  501    0  0.00000000000E+00  0.00000000000E+00  0.63744742492E+02  0.63757392476E+02  0.12700000000E+01 0.  1.
         -4   -1    0    0    0  501 -0.00000000000E+00 -0.00000000000E+00 -0.61272052064E+02  0.61285212443E+02  0.12700000000E+01 0.  1.
         25    2    1    2    0    0  0.00000000000E+00  0.00000000000E+00  0.24726904272E+01  0.12504260492E+03  0.12501815407E+03 0.  0.
    9000005    1    3    3    0    0 -0.33487188196E+01 -0.39109727483E+02 -0.47410601465E+02  0.61559319626E+02  0.10000000000E+01 0.  0.
    9000005    1    3    3    0    0  0.33487188196E+01  0.39109727483E+02  0.49883291893E+02  0.63483285293E+02  0.10000000000E+01 0.  0.
<mgrwt>
<rscale>  0 0.12501815E+03</rscale>
<asrwt>0</asrwt>
<pdfrwt beam="1">  1        4 0.98088688E-02 0.12501815E+03</pdfrwt>
<pdfrwt beam="2">  1       -4 0.94284550E-02 0.12501815E+03</pdfrwt>
<totfact> 0.10447650E+04</totfact>
</mgrwt>
</event>
<event>
 5    1  0.3486589E-002  0.1250025E+03  0.7818608E-02  0.1235065E+00
         -4   -1    0    0    0  501 -0.00000000000E+00  0.00000000000E+00  0.12455935943E+02  0.12520512778E+02  0.12700000000E+01 0. -1.
          4   -1    0    0  501    0  0.00000000000E+00 -0.00000000000E+00 -0.31274106577E+03  0.31274364441E+03  0.12700000000E+01 0. -1.
         25    2    1    2    0    0  0.00000000000E+00  0.00000000000E+00 -0.30028512982E+03  0.32526415718E+03  0.12500245100E+03 0.  0.
    9000005    1    3    3    0    0 -0.29145811196E+02  0.41077489630E+02 -0.24640356084E+03  0.25150060290E+03  0.10000000000E+01 0.  0.
    9000005    1    3    3    0    0  0.29145811196E+02 -0.41077489630E+02 -0.53881568982E+02  0.73763554284E+02  0.10000000000E+01 0.  0.
<mgrwt>
<rscale>  0 0.12500245E+03</rscale>
<asrwt>0</asrwt>
<pdfrwt beam="2">  1        4 0.48119170E-01 0.12500245E+03</pdfrwt>
<pdfrwt beam="1">  1       -4 0.19214639E-02 0.12500245E+03</pdfrwt>
<totfact> 0.72530430E+03</totfact>
</mgrwt>
</event>
<event>
 5    1  0.3486589E-002  0.1250003E+03  0.7818608E-02  0.1235069E+00
          4   -1    0    0  501    0  0.00000000000E+00  0.00000000000E+00  0.46013029548E+02  0.46030552768E+02  0.12700000000E+01 0.  1.
         -4   -1    0    0    0  501 -0.00000000000E+00 -0.00000000000E+00 -0.84856398370E+02  0.84865901541E+02  0.12700000000E+01 0.  1.
         25    2    1    2    0    0  0.00000000000E+00  0.00000000000E+00 -0.38843368822E+02  0.13089645431E+03  0.12500029780E+03 0.  0.
    9000005    1    3    3    0    0  0.60302024528E+01  0.59704380113E+01  0.45412033184E+02  0.46208897732E+02  0.10000000000E+01 0.  0.
    9000005    1    3    3    0    0 -0.60302024528E+01 -0.59704380113E+01 -0.84255402007E+02  0.84687556577E+02  0.10000000000E+01 0.  0.
<mgrwt>
<rscale>  0 0.12500030E+03</rscale>
<asrwt>0</asrwt>
<pdfrwt beam="1">  1        4 0.70810066E-02 0.12500030E+03</pdfrwt>
<pdfrwt beam="2">  1       -4 0.13056909E-01 0.12500030E+03</pdfrwt>
<totfact> 0.10325240E+04</totfact>
</mgrwt>
</event>
<event>
 5    1  0.3486589E-002  0.1249999E+03  0.7818608E-02  0.1235069E+00
         -4   -1    0    0    0  501 -0.00000000000E+00  0.00000000000E+00  0.11172088323E+02  0.11244040977E+02  0.12700000000E+01 0.  1.
          4   -1    0    0  501    0  0.00000000000E+00 -0.00000000000E+00 -0.34844774473E+03  0.34845005913E+03  0.12700000000E+01 0.  1.
         25    2    1    2    0    0  0.00000000000E+00  0.00000000000E+00 -0.33727565641E+03  0.35969410011E+03  0.12499990899E+03 0.  0.
    9000005    1    3    3    0    0  0.25694359840E+02 -0.55356775121E+02 -0.20731623723E+03  0.21611477252E+03  0.10000000000E+01 0.  0.
    9000005    1    3    3    0    0 -0.25694359840E+02  0.55356775121E+02 -0.12995941917E+03  0.14357932759E+03  0.10000000000E+01 0.  0.
<mgrwt>
<rscale>  0 0.12499991E+03</rscale>
<asrwt>0</asrwt>
<pdfrwt beam="2">  1        4 0.53613050E-01 0.12499991E+03</pdfrwt>
<pdfrwt beam="1">  1       -4 0.17244959E-02 0.12499991E+03</pdfrwt>
<totfact> 0.68671231E+03</totfact>
</mgrwt>
</event>
<event>
 5    1  0.3486589E-002  0.1249966E+03  0.7818608E-02  0.1235075E+00
         -4   -1    0    0    0  501 -0.00000000000E+00  0.00000000000E+00  0.87391860518E+02  0.87401088007E+02  0.12700000000E+01 0. -1.
          4   -1    0    0  501    0  0.00000000000E+00 -0.00000000000E+00 -0.44675074086E+02  0.44693121894E+02  0.12700000000E+01 0. -1.
         25    2    1    2    0    0  0.00000000000E+00  0.00000000000E+00  0.42716786432E+02  0.13209420990E+03  0.12499662574E+03 0.  0.
    9000005    1    3    3    0    0 -0.54582806066E+02 -0.21978537167E+02  0.43593560391E+02  0.73237540384E+02  0.10000000000E+01 0.  0.
    9000005    1    3    3    0    0  0.54582806066E+02  0.21978537167E+02 -0.87677395899E+00  0.58856669516E+02  0.10000000000E+01 0.  0.
<mgrwt>
<rscale>  0 0.12499663E+03</rscale>
<asrwt>0</asrwt>
<pdfrwt beam="2">  1        4 0.68751865E-02 0.12499663E+03</pdfrwt>
<pdfrwt beam="1">  1       -4 0.13446999E-01 0.12499663E+03</pdfrwt>
<totfact> 0.10300472E+04</totfact>
</mgrwt>
</event>
<event>
 5    1  0.3486589E-002  0.1249991E+03  0.7818608E-02  0.1235071E+00
          4   -1    0    0  501    0  0.00000000000E+00  0.00000000000E+00  0.16765339316E+02  0.16813372724E+02  0.12700000000E+01 0.  1.
         -4   -1    0    0    0  501 -0.00000000000E+00 -0.00000000000E+00 -0.23260927533E+03  0.23261274228E+03  0.12700000000E+01 0.  1.
         25    2    1    2    0    0  0.00000000000E+00  0.00000000000E+00 -0.21584393602E+03  0.24942611501E+03  0.12499912852E+03 0.  0.
    9000005    1    3    3    0    0 -0.18812156564E+01  0.33214969599E+02 -0.23638671895E+01  0.33367065287E+02  0.10000000000E+01 0.  0.
    9000005    1    3    3    0    0  0.18812156564E+01 -0.33214969599E+02 -0.21348006883E+03  0.21605904972E+03  0.10000000000E+01 0.  0.
<mgrwt>
<rscale>  0 0.12499913E+03</rscale>
<asrwt>0</asrwt>
<pdfrwt beam="1">  1        4 0.25832447E-02 0.12499913E+03</pdfrwt>
<pdfrwt beam="2">  1       -4 0.35790001E-01 0.12499913E+03</pdfrwt>
<totfact> 0.82414844E+03</totfact>
</mgrwt>
</event>
<event>
 5    1  0.3486589E-002  0.1250076E+03  0.7818608E-02  0.1235057E+00
         -4   -1    0    0    0  501 -0.00000000000E+00  0.00000000000E+00  0.63022268687E+02  0.63035063659E+02  0.12700000000E+01 0. -1.
          4   -1    0    0  501    0  0.00000000000E+00 -0.00000000000E+00 -0.61963984724E+02  0.61976998176E+02  0.12700000000E+01 0. -1.
         25    2    1    2    0    0  0.00000000000E+00  0.00000000000E+00  0.10582839634E+01  0.12501206183E+03  0.12500758233E+03 0.  0.
    9000005    1    3    3    0    0 -0.41707757183E+02 -0.25803864312E+02 -0.38206565261E+02  0.62178115537E+02  0.10000000000E+01 0.  0.
    9000005    1    3    3    0    0  0.41707757183E+02  0.25803864312E+02  0.39264849225E+02  0.62833946298E+02  0.10000000000E+01 0.  0.
<mgrwt>
<rscale>  0 0.12500758E+03</rscale>
<asrwt>0</asrwt>
<pdfrwt beam="2">  1        4 0.95349060E-02 0.12500758E+03</pdfrwt>
<pdfrwt beam="1">  1       -4 0.96977189E-02 0.12500758E+03</pdfrwt>
<totfact> 0.10450810E+04</totfact>
</mgrwt>
</event>
<event>
 5    1  0.3486589E-002  0.1249981E+03  0.7818608E-02  0.1235072E+00
          4   -1    0    0  501    0  0.00000000000E+00  0.00000000000E+00  0.64886594172E+02  0.64899021589E+02  0.12700000000E+01 0.  1.
         -4   -1    0    0    0  501 -0.00000000000E+00 -0.00000000000E+00 -0.60174473476E+02  0.60187873847E+02  0.12700000000E+01 0.  1.
         25    2    1    2    0    0  0.00000000000E+00  0.00000000000E+00  0.47121206956E+01  0.12508689544E+03  0.12499810930E+03 0.  0.
    9000005    1    3    3    0    0 -0.38689617301E+02  0.46325782440E+02  0.18559140101E+02  0.63153830342E+02  0.10000000000E+01 0.  0.
    9000005    1    3    3    0    0  0.38689617301E+02 -0.46325782440E+02 -0.13847019406E+02  0.61933065094E+02  0.10000000000E+01 0.  0.
<mgrwt>
<rscale>  0 0.12499811E+03</rscale>
<asrwt>0</asrwt>
<pdfrwt beam="1">  1        4 0.99845397E-02 0.12499811E+03</pdfrwt>
<pdfrwt beam="2">  1       -4 0.92595981E-02 0.12499811E+03</pdfrwt>
<totfact> 0.10451422E+04</totfact>
</mgrwt>
</event>
<event>
 5    1  0.3486589E-002  0.1250067E+03  0.7818608E-02  0.1235059E+00
          4   -1    0    0  501    0  0.00000000000E+00  0.00000000000E+00  0.11922386278E+02  0.11989837137E+02  0.12700000000E+01 0. -1.
         -4   -1    0    0    0  501 -0.00000000000E+00 -0.00000000000E+00 -0.32668198859E+03  0.32668445719E+03  0.12700000000E+01 0. -1.
         25    2    1    2    0    0  0.00000000000E+00  0.00000000000E+00 -0.31475960231E+03  0.33867429433E+03  0.12500668138E+03 0.  0.
    9000005    1    3    3    0    0  0.51362078530E+02 -0.10201146615E+02 -0.24979424876E+03  0.25522596501E+03  0.10000000000E+01 0.  0.
    9000005    1    3    3    0    0 -0.51362078530E+02  0.10201146615E+02 -0.64965353553E+02  0.83448329315E+02  0.10000000000E+01 0.  0.
<mgrwt>
<rscale>  0 0.12500668E+03</rscale>
<asrwt>0</asrwt>
<pdfrwt beam="1">  1        4 0.18395919E-02 0.12500668E+03</pdfrwt>
<pdfrwt beam="2">  1       -4 0.50264139E-01 0.12500668E+03</pdfrwt>
<totfact> 0.70978261E+03</totfact>
</mgrwt>
</event>
<event>
 5    1  0.3486589E-002  0.1250079E+03  0.7818608E-02  0.1235057E+00
         -4   -1    0    0    0  501 -0.00000000000E+00  0.00000000000E+00  0.26135563130E+02  0.26166401360E+02  0.12700000000E+01 0. -1.
          4   -1    0    0  501    0  0.00000000000E+00 -0.00000000000E+00 -0.14935827377E+03  0.14936367311E+03  0.12700000000E+01 0. -1.
         25    2    1    2    0    0  0.00000000000E+00  0.00000000000E+00 -0.12322271064E+03  0.17553007447E+03  0.12500788225E+03 0.  0.
    9000005    1    3    3    0    0  0.11290029105E+02  0.48649284690E+02 -0.88569871251E+01  0.50731290925E+02  0.10000000000E+01 0.  0.
    9000005    1    3    3    0    0 -0.11290029105E+02 -0.48649284690E+02 -0.11436572351E+03  0.12479878354E+03  0.10000000000E+01 0.  0.
<mgrwt>
<rscale>  0 0.12500788E+03</rscale>
<asrwt>0</asrwt>
<pdfrwt beam="2">  1        4 0.22980983E-01 0.12500788E+03</pdfrwt>
<pdfrwt beam="1">  1       -4 0.40236434E-02 0.12500788E+03</pdfrwt>
<totfact> 0.94411154E+03</totfact>
</mgrwt>
</event>
<event>
 5    1  0.3486589E-002  0.1250043E+03  0.7818608E-02  0.1235063E+00
          4   -1    0    0  501    0  0.00000000000E+00  0.00000000000E+00  0.79272739521E+01  0.80283604996E+01  0.12700000000E+01 0.  1.
         -4   -1    0    0    0  501 -0.00000000000E+00 -0.00000000000E+00 -0.48957047898E+03  0.48957212624E+03  0.12700000000E+01 0.  1.
         25    2    1    2    0    0  0.00000000000E+00  0.00000000000E+00 -0.48164320503E+03  0.49760048674E+03  0.12500426973E+03 0.  0.
    9000005    1    3    3    0    0 -0.47439069997E+02 -0.24795581726E+02 -0.11243468630E+03  0.12453049795E+03  0.10000000000E+01 0.  0.
    9000005    1    3    3    0    0  0.47439069997E+02  0.24795581726E+02 -0.36920851873E+03  0.37306998879E+03  0.10000000000E+01 0.  0.
<mgrwt>
<rscale>  0 0.12500427E+03</rscale>
<asrwt>0</asrwt>
<pdfrwt beam="1">  1        4 0.12274836E-02 0.12500427E+03</pdfrwt>
<pdfrwt beam="2">  1       -4 0.75326414E-01 0.12500427E+03</pdfrwt>
<totfact> 0.56045769E+03</totfact>
</mgrwt>
</event>
<event>
 5    1  0.3486589E-002  0.1250009E+03  0.7818608E-02  0.1235068E+00
         -4   -1    0    0    0  501 -0.00000000000E+00  0.00000000000E+00  0.78467551931E+02  0.78477828755E+02  0.12700000000E+01 0.  1.
          4   -1    0    0  501    0  0.00000000000E+00 -0.00000000000E+00 -0.49760823097E+02  0.49777026983E+02  0.12700000000E+01 0.  1.
         25    2    1    2    0    0  0.00000000000E+00  0.00000000000E+00  0.28706728834E+02  0.12825485574E+03  0.12500092696E+03 0.  0.
    9000005    1    3    3    0    0 -0.36834892508E+02 -0.30551923903E+02  0.55587549020E+02  0.73356696806E+02  0.10000000000E+01 0.  0.
    9000005    1    3    3    0    0  0.36834892508E+02  0.30551923903E+02 -0.26880820186E+02  0.54898158932E+02  0.10000000000E+01 0.  0.
<mgrwt>
<rscale>  0 0.12500093E+03</rscale>
<asrwt>0</asrwt>
<pdfrwt beam="2">  1        4 0.76575482E-02 0.12500093E+03</pdfrwt>
<pdfrwt beam="1">  1       -4 0.12073968E-01 0.12500093E+03</pdfrwt>
<totfact> 0.10381770E+04</totfact>
</mgrwt>
</event>
<event>
 5    1  0.3486589E-002  0.1250012E+03  0.7818608E-02  0.1235067E+00
         -4   -1    0    0    0  501 -0.00000000000E+00  0.00000000000E+00  0.36653170066E+02  0.36675165656E+02  0.12700000000E+01 0.  1.
          4   -1    0    0  501    0  0.00000000000E+00 -0.00000000000E+00 -0.10651756407E+03  0.10652513485E+03  0.12700000000E+01 0.  1.
         25    2    1    2    0    0  0.00000000000E+00  0.00000000000E+00 -0.69864394006E+02  0.14320030051E+03  0.12500117006E+03 0.  0.
    9000005    1    3    3    0    0  0.42815094073E+02  0.45447372849E+02 -0.31960904564E+02  0.70150519599E+02  0.10000000000E+01 0.  0.
    9000005    1    3    3    0    0 -0.42815094073E+02 -0.45447372849E+02 -0.37903489442E+02  0.73049780912E+02  0.10000000000E+01 0.  0.
<mgrwt>
<rscale>  0 0.12500117E+03</rscale>
<asrwt>0</asrwt>
<pdfrwt beam="2">  1        4 0.16389592E-01 0.12500117E+03</pdfrwt>
<pdfrwt beam="1">  1       -4 0.56412236E-02 0.12500117E+03</pdfrwt>
<totfact> 0.10067418E+04</totfact>
</mgrwt>
</event>
<event>
 5    1  0.3486589E-002  0.1249932E+03  0.7818608E-02  0.1235080E+00
          4   -1    0    0  501    0  0.00000000000E+00  0.00000000000E+00  0.84945410697E+01  0.85889538353E+01  0.12700000000E+01 0. -1.
         -4   -1    0    0    0  501 -0.00000000000E+00 -0.00000000000E+00 -0.45716744342E+03  0.45716920743E+03  0.12700000000E+01 0. -1.
         25    2    1    2    0    0  0.00000000000E+00  0.00000000000E+00 -0.44867290235E+03  0.46575816126E+03  0.12499316574E+03 0.  0.
    9000005    1    3    3    0    0 -0.17672560800E+01  0.54099904572E+02 -0.34068319720E+03  0.34495791587E+03  0.10000000000E+01 0.  0.
    9000005    1    3    3    0    0  0.17672560800E+01 -0.54099904572E+02 -0.10798970515E+03  0.12080024539E+03  0.10000000000E+01 0.  0.
<mgrwt>
<rscale>  0 0.12499317E+03</rscale>
<asrwt>0</asrwt>
<pdfrwt beam="1">  1        4 0.13142510E-02 0.12499317E+03</pdfrwt>
<pdfrwt beam="2">  1       -4 0.70340832E-01 0.12499317E+03</pdfrwt>
<totfact> 0.58631396E+03</totfact>
</mgrwt>
</event>
<event>
 5    1  0.3486589E-002  0.1250004E+03  0.7818608E-02  0.1235069E+00
          4   -1    0    0  501    0  0.00000000000E+00  0.00000000000E+00  0.10074559260E+03  0.10075359710E+03  0.12700000000E+01 0.  1.
         -4   -1    0    0    0  501 -0.00000000000E+00 -0.00000000000E+00 -0.38753692645E+02  0.38774496691E+02  0.12700000000E+01 0.  1.
         25    2    1    2    0    0  0.00000000000E+00  0.00000000000E+00  0.61991899953E+02  0.13952809379E+03  0.12500037318E+03 0.  0.
    9000005    1    3    3    0    0 -0.56444550595E+02  0.15135601364E+02  0.62823035371E+01  0.58783850319E+02  0.10000000000E+01 0.  0.
    9000005    1    3    3    0    0  0.56444550595E+02 -0.15135601364E+02  0.55709596416E+02  0.80744243469E+02  0.10000000000E+01 0.  0.
<mgrwt>
<rscale>  0 0.12500037E+03</rscale>
<asrwt>0</asrwt>
<pdfrwt beam="1">  1        4 0.15501538E-01 0.12500037E+03</pdfrwt>
<pdfrwt beam="2">  1       -4 0.59643226E-02 0.12500037E+03</pdfrwt>
<totfact> 0.10143290E+04</totfact>
</mgrwt>
</event>
<event>
 5    1  0.3486589E-002  0.1249974E+03  0.7818608E-02  0.1235073E+00
         -4   -1    0    0    0  501 -0.00000000000E+00  0.00000000000E+00  0.13031456875E+02  0.13093195496E+02  0.12700000000E+01 0.  1.
          4   -1    0    0  501    0  0.00000000000E+00 -0.00000000000E+00 -0.29897163893E+03  0.29897433633E+03  0.12700000000E+01 0.  1.
         25    2    1    2    0    0  0.00000000000E+00  0.00000000000E+00 -0.28594018205E+03  0.31206753182E+03  0.12499742680E+03 0.  0.
    9000005    1    3    3    0    0  0.77965962836E+01  0.17584077980E+02 -0.29140926076E+03  0.29204510605E+03  0.10000000000E+01 0.  0.
    9000005    1    3    3    0    0 -0.77965962836E+01 -0.17584077980E+02  0.54690787053E+01  0.20022425775E+02  0.10000000000E+01 0.  0.
<mgrwt>
<rscale>  0 0.12499743E+03</rscale>
<asrwt>0</asrwt>
<pdfrwt beam="2">  1        4 0.46000588E-01 0.12499743E+03</pdfrwt>
<pdfrwt beam="1">  1       -4 0.20097964E-02 0.12499743E+03</pdfrwt>
<totfact> 0.74113853E+03</totfact>
</mgrwt>
</event>
<event>
 5    1  0.3486589E-002  0.1250028E+03  0.7818608E-02  0.1235065E+00
          4   -1    0    0  501    0  0.00000000000E+00  0.00000000000E+00  0.24359071951E+02  0.24392156246E+02  0.12700000000E+01 0.  1.
         -4   -1    0    0    0  501 -0.00000000000E+00 -0.00000000000E+00 -0.16022386384E+03  0.16022889703E+03  0.12700000000E+01 0.  1.
         25    2    1    2    0    0  0.00000000000E+00  0.00000000000E+00 -0.13586479188E+03  0.18462105327E+03  0.12500276652E+03 0.  0.
    9000005    1    3    3    0    0 -0.51825321199E+02 -0.99757515010E+01 -0.18503715099E+02  0.55935382432E+02  0.10000000000E+01 0.  0.
    9000005    1    3    3    0    0  0.51825321199E+02  0.99757515010E+01 -0.11736107679E+03  0.12868567084E+03  0.10000000000E+01 0.  0.
<mgrwt>
<rscale>  0 0.12500277E+03</rscale>
<asrwt>0</asrwt>
<pdfrwt beam="1">  1        4 0.37504817E-02 0.12500277E+03</pdfrwt>
<pdfrwt beam="2">  1       -4 0.24652757E-01 0.12500277E+03</pdfrwt>
<totfact> 0.92785997E+03</totfact>
</mgrwt>
</event>
<event>
 5    1  0.3486589E-002  0.1249996E+03  0.7818608E-02  0.1235070E+00
         -4   -1    0    0    0  501 -0.00000000000E+00  0.00000000000E+00  0.12144534994E+02  0.12210758790E+02  0.12700000000E+01 0. -1.
          4   -1    0    0  501    0  0.00000000000E+00 -0.00000000000E+00 -0.32070240444E+03  0.32070491907E+03  0.12700000000E+01 0. -1.
         25    2    1    2    0    0  0.00000000000E+00  0.00000000000E+00 -0.30855786945E+03  0.33291567786E+03  0.12499955906E+03 0.  0.
    9000005    1    3    3    0    0 -0.45582435157E+02  0.41667981549E+00 -0.40429846760E+02  0.60938530717E+02  0.10000000000E+01 0.  0.
    9000005    1    3    3    0    0  0.45582435157E+02 -0.41667981549E+00 -0.26812802269E+03  0.27197714714E+03  0.10000000000E+01 0.  0.
<mgrwt>
<rscale>  0 0.12499956E+03</rscale>
<asrwt>0</asrwt>
<pdfrwt beam="2">  1        4 0.49344113E-01 0.12499956E+03</pdfrwt>
<pdfrwt beam="1">  1       -4 0.18736778E-02 0.12499956E+03</pdfrwt>
<totfact> 0.71646561E+03</totfact>
</mgrwt>
</event>
<event>
 5    1  0.3486589E-002  0.1249975E+03  0.7818608E-02  0.1235073E+00
         -4   -1    0    0    0  501 -0.00000000000E+00  0.00000000000E+00  0.11014534443E+03  0.11015266588E+03  0.12700000000E+01 0.  1.
          4   -1    0    0  501    0  0.00000000000E+00 -0.00000000000E+00 -0.35443212806E+02  0.35465958805E+02  0.12700000000E+01 0.  1.
         25    2    1    2    0    0  0.00000000000E+00  0.00000000000E+00  0.74702131625E+02  0.14561862468E+03  0.12499750152E+03 0.  0.
    9000005    1    3    3    0    0 -0.63281501814E+01  0.55777894367E+02  0.69337455471E+02  0.89218281288E+02  0.10000000000E+01 0.  0.
    9000005    1    3    3    0    0  0.63281501814E+01 -0.55777894367E+02  0.53646761534E+01  0.56400343394E+02  0.10000000000E+01 0.  0.
<mgrwt>
<rscale>  0 0.12499750E+03</rscale>
<asrwt>0</asrwt>
<pdfrwt beam="2">  1        4 0.54551149E-02 0.12499750E+03</pdfrwt>
<pdfrwt beam="1">  1       -4 0.16947750E-01 0.12499750E+03</pdfrwt>
<totfact> 0.10018998E+04</totfact>
</mgrwt>
</event>
<event>
 5    1  0.3486589E-002  0.1250001E+03  0.7818608E-02  0.1235069E+00
          4   -1    0    0  501    0  0.00000000000E+00  0.00000000000E+00  0.57896536607E+01  0.59273087916E+01  0.12700000000E+01 0.  1.
         -4   -1    0    0    0  501 -0.00000000000E+00 -0.00000000000E+00 -0.66663132184E+03  0.66663253158E+03  0.12700000000E+01 0.  1.
         25    2    1    2    0    0  0.00000000000E+00  0.00000000000E+00 -0.66084166818E+03  0.67255984037E+03  0.12500011390E+03 0.  0.
    9000005    1    3    3    0    0 -0.41443119465E+02 -0.27934846764E+02 -0.53226888487E+03  0.53461112373E+03  0.10000000000E+01 0.  0.
    9000005    1    3    3    0    0  0.41443119465E+02  0.27934846764E+02 -0.12857278331E+03  0.13794871664E+03  0.10000000000E+01 0.  0.
<mgrwt>
<rscale>  0 0.12500011E+03</rscale>
<asrwt>0</asrwt>
<pdfrwt beam="1">  1        4 0.90139839E-03 0.12500011E+03</pdfrwt>
<pdfrwt beam="2">  1       -4 0.10256929E+00 0.12500011E+03</pdfrwt>
<totfact> 0.44575249E+03</totfact>
</mgrwt>
</event>
<event>
 5    1  0.3486589E-002  0.1249989E+03  0.7818608E-02  0.1235071E+00
         -4   -1    0    0    0  501 -0.00000000000E+00  0.00000000000E+00  0.17414718923E+01  0.21553710473E+01  0.12700000000E+01 0. -1.
          4   -1    0    0  501    0  0.00000000000E+00 -0.00000000000E+00 -0.20043791542E+04  0.20043795565E+04  0.12700000000E+01 0. -1.
         25    2    1    2    0    0  0.00000000000E+00  0.00000000000E+00 -0.20026376823E+04  0.20065349276E+04  0.12499891618E+03 0.  0.
    9000005    1    3    3    0    0  0.16339681090E+02  0.24660073130E+02 -0.18849425737E+04  0.18851749549E+04  0.10000000000E+01 0.  0.
    9000005    1    3    3    0    0 -0.16339681090E+02 -0.24660073130E+02 -0.11769510863E+03  0.12135997273E+03  0.10000000000E+01 0.  0.
<mgrwt>
<rscale>  0 0.12499892E+03</rscale>
<asrwt>0</asrwt>
<pdfrwt beam="2">  1        4 0.30839624E+00 0.12499892E+03</pdfrwt>
<pdfrwt beam="1">  1       -4 0.29978970E-03 0.12499892E+03</pdfrwt>
<totfact> 0.97765106E+02</totfact>
</mgrwt>
</event>
<event>
 5    1  0.3486589E-002  0.1250018E+03  0.7818608E-02  0.1235067E+00
          4   -1    0    0  501    0  0.00000000000E+00  0.00000000000E+00  0.81038823816E+01  0.82027927961E+01  0.12700000000E+01 0.  1.
         -4   -1    0    0    0  501 -0.00000000000E+00 -0.00000000000E+00 -0.47901206669E+03  0.47901375026E+03  0.12700000000E+01 0.  1.
         25    2    1    2    0    0  0.00000000000E+00  0.00000000000E+00 -0.47090818431E+03  0.48721654305E+03  0.12500176709E+03 0.  0.
    9000005    1    3    3    0    0  0.55136610952E+02 -0.29377288926E+02 -0.22955651639E+03  0.23790810240E+03  0.10000000000E+01 0.  0.
    9000005    1    3    3    0    0 -0.55136610952E+02  0.29377288926E+02 -0.24135166792E+03  0.24930844065E+03  0.10000000000E+01 0.  0.
<mgrwt>
<rscale>  0 0.12500177E+03</rscale>
<asrwt>0</asrwt>
<pdfrwt beam="1">  1        4 0.12544895E-02 0.12500177E+03</pdfrwt>
<pdfrwt beam="2">  1       -4 0.73701880E-01 0.12500177E+03</pdfrwt>
<totfact> 0.56867827E+03</totfact>
</mgrwt>
</event>
<event>
 5    1  0.3486589E-002  0.1249881E+03  0.7818608E-02  0.1235088E+00
         -4   -1    0    0    0  501 -0.00000000000E+00  0.00000000000E+00  0.20760140588E+02  0.20798950388E+02  0.12700000000E+01 0.  1.
          4   -1    0    0  501    0  0.00000000000E+00 -0.00000000000E+00 -0.18790847650E+03  0.18791276817E+03  0.12700000000E+01 0.  1.
         25    2    1    2    0    0  0.00000000000E+00  0.00000000000E+00 -0.16714833591E+03  0.20871171856E+03  0.12498806049E+03 0.  0.
    9000005    1    3    3    0    0  0.54097201581E+02  0.14790258553E+02 -0.37562367006E+02  0.67506965433E+02  0.10000000000E+01 0.  0.
    9000005    1    3    3    0    0 -0.54097201581E+02 -0.14790258553E+02 -0.12958596891E+03  0.14120475312E+03  0.10000000000E+01 0.  0.
<mgrwt>
<rscale>  0 0.12498806E+03</rscale>
<asrwt>0</asrwt>
<pdfrwt beam="2">  1        4 0.28912311E-01 0.12498806E+03</pdfrwt>
<pdfrwt beam="1">  1       -4 0.31971834E-02 0.12498806E+03</pdfrwt>
<totfact> 0.88710387E+03</totfact>
</mgrwt>
</event>
<event>
 5    1  0.3486589E-002  0.1250012E+03  0.7818608E-02  0.1235067E+00
         -4   -1    0    0    0  501 -0.00000000000E+00  0.00000000000E+00  0.14661474210E+04  0.14661479711E+04  0.12700000000E+01 0.  1.
          4   -1    0    0  501    0  0.00000000000E+00 -0.00000000000E+00 -0.25124231197E+01  0.28151678338E+01  0.12700000000E+01 0.  1.
         25    2    1    2    0    0  0.00000000000E+00  0.00000000000E+00  0.14636349979E+04  0.14689631389E+04  0.12500118548E+03 0.  0.
    9000005    1    3    3    0    0  0.93778801131E+01  0.56946434106E+02  0.45015087081E+03  0.45383658676E+03  0.10000000000E+01 0.  0.
    9000005    1    3    3    0    0 -0.93778801131E+01 -0.56946434106E+02  0.10134841271E+04  0.10151265521E+04  0.10000000000E+01 0.  0.
<mgrwt>
<rscale>  0 0.12500119E+03</rscale>
<asrwt>0</asrwt>
<pdfrwt beam="2">  1        4 0.40985553E-03 0.12500119E+03</pdfrwt>
<pdfrwt beam="1">  1       -4 0.22558528E+00 0.12500119E+03</pdfrwt>
<totfact> 0.18547067E+03</totfact>
</mgrwt>
</event>
<event>
 5    1  0.3486589E-002  0.1249994E+03  0.7818608E-02  0.1235070E+00
         -4   -1    0    0    0  501 -0.00000000000E+00  0.00000000000E+00  0.23478807876E+04  0.23478811311E+04  0.12700000000E+01 0.  1.
          4   -1    0    0  501    0  0.00000000000E+00 -0.00000000000E+00 -0.14209607666E+01  0.19057884196E+01  0.12700000000E+01 0.  1.
         25    2    1    2    0    0  0.00000000000E+00  0.00000000000E+00  0.23464598268E+04  0.23497869195E+04  0.12499939243E+03 0.  0.
    9000005    1    3    3    0    0 -0.61836664878E+02  0.86007664893E+01  0.12245936269E+04  0.12261844468E+04  0.10000000000E+01 0.  0.
    9000005    1    3    3    0    0  0.61836664878E+02 -0.86007664893E+01  0.11218661999E+04  0.11236024727E+04  0.10000000000E+01 0.  0.
<mgrwt>
<rscale>  0 0.12499939E+03</rscale>
<asrwt>0</asrwt>
<pdfrwt beam="2">  1        4 0.25592792E-03 0.12499939E+03</pdfrwt>
<pdfrwt beam="1">  1       -4 0.36125298E+00 0.12499939E+03</pdfrwt>
<totfact> 0.59590708E+02</totfact>
</mgrwt>
</event>
<event>
 5    1  0.3486589E-002  0.1250014E+03  0.7818608E-02  0.1235067E+00
         -4   -1    0    0    0  501 -0.00000000000E+00  0.00000000000E+00  0.53380306660E+01  0.54870275552E+01  0.12700000000E+01 0. -1.
          4   -1    0    0  501    0  0.00000000000E+00 -0.00000000000E+00 -0.72157161130E+03  0.72157272893E+03  0.12700000000E+01 0. -1.
         25    2    1    2    0    0  0.00000000000E+00  0.00000000000E+00 -0.71623358063E+03  0.72705975648E+03  0.12500138988E+03 0.  0.
    9000005    1    3    3    0    0  0.62107628076E+02  0.24717658935E+01 -0.32048060635E+03  0.32645411031E+03  0.10000000000E+01 0.  0.
    9000005    1    3    3    0    0 -0.62107628076E+02 -0.24717658935E+01 -0.39575297429E+03  0.40060564618E+03  0.10000000000E+01 0.  0.
<mgrwt>
<rscale>  0 0.12500139E+03</rscale>
<asrwt>0</asrwt>
<pdfrwt beam="2">  1        4 0.11102249E+00 0.12500139E+03</pdfrwt>
<pdfrwt beam="1">  1       -4 0.83278333E-03 0.12500139E+03</pdfrwt>
<totfact> 0.41694883E+03</totfact>
</mgrwt>
</event>
<event>
 5    1  0.3486589E-002  0.1250006E+03  0.7818608E-02  0.1235068E+00
          4   -1    0    0  501    0  0.00000000000E+00  0.00000000000E+00  0.15764922224E+01  0.20244079942E+01  0.12700000000E+01 0. -1.
         -4   -1    0    0    0  501 -0.00000000000E+00 -0.00000000000E+00 -0.21691692105E+04  0.21691695823E+04  0.12700000000E+01 0. -1.
         25    2    1    2    0    0  0.00000000000E+00  0.00000000000E+00 -0.21675927183E+04  0.21711939903E+04  0.12500060426E+03 0.  0.
    9000005    1    3    3    0    0 -0.45860509337E+02  0.19060263075E+02 -0.17426484231E+04  0.17433562477E+04  0.10000000000E+01 0.  0.
    9000005    1    3    3    0    0  0.45860509337E+02 -0.19060263075E+02 -0.42494429520E+03  0.42783774257E+03  0.10000000000E+01 0.  0.
<mgrwt>
<rscale>  0 0.12500060E+03</rscale>
<asrwt>0</asrwt>
<pdfrwt beam="1">  1        4 0.27702266E-03 0.12500060E+03</pdfrwt>
<pdfrwt beam="2">  1       -4 0.33375073E+00 0.12500060E+03</pdfrwt>
<totfact> 0.77890403E+02</totfact>
</mgrwt>
</event>
<event>
 5    1  0.3486589E-002  0.1250013E+03  0.7818608E-02  0.1235067E+00
         -4   -1    0    0    0  501 -0.00000000000E+00  0.00000000000E+00  0.13760177046E+03  0.13760763109E+03  0.12700000000E+01 0.  1.
          4   -1    0    0  501    0  0.00000000000E+00 -0.00000000000E+00 -0.28368004220E+02  0.28396418145E+02  0.12700000000E+01 0.  1.
         25    2    1    2    0    0  0.00000000000E+00  0.00000000000E+00  0.10923376624E+03  0.16600404923E+03  0.12500131469E+03 0.  0.
    9000005    1    3    3    0    0 -0.61576884244E+02  0.10656980887E+02  0.54325160495E+02  0.82810065678E+02  0.10000000000E+01 0.  0.
    9000005    1    3    3    0    0  0.61576884244E+02 -0.10656980887E+02  0.54908605744E+02  0.83193983554E+02  0.10000000000E+01 0.  0.
<mgrwt>
<rscale>  0 0.12500131E+03</rscale>
<asrwt>0</asrwt>
<pdfrwt beam="2">  1        4 0.43669448E-02 0.12500131E+03</pdfrwt>
<pdfrwt beam="1">  1       -4 0.21172140E-01 0.12500131E+03</pdfrwt>
<totfact> 0.96194737E+03</totfact>
</mgrwt>
</event>
<event>
 5    1  0.3486589E-002  0.1249992E+03  0.7818608E-02  0.1235071E+00
         -4   -1    0    0    0  501 -0.00000000000E+00  0.00000000000E+00  0.41144112516E+02  0.41163708466E+02  0.12700000000E+01 0. -1.
          4   -1    0    0  501    0  0.00000000000E+00 -0.00000000000E+00 -0.94893009895E+02  0.94901508033E+02  0.12700000000E+01 0. -1.
         25    2    1    2    0    0  0.00000000000E+00  0.00000000000E+00 -0.53748897380E+02  0.13606521650E+03  0.12499919668E+03 0.  0.
    9000005    1    3    3    0    0  0.25260826220E+02 -0.56206949892E+02 -0.15568976778E+02  0.63566686207E+02  0.10000000000E+01 0.  0.
    9000005    1    3    3    0    0 -0.25260826220E+02  0.56206949892E+02 -0.38179920602E+02  0.72498530293E+02  0.10000000000E+01 0.  0.
<mgrwt>
<rscale>  0 0.12499920E+03</rscale>
<asrwt>0</asrwt>
<pdfrwt beam="2">  1        4 0.14601086E-01 0.12499920E+03</pdfrwt>
<pdfrwt beam="1">  1       -4 0.63320246E-02 0.12499920E+03</pdfrwt>
<totfact> 0.10215852E+04</totfact>
</mgrwt>
</event>
<event>
 5    1  0.3486589E-002  0.1250012E+03  0.7818608E-02  0.1235067E+00
          4   -1    0    0  501    0  0.00000000000E+00  0.00000000000E+00  0.36941353033E+03  0.36941571338E+03  0.12700000000E+01 0.  1.
         -4   -1    0    0    0  501 -0.00000000000E+00 -0.00000000000E+00 -0.10534039742E+02  0.10610320131E+02  0.12700000000E+01 0.  1.
         25    2    1    2    0    0  0.00000000000E+00  0.00000000000E+00  0.35887949059E+03  0.38002603351E+03  0.12500118952E+03 0.  0.
    9000005    1    3    3    0    0 -0.51569072708E+02 -0.33709116585E+02  0.21127472656E+03  0.22007654097E+03  0.10000000000E+01 0.  0.
    9000005    1    3    3    0    0  0.51569072708E+02  0.33709116585E+02  0.14760476403E+03  0.15994949254E+03  0.10000000000E+01 0.  0.
<mgrwt>
<rscale>  0 0.12500119E+03</rscale>
<asrwt>0</asrwt>
<pdfrwt beam="1">  1        4 0.56838897E-01 0.12500119E+03</pdfrwt>
<pdfrwt beam="2">  1       -4 0.16266568E-02 0.12500119E+03</pdfrwt>
<totfact> 0.66541151E+03</totfact>
</mgrwt>
</event>
<event>
 5    1  0.3486589E-002  0.1250015E+03  0.7818608E-02  0.1235067E+00
          4   -1    0    0  501    0  0.00000000000E+00  0.00000000000E+00  0.28510705825E+03  0.28510988682E+03  0.12700000000E+01 0.  1.
         -4   -1    0    0    0  501 -0.00000000000E+00 -0.00000000000E+00 -0.13668988757E+02  0.13727860490E+02  0.12700000000E+01 0.  1.
         25    2    1    2    0    0  0.00000000000E+00  0.00000000000E+00  0.27143806949E+03  0.29883774731E+03  0.12500149458E+03 0.  0.
    9000005    1    3    3    0    0  0.12239036861E+01  0.32548370397E+01  0.28488731351E+03  0.28491028993E+03  0.10000000000E+01 0.  0.
    9000005    1    3    3    0    0 -0.12239036861E+01 -0.32548370397E+01 -0.13449244023E+02  0.13927457384E+02  0.10000000000E+01 0.  0.
<mgrwt>
<rscale>  0 0.12500149E+03</rscale>
<asrwt>0</asrwt>
<pdfrwt beam="1">  1        4 0.43867371E-01 0.12500149E+03</pdfrwt>
<pdfrwt beam="2">  1       -4 0.21076675E-02 0.12500149E+03</pdfrwt>
<totfact> 0.75742346E+03</totfact>
</mgrwt>
</event>
<event>
 5    1  0.3486589E-002  0.1250003E+03  0.7818608E-02  0.1235069E+00
         -4   -1    0    0    0  501 -0.00000000000E+00  0.00000000000E+00  0.32965790117E+02  0.32990244286E+02  0.12700000000E+01 0.  1.
          4   -1    0    0  501    0  0.00000000000E+00 -0.00000000000E+00 -0.11842288720E+03  0.11842969692E+03  0.12700000000E+01 0.  1.
         25    2    1    2    0    0  0.00000000000E+00  0.00000000000E+00 -0.85457097079E+02  0.15141994120E+03  0.12500033261E+03 0.  0.
    9000005    1    3    3    0    0 -0.18394301063E+02  0.14139451904E+02  0.27561400604E+02  0.36040327621E+02  0.10000000000E+01 0.  0.
    9000005    1    3    3    0    0  0.18394301063E+02 -0.14139451904E+02 -0.11301849768E+03  0.11537961358E+03  0.10000000000E+01 0.  0.
<mgrwt>
<rscale>  0 0.12500033E+03</rscale>
<asrwt>0</asrwt>
<pdfrwt beam="2">  1        4 0.18221310E-01 0.12500033E+03</pdfrwt>
<pdfrwt beam="1">  1       -4 0.50740650E-02 0.12500033E+03</pdfrwt>
<totfact> 0.99020663E+03</totfact>
</mgrwt>
</event>
<event>
 5    1  0.3486589E-002  0.1250079E+03  0.7818608E-02  0.1235057E+00
          4   -1    0    0  501    0  0.00000000000E+00  0.00000000000E+00  0.44565409702E+03  0.44565590660E+03  0.12700000000E+01 0.  1.
         -4   -1    0    0    0  501 -0.00000000000E+00 -0.00000000000E+00 -0.87184838528E+01  0.88104971875E+01  0.12700000000E+01 0.  1.
         25    2    1    2    0    0  0.00000000000E+00  0.00000000000E+00  0.43693561316E+03  0.45446640379E+03  0.12500792823E+03 0.  0.
    9000005    1    3    3    0    0  0.47389978522E+01  0.58950989500E+02  0.14502814994E+03  0.15662643946E+03  0.10000000000E+01 0.  0.
    9000005    1    3    3    0    0 -0.47389978522E+01 -0.58950989500E+02  0.29190746322E+03  0.29783996432E+03  0.10000000000E+01 0.  0.
<mgrwt>
<rscale>  0 0.12500793E+03</rscale>
<asrwt>0</asrwt>
<pdfrwt beam="1">  1        4 0.68569406E-01 0.12500793E+03</pdfrwt>
<pdfrwt beam="2">  1       -4 0.13485220E-02 0.12500793E+03</pdfrwt>
<totfact> 0.59568400E+03</totfact>
</mgrwt>
</event>
<event>
 5    1  0.3486589E-002  0.1249994E+03  0.7818608E-02  0.1235070E+00
          4   -1    0    0  501    0  0.00000000000E+00  0.00000000000E+00  0.15989330152E+03  0.15989834511E+03  0.12700000000E+01 0.  1.
         -4   -1    0    0    0  501 -0.00000000000E+00 -0.00000000000E+00 -0.24408195903E+02  0.24441213702E+02  0.12700000000E+01 0.  1.
         25    2    1    2    0    0  0.00000000000E+00  0.00000000000E+00  0.13548510561E+03  0.18433955882E+03  0.12499943640E+03 0.  0.
    9000005    1    3    3    0    0 -0.15992500969E+01 -0.39599394861E+02  0.13899694225E+03  0.14454002778E+03  0.10000000000E+01 0.  0.
    9000005    1    3    3    0    0  0.15992500969E+01  0.39599394861E+02 -0.35118366399E+01  0.39799531037E+02  0.10000000000E+01 0.  0.
<mgrwt>
<rscale>  0 0.12499944E+03</rscale>
<asrwt>0</asrwt>
<pdfrwt beam="1">  1        4 0.24601897E-01 0.12499944E+03</pdfrwt>
<pdfrwt beam="2">  1       -4 0.37580349E-02 0.12499944E+03</pdfrwt>
<totfact> 0.92842822E+03</totfact>
</mgrwt>
</event>
<event>
 4    1  0.3486589E-002  0.1251386E+03  0.7818608E-02  0.1234853E+00
          4   -1    0    0  501    0  0.00000000000E+00  0.00000000000E+00  0.83533457398E+02  0.83543111056E+02  0.12700000000E+01 0.  1.
         -4   -1    0    0    0  501 -0.00000000000E+00 -0.00000000000E+00 -0.46845489703E+02  0.46862701645E+02  0.12700000000E+01 0.  1.
    9000005    1    1    2    0    0 -0.16068676703E+02 -0.97586514096E+01 -0.43837367487E+02  0.47708997438E+02  0.10000000000E+01 0.  0.
    9000005    1    1    2    0    0  0.16068676703E+02  0.97586514096E+01  0.80525335183E+02  0.82696815263E+02  0.10000000000E+01 0.  0.
<mgrwt>
<rscale>  0 0.12513860E+03</rscale>
<asrwt>0</asrwt>
<pdfrwt beam="1">  1        4 0.12853368E-01 0.12513860E+03</pdfrwt>
<pdfrwt beam="2">  1       -4 0.72090650E-02 0.12513860E+03</pdfrwt>
<totfact> 0.10303566E+04</totfact>
</mgrwt>
</event>
<event>
 5    1  0.3486589E-002  0.1250148E+03  0.7818608E-02  0.1235046E+00
         -4   -1    0    0    0  501 -0.00000000000E+00  0.00000000000E+00  0.45813629080E+03  0.45813805108E+03  0.12700000000E+01 0.  1.
          4   -1    0    0  501    0  0.00000000000E+00 -0.00000000000E+00 -0.84793469095E+01  0.85739269889E+01  0.12700000000E+01 0.  1.
         25    2    1    2    0    0  0.00000000000E+00  0.00000000000E+00  0.44965694389E+03  0.46671197807E+03  0.12501481226E+03 0.  0.
    9000005    1    3    3    0    0 -0.98563349676E+01 -0.55047221036E+02  0.12064247532E+03  0.13297725645E+03  0.10000000000E+01 0.  0.
    9000005    1    3    3    0    0  0.98563349676E+01  0.55047221036E+02  0.32901446857E+03  0.33373472162E+03  0.10000000000E+01 0.  0.
<mgrwt>
<rscale>  0 0.12501481E+03</rscale>
<asrwt>0</asrwt>
<pdfrwt beam="2">  1        4 0.13119255E-02 0.12501481E+03</pdfrwt>
<pdfrwt beam="1">  1       -4 0.70489929E-01 0.12501481E+03</pdfrwt>
<totfact> 0.58523798E+03</totfact>
</mgrwt>
</event>
<event>
 5    1  0.3486589E-002  0.1250018E+03  0.7818608E-02  0.1235067E+00
         -4   -1    0    0    0  501 -0.00000000000E+00  0.00000000000E+00  0.46345811988E+03  0.46345985995E+03  0.12700000000E+01 0.  1.
          4   -1    0    0  501    0  0.00000000000E+00 -0.00000000000E+00 -0.83791198873E+01  0.84748185872E+01  0.12700000000E+01 0.  1.
         25    2    1    2    0    0  0.00000000000E+00  0.00000000000E+00  0.45507899999E+03  0.47193467854E+03  0.12500177826E+03 0.  0.
    9000005    1    3    3    0    0 -0.60989959988E+02  0.86652737112E+01  0.26722618136E+03  0.27423656611E+03  0.10000000000E+01 0.  0.
    9000005    1    3    3    0    0  0.60989959988E+02 -0.86652737112E+01  0.18785281863E+03  0.19769811242E+03  0.10000000000E+01 0.  0.
<mgrwt>
<rscale>  0 0.12500178E+03</rscale>
<asrwt>0</asrwt>
<pdfrwt beam="2">  1        4 0.12965906E-02 0.12500178E+03</pdfrwt>
<pdfrwt beam="1">  1       -4 0.71308747E-01 0.12500178E+03</pdfrwt>
<totfact> 0.58107320E+03</totfact>
</mgrwt>
</event>
<event>
 5    1  0.3486589E-002  0.1250016E+03  0.7818608E-02  0.1235067E+00
         -4   -1    0    0    0  501 -0.00000000000E+00  0.00000000000E+00  0.13456521824E+04  0.13456527817E+04  0.12700000000E+01 0. -1.
          4   -1    0    0  501    0  0.00000000000E+00 -0.00000000000E+00 -0.27634123785E+01  0.30412740708E+01  0.12700000000E+01 0. -1.
         25    2    1    2    0    0  0.00000000000E+00  0.00000000000E+00  0.13428887700E+04  0.13486940557E+04  0.12500162968E+03 0.  0.
    9000005    1    3    3    0    0  0.21174797609E+02  0.14989508198E+02  0.12848577389E+04  0.12851200204E+04  0.10000000000E+01 0.  0.
    9000005    1    3    3    0    0 -0.21174797609E+02 -0.14989508198E+02  0.58031031029E+02  0.63574035361E+02  0.10000000000E+01 0.  0.
<mgrwt>
<rscale>  0 0.12500163E+03</rscale>
<asrwt>0</asrwt>
<pdfrwt beam="2">  1        4 0.44656117E-03 0.12500163E+03</pdfrwt>
<pdfrwt beam="1">  1       -4 0.20704450E+00 0.12500163E+03</pdfrwt>
<totfact> 0.21106859E+03</totfact>
</mgrwt>
</event>
<event>
 5    1  0.3486589E-002  0.1250010E+03  0.7818608E-02  0.1235068E+00
         -4   -1    0    0    0  501 -0.00000000000E+00  0.00000000000E+00  0.60845500047E+02  0.60858752665E+02  0.12700000000E+01 0. -1.
          4   -1    0    0  501    0  0.00000000000E+00 -0.00000000000E+00 -0.64173967696E+02  0.64186533087E+02  0.12700000000E+01 0. -1.
         25    2    1    2    0    0  0.00000000000E+00  0.00000000000E+00 -0.33284676484E+01  0.12504528575E+03  0.12500097916E+03 0.  0.
    9000005    1    3    3    0    0 -0.44765352130E+01 -0.58292927249E+02 -0.23744811377E+02  0.63110385850E+02  0.10000000000E+01 0.  0.
    9000005    1    3    3    0    0  0.44765352130E+01  0.58292927249E+02  0.20416343728E+02  0.61934899903E+02  0.10000000000E+01 0.  0.
<mgrwt>
<rscale>  0 0.12500098E+03</rscale>
<asrwt>0</asrwt>
<pdfrwt beam="2">  1        4 0.98749040E-02 0.12500098E+03</pdfrwt>
<pdfrwt beam="1">  1       -4 0.93628322E-02 0.12500098E+03</pdfrwt>
<totfact> 0.10451648E+04</totfact>
</mgrwt>
</event>
<event>
 5    1  0.3486589E-002  0.1250008E+03  0.7818608E-02  0.1235068E+00
         -4   -1    0    0    0  501 -0.00000000000E+00  0.00000000000E+00  0.34569954772E+02  0.34593274967E+02  0.12700000000E+01 0. -1.
          4   -1    0    0  501    0  0.00000000000E+00 -0.00000000000E+00 -0.11293202584E+03  0.11293916664E+03  0.12700000000E+01 0. -1.
         25    2    1    2    0    0  0.00000000000E+00  0.00000000000E+00 -0.78362071070E+02  0.14753244160E+03  0.12500082857E+03 0.  0.
    9000005    1    3    3    0    0  0.56279926618E+02 -0.20152001177E+02 -0.17683325094E+02  0.62347680614E+02  0.10000000000E+01 0.  0.
    9000005    1    3    3    0    0 -0.56279926618E+02  0.20152001177E+02 -0.60678745976E+02  0.85184760989E+02  0.10000000000E+01 0.  0.
<mgrwt>
<rscale>  0 0.12500083E+03</rscale>
<asrwt>0</asrwt>
<pdfrwt beam="2">  1        4 0.17376501E-01 0.12500083E+03</pdfrwt>
<pdfrwt beam="1">  1       -4 0.53207978E-02 0.12500083E+03</pdfrwt>
<totfact> 0.99796001E+03</totfact>
</mgrwt>
</event>
<event>
 5    1  0.3486589E-002  0.1249972E+03  0.7818608E-02  0.1235074E+00
         -4   -1    0    0    0  501 -0.00000000000E+00  0.00000000000E+00  0.17168312413E+03  0.17168782139E+03  0.12700000000E+01 0.  1.
          4   -1    0    0  501    0  0.00000000000E+00 -0.00000000000E+00 -0.22728910810E+02  0.22764364401E+02  0.12700000000E+01 0.  1.
         25    2    1    2    0    0  0.00000000000E+00  0.00000000000E+00  0.14895421332E+03  0.19445218579E+03  0.12499717953E+03 0.  0.
    9000005    1    3    3    0    0 -0.32879695367E+01 -0.50298946024E+02  0.13193692043E+03  0.14124144465E+03  0.10000000000E+01 0.  0.
    9000005    1    3    3    0    0  0.32879695367E+01  0.50298946024E+02  0.17017292895E+02  0.53210741136E+02  0.10000000000E+01 0.  0.
<mgrwt>
<rscale>  0 0.12499718E+03</rscale>
<asrwt>0</asrwt>
<pdfrwt beam="2">  1        4 0.34998442E-02 0.12499718E+03</pdfrwt>
<pdfrwt beam="1">  1       -4 0.26415876E-01 0.12499718E+03</pdfrwt>
<totfact> 0.91084121E+03</totfact>
</mgrwt>
</event>
<event>
 5    1  0.3486589E-002  0.1249967E+03  0.7818608E-02  0.1235074E+00
         -4   -1    0    0    0  501 -0.00000000000E+00  0.00000000000E+00  0.21699233781E+03  0.21699605427E+03  0.12700000000E+01 0.  1.
          4   -1    0    0  501    0  0.00000000000E+00 -0.00000000000E+00 -0.17974571761E+02  0.18019382064E+02  0.12700000000E+01 0.  1.
         25    2    1    2    0    0  0.00000000000E+00  0.00000000000E+00  0.19901776605E+03  0.23501543633E+03  0.12499673640E+03 0.  0.
    9000005    1    3    3    0    0  0.23866136702E+02  0.24387331406E+02  0.19793931356E+03  0.20086141060E+03  0.10000000000E+01 0.  0.
    9000005    1    3    3    0    0 -0.23866136702E+02 -0.24387331406E+02  0.10784524882E+01  0.34154025735E+02  0.10000000000E+01 0.  0.
<mgrwt>
<rscale>  0 0.12499674E+03</rscale>
<asrwt>0</asrwt>
<pdfrwt beam="2">  1        4 0.27690514E-02 0.12499674E+03</pdfrwt>
<pdfrwt beam="1">  1       -4 0.33387171E-01 0.12499674E+03</pdfrwt>
<totfact> 0.84551527E+03</totfact>
</mgrwt>
</event>
<event>
 5    1  0.3486589E-002  0.1250026E+03  0.7818608E-02  0.1235065E+00
          4   -1    0    0  501    0  0.00000000000E+00  0.00000000000E+00  0.44925461200E+02  0.44943408461E+02  0.12700000000E+01 0.  1.
         -4   -1    0    0    0  501 -0.00000000000E+00 -0.00000000000E+00 -0.86913260106E+02  0.86922538402E+02  0.12700000000E+01 0.  1.
         25    2    1    2    0    0  0.00000000000E+00  0.00000000000E+00 -0.41987798906E+02  0.13186594686E+03  0.12500261071E+03 0.  0.
    9000005    1    3    3    0    0  0.42943613860E+02  0.30233149880E+02 -0.56724156706E+02  0.77309942938E+02  0.10000000000E+01 0.  0.
    9000005    1    3    3    0    0 -0.42943613860E+02 -0.30233149880E+02  0.14736357800E+02  0.54556003925E+02  0.10000000000E+01 0.  0.
<mgrwt>
<rscale>  0 0.12500261E+03</rscale>
<asrwt>0</asrwt>
<pdfrwt beam="1">  1        4 0.69137037E-02 0.12500261E+03</pdfrwt>
<pdfrwt beam="2">  1       -4 0.13373365E-01 0.12500261E+03</pdfrwt>
<totfact> 0.10303954E+04</totfact>
</mgrwt>
</event>
<event>
 5    1  0.3486589E-002  0.1249990E+03  0.7818608E-02  0.1235071E+00
          4   -1    0    0  501    0  0.00000000000E+00  0.00000000000E+00  0.71737971575E+02  0.71749212300E+02  0.12700000000E+01 0.  1.
         -4   -1    0    0    0  501 -0.00000000000E+00 -0.00000000000E+00 -0.54427855398E+02  0.54442670243E+02  0.12700000000E+01 0.  1.
         25    2    1    2    0    0  0.00000000000E+00  0.00000000000E+00  0.17310116177E+02  0.12619188254E+03  0.12499900439E+03 0.  0.
    9000005    1    3    3    0    0 -0.15483163061E+02 -0.45551555225E+02  0.48916913465E+02  0.68618779825E+02  0.10000000000E+01 0.  0.
    9000005    1    3    3    0    0  0.15483163061E+02  0.45551555225E+02 -0.31606797288E+02  0.57573102718E+02  0.10000000000E+01 0.  0.
<mgrwt>
<rscale>  0 0.12499900E+03</rscale>
<asrwt>0</asrwt>
<pdfrwt beam="1">  1        4 0.11038615E-01 0.12499900E+03</pdfrwt>
<pdfrwt beam="2">  1       -4 0.83755205E-02 0.12499900E+03</pdfrwt>
<totfact> 0.10426991E+04</totfact>
</mgrwt>
</event>
<event>
 5    1  0.3486589E-002  0.1249923E+03  0.7818608E-02  0.1235081E+00
          4   -1    0    0  501    0  0.00000000000E+00  0.00000000000E+00  0.42583510179E+03  0.42583699560E+03  0.12700000000E+01 0.  1.
         -4   -1    0    0    0  501 -0.00000000000E+00 -0.00000000000E+00 -0.91261320570E+01  0.92140754459E+01  0.12700000000E+01 0.  1.
         25    2    1    2    0    0  0.00000000000E+00  0.00000000000E+00  0.41670896974E+03  0.43505107104E+03  0.12499227559E+03 0.  0.
    9000005    1    3    3    0    0  0.36262910804E+02 -0.40237816911E+02  0.31679625326E+03  0.32139531218E+03  0.10000000000E+01 0.  0.
    9000005    1    3    3    0    0 -0.36262910804E+02  0.40237816911E+02  0.99912716473E+02  0.11365575886E+03  0.10000000000E+01 0.  0.
<mgrwt>
<rscale>  0 0.12499228E+03</rscale>
<asrwt>0</asrwt>
<pdfrwt beam="1">  1        4 0.65520010E-01 0.12499228E+03</pdfrwt>
<pdfrwt beam="2">  1       -4 0.14109307E-02 0.12499228E+03</pdfrwt>
<totfact> 0.61291226E+03</totfact>
</mgrwt>
</event>
<event>
 5    1  0.3486589E-002  0.1250023E+03  0.7818608E-02  0.1235066E+00
          4   -1    0    0  501    0  0.00000000000E+00  0.00000000000E+00  0.98980638292E+02  0.98988785510E+02  0.12700000000E+01 0.  1.
         -4   -1    0    0    0  501 -0.00000000000E+00 -0.00000000000E+00 -0.39446231924E+02  0.39466670914E+02  0.12700000000E+01 0.  1.
         25    2    1    2    0    0  0.00000000000E+00  0.00000000000E+00  0.59534406368E+02  0.13845545642E+03  0.12500227147E+03 0.  0.
    9000005    1    3    3    0    0  0.46035498579E+02 -0.38528083669E+02  0.49006455050E+02  0.77500406432E+02  0.10000000000E+01 0.  0.
    9000005    1    3    3    0    0 -0.46035498579E+02  0.38528083669E+02  0.10527951318E+02  0.60955049992E+02  0.10000000000E+01 0.  0.
<mgrwt>
<rscale>  0 0.12500227E+03</rscale>
<asrwt>0</asrwt>
<pdfrwt beam="1">  1        4 0.15229989E-01 0.12500227E+03</pdfrwt>
<pdfrwt beam="2">  1       -4 0.60708500E-02 0.12500227E+03</pdfrwt>
<totfact> 0.10165178E+04</totfact>
</mgrwt>
</event>
<event>
 5    1  0.3486589E-002  0.1250032E+03  0.7818608E-02  0.1235064E+00
         -4   -1    0    0    0  501 -0.00000000000E+00  0.00000000000E+00  0.21432819096E+03  0.21433195362E+03  0.12700000000E+01 0. -1.
          4   -1    0    0  501    0  0.00000000000E+00 -0.00000000000E+00 -0.18200427294E+02  0.18244682888E+02  0.12700000000E+01 0. -1.
         25    2    1    2    0    0  0.00000000000E+00  0.00000000000E+00  0.19612776367E+03  0.23257663650E+03  0.12500316862E+03 0.  0.
    9000005    1    3    3    0    0  0.61430223142E+02  0.31642377095E+01  0.11859456094E+03  0.13360147679E+03  0.10000000000E+01 0.  0.
    9000005    1    3    3    0    0 -0.61430223142E+02 -0.31642377095E+01  0.77533202730E+02  0.98975159718E+02  0.10000000000E+01 0.  0.
<mgrwt>
<rscale>  0 0.12500317E+03</rscale>
<asrwt>0</asrwt>
<pdfrwt beam="2">  1        4 0.28037591E-02 0.12500317E+03</pdfrwt>
<pdfrwt beam="1">  1       -4 0.32977265E-01 0.12500317E+03</pdfrwt>
<totfact> 0.84909510E+03</totfact>
</mgrwt>
</event>
<event>
 5    1  0.3486589E-002  0.1250040E+03  0.7818608E-02  0.1235063E+00
          4   -1    0    0  501    0  0.00000000000E+00  0.00000000000E+00  0.30268623245E+01  0.32824983673E+01  0.12700000000E+01 0.  1.
         -4   -1    0    0    0  501 -0.00000000000E+00 -0.00000000000E+00 -0.12380637669E+04  0.12380644182E+04  0.12700000000E+01 0.  1.
         25    2    1    2    0    0  0.00000000000E+00  0.00000000000E+00 -0.12350369045E+04  0.12413469166E+04  0.12500404716E+03 0.  0.
    9000005    1    3    3    0    0  0.56198568891E+02 -0.11827057428E+02 -0.37278876574E+03  0.37718778121E+03  0.10000000000E+01 0.  0.
    9000005    1    3    3    0    0 -0.56198568891E+02  0.11827057428E+02 -0.86224813879E+03  0.86415913539E+03  0.10000000000E+01 0.  0.
<mgrwt>
<rscale>  0 0.12500405E+03</rscale>
<asrwt>0</asrwt>
<pdfrwt beam="1">  1        4 0.48538653E-03 0.12500405E+03</pdfrwt>
<pdfrwt beam="2">  1       -4 0.19049068E+00 0.12500405E+03</pdfrwt>
<totfact> 0.23653388E+03</totfact>
</mgrwt>
</event>
<event>
 5    1  0.3486589E-002  0.1249996E+03  0.7818608E-02  0.1235070E+00
          4   -1    0    0  501    0  0.00000000000E+00  0.00000000000E+00  0.64611098317E+02  0.64623578714E+02  0.12700000000E+01 0. -1.
         -4   -1    0    0    0  501 -0.00000000000E+00 -0.00000000000E+00 -0.60432504344E+02  0.60445847511E+02  0.12700000000E+01 0. -1.
         25    2    1    2    0    0  0.00000000000E+00  0.00000000000E+00  0.41785939731E+01  0.12506942622E+03  0.12499960291E+03 0.  0.
    9000005    1    3    3    0    0 -0.17981029589E+02  0.24333935217E+02 -0.52620011039E+02  0.60706864439E+02  0.10000000000E+01 0.  0.
    9000005    1    3    3    0    0  0.17981029589E+02 -0.24333935217E+02  0.56798605012E+02  0.64362561785E+02  0.10000000000E+01 0.  0.
<mgrwt>
<rscale>  0 0.12499960E+03</rscale>
<asrwt>0</asrwt>
<pdfrwt beam="1">  1        4 0.99421554E-02 0.12499960E+03</pdfrwt>
<pdfrwt beam="2">  1       -4 0.92992948E-02 0.12499960E+03</pdfrwt>
<totfact> 0.10451449E+04</totfact>
</mgrwt>
</event>
<event>
 5    1  0.3486589E-002  0.1249956E+03  0.7818608E-02  0.1235076E+00
          4   -1    0    0  501    0  0.00000000000E+00  0.00000000000E+00  0.36206621316E+02  0.36228888019E+02  0.12700000000E+01 0.  1.
         -4   -1    0    0    0  501 -0.00000000000E+00 -0.00000000000E+00 -0.10782095378E+03  0.10782843305E+03  0.12700000000E+01 0.  1.
         25    2    1    2    0    0  0.00000000000E+00  0.00000000000E+00 -0.71614332469E+02  0.14405732107E+03  0.12499559648E+03 0.  0.
    9000005    1    3    3    0    0  0.57263802240E+02 -0.21108267758E+02 -0.20333055967E+02  0.64336111008E+02  0.10000000000E+01 0.  0.
    9000005    1    3    3    0    0 -0.57263802240E+02  0.21108267758E+02 -0.51281276502E+02  0.79721210066E+02  0.10000000000E+01 0.  0.
<mgrwt>
<rscale>  0 0.12499560E+03</rscale>
<asrwt>0</asrwt>
<pdfrwt beam="1">  1        4 0.55725376E-02 0.12499560E+03</pdfrwt>
<pdfrwt beam="2">  1       -4 0.16590127E-01 0.12499560E+03</pdfrwt>
<totfact> 0.10051173E+04</totfact>
</mgrwt>
</event>
<event>
 5    1  0.3486589E-002  0.1250209E+03  0.7818608E-02  0.1235037E+00
         -4   -1    0    0    0  501 -0.00000000000E+00  0.00000000000E+00  0.49328945614E+03  0.49329109098E+03  0.12700000000E+01 0.  1.
          4   -1    0    0  501    0  0.00000000000E+00 -0.00000000000E+00 -0.78688622169E+01  0.79706895930E+01  0.12700000000E+01 0.  1.
         25    2    1    2    0    0  0.00000000000E+00  0.00000000000E+00  0.48542059392E+03  0.50126178057E+03  0.12502087689E+03 0.  0.
    9000005    1    3    3    0    0  0.31807437882E+02  0.22490657157E+02  0.43868103629E+03  0.44040844038E+03  0.10000000000E+01 0.  0.
    9000005    1    3    3    0    0 -0.31807437882E+02 -0.22490657157E+02  0.46739557637E+02  0.60853340188E+02  0.10000000000E+01 0.  0.
<mgrwt>
<rscale>  0 0.12502088E+03</rscale>
<asrwt>0</asrwt>
<pdfrwt beam="2">  1        4 0.12185527E-02 0.12502088E+03</pdfrwt>
<pdfrwt beam="1">  1       -4 0.75898649E-01 0.12502088E+03</pdfrwt>
<totfact> 0.55741006E+03</totfact>
</mgrwt>
</event>
<event>
 5    1  0.3486589E-002  0.1250073E+03  0.7818608E-02  0.1235058E+00
         -4   -1    0    0    0  501 -0.00000000000E+00  0.00000000000E+00  0.46717077867E+02  0.46734337102E+02  0.12700000000E+01 0. -1.
          4   -1    0    0  501    0  0.00000000000E+00 -0.00000000000E+00 -0.83587296383E+02  0.83596943824E+02  0.12700000000E+01 0. -1.
         25    2    1    2    0    0  0.00000000000E+00  0.00000000000E+00 -0.36870218516E+02  0.13033128093E+03  0.12500731888E+03 0.  0.
    9000005    1    3    3    0    0 -0.37119287381E+02 -0.30264085685E+02 -0.60294138255E+02  0.77007398904E+02  0.10000000000E+01 0.  0.
    9000005    1    3    3    0    0  0.37119287381E+02  0.30264085685E+02  0.23423919738E+02  0.53323882022E+02  0.10000000000E+01 0.  0.
<mgrwt>
<rscale>  0 0.12500732E+03</rscale>
<asrwt>0</asrwt>
<pdfrwt beam="2">  1        4 0.12861654E-01 0.12500732E+03</pdfrwt>
<pdfrwt beam="1">  1       -4 0.71893125E-02 0.12500732E+03</pdfrwt>
<totfact> 0.10335718E+04</totfact>
</mgrwt>
</event>
<event>
 5    1  0.3486589E-002  0.1249885E+03  0.7818608E-02  0.1235087E+00
          4   -1    0    0  501    0  0.00000000000E+00  0.00000000000E+00  0.25657495114E+03  0.25657809426E+03  0.12700000000E+01 0. -1.
         -4   -1    0    0    0  501 -0.00000000000E+00 -0.00000000000E+00 -0.15192053413E+02  0.15245044667E+02  0.12700000000E+01 0. -1.
         25    2    1    2    0    0  0.00000000000E+00  0.00000000000E+00  0.24138289773E+03  0.27182313893E+03  0.12498846163E+03 0.  0.
    9000005    1    3    3    0    0 -0.22929473700E+02  0.70709596051E+01 -0.47838885320E+01  0.24487646342E+02  0.10000000000E+01 0.  0.
    9000005    1    3    3    0    0  0.22929473700E+02 -0.70709596051E+01  0.24616678626E+03  0.24733549259E+03  0.10000000000E+01 0.  0.
<mgrwt>
<rscale>  0 0.12498846E+03</rscale>
<asrwt>0</asrwt>
<pdfrwt beam="1">  1        4 0.39477386E-01 0.12498846E+03</pdfrwt>
<pdfrwt beam="2">  1       -4 0.23415571E-02 0.12498846E+03</pdfrwt>
<totfact> 0.79295289E+03</totfact>
</mgrwt>
</event>
<event>
 5    1  0.3486589E-002  0.1249959E+03  0.7818608E-02  0.1235076E+00
         -4   -1    0    0    0  501 -0.00000000000E+00  0.00000000000E+00  0.44220355390E+03  0.44220537761E+03  0.12700000000E+01 0.  1.
          4   -1    0    0  501    0  0.00000000000E+00 -0.00000000000E+00 -0.87855271920E+01  0.88768456133E+01  0.12700000000E+01 0.  1.
         25    2    1    2    0    0  0.00000000000E+00  0.00000000000E+00  0.43341802671E+03  0.45108222322E+03  0.12499594484E+03 0.  0.
    9000005    1    3    3    0    0 -0.39407273314E+02  0.32657185017E+02  0.87316863412E+02  0.10121590566E+03  0.10000000000E+01 0.  0.
    9000005    1    3    3    0    0  0.39407273314E+02 -0.32657185017E+02  0.34610116330E+03  0.34986631756E+03  0.10000000000E+01 0.  0.
<mgrwt>
<rscale>  0 0.12499594E+03</rscale>
<asrwt>0</asrwt>
<pdfrwt beam="2">  1        4 0.13587846E-02 0.12499594E+03</pdfrwt>
<pdfrwt beam="1">  1       -4 0.68038469E-01 0.12499594E+03</pdfrwt>
<totfact> 0.59875509E+03</totfact>
</mgrwt>
</event>
<event>
 5    1  0.3486589E-002  0.1249993E+03  0.7818608E-02  0.1235070E+00
          4   -1    0    0  501    0  0.00000000000E+00  0.00000000000E+00  0.45092071981E+02  0.45109952954E+02  0.12700000000E+01 0.  1.
         -4   -1    0    0    0  501 -0.00000000000E+00 -0.00000000000E+00 -0.86587582123E+02  0.86596895314E+02  0.12700000000E+01 0.  1.
         25    2    1    2    0    0  0.00000000000E+00  0.00000000000E+00 -0.41495510142E+02  0.13170684827E+03  0.12499926607E+03 0.  0.
    9000005    1    3    3    0    0 -0.11382665911E+02 -0.19460496033E+01  0.43963260005E+02  0.45465596032E+02  0.10000000000E+01 0.  0.
    9000005    1    3    3    0    0  0.11382665911E+02  0.19460496033E+01 -0.85458770147E+02  0.86241252236E+02  0.10000000000E+01 0.  0.
<mgrwt>
<rscale>  0 0.12499927E+03</rscale>
<asrwt>0</asrwt>
<pdfrwt beam="1">  1        4 0.69393337E-02 0.12499927E+03</pdfrwt>
<pdfrwt beam="2">  1       -4 0.13323258E-01 0.12499927E+03</pdfrwt>
<totfact> 0.10308130E+04</totfact>
</mgrwt>
</event>
<event>
 5    1  0.3486589E-002  0.1250000E+03  0.7818608E-02  0.1235069E+00
          4   -1    0    0  501    0  0.00000000000E+00  0.00000000000E+00  0.35640533563E+03  0.35640759836E+03  0.12700000000E+01 0.  1.
         -4   -1    0    0    0  501 -0.00000000000E+00 -0.00000000000E+00 -0.10921030886E+02  0.10994626670E+02  0.12700000000E+01 0.  1.
         25    2    1    2    0    0  0.00000000000E+00  0.00000000000E+00  0.34548430474E+03  0.36740222503E+03  0.12499996052E+03 0.  0.
    9000005    1    3    3    0    0 -0.24344326914E+02 -0.56722118069E+02  0.20142064457E+03  0.21066874706E+03  0.10000000000E+01 0.  0.
    9000005    1    3    3    0    0  0.24344326914E+02  0.56722118069E+02  0.14406366018E+03  0.15673347797E+03  0.10000000000E+01 0.  0.
<mgrwt>
<rscale>  0 0.12499996E+03</rscale>
<asrwt>0</asrwt>
<pdfrwt beam="1">  1        4 0.54837435E-01 0.12499996E+03</pdfrwt>
<pdfrwt beam="2">  1       -4 0.16859936E-02 0.12499996E+03</pdfrwt>
<totfact> 0.67851642E+03</totfact>
</mgrwt>
</event>
<event>
 5    1  0.3486589E-002  0.1250007E+03  0.7818608E-02  0.1235068E+00
          4   -1    0    0  501    0  0.00000000000E+00  0.00000000000E+00  0.13390205786E+03  0.13390808041E+03  0.12700000000E+01 0. -1.
         -4   -1    0    0    0  501 -0.00000000000E+00 -0.00000000000E+00 -0.29152281353E+02  0.29179931599E+02  0.12700000000E+01 0. -1.
         25    2    1    2    0    0  0.00000000000E+00  0.00000000000E+00  0.10474977650E+03  0.16308801200E+03  0.12500073593E+03 0.  0.
    9000005    1    3    3    0    0 -0.46307152976E+02 -0.23996327982E+02  0.74599713994E+01  0.52695610317E+02  0.10000000000E+01 0.  0.
    9000005    1    3    3    0    0  0.46307152976E+02  0.23996327982E+02  0.97289805103E+02  0.11039240169E+03  0.10000000000E+01 0.  0.
<mgrwt>
<rscale>  0 0.12500074E+03</rscale>
<asrwt>0</asrwt>
<pdfrwt beam="1">  1        4 0.20602907E-01 0.12500074E+03</pdfrwt>
<pdfrwt beam="2">  1       -4 0.44875565E-02 0.12500074E+03</pdfrwt>
<totfact> 0.96749122E+03</totfact>
</mgrwt>
</event>
<event>
 5    1  0.3486589E-002  0.1250068E+03  0.7818608E-02  0.1235059E+00
          4   -1    0    0  501    0  0.00000000000E+00  0.00000000000E+00  0.11210191830E+03  0.11210911197E+03  0.12700000000E+01 0.  1.
         -4   -1    0    0    0  501 -0.00000000000E+00 -0.00000000000E+00 -0.34829452583E+02  0.34852599146E+02  0.12700000000E+01 0.  1.
         25    2    1    2    0    0  0.00000000000E+00  0.00000000000E+00  0.77272465715E+02  0.14696171111E+03  0.12500684212E+03 0.  0.
    9000005    1    3    3    0    0 -0.20067366654E+02 -0.60383692243E+01  0.10785391525E+03  0.10987551202E+03  0.10000000000E+01 0.  0.
    9000005    1    3    3    0    0  0.20067366654E+02  0.60383692243E+01 -0.30581449536E+02  0.37086199091E+02  0.10000000000E+01 0.  0.
<mgrwt>
<rscale>  0 0.12500684E+03</rscale>
<asrwt>0</asrwt>
<pdfrwt beam="1">  1        4 0.17248783E-01 0.12500684E+03</pdfrwt>
<pdfrwt beam="2">  1       -4 0.53607112E-02 0.12500684E+03</pdfrwt>
<totfact> 0.99897431E+03</totfact>
</mgrwt>
</event>
<event>
 5    1  0.3486589E-002  0.1250015E+03  0.7818608E-02  0.1235067E+00
          4   -1    0    0  501    0  0.00000000000E+00  0.00000000000E+00  0.28920010742E+01  0.31585709131E+01  0.12700000000E+01 0.  1.
         -4   -1    0    0    0  501 -0.00000000000E+00 -0.00000000000E+00 -0.12909641542E+04  0.12909647789E+04  0.12700000000E+01 0.  1.
         25    2    1    2    0    0  0.00000000000E+00  0.00000000000E+00 -0.12880721531E+04  0.12941233498E+04  0.12500149136E+03 0.  0.
    9000005    1    3    3    0    0  0.82473835606E+01 -0.67251152775E+01 -0.65067306296E+01  0.12513355049E+02  0.10000000000E+01 0.  0.
    9000005    1    3    3    0    0 -0.82473835606E+01  0.67251152775E+01 -0.12815654225E+04  0.12816099948E+04  0.10000000000E+01 0.  0.
<mgrwt>
<rscale>  0 0.12500149E+03</rscale>
<asrwt>0</asrwt>
<pdfrwt beam="1">  1        4 0.46547770E-03 0.12500149E+03</pdfrwt>
<pdfrwt beam="2">  1       -4 0.19862998E+00 0.12500149E+03</pdfrwt>
<totfact> 0.22366979E+03</totfact>
</mgrwt>
</event>
<event>
 5    1  0.3486589E-002  0.1250024E+03  0.7818608E-02  0.1235065E+00
         -4   -1    0    0    0  501 -0.00000000000E+00  0.00000000000E+00  0.25965305279E+01  0.28904793344E+01  0.12700000000E+01 0. -1.
          4   -1    0    0  501    0  0.00000000000E+00 -0.00000000000E+00 -0.14235784734E+04  0.14235790399E+04  0.12700000000E+01 0. -1.
         25    2    1    2    0    0  0.00000000000E+00  0.00000000000E+00 -0.14209819429E+04  0.14264695193E+04  0.12500242926E+03 0.  0.
    9000005    1    3    3    0    0  0.22477715650E+02 -0.53867169619E+02 -0.96527303813E+03  0.96703668896E+03  0.10000000000E+01 0.  0.
    9000005    1    3    3    0    0 -0.22477715650E+02  0.53867169619E+02 -0.45570890478E+03  0.45943283031E+03  0.10000000000E+01 0.  0.
<mgrwt>
<rscale>  0 0.12500243E+03</rscale>
<asrwt>0</asrwt>
<pdfrwt beam="2">  1        4 0.21903414E+00 0.12500243E+03</pdfrwt>
<pdfrwt beam="1">  1       -4 0.42212239E-03 0.12500243E+03</pdfrwt>
<totfact> 0.19418983E+03</totfact>
</mgrwt>
</event>
<event>
 5    1  0.3486589E-002  0.1250069E+03  0.7818608E-02  0.1235058E+00
         -4   -1    0    0    0  501 -0.00000000000E+00  0.00000000000E+00  0.18125571573E+02  0.18170009490E+02  0.12700000000E+01 0. -1.
          4   -1    0    0  501    0  0.00000000000E+00 -0.00000000000E+00 -0.21522412658E+03  0.21522787357E+03  0.12700000000E+01 0. -1.
         25    2    1    2    0    0  0.00000000000E+00  0.00000000000E+00 -0.19709855500E+03  0.23339788306E+03  0.12500692553E+03 0.  0.
    9000005    1    3    3    0    0  0.18661305338E+02  0.26199215131E+02 -0.19859129353E+03  0.20118187060E+03  0.10000000000E+01 0.  0.
    9000005    1    3    3    0    0 -0.18661305338E+02 -0.26199215131E+02  0.14927385310E+01  0.32216012458E+02  0.10000000000E+01 0.  0.
<mgrwt>
<rscale>  0 0.12500693E+03</rscale>
<asrwt>0</asrwt>
<pdfrwt beam="2">  1        4 0.33115109E-01 0.12500693E+03</pdfrwt>
<pdfrwt beam="1">  1       -4 0.27922562E-02 0.12500693E+03</pdfrwt>
<totfact> 0.84777469E+03</totfact>
</mgrwt>
</event>
<event>
 5    1  0.3486589E-002  0.1249995E+03  0.7818608E-02  0.1235070E+00
         -4   -1    0    0    0  501 -0.00000000000E+00  0.00000000000E+00  0.23646919676E+03  0.23647260712E+03  0.12700000000E+01 0.  1.
          4   -1    0    0  501    0  0.00000000000E+00 -0.00000000000E+00 -0.16490995511E+02  0.16539825662E+02  0.12700000000E+01 0.  1.
         25    2    1    2    0    0  0.00000000000E+00  0.00000000000E+00  0.21997820125E+03  0.25301243278E+03  0.12499952846E+03 0.  0.
    9000005    1    3    3    0    0  0.38675270814E+01  0.52765698634E+02  0.42672891221E+02  0.67979058269E+02  0.10000000000E+01 0.  0.
    9000005    1    3    3    0    0 -0.38675270814E+01 -0.52765698634E+02  0.17730531003E+03  0.18503337451E+03  0.10000000000E+01 0.  0.
<mgrwt>
<rscale>  0 0.12499953E+03</rscale>
<asrwt>0</asrwt>
<pdfrwt beam="2">  1        4 0.25410947E-02 0.12499953E+03</pdfrwt>
<pdfrwt beam="1">  1       -4 0.36383895E-01 0.12499953E+03</pdfrwt>
<totfact> 0.81897637E+03</totfact>
</mgrwt>
</event>
<event>
 5    1  0.3486589E-002  0.1249986E+03  0.7818608E-02  0.1235072E+00
          4   -1    0    0  501    0  0.00000000000E+00  0.00000000000E+00  0.88229975688E+02  0.88239115532E+02  0.12700000000E+01 0. -1.
         -4   -1    0    0    0  501 -0.00000000000E+00 -0.00000000000E+00 -0.44251933441E+02  0.44270153752E+02  0.12700000000E+01 0. -1.
         25    2    1    2    0    0  0.00000000000E+00  0.00000000000E+00  0.43978042247E+02  0.13250926928E+03  0.12499855298E+03 0.  0.
    9000005    1    3    3    0    0  0.47903299034E+02 -0.13330728849E+02 -0.18136687867E+02  0.52937452118E+02  0.10000000000E+01 0.  0.
    9000005    1    3    3    0    0 -0.47903299034E+02  0.13330728849E+02  0.62114730115E+02  0.79571817166E+02  0.10000000000E+01 0.  0.
<mgrwt>
<rscale>  0 0.12499855E+03</rscale>
<asrwt>0</asrwt>
<pdfrwt beam="1">  1        4 0.13575947E-01 0.12499855E+03</pdfrwt>
<pdfrwt beam="2">  1       -4 0.68100945E-02 0.12499855E+03</pdfrwt>
<totfact> 0.10291176E+04</totfact>
</mgrwt>
</event>
<event>
 5    1  0.3486589E-002  0.1250003E+03  0.7818608E-02  0.1235069E+00
         -4   -1    0    0    0  501 -0.00000000000E+00  0.00000000000E+00  0.49942268007E+02  0.49958413042E+02  0.12700000000E+01 0.  1.
          4   -1    0    0  501    0  0.00000000000E+00 -0.00000000000E+00 -0.78181741340E+02  0.78192055728E+02  0.12700000000E+01 0.  1.
         25    2    1    2    0    0  0.00000000000E+00  0.00000000000E+00 -0.28239473333E+02  0.12815046877E+03  0.12500029917E+03 0.  0.
    9000005    1    3    3    0    0  0.11180614498E+02  0.56814474975E+02 -0.38214758808E+02  0.69384857843E+02  0.10000000000E+01 0.  0.
    9000005    1    3    3    0    0 -0.11180614498E+02 -0.56814474975E+02  0.99752854749E+01  0.58765610926E+02  0.10000000000E+01 0.  0.
<mgrwt>
<rscale>  0 0.12500030E+03</rscale>
<asrwt>0</asrwt>
<pdfrwt beam="2">  1        4 0.12029996E-01 0.12500030E+03</pdfrwt>
<pdfrwt beam="1">  1       -4 0.76854612E-02 0.12500030E+03</pdfrwt>
<totfact> 0.10384169E+04</totfact>
</mgrwt>
</event>
<event>
 5    1  0.3486589E-002  0.1249968E+03  0.7818608E-02  0.1235074E+00
         -4   -1    0    0    0  501 -0.00000000000E+00  0.00000000000E+00  0.37639387510E+03  0.37639601767E+03  0.12700000000E+01 0.  1.
          4   -1    0    0  501    0  0.00000000000E+00 -0.00000000000E+00 -0.10336530024E+02  0.10414257195E+02  0.12700000000E+01 0.  1.
         25    2    1    2    0    0  0.00000000000E+00  0.00000000000E+00  0.36605734508E+03  0.38681027486E+03  0.12499683537E+03 0.  0.
    9000005    1    3    3    0    0 -0.25657124608E+02  0.36987382278E+02  0.48898205025E+02  0.66470963176E+02  0.10000000000E+01 0.  0.
    9000005    1    3    3    0    0  0.25657124608E+02 -0.36987382278E+02  0.31715914005E+03  0.32033931169E+03  0.10000000000E+01 0.  0.
<mgrwt>
<rscale>  0 0.12499684E+03</rscale>
<asrwt>0</asrwt>
<pdfrwt beam="2">  1        4 0.15963794E-02 0.12499684E+03</pdfrwt>
<pdfrwt beam="1">  1       -4 0.57912887E-01 0.12499684E+03</pdfrwt>
<totfact> 0.65860751E+03</totfact>
</mgrwt>
</event>
<event>
 5    1  0.3486589E-002  0.1250188E+03  0.7818608E-02  0.1235040E+00
         -4   -1    0    0    0  501 -0.00000000000E+00  0.00000000000E+00  0.21450715387E+03  0.21451091339E+03  0.12700000000E+01 0. -1.
          4   -1    0    0  501    0  0.00000000000E+00 -0.00000000000E+00 -0.18189772272E+02  0.18234053727E+02  0.12700000000E+01 0. -1.
         25    2    1    2    0    0  0.00000000000E+00  0.00000000000E+00  0.19631738160E+03  0.23274496711E+03  0.12501882018E+03 0.  0.
    9000005    1    3    3    0    0 -0.40102296134E+02  0.45350279046E+02  0.69222635062E+02  0.91965293289E+02  0.10000000000E+01 0.  0.
    9000005    1    3    3    0    0  0.40102296134E+02 -0.45350279046E+02  0.12709474654E+03  0.14077967382E+03  0.10000000000E+01 0.  0.
<mgrwt>
<rscale>  0 0.12501882E+03</rscale>
<asrwt>0</asrwt>
<pdfrwt beam="2">  1        4 0.28021221E-02 0.12501882E+03</pdfrwt>
<pdfrwt beam="1">  1       -4 0.33004795E-01 0.12501882E+03</pdfrwt>
<totfact> 0.84854251E+03</totfact>
</mgrwt>
</event>
<event>
 5    1  0.3486589E-002  0.1249991E+03  0.7818608E-02  0.1235071E+00
          4   -1    0    0  501    0  0.00000000000E+00  0.00000000000E+00  0.20924177419E+02  0.20962683527E+02  0.12700000000E+01 0. -1.
         -4   -1    0    0    0  501 -0.00000000000E+00 -0.00000000000E+00 -0.18647100963E+03  0.18647533438E+03  0.12700000000E+01 0. -1.
         25    2    1    2    0    0  0.00000000000E+00  0.00000000000E+00 -0.16554683221E+03  0.20743801790E+03  0.12499911047E+03 0.  0.
    9000005    1    3    3    0    0  0.29505039764E+02  0.51809180075E+02 -0.51706502103E+02  0.78925920148E+02  0.10000000000E+01 0.  0.
    9000005    1    3    3    0    0 -0.29505039764E+02 -0.51809180075E+02 -0.11384033010E+03  0.12851209776E+03  0.10000000000E+01 0.  0.
<mgrwt>
<rscale>  0 0.12499911E+03</rscale>
<asrwt>0</asrwt>
<pdfrwt beam="1">  1        4 0.32223990E-02 0.12499911E+03</pdfrwt>
<pdfrwt beam="2">  1       -4 0.28691141E-01 0.12499911E+03</pdfrwt>
<totfact> 0.88897771E+03</totfact>
</mgrwt>
</event>
<event>
 5    1  0.3486589E-002  0.1249949E+03  0.7818608E-02  0.1235077E+00
          4   -1    0    0  501    0  0.00000000000E+00  0.00000000000E+00  0.58509684238E+01  0.59872140012E+01  0.12700000000E+01 0. -1.
         -4   -1    0    0    0  501 -0.00000000000E+00 -0.00000000000E+00 -0.65975055269E+03  0.65975177505E+03  0.12700000000E+01 0. -1.
         25    2    1    2    0    0  0.00000000000E+00  0.00000000000E+00 -0.65389958427E+03  0.66573898905E+03  0.12499494083E+03 0.  0.
    9000005    1    3    3    0    0  0.20065177963E+02 -0.56420871015E+02 -0.42207862699E+03  0.42630657210E+03  0.10000000000E+01 0.  0.
    9000005    1    3    3    0    0 -0.20065177963E+02  0.56420871015E+02 -0.23182095727E+03  0.23943241695E+03  0.10000000000E+01 0.  0.
<mgrwt>
<rscale>  0 0.12499494E+03</rscale>
<asrwt>0</asrwt>
<pdfrwt beam="1">  1        4 0.91072397E-03 0.12499494E+03</pdfrwt>
<pdfrwt beam="2">  1       -4 0.10151060E+00 0.12499494E+03</pdfrwt>
<totfact> 0.44962982E+03</totfact>
</mgrwt>
</event>
<event>
 5    1  0.3486589E-002  0.1249978E+03  0.7818608E-02  0.1235073E+00
         -4   -1    0    0    0  501 -0.00000000000E+00  0.00000000000E+00  0.11549895251E+03  0.11550593462E+03  0.12700000000E+01 0.  1.
          4   -1    0    0  501    0  0.00000000000E+00 -0.00000000000E+00 -0.33799534850E+02  0.33823386230E+02  0.12700000000E+01 0.  1.
         25    2    1    2    0    0  0.00000000000E+00  0.00000000000E+00  0.81699417662E+02  0.14932932085E+03  0.12499780485E+03 0.  0.
    9000005    1    3    3    0    0 -0.36976344566E+02  0.43425636014E+02  0.10343228359E+02  0.57974289936E+02  0.10000000000E+01 0.  0.
    9000005    1    3    3    0    0  0.36976344566E+02 -0.43425636014E+02  0.71356189303E+02  0.91355030910E+02  0.10000000000E+01 0.  0.
<mgrwt>
<rscale>  0 0.12499780E+03</rscale>
<asrwt>0</asrwt>
<pdfrwt beam="2">  1        4 0.52023002E-02 0.12499780E+03</pdfrwt>
<pdfrwt beam="1">  1       -4 0.17771442E-01 0.12499780E+03</pdfrwt>
<totfact> 0.99442469E+03</totfact>
</mgrwt>
</event>
<event>
 5    1  0.3486589E-002  0.1249971E+03  0.7818608E-02  0.1235074E+00
         -4   -1    0    0    0  501 -0.00000000000E+00  0.00000000000E+00  0.29547864369E+03  0.29548137298E+03  0.12700000000E+01 0. -1.
          4   -1    0    0  501    0  0.00000000000E+00 -0.00000000000E+00 -0.13186155092E+02  0.13247172759E+02  0.12700000000E+01 0. -1.
         25    2    1    2    0    0  0.00000000000E+00  0.00000000000E+00  0.28229248860E+03  0.30872854574E+03  0.12499706330E+03 0.  0.
    9000005    1    3    3    0    0 -0.11634083142E+02 -0.18135832433E+02 -0.37333030135E+01  0.21890588388E+02  0.10000000000E+01 0.  0.
    9000005    1    3    3    0    0  0.11634083142E+02  0.18135832433E+02  0.28602579161E+03  0.28683795735E+03  0.10000000000E+01 0.  0.
<mgrwt>
<rscale>  0 0.12499706E+03</rscale>
<asrwt>0</asrwt>
<pdfrwt beam="2">  1        4 0.20335431E-02 0.12499706E+03</pdfrwt>
<pdfrwt beam="1">  1       -4 0.45463151E-01 0.12499706E+03</pdfrwt>
<totfact> 0.74521688E+03</totfact>
</mgrwt>
</event>
<event>
 5    1  0.3486589E-002  0.1250016E+03  0.7818608E-02  0.1235067E+00
          4   -1    0    0  501    0  0.00000000000E+00  0.00000000000E+00  0.25301123502E+03  0.25301442241E+03  0.12700000000E+01 0.  1.
         -4   -1    0    0    0  501 -0.00000000000E+00 -0.00000000000E+00 -0.15410028973E+02  0.15462273214E+02  0.12700000000E+01 0.  1.
         25    2    1    2    0    0  0.00000000000E+00  0.00000000000E+00  0.23760120605E+03  0.26847669562E+03  0.12500161190E+03 0.  0.
    9000005    1    3    3    0    0  0.75933418689E+01  0.24261798854E+02 -0.38125216397E+01  0.25726038280E+02  0.10000000000E+01 0.  0.
    9000005    1    3    3    0    0 -0.75933418689E+01 -0.24261798854E+02  0.24141372769E+03  0.24275065734E+03  0.10000000000E+01 0.  0.
<mgrwt>
<rscale>  0 0.12500161E+03</rscale>
<asrwt>0</asrwt>
<pdfrwt beam="1">  1        4 0.38929069E-01 0.12500161E+03</pdfrwt>
<pdfrwt beam="2">  1       -4 0.23750377E-02 0.12500161E+03</pdfrwt>
<totfact> 0.79728141E+03</totfact>
</mgrwt>
</event>
<event>
 5    1  0.3486589E-002  0.1250018E+03  0.7818608E-02  0.1235066E+00
         -4   -1    0    0    0  501 -0.00000000000E+00  0.00000000000E+00  0.39966635627E+02  0.39986808616E+02  0.12700000000E+01 0. -1.
          4   -1    0    0  501    0  0.00000000000E+00 -0.00000000000E+00 -0.97691622471E+02  0.97699877180E+02  0.12700000000E+01 0. -1.
         25    2    1    2    0    0  0.00000000000E+00  0.00000000000E+00 -0.57724986845E+02  0.13768668580E+03  0.12500179734E+03 0.  0.
    9000005    1    3    3    0    0  0.59896539919E+02 -0.85231027390E+01 -0.46107692676E+02  0.76073373124E+02  0.10000000000E+01 0.  0.
    9000005    1    3    3    0    0 -0.59896539919E+02  0.85231027390E+01 -0.11617294169E+02  0.61613312672E+02  0.10000000000E+01 0.  0.
<mgrwt>
<rscale>  0 0.12500180E+03</rscale>
<asrwt>0</asrwt>
<pdfrwt beam="2">  1        4 0.15031667E-01 0.12500180E+03</pdfrwt>
<pdfrwt beam="1">  1       -4 0.61508999E-02 0.12500180E+03</pdfrwt>
<totfact> 0.10181335E+04</totfact>
</mgrwt>
</event>
<event>
 5    1  0.3486589E-002  0.1249990E+03  0.7818608E-02  0.1235071E+00
          4   -1    0    0  501    0  0.00000000000E+00  0.00000000000E+00  0.11658515920E+02  0.11727484532E+02  0.12700000000E+01 0. -1.
         -4   -1    0    0    0  501 -0.00000000000E+00 -0.00000000000E+00 -0.33399168839E+03  0.33399410296E+03  0.12700000000E+01 0. -1.
         25    2    1    2    0    0  0.00000000000E+00  0.00000000000E+00 -0.32233317247E+03  0.34572158749E+03  0.12499896794E+03 0.  0.
    9000005    1    3    3    0    0 -0.15836142090E+02 -0.60372190782E+02 -0.15259677860E+03  0.16487074227E+03  0.10000000000E+01 0.  0.
    9000005    1    3    3    0    0  0.15836142090E+02  0.60372190782E+02 -0.16973639387E+03  0.18085084523E+03  0.10000000000E+01 0.  0.
<mgrwt>
<rscale>  0 0.12499897E+03</rscale>
<asrwt>0</asrwt>
<pdfrwt beam="1">  1        4 0.17991091E-02 0.12499897E+03</pdfrwt>
<pdfrwt beam="2">  1       -4 0.51388820E-01 0.12499897E+03</pdfrwt>
<totfact> 0.70199419E+03</totfact>
</mgrwt>
</event>
<event>
 5    1  0.3486589E-002  0.1249957E+03  0.7818608E-02  0.1235076E+00
          4   -1    0    0  501    0  0.00000000000E+00  0.00000000000E+00  0.37067332752E+01  0.39182612947E+01  0.12700000000E+01 0. -1.
         -4   -1    0    0    0  501 -0.00000000000E+00 -0.00000000000E+00 -0.10243089521E+04  0.10243097394E+04  0.12700000000E+01 0. -1.
         25    2    1    2    0    0  0.00000000000E+00  0.00000000000E+00 -0.10206022189E+04  0.10282280007E+04  0.12499572939E+03 0.  0.
    9000005    1    3    3    0    0  0.27130014905E+02 -0.44807612896E+02 -0.22998238710E+03  0.23587424247E+03  0.10000000000E+01 0.  0.
    9000005    1    3    3    0    0 -0.27130014905E+02  0.44807612896E+02 -0.79061983175E+03  0.79235375827E+03  0.10000000000E+01 0.  0.
<mgrwt>
<rscale>  0 0.12499573E+03</rscale>
<asrwt>0</asrwt>
<pdfrwt beam="1">  1        4 0.58659942E-03 0.12499573E+03</pdfrwt>
<pdfrwt beam="2">  1       -4 0.15760211E+00 0.12499573E+03</pdfrwt>
<totfact> 0.29687237E+03</totfact>
</mgrwt>
</event>
<event>
 5    1  0.3486589E-002  0.1250001E+03  0.7818608E-02  0.1235069E+00
         -4   -1    0    0    0  501 -0.00000000000E+00  0.00000000000E+00  0.32493771086E+03  0.32494019272E+03  0.12700000000E+01 0.  1.
          4   -1    0    0  501    0  0.00000000000E+00 -0.00000000000E+00 -0.11985470406E+02  0.12052568227E+02  0.12700000000E+01 0.  1.
         25    2    1    2    0    0  0.00000000000E+00  0.00000000000E+00  0.31295224046E+03  0.33699276094E+03  0.12500006448E+03 0.  0.
    9000005    1    3    3    0    0 -0.62458265833E+02  0.19191070698E+01  0.15450220715E+03  0.16666328317E+03  0.10000000000E+01 0.  0.
    9000005    1    3    3    0    0  0.62458265833E+02 -0.19191070698E+01  0.15845003331E+03  0.17032947777E+03  0.10000000000E+01 0.  0.
<mgrwt>
<rscale>  0 0.12500006E+03</rscale>
<asrwt>0</asrwt>
<pdfrwt beam="2">  1        4 0.18492709E-02 0.12500006E+03</pdfrwt>
<pdfrwt beam="1">  1       -4 0.49995768E-01 0.12500006E+03</pdfrwt>
<totfact> 0.71179518E+03</totfact>
</mgrwt>
</event>
<event>
 5    1  0.3486589E-002  0.1250011E+03  0.7818608E-02  0.1235068E+00
         -4   -1    0    0    0  501 -0.00000000000E+00  0.00000000000E+00  0.49704407176E+01  0.51301248452E+01  0.12700000000E+01 0. -1.
          4   -1    0    0  501    0  0.00000000000E+00 -0.00000000000E+00 -0.77332493204E+03  0.77332597487E+03  0.12700000000E+01 0. -1.
         25    2    1    2    0    0  0.00000000000E+00  0.00000000000E+00 -0.76835449132E+03  0.77845609972E+03  0.12500109941E+03 0.  0.
    9000005    1    3    3    0    0 -0.53851012647E+02 -0.27649027116E+02 -0.48083914479E+03  0.48463561923E+03  0.10000000000E+01 0.  0.
    9000005    1    3    3    0    0  0.53851012647E+02  0.27649027116E+02 -0.28751534653E+03  0.29382048049E+03  0.10000000000E+01 0.  0.
<mgrwt>
<rscale>  0 0.12500110E+03</rscale>
<asrwt>0</asrwt>
<pdfrwt beam="2">  1        4 0.11898534E+00 0.12500110E+03</pdfrwt>
<pdfrwt beam="1">  1       -4 0.77704741E-03 0.12500110E+03</pdfrwt>
<totfact> 0.39243861E+03</totfact>
</mgrwt>
</event>
<event>
 5    1  0.3486589E-002  0.1250015E+03  0.7818608E-02  0.1235067E+00
         -4   -1    0    0    0  501 -0.00000000000E+00  0.00000000000E+00  0.55885093137E+02  0.55899521778E+02  0.12700000000E+01 0. -1.
          4   -1    0    0  501    0  0.00000000000E+00 -0.00000000000E+00 -0.69870361798E+02  0.69881902935E+02  0.12700000000E+01 0. -1.
         25    2    1    2    0    0  0.00000000000E+00  0.00000000000E+00 -0.13985268661E+02  0.12578142471E+03  0.12500151624E+03 0.  0.
    9000005    1    3    3    0    0  0.48565851189E+02 -0.36111087866E+02  0.86831447914E+01  0.61147768333E+02  0.10000000000E+01 0.  0.
    9000005    1    3    3    0    0 -0.48565851189E+02  0.36111087866E+02 -0.22668413452E+02  0.64633656380E+02  0.10000000000E+01 0.  0.
<mgrwt>
<rscale>  0 0.12500152E+03</rscale>
<asrwt>0</asrwt>
<pdfrwt beam="2">  1        4 0.10751284E-01 0.12500152E+03</pdfrwt>
<pdfrwt beam="1">  1       -4 0.85997043E-02 0.12500152E+03</pdfrwt>
<totfact> 0.10435397E+04</totfact>
</mgrwt>
</event>
<event>
 5    1  0.3486589E-002  0.1250012E+03  0.7818608E-02  0.1235067E+00
          4   -1    0    0  501    0  0.00000000000E+00  0.00000000000E+00  0.64679590774E+03  0.64679715457E+03  0.12700000000E+01 0. -1.
         -4   -1    0    0    0  501 -0.00000000000E+00 -0.00000000000E+00 -0.59714716897E+01  0.61050285946E+01  0.12700000000E+01 0. -1.
         25    2    1    2    0    0  0.00000000000E+00  0.00000000000E+00  0.64082443605E+03  0.65290218317E+03  0.12500121180E+03 0.  0.
    9000005    1    3    3    0    0  0.58106840856E+02 -0.21366241434E+02  0.36485658333E+03  0.37007330034E+03  0.10000000000E+01 0.  0.
    9000005    1    3    3    0    0 -0.58106840856E+02  0.21366241434E+02  0.27596785271E+03  0.28282888282E+03  0.10000000000E+01 0.  0.
<mgrwt>
<rscale>  0 0.12500121E+03</rscale>
<asrwt>0</asrwt>
<pdfrwt beam="1">  1        4 0.99517478E-01 0.12500121E+03</pdfrwt>
<pdfrwt beam="2">  1       -4 0.92905705E-03 0.12500121E+03</pdfrwt>
<totfact> 0.45688491E+03</totfact>
</mgrwt>
</event>
<event>
 5    1  0.3486589E-002  0.1250008E+03  0.7818608E-02  0.1235068E+00
          4   -1    0    0  501    0  0.00000000000E+00  0.00000000000E+00  0.60700543643E+03  0.60700676500E+03  0.12700000000E+01 0. -1.
         -4   -1    0    0    0  501 -0.00000000000E+00 -0.00000000000E+00 -0.63713607757E+01  0.64967020968E+01  0.12700000000E+01 0. -1.
         25    2    1    2    0    0  0.00000000000E+00  0.00000000000E+00  0.60063407565E+03  0.61350346709E+03  0.12500084521E+03 0.  0.
    9000005    1    3    3    0    0  0.48076470002E+02 -0.24916178015E+02  0.14721121123E+03  0.15685759021E+03  0.10000000000E+01 0.  0.
    9000005    1    3    3    0    0 -0.48076470002E+02  0.24916178015E+02  0.45342286442E+03  0.45664587688E+03  0.10000000000E+01 0.  0.
<mgrwt>
<rscale>  0 0.12500085E+03</rscale>
<asrwt>0</asrwt>
<pdfrwt beam="1">  1        4 0.93395214E-01 0.12500085E+03</pdfrwt>
<pdfrwt beam="2">  1       -4 0.98995300E-03 0.12500085E+03</pdfrwt>
<totfact> 0.48025280E+03</totfact>
</mgrwt>
</event>
<event>
 4    1  0.3486589E-002  0.1249124E+03  0.7818608E-02  0.1235206E+00
          4   -1    0    0  501    0  0.00000000000E+00  0.00000000000E+00  0.25883815287E+02  0.25914953093E+02  0.12700000000E+01 0.  1.
         -4   -1    0    0    0  501 -0.00000000000E+00 -0.00000000000E+00 -0.15057900041E+03  0.15058435597E+03  0.12700000000E+01 0.  1.
    9000005    1    1    2    0    0 -0.87562200595E+01  0.61652186717E+02 -0.55702702903E+02  0.83555099350E+02  0.10000000000E+01 0.  0.
    9000005    1    1    2    0    0  0.87562200595E+01 -0.61652186717E+02 -0.68992482216E+02  0.92944209712E+02  0.10000000000E+01 0.  0.
<mgrwt>
<rscale>  0 0.12491244E+03</rscale>
<asrwt>0</asrwt>
<pdfrwt beam="1">  1        4 0.39849327E-02 0.12491244E+03</pdfrwt>
<pdfrwt beam="2">  1       -4 0.23168807E-01 0.12491244E+03</pdfrwt>
<totfact> 0.94436312E+03</totfact>
</mgrwt>
</event>
<event>
 5    1  0.3486589E-002  0.1249906E+03  0.7818608E-02  0.1235084E+00
          4   -1    0    0  501    0  0.00000000000E+00  0.00000000000E+00  0.31266648735E+04  0.31266651314E+04  0.12700000000E+01 0.  1.
         -4   -1    0    0    0  501 -0.00000000000E+00 -0.00000000000E+00 -0.92602121051E+00  0.15717554779E+01  0.12700000000E+01 0.  1.
         25    2    1    2    0    0  0.00000000000E+00  0.00000000000E+00  0.31257388523E+04  0.31282368869E+04  0.12499059116E+03 0.  0.
    9000005    1    3    3    0    0  0.47585547730E+02 -0.32267544758E+02  0.21754537387E+04  0.21762135805E+04  0.10000000000E+01 0.  0.
    9000005    1    3    3    0    0 -0.47585547730E+02  0.32267544758E+02  0.95028511358E+03  0.95202330638E+03  0.10000000000E+01 0.  0.
<mgrwt>
<rscale>  0 0.12499059E+03</rscale>
<asrwt>0</asrwt>
<pdfrwt beam="1">  1        4 0.48107379E+00 0.12499059E+03</pdfrwt>
<pdfrwt beam="2">  1       -4 0.19215701E-03 0.12499059E+03</pdfrwt>
<totfact> 0.13806278E+02</totfact>
</mgrwt>
</event>
<event>
 5    1  0.3486589E-002  0.1250027E+03  0.7818608E-02  0.1235065E+00
         -4   -1    0    0    0  501 -0.00000000000E+00  0.00000000000E+00  0.78185412482E+01  0.79210155441E+01  0.12700000000E+01 0. -1.
          4   -1    0    0  501    0  0.00000000000E+00 -0.00000000000E+00 -0.49627926350E+03  0.49628088849E+03  0.12700000000E+01 0. -1.
         25    2    1    2    0    0  0.00000000000E+00  0.00000000000E+00 -0.48846072225E+03  0.50420190403E+03  0.12500273136E+03 0.  0.
    9000005    1    3    3    0    0 -0.73585144293E+01 -0.44843853021E+02 -0.41726358802E+03  0.41973208214E+03  0.10000000000E+01 0.  0.
    9000005    1    3    3    0    0  0.73585144293E+01  0.44843853021E+02 -0.71197134232E+02  0.84469821897E+02  0.10000000000E+01 0.  0.
<mgrwt>
<rscale>  0 0.12500273E+03</rscale>
<asrwt>0</asrwt>
<pdfrwt beam="2">  1        4 0.76358639E-01 0.12500273E+03</pdfrwt>
<pdfrwt beam="1">  1       -4 0.12108605E-02 0.12500273E+03</pdfrwt>
<totfact> 0.55536494E+03</totfact>
</mgrwt>
</event>
<event>
 5    1  0.3486589E-002  0.1250014E+03  0.7818608E-02  0.1235067E+00
          4   -1    0    0  501    0  0.00000000000E+00  0.00000000000E+00  0.76782200947E+01  0.77825422467E+01  0.12700000000E+01 0. -1.
         -4   -1    0    0    0  501 -0.00000000000E+00 -0.00000000000E+00 -0.50521763909E+03  0.50521923533E+03  0.12700000000E+01 0. -1.
         25    2    1    2    0    0  0.00000000000E+00  0.00000000000E+00 -0.49753941899E+03  0.51300177758E+03  0.12500140136E+03 0.  0.
    9000005    1    3    3    0    0  0.44733937596E+02  0.43632126556E+02 -0.25152256708E+03  0.25917077264E+03  0.10000000000E+01 0.  0.
    9000005    1    3    3    0    0 -0.44733937596E+02 -0.43632126556E+02 -0.24601685191E+03  0.25383100494E+03  0.10000000000E+01 0.  0.
<mgrwt>
<rscale>  0 0.12500140E+03</rscale>
<asrwt>0</asrwt>
<pdfrwt beam="1">  1        4 0.11894126E-02 0.12500140E+03</pdfrwt>
<pdfrwt beam="2">  1       -4 0.77733912E-01 0.12500140E+03</pdfrwt>
<totfact> 0.54867835E+03</totfact>
</mgrwt>
</event>
<event>
 5    1  0.3486589E-002  0.1250010E+03  0.7818608E-02  0.1235068E+00
         -4   -1    0    0    0  501 -0.00000000000E+00  0.00000000000E+00  0.65077153672E+01  0.66304795679E+01  0.12700000000E+01 0. -1.
          4   -1    0    0  501    0  0.00000000000E+00 -0.00000000000E+00 -0.59452630273E+03  0.59452765919E+03  0.12700000000E+01 0. -1.
         25    2    1    2    0    0  0.00000000000E+00  0.00000000000E+00 -0.58801858736E+03  0.60115813876E+03  0.12500099482E+03 0.  0.
    9000005    1    3    3    0    0  0.36763623512E+02  0.38118503340E+02 -0.45356606601E+03  0.45664839926E+03  0.10000000000E+01 0.  0.
    9000005    1    3    3    0    0 -0.36763623512E+02 -0.38118503340E+02 -0.13445252135E+03  0.14450973949E+03  0.10000000000E+01 0.  0.
<mgrwt>
<rscale>  0 0.12500099E+03</rscale>
<asrwt>0</asrwt>
<pdfrwt beam="2">  1        4 0.91475090E-01 0.12500099E+03</pdfrwt>
<pdfrwt beam="1">  1       -4 0.10107352E-02 0.12500099E+03</pdfrwt>
<totfact> 0.48793539E+03</totfact>
</mgrwt>
</event>
<event>
 5    1  0.3486589E-002  0.1250042E+03  0.7818608E-02  0.1235063E+00
          4   -1    0    0  501    0  0.00000000000E+00  0.00000000000E+00  0.26274600659E+03  0.26274907588E+03  0.12700000000E+01 0.  1.
         -4   -1    0    0    0  501 -0.00000000000E+00 -0.00000000000E+00 -0.14837729099E+02  0.14891981226E+02  0.12700000000E+01 0.  1.
         25    2    1    2    0    0  0.00000000000E+00  0.00000000000E+00  0.24790827749E+03  0.27764105711E+03  0.12500417011E+03 0.  0.
    9000005    1    3    3    0    0  0.14784484097E+02 -0.52861457495E+02  0.57597152875E+02  0.79569759820E+02  0.10000000000E+01 0.  0.
    9000005    1    3    3    0    0 -0.14784484097E+02  0.52861457495E+02  0.19031112461E+03  0.19807129729E+03  0.10000000000E+01 0.  0.
<mgrwt>
<rscale>  0 0.12500417E+03</rscale>
<asrwt>0</asrwt>
<pdfrwt beam="1">  1        4 0.40426871E-01 0.12500417E+03</pdfrwt>
<pdfrwt beam="2">  1       -4 0.22871369E-02 0.12500417E+03</pdfrwt>
<totfact> 0.78484650E+03</totfact>
</mgrwt>
</event>
<event>
 5    1  0.3486589E-002  0.1249580E+03  0.7818608E-02  0.1235135E+00
          4   -1    0    0  501    0  0.00000000000E+00  0.00000000000E+00  0.91966006052E+02  0.91974774635E+02  0.12700000000E+01 0.  1.
         -4   -1    0    0    0  501 -0.00000000000E+00 -0.00000000000E+00 -0.42426117665E+02  0.42445121747E+02  0.12700000000E+01 0.  1.
         25    2    1    2    0    0  0.00000000000E+00  0.00000000000E+00  0.49539888387E+02  0.13441989638E+03  0.12495802496E+03 0.  0.
    9000005    1    3    3    0    0 -0.40719872937E+02 -0.24827345426E+01 -0.26123739335E+02  0.48453294828E+02  0.10000000000E+01 0.  0.
    9000005    1    3    3    0    0  0.40719872937E+02  0.24827345426E+01  0.75663627721E+02  0.85966601554E+02  0.10000000000E+01 0.  0.
<mgrwt>
<rscale>  0 0.12495802E+03</rscale>
<asrwt>0</asrwt>
<pdfrwt beam="1">  1        4 0.14150752E-01 0.12495802E+03</pdfrwt>
<pdfrwt beam="2">  1       -4 0.65292315E-02 0.12495802E+03</pdfrwt>
<totfact> 0.10260022E+04</totfact>
</mgrwt>
</event>
<event>
 4    1  0.3486589E-002  0.1258970E+03  0.7818608E-02  0.1233674E+00
         -4   -1    0    0    0  501 -0.00000000000E+00  0.00000000000E+00  0.60245417514E+02  0.60258802108E+02  0.12700000000E+01 0. -1.
          4   -1    0    0  501    0  0.00000000000E+00 -0.00000000000E+00 -0.65746016241E+02  0.65758281240E+02  0.12700000000E+01 0. -1.
    9000005    1    1    2    0    0 -0.12965531733E+02  0.60279359201E+02 -0.15403799925E+02  0.63560862258E+02  0.10000000000E+01 0.  0.
    9000005    1    1    2    0    0  0.12965531733E+02 -0.60279359201E+02  0.99032011981E+01  0.62456221090E+02  0.10000000000E+01 0.  0.
<mgrwt>
<rscale>  0 0.12589698E+03</rscale>
<asrwt>0</asrwt>
<pdfrwt beam="2">  1        4 0.10116745E-01 0.12589698E+03</pdfrwt>
<pdfrwt beam="1">  1       -4 0.92704988E-02 0.12589698E+03</pdfrwt>
<totfact> 0.10222170E+04</totfact>
</mgrwt>
</event>
<event>
 5    1  0.3486589E-002  0.1249978E+03  0.7818608E-02  0.1235073E+00
          4   -1    0    0  501    0  0.00000000000E+00  0.00000000000E+00  0.13128687605E+02  0.13189971123E+02  0.12700000000E+01 0.  1.
         -4   -1    0    0    0  501 -0.00000000000E+00 -0.00000000000E+00 -0.29676970967E+03  0.29677242709E+03  0.12700000000E+01 0.  1.
         25    2    1    2    0    0  0.00000000000E+00  0.00000000000E+00 -0.28364102207E+03  0.30996239821E+03  0.12499783560E+03 0.  0.
    9000005    1    3    3    0    0  0.59154139916E+02 -0.19694280838E+02 -0.15235219486E+03  0.16461855377E+03  0.10000000000E+01 0.  0.
    9000005    1    3    3    0    0 -0.59154139916E+02  0.19694280838E+02 -0.13128882721E+03  0.14534384444E+03  0.10000000000E+01 0.  0.
<mgrwt>
<rscale>  0 0.12499784E+03</rscale>
<asrwt>0</asrwt>
<pdfrwt beam="1">  1        4 0.20247215E-02 0.12499784E+03</pdfrwt>
<pdfrwt beam="2">  1       -4 0.45661797E-01 0.12499784E+03</pdfrwt>
<totfact> 0.74369501E+03</totfact>
</mgrwt>
</event>
<event>
 5    1  0.3486589E-002  0.1249986E+03  0.7818608E-02  0.1235071E+00
         -4   -1    0    0    0  501 -0.00000000000E+00  0.00000000000E+00  0.15433114834E+03  0.15433637370E+03  0.12700000000E+01 0. -1.
          4   -1    0    0  501    0  0.00000000000E+00 -0.00000000000E+00 -0.25288681837E+02  0.25320551516E+02  0.12700000000E+01 0. -1.
         25    2    1    2    0    0  0.00000000000E+00  0.00000000000E+00  0.12904246650E+03  0.17965692522E+03  0.12499861046E+03 0.  0.
    9000005    1    3    3    0    0  0.45418617879E+01  0.61333105471E+02  0.80447394738E+02  0.10126777205E+03  0.10000000000E+01 0.  0.
    9000005    1    3    3    0    0 -0.45418617879E+01 -0.61333105471E+02  0.48595071764E+02  0.78389153172E+02  0.10000000000E+01 0.  0.
<mgrwt>
<rscale>  0 0.12499861E+03</rscale>
<asrwt>0</asrwt>
<pdfrwt beam="2">  1        4 0.38934199E-02 0.12499861E+03</pdfrwt>
<pdfrwt beam="1">  1       -4 0.23746107E-01 0.12499861E+03</pdfrwt>
<totfact> 0.93681712E+03</totfact>
</mgrwt>
</event>
<event>
 5    1  0.3486589E-002  0.1249966E+03  0.7818608E-02  0.1235075E+00
          4   -1    0    0  501    0  0.00000000000E+00  0.00000000000E+00  0.25903393090E+01  0.28849190172E+01  0.12700000000E+01 0. -1.
         -4   -1    0    0    0  501 -0.00000000000E+00 -0.00000000000E+00 -0.14265008009E+04  0.14265013662E+04  0.12700000000E+01 0. -1.
         25    2    1    2    0    0  0.00000000000E+00  0.00000000000E+00 -0.14239104616E+04  0.14293862852E+04  0.12499659930E+03 0.  0.
    9000005    1    3    3    0    0  0.22263032943E+02 -0.26556045952E+02 -0.11729552930E+03  0.12231151788E+03  0.10000000000E+01 0.  0.
    9000005    1    3    3    0    0 -0.22263032943E+02  0.26556045952E+02 -0.13066149323E+04  0.13070747673E+04  0.10000000000E+01 0.  0.
<mgrwt>
<rscale>  0 0.12499660E+03</rscale>
<asrwt>0</asrwt>
<pdfrwt beam="1">  1        4 0.42121834E-03 0.12499660E+03</pdfrwt>
<pdfrwt beam="2">  1       -4 0.21948377E+00 0.12499660E+03</pdfrwt>
<totfact> 0.19360482E+03</totfact>
</mgrwt>
</event>
<event>
 5    1  0.3486589E-002  0.1250012E+03  0.7818608E-02  0.1235067E+00
         -4   -1    0    0    0  501 -0.00000000000E+00  0.00000000000E+00  0.13934449071E+03  0.13935027805E+03  0.12700000000E+01 0. -1.
          4   -1    0    0  501    0  0.00000000000E+00 -0.00000000000E+00 -0.28012828153E+02  0.28041601971E+02  0.12700000000E+01 0. -1.
         25    2    1    2    0    0  0.00000000000E+00  0.00000000000E+00  0.11133166256E+03  0.16739188002E+03  0.12500120963E+03 0.  0.
    9000005    1    3    3    0    0 -0.27783693750E+02  0.30711407694E+02  0.11833619246E+03  0.12537774383E+03  0.10000000000E+01 0.  0.
    9000005    1    3    3    0    0  0.27783693750E+02 -0.30711407694E+02 -0.70045298996E+01  0.42014136193E+02  0.10000000000E+01 0.  0.
<mgrwt>
<rscale>  0 0.12500121E+03</rscale>
<asrwt>0</asrwt>
<pdfrwt beam="2">  1        4 0.43123244E-02 0.12500121E+03</pdfrwt>
<pdfrwt beam="1">  1       -4 0.21440272E-01 0.12500121E+03</pdfrwt>
<totfact> 0.95933710E+03</totfact>
</mgrwt>
</event>
<event>
 5    1  0.3486589E-002  0.1250004E+03  0.7818608E-02  0.1235069E+00
          4   -1    0    0  501    0  0.00000000000E+00  0.00000000000E+00  0.15895520081E+02  0.15946173793E+02  0.12700000000E+01 0. -1.
         -4   -1    0    0    0  501 -0.00000000000E+00 -0.00000000000E+00 -0.24530364565E+03  0.24530693318E+03  0.12700000000E+01 0. -1.
         25    2    1    2    0    0  0.00000000000E+00  0.00000000000E+00 -0.22940812557E+03  0.26125310698E+03  0.12500039131E+03 0.  0.
    9000005    1    3    3    0    0  0.43376941009E+02  0.43008708715E+02 -0.87137488125E+02  0.10642015727E+03  0.10000000000E+01 0.  0.
    9000005    1    3    3    0    0 -0.43376941009E+02 -0.43008708715E+02 -0.14227063744E+03  0.15483294971E+03  0.10000000000E+01 0.  0.
<mgrwt>
<rscale>  0 0.12500039E+03</rscale>
<asrwt>0</asrwt>
<pdfrwt beam="1">  1        4 0.24496141E-02 0.12500039E+03</pdfrwt>
<pdfrwt beam="2">  1       -4 0.37743169E-01 0.12500039E+03</pdfrwt>
<totfact> 0.80729824E+03</totfact>
</mgrwt>
</event>
<event>
 5    1  0.3486589E-002  0.1249977E+03  0.7818608E-02  0.1235073E+00
          4   -1    0    0  501    0  0.00000000000E+00  0.00000000000E+00  0.14831206969E+03  0.14831750711E+03  0.12700000000E+01 0.  1.
         -4   -1    0    0    0  501 -0.00000000000E+00 -0.00000000000E+00 -0.26315827957E+02  0.26346455190E+02  0.12700000000E+01 0.  1.
         25    2    1    2    0    0  0.00000000000E+00  0.00000000000E+00  0.12199624173E+03  0.17466396230E+03  0.12499766690E+03 0.  0.
    9000005    1    3    3    0    0  0.56019289191E+02 -0.14846071851E+01  0.99639989833E+02  0.11432188064E+03  0.10000000000E+01 0.  0.
    9000005    1    3    3    0    0 -0.56019289191E+02  0.14846071851E+01  0.22356251901E+02  0.60342081659E+02  0.10000000000E+01 0.  0.
<mgrwt>
<rscale>  0 0.12499767E+03</rscale>
<asrwt>0</asrwt>
<pdfrwt beam="1">  1        4 0.22820016E-01 0.12499767E+03</pdfrwt>
<pdfrwt beam="2">  1       -4 0.40513631E-02 0.12499767E+03</pdfrwt>
<totfact> 0.94591371E+03</totfact>
</mgrwt>
</event>
<event>
 5    1  0.3486589E-002  0.1250008E+03  0.7818608E-02  0.1235068E+00
          4   -1    0    0  501    0  0.00000000000E+00  0.00000000000E+00  0.17435953916E+01  0.21570871307E+01  0.12700000000E+01 0. -1.
         -4   -1    0    0    0  501 -0.00000000000E+00 -0.00000000000E+00 -0.20024675697E+04  0.20024679724E+04  0.12700000000E+01 0. -1.
         25    2    1    2    0    0  0.00000000000E+00  0.00000000000E+00 -0.20007239743E+04  0.20046250595E+04  0.12500083215E+03 0.  0.
    9000005    1    3    3    0    0  0.55013030170E+02 -0.24331041810E+02 -0.12719821494E+04  0.12734041077E+04  0.10000000000E+01 0.  0.
    9000005    1    3    3    0    0 -0.55013030170E+02  0.24331041810E+02 -0.72874182487E+03  0.73122095183E+03  0.10000000000E+01 0.  0.
<mgrwt>
<rscale>  0 0.12500083E+03</rscale>
<asrwt>0</asrwt>
<pdfrwt beam="1">  1        4 0.30008508E-03 0.12500083E+03</pdfrwt>
<pdfrwt beam="2">  1       -4 0.30810213E+00 0.12500083E+03</pdfrwt>
<totfact> 0.98009084E+02</totfact>
</mgrwt>
</event>
<event>
 5    1  0.3486589E-002  0.1249980E+03  0.7818608E-02  0.1235072E+00
         -4   -1    0    0    0  501 -0.00000000000E+00  0.00000000000E+00  0.41144913238E+02  0.41164508808E+02  0.12700000000E+01 0. -1.
          4   -1    0    0  501    0  0.00000000000E+00 -0.00000000000E+00 -0.94889288363E+02  0.94897786835E+02  0.12700000000E+01 0. -1.
         25    2    1    2    0    0  0.00000000000E+00  0.00000000000E+00 -0.53744375125E+02  0.13606229564E+03  0.12499796173E+03 0.  0.
    9000005    1    3    3    0    0 -0.45464886824E+02 -0.40546628934E+02 -0.42034930161E+02  0.74020405332E+02  0.10000000000E+01 0.  0.
    9000005    1    3    3    0    0  0.45464886824E+02  0.40546628934E+02 -0.11709444964E+02  0.62041890310E+02  0.10000000000E+01 0.  0.
<mgrwt>
<rscale>  0 0.12499796E+03</rscale>
<asrwt>0</asrwt>
<pdfrwt beam="2">  1        4 0.14600513E-01 0.12499796E+03</pdfrwt>
<pdfrwt beam="1">  1       -4 0.63321477E-02 0.12499796E+03</pdfrwt>
<totfact> 0.10216198E+04</totfact>
</mgrwt>
</event>
<event>
 5    1  0.3486589E-002  0.1249992E+03  0.7818608E-02  0.1235070E+00
          4   -1    0    0  501    0  0.00000000000E+00  0.00000000000E+00  0.16608805381E+03  0.16609290930E+03  0.12700000000E+01 0.  1.
         -4   -1    0    0    0  501 -0.00000000000E+00 -0.00000000000E+00 -0.23496516901E+02  0.23530813978E+02  0.12700000000E+01 0.  1.
         25    2    1    2    0    0  0.00000000000E+00  0.00000000000E+00  0.14259153691E+03  0.18962372328E+03  0.12499924012E+03 0.  0.
    9000005    1    3    3    0    0  0.83131384651E+01 -0.59296958028E+02  0.44160349095E+02  0.74406813766E+02  0.10000000000E+01 0.  0.
    9000005    1    3    3    0    0 -0.83131384651E+01  0.59296958028E+02  0.98431187818E+02  0.11521690951E+03  0.10000000000E+01 0.  0.
<mgrwt>
<rscale>  0 0.12499924E+03</rscale>
<asrwt>0</asrwt>
<pdfrwt beam="1">  1        4 0.25555021E-01 0.12499924E+03</pdfrwt>
<pdfrwt beam="2">  1       -4 0.36178604E-02 0.12499924E+03</pdfrwt>
<totfact> 0.91914390E+03</totfact>
</mgrwt>
</event>
<event>
 5    1  0.3486589E-002  0.1250000E+03  0.7818608E-02  0.1235069E+00
          4   -1    0    0  501    0  0.00000000000E+00  0.00000000000E+00  0.23003257030E+04  0.23003260536E+04  0.12700000000E+01 0.  1.
         -4   -1    0    0    0  501 -0.00000000000E+00 -0.00000000000E+00 -0.14602759708E+01  0.19352792850E+01  0.12700000000E+01 0.  1.
         25    2    1    2    0    0  0.00000000000E+00  0.00000000000E+00  0.22988654270E+04  0.23022613329E+04  0.12499997287E+03 0.  0.
    9000005    1    3    3    0    0 -0.49474399196E+02 -0.24418340247E+02  0.60890735657E+03  0.61140260091E+03  0.10000000000E+01 0.  0.
    9000005    1    3    3    0    0  0.49474399196E+02  0.24418340247E+02  0.16899580704E+04  0.16908587319E+04  0.10000000000E+01 0.  0.
<mgrwt>
<rscale>  0 0.12499997E+03</rscale>
<asrwt>0</asrwt>
<pdfrwt beam="1">  1        4 0.35393207E+00 0.12499997E+03</pdfrwt>
<pdfrwt beam="2">  1       -4 0.26122409E-03 0.12499997E+03</pdfrwt>
<totfact> 0.64141010E+02</totfact>
</mgrwt>
</event>
<event>
 5    1  0.3486589E-002  0.1250002E+03  0.7818608E-02  0.1235069E+00
          4   -1    0    0  501    0  0.00000000000E+00  0.00000000000E+00  0.14777827573E+01  0.19485229991E+01  0.12700000000E+01 0. -1.
         -4   -1    0    0    0  501 -0.00000000000E+00 -0.00000000000E+00 -0.22796891872E+04  0.22796895409E+04  0.12700000000E+01 0. -1.
         25    2    1    2    0    0  0.00000000000E+00  0.00000000000E+00 -0.22782114044E+04  0.22816380639E+04  0.12500020619E+03 0.  0.
    9000005    1    3    3    0    0  0.10224184939E+02  0.53763249402E+02 -0.58840650191E+03  0.59094689477E+03  0.10000000000E+01 0.  0.
    9000005    1    3    3    0    0 -0.10224184939E+02 -0.53763249402E+02 -0.16898049025E+04  0.16906911692E+04  0.10000000000E+01 0.  0.
<mgrwt>
<rscale>  0 0.12500021E+03</rscale>
<asrwt>0</asrwt>
<pdfrwt beam="1">  1        4 0.26359102E-03 0.12500021E+03</pdfrwt>
<pdfrwt beam="2">  1       -4 0.35075523E+00 0.12500021E+03</pdfrwt>
<totfact> 0.66186975E+02</totfact>
</mgrwt>
</event>
<event>
 5    1  0.3486589E-002  0.1249977E+03  0.7818608E-02  0.1235073E+00
         -4   -1    0    0    0  501 -0.00000000000E+00  0.00000000000E+00  0.10773556529E+04  0.10773564014E+04  0.12700000000E+01 0. -1.
          4   -1    0    0  501    0  0.00000000000E+00 -0.00000000000E+00 -0.35136543301E+01  0.37361299163E+01  0.12700000000E+01 0. -1.
         25    2    1    2    0    0  0.00000000000E+00  0.00000000000E+00  0.10738419986E+04  0.10810925313E+04  0.12499769387E+03 0.  0.
    9000005    1    3    3    0    0 -0.24030798218E+02 -0.22021587999E+02  0.75789734662E+02  0.82507657106E+02  0.10000000000E+01 0.  0.
    9000005    1    3    3    0    0  0.24030798218E+02  0.22021587999E+02  0.99805226389E+03  0.99858487424E+03  0.10000000000E+01 0.  0.
<mgrwt>
<rscale>  0 0.12499769E+03</rscale>
<asrwt>0</asrwt>
<pdfrwt beam="2">  1        4 0.55773330E-03 0.12499769E+03</pdfrwt>
<pdfrwt beam="1">  1       -4 0.16576419E+00 0.12499769E+03</pdfrwt>
<totfact> 0.28044861E+03</totfact>
</mgrwt>
</event>
<event>
 5    1  0.3486589E-002  0.1250004E+03  0.7818608E-02  0.1235069E+00
          4   -1    0    0  501    0  0.00000000000E+00  0.00000000000E+00  0.63417298907E+03  0.63417426073E+03  0.12700000000E+01 0.  1.
         -4   -1    0    0    0  501 -0.00000000000E+00 -0.00000000000E+00 -0.60928845627E+01  0.62238366218E+01  0.12700000000E+01 0.  1.
         25    2    1    2    0    0  0.00000000000E+00  0.00000000000E+00  0.62808010451E+03  0.64039809735E+03  0.12500042163E+03 0.  0.
    9000005    1    3    3    0    0  0.42228550185E+02 -0.35945407969E+01  0.78758609857E+02  0.89443221101E+02  0.10000000000E+01 0.  0.
    9000005    1    3    3    0    0 -0.42228550185E+02  0.35945407969E+01  0.54932149465E+03  0.55095487625E+03  0.10000000000E+01 0.  0.
<mgrwt>
<rscale>  0 0.12500042E+03</rscale>
<asrwt>0</asrwt>
<pdfrwt beam="1">  1        4 0.97575310E-01 0.12500042E+03</pdfrwt>
<pdfrwt beam="2">  1       -4 0.94753729E-03 0.12500042E+03</pdfrwt>
<totfact> 0.46412465E+03</totfact>
</mgrwt>
</event>
<event>
 5    1  0.3486589E-002  0.1249937E+03  0.7818608E-02  0.1235079E+00
         -4   -1    0    0    0  501 -0.00000000000E+00  0.00000000000E+00  0.20229409949E+02  0.20269235972E+02  0.12700000000E+01 0. -1.
          4   -1    0    0  501    0  0.00000000000E+00 -0.00000000000E+00 -0.19284630999E+03  0.19285049177E+03  0.12700000000E+01 0. -1.
         25    2    1    2    0    0  0.00000000000E+00  0.00000000000E+00 -0.17261690004E+03  0.21311972774E+03  0.12499369654E+03 0.  0.
    9000005    1    3    3    0    0 -0.40541936467E+02 -0.22411349053E+02 -0.15781748433E+03  0.16447879967E+03  0.10000000000E+01 0.  0.
    9000005    1    3    3    0    0  0.40541936467E+02  0.22411349053E+02 -0.14799415707E+02  0.48640928076E+02  0.10000000000E+01 0.  0.
<mgrwt>
<rscale>  0 0.12499370E+03</rscale>
<asrwt>0</asrwt>
<pdfrwt beam="2">  1        4 0.29672047E-01 0.12499370E+03</pdfrwt>
<pdfrwt beam="1">  1       -4 0.31156023E-02 0.12499370E+03</pdfrwt>
<totfact> 0.87981305E+03</totfact>
</mgrwt>
</event>
<event>
 5    1  0.3486589E-002  0.1250126E+03  0.7818608E-02  0.1235050E+00
          4   -1    0    0  501    0  0.00000000000E+00  0.00000000000E+00  0.12585148352E+03  0.12585789130E+03  0.12700000000E+01 0. -1.
         -4   -1    0    0    0  501 -0.00000000000E+00 -0.00000000000E+00 -0.31024656633E+02  0.31050639594E+02  0.12700000000E+01 0. -1.
         25    2    1    2    0    0  0.00000000000E+00  0.00000000000E+00  0.94826826884E+02  0.15690853090E+03  0.12501263925E+03 0.  0.
    9000005    1    3    3    0    0 -0.29910112900E+02 -0.52857287283E+02  0.65925464021E+02  0.89641923669E+02  0.10000000000E+01 0.  0.
    9000005    1    3    3    0    0  0.29910112900E+02  0.52857287283E+02  0.28901362862E+02  0.67266607228E+02  0.10000000000E+01 0.  0.
<mgrwt>
<rscale>  0 0.12501264E+03</rscale>
<asrwt>0</asrwt>
<pdfrwt beam="1">  1        4 0.19364258E-01 0.12501264E+03</pdfrwt>
<pdfrwt beam="2">  1       -4 0.47755158E-02 0.12501264E+03</pdfrwt>
<totfact> 0.97914299E+03</totfact>
</mgrwt>
</event>
<event>
 5    1  0.3486589E-002  0.1250001E+03  0.7818608E-02  0.1235069E+00
         -4   -1    0    0    0  501 -0.00000000000E+00  0.00000000000E+00  0.27791213569E+02  0.27820216599E+02  0.12700000000E+01 0. -1.
          4   -1    0    0  501    0  0.00000000000E+00 -0.00000000000E+00 -0.14045208276E+03  0.14045782446E+03  0.12700000000E+01 0. -1.
         25    2    1    2    0    0  0.00000000000E+00  0.00000000000E+00 -0.11266086919E+03  0.16827804106E+03  0.12500011062E+03 0.  0.
    9000005    1    3    3    0    0 -0.33305329481E+02 -0.31421728976E+02  0.92263099097E+00  0.45808528373E+02  0.10000000000E+01 0.  0.
    9000005    1    3    3    0    0  0.33305329481E+02  0.31421728976E+02 -0.11358350018E+03  0.12246951268E+03  0.10000000000E+01 0.  0.
<mgrwt>
<rscale>  0 0.12500011E+03</rscale>
<asrwt>0</asrwt>
<pdfrwt beam="2">  1        4 0.21610685E-01 0.12500011E+03</pdfrwt>
<pdfrwt beam="1">  1       -4 0.42782441E-02 0.12500011E+03</pdfrwt>
<totfact> 0.95769922E+03</totfact>
</mgrwt>
</event>
<event>
 5    1  0.3486589E-002  0.1250016E+03  0.7818608E-02  0.1235067E+00
         -4   -1    0    0    0  501 -0.00000000000E+00  0.00000000000E+00  0.38299094551E+02  0.38320145400E+02  0.12700000000E+01 0. -1.
          4   -1    0    0  501    0  0.00000000000E+00 -0.00000000000E+00 -0.10194291967E+03  0.10195083016E+03  0.12700000000E+01 0. -1.
         25    2    1    2    0    0  0.00000000000E+00  0.00000000000E+00 -0.63643825120E+02  0.14027097556E+03  0.12500164043E+03 0.  0.
    9000005    1    3    3    0    0 -0.25092495186E+02  0.57055328741E+02 -0.26752478129E+02  0.67835381169E+02  0.10000000000E+01 0.  0.
    9000005    1    3    3    0    0  0.25092495186E+02 -0.57055328741E+02 -0.36891346992E+02  0.72435594394E+02  0.10000000000E+01 0.  0.
<mgrwt>
<rscale>  0 0.12500164E+03</rscale>
<asrwt>0</asrwt>
<pdfrwt beam="2">  1        4 0.15685754E-01 0.12500164E+03</pdfrwt>
<pdfrwt beam="1">  1       -4 0.58943962E-02 0.12500164E+03</pdfrwt>
<totfact> 0.10127598E+04</totfact>
</mgrwt>
</event>
<event>
 5    1  0.3486589E-002  0.1250003E+03  0.7818608E-02  0.1235069E+00
         -4   -1    0    0    0  501 -0.00000000000E+00  0.00000000000E+00  0.80948235269E+02  0.80958197196E+02  0.12700000000E+01 0.  1.
          4   -1    0    0  501    0  0.00000000000E+00 -0.00000000000E+00 -0.48235125643E+02  0.48251841891E+02  0.12700000000E+01 0.  1.
         25    2    1    2    0    0  0.00000000000E+00  0.00000000000E+00  0.32713109626E+02  0.12921003909E+03  0.12500034664E+03 0.  0.
    9000005    1    3    3    0    0  0.10165195337E+02 -0.61170271750E+02  0.83404996750E+01  0.62575532575E+02  0.10000000000E+01 0.  0.
    9000005    1    3    3    0    0 -0.10165195337E+02  0.61170271750E+02  0.24372609951E+02  0.66634506512E+02  0.10000000000E+01 0.  0.
<mgrwt>
<rscale>  0 0.12500035E+03</rscale>
<asrwt>0</asrwt>
<pdfrwt beam="2">  1        4 0.74228407E-02 0.12500035E+03</pdfrwt>
<pdfrwt beam="1">  1       -4 0.12455627E-01 0.12500035E+03</pdfrwt>
<totfact> 0.10361355E+04</totfact>
</mgrwt>
</event>
<event>
 5    1  0.3486589E-002  0.1249998E+03  0.7818608E-02  0.1235070E+00
          4   -1    0    0  501    0  0.00000000000E+00  0.00000000000E+00  0.29820601694E+03  0.29820872127E+03  0.12700000000E+01 0.  1.
         -4   -1    0    0    0  501 -0.00000000000E+00 -0.00000000000E+00 -0.13065562366E+02  0.13127140585E+02  0.12700000000E+01 0.  1.
         25    2    1    2    0    0  0.00000000000E+00  0.00000000000E+00  0.28514045458E+03  0.31133586186E+03  0.12499976016E+03 0.  0.
    9000005    1    3    3    0    0  0.52917889457E+02  0.30130132705E+02  0.10760220338E+03  0.12364207250E+03  0.10000000000E+01 0.  0.
    9000005    1    3    3    0    0 -0.52917889457E+02 -0.30130132705E+02  0.17753825120E+03  0.18769378935E+03  0.10000000000E+01 0.  0.
<mgrwt>
<rscale>  0 0.12499976E+03</rscale>
<asrwt>0</asrwt>
<pdfrwt beam="1">  1        4 0.45882794E-01 0.12499976E+03</pdfrwt>
<pdfrwt beam="2">  1       -4 0.20150313E-02 0.12499976E+03</pdfrwt>
<totfact> 0.74198933E+03</totfact>
</mgrwt>
</event>
<event>
 5    1  0.3486589E-002  0.1249661E+03  0.7818608E-02  0.1235122E+00
         -4   -1    0    0    0  501 -0.00000000000E+00  0.00000000000E+00  0.49609650941E+02  0.49625904188E+02  0.12700000000E+01 0. -1.
          4   -1    0    0  501    0  0.00000000000E+00 -0.00000000000E+00 -0.78662793331E+02  0.78673044651E+02  0.12700000000E+01 0. -1.
         25    2    1    2    0    0  0.00000000000E+00  0.00000000000E+00 -0.29053142390E+02  0.12829894884E+03  0.12496613617E+03 0.  0.
    9000005    1    3    3    0    0  0.50106431695E+02 -0.26385732442E+02  0.12564136709E+02  0.58014816253E+02  0.10000000000E+01 0.  0.
    9000005    1    3    3    0    0 -0.50106431695E+02  0.26385732442E+02 -0.41617279099E+02  0.70284132585E+02  0.10000000000E+01 0.  0.
<mgrwt>
<rscale>  0 0.12496614E+03</rscale>
<asrwt>0</asrwt>
<pdfrwt beam="2">  1        4 0.12104007E-01 0.12496614E+03</pdfrwt>
<pdfrwt beam="1">  1       -4 0.76342928E-02 0.12496614E+03</pdfrwt>
<totfact> 0.10388976E+04</totfact>
</mgrwt>
</event>
<event>
 5    1  0.3486589E-002  0.1249968E+03  0.7818608E-02  0.1235074E+00
          4   -1    0    0  501    0  0.00000000000E+00  0.00000000000E+00  0.18599835423E+03  0.18600268997E+03  0.12700000000E+01 0.  1.
         -4   -1    0    0    0  501 -0.00000000000E+00 -0.00000000000E+00 -0.20976674987E+02  0.21015084904E+02  0.12700000000E+01 0.  1.
         25    2    1    2    0    0  0.00000000000E+00  0.00000000000E+00  0.16502167924E+03  0.20701777487E+03  0.12499681793E+03 0.  0.
    9000005    1    3    3    0    0  0.68571218201E+01 -0.21583747306E+02  0.17897093041E+03  0.18040086529E+03  0.10000000000E+01 0.  0.
    9000005    1    3    3    0    0 -0.68571218201E+01  0.21583747306E+02 -0.13949251167E+02  0.26616909579E+02  0.10000000000E+01 0.  0.
<mgrwt>
<rscale>  0 0.12499682E+03</rscale>
<asrwt>0</asrwt>
<pdfrwt beam="1">  1        4 0.28618419E-01 0.12499682E+03</pdfrwt>
<pdfrwt beam="2">  1       -4 0.32304689E-02 0.12499682E+03</pdfrwt>
<totfact> 0.88971576E+03</totfact>
</mgrwt>
</event>
<event>
 5    1  0.3486589E-002  0.1250002E+03  0.7818608E-02  0.1235069E+00
         -4   -1    0    0    0  501 -0.00000000000E+00  0.00000000000E+00  0.82060956069E+02  0.82070782931E+02  0.12700000000E+01 0. -1.
          4   -1    0    0  501    0  0.00000000000E+00 -0.00000000000E+00 -0.47580840934E+02  0.47597786965E+02  0.12700000000E+01 0. -1.
         25    2    1    2    0    0  0.00000000000E+00  0.00000000000E+00  0.34480115135E+02  0.12966856990E+03  0.12500023872E+03 0.  0.
    9000005    1    3    3    0    0  0.31274533348E+02  0.87317197423E+01 -0.38148086998E+02  0.50106046615E+02  0.10000000000E+01 0.  0.
    9000005    1    3    3    0    0 -0.31274533348E+02 -0.87317197423E+01  0.72628202133E+02  0.79562523281E+02  0.10000000000E+01 0.  0.
<mgrwt>
<rscale>  0 0.12500024E+03</rscale>
<asrwt>0</asrwt>
<pdfrwt beam="2">  1        4 0.73221889E-02 0.12500024E+03</pdfrwt>
<pdfrwt beam="1">  1       -4 0.12626822E-01 0.12500024E+03</pdfrwt>
<totfact> 0.10351547E+04</totfact>
</mgrwt>
</event>
<event>
 5    1  0.3486589E-002  0.1249884E+03  0.7818608E-02  0.1235087E+00
          4   -1    0    0  501    0  0.00000000000E+00  0.00000000000E+00  0.16735146522E+03  0.16735628405E+03  0.12700000000E+01 0.  1.
         -4   -1    0    0    0  501 -0.00000000000E+00 -0.00000000000E+00 -0.23314834471E+02  0.23349398416E+02  0.12700000000E+01 0.  1.
         25    2    1    2    0    0  0.00000000000E+00  0.00000000000E+00  0.14403663075E+03  0.19070568247E+03  0.12498842477E+03 0.  0.
    9000005    1    3    3    0    0 -0.45083717511E+02  0.39160961422E+01  0.13776271523E+03  0.14500842424E+03  0.10000000000E+01 0.  0.
    9000005    1    3    3    0    0  0.45083717511E+02 -0.39160961422E+01  0.62739155230E+01  0.45697258228E+02  0.10000000000E+01 0.  0.
<mgrwt>
<rscale>  0 0.12498842E+03</rscale>
<asrwt>0</asrwt>
<pdfrwt beam="1">  1        4 0.25749408E-01 0.12498842E+03</pdfrwt>
<pdfrwt beam="2">  1       -4 0.35899272E-02 0.12498842E+03</pdfrwt>
<totfact> 0.91748459E+03</totfact>
</mgrwt>
</event>
<event>
 5    1  0.3486589E-002  0.1249987E+03  0.7818608E-02  0.1235071E+00
         -4   -1    0    0    0  501 -0.00000000000E+00  0.00000000000E+00  0.97069332355E+02  0.97077639979E+02  0.12700000000E+01 0. -1.
          4   -1    0    0  501    0  0.00000000000E+00 -0.00000000000E+00 -0.40220969949E+02  0.40241015440E+02  0.12700000000E+01 0. -1.
         25    2    1    2    0    0  0.00000000000E+00  0.00000000000E+00  0.56848362406E+02  0.13731865542E+03  0.12499870726E+03 0.  0.
    9000005    1    3    3    0    0  0.70781242165E+01 -0.35562234714E+02  0.84336457066E+02  0.91806374347E+02  0.10000000000E+01 0.  0.
    9000005    1    3    3    0    0 -0.70781242165E+01  0.35562234714E+02 -0.27488094660E+02  0.45512281071E+02  0.10000000000E+01 0.  0.
<mgrwt>
<rscale>  0 0.12499871E+03</rscale>
<asrwt>0</asrwt>
<pdfrwt beam="2">  1        4 0.61900227E-02 0.12499871E+03</pdfrwt>
<pdfrwt beam="1">  1       -4 0.14935924E-01 0.12499871E+03</pdfrwt>
<totfact> 0.10189724E+04</totfact>
</mgrwt>
</event>
<event>
 5    1  0.3486589E-002  0.1249952E+03  0.7818608E-02  0.1235077E+00
         -4   -1    0    0    0  501 -0.00000000000E+00  0.00000000000E+00  0.77697921420E+01  0.78729009857E+01  0.12700000000E+01 0.  1.
          4   -1    0    0  501    0  0.00000000000E+00 -0.00000000000E+00 -0.49929195729E+03  0.49929357248E+03  0.12700000000E+01 0.  1.
         25    2    1    2    0    0  0.00000000000E+00  0.00000000000E+00 -0.49152216515E+03  0.50716647346E+03  0.12499517179E+03 0.  0.
    9000005    1    3    3    0    0 -0.11547436599E+02 -0.59154641873E+02 -0.17880228140E+03  0.18868987991E+03  0.10000000000E+01 0.  0.
    9000005    1    3    3    0    0  0.11547436599E+02  0.59154641873E+02 -0.31271988375E+03  0.31847659355E+03  0.10000000000E+01 0.  0.
<mgrwt>
<rscale>  0 0.12499517E+03</rscale>
<asrwt>0</asrwt>
<pdfrwt beam="2">  1        4 0.76822178E-01 0.12499517E+03</pdfrwt>
<pdfrwt beam="1">  1       -4 0.12034087E-02 0.12499517E+03</pdfrwt>
<totfact> 0.55318475E+03</totfact>
</mgrwt>
</event>
<event>
 5    1  0.3486589E-002  0.1249981E+03  0.7818608E-02  0.1235072E+00
          4   -1    0    0  501    0  0.00000000000E+00  0.00000000000E+00  0.17630254061E+02  0.17675937266E+02  0.12700000000E+01 0.  1.
         -4   -1    0    0    0  501 -0.00000000000E+00 -0.00000000000E+00 -0.22122405955E+03  0.22122770492E+03  0.12700000000E+01 0.  1.
         25    2    1    2    0    0  0.00000000000E+00  0.00000000000E+00 -0.20359380549E+03  0.23890364218E+03  0.12499805045E+03 0.  0.
    9000005    1    3    3    0    0  0.60007156289E+02 -0.54071793171E+01 -0.70100428571E+02  0.92440069666E+02  0.10000000000E+01 0.  0.
    9000005    1    3    3    0    0 -0.60007156289E+02  0.54071793171E+01 -0.13349337691E+03  0.14646357252E+03  0.10000000000E+01 0.  0.
<mgrwt>
<rscale>  0 0.12499805E+03</rscale>
<asrwt>0</asrwt>
<pdfrwt beam="1">  1        4 0.27161414E-02 0.12499805E+03</pdfrwt>
<pdfrwt beam="2">  1       -4 0.34038263E-01 0.12499805E+03</pdfrwt>
<totfact> 0.83964572E+03</totfact>
</mgrwt>
</event>
<event>
 5    1  0.3486589E-002  0.1249983E+03  0.7818608E-02  0.1235072E+00
         -4   -1    0    0    0  501 -0.00000000000E+00  0.00000000000E+00  0.59890074909E+03  0.59890209564E+03  0.12700000000E+01 0. -1.
          4   -1    0    0  501    0  0.00000000000E+00 -0.00000000000E+00 -0.64590007312E+01  0.65826735028E+01  0.12700000000E+01 0. -1.
         25    2    1    2    0    0  0.00000000000E+00  0.00000000000E+00  0.59244174836E+03  0.60548476914E+03  0.12499832185E+03 0.  0.
    9000005    1    3    3    0    0 -0.22295564425E+02  0.26949942536E+02  0.45374129019E+02  0.57299242403E+02  0.10000000000E+01 0.  0.
    9000005    1    3    3    0    0  0.22295564425E+02 -0.26949942536E+02  0.54706761934E+03  0.54818552674E+03  0.10000000000E+01 0.  0.
<mgrwt>
<rscale>  0 0.12499832E+03</rscale>
<asrwt>0</asrwt>
<pdfrwt beam="2">  1        4 0.10033091E-02 0.12499832E+03</pdfrwt>
<pdfrwt beam="1">  1       -4 0.92148214E-01 0.12499832E+03</pdfrwt>
<totfact> 0.48524993E+03</totfact>
</mgrwt>
</event>
<event>
 5    1  0.3486589E-002  0.1250000E+03  0.7818608E-02  0.1235069E+00
          4   -1    0    0  501    0  0.00000000000E+00  0.00000000000E+00  0.15241585274E+04  0.15241590565E+04  0.12700000000E+01 0.  1.
         -4   -1    0    0    0  501 -0.00000000000E+00 -0.00000000000E+00 -0.24049956078E+01  0.27197249629E+01  0.12700000000E+01 0.  1.
         25    2    1    2    0    0  0.00000000000E+00  0.00000000000E+00  0.15217535318E+04  0.15268787815E+04  0.12500000718E+03 0.  0.
    9000005    1    3    3    0    0 -0.38516731590E+02 -0.38354258883E+02  0.38425298370E+03  0.38807981560E+03  0.10000000000E+01 0.  0.
    9000005    1    3    3    0    0  0.38516731590E+02  0.38354258883E+02  0.11375005481E+04  0.11387989659E+04  0.10000000000E+01 0.  0.
<mgrwt>
<rscale>  0 0.12500001E+03</rscale>
<asrwt>0</asrwt>
<pdfrwt beam="1">  1        4 0.23451014E+00 0.12500001E+03</pdfrwt>
<pdfrwt beam="2">  1       -4 0.39425004E-03 0.12500001E+03</pdfrwt>
<totfact> 0.17408044E+03</totfact>
</mgrwt>
</event>
<event>
 5    1  0.3486589E-002  0.1249984E+03  0.7818608E-02  0.1235072E+00
          4   -1    0    0  501    0  0.00000000000E+00  0.00000000000E+00  0.20548795089E+03  0.20549187542E+03  0.12700000000E+01 0.  1.
         -4   -1    0    0    0  501 -0.00000000000E+00 -0.00000000000E+00 -0.18983835497E+02  0.19026268950E+02  0.12700000000E+01 0.  1.
         25    2    1    2    0    0  0.00000000000E+00  0.00000000000E+00  0.18650411539E+03  0.22451814437E+03  0.12499844835E+03 0.  0.
    9000005    1    3    3    0    0  0.55398999199E+02 -0.11002116417E+02  0.14128257432E+03  0.15215735764E+03  0.10000000000E+01 0.  0.
    9000005    1    3    3    0    0 -0.55398999199E+02  0.11002116417E+02  0.45221541072E+02  0.72360786721E+02  0.10000000000E+01 0.  0.
<mgrwt>
<rscale>  0 0.12499845E+03</rscale>
<asrwt>0</asrwt>
<pdfrwt beam="1">  1        4 0.31617096E-01 0.12499845E+03</pdfrwt>
<pdfrwt beam="2">  1       -4 0.29241562E-02 0.12499845E+03</pdfrwt>
<totfact> 0.86161408E+03</totfact>
</mgrwt>
</event>
<event>
 5    1  0.3486589E-002  0.1250022E+03  0.7818608E-02  0.1235066E+00
          4   -1    0    0  501    0  0.00000000000E+00  0.00000000000E+00  0.56956796936E+03  0.56956938526E+03  0.12700000000E+01 0.  1.
         -4   -1    0    0    0  501 -0.00000000000E+00 -0.00000000000E+00 -0.67982762135E+01  0.69158845764E+01  0.12700000000E+01 0.  1.
         25    2    1    2    0    0  0.00000000000E+00  0.00000000000E+00  0.56276969315E+03  0.57648526984E+03  0.12500215522E+03 0.  0.
    9000005    1    3    3    0    0 -0.54141484560E+02 -0.96866473275E+01  0.14455698992E+03  0.15467014845E+03  0.10000000000E+01 0.  0.
    9000005    1    3    3    0    0  0.54141484560E+02  0.96866473275E+01  0.41821270323E+03  0.42181512139E+03  0.10000000000E+01 0.  0.
<mgrwt>
<rscale>  0 0.12500216E+03</rscale>
<asrwt>0</asrwt>
<pdfrwt beam="1">  1        4 0.87635018E-01 0.12500216E+03</pdfrwt>
<pdfrwt beam="2">  1       -4 0.10550441E-02 0.12500216E+03</pdfrwt>
<totfact> 0.50383993E+03</totfact>
</mgrwt>
</event>
<event>
 5    1  0.3486589E-002  0.1250013E+03  0.7818608E-02  0.1235067E+00
          4   -1    0    0  501    0  0.00000000000E+00  0.00000000000E+00  0.27926197903E+02  0.27955060889E+02  0.12700000000E+01 0.  1.
         -4   -1    0    0    0  501 -0.00000000000E+00 -0.00000000000E+00 -0.13977663772E+03  0.13978240716E+03  0.12700000000E+01 0.  1.
         25    2    1    2    0    0  0.00000000000E+00  0.00000000000E+00 -0.11185043982E+03  0.16773746805E+03  0.12500134920E+03 0.  0.
    9000005    1    3    3    0    0  0.24985983577E+02  0.30984188273E+02  0.87226706778E+01  0.40760327304E+02  0.10000000000E+01 0.  0.
    9000005    1    3    3    0    0 -0.24985983577E+02 -0.30984188273E+02 -0.12057311049E+03  0.12697714075E+03  0.10000000000E+01 0.  0.
<mgrwt>
<rscale>  0 0.12500135E+03</rscale>
<asrwt>0</asrwt>
<pdfrwt beam="1">  1        4 0.42990023E-02 0.12500135E+03</pdfrwt>
<pdfrwt beam="2">  1       -4 0.21506762E-01 0.12500135E+03</pdfrwt>
<totfact> 0.95868552E+03</totfact>
</mgrwt>
</event>
<event>
 5    1  0.3486589E-002  0.1249980E+03  0.7818608E-02  0.1235072E+00
         -4   -1    0    0    0  501 -0.00000000000E+00  0.00000000000E+00  0.45711446637E+02  0.45729085423E+02  0.12700000000E+01 0.  1.
          4   -1    0    0  501    0  0.00000000000E+00 -0.00000000000E+00 -0.85412914801E+02  0.85422356059E+02  0.12700000000E+01 0.  1.
         25    2    1    2    0    0  0.00000000000E+00  0.00000000000E+00 -0.39701468164E+02  0.13115144148E+03  0.12499797610E+03 0.  0.
    9000005    1    3    3    0    0  0.18036982227E+02  0.31760172300E+02  0.33351279640E+02  0.49470689564E+02  0.10000000000E+01 0.  0.
    9000005    1    3    3    0    0 -0.18036982227E+02 -0.31760172300E+02 -0.73052747803E+02  0.81680751918E+02  0.10000000000E+01 0.  0.
<mgrwt>
<rscale>  0 0.12499798E+03</rscale>
<asrwt>0</asrwt>
<pdfrwt beam="2">  1        4 0.13142531E-01 0.12499798E+03</pdfrwt>
<pdfrwt beam="1">  1       -4 0.70346134E-02 0.12499798E+03</pdfrwt>
<totfact> 0.10320315E+04</totfact>
</mgrwt>
</event>
<event>
 5    1  0.3486589E-002  0.1249977E+03  0.7818608E-02  0.1235073E+00
         -4   -1    0    0    0  501 -0.00000000000E+00  0.00000000000E+00  0.22975601637E+03  0.22975952637E+03  0.12700000000E+01 0. -1.
          4   -1    0    0  501    0  0.00000000000E+00 -0.00000000000E+00 -0.16973733365E+02  0.17021178700E+02  0.12700000000E+01 0. -1.
         25    2    1    2    0    0  0.00000000000E+00  0.00000000000E+00  0.21278228300E+03  0.24678070507E+03  0.12499766572E+03 0.  0.
    9000005    1    3    3    0    0  0.25500824403E+02 -0.20793859346E+02  0.21127790719E+03  0.21382710468E+03  0.10000000000E+01 0.  0.
    9000005    1    3    3    0    0 -0.25500824403E+02  0.20793859346E+02  0.15043758148E+01  0.32953600385E+02  0.10000000000E+01 0.  0.
<mgrwt>
<rscale>  0 0.12499767E+03</rscale>
<asrwt>0</asrwt>
<pdfrwt beam="2">  1        4 0.26152634E-02 0.12499767E+03</pdfrwt>
<pdfrwt beam="1">  1       -4 0.35350997E-01 0.12499767E+03</pdfrwt>
<totfact> 0.82802061E+03</totfact>
</mgrwt>
</event>
<event>
 5    1  0.3486589E-002  0.1250076E+03  0.7818608E-02  0.1235057E+00
          4   -1    0    0  501    0  0.00000000000E+00  0.00000000000E+00  0.88873909254E+02  0.88882982883E+02  0.12700000000E+01 0.  1.
         -4   -1    0    0    0  501 -0.00000000000E+00 -0.00000000000E+00 -0.43937565438E+02  0.43955916060E+02  0.12700000000E+01 0.  1.
         25    2    1    2    0    0  0.00000000000E+00  0.00000000000E+00  0.44936343816E+02  0.13283889894E+03  0.12500759208E+03 0.  0.
    9000005    1    3    3    0    0  0.29123669216E+02  0.35307404523E+02 -0.22752700989E+02  0.51122268387E+02  0.10000000000E+01 0.  0.
    9000005    1    3    3    0    0 -0.29123669216E+02 -0.35307404523E+02  0.67689044805E+02  0.81716630555E+02  0.10000000000E+01 0.  0.
<mgrwt>
<rscale>  0 0.12500759E+03</rscale>
<asrwt>0</asrwt>
<pdfrwt beam="1">  1        4 0.13675019E-01 0.12500759E+03</pdfrwt>
<pdfrwt beam="2">  1       -4 0.67617350E-02 0.12500759E+03</pdfrwt>
<totfact> 0.10282064E+04</totfact>
</mgrwt>
</event>
<event>
 5    1  0.3486589E-002  0.1250003E+03  0.7818608E-02  0.1235069E+00
         -4   -1    0    0    0  501 -0.00000000000E+00  0.00000000000E+00  0.42356468774E+02  0.42375504091E+02  0.12700000000E+01 0. -1.
          4   -1    0    0  501    0  0.00000000000E+00 -0.00000000000E+00 -0.92179591020E+02  0.92188339287E+02  0.12700000000E+01 0. -1.
         25    2    1    2    0    0  0.00000000000E+00  0.00000000000E+00 -0.49823122246E+02  0.13456384338E+03  0.12500033774E+03 0.  0.
    9000005    1    3    3    0    0  0.14109538842E+02 -0.40745355600E+02 -0.73605046575E+02  0.85310995602E+02  0.10000000000E+01 0.  0.
    9000005    1    3    3    0    0 -0.14109538842E+02  0.40745355600E+02  0.23781924329E+02  0.49252847776E+02  0.10000000000E+01 0.  0.
<mgrwt>
<rscale>  0 0.12500034E+03</rscale>
<asrwt>0</asrwt>
<pdfrwt beam="2">  1        4 0.14183613E-01 0.12500034E+03</pdfrwt>
<pdfrwt beam="1">  1       -4 0.65185171E-02 0.12500034E+03</pdfrwt>
<totfact> 0.10247194E+04</totfact>
</mgrwt>
</event>
<event>
 5    1  0.3486589E-002  0.1249996E+03  0.7818608E-02  0.1235070E+00
          4   -1    0    0  501    0  0.00000000000E+00  0.00000000000E+00  0.68648469976E+02  0.68660216502E+02  0.12700000000E+01 0.  1.
         -4   -1    0    0    0  501 -0.00000000000E+00 -0.00000000000E+00 -0.56878123563E+02  0.56892300358E+02  0.12700000000E+01 0.  1.
         25    2    1    2    0    0  0.00000000000E+00  0.00000000000E+00  0.11770346413E+02  0.12555251686E+03  0.12499957374E+03 0.  0.
    9000005    1    3    3    0    0  0.46745529121E+02  0.49860655064E+01 -0.35469983496E+02  0.58899279039E+02  0.10000000000E+01 0.  0.
    9000005    1    3    3    0    0 -0.46745529121E+02 -0.49860655064E+01  0.47240329909E+02  0.66653237821E+02  0.10000000000E+01 0.  0.
<mgrwt>
<rscale>  0 0.12499957E+03</rscale>
<asrwt>0</asrwt>
<pdfrwt beam="1">  1        4 0.10563297E-01 0.12499957E+03</pdfrwt>
<pdfrwt beam="2">  1       -4 0.87524747E-02 0.12499957E+03</pdfrwt>
<totfact> 0.10440895E+04</totfact>
</mgrwt>
</event>
<event>
 5    1  0.3486589E-002  0.1249990E+03  0.7818608E-02  0.1235071E+00
         -4   -1    0    0    0  501 -0.00000000000E+00  0.00000000000E+00  0.20757666019E+03  0.20758054523E+03  0.12700000000E+01 0. -1.
          4   -1    0    0  501    0  0.00000000000E+00 -0.00000000000E+00 -0.18792562379E+02  0.18835426748E+02  0.12700000000E+01 0. -1.
         25    2    1    2    0    0  0.00000000000E+00  0.00000000000E+00  0.18878409781E+03  0.22641597198E+03  0.12499902711E+03 0.  0.
    9000005    1    3    3    0    0  0.40282659018E+02 -0.47751662560E+02  0.97124294432E+02  0.11548611373E+03  0.10000000000E+01 0.  0.
    9000005    1    3    3    0    0 -0.40282659018E+02  0.47751662560E+02  0.91659803382E+02  0.11092985825E+03  0.10000000000E+01 0.  0.
<mgrwt>
<rscale>  0 0.12499903E+03</rscale>
<asrwt>0</asrwt>
<pdfrwt beam="2">  1        4 0.28947596E-02 0.12499903E+03</pdfrwt>
<pdfrwt beam="1">  1       -4 0.31938466E-01 0.12499903E+03</pdfrwt>
<totfact> 0.85864847E+03</totfact>
</mgrwt>
</event>
<event>
 5    1  0.3486589E-002  0.1250003E+03  0.7818608E-02  0.1235069E+00
          4   -1    0    0  501    0  0.00000000000E+00  0.00000000000E+00  0.13831783502E+03  0.13832366531E+03  0.12700000000E+01 0. -1.
         -4   -1    0    0    0  501 -0.00000000000E+00 -0.00000000000E+00 -0.28220538886E+02  0.28249101137E+02  0.12700000000E+01 0. -1.
         25    2    1    2    0    0  0.00000000000E+00  0.00000000000E+00  0.11009729614E+03  0.16657276645E+03  0.12500028762E+03 0.  0.
    9000005    1    3    3    0    0 -0.40490153516E+02 -0.38242857975E+02  0.17279980009E+02  0.58322949402E+02  0.10000000000E+01 0.  0.
    9000005    1    3    3    0    0  0.40490153516E+02  0.38242857975E+02  0.92817316127E+02  0.10824981705E+03  0.10000000000E+01 0.  0.
<mgrwt>
<rscale>  0 0.12500029E+03</rscale>
<asrwt>0</asrwt>
<pdfrwt beam="1">  1        4 0.21282313E-01 0.12500029E+03</pdfrwt>
<pdfrwt beam="2">  1       -4 0.43442669E-02 0.12500029E+03</pdfrwt>
<totfact> 0.96089741E+03</totfact>
</mgrwt>
</event>
<event>
 5    1  0.3486589E-002  0.1250013E+03  0.7818608E-02  0.1235067E+00
          4   -1    0    0  501    0  0.00000000000E+00  0.00000000000E+00  0.32283659302E+01  0.34691852904E+01  0.12700000000E+01 0. -1.
         -4   -1    0    0    0  501 -0.00000000000E+00 -0.00000000000E+00 -0.11662538040E+04  0.11662544955E+04  0.12700000000E+01 0. -1.
         25    2    1    2    0    0  0.00000000000E+00  0.00000000000E+00 -0.11630254380E+04  0.11697236807E+04  0.12500127909E+03 0.  0.
    9000005    1    3    3    0    0  0.38960056113E+02  0.33970847868E+02 -0.91015639577E+03  0.91162358967E+03  0.10000000000E+01 0.  0.
    9000005    1    3    3    0    0 -0.38960056113E+02 -0.33970847868E+02 -0.25286904227E+03  0.25810009108E+03  0.10000000000E+01 0.  0.
<mgrwt>
<rscale>  0 0.12500128E+03</rscale>
<asrwt>0</asrwt>
<pdfrwt beam="1">  1        4 0.51525037E-03 0.12500128E+03</pdfrwt>
<pdfrwt beam="2">  1       -4 0.17944192E+00 0.12500128E+03</pdfrwt>
<totfact> 0.25518611E+03</totfact>
</mgrwt>
</event>
<event>
 5    1  0.3486589E-002  0.1250027E+03  0.7818608E-02  0.1235065E+00
         -4   -1    0    0    0  501 -0.00000000000E+00  0.00000000000E+00  0.30306879815E+03  0.30307145908E+03  0.12700000000E+01 0.  1.
          4   -1    0    0  501    0  0.00000000000E+00 -0.00000000000E+00 -0.12855533305E+02  0.12918112732E+02  0.12700000000E+01 0.  1.
         25    2    1    2    0    0  0.00000000000E+00  0.00000000000E+00  0.29021326484E+03  0.31598957182E+03  0.12500268159E+03 0.  0.
    9000005    1    3    3    0    0  0.12067929264E+02 -0.10498885675E+02  0.29781872974E+03  0.29824965599E+03  0.10000000000E+01 0.  0.
    9000005    1    3    3    0    0 -0.12067929264E+02  0.10498885675E+02 -0.76054648945E+01  0.17739915823E+02  0.10000000000E+01 0.  0.
<mgrwt>
<rscale>  0 0.12500268E+03</rscale>
<asrwt>0</asrwt>
<pdfrwt beam="2">  1        4 0.19827928E-02 0.12500268E+03</pdfrwt>
<pdfrwt beam="1">  1       -4 0.46630989E-01 0.12500268E+03</pdfrwt>
<totfact> 0.73631284E+03</totfact>
</mgrwt>
</event>
<event>
 5    1  0.3486589E-002  0.1249693E+03  0.7818608E-02  0.1235117E+00
          4   -1    0    0  501    0  0.00000000000E+00  0.00000000000E+00  0.20029633120E+03  0.20030035744E+03  0.12700000000E+01 0.  1.
         -4   -1    0    0    0  501 -0.00000000000E+00 -0.00000000000E+00 -0.19467866325E+02  0.19509247019E+02  0.12700000000E+01 0.  1.
         25    2    1    2    0    0  0.00000000000E+00  0.00000000000E+00  0.18082846487E+03  0.21980960446E+03  0.12496931025E+03 0.  0.
    9000005    1    3    3    0    0  0.18829802149E+02  0.43655110828E+02  0.16170976785E+03  0.16855675355E+03  0.10000000000E+01 0.  0.
    9000005    1    3    3    0    0 -0.18829802149E+02 -0.43655110828E+02  0.19118697025E+02  0.51252850909E+02  0.10000000000E+01 0.  0.
<mgrwt>
<rscale>  0 0.12496931E+03</rscale>
<asrwt>0</asrwt>
<pdfrwt beam="1">  1        4 0.30818312E-01 0.12496931E+03</pdfrwt>
<pdfrwt beam="2">  1       -4 0.29985493E-02 0.12496931E+03</pdfrwt>
<totfact> 0.86958084E+03</totfact>
</mgrwt>
</event>
<event>
 5    1  0.3486589E-002  0.1249994E+03  0.7818608E-02  0.1235070E+00
          4   -1    0    0  501    0  0.00000000000E+00  0.00000000000E+00  0.14395223686E+03  0.14395783896E+03  0.12700000000E+01 0.  1.
         -4   -1    0    0    0  501 -0.00000000000E+00 -0.00000000000E+00 -0.27114463799E+02  0.27144189932E+02  0.12700000000E+01 0.  1.
         25    2    1    2    0    0  0.00000000000E+00  0.00000000000E+00  0.11683777306E+03  0.17110202889E+03  0.12499935630E+03 0.  0.
    9000005    1    3    3    0    0  0.48452258586E+02 -0.36794592367E+02  0.38880336432E+02  0.72209029565E+02  0.10000000000E+01 0.  0.
    9000005    1    3    3    0    0 -0.48452258586E+02  0.36794592367E+02  0.77957436632E+02  0.98892999326E+02  0.10000000000E+01 0.  0.
<mgrwt>
<rscale>  0 0.12499936E+03</rscale>
<asrwt>0</asrwt>
<pdfrwt beam="1">  1        4 0.22149216E-01 0.12499936E+03</pdfrwt>
<pdfrwt beam="2">  1       -4 0.41741735E-02 0.12499936E+03</pdfrwt>
<totfact> 0.95245007E+03</totfact>
</mgrwt>
</event>
<event>
 5    1  0.3486589E-002  0.1249990E+03  0.7818608E-02  0.1235071E+00
         -4   -1    0    0    0  501 -0.00000000000E+00  0.00000000000E+00  0.17600067395E+03  0.17600525597E+03  0.12700000000E+01 0.  1.
          4   -1    0    0  501    0  0.00000000000E+00 -0.00000000000E+00 -0.22171135740E+02  0.22207479821E+02  0.12700000000E+01 0.  1.
         25    2    1    2    0    0  0.00000000000E+00  0.00000000000E+00  0.15382953821E+03  0.19821273579E+03  0.12499904722E+03 0.  0.
    9000005    1    3    3    0    0 -0.31891618229E+02  0.20286384541E+02  0.15582818369E+03  0.16034972885E+03  0.10000000000E+01 0.  0.
    9000005    1    3    3    0    0  0.31891618229E+02 -0.20286384541E+02 -0.19986454804E+01  0.37863006943E+02  0.10000000000E+01 0.  0.
<mgrwt>
<rscale>  0 0.12499905E+03</rscale>
<asrwt>0</asrwt>
<pdfrwt beam="2">  1        4 0.34140923E-02 0.12499905E+03</pdfrwt>
<pdfrwt beam="1">  1       -4 0.27080174E-01 0.12499905E+03</pdfrwt>
<totfact> 0.90439565E+03</totfact>
</mgrwt>
</event>
<event>
 5    1  0.3486589E-002  0.1250015E+03  0.7818608E-02  0.1235067E+00
         -4   -1    0    0    0  501 -0.00000000000E+00  0.00000000000E+00  0.96829282649E+02  0.96837610866E+02  0.12700000000E+01 0. -1.
          4   -1    0    0  501    0  0.00000000000E+00 -0.00000000000E+00 -0.40322553425E+02  0.40342548441E+02  0.12700000000E+01 0. -1.
         25    2    1    2    0    0  0.00000000000E+00  0.00000000000E+00  0.56506729224E+02  0.13718015931E+03  0.12500154263E+03 0.  0.
    9000005    1    3    3    0    0 -0.58147328758E+02  0.65116456271E+01  0.52342666859E+02  0.78512853371E+02  0.10000000000E+01 0.  0.
    9000005    1    3    3    0    0  0.58147328758E+02 -0.65116456271E+01  0.41640623645E+01  0.58667305936E+02  0.10000000000E+01 0.  0.
<mgrwt>
<rscale>  0 0.12500154E+03</rscale>
<asrwt>0</asrwt>
<pdfrwt beam="2">  1        4 0.62056485E-02 0.12500154E+03</pdfrwt>
<pdfrwt beam="1">  1       -4 0.14898991E-01 0.12500154E+03</pdfrwt>
<totfact> 0.10191966E+04</totfact>
</mgrwt>
</event>
<event>
 5    1  0.3486589E-002  0.1250045E+03  0.7818608E-02  0.1235062E+00
         -4   -1    0    0    0  501 -0.00000000000E+00  0.00000000000E+00  0.30438326265E+03  0.30438591209E+03  0.12700000000E+01 0. -1.
          4   -1    0    0  501    0  0.00000000000E+00 -0.00000000000E+00 -0.12800125251E+02  0.12862974246E+02  0.12700000000E+01 0. -1.
         25    2    1    2    0    0  0.00000000000E+00  0.00000000000E+00  0.29158313740E+03  0.31724888634E+03  0.12500451939E+03 0.  0.
    9000005    1    3    3    0    0  0.57701858542E+02  0.10216442618E+01  0.84935715075E+02  0.10269188834E+03  0.10000000000E+01 0.  0.
    9000005    1    3    3    0    0 -0.57701858542E+02 -0.10216442618E+01  0.20664742232E+03  0.21455699799E+03  0.10000000000E+01 0.  0.
<mgrwt>
<rscale>  0 0.12500452E+03</rscale>
<asrwt>0</asrwt>
<pdfrwt beam="2">  1        4 0.19742885E-02 0.12500452E+03</pdfrwt>
<pdfrwt beam="1">  1       -4 0.46833229E-01 0.12500452E+03</pdfrwt>
<totfact> 0.73477171E+03</totfact>
</mgrwt>
</event>
<event>
 5    1  0.3486589E-002  0.1250011E+03  0.7818608E-02  0.1235068E+00
          4   -1    0    0  501    0  0.00000000000E+00  0.00000000000E+00  0.15673357968E+02  0.15724727343E+02  0.12700000000E+01 0. -1.
         -4   -1    0    0    0  501 -0.00000000000E+00 -0.00000000000E+00 -0.24877219068E+03  0.24877543238E+03  0.12700000000E+01 0. -1.
         25    2    1    2    0    0  0.00000000000E+00  0.00000000000E+00 -0.23309883271E+03  0.26450015972E+03  0.12500107472E+03 0.  0.
    9000005    1    3    3    0    0  0.45995945317E+02 -0.42167964872E+02 -0.12374155641E+03  0.13858837263E+03  0.10000000000E+01 0.  0.
    9000005    1    3    3    0    0 -0.45995945317E+02  0.42167964872E+02 -0.10935727630E+03  0.12591178709E+03  0.10000000000E+01 0.  0.
<mgrwt>
<rscale>  0 0.12500107E+03</rscale>
<asrwt>0</asrwt>
<pdfrwt beam="1">  1        4 0.24154869E-02 0.12500107E+03</pdfrwt>
<pdfrwt beam="2">  1       -4 0.38276843E-01 0.12500107E+03</pdfrwt>
<totfact> 0.80276727E+03</totfact>
</mgrwt>
</event>
<event>
 5    1  0.3486589E-002  0.1250030E+03  0.7818608E-02  0.1235065E+00
          4   -1    0    0  501    0  0.00000000000E+00  0.00000000000E+00  0.55878473040E+01  0.57303523010E+01  0.12700000000E+01 0.  1.
         -4   -1    0    0    0  501 -0.00000000000E+00 -0.00000000000E+00 -0.69015023180E+03  0.69015140031E+03  0.12700000000E+01 0.  1.
         25    2    1    2    0    0  0.00000000000E+00  0.00000000000E+00 -0.68456238449E+03  0.69588175261E+03  0.12500302138E+03 0.  0.
    9000005    1    3    3    0    0  0.72249247662E+01 -0.30062504861E+01 -0.68743925667E+03  0.68748452251E+03  0.10000000000E+01 0.  0.
    9000005    1    3    3    0    0 -0.72249247662E+01  0.30062504861E+01  0.28768721761E+01  0.83972301016E+01  0.10000000000E+01 0.  0.
<mgrwt>
<rscale>  0 0.12500302E+03</rscale>
<asrwt>0</asrwt>
<pdfrwt beam="1">  1        4 0.87072117E-03 0.12500302E+03</pdfrwt>
<pdfrwt beam="2">  1       -4 0.10618794E+00 0.12500302E+03</pdfrwt>
<totfact> 0.43302137E+03</totfact>
</mgrwt>
</event>
<event>
 5    1  0.3486589E-002  0.1249998E+03  0.7818608E-02  0.1235070E+00
         -4   -1    0    0    0  501 -0.00000000000E+00  0.00000000000E+00  0.91513160843E+03  0.91513248967E+03  0.12700000000E+01 0. -1.
          4   -1    0    0  501    0  0.00000000000E+00 -0.00000000000E+00 -0.41731302052E+01  0.43620999197E+01  0.12700000000E+01 0. -1.
         25    2    1    2    0    0  0.00000000000E+00  0.00000000000E+00  0.91095847823E+03  0.91949458959E+03  0.12499980493E+03 0.  0.
    9000005    1    3    3    0    0  0.55479500641E+02  0.22791949108E+02  0.32642656563E+03  0.33189267947E+03  0.10000000000E+01 0.  0.
    9000005    1    3    3    0    0 -0.55479500641E+02 -0.22791949108E+02  0.58453191260E+03  0.58760191013E+03  0.10000000000E+01 0.  0.
<mgrwt>
<rscale>  0 0.12499980E+03</rscale>
<asrwt>0</asrwt>
<pdfrwt beam="2">  1        4 0.65662437E-03 0.12499980E+03</pdfrwt>
<pdfrwt beam="1">  1       -4 0.14080399E+00 0.12499980E+03</pdfrwt>
<totfact> 0.33424525E+03</totfact>
</mgrwt>
</event>
<event>
 5    1  0.3486589E-002  0.1249991E+03  0.7818608E-02  0.1235071E+00
          4   -1    0    0  501    0  0.00000000000E+00  0.00000000000E+00  0.52729891509E+03  0.52730044449E+03  0.12700000000E+01 0.  1.
         -4   -1    0    0    0  501 -0.00000000000E+00 -0.00000000000E+00 -0.73519454380E+01  0.74608311684E+01  0.12700000000E+01 0.  1.
         25    2    1    2    0    0  0.00000000000E+00  0.00000000000E+00  0.51994696966E+03  0.53476127566E+03  0.12499908275E+03 0.  0.
    9000005    1    3    3    0    0 -0.21212132761E+02  0.50209388851E+02  0.12921016883E+03  0.14023981259E+03  0.10000000000E+01 0.  0.
    9000005    1    3    3    0    0  0.21212132761E+02 -0.50209388851E+02  0.39073680082E+03  0.39452146307E+03  0.10000000000E+01 0.  0.
<mgrwt>
<rscale>  0 0.12499908E+03</rscale>
<asrwt>0</asrwt>
<pdfrwt beam="1">  1        4 0.81131400E-01 0.12499908E+03</pdfrwt>
<pdfrwt beam="2">  1       -4 0.11395620E-02 0.12499908E+03</pdfrwt>
<totfact> 0.53265782E+03</totfact>
</mgrwt>
</event>
<event>
 5    1  0.3486589E-002  0.1250007E+03  0.7818608E-02  0.1235068E+00
         -4   -1    0    0    0  501 -0.00000000000E+00  0.00000000000E+00  0.34399956654E+03  0.34400191087E+03  0.12700000000E+01 0. -1.
          4   -1    0    0  501    0  0.00000000000E+00 -0.00000000000E+00 -0.11317625531E+02  0.11388658729E+02  0.12700000000E+01 0. -1.
         25    2    1    2    0    0  0.00000000000E+00  0.00000000000E+00  0.33268194101E+03  0.35539056960E+03  0.12500073233E+03 0.  0.
    9000005    1    3    3    0    0 -0.37758394731E+02 -0.44392024070E+02  0.23048110648E+03  0.23773701567E+03  0.10000000000E+01 0.  0.
    9000005    1    3    3    0    0  0.37758394731E+02  0.44392024070E+02  0.10220083453E+03  0.11765355393E+03  0.10000000000E+01 0.  0.
<mgrwt>
<rscale>  0 0.12500073E+03</rscale>
<asrwt>0</asrwt>
<pdfrwt beam="2">  1        4 0.17468178E-02 0.12500073E+03</pdfrwt>
<pdfrwt beam="1">  1       -4 0.52928649E-01 0.12500073E+03</pdfrwt>
<totfact> 0.69134452E+03</totfact>
</mgrwt>
</event>
<event>
 5    1  0.3486589E-002  0.1250103E+03  0.7818608E-02  0.1235053E+00
         -4   -1    0    0    0  501 -0.00000000000E+00  0.00000000000E+00  0.12185530394E+03  0.12186192186E+03  0.12700000000E+01 0. -1.
          4   -1    0    0  501    0  0.00000000000E+00 -0.00000000000E+00 -0.32041671344E+02  0.32066830253E+02  0.12700000000E+01 0. -1.
         25    2    1    2    0    0  0.00000000000E+00  0.00000000000E+00  0.89813632598E+02  0.15392875211E+03  0.12501028808E+03 0.  0.
    9000005    1    3    3    0    0 -0.51964519840E+02 -0.22751364346E+02  0.77203258334E+02  0.95808553893E+02  0.10000000000E+01 0.  0.
    9000005    1    3    3    0    0  0.51964519840E+02  0.22751364346E+02  0.12610374264E+02  0.58120198218E+02  0.10000000000E+01 0.  0.
<mgrwt>
<rscale>  0 0.12501029E+03</rscale>
<asrwt>0</asrwt>
<pdfrwt beam="2">  1        4 0.49319322E-02 0.12501029E+03</pdfrwt>
<pdfrwt beam="1">  1       -4 0.18749415E-01 0.12501029E+03</pdfrwt>
<totfact> 0.98503413E+03</totfact>
</mgrwt>
</event>
<event>
 5    1  0.3486589E-002  0.1249963E+03  0.7818608E-02  0.1235075E+00
         -4   -1    0    0    0  501 -0.00000000000E+00  0.00000000000E+00  0.29010375234E+02  0.29038160603E+02  0.12700000000E+01 0. -1.
          4   -1    0    0  501    0  0.00000000000E+00 -0.00000000000E+00 -0.13454684785E+03  0.13455284154E+03  0.12700000000E+01 0. -1.
         25    2    1    2    0    0  0.00000000000E+00  0.00000000000E+00 -0.10553647262E+03  0.16359100215E+03  0.12499627567E+03 0.  0.
    9000005    1    3    3    0    0 -0.29504416185E+02 -0.49696663708E+02 -0.21666130391E+02  0.61730787815E+02  0.10000000000E+01 0.  0.
    9000005    1    3    3    0    0  0.29504416185E+02  0.49696663708E+02 -0.83870342227E+02  0.10186021433E+03  0.10000000000E+01 0.  0.
<mgrwt>
<rscale>  0 0.12499628E+03</rscale>
<asrwt>0</asrwt>
<pdfrwt beam="2">  1        4 0.20702113E-01 0.12499628E+03</pdfrwt>
<pdfrwt beam="1">  1       -4 0.44657331E-02 0.12499628E+03</pdfrwt>
<totfact> 0.96662990E+03</totfact>
</mgrwt>
</event>
<event>
 5    1  0.3486589E-002  0.1249890E+03  0.7818608E-02  0.1235086E+00
         -4   -1    0    0    0  501 -0.00000000000E+00  0.00000000000E+00  0.68474454887E+02  0.68486231259E+02  0.12700000000E+01 0. -1.
          4   -1    0    0  501    0  0.00000000000E+00 -0.00000000000E+00 -0.57013030945E+02  0.57027174203E+02  0.12700000000E+01 0. -1.
         25    2    1    2    0    0  0.00000000000E+00  0.00000000000E+00  0.11461423941E+02  0.12551340546E+03  0.12498900236E+03 0.  0.
    9000005    1    3    3    0    0  0.47564373372E+02  0.40514246662E+02  0.66226282275E+01  0.62838149253E+02  0.10000000000E+01 0.  0.
    9000005    1    3    3    0    0 -0.47564373372E+02 -0.40514246662E+02  0.48387957139E+01  0.62675256209E+02  0.10000000000E+01 0.  0.
<mgrwt>
<rscale>  0 0.12498900E+03</rscale>
<asrwt>0</asrwt>
<pdfrwt beam="2">  1        4 0.87732293E-02 0.12498900E+03</pdfrwt>
<pdfrwt beam="1">  1       -4 0.10536525E-01 0.12498900E+03</pdfrwt>
<totfact> 0.10444249E+04</totfact>
</mgrwt>
</event>
<event>
 5    1  0.3486589E-002  0.1250018E+03  0.7818608E-02  0.1235067E+00
          4   -1    0    0  501    0  0.00000000000E+00  0.00000000000E+00  0.12655395200E+03  0.12656032422E+03  0.12700000000E+01 0.  1.
         -4   -1    0    0    0  501 -0.00000000000E+00 -0.00000000000E+00 -0.30846942328E+02  0.30873074854E+02  0.12700000000E+01 0.  1.
         25    2    1    2    0    0  0.00000000000E+00  0.00000000000E+00  0.95707009671E+02  0.15743339907E+03  0.12500177376E+03 0.  0.
    9000005    1    3    3    0    0  0.59386147318E+02  0.72318732301E+01  0.70605531842E+02  0.92548125915E+02  0.10000000000E+01 0.  0.
    9000005    1    3    3    0    0 -0.59386147318E+02 -0.72318732301E+01  0.25101477829E+02  0.64885273159E+02  0.10000000000E+01 0.  0.
<mgrwt>
<rscale>  0 0.12500177E+03</rscale>
<asrwt>0</asrwt>
<pdfrwt beam="1">  1        4 0.19472339E-01 0.12500177E+03</pdfrwt>
<pdfrwt beam="2">  1       -4 0.47481838E-02 0.12500177E+03</pdfrwt>
<totfact> 0.97835998E+03</totfact>
</mgrwt>
</event>
<event>
 5    1  0.3486589E-002  0.1250092E+03  0.7818608E-02  0.1235055E+00
          4   -1    0    0  501    0  0.00000000000E+00  0.00000000000E+00  0.11720076010E+02  0.11788684476E+02  0.12700000000E+01 0. -1.
         -4   -1    0    0    0  501 -0.00000000000E+00 -0.00000000000E+00 -0.33230226583E+03  0.33230469268E+03  0.12700000000E+01 0. -1.
         25    2    1    2    0    0  0.00000000000E+00  0.00000000000E+00 -0.32058218982E+03  0.34409337715E+03  0.12500924674E+03 0.  0.
    9000005    1    3    3    0    0  0.54546572399E+02  0.28523566524E+02 -0.13052980759E+03  0.14431892834E+03  0.10000000000E+01 0.  0.
    9000005    1    3    3    0    0 -0.54546572399E+02 -0.28523566524E+02 -0.19005238223E+03  0.19977444881E+03  0.10000000000E+01 0.  0.
<mgrwt>
<rscale>  0 0.12500925E+03</rscale>
<asrwt>0</asrwt>
<pdfrwt beam="1">  1        4 0.18085531E-02 0.12500925E+03</pdfrwt>
<pdfrwt beam="2">  1       -4 0.51128883E-01 0.12500925E+03</pdfrwt>
<totfact> 0.70364880E+03</totfact>
</mgrwt>
</event>
<event>
 5    1  0.3486589E-002  0.1250202E+03  0.7818608E-02  0.1235038E+00
         -4   -1    0    0    0  501 -0.00000000000E+00  0.00000000000E+00  0.11010083224E+03  0.11010815665E+03  0.12700000000E+01 0.  1.
          4   -1    0    0  501    0  0.00000000000E+00 -0.00000000000E+00 -0.35470411952E+02  0.35493140521E+02  0.12700000000E+01 0.  1.
         25    2    1    2    0    0  0.00000000000E+00  0.00000000000E+00  0.74630420292E+02  0.14560129717E+03  0.12502015079E+03 0.  0.
    9000005    1    3    3    0    0 -0.20025082065E+02 -0.30750187479E+02  0.96240184898E+02  0.10300364620E+03  0.10000000000E+01 0.  0.
    9000005    1    3    3    0    0  0.20025082065E+02  0.30750187479E+02 -0.21609764606E+02  0.42597650968E+02  0.10000000000E+01 0.  0.
<mgrwt>
<rscale>  0 0.12502015E+03</rscale>
<asrwt>0</asrwt>
<pdfrwt beam="2">  1        4 0.54592983E-02 0.12502015E+03</pdfrwt>
<pdfrwt beam="1">  1       -4 0.16940901E-01 0.12502015E+03</pdfrwt>
<totfact> 0.10014241E+04</totfact>
</mgrwt>
</event>
<event>
 5    1  0.3486589E-002  0.1249968E+03  0.7818608E-02  0.1235074E+00
          4   -1    0    0  501    0  0.00000000000E+00  0.00000000000E+00  0.59492331592E+03  0.59492467147E+03  0.12700000000E+01 0.  1.
         -4   -1    0    0    0  501 -0.00000000000E+00 -0.00000000000E+00 -0.65028430637E+01  0.66256975415E+01  0.12700000000E+01 0.  1.
         25    2    1    2    0    0  0.00000000000E+00  0.00000000000E+00  0.58842047285E+03  0.60155036901E+03  0.12499677429E+03 0.  0.
    9000005    1    3    3    0    0  0.31127506855E+02 -0.25647975908E+02  0.52391997828E+03  0.52547110671E+03  0.10000000000E+01 0.  0.
    9000005    1    3    3    0    0 -0.31127506855E+02  0.25647975908E+02  0.64500494576E+02  0.76079262298E+02  0.10000000000E+01 0.  0.
<mgrwt>
<rscale>  0 0.12499677E+03</rscale>
<asrwt>0</asrwt>
<pdfrwt beam="1">  1        4 0.91536209E-01 0.12499677E+03</pdfrwt>
<pdfrwt beam="2">  1       -4 0.10099921E-02 0.12499677E+03</pdfrwt>
<totfact> 0.48773346E+03</totfact>
</mgrwt>
</event>
<event>
 5    1  0.3486589E-002  0.1249954E+03  0.7818608E-02  0.1235076E+00
          4   -1    0    0  501    0  0.00000000000E+00  0.00000000000E+00  0.15929255269E+02  0.15979802046E+02  0.12700000000E+01 0.  1.
         -4   -1    0    0    0  501 -0.00000000000E+00 -0.00000000000E+00 -0.24476629517E+03  0.24476958992E+03  0.12700000000E+01 0.  1.
         25    2    1    2    0    0  0.00000000000E+00  0.00000000000E+00 -0.22883703990E+03  0.26074939197E+03  0.12499541824E+03 0.  0.
    9000005    1    3    3    0    0  0.61444018202E+02 -0.18851215250E+01 -0.13783857270E+03  0.15092843728E+03  0.10000000000E+01 0.  0.
    9000005    1    3    3    0    0 -0.61444018202E+02  0.18851215250E+01 -0.90998467205E+02  0.10982095469E+03  0.10000000000E+01 0.  0.
<mgrwt>
<rscale>  0 0.12499542E+03</rscale>
<asrwt>0</asrwt>
<pdfrwt beam="1">  1        4 0.24547965E-02 0.12499542E+03</pdfrwt>
<pdfrwt beam="2">  1       -4 0.37660492E-01 0.12499542E+03</pdfrwt>
<totfact> 0.80809251E+03</totfact>
</mgrwt>
</event>
<event>
 5    1  0.3486589E-002  0.1249991E+03  0.7818608E-02  0.1235071E+00
          4   -1    0    0  501    0  0.00000000000E+00  0.00000000000E+00  0.15271831714E+02  0.15324547103E+02  0.12700000000E+01 0. -1.
         -4   -1    0    0    0  501 -0.00000000000E+00 -0.00000000000E+00 -0.25528256010E+03  0.25528571913E+03  0.12700000000E+01 0. -1.
         25    2    1    2    0    0  0.00000000000E+00  0.00000000000E+00 -0.24001072839E+03  0.27061026623E+03  0.12499906580E+03 0.  0.
    9000005    1    3    3    0    0 -0.46857663785E+02  0.12579284805E+02 -0.34737152570E+02  0.59678713376E+02  0.10000000000E+01 0.  0.
    9000005    1    3    3    0    0  0.46857663785E+02 -0.12579284805E+02 -0.20527357582E+03  0.21093155286E+03  0.10000000000E+01 0.  0.
<mgrwt>
<rscale>  0 0.12499907E+03</rscale>
<asrwt>0</asrwt>
<pdfrwt beam="1">  1        4 0.23538108E-02 0.12499907E+03</pdfrwt>
<pdfrwt beam="2">  1       -4 0.39278535E-01 0.12499907E+03</pdfrwt>
<totfact> 0.79441392E+03</totfact>
</mgrwt>
</event>
<event>
 5    1  0.3486589E-002  0.1249965E+03  0.7818608E-02  0.1235075E+00
          4   -1    0    0  501    0  0.00000000000E+00  0.00000000000E+00  0.29202278863E+03  0.29202555021E+03  0.12700000000E+01 0.  1.
         -4   -1    0    0    0  501 -0.00000000000E+00 -0.00000000000E+00 -0.13342805276E+02  0.13403109812E+02  0.12700000000E+01 0.  1.
         25    2    1    2    0    0  0.00000000000E+00  0.00000000000E+00  0.27867998335E+03  0.30542866003E+03  0.12499653293E+03 0.  0.
    9000005    1    3    3    0    0  0.56153726411E+02 -0.22191617565E+02  0.99991006441E+02  0.11681143030E+03  0.10000000000E+01 0.  0.
    9000005    1    3    3    0    0 -0.56153726411E+02  0.22191617565E+02  0.17868897691E+03  0.18861722972E+03  0.10000000000E+01 0.  0.
<mgrwt>
<rscale>  0 0.12499653E+03</rscale>
<asrwt>0</asrwt>
<pdfrwt beam="1">  1        4 0.44931433E-01 0.12499653E+03</pdfrwt>
<pdfrwt beam="2">  1       -4 0.20575906E-02 0.12499653E+03</pdfrwt>
<totfact> 0.74928649E+03</totfact>
</mgrwt>
</event>
<event>
 5    1  0.3486589E-002  0.1250054E+03  0.7818608E-02  0.1235061E+00
         -4   -1    0    0    0  501 -0.00000000000E+00  0.00000000000E+00  0.20183610758E+03  0.20184010311E+03  0.12700000000E+01 0.  1.
          4   -1    0    0  501    0  0.00000000000E+00 -0.00000000000E+00 -0.19330211154E+02  0.19371885898E+02  0.12700000000E+01 0.  1.
         25    2    1    2    0    0  0.00000000000E+00  0.00000000000E+00  0.18250589643E+03  0.22121198901E+03  0.12500536729E+03 0.  0.
    9000005    1    3    3    0    0  0.53996918327E+02 -0.23278336794E+02  0.53795594617E+02  0.79702660889E+02  0.10000000000E+01 0.  0.
    9000005    1    3    3    0    0 -0.53996918327E+02  0.23278336794E+02  0.12871030181E+03  0.14150932812E+03  0.10000000000E+01 0.  0.
<mgrwt>
<rscale>  0 0.12500537E+03</rscale>
<asrwt>0</asrwt>
<pdfrwt beam="2">  1        4 0.29773917E-02 0.12500537E+03</pdfrwt>
<pdfrwt beam="1">  1       -4 0.31055222E-01 0.12500537E+03</pdfrwt>
<totfact> 0.86666540E+03</totfact>
</mgrwt>
</event>
<event>
 5    1  0.3486589E-002  0.1250104E+03  0.7818608E-02  0.1235053E+00
         -4   -1    0    0    0  501 -0.00000000000E+00  0.00000000000E+00  0.15547974120E+02  0.15599756383E+02  0.12700000000E+01 0.  1.
          4   -1    0    0  501    0  0.00000000000E+00 -0.00000000000E+00 -0.25080919419E+03  0.25081240957E+03  0.12700000000E+01 0.  1.
         25    2    1    2    0    0  0.00000000000E+00  0.00000000000E+00 -0.23526122007E+03  0.26641216595E+03  0.12501040155E+03 0.  0.
    9000005    1    3    3    0    0  0.69080514966E+01 -0.49499929038E+01  0.14321286171E+02  0.16683010605E+02  0.10000000000E+01 0.  0.
    9000005    1    3    3    0    0 -0.69080514966E+01  0.49499929038E+01 -0.24958250625E+03  0.24972915534E+03  0.10000000000E+01 0.  0.
<mgrwt>
<rscale>  0 0.12501040E+03</rscale>
<asrwt>0</asrwt>
<pdfrwt beam="2">  1        4 0.38590257E-01 0.12501040E+03</pdfrwt>
<pdfrwt beam="1">  1       -4 0.23962268E-02 0.12501040E+03</pdfrwt>
<totfact> 0.79996028E+03</totfact>
</mgrwt>
</event>
<event>
 5    1  0.3486589E-002  0.1250053E+03  0.7818608E-02  0.1235061E+00
          4   -1    0    0  501    0  0.00000000000E+00  0.00000000000E+00  0.74161236437E+01  0.75240806680E+01  0.12700000000E+01 0.  1.
         -4   -1    0    0    0  501 -0.00000000000E+00 -0.00000000000E+00 -0.52285311894E+03  0.52285466134E+03  0.12700000000E+01 0.  1.
         25    2    1    2    0    0  0.00000000000E+00  0.00000000000E+00 -0.51543699530E+03  0.53037874201E+03  0.12500525531E+03 0.  0.
    9000005    1    3    3    0    0  0.38812282038E+01  0.59392221460E+02 -0.17687257153E+03  0.18662102364E+03  0.10000000000E+01 0.  0.
    9000005    1    3    3    0    0 -0.38812282038E+01 -0.59392221460E+02 -0.33856442376E+03  0.34375771837E+03  0.10000000000E+01 0.  0.
<mgrwt>
<rscale>  0 0.12500526E+03</rscale>
<asrwt>0</asrwt>
<pdfrwt beam="1">  1        4 0.11493655E-02 0.12500526E+03</pdfrwt>
<pdfrwt beam="2">  1       -4 0.80447336E-01 0.12500526E+03</pdfrwt>
<totfact> 0.53575882E+03</totfact>
</mgrwt>
</event>
<event>
 5    1  0.3486589E-002  0.1249968E+03  0.7818608E-02  0.1235074E+00
         -4   -1    0    0    0  501 -0.00000000000E+00  0.00000000000E+00  0.90746467134E+03  0.90746556002E+03  0.12700000000E+01 0. -1.
          4   -1    0    0  501    0  0.00000000000E+00 -0.00000000000E+00 -0.42097665944E+01  0.43971621279E+01  0.12700000000E+01 0. -1.
         25    2    1    2    0    0  0.00000000000E+00  0.00000000000E+00  0.90325490474E+03  0.91186272215E+03  0.12499680437E+03 0.  0.
    9000005    1    3    3    0    0 -0.45749484571E+02 -0.41071177657E+02  0.53325205891E+03  0.53678544625E+03  0.10000000000E+01 0.  0.
    9000005    1    3    3    0    0  0.45749484571E+02  0.41071177657E+02  0.37000284583E+03  0.37507727590E+03  0.10000000000E+01 0.  0.
<mgrwt>
<rscale>  0 0.12499680E+03</rscale>
<asrwt>0</asrwt>
<pdfrwt beam="2">  1        4 0.66213905E-03 0.12499680E+03</pdfrwt>
<pdfrwt beam="1">  1       -4 0.13962459E+00 0.12499680E+03</pdfrwt>
<totfact> 0.33712050E+03</totfact>
</mgrwt>
</event>
<event>
 5    1  0.3486589E-002  0.1250083E+03  0.7818608E-02  0.1235056E+00
          4   -1    0    0  501    0  0.00000000000E+00  0.00000000000E+00  0.12789741505E+03  0.12790372034E+03  0.12700000000E+01 0.  1.
         -4   -1    0    0    0  501 -0.00000000000E+00 -0.00000000000E+00 -0.30525846565E+02  0.30552253739E+02  0.12700000000E+01 0.  1.
         25    2    1    2    0    0  0.00000000000E+00  0.00000000000E+00  0.97371568489E+02  0.15845597408E+03  0.12500829321E+03 0.  0.
    9000005    1    3    3    0    0  0.39423059342E+02  0.46924880835E+02  0.33179677313E+02  0.69699447888E+02  0.10000000000E+01 0.  0.
    9000005    1    3    3    0    0 -0.39423059342E+02 -0.46924880835E+02  0.64191891176E+02  0.88756526194E+02  0.10000000000E+01 0.  0.
<mgrwt>
<rscale>  0 0.12500829E+03</rscale>
<asrwt>0</asrwt>
<pdfrwt beam="1">  1        4 0.19679041E-01 0.12500829E+03</pdfrwt>
<pdfrwt beam="2">  1       -4 0.46988005E-02 0.12500829E+03</pdfrwt>
<totfact> 0.97623087E+03</totfact>
</mgrwt>
</event>
<event>
 5    1  0.3486589E-002  0.1250026E+03  0.7818608E-02  0.1235065E+00
         -4   -1    0    0    0  501 -0.00000000000E+00  0.00000000000E+00  0.37066786191E+01  0.39182095893E+01  0.12700000000E+01 0.  1.
          4   -1    0    0  501    0  0.00000000000E+00 -0.00000000000E+00 -0.10244352367E+04  0.10244360239E+04  0.12700000000E+01 0.  1.
         25    2    1    2    0    0  0.00000000000E+00  0.00000000000E+00 -0.10207285581E+04  0.10283542335E+04  0.12500256110E+03 0.  0.
    9000005    1    3    3    0    0 -0.60597787051E+02  0.54953354640E+01 -0.62761073016E+03  0.63055413655E+03  0.10000000000E+01 0.  0.
    9000005    1    3    3    0    0  0.60597787051E+02 -0.54953354640E+01 -0.39311782792E+03  0.39780009695E+03  0.10000000000E+01 0.  0.
<mgrwt>
<rscale>  0 0.12500256E+03</rscale>
<asrwt>0</asrwt>
<pdfrwt beam="2">  1        4 0.15762153E+00 0.12500256E+03</pdfrwt>
<pdfrwt beam="1">  1       -4 0.58659123E-03 0.12500256E+03</pdfrwt>
<totfact> 0.29678758E+03</totfact>
</mgrwt>
</event>
<event>
 5    1  0.3486589E-002  0.1250080E+03  0.7818608E-02  0.1235057E+00
         -4   -1    0    0    0  501 -0.00000000000E+00  0.00000000000E+00  0.43603751085E+02  0.43622242133E+02  0.12700000000E+01 0.  1.
          4   -1    0    0  501    0  0.00000000000E+00 -0.00000000000E+00 -0.89554671914E+02  0.89563676575E+02  0.12700000000E+01 0.  1.
         25    2    1    2    0    0  0.00000000000E+00  0.00000000000E+00 -0.45950920829E+02  0.13318591871E+03  0.12500800701E+03 0.  0.
    9000005    1    3    3    0    0 -0.33072181328E+02 -0.35994104542E+02  0.18513082795E+02  0.52278857812E+02  0.10000000000E+01 0.  0.
    9000005    1    3    3    0    0  0.33072181328E+02  0.35994104542E+02 -0.64464003623E+02  0.80907060895E+02  0.10000000000E+01 0.  0.
<mgrwt>
<rscale>  0 0.12500801E+03</rscale>
<asrwt>0</asrwt>
<pdfrwt beam="2">  1        4 0.13779757E-01 0.12500801E+03</pdfrwt>
<pdfrwt beam="1">  1       -4 0.67103845E-02 0.12500801E+03</pdfrwt>
<totfact> 0.10274594E+04</totfact>
</mgrwt>
</event>
<event>
 5    1  0.3486589E-002  0.1250010E+03  0.7818608E-02  0.1235068E+00
         -4   -1    0    0    0  501 -0.00000000000E+00  0.00000000000E+00  0.12733656392E+02  0.12796831839E+02  0.12700000000E+01 0.  1.
          4   -1    0    0  501    0  0.00000000000E+00 -0.00000000000E+00 -0.30594701693E+03  0.30594965283E+03  0.12700000000E+01 0.  1.
         25    2    1    2    0    0  0.00000000000E+00  0.00000000000E+00 -0.29321336054E+03  0.31874648467E+03  0.12500098677E+03 0.  0.
    9000005    1    3    3    0    0 -0.49022738648E+02  0.38752627752E+02 -0.14517186856E+03  0.15805336593E+03  0.10000000000E+01 0.  0.
    9000005    1    3    3    0    0  0.49022738648E+02 -0.38752627752E+02 -0.14804149198E+03  0.16069311874E+03  0.10000000000E+01 0.  0.
<mgrwt>
<rscale>  0 0.12500099E+03</rscale>
<asrwt>0</asrwt>
<pdfrwt beam="2">  1        4 0.47073829E-01 0.12500099E+03</pdfrwt>
<pdfrwt beam="1">  1       -4 0.19640867E-02 0.12500099E+03</pdfrwt>
<totfact> 0.73303861E+03</totfact>
</mgrwt>
</event>
<event>
 5    1  0.3486589E-002  0.1249781E+03  0.7818608E-02  0.1235103E+00
          4   -1    0    0  501    0  0.00000000000E+00  0.00000000000E+00  0.12399252958E+02  0.12464123472E+02  0.12700000000E+01 0.  1.
         -4   -1    0    0    0  501 -0.00000000000E+00 -0.00000000000E+00 -0.31404117246E+03  0.31404374042E+03  0.12700000000E+01 0.  1.
         25    2    1    2    0    0  0.00000000000E+00  0.00000000000E+00 -0.30164191950E+03  0.32650786389E+03  0.12497814843E+03 0.  0.
    9000005    1    3    3    0    0 -0.23438356048E+02  0.22925089110E+02 -0.11866148541E+02  0.34881538472E+02  0.10000000000E+01 0.  0.
    9000005    1    3    3    0    0  0.23438356048E+02 -0.22925089110E+02 -0.28977577096E+03  0.29162632542E+03  0.10000000000E+01 0.  0.
<mgrwt>
<rscale>  0 0.12497815E+03</rscale>
<asrwt>0</asrwt>
<pdfrwt beam="1">  1        4 0.19127652E-02 0.12497815E+03</pdfrwt>
<pdfrwt beam="2">  1       -4 0.48319208E-01 0.12497815E+03</pdfrwt>
<totfact> 0.72423794E+03</totfact>
</mgrwt>
</event>
<event>
 5    1  0.3486589E-002  0.1250081E+03  0.7818608E-02  0.1235057E+00
         -4   -1    0    0    0  501 -0.00000000000E+00  0.00000000000E+00  0.36802147967E+02  0.36824054570E+02  0.12700000000E+01 0. -1.
          4   -1    0    0  501    0  0.00000000000E+00 -0.00000000000E+00 -0.10609842560E+03  0.10610602629E+03  0.12700000000E+01 0. -1.
         25    2    1    2    0    0  0.00000000000E+00  0.00000000000E+00 -0.69296277638E+02  0.14293008086E+03  0.12500813542E+03 0.  0.
    9000005    1    3    3    0    0  0.50514695580E+02  0.22593105353E+02 -0.14397835131E+01  0.55364752827E+02  0.10000000000E+01 0.  0.
    9000005    1    3    3    0    0 -0.50514695580E+02 -0.22593105353E+02 -0.67856494125E+02  0.87565328036E+02  0.10000000000E+01 0.  0.
<mgrwt>
<rscale>  0 0.12500814E+03</rscale>
<asrwt>0</asrwt>
<pdfrwt beam="2">  1        4 0.16325104E-01 0.12500814E+03</pdfrwt>
<pdfrwt beam="1">  1       -4 0.56641388E-02 0.12500814E+03</pdfrwt>
<totfact> 0.10071370E+04</totfact>
</mgrwt>
</event>
<event>
 5    1  0.3486589E-002  0.1250008E+03  0.7818608E-02  0.1235068E+00
          4   -1    0    0  501    0  0.00000000000E+00  0.00000000000E+00  0.12594606544E+03  0.12595246841E+03  0.12700000000E+01 0. -1.
         -4   -1    0    0    0  501 -0.00000000000E+00 -0.00000000000E+00 -0.30995485902E+02  0.31021493296E+02  0.12700000000E+01 0. -1.
         25    2    1    2    0    0  0.00000000000E+00  0.00000000000E+00  0.94950579534E+02  0.15697396171E+03  0.12500084840E+03 0.  0.
    9000005    1    3    3    0    0  0.26208262959E+02  0.25445605004E+02 -0.16198627976E+02  0.39971832703E+02  0.10000000000E+01 0.  0.
    9000005    1    3    3    0    0 -0.26208262959E+02 -0.25445605004E+02  0.11114920751E+03  0.11700212900E+03  0.10000000000E+01 0.  0.
<mgrwt>
<rscale>  0 0.12500085E+03</rscale>
<asrwt>0</asrwt>
<pdfrwt beam="1">  1        4 0.19378811E-01 0.12500085E+03</pdfrwt>
<pdfrwt beam="2">  1       -4 0.47710293E-02 0.12500085E+03</pdfrwt>
<totfact> 0.97927505E+03</totfact>
</mgrwt>
</event>
<event>
 5    1  0.3486589E-002  0.1250015E+03  0.7818608E-02  0.1235067E+00
          4   -1    0    0  501    0  0.00000000000E+00  0.00000000000E+00  0.20809466111E+02  0.20848184090E+02  0.12700000000E+01 0.  1.
         -4   -1    0    0    0  501 -0.00000000000E+00 -0.00000000000E+00 -0.18750409720E+03  0.18750839813E+03  0.12700000000E+01 0.  1.
         25    2    1    2    0    0  0.00000000000E+00  0.00000000000E+00 -0.16669463109E+03  0.20835658222E+03  0.12500146126E+03 0.  0.
    9000005    1    3    3    0    0  0.16441535467E+02  0.56889014805E+02 -0.11662797784E+03  0.13080431686E+03  0.10000000000E+01 0.  0.
    9000005    1    3    3    0    0 -0.16441535467E+02 -0.56889014805E+02 -0.50066653248E+02  0.77552265353E+02  0.10000000000E+01 0.  0.
<mgrwt>
<rscale>  0 0.12500146E+03</rscale>
<asrwt>0</asrwt>
<pdfrwt beam="1">  1        4 0.32047656E-02 0.12500146E+03</pdfrwt>
<pdfrwt beam="2">  1       -4 0.28850092E-01 0.12500146E+03</pdfrwt>
<totfact> 0.88742079E+03</totfact>
</mgrwt>
</event>
<event>
 5    1  0.3486589E-002  0.1249973E+03  0.7818608E-02  0.1235073E+00
          4   -1    0    0  501    0  0.00000000000E+00  0.00000000000E+00  0.26823587003E+03  0.26823887651E+03  0.12700000000E+01 0. -1.
         -4   -1    0    0    0  501 -0.00000000000E+00 -0.00000000000E+00 -0.14531334649E+02  0.14586726387E+02  0.12700000000E+01 0. -1.
         25    2    1    2    0    0  0.00000000000E+00  0.00000000000E+00  0.25370453538E+03  0.28282560290E+03  0.12499732149E+03 0.  0.
    9000005    1    3    3    0    0 -0.52583342256E+01 -0.62120952606E+02  0.11714135517E+03  0.13270177061E+03  0.10000000000E+01 0.  0.
    9000005    1    3    3    0    0  0.52583342256E+01  0.62120952606E+02  0.13656318021E+03  0.15012383229E+03  0.10000000000E+01 0.  0.
<mgrwt>
<rscale>  0 0.12499732E+03</rscale>
<asrwt>0</asrwt>
<pdfrwt beam="1">  1        4 0.41271551E-01 0.12499732E+03</pdfrwt>
<pdfrwt beam="2">  1       -4 0.22400820E-02 0.12499732E+03</pdfrwt>
<totfact> 0.77809566E+03</totfact>
</mgrwt>
</event>
<event>
 5    1  0.3486589E-002  0.1250036E+03  0.7818608E-02  0.1235064E+00
          4   -1    0    0  501    0  0.00000000000E+00  0.00000000000E+00  0.14565715380E+02  0.14620976866E+02  0.12700000000E+01 0. -1.
         -4   -1    0    0    0  501 -0.00000000000E+00 -0.00000000000E+00 -0.26763202114E+03  0.26763503440E+03  0.12700000000E+01 0. -1.
         25    2    1    2    0    0  0.00000000000E+00  0.00000000000E+00 -0.25306630576E+03  0.28225601127E+03  0.12500360309E+03 0.  0.
    9000005    1    3    3    0    0  0.38833538019E+02  0.15420536077E+02 -0.23146593996E+03  0.23520909415E+03  0.10000000000E+01 0.  0.
    9000005    1    3    3    0    0 -0.38833538019E+02 -0.15420536077E+02 -0.21600365800E+02  0.47046917121E+02  0.10000000000E+01 0.  0.
<mgrwt>
<rscale>  0 0.12500360E+03</rscale>
<asrwt>0</asrwt>
<pdfrwt beam="1">  1        4 0.22453622E-02 0.12500360E+03</pdfrwt>
<pdfrwt beam="2">  1       -4 0.41178636E-01 0.12500360E+03</pdfrwt>
<totfact> 0.77873688E+03</totfact>
</mgrwt>
</event>
<event>
 5    1  0.3486589E-002  0.1249971E+03  0.7818608E-02  0.1235074E+00
          4   -1    0    0  501    0  0.00000000000E+00  0.00000000000E+00  0.12482875014E+02  0.12547313203E+02  0.12700000000E+01 0.  1.
         -4   -1    0    0    0  501 -0.00000000000E+00 -0.00000000000E+00 -0.31204306655E+03  0.31204565096E+03  0.12700000000E+01 0.  1.
         25    2    1    2    0    0  0.00000000000E+00  0.00000000000E+00 -0.29956019154E+03  0.32459296416E+03  0.12499713609E+03 0.  0.
    9000005    1    3    3    0    0  0.87378978562E+01 -0.26257695986E+02 -0.29527649191E+03  0.29657212299E+03  0.10000000000E+01 0.  0.
    9000005    1    3    3    0    0 -0.87378978562E+01  0.26257695986E+02 -0.42836996211E+01  0.28020841170E+02  0.10000000000E+01 0.  0.
<mgrwt>
<rscale>  0 0.12499714E+03</rscale>
<asrwt>0</asrwt>
<pdfrwt beam="1">  1        4 0.19255981E-02 0.12499714E+03</pdfrwt>
<pdfrwt beam="2">  1       -4 0.48011775E-01 0.12499714E+03</pdfrwt>
<totfact> 0.72617774E+03</totfact>
</mgrwt>
</event>
<event>
 5    1  0.3486589E-002  0.1249981E+03  0.7818608E-02  0.1235072E+00
         -4   -1    0    0    0  501 -0.00000000000E+00  0.00000000000E+00  0.11904338000E+04  0.11904344775E+04  0.12700000000E+01 0.  1.
          4   -1    0    0  501    0  0.00000000000E+00 -0.00000000000E+00 -0.31576778632E+01  0.34035025323E+01  0.12700000000E+01 0.  1.
         25    2    1    2    0    0  0.00000000000E+00  0.00000000000E+00  0.11872761222E+04  0.11938379800E+04  0.12499812892E+03 0.  0.
    9000005    1    3    3    0    0  0.15973410325E+02 -0.16395310435E+02  0.11489996426E+04  0.11492280604E+04  0.10000000000E+01 0.  0.
    9000005    1    3    3    0    0 -0.15973410325E+02  0.16395310435E+02  0.38276479543E+02  0.44609919613E+02  0.10000000000E+01 0.  0.
<mgrwt>
<rscale>  0 0.12499813E+03</rscale>
<asrwt>0</asrwt>
<pdfrwt beam="2">  1        4 0.50475943E-03 0.12499813E+03</pdfrwt>
<pdfrwt beam="1">  1       -4 0.18316221E+00 0.12499813E+03</pdfrwt>
<totfact> 0.24875695E+03</totfact>
</mgrwt>
</event>
<event>
 5    1  0.3486589E-002  0.1249993E+03  0.7818608E-02  0.1235070E+00
          4   -1    0    0  501    0  0.00000000000E+00  0.00000000000E+00  0.65826992553E+01  0.67040905040E+01  0.12700000000E+01 0.  1.
         -4   -1    0    0    0  501 -0.00000000000E+00 -0.00000000000E+00 -0.58786117017E+03  0.58786254200E+03  0.12700000000E+01 0.  1.
         25    2    1    2    0    0  0.00000000000E+00  0.00000000000E+00 -0.58127847091E+03  0.59456663251E+03  0.12499927898E+03 0.  0.
    9000005    1    3    3    0    0 -0.28142280715E+02 -0.45893774362E+02 -0.44157880682E+03  0.44484949042E+03  0.10000000000E+01 0.  0.
    9000005    1    3    3    0    0  0.28142280715E+02  0.45893774362E+02 -0.13969966409E+03  0.14971714209E+03  0.10000000000E+01 0.  0.
<mgrwt>
<rscale>  0 0.12499928E+03</rscale>
<asrwt>0</asrwt>
<pdfrwt beam="1">  1        4 0.10221667E-02 0.12499928E+03</pdfrwt>
<pdfrwt beam="2">  1       -4 0.90449582E-01 0.12499928E+03</pdfrwt>
<totfact> 0.49213181E+03</totfact>
</mgrwt>
</event>
<event>
 5    1  0.3486589E-002  0.1249994E+03  0.7818608E-02  0.1235070E+00
         -4   -1    0    0    0  501 -0.00000000000E+00  0.00000000000E+00  0.54525481932E+02  0.54540270259E+02  0.12700000000E+01 0.  1.
          4   -1    0    0  501    0  0.00000000000E+00 -0.00000000000E+00 -0.71609999589E+02  0.71621260399E+02  0.12700000000E+01 0.  1.
         25    2    1    2    0    0  0.00000000000E+00  0.00000000000E+00 -0.17084517657E+02  0.12616153066E+03  0.12499940430E+03 0.  0.
    9000005    1    3    3    0    0  0.42927313340E+02  0.18804139516E+02 -0.50264978850E+02  0.68730764526E+02  0.10000000000E+01 0.  0.
    9000005    1    3    3    0    0 -0.42927313340E+02 -0.18804139516E+02  0.33180461193E+02  0.57430766132E+02  0.10000000000E+01 0.  0.
<mgrwt>
<rscale>  0 0.12499940E+03</rscale>
<asrwt>0</asrwt>
<pdfrwt beam="2">  1        4 0.11018927E-01 0.12499940E+03</pdfrwt>
<pdfrwt beam="1">  1       -4 0.83905395E-02 0.12499940E+03</pdfrwt>
<totfact> 0.10427560E+04</totfact>
</mgrwt>
</event>
<event>
 5    1  0.3486589E-002  0.1249471E+03  0.7818608E-02  0.1235152E+00
         -4   -1    0    0    0  501 -0.00000000000E+00  0.00000000000E+00  0.74508099387E+02  0.74518922256E+02  0.12700000000E+01 0. -1.
          4   -1    0    0  501    0  0.00000000000E+00 -0.00000000000E+00 -0.52360473774E+02  0.52375873395E+02  0.12700000000E+01 0. -1.
         25    2    1    2    0    0  0.00000000000E+00  0.00000000000E+00  0.22147625612E+02  0.12689479565E+03  0.12494707617E+03 0.  0.
    9000005    1    3    3    0    0 -0.43121758326E+01 -0.58783250985E+02 -0.99338355726E+01  0.59780820887E+02  0.10000000000E+01 0.  0.
    9000005    1    3    3    0    0  0.43121758326E+01  0.58783250985E+02  0.32081461185E+02  0.67113974764E+02  0.10000000000E+01 0.  0.
<mgrwt>
<rscale>  0 0.12494708E+03</rscale>
<asrwt>0</asrwt>
<pdfrwt beam="2">  1        4 0.80574746E-02 0.12494708E+03</pdfrwt>
<pdfrwt beam="1">  1       -4 0.11464802E-01 0.12494708E+03</pdfrwt>
<totfact> 0.10423880E+04</totfact>
</mgrwt>
</event>
<event>
 5    1  0.3486589E-002  0.1250043E+03  0.7818608E-02  0.1235063E+00
          4   -1    0    0  501    0  0.00000000000E+00  0.00000000000E+00  0.16235199380E+03  0.16235696102E+03  0.12700000000E+01 0.  1.
         -4   -1    0    0    0  501 -0.00000000000E+00 -0.00000000000E+00 -0.24039935764E+02  0.24073458654E+02  0.12700000000E+01 0.  1.
         25    2    1    2    0    0  0.00000000000E+00  0.00000000000E+00  0.13831205804E+03  0.18643041967E+03  0.12500430385E+03 0.  0.
    9000005    1    3    3    0    0  0.13920929854E+02 -0.43789958960E+02  0.13232781378E+03  0.14008212981E+03  0.10000000000E+01 0.  0.
    9000005    1    3    3    0    0 -0.13920929854E+02  0.43789958960E+02  0.59842442615E+01  0.46348289861E+02  0.10000000000E+01 0.  0.
<mgrwt>
<rscale>  0 0.12500430E+03</rscale>
<asrwt>0</asrwt>
<pdfrwt beam="1">  1        4 0.24980191E-01 0.12500430E+03</pdfrwt>
<pdfrwt beam="2">  1       -4 0.37014124E-02 0.12500430E+03</pdfrwt>
<totfact> 0.92463228E+03</totfact>
</mgrwt>
</event>
<event>
 5    1  0.3486589E-002  0.1249907E+03  0.7818608E-02  0.1235084E+00
         -4   -1    0    0    0  501 -0.00000000000E+00  0.00000000000E+00  0.27399475066E+01  0.30199689301E+01  0.12700000000E+01 0.  1.
          4   -1    0    0  501    0  0.00000000000E+00 -0.00000000000E+00 -0.13558751941E+04  0.13558757889E+04  0.12700000000E+01 0.  1.
         25    2    1    2    0    0  0.00000000000E+00  0.00000000000E+00 -0.13531352466E+04  0.13588957578E+04  0.12499073976E+03 0.  0.
    9000005    1    3    3    0    0 -0.38129577962E+02 -0.47144556731E+02 -0.51233343584E+03  0.51590989855E+03  0.10000000000E+01 0.  0.
    9000005    1    3    3    0    0  0.38129577962E+02  0.47144556731E+02 -0.84080181075E+03  0.84298585925E+03  0.10000000000E+01 0.  0.
<mgrwt>
<rscale>  0 0.12499074E+03</rscale>
<asrwt>0</asrwt>
<pdfrwt beam="2">  1        4 0.20861726E+00 0.12499074E+03</pdfrwt>
<pdfrwt beam="1">  1       -4 0.44311733E-03 0.12499074E+03</pdfrwt>
<totfact> 0.20883896E+03</totfact>
</mgrwt>
</event>
<event>
 5    1  0.3486589E-002  0.1250003E+03  0.7818608E-02  0.1235069E+00
         -4   -1    0    0    0  501 -0.00000000000E+00  0.00000000000E+00  0.22129225637E+03  0.22129590061E+03  0.12700000000E+01 0. -1.
          4   -1    0    0  501    0  0.00000000000E+00 -0.00000000000E+00 -0.17625442235E+02  0.17671137880E+02  0.12700000000E+01 0. -1.
         25    2    1    2    0    0  0.00000000000E+00  0.00000000000E+00  0.20366681413E+03  0.23896703849E+03  0.12500029723E+03 0.  0.
    9000005    1    3    3    0    0  0.50724995241E+01  0.58042956460E+02  0.58637002729E+02  0.82668090186E+02  0.10000000000E+01 0.  0.
    9000005    1    3    3    0    0 -0.50724995241E+01 -0.58042956460E+02  0.14502981140E+03  0.15629894831E+03  0.10000000000E+01 0.  0.
<mgrwt>
<rscale>  0 0.12500030E+03</rscale>
<asrwt>0</asrwt>
<pdfrwt beam="2">  1        4 0.27154019E-02 0.12500030E+03</pdfrwt>
<pdfrwt beam="1">  1       -4 0.34048758E-01 0.12500030E+03</pdfrwt>
<totfact> 0.83950893E+03</totfact>
</mgrwt>
</event>
<event>
 5    1  0.3486589E-002  0.1250014E+03  0.7818608E-02  0.1235067E+00
          4   -1    0    0  501    0  0.00000000000E+00  0.00000000000E+00  0.22965877721E+03  0.22966228870E+03  0.12700000000E+01 0. -1.
         -4   -1    0    0    0  501 -0.00000000000E+00 -0.00000000000E+00 -0.16981964509E+02  0.17029386912E+02  0.12700000000E+01 0. -1.
         25    2    1    2    0    0  0.00000000000E+00  0.00000000000E+00  0.21267681270E+03  0.24669167561E+03  0.12500142461E+03 0.  0.
    9000005    1    3    3    0    0 -0.22167948747E+02  0.53779624308E+02  0.61263093242E+02  0.84485694268E+02  0.10000000000E+01 0.  0.
    9000005    1    3    3    0    0  0.22167948747E+02 -0.53779624308E+02  0.15141371946E+03  0.16220598134E+03  0.10000000000E+01 0.  0.
<mgrwt>
<rscale>  0 0.12500142E+03</rscale>
<asrwt>0</asrwt>
<pdfrwt beam="1">  1        4 0.35336038E-01 0.12500142E+03</pdfrwt>
<pdfrwt beam="2">  1       -4 0.26165279E-02 0.12500142E+03</pdfrwt>
<totfact> 0.82808117E+03</totfact>
</mgrwt>
</event>
<event>
 5    1  0.3486589E-002  0.1249996E+03  0.7818608E-02  0.1235070E+00
          4   -1    0    0  501    0  0.00000000000E+00  0.00000000000E+00  0.10652968914E+02  0.10728403735E+02  0.12700000000E+01 0.  1.
         -4   -1    0    0    0  501 -0.00000000000E+00 -0.00000000000E+00 -0.36530898701E+03  0.36531119459E+03  0.12700000000E+01 0.  1.
         25    2    1    2    0    0  0.00000000000E+00  0.00000000000E+00 -0.35465601810E+03  0.37603959832E+03  0.12499955334E+03 0.  0.
    9000005    1    3    3    0    0  0.34853668843E+02 -0.20982579462E+02 -0.32003106941E+03  0.32260801643E+03  0.10000000000E+01 0.  0.
    9000005    1    3    3    0    0 -0.34853668843E+02  0.20982579462E+02 -0.34624948687E+02  0.53431581899E+02  0.10000000000E+01 0.  0.
<mgrwt>
<rscale>  0 0.12499955E+03</rscale>
<asrwt>0</asrwt>
<pdfrwt beam="1">  1        4 0.16448911E-02 0.12499955E+03</pdfrwt>
<pdfrwt beam="2">  1       -4 0.56207346E-01 0.12499955E+03</pdfrwt>
<totfact> 0.66952445E+03</totfact>
</mgrwt>
</event>
<event>
 5    1  0.3486589E-002  0.1250010E+03  0.7818608E-02  0.1235068E+00
         -4   -1    0    0    0  501 -0.00000000000E+00  0.00000000000E+00  0.94598689620E+02  0.94607214195E+02  0.12700000000E+01 0. -1.
          4   -1    0    0  501    0  0.00000000000E+00 -0.00000000000E+00 -0.41273392033E+02  0.41292926632E+02  0.12700000000E+01 0. -1.
         25    2    1    2    0    0  0.00000000000E+00  0.00000000000E+00  0.53325297587E+02  0.13590014083E+03  0.12500104365E+03 0.  0.
    9000005    1    3    3    0    0  0.82191764331E+00  0.46604147776E+02  0.71917703005E+02  0.85707515097E+02  0.10000000000E+01 0.  0.
    9000005    1    3    3    0    0 -0.82191764331E+00 -0.46604147776E+02 -0.18592405417E+02  0.50192625731E+02  0.10000000000E+01 0.  0.
<mgrwt>
<rscale>  0 0.12500104E+03</rscale>
<asrwt>0</asrwt>
<pdfrwt beam="2">  1        4 0.63519111E-02 0.12500104E+03</pdfrwt>
<pdfrwt beam="1">  1       -4 0.14555803E-01 0.12500104E+03</pdfrwt>
<totfact> 0.10218892E+04</totfact>
</mgrwt>
</event>
<event>
 5    1  0.3486589E-002  0.1249995E+03  0.7818608E-02  0.1235070E+00
          4   -1    0    0  501    0  0.00000000000E+00  0.00000000000E+00  0.13925279710E+02  0.13983072445E+02  0.12700000000E+01 0.  1.
         -4   -1    0    0    0  501 -0.00000000000E+00 -0.00000000000E+00 -0.27987257747E+03  0.27987545894E+03  0.12700000000E+01 0.  1.
         25    2    1    2    0    0  0.00000000000E+00  0.00000000000E+00 -0.26594729776E+03  0.29385853139E+03  0.12499948514E+03 0.  0.
    9000005    1    3    3    0    0  0.58786448989E+01  0.24928948184E+02  0.10306598900E+01  0.25652937126E+02  0.10000000000E+01 0.  0.
    9000005    1    3    3    0    0 -0.58786448989E+01 -0.24928948184E+02 -0.26697795765E+03  0.26820559426E+03  0.10000000000E+01 0.  0.
<mgrwt>
<rscale>  0 0.12499949E+03</rscale>
<asrwt>0</asrwt>
<pdfrwt beam="1">  1        4 0.21470182E-02 0.12499949E+03</pdfrwt>
<pdfrwt beam="2">  1       -4 0.43061983E-01 0.12499949E+03</pdfrwt>
<totfact> 0.76376603E+03</totfact>
</mgrwt>
</event>
<event>
 4    1  0.3486589E-002  0.1250939E+03  0.7818608E-02  0.1234923E+00
          4   -1    0    0  501    0  0.00000000000E+00  0.00000000000E+00  0.14507218263E+03  0.14507774148E+03  0.12700000000E+01 0.  1.
         -4   -1    0    0    0  501 -0.00000000000E+00 -0.00000000000E+00 -0.26945670867E+02  0.26975583005E+02  0.12700000000E+01 0.  1.
    9000005    1    1    2    0    0  0.57598476726E+02  0.18250723079E+02  0.81259786334E+02  0.10126611619E+03  0.10000000000E+01 0.  0.
    9000005    1    1    2    0    0 -0.57598476726E+02 -0.18250723079E+02  0.36866725433E+02  0.70787208295E+02  0.10000000000E+01 0.  0.
<mgrwt>
<rscale>  0 0.12509386E+03</rscale>
<asrwt>0</asrwt>
<pdfrwt beam="1">  1        4 0.22321526E-01 0.12509386E+03</pdfrwt>
<pdfrwt beam="2">  1       -4 0.41482163E-02 0.12509386E+03</pdfrwt>
<totfact> 0.94867347E+03</totfact>
</mgrwt>
</event>
<event>
 5    1  0.3486589E-002  0.1249961E+03  0.7818608E-02  0.1235075E+00
          4   -1    0    0  501    0  0.00000000000E+00  0.00000000000E+00  0.75318352713E+03  0.75318459785E+03  0.12700000000E+01 0.  1.
         -4   -1    0    0    0  501 -0.00000000000E+00 -0.00000000000E+00 -0.51071484256E+01  0.52626861051E+01  0.12700000000E+01 0.  1.
         25    2    1    2    0    0  0.00000000000E+00  0.00000000000E+00  0.74807637870E+03  0.75844728395E+03  0.12499605660E+03 0.  0.
    9000005    1    3    3    0    0 -0.82169433719E+01  0.53733731236E+02  0.56107629304E+03  0.56370421201E+03  0.10000000000E+01 0.  0.
    9000005    1    3    3    0    0  0.82169433719E+01 -0.53733731236E+02  0.18700008566E+03  0.19474307194E+03  0.10000000000E+01 0.  0.
<mgrwt>
<rscale>  0 0.12499606E+03</rscale>
<asrwt>0</asrwt>
<pdfrwt beam="1">  1        4 0.11588637E+00 0.12499606E+03</pdfrwt>
<pdfrwt beam="2">  1       -4 0.79776241E-03 0.12499606E+03</pdfrwt>
<totfact> 0.40176811E+03</totfact>
</mgrwt>
</event>
<event>
 5    1  0.3486589E-002  0.1250033E+03  0.7818608E-02  0.1235064E+00
         -4   -1    0    0    0  501 -0.00000000000E+00  0.00000000000E+00  0.63443567357E+01  0.64702212010E+01  0.12700000000E+01 0.  1.
          4   -1    0    0  501    0  0.00000000000E+00 -0.00000000000E+00 -0.60956262020E+03  0.60956394319E+03  0.12700000000E+01 0.  1.
         25    2    1    2    0    0  0.00000000000E+00  0.00000000000E+00 -0.60321826346E+03  0.61603416440E+03  0.12500327327E+03 0.  0.
    9000005    1    3    3    0    0  0.32592934416E+02 -0.53318913069E+02 -0.29915138914E+03  0.30561047019E+03  0.10000000000E+01 0.  0.
    9000005    1    3    3    0    0 -0.32592934416E+02  0.53318913069E+02 -0.30406687432E+03  0.31042369421E+03  0.10000000000E+01 0.  0.
<mgrwt>
<rscale>  0 0.12500327E+03</rscale>
<asrwt>0</asrwt>
<pdfrwt beam="2">  1        4 0.93788603E-01 0.12500327E+03</pdfrwt>
<pdfrwt beam="1">  1       -4 0.98583901E-03 0.12500327E+03</pdfrwt>
<totfact> 0.47867464E+03</totfact>
</mgrwt>
</event>
<event>
 5    1  0.3486589E-002  0.1249969E+03  0.7818608E-02  0.1235074E+00
          4   -1    0    0  501    0  0.00000000000E+00  0.00000000000E+00  0.22177763941E+02  0.22214097178E+02  0.12700000000E+01 0. -1.
         -4   -1    0    0    0  501 -0.00000000000E+00 -0.00000000000E+00 -0.17594200108E+03  0.17594658464E+03  0.12700000000E+01 0. -1.
         25    2    1    2    0    0  0.00000000000E+00  0.00000000000E+00 -0.15376423714E+03  0.19816068181E+03  0.12499686073E+03 0.  0.
    9000005    1    3    3    0    0  0.60136952277E+02 -0.16554307455E+02 -0.82930435494E+02  0.10377357687E+03  0.10000000000E+01 0.  0.
    9000005    1    3    3    0    0 -0.60136952277E+02  0.16554307455E+02 -0.70833801647E+02  0.94387104947E+02  0.10000000000E+01 0.  0.
<mgrwt>
<rscale>  0 0.12499686E+03</rscale>
<asrwt>0</asrwt>
<pdfrwt beam="1">  1        4 0.34151112E-02 0.12499686E+03</pdfrwt>
<pdfrwt beam="2">  1       -4 0.27071147E-01 0.12499686E+03</pdfrwt>
<totfact> 0.90452807E+03</totfact>
</mgrwt>
</event>
<event>
 5    1  0.3486589E-002  0.1250018E+03  0.7818608E-02  0.1235067E+00
         -4   -1    0    0    0  501 -0.00000000000E+00  0.00000000000E+00  0.34327870875E+02  0.34351355415E+02  0.12700000000E+01 0. -1.
          4   -1    0    0  501    0  0.00000000000E+00 -0.00000000000E+00 -0.11372965542E+03  0.11373674614E+03  0.12700000000E+01 0. -1.
         25    2    1    2    0    0  0.00000000000E+00  0.00000000000E+00 -0.79401784543E+02  0.14808810155E+03  0.12500176972E+03 0.  0.
    9000005    1    3    3    0    0  0.57859341463E+02 -0.74238894121E+01 -0.13143180551E+02  0.59804353717E+02  0.10000000000E+01 0.  0.
    9000005    1    3    3    0    0 -0.57859341463E+02  0.74238894121E+01 -0.66258603992E+02  0.88283747833E+02  0.10000000000E+01 0.  0.
<mgrwt>
<rscale>  0 0.12500177E+03</rscale>
<asrwt>0</asrwt>
<pdfrwt beam="2">  1        4 0.17499222E-01 0.12500177E+03</pdfrwt>
<pdfrwt beam="1">  1       -4 0.52835629E-02 0.12500177E+03</pdfrwt>
<totfact> 0.99682209E+03</totfact>
</mgrwt>
</event>
<event>
 5    1  0.3486589E-002  0.1250006E+03  0.7818608E-02  0.1235068E+00
         -4   -1    0    0    0  501 -0.00000000000E+00  0.00000000000E+00  0.46641122570E+03  0.46641295475E+03  0.12700000000E+01 0.  1.
          4   -1    0    0  501    0  0.00000000000E+00 -0.00000000000E+00 -0.83253013084E+01  0.84216115961E+01  0.12700000000E+01 0.  1.
         25    2    1    2    0    0  0.00000000000E+00  0.00000000000E+00  0.45808592439E+03  0.47483456635E+03  0.12500060509E+03 0.  0.
    9000005    1    3    3    0    0 -0.28264598044E+02  0.55712255503E+02  0.23510286633E+03  0.24326343883E+03  0.10000000000E+01 0.  0.
    9000005    1    3    3    0    0  0.28264598044E+02 -0.55712255503E+02  0.22298305807E+03  0.23157112752E+03  0.10000000000E+01 0.  0.
<mgrwt>
<rscale>  0 0.12500061E+03</rscale>
<asrwt>0</asrwt>
<pdfrwt beam="2">  1        4 0.12883569E-02 0.12500061E+03</pdfrwt>
<pdfrwt beam="1">  1       -4 0.71763127E-01 0.12500061E+03</pdfrwt>
<totfact> 0.57870386E+03</totfact>
</mgrwt>
</event>
<event>
 5    1  0.3486589E-002  0.1249924E+03  0.7818608E-02  0.1235081E+00
          4   -1    0    0  501    0  0.00000000000E+00  0.00000000000E+00  0.13185830868E+03  0.13186442457E+03  0.12700000000E+01 0.  1.
         -4   -1    0    0    0  501 -0.00000000000E+00 -0.00000000000E+00 -0.29600599657E+02  0.29627831511E+02  0.12700000000E+01 0.  1.
         25    2    1    2    0    0  0.00000000000E+00  0.00000000000E+00  0.10225770902E+03  0.16149225608E+03  0.12499243865E+03 0.  0.
    9000005    1    3    3    0    0  0.13063450461E+02  0.58278133778E+02  0.27383058321E+02  0.65710170428E+02  0.10000000000E+01 0.  0.
    9000005    1    3    3    0    0 -0.13063450461E+02 -0.58278133778E+02  0.74874650697E+02  0.95782085651E+02  0.10000000000E+01 0.  0.
<mgrwt>
<rscale>  0 0.12499244E+03</rscale>
<asrwt>0</asrwt>
<pdfrwt beam="1">  1        4 0.20288458E-01 0.12499244E+03</pdfrwt>
<pdfrwt beam="2">  1       -4 0.45565037E-02 0.12499244E+03</pdfrwt>
<totfact> 0.97072354E+03</totfact>
</mgrwt>
</event>
<event>
 5    1  0.3486589E-002  0.1250050E+03  0.7818608E-02  0.1235061E+00
         -4   -1    0    0    0  501 -0.00000000000E+00  0.00000000000E+00  0.53814833461E+03  0.53814983317E+03  0.12700000000E+01 0. -1.
          4   -1    0    0  501    0  0.00000000000E+00 -0.00000000000E+00 -0.72022001614E+01  0.73133157436E+01  0.12700000000E+01 0. -1.
         25    2    1    2    0    0  0.00000000000E+00  0.00000000000E+00  0.53094613445E+03  0.54546314892E+03  0.12500499646E+03 0.  0.
    9000005    1    3    3    0    0  0.40873403918E+02  0.95785037036E+01  0.63465654331E+02  0.76100408413E+02  0.10000000000E+01 0.  0.
    9000005    1    3    3    0    0 -0.40873403918E+02 -0.95785037036E+01  0.46748048012E+03  0.46936274050E+03  0.10000000000E+01 0.  0.
<mgrwt>
<rscale>  0 0.12500500E+03</rscale>
<asrwt>0</asrwt>
<pdfrwt beam="2">  1        4 0.11166930E-02 0.12500500E+03</pdfrwt>
<pdfrwt beam="1">  1       -4 0.82800746E-01 0.12500500E+03</pdfrwt>
<totfact> 0.52496052E+03</totfact>
</mgrwt>
</event>
<event>
 5    1  0.3486589E-002  0.1250005E+03  0.7818608E-02  0.1235068E+00
         -4   -1    0    0    0  501 -0.00000000000E+00  0.00000000000E+00  0.15247726443E+04  0.15247731732E+04  0.12700000000E+01 0.  1.
          4   -1    0    0  501    0  0.00000000000E+00 -0.00000000000E+00 -0.24039230467E+01  0.27187765657E+01  0.12700000000E+01 0.  1.
         25    2    1    2    0    0  0.00000000000E+00  0.00000000000E+00  0.15223687213E+04  0.15274919498E+04  0.12500053258E+03 0.  0.
    9000005    1    3    3    0    0  0.46256822312E+02  0.37132649046E+02  0.10015019866E+04  0.10032575723E+04  0.10000000000E+01 0.  0.
    9000005    1    3    3    0    0 -0.46256822312E+02 -0.37132649046E+02  0.52086673468E+03  0.52423437748E+03  0.10000000000E+01 0.  0.
<mgrwt>
<rscale>  0 0.12500053E+03</rscale>
<asrwt>0</asrwt>
<pdfrwt beam="2">  1        4 0.39409507E-03 0.12500053E+03</pdfrwt>
<pdfrwt beam="1">  1       -4 0.23460433E+00 0.12500053E+03</pdfrwt>
<totfact> 0.17396105E+03</totfact>
</mgrwt>
</event>
<event>
 5    1  0.3486589E-002  0.1250000E+03  0.7818608E-02  0.1235069E+00
         -4   -1    0    0    0  501 -0.00000000000E+00  0.00000000000E+00  0.30955767345E+03  0.30956027861E+03  0.12700000000E+01 0. -1.
          4   -1    0    0  501    0  0.00000000000E+00 -0.00000000000E+00 -0.12584184846E+02  0.12648106904E+02  0.12700000000E+01 0. -1.
         25    2    1    2    0    0  0.00000000000E+00  0.00000000000E+00  0.29697348861E+03  0.32220838552E+03  0.12499996304E+03 0.  0.
    9000005    1    3    3    0    0  0.81369329933E+01  0.49277070673E+02  0.51667662440E+02  0.71867842007E+02  0.10000000000E+01 0.  0.
    9000005    1    3    3    0    0 -0.81369329933E+01 -0.49277070673E+02  0.24530582617E+03  0.25034054351E+03  0.10000000000E+01 0.  0.
<mgrwt>
<rscale>  0 0.12499996E+03</rscale>
<asrwt>0</asrwt>
<pdfrwt beam="2">  1        4 0.19411460E-02 0.12499996E+03</pdfrwt>
<pdfrwt beam="1">  1       -4 0.47629373E-01 0.12499996E+03</pdfrwt>
<totfact> 0.72894294E+03</totfact>
</mgrwt>
</event>
<event>
 5    1  0.3486589E-002  0.1249960E+03  0.7818608E-02  0.1235076E+00
         -4   -1    0    0    0  501 -0.00000000000E+00  0.00000000000E+00  0.33759654243E+03  0.33759893121E+03  0.12700000000E+01 0. -1.
          4   -1    0    0  501    0  0.00000000000E+00 -0.00000000000E+00 -0.11532730080E+02  0.11602446427E+02  0.12700000000E+01 0. -1.
         25    2    1    2    0    0  0.00000000000E+00  0.00000000000E+00  0.32606381235E+03  0.34920137764E+03  0.12499596964E+03 0.  0.
    9000005    1    3    3    0    0  0.47493808056E+02  0.12137225228E+02  0.54759351462E+02  0.73502112980E+02  0.10000000000E+01 0.  0.
    9000005    1    3    3    0    0 -0.47493808056E+02 -0.12137225228E+02  0.27130446088E+03  0.27569926466E+03  0.10000000000E+01 0.  0.
<mgrwt>
<rscale>  0 0.12499597E+03</rscale>
<asrwt>0</asrwt>
<pdfrwt beam="2">  1        4 0.17798124E-02 0.12499597E+03</pdfrwt>
<pdfrwt beam="1">  1       -4 0.51943485E-01 0.12499597E+03</pdfrwt>
<totfact> 0.69818723E+03</totfact>
</mgrwt>
</event>
<event>
 5    1  0.3486589E-002  0.1250003E+03  0.7818608E-02  0.1235069E+00
          4   -1    0    0  501    0  0.00000000000E+00  0.00000000000E+00  0.56516741490E+02  0.56531008912E+02  0.12700000000E+01 0.  1.
         -4   -1    0    0    0  501 -0.00000000000E+00 -0.00000000000E+00 -0.69088166422E+02  0.69099838202E+02  0.12700000000E+01 0.  1.
         25    2    1    2    0    0  0.00000000000E+00  0.00000000000E+00 -0.12571424932E+02  0.12563084711E+03  0.12500027609E+03 0.  0.
    9000005    1    3    3    0    0 -0.24302618903E+02 -0.33769769855E+02 -0.53149816278E+02  0.67504945093E+02  0.10000000000E+01 0.  0.
    9000005    1    3    3    0    0  0.24302618903E+02  0.33769769855E+02  0.40578391346E+02  0.58125902021E+02  0.10000000000E+01 0.  0.
<mgrwt>
<rscale>  0 0.12500028E+03</rscale>
<asrwt>0</asrwt>
<pdfrwt beam="1">  1        4 0.86968786E-02 0.12500028E+03</pdfrwt>
<pdfrwt beam="2">  1       -4 0.10630944E-01 0.12500028E+03</pdfrwt>
<totfact> 0.10439002E+04</totfact>
</mgrwt>
</event>
<event>
 5    1  0.3486589E-002  0.1250083E+03  0.7818608E-02  0.1235056E+00
          4   -1    0    0  501    0  0.00000000000E+00  0.00000000000E+00  0.11143248792E+03  0.11143972480E+03  0.12700000000E+01 0.  1.
         -4   -1    0    0    0  501 -0.00000000000E+00 -0.00000000000E+00 -0.35039637919E+02  0.35062645728E+02  0.12700000000E+01 0.  1.
         25    2    1    2    0    0  0.00000000000E+00  0.00000000000E+00  0.76392850000E+02  0.14650237053E+03  0.12500830788E+03 0.  0.
    9000005    1    3    3    0    0 -0.79997988769E+01  0.31513787069E+02 -0.24353328717E+02  0.40634962497E+02  0.10000000000E+01 0.  0.
    9000005    1    3    3    0    0  0.79997988769E+01 -0.31513787069E+02  0.10074617872E+03  0.10586740803E+03  0.10000000000E+01 0.  0.
<mgrwt>
<rscale>  0 0.12500831E+03</rscale>
<asrwt>0</asrwt>
<pdfrwt beam="1">  1        4 0.17145787E-01 0.12500831E+03</pdfrwt>
<pdfrwt beam="2">  1       -4 0.53930399E-02 0.12500831E+03</pdfrwt>
<totfact> 0.99986821E+03</totfact>
</mgrwt>
</event>
<event>
 5    1  0.3486589E-002  0.1250020E+03  0.7818608E-02  0.1235066E+00
          4   -1    0    0  501    0  0.00000000000E+00  0.00000000000E+00  0.29034238202E+03  0.29034515959E+03  0.12700000000E+01 0.  1.
         -4   -1    0    0    0  501 -0.00000000000E+00 -0.00000000000E+00 -0.13421564215E+02  0.13481516457E+02  0.12700000000E+01 0.  1.
         25    2    1    2    0    0  0.00000000000E+00  0.00000000000E+00  0.27692081781E+03  0.30382667605E+03  0.12500203896E+03 0.  0.
    9000005    1    3    3    0    0 -0.18805269142E+02 -0.55902834780E+01  0.28267534461E+03  0.28335708896E+03  0.10000000000E+01 0.  0.
    9000005    1    3    3    0    0  0.18805269142E+02  0.55902834780E+01 -0.57545267984E+01  0.20469587088E+02  0.10000000000E+01 0.  0.
<mgrwt>
<rscale>  0 0.12500204E+03</rscale>
<asrwt>0</asrwt>
<pdfrwt beam="1">  1        4 0.44672886E-01 0.12500204E+03</pdfrwt>
<pdfrwt beam="2">  1       -4 0.20696813E-02 0.12500204E+03</pdfrwt>
<totfact> 0.75117919E+03</totfact>
</mgrwt>
</event>
<event>
 5    1  0.3486589E-002  0.1249967E+03  0.7818608E-02  0.1235074E+00
          4   -1    0    0  501    0  0.00000000000E+00  0.00000000000E+00  0.16632732483E+03  0.16633217333E+03  0.12700000000E+01 0.  1.
         -4   -1    0    0    0  501 -0.00000000000E+00 -0.00000000000E+00 -0.23461709509E+02  0.23496057395E+02  0.12700000000E+01 0.  1.
         25    2    1    2    0    0  0.00000000000E+00  0.00000000000E+00  0.14286561532E+03  0.18982823073E+03  0.12499669252E+03 0.  0.
    9000005    1    3    3    0    0  0.11649894803E+02 -0.61250446524E+02  0.65042482481E+02  0.90104726710E+02  0.10000000000E+01 0.  0.
    9000005    1    3    3    0    0 -0.11649894803E+02  0.61250446524E+02  0.77823132842E+02  0.99723504018E+02  0.10000000000E+01 0.  0.
<mgrwt>
<rscale>  0 0.12499669E+03</rscale>
<asrwt>0</asrwt>
<pdfrwt beam="1">  1        4 0.25591835E-01 0.12499669E+03</pdfrwt>
<pdfrwt beam="2">  1       -4 0.36125088E-02 0.12499669E+03</pdfrwt>
<totfact> 0.91884017E+03</totfact>
</mgrwt>
</event>
<event>
 5    1  0.3486589E-002  0.1250067E+03  0.7818608E-02  0.1235059E+00
         -4   -1    0    0    0  501 -0.00000000000E+00  0.00000000000E+00  0.12905580358E+02  0.12967918274E+02  0.12700000000E+01 0. -1.
          4   -1    0    0  501    0  0.00000000000E+00 -0.00000000000E+00 -0.30191872211E+03  0.30192139318E+03  0.12700000000E+01 0. -1.
         25    2    1    2    0    0  0.00000000000E+00  0.00000000000E+00 -0.28901314175E+03  0.31488931145E+03  0.12500672927E+03 0.  0.
    9000005    1    3    3    0    0 -0.12922490102E+01 -0.15746033508E+02  0.78044640323E+01  0.17649848089E+02  0.10000000000E+01 0.  0.
    9000005    1    3    3    0    0  0.12922490102E+01  0.15746033508E+02 -0.29681760578E+03  0.29723946337E+03  0.10000000000E+01 0.  0.
<mgrwt>
<rscale>  0 0.12500673E+03</rscale>
<asrwt>0</asrwt>
<pdfrwt beam="2">  1        4 0.46454029E-01 0.12500673E+03</pdfrwt>
<pdfrwt beam="1">  1       -4 0.19904748E-02 0.12500673E+03</pdfrwt>
<totfact> 0.73757121E+03</totfact>
</mgrwt>
</event>
<event>
 5    1  0.3486589E-002  0.1249971E+03  0.7818608E-02  0.1235074E+00
          4   -1    0    0  501    0  0.00000000000E+00  0.00000000000E+00  0.76071064825E+03  0.76071170838E+03  0.12700000000E+01 0.  1.
         -4   -1    0    0    0  501 -0.00000000000E+00 -0.00000000000E+00 -0.50551572716E+01  0.52122466404E+01  0.12700000000E+01 0.  1.
         25    2    1    2    0    0  0.00000000000E+00  0.00000000000E+00  0.75565549098E+03  0.76592395502E+03  0.12499713526E+03 0.  0.
    9000005    1    3    3    0    0  0.57289208213E+01  0.39923423153E+02  0.85346659256E+02  0.94402078877E+02  0.10000000000E+01 0.  0.
    9000005    1    3    3    0    0 -0.57289208213E+01 -0.39923423153E+02  0.67030883172E+03  0.67152187614E+03  0.10000000000E+01 0.  0.
<mgrwt>
<rscale>  0 0.12499714E+03</rscale>
<asrwt>0</asrwt>
<pdfrwt beam="1">  1        4 0.11704452E+00 0.12499714E+03</pdfrwt>
<pdfrwt beam="2">  1       -4 0.78988219E-03 0.12499714E+03</pdfrwt>
<totfact> 0.39826337E+03</totfact>
</mgrwt>
</event>
<event>
 5    1  0.3486589E-002  0.1250019E+03  0.7818608E-02  0.1235066E+00
          4   -1    0    0  501    0  0.00000000000E+00  0.00000000000E+00  0.86256164572E+03  0.86256258067E+03  0.12700000000E+01 0. -1.
         -4   -1    0    0    0  501 -0.00000000000E+00 -0.00000000000E+00 -0.44388047194E+01  0.46169131827E+01  0.12700000000E+01 0. -1.
         25    2    1    2    0    0  0.00000000000E+00  0.00000000000E+00  0.85812284100E+03  0.86717949385E+03  0.12500185721E+03 0.  0.
    9000005    1    3    3    0    0 -0.14092938167E+02  0.54219700638E+02  0.62118662226E+03  0.62370843069E+03  0.10000000000E+01 0.  0.
    9000005    1    3    3    0    0  0.14092938167E+02 -0.54219700638E+02  0.23693621874E+03  0.24347106316E+03  0.10000000000E+01 0.  0.
<mgrwt>
<rscale>  0 0.12500186E+03</rscale>
<asrwt>0</asrwt>
<pdfrwt beam="1">  1        4 0.13271553E+00 0.12500186E+03</pdfrwt>
<pdfrwt beam="2">  1       -4 0.69666577E-03 0.12500186E+03</pdfrwt>
<totfact> 0.35433025E+03</totfact>
</mgrwt>
</event>
<event>
 5    1  0.3486589E-002  0.1249649E+03  0.7818608E-02  0.1235124E+00
         -4   -1    0    0    0  501 -0.00000000000E+00  0.00000000000E+00  0.18134095462E+02  0.18178512541E+02  0.12700000000E+01 0.  1.
          4   -1    0    0  501    0  0.00000000000E+00 -0.00000000000E+00 -0.21497845229E+03  0.21498220356E+03  0.12700000000E+01 0.  1.
         25    2    1    2    0    0  0.00000000000E+00  0.00000000000E+00 -0.19684435682E+03  0.23316071610E+03  0.12496486994E+03 0.  0.
    9000005    1    3    3    0    0 -0.21118809773E+02  0.12341802819E+02  0.88372455983E+01  0.26027315129E+02  0.10000000000E+01 0.  0.
    9000005    1    3    3    0    0  0.21118809773E+02 -0.12341802819E+02 -0.20568160242E+03  0.20713340097E+03  0.10000000000E+01 0.  0.
<mgrwt>
<rscale>  0 0.12496487E+03</rscale>
<asrwt>0</asrwt>
<pdfrwt beam="2">  1        4 0.33077312E-01 0.12496487E+03</pdfrwt>
<pdfrwt beam="1">  1       -4 0.27935662E-02 0.12496487E+03</pdfrwt>
<totfact> 0.84893123E+03</totfact>
</mgrwt>
</event>
<event>
 5    1  0.3486589E-002  0.1249991E+03  0.7818608E-02  0.1235071E+00
          4   -1    0    0  501    0  0.00000000000E+00  0.00000000000E+00  0.61569984948E+02  0.61583081658E+02  0.12700000000E+01 0.  1.
         -4   -1    0    0    0  501 -0.00000000000E+00 -0.00000000000E+00 -0.63416904739E+02  0.63429620105E+02  0.12700000000E+01 0.  1.
         25    2    1    2    0    0  0.00000000000E+00  0.00000000000E+00 -0.18469197913E+01  0.12501270176E+03  0.12499905795E+03 0.  0.
    9000005    1    3    3    0    0  0.29832615127E+02 -0.54339201846E+02 -0.88273181345E+01  0.62623121354E+02  0.10000000000E+01 0.  0.
    9000005    1    3    3    0    0 -0.29832615127E+02  0.54339201846E+02  0.69803983432E+01  0.62389580409E+02  0.10000000000E+01 0.  0.
<mgrwt>
<rscale>  0 0.12499906E+03</rscale>
<asrwt>0</asrwt>
<pdfrwt beam="1">  1        4 0.94742909E-02 0.12499906E+03</pdfrwt>
<pdfrwt beam="2">  1       -4 0.97584324E-02 0.12499906E+03</pdfrwt>
<totfact> 0.10452809E+04</totfact>
</mgrwt>
</event>
<event>
 5    1  0.3486589E-002  0.1250006E+03  0.7818608E-02  0.1235068E+00
         -4   -1    0    0    0  501 -0.00000000000E+00  0.00000000000E+00  0.18837607832E+02  0.18880369933E+02  0.12700000000E+01 0.  1.
          4   -1    0    0  501    0  0.00000000000E+00 -0.00000000000E+00 -0.20708658595E+03  0.20709048017E+03  0.12700000000E+01 0.  1.
         25    2    1    2    0    0  0.00000000000E+00  0.00000000000E+00 -0.18824897811E+03  0.22597085011E+03  0.12500058935E+03 0.  0.
    9000005    1    3    3    0    0 -0.45729185194E+02 -0.24007534535E+02 -0.30524101311E+02  0.60002007081E+02  0.10000000000E+01 0.  0.
    9000005    1    3    3    0    0  0.45729185194E+02  0.24007534535E+02 -0.15772487680E+03  0.16596884303E+03  0.10000000000E+01 0.  0.
<mgrwt>
<rscale>  0 0.12500059E+03</rscale>
<asrwt>0</asrwt>
<pdfrwt beam="2">  1        4 0.31863062E-01 0.12500059E+03</pdfrwt>
<pdfrwt beam="1">  1       -4 0.29016826E-02 0.12500059E+03</pdfrwt>
<totfact> 0.85931011E+03</totfact>
</mgrwt>
</event>
<event>
 5    1  0.3486589E-002  0.1249996E+03  0.7818608E-02  0.1235070E+00
          4   -1    0    0  501    0  0.00000000000E+00  0.00000000000E+00  0.74840275535E+03  0.74840383291E+03  0.12700000000E+01 0. -1.
         -4   -1    0    0    0  501 -0.00000000000E+00 -0.00000000000E+00 -0.51410619086E+01  0.52956036057E+01  0.12700000000E+01 0. -1.
         25    2    1    2    0    0  0.00000000000E+00  0.00000000000E+00  0.74326169344E+03  0.75369943651E+03  0.12499958267E+03 0.  0.
    9000005    1    3    3    0    0  0.60341940337E+02 -0.58618280347E+01  0.28024424398E+03  0.28672869943E+03  0.10000000000E+01 0.  0.
    9000005    1    3    3    0    0 -0.60341940337E+02  0.58618280347E+01  0.46301744945E+03  0.46697073708E+03  0.10000000000E+01 0.  0.
<mgrwt>
<rscale>  0 0.12499958E+03</rscale>
<asrwt>0</asrwt>
<pdfrwt beam="1">  1        4 0.11515084E+00 0.12499958E+03</pdfrwt>
<pdfrwt beam="2">  1       -4 0.80290339E-03 0.12499958E+03</pdfrwt>
<totfact> 0.40398185E+03</totfact>
</mgrwt>
</event>
<event>
 5    1  0.3486589E-002  0.1249975E+03  0.7818608E-02  0.1235073E+00
         -4   -1    0    0    0  501 -0.00000000000E+00  0.00000000000E+00  0.44479634264E+02  0.44497761340E+02  0.12700000000E+01 0.  1.
          4   -1    0    0  501    0  0.00000000000E+00 -0.00000000000E+00 -0.87777024723E+02  0.87786211726E+02  0.12700000000E+01 0.  1.
         25    2    1    2    0    0  0.00000000000E+00  0.00000000000E+00 -0.43297390459E+02  0.13228397307E+03  0.12499754201E+03 0.  0.
    9000005    1    3    3    0    0 -0.15478402671E+02  0.57200859242E+02 -0.42643927543E+02  0.73013860353E+02  0.10000000000E+01 0.  0.
    9000005    1    3    3    0    0  0.15478402671E+02 -0.57200859242E+02 -0.65346291542E+00  0.59270112714E+02  0.10000000000E+01 0.  0.
<mgrwt>
<rscale>  0 0.12499754E+03</rscale>
<asrwt>0</asrwt>
<pdfrwt beam="2">  1        4 0.13506259E-01 0.12499754E+03</pdfrwt>
<pdfrwt beam="1">  1       -4 0.68451217E-02 0.12499754E+03</pdfrwt>
<totfact> 0.10296212E+04</totfact>
</mgrwt>
</event>
<event>
 5    1  0.3486589E-002  0.1250088E+03  0.7818608E-02  0.1235055E+00
         -4   -1    0    0    0  501 -0.00000000000E+00  0.00000000000E+00  0.18423401144E+02  0.18467122399E+02  0.12700000000E+01 0. -1.
          4   -1    0    0  501    0  0.00000000000E+00 -0.00000000000E+00 -0.21175953340E+03  0.21176334169E+03  0.12700000000E+01 0. -1.
         25    2    1    2    0    0  0.00000000000E+00  0.00000000000E+00 -0.19333613225E+03  0.23023046409E+03  0.12500882593E+03 0.  0.
    9000005    1    3    3    0    0 -0.40324737502E+02  0.47544488348E+02 -0.88589928406E+02  0.10833161239E+03  0.10000000000E+01 0.  0.
    9000005    1    3    3    0    0  0.40324737502E+02 -0.47544488348E+02 -0.10474620385E+03  0.12189885171E+03  0.10000000000E+01 0.  0.
<mgrwt>
<rscale>  0 0.12500883E+03</rscale>
<asrwt>0</asrwt>
<pdfrwt beam="2">  1        4 0.32582044E-01 0.12500883E+03</pdfrwt>
<pdfrwt beam="1">  1       -4 0.28380257E-02 0.12500883E+03</pdfrwt>
<totfact> 0.85257432E+03</totfact>
</mgrwt>
</event>
<event>
 5    1  0.3486589E-002  0.1250020E+03  0.7818608E-02  0.1235066E+00
         -4   -1    0    0    0  501 -0.00000000000E+00  0.00000000000E+00  0.95749361043E+02  0.95757783184E+02  0.12700000000E+01 0. -1.
          4   -1    0    0  501    0  0.00000000000E+00 -0.00000000000E+00 -0.40777827730E+02  0.40797599615E+02  0.12700000000E+01 0. -1.
         25    2    1    2    0    0  0.00000000000E+00  0.00000000000E+00  0.54971533314E+02  0.13655538280E+03  0.12500201237E+03 0.  0.
    9000005    1    3    3    0    0 -0.25314410268E+02 -0.33128126689E+02  0.78340297844E+02  0.88749616402E+02  0.10000000000E+01 0.  0.
    9000005    1    3    3    0    0  0.25314410268E+02  0.33128126689E+02 -0.23368764530E+02  0.47805766397E+02  0.10000000000E+01 0.  0.
<mgrwt>
<rscale>  0 0.12500201E+03</rscale>
<asrwt>0</asrwt>
<pdfrwt beam="2">  1        4 0.62756807E-02 0.12500201E+03</pdfrwt>
<pdfrwt beam="1">  1       -4 0.14732840E-01 0.12500201E+03</pdfrwt>
<totfact> 0.10204927E+04</totfact>
</mgrwt>
</event>
<event>
 5    1  0.3486589E-002  0.1249786E+03  0.7818608E-02  0.1235103E+00
          4   -1    0    0  501    0  0.00000000000E+00  0.00000000000E+00  0.11410084739E+02  0.11480545882E+02  0.12700000000E+01 0.  1.
         -4   -1    0    0    0  501 -0.00000000000E+00 -0.00000000000E+00 -0.34110841058E+03  0.34111077478E+03  0.12700000000E+01 0.  1.
         25    2    1    2    0    0  0.00000000000E+00  0.00000000000E+00 -0.32969832584E+03  0.35259132066E+03  0.12497861153E+03 0.  0.
    9000005    1    3    3    0    0  0.60049627770E+02  0.13541389938E+02 -0.19504883779E+03  0.20453453537E+03  0.10000000000E+01 0.  0.
    9000005    1    3    3    0    0 -0.60049627770E+02 -0.13541389938E+02 -0.13464948806E+03  0.14805678529E+03  0.10000000000E+01 0.  0.
<mgrwt>
<rscale>  0 0.12497861E+03</rscale>
<asrwt>0</asrwt>
<pdfrwt beam="1">  1        4 0.17609999E-02 0.12497861E+03</pdfrwt>
<pdfrwt beam="2">  1       -4 0.52483811E-01 0.12497861E+03</pdfrwt>
<totfact> 0.69473294E+03</totfact>
</mgrwt>
</event>
<event>
 5    1  0.3486589E-002  0.1250006E+03  0.7818608E-02  0.1235068E+00
          4   -1    0    0  501    0  0.00000000000E+00  0.00000000000E+00  0.24573515460E+02  0.24606311428E+02  0.12700000000E+01 0.  1.
         -4   -1    0    0    0  501 -0.00000000000E+00 -0.00000000000E+00 -0.15882202040E+03  0.15882709802E+03  0.12700000000E+01 0.  1.
         25    2    1    2    0    0  0.00000000000E+00  0.00000000000E+00 -0.13424850494E+03  0.18343340944E+03  0.12500061848E+03 0.  0.
    9000005    1    3    3    0    0 -0.27791576087E+02  0.55568999448E+02 -0.57279875476E+02  0.84511949069E+02  0.10000000000E+01 0.  0.
    9000005    1    3    3    0    0  0.27791576087E+02 -0.55568999448E+02 -0.76968629466E+02  0.98921460375E+02  0.10000000000E+01 0.  0.
<mgrwt>
<rscale>  0 0.12500062E+03</rscale>
<asrwt>0</asrwt>
<pdfrwt beam="1">  1        4 0.37834543E-02 0.12500062E+03</pdfrwt>
<pdfrwt beam="2">  1       -4 0.24437070E-01 0.12500062E+03</pdfrwt>
<totfact> 0.93001315E+03</totfact>
</mgrwt>
</event>
<event>
 5    1  0.3486589E-002  0.1250028E+03  0.7818608E-02  0.1235065E+00
          4   -1    0    0  501    0  0.00000000000E+00  0.00000000000E+00  0.19816659931E+02  0.19857313787E+02  0.12700000000E+01 0.  1.
         -4   -1    0    0    0  501 -0.00000000000E+00 -0.00000000000E+00 -0.19688348459E+03  0.19688758062E+03  0.12700000000E+01 0.  1.
         25    2    1    2    0    0  0.00000000000E+00  0.00000000000E+00 -0.17706682466E+03  0.21674489441E+03  0.12500275540E+03 0.  0.
    9000005    1    3    3    0    0 -0.52111194038E+01 -0.60079617633E+02 -0.60110539803E+02  0.85152763994E+02  0.10000000000E+01 0.  0.
    9000005    1    3    3    0    0  0.52111194038E+01  0.60079617633E+02 -0.11695628485E+03  0.13159213042E+03  0.10000000000E+01 0.  0.
<mgrwt>
<rscale>  0 0.12500276E+03</rscale>
<asrwt>0</asrwt>
<pdfrwt beam="1">  1        4 0.30521593E-02 0.12500276E+03</pdfrwt>
<pdfrwt beam="2">  1       -4 0.30293208E-01 0.12500276E+03</pdfrwt>
<totfact> 0.87380683E+03</totfact>
</mgrwt>
</event>
<event>
 5    1  0.3486589E-002  0.1249983E+03  0.7818608E-02  0.1235072E+00
         -4   -1    0    0    0  501 -0.00000000000E+00  0.00000000000E+00  0.63786140589E+03  0.63786267020E+03  0.12700000000E+01 0.  1.
          4   -1    0    0  501    0  0.00000000000E+00 -0.00000000000E+00 -0.60566836488E+01  0.61884017987E+01  0.12700000000E+01 0.  1.
         25    2    1    2    0    0  0.00000000000E+00  0.00000000000E+00  0.63180472225E+03  0.64405107199E+03  0.12499830513E+03 0.  0.
    9000005    1    3    3    0    0  0.53642334311E+02 -0.29685442719E+02  0.25355555554E+03  0.26086422769E+03  0.10000000000E+01 0.  0.
    9000005    1    3    3    0    0 -0.53642334311E+02  0.29685442719E+02  0.37824916670E+03  0.38318684431E+03  0.10000000000E+01 0.  0.
<mgrwt>
<rscale>  0 0.12499831E+03</rscale>
<asrwt>0</asrwt>
<pdfrwt beam="2">  1        4 0.94202636E-03 0.12499831E+03</pdfrwt>
<pdfrwt beam="1">  1       -4 0.98142810E-01 0.12499831E+03</pdfrwt>
<totfact> 0.46201614E+03</totfact>
</mgrwt>
</event>
<event>
 5    1  0.3486589E-002  0.1249448E+03  0.7818608E-02  0.1235156E+00
          4   -1    0    0  501    0  0.00000000000E+00  0.00000000000E+00  0.30174180587E+03  0.30174447850E+03  0.12700000000E+01 0. -1.
         -4   -1    0    0    0  501 -0.00000000000E+00 -0.00000000000E+00 -0.12900319677E+02  0.12962682892E+02  0.12700000000E+01 0. -1.
         25    2    1    2    0    0  0.00000000000E+00  0.00000000000E+00  0.28884148619E+03  0.31470716140E+03  0.12494476095E+03 0.  0.
    9000005    1    3    3    0    0 -0.20019789155E+01 -0.45635639235E+02  0.25173274203E+03  0.25584564272E+03  0.10000000000E+01 0.  0.
    9000005    1    3    3    0    0  0.20019789155E+01  0.45635639235E+02  0.37108744161E+02  0.58861518678E+02  0.10000000000E+01 0.  0.
<mgrwt>
<rscale>  0 0.12494476E+03</rscale>
<asrwt>0</asrwt>
<pdfrwt beam="1">  1        4 0.46426816E-01 0.12494476E+03</pdfrwt>
<pdfrwt beam="2">  1       -4 0.19896675E-02 0.12494476E+03</pdfrwt>
<totfact> 0.73880549E+03</totfact>
</mgrwt>
</event>
<event>
 5    1  0.3486589E-002  0.1249992E+03  0.7818608E-02  0.1235071E+00
         -4   -1    0    0    0  501 -0.00000000000E+00  0.00000000000E+00  0.47531652558E+01  0.49199064980E+01  0.12700000000E+01 0.  1.
          4   -1    0    0  501    0  0.00000000000E+00 -0.00000000000E+00 -0.80747657543E+03  0.80747757416E+03  0.12700000000E+01 0.  1.
         25    2    1    2    0    0  0.00000000000E+00  0.00000000000E+00 -0.80272341018E+03  0.81239748066E+03  0.12499917334E+03 0.  0.
    9000005    1    3    3    0    0 -0.52133161371E+01  0.13844595614E+02 -0.67594849295E+01  0.16295463460E+02  0.10000000000E+01 0.  0.
    9000005    1    3    3    0    0  0.52133161371E+01 -0.13844595614E+02 -0.79596392525E+03  0.79610201720E+03  0.10000000000E+01 0.  0.
<mgrwt>
<rscale>  0 0.12499917E+03</rscale>
<asrwt>0</asrwt>
<pdfrwt beam="2">  1        4 0.12423996E+00 0.12499917E+03</pdfrwt>
<pdfrwt beam="1">  1       -4 0.74415991E-03 0.12499917E+03</pdfrwt>
<totfact> 0.37717939E+03</totfact>
</mgrwt>
</event>
<event>
 5    1  0.3486589E-002  0.1249996E+03  0.7818608E-02  0.1235070E+00
          4   -1    0    0  501    0  0.00000000000E+00  0.00000000000E+00  0.98306920914E+01  0.99123865439E+01  0.12700000000E+01 0.  1.
         -4   -1    0    0    0  501 -0.00000000000E+00 -0.00000000000E+00 -0.39562276212E+03  0.39562480055E+03  0.12700000000E+01 0.  1.
         25    2    1    2    0    0  0.00000000000E+00  0.00000000000E+00 -0.38579207003E+03  0.40553718709E+03  0.12499955526E+03 0.  0.
    9000005    1    3    3    0    0  0.24353539296E+02  0.34321519304E+02 -0.43018766456E+02  0.60188668626E+02  0.10000000000E+01 0.  0.
    9000005    1    3    3    0    0 -0.24353539296E+02 -0.34321519304E+02 -0.34277330357E+03  0.34534851847E+03  0.10000000000E+01 0.  0.
<mgrwt>
<rscale>  0 0.12499956E+03</rscale>
<asrwt>0</asrwt>
<pdfrwt beam="1">  1        4 0.15188555E-02 0.12499956E+03</pdfrwt>
<pdfrwt beam="2">  1       -4 0.60871469E-01 0.12499956E+03</pdfrwt>
<totfact> 0.64018423E+03</totfact>
</mgrwt>
</event>
<event>
 5    1  0.3486589E-002  0.1249993E+03  0.7818608E-02  0.1235070E+00
         -4   -1    0    0    0  501 -0.00000000000E+00  0.00000000000E+00  0.65767578279E+02  0.65779839257E+02  0.12700000000E+01 0. -1.
          4   -1    0    0  501    0  0.00000000000E+00 -0.00000000000E+00 -0.59369504994E+02  0.59383087013E+02  0.12700000000E+01 0. -1.
         25    2    1    2    0    0  0.00000000000E+00  0.00000000000E+00  0.63980732848E+01  0.12516292627E+03  0.12499929108E+03 0.  0.
    9000005    1    3    3    0    0 -0.29035672787E+02 -0.32050743670E+02  0.48367791411E+02  0.64890397672E+02  0.10000000000E+01 0.  0.
    9000005    1    3    3    0    0  0.29035672787E+02  0.32050743670E+02 -0.41969718126E+02  0.60272528598E+02  0.10000000000E+01 0.  0.
<mgrwt>
<rscale>  0 0.12499929E+03</rscale>
<asrwt>0</asrwt>
<pdfrwt beam="2">  1        4 0.91357580E-02 0.12499929E+03</pdfrwt>
<pdfrwt beam="1">  1       -4 0.10120077E-01 0.12499929E+03</pdfrwt>
<totfact> 0.10449492E+04</totfact>
</mgrwt>
</event>
<event>
 5    1  0.3486589E-002  0.1250098E+03  0.7818608E-02  0.1235054E+00
          4   -1    0    0  501    0  0.00000000000E+00  0.00000000000E+00  0.36378606952E+03  0.36378828634E+03  0.12700000000E+01 0.  1.
         -4   -1    0    0    0  501 -0.00000000000E+00 -0.00000000000E+00 -0.10699641112E+02  0.10774749182E+02  0.12700000000E+01 0.  1.
         25    2    1    2    0    0  0.00000000000E+00  0.00000000000E+00  0.35308642841E+03  0.37456303552E+03  0.12500976623E+03 0.  0.
    9000005    1    3    3    0    0  0.41665953393E+02 -0.21456853015E+02  0.30042412008E+03  0.30405936944E+03  0.10000000000E+01 0.  0.
    9000005    1    3    3    0    0 -0.41665953393E+02  0.21456853015E+02  0.52662308328E+02  0.70503666089E+02  0.10000000000E+01 0.  0.
<mgrwt>
<rscale>  0 0.12500977E+03</rscale>
<asrwt>0</asrwt>
<pdfrwt beam="1">  1        4 0.55973021E-01 0.12500977E+03</pdfrwt>
<pdfrwt beam="2">  1       -4 0.16520471E-02 0.12500977E+03</pdfrwt>
<totfact> 0.67089769E+03</totfact>
</mgrwt>
</event>
<event>
 5    1  0.3486589E-002  0.1249993E+03  0.7818608E-02  0.1235070E+00
         -4   -1    0    0    0  501 -0.00000000000E+00  0.00000000000E+00  0.69185221203E+02  0.69196876613E+02  0.12700000000E+01 0.  1.
          4   -1    0    0  501    0  0.00000000000E+00 -0.00000000000E+00 -0.56436565059E+02  0.56450852745E+02  0.12700000000E+01 0.  1.
         25    2    1    2    0    0  0.00000000000E+00  0.00000000000E+00  0.12748656144E+02  0.12564772936E+03  0.12499929464E+03 0.  0.
    9000005    1    3    3    0    0  0.46949926776E+01 -0.24259785242E+02 -0.51322259580E+02  0.56969767988E+02  0.10000000000E+01 0.  0.
    9000005    1    3    3    0    0 -0.46949926776E+01  0.24259785242E+02  0.64070915724E+02  0.68677961370E+02  0.10000000000E+01 0.  0.
<mgrwt>
<rscale>  0 0.12499929E+03</rscale>
<asrwt>0</asrwt>
<pdfrwt beam="2">  1        4 0.86845441E-02 0.12499929E+03</pdfrwt>
<pdfrwt beam="1">  1       -4 0.10645876E-01 0.12499929E+03</pdfrwt>
<totfact> 0.10438861E+04</totfact>
</mgrwt>
</event>
<event>
 5    1  0.3486589E-002  0.1250005E+03  0.7818608E-02  0.1235068E+00
         -4   -1    0    0    0  501 -0.00000000000E+00  0.00000000000E+00  0.12480662019E+02  0.12545111575E+02  0.12700000000E+01 0.  1.
          4   -1    0    0  501    0  0.00000000000E+00 -0.00000000000E+00 -0.31211515531E+03  0.31211773913E+03  0.12700000000E+01 0.  1.
         25    2    1    2    0    0  0.00000000000E+00  0.00000000000E+00 -0.29963449330E+03  0.32466285070E+03  0.12500054821E+03 0.  0.
    9000005    1    3    3    0    0 -0.26167695696E+02 -0.56609659606E+02 -0.13946633016E+03  0.15277846415E+03  0.10000000000E+01 0.  0.
    9000005    1    3    3    0    0  0.26167695696E+02  0.56609659606E+02 -0.16016816314E+03  0.17188438655E+03  0.10000000000E+01 0.  0.
<mgrwt>
<rscale>  0 0.12500055E+03</rscale>
<asrwt>0</asrwt>
<pdfrwt beam="2">  1        4 0.48022867E-01 0.12500055E+03</pdfrwt>
<pdfrwt beam="1">  1       -4 0.19252585E-02 0.12500055E+03</pdfrwt>
<totfact> 0.72604072E+03</totfact>
</mgrwt>
</event>
<event>
 5    1  0.3486589E-002  0.1250023E+03  0.7818608E-02  0.1235066E+00
          4   -1    0    0  501    0  0.00000000000E+00  0.00000000000E+00  0.10428265871E+04  0.10428273604E+04  0.12700000000E+01 0.  1.
         -4   -1    0    0    0  501 -0.00000000000E+00 -0.00000000000E+00 -0.36375269847E+01  0.38528564162E+01  0.12700000000E+01 0.  1.
         25    2    1    2    0    0  0.00000000000E+00  0.00000000000E+00  0.10391890601E+04  0.10466802168E+04  0.12500229468E+03 0.  0.
    9000005    1    3    3    0    0  0.57147464862E+01  0.43994224631E+02  0.15105157571E+03  0.15743483939E+03  0.10000000000E+01 0.  0.
    9000005    1    3    3    0    0 -0.57147464862E+01 -0.43994224631E+02  0.88813748439E+03  0.88924537745E+03  0.10000000000E+01 0.  0.
<mgrwt>
<rscale>  0 0.12500229E+03</rscale>
<asrwt>0</asrwt>
<pdfrwt beam="1">  1        4 0.16045159E+00 0.12500229E+03</pdfrwt>
<pdfrwt beam="2">  1       -4 0.57624246E-03 0.12500229E+03</pdfrwt>
<totfact> 0.29097172E+03</totfact>
</mgrwt>
</event>
<event>
 5    1  0.3486589E-002  0.1250034E+03  0.7818608E-02  0.1235064E+00
         -4   -1    0    0    0  501 -0.00000000000E+00  0.00000000000E+00  0.71343743136E+03  0.71343856173E+03  0.12700000000E+01 0.  1.
          4   -1    0    0  501    0  0.00000000000E+00 -0.00000000000E+00 -0.54007566947E+01  0.55480692926E+01  0.12700000000E+01 0.  1.
         25    2    1    2    0    0  0.00000000000E+00  0.00000000000E+00  0.70803667467E+03  0.71898663103E+03  0.12500337164E+03 0.  0.
    9000005    1    3    3    0    0  0.59186022275E+02  0.10759976238E+02  0.45140774607E+03  0.45539951201E+03  0.10000000000E+01 0.  0.
    9000005    1    3    3    0    0 -0.59186022275E+02 -0.10759976238E+02  0.25662892860E+03  0.26358711902E+03  0.10000000000E+01 0.  0.
<mgrwt>
<rscale>  0 0.12500337E+03</rscale>
<asrwt>0</asrwt>
<pdfrwt beam="2">  1        4 0.84230482E-03 0.12500337E+03</pdfrwt>
<pdfrwt beam="1">  1       -4 0.10977096E+00 0.12500337E+03</pdfrwt>
<totfact> 0.42100091E+03</totfact>
</mgrwt>
</event>
<event>
 5    1  0.3486589E-002  0.1249983E+03  0.7818608E-02  0.1235072E+00
          4   -1    0    0  501    0  0.00000000000E+00  0.00000000000E+00  0.13406520211E+02  0.13466539428E+02  0.12700000000E+01 0. -1.
         -4   -1    0    0    0  501 -0.00000000000E+00 -0.00000000000E+00 -0.29064923718E+03  0.29065201181E+03  0.12700000000E+01 0. -1.
         25    2    1    2    0    0  0.00000000000E+00  0.00000000000E+00 -0.27724271696E+03  0.30411855124E+03  0.12499827638E+03 0.  0.
    9000005    1    3    3    0    0  0.22772125460E+02  0.30575729787E+01 -0.28001139628E+03  0.28095426762E+03  0.10000000000E+01 0.  0.
    9000005    1    3    3    0    0 -0.22772125460E+02 -0.30575729787E+01  0.27686793111E+01  0.23164283620E+02  0.10000000000E+01 0.  0.
<mgrwt>
<rscale>  0 0.12499828E+03</rscale>
<asrwt>0</asrwt>
<pdfrwt beam="1">  1        4 0.20673721E-02 0.12499828E+03</pdfrwt>
<pdfrwt beam="2">  1       -4 0.44720093E-01 0.12499828E+03</pdfrwt>
<totfact> 0.75087977E+03</totfact>
</mgrwt>
</event>
<event>
 4    1  0.3486589E-002  0.1245815E+03  0.7818608E-02  0.1235725E+00
          4   -1    0    0  501    0  0.00000000000E+00  0.00000000000E+00  0.99794538692E+03  0.99794619503E+03  0.12700000000E+01 0. -1.
         -4   -1    0    0    0  501 -0.00000000000E+00 -0.00000000000E+00 -0.37835905665E+01  0.39910471778E+01  0.12700000000E+01 0. -1.
    9000005    1    1    2    0    0 -0.16257145174E+02 -0.53757069289E+02  0.71363311685E+03  0.71584030533E+03  0.10000000000E+01 0.  0.
    9000005    1    1    2    0    0  0.16257145174E+02  0.53757069289E+02  0.28052867949E+03  0.28609693687E+03  0.10000000000E+01 0.  0.
<mgrwt>
<rscale>  0 0.12458154E+03</rscale>
<asrwt>0</asrwt>
<pdfrwt beam="1">  1        4 0.15354612E+00 0.12458154E+03</pdfrwt>
<pdfrwt beam="2">  1       -4 0.59811107E-03 0.12458154E+03</pdfrwt>
<totfact> 0.30821071E+03</totfact>
</mgrwt>
</event>
<event>
 5    1  0.3486589E-002  0.1249989E+03  0.7818608E-02  0.1235071E+00
         -4   -1    0    0    0  501 -0.00000000000E+00  0.00000000000E+00  0.80504413684E+02  0.80514430524E+02  0.12700000000E+01 0. -1.
          4   -1    0    0  501    0  0.00000000000E+00 -0.00000000000E+00 -0.48499953623E+02  0.48516578625E+02  0.12700000000E+01 0. -1.
         25    2    1    2    0    0  0.00000000000E+00  0.00000000000E+00  0.32004460061E+02  0.12903100915E+03  0.12499886343E+03 0.  0.
    9000005    1    3    3    0    0 -0.41506982799E+02 -0.46589143412E+02  0.19548310046E+02  0.65395063504E+02  0.10000000000E+01 0.  0.
    9000005    1    3    3    0    0  0.41506982799E+02  0.46589143412E+02  0.12456150015E+02  0.63635945645E+02  0.10000000000E+01 0.  0.
<mgrwt>
<rscale>  0 0.12499886E+03</rscale>
<asrwt>0</asrwt>
<pdfrwt beam="2">  1        4 0.74635808E-02 0.12499886E+03</pdfrwt>
<pdfrwt beam="1">  1       -4 0.12387344E-01 0.12499886E+03</pdfrwt>
<totfact> 0.10365546E+04</totfact>
</mgrwt>
</event>
<event>
 5    1  0.3486589E-002  0.1250079E+03  0.7818608E-02  0.1235057E+00
          4   -1    0    0  501    0  0.00000000000E+00  0.00000000000E+00  0.45229932126E+02  0.45247758620E+02  0.12700000000E+01 0. -1.
         -4   -1    0    0    0  501 -0.00000000000E+00 -0.00000000000E+00 -0.86335627840E+02  0.86344968206E+02  0.12700000000E+01 0. -1.
         25    2    1    2    0    0  0.00000000000E+00  0.00000000000E+00 -0.41105695714E+02  0.13159272683E+03  0.12500786989E+03 0.  0.
    9000005    1    3    3    0    0  0.17446443415E+02  0.40022406087E+02 -0.67624874035E+02  0.80500279286E+02  0.10000000000E+01 0.  0.
    9000005    1    3    3    0    0 -0.17446443415E+02 -0.40022406087E+02  0.26519178321E+02  0.51092447541E+02  0.10000000000E+01 0.  0.
<mgrwt>
<rscale>  0 0.12500787E+03</rscale>
<asrwt>0</asrwt>
<pdfrwt beam="1">  1        4 0.69605409E-02 0.12500787E+03</pdfrwt>
<pdfrwt beam="2">  1       -4 0.13284494E-01 0.12500787E+03</pdfrwt>
<totfact> 0.10308569E+04</totfact>
</mgrwt>
</event>
<event>
 5    1  0.3486589E-002  0.1250012E+03  0.7818608E-02  0.1235067E+00
         -4   -1    0    0    0  501 -0.00000000000E+00  0.00000000000E+00  0.34491974242E+02  0.34515347125E+02  0.12700000000E+01 0.  1.
          4   -1    0    0  501    0  0.00000000000E+00 -0.00000000000E+00 -0.11318784248E+03  0.11319496714E+03  0.12700000000E+01 0.  1.
         25    2    1    2    0    0  0.00000000000E+00  0.00000000000E+00 -0.78695868239E+02  0.14771031426E+03  0.12500118904E+03 0.  0.
    9000005    1    3    3    0    0  0.26827586283E+02  0.56435761013E+02 -0.38425164102E+02  0.73363531425E+02  0.10000000000E+01 0.  0.
    9000005    1    3    3    0    0 -0.26827586283E+02 -0.56435761013E+02 -0.40270704137E+02  0.74346782839E+02  0.10000000000E+01 0.  0.
<mgrwt>
<rscale>  0 0.12500119E+03</rscale>
<asrwt>0</asrwt>
<pdfrwt beam="2">  1        4 0.17415860E-01 0.12500119E+03</pdfrwt>
<pdfrwt beam="1">  1       -4 0.53088036E-02 0.12500119E+03</pdfrwt>
<totfact> 0.99759416E+03</totfact>
</mgrwt>
</event>
<event>
 5    1  0.3486589E-002  0.1249990E+03  0.7818608E-02  0.1235071E+00
          4   -1    0    0  501    0  0.00000000000E+00  0.00000000000E+00  0.11853917565E+04  0.11853924368E+04  0.12700000000E+01 0.  1.
         -4   -1    0    0    0  501 -0.00000000000E+00 -0.00000000000E+00 -0.31721973632E+01  0.34169776281E+01  0.12700000000E+01 0.  1.
         25    2    1    2    0    0  0.00000000000E+00  0.00000000000E+00  0.11822195591E+04  0.11888094144E+04  0.12499895153E+03 0.  0.
    9000005    1    3    3    0    0 -0.17503045529E+02 -0.10324830030E+02  0.29082985265E+02  0.35493362054E+02  0.10000000000E+01 0.  0.
    9000005    1    3    3    0    0  0.17503045529E+02  0.10324830030E+02  0.11531365738E+04  0.11533160524E+04  0.10000000000E+01 0.  0.
<mgrwt>
<rscale>  0 0.12499895E+03</rscale>
<asrwt>0</asrwt>
<pdfrwt beam="1">  1        4 0.18238710E+00 0.12499895E+03</pdfrwt>
<pdfrwt beam="2">  1       -4 0.50691124E-03 0.12499895E+03</pdfrwt>
<totfact> 0.25008081E+03</totfact>
</mgrwt>
</event>
<event>
 5    1  0.3486589E-002  0.1250003E+03  0.7818608E-02  0.1235069E+00
          4   -1    0    0  501    0  0.00000000000E+00  0.00000000000E+00  0.10225217757E+03  0.10226006414E+03  0.12700000000E+01 0.  1.
         -4   -1    0    0    0  501 -0.00000000000E+00 -0.00000000000E+00 -0.38182400977E+02  0.38203516125E+02  0.12700000000E+01 0.  1.
         25    2    1    2    0    0  0.00000000000E+00  0.00000000000E+00  0.64069776590E+02  0.14046358026E+03  0.12500032443E+03 0.  0.
    9000005    1    3    3    0    0  0.32930996456E+02  0.65394653229E-01 -0.27646639518E+02  0.43009202280E+02  0.10000000000E+01 0.  0.
    9000005    1    3    3    0    0 -0.32930996456E+02 -0.65394653229E-01  0.91716416108E+02  0.97454377982E+02  0.10000000000E+01 0.  0.
<mgrwt>
<rscale>  0 0.12500032E+03</rscale>
<asrwt>0</asrwt>
<pdfrwt beam="1">  1        4 0.15733335E-01 0.12500032E+03</pdfrwt>
<pdfrwt beam="2">  1       -4 0.58764464E-02 0.12500032E+03</pdfrwt>
<totfact> 0.10123913E+04</totfact>
</mgrwt>
</event>
<event>
 5    1  0.3486589E-002  0.1249941E+03  0.7818608E-02  0.1235079E+00
         -4   -1    0    0    0  501 -0.00000000000E+00  0.00000000000E+00  0.39155317701E+02  0.39175908467E+02  0.12700000000E+01 0. -1.
          4   -1    0    0  501    0  0.00000000000E+00 -0.00000000000E+00 -0.99702629310E+02  0.99710717535E+02  0.12700000000E+01 0. -1.
         25    2    1    2    0    0  0.00000000000E+00  0.00000000000E+00 -0.60547311610E+02  0.13888662600E+03  0.12499407162E+03 0.  0.
    9000005    1    3    3    0    0 -0.14210607076E+02  0.24860867468E+02 -0.91988526884E+02  0.96347771967E+02  0.10000000000E+01 0.  0.
    9000005    1    3    3    0    0  0.14210607076E+02 -0.24860867468E+02  0.31441215274E+02  0.42538854036E+02  0.10000000000E+01 0.  0.
<mgrwt>
<rscale>  0 0.12499407E+03</rscale>
<asrwt>0</asrwt>
<pdfrwt beam="2">  1        4 0.15341072E-01 0.12499407E+03</pdfrwt>
<pdfrwt beam="1">  1       -4 0.60261012E-02 0.12499407E+03</pdfrwt>
<totfact> 0.10158070E+04</totfact>
</mgrwt>
</event>
<event>
 4    1  0.3486589E-002  0.1249115E+03  0.7818608E-02  0.1235208E+00
          4   -1    0    0  501    0  0.00000000000E+00  0.00000000000E+00  0.30395540202E+02  0.30422060485E+02  0.12700000000E+01 0. -1.
         -4   -1    0    0    0  501 -0.00000000000E+00 -0.00000000000E+00 -0.12824640627E+03  0.12825269441E+03  0.12700000000E+01 0. -1.
    9000005    1    1    2    0    0  0.38373586164E+02 -0.43724954636E+02 -0.20088909890E+02  0.61554594253E+02  0.10000000000E+01 0.  0.
    9000005    1    1    2    0    0 -0.38373586164E+02  0.43724954636E+02 -0.77761956182E+02  0.97120160638E+02  0.10000000000E+01 0.  0.
<mgrwt>
<rscale>  0 0.12491151E+03</rscale>
<asrwt>0</asrwt>
<pdfrwt beam="1">  1        4 0.46787608E-02 0.12491151E+03</pdfrwt>
<pdfrwt beam="2">  1       -4 0.19732740E-01 0.12491151E+03</pdfrwt>
<totfact> 0.97793296E+03</totfact>
</mgrwt>
</event>
<event>
 5    1  0.3486589E-002  0.1249990E+03  0.7818608E-02  0.1235071E+00
         -4   -1    0    0    0  501 -0.00000000000E+00  0.00000000000E+00  0.36762527670E+03  0.36762747037E+03  0.12700000000E+01 0. -1.
          4   -1    0    0  501    0  0.00000000000E+00 -0.00000000000E+00 -0.10585279924E+02  0.10661193698E+02  0.12700000000E+01 0. -1.
         25    2    1    2    0    0  0.00000000000E+00  0.00000000000E+00  0.35703999677E+03  0.37828866406E+03  0.12499901624E+03 0.  0.
    9000005    1    3    3    0    0 -0.50032662387E+02 -0.42897824048E+01  0.65953464816E+02  0.82900718091E+02  0.10000000000E+01 0.  0.
    9000005    1    3    3    0    0  0.50032662387E+02  0.42897824048E+01  0.29108653196E+03  0.29538794597E+03  0.10000000000E+01 0.  0.
<mgrwt>
<rscale>  0 0.12499902E+03</rscale>
<asrwt>0</asrwt>
<pdfrwt beam="2">  1        4 0.16345128E-02 0.12499902E+03</pdfrwt>
<pdfrwt beam="1">  1       -4 0.56563744E-01 0.12499902E+03</pdfrwt>
<totfact> 0.66722059E+03</totfact>
</mgrwt>
</event>
<event>
 5    1  0.3486589E-002  0.1249983E+03  0.7818608E-02  0.1235072E+00
         -4   -1    0    0    0  501 -0.00000000000E+00  0.00000000000E+00  0.13237590890E+03  0.13238200088E+03  0.12700000000E+01 0.  1.
          4   -1    0    0  501    0  0.00000000000E+00 -0.00000000000E+00 -0.29487530794E+02  0.29514866971E+02  0.12700000000E+01 0.  1.
         25    2    1    2    0    0  0.00000000000E+00  0.00000000000E+00  0.10288837811E+03  0.16189686786E+03  0.12499830987E+03 0.  0.
    9000005    1    3    3    0    0 -0.48348587300E+02 -0.37795698334E+02  0.66716680956E+02  0.90654377855E+02  0.10000000000E+01 0.  0.
    9000005    1    3    3    0    0  0.48348587300E+02  0.37795698334E+02  0.36171697154E+02  0.71242490001E+02  0.10000000000E+01 0.  0.
<mgrwt>
<rscale>  0 0.12499831E+03</rscale>
<asrwt>0</asrwt>
<pdfrwt beam="2">  1        4 0.45391146E-02 0.12499831E+03</pdfrwt>
<pdfrwt beam="1">  1       -4 0.20368096E-01 0.12499831E+03</pdfrwt>
<totfact> 0.96982009E+03</totfact>
</mgrwt>
</event>
<event>
 5    1  0.3486589E-002  0.1250059E+03  0.7818608E-02  0.1235060E+00
          4   -1    0    0  501    0  0.00000000000E+00  0.00000000000E+00  0.12528136072E+02  0.12592342651E+02  0.12700000000E+01 0.  1.
         -4   -1    0    0    0  501 -0.00000000000E+00 -0.00000000000E+00 -0.31096499647E+03  0.31096758983E+03  0.12700000000E+01 0.  1.
         25    2    1    2    0    0  0.00000000000E+00  0.00000000000E+00 -0.29843686039E+03  0.32355993249E+03  0.12500588094E+03 0.  0.
    9000005    1    3    3    0    0  0.29931782809E+02  0.42478433262E+02 -0.59357724466E+02  0.78896567532E+02  0.10000000000E+01 0.  0.
    9000005    1    3    3    0    0 -0.29931782809E+02 -0.42478433262E+02 -0.23907913593E+03  0.24466336495E+03  0.10000000000E+01 0.  0.
<mgrwt>
<rscale>  0 0.12500588E+03</rscale>
<asrwt>0</asrwt>
<pdfrwt beam="1">  1        4 0.19325442E-02 0.12500588E+03</pdfrwt>
<pdfrwt beam="2">  1       -4 0.47845901E-01 0.12500588E+03</pdfrwt>
<totfact> 0.72725233E+03</totfact>
</mgrwt>
</event>
<event>
 5    1  0.3486589E-002  0.1250007E+03  0.7818608E-02  0.1235068E+00
          4   -1    0    0  501    0  0.00000000000E+00  0.00000000000E+00  0.85335716814E+02  0.85345166613E+02  0.12700000000E+01 0. -1.
         -4   -1    0    0    0  501 -0.00000000000E+00 -0.00000000000E+00 -0.45754784099E+02  0.45772406185E+02  0.12700000000E+01 0. -1.
         25    2    1    2    0    0  0.00000000000E+00  0.00000000000E+00  0.39580932715E+02  0.13111757280E+03  0.12500067065E+03 0.  0.
    9000005    1    3    3    0    0 -0.58833028458E+02  0.98222880668E+00  0.41868040643E+02  0.72223423058E+02  0.10000000000E+01 0.  0.
    9000005    1    3    3    0    0  0.58833028458E+02 -0.98222880668E+00 -0.22871079273E+01  0.58894149740E+02  0.10000000000E+01 0.  0.
<mgrwt>
<rscale>  0 0.12500067E+03</rscale>
<asrwt>0</asrwt>
<pdfrwt beam="1">  1        4 0.13130654E-01 0.12500067E+03</pdfrwt>
<pdfrwt beam="2">  1       -4 0.70412801E-02 0.12500067E+03</pdfrwt>
<totfact> 0.10320413E+04</totfact>
</mgrwt>
</event>
<event>
 5    1  0.3486589E-002  0.1249991E+03  0.7818608E-02  0.1235071E+00
         -4   -1    0    0    0  501 -0.00000000000E+00  0.00000000000E+00  0.26825422922E+01  0.29679846949E+01  0.12700000000E+01 0.  1.
          4   -1    0    0  501    0  0.00000000000E+00 -0.00000000000E+00 -0.13823079440E+04  0.13823085274E+04  0.12700000000E+01 0.  1.
         25    2    1    2    0    0  0.00000000000E+00  0.00000000000E+00 -0.13796254017E+04  0.13852765121E+04  0.12499906378E+03 0.  0.
    9000005    1    3    3    0    0 -0.25421174128E+02 -0.57075718562E+02 -0.67709100127E+03  0.67996845349E+03  0.10000000000E+01 0.  0.
    9000005    1    3    3    0    0  0.25421174128E+02  0.57075718562E+02 -0.70253440043E+03  0.70530805861E+03  0.10000000000E+01 0.  0.
<mgrwt>
<rscale>  0 0.12499906E+03</rscale>
<asrwt>0</asrwt>
<pdfrwt beam="2">  1        4 0.21268422E+00 0.12499906E+03</pdfrwt>
<pdfrwt beam="1">  1       -4 0.43470190E-03 0.12499906E+03</pdfrwt>
<totfact> 0.20299592E+03</totfact>
</mgrwt>
</event>
<event>
 5    1  0.3486589E-002  0.1250076E+03  0.7818608E-02  0.1235057E+00
          4   -1    0    0  501    0  0.00000000000E+00  0.00000000000E+00  0.14780198299E+03  0.14780743918E+03  0.12700000000E+01 0.  1.
         -4   -1    0    0    0  501 -0.00000000000E+00 -0.00000000000E+00 -0.26410932053E+02  0.26441449126E+02  0.12700000000E+01 0.  1.
         25    2    1    2    0    0  0.00000000000E+00  0.00000000000E+00  0.12139105094E+03  0.17424888831E+03  0.12500755108E+03 0.  0.
    9000005    1    3    3    0    0  0.37595807095E+02 -0.39443688825E+02  0.18039408416E+02  0.57407922408E+02  0.10000000000E+01 0.  0.
    9000005    1    3    3    0    0 -0.37595807095E+02  0.39443688825E+02  0.10335164253E+03  0.11684096590E+03  0.10000000000E+01 0.  0.
<mgrwt>
<rscale>  0 0.12500755E+03</rscale>
<asrwt>0</asrwt>
<pdfrwt beam="1">  1        4 0.22741534E-01 0.12500755E+03</pdfrwt>
<pdfrwt beam="2">  1       -4 0.40659875E-02 0.12500755E+03</pdfrwt>
<totfact> 0.94646550E+03</totfact>
</mgrwt>
</event>
<event>
 5    1  0.3486589E-002  0.1250024E+03  0.7818608E-02  0.1235066E+00
         -4   -1    0    0    0  501 -0.00000000000E+00  0.00000000000E+00  0.24817408932E+02  0.24849883019E+02  0.12700000000E+01 0.  1.
          4   -1    0    0  501    0  0.00000000000E+00 -0.00000000000E+00 -0.15726756621E+03  0.15727269401E+03  0.12700000000E+01 0.  1.
         25    2    1    2    0    0  0.00000000000E+00  0.00000000000E+00 -0.13245015728E+03  0.18212257703E+03  0.12500235558E+03 0.  0.
    9000005    1    3    3    0    0  0.61991905602E+02  0.25312696563E+01 -0.55322868507E+02  0.83132565617E+02  0.10000000000E+01 0.  0.
    9000005    1    3    3    0    0 -0.61991905602E+02 -0.25312696563E+01 -0.77127288770E+02  0.98990011412E+02  0.10000000000E+01 0.  0.
<mgrwt>
<rscale>  0 0.12500236E+03</rscale>
<asrwt>0</asrwt>
<pdfrwt beam="2">  1        4 0.24197902E-01 0.12500236E+03</pdfrwt>
<pdfrwt beam="1">  1       -4 0.38209555E-02 0.12500236E+03</pdfrwt>
<totfact> 0.93231399E+03</totfact>
</mgrwt>
</event>
<event>
 5    1  0.3486589E-002  0.1250000E+03  0.7818608E-02  0.1235069E+00
         -4   -1    0    0    0  501 -0.00000000000E+00  0.00000000000E+00  0.75885403000E+02  0.75896029465E+02  0.12700000000E+01 0. -1.
          4   -1    0    0  501    0  0.00000000000E+00 -0.00000000000E+00 -0.51453573213E+02  0.51469244180E+02  0.12700000000E+01 0. -1.
         25    2    1    2    0    0  0.00000000000E+00  0.00000000000E+00  0.24431829787E+02  0.12736527364E+03  0.12499999450E+03 0.  0.
    9000005    1    3    3    0    0  0.13577575100E+01 -0.51112542297E+02 -0.24393241660E+02  0.56660089342E+02  0.10000000000E+01 0.  0.
    9000005    1    3    3    0    0 -0.13577575100E+01  0.51112542297E+02  0.48825071447E+02  0.70705184303E+02  0.10000000000E+01 0.  0.
<mgrwt>
<rscale>  0 0.12499999E+03</rscale>
<asrwt>0</asrwt>
<pdfrwt beam="2">  1        4 0.79179572E-02 0.12499999E+03</pdfrwt>
<pdfrwt beam="1">  1       -4 0.11676700E-01 0.12499999E+03</pdfrwt>
<totfact> 0.10401221E+04</totfact>
</mgrwt>
</event>
<event>
 5    1  0.3486589E-002  0.1249977E+03  0.7818608E-02  0.1235073E+00
         -4   -1    0    0    0  501 -0.00000000000E+00  0.00000000000E+00  0.20600517806E+03  0.20600909273E+03  0.12700000000E+01 0.  1.
          4   -1    0    0  501    0  0.00000000000E+00 -0.00000000000E+00 -0.18935851562E+02  0.18978392302E+02  0.12700000000E+01 0.  1.
         25    2    1    2    0    0  0.00000000000E+00  0.00000000000E+00  0.18706932650E+03  0.22498748503E+03  0.12499774200E+03 0.  0.
    9000005    1    3    3    0    0  0.59131067347E+02 -0.21761369065E+01  0.12970793904E+03  0.14257057252E+03  0.10000000000E+01 0.  0.
    9000005    1    3    3    0    0 -0.59131067347E+02  0.21761369065E+01  0.57361387451E+02  0.82416912510E+02  0.10000000000E+01 0.  0.
<mgrwt>
<rscale>  0 0.12499774E+03</rscale>
<asrwt>0</asrwt>
<pdfrwt beam="2">  1        4 0.29167814E-02 0.12499774E+03</pdfrwt>
<pdfrwt beam="1">  1       -4 0.31696679E-01 0.12499774E+03</pdfrwt>
<totfact> 0.86089585E+03</totfact>
</mgrwt>
</event>
<event>
 5    1  0.3486589E-002  0.1249739E+03  0.7818608E-02  0.1235110E+00
          4   -1    0    0  501    0  0.00000000000E+00  0.00000000000E+00  0.14977325402E+02  0.15031073688E+02  0.12700000000E+01 0.  1.
         -4   -1    0    0    0  501 -0.00000000000E+00 -0.00000000000E+00 -0.26017982608E+03  0.26018292565E+03  0.12700000000E+01 0.  1.
         25    2    1    2    0    0  0.00000000000E+00  0.00000000000E+00 -0.24520250068E+03  0.27521399934E+03  0.12497391365E+03 0.  0.
    9000005    1    3    3    0    0  0.13760581122E+02 -0.12824306704E+02 -0.25380713018E+03  0.25450515862E+03  0.10000000000E+01 0.  0.
    9000005    1    3    3    0    0 -0.13760581122E+02  0.12824306704E+02  0.86046294952E+01  0.20708840721E+02  0.10000000000E+01 0.  0.
<mgrwt>
<rscale>  0 0.12497391E+03</rscale>
<asrwt>0</asrwt>
<pdfrwt beam="1">  1        4 0.23085770E-02 0.12497391E+03</pdfrwt>
<pdfrwt beam="2">  1       -4 0.40032035E-01 0.12497391E+03</pdfrwt>
<totfact> 0.78862740E+03</totfact>
</mgrwt>
</event>
<event>
 5    1  0.3486589E-002  0.1250000E+03  0.7818608E-02  0.1235069E+00
         -4   -1    0    0    0  501 -0.00000000000E+00  0.00000000000E+00  0.58289283493E+02  0.58303117156E+02  0.12700000000E+01 0.  1.
          4   -1    0    0  501    0  0.00000000000E+00 -0.00000000000E+00 -0.66987048463E+02  0.66999086276E+02  0.12700000000E+01 0.  1.
         25    2    1    2    0    0  0.00000000000E+00  0.00000000000E+00 -0.86977649705E+01  0.12530220343E+03  0.12499996428E+03 0.  0.
    9000005    1    3    3    0    0 -0.55405292517E+02  0.25765130155E+02 -0.17482446947E+02  0.63562758924E+02  0.10000000000E+01 0.  0.
    9000005    1    3    3    0    0  0.55405292517E+02 -0.25765130155E+02  0.87846819760E+01  0.61739444508E+02  0.10000000000E+01 0.  0.
<mgrwt>
<rscale>  0 0.12499996E+03</rscale>
<asrwt>0</asrwt>
<pdfrwt beam="2">  1        4 0.10307690E-01 0.12499996E+03</pdfrwt>
<pdfrwt beam="1">  1       -4 0.89695722E-02 0.12499996E+03</pdfrwt>
<totfact> 0.10446311E+04</totfact>
</mgrwt>
</event>
<event>
 5    1  0.3486589E-002  0.1249979E+03  0.7818608E-02  0.1235073E+00
          4   -1    0    0  501    0  0.00000000000E+00  0.00000000000E+00  0.89880202217E+02  0.89889174268E+02  0.12700000000E+01 0.  1.
         -4   -1    0    0    0  501 -0.00000000000E+00 -0.00000000000E+00 -0.43438727771E+02  0.43457289036E+02  0.12700000000E+01 0.  1.
         25    2    1    2    0    0  0.00000000000E+00  0.00000000000E+00  0.46441474446E+02  0.13334646330E+03  0.12499787489E+03 0.  0.
    9000005    1    3    3    0    0  0.51986437247E+02 -0.36756742578E+01 -0.13564443458E+02  0.53861808039E+02  0.10000000000E+01 0.  0.
    9000005    1    3    3    0    0 -0.51986437247E+02  0.36756742578E+01  0.60005917905E+02  0.79484655264E+02  0.10000000000E+01 0.  0.
<mgrwt>
<rscale>  0 0.12499787E+03</rscale>
<asrwt>0</asrwt>
<pdfrwt beam="1">  1        4 0.13829841E-01 0.12499787E+03</pdfrwt>
<pdfrwt beam="2">  1       -4 0.66849993E-02 0.12499787E+03</pdfrwt>
<totfact> 0.10273534E+04</totfact>
</mgrwt>
</event>
<event>
 5    1  0.3486589E-002  0.1249924E+03  0.7818608E-02  0.1235081E+00
          4   -1    0    0  501    0  0.00000000000E+00  0.00000000000E+00  0.15535054966E+02  0.15586880149E+02  0.12700000000E+01 0. -1.
         -4   -1    0    0    0  501 -0.00000000000E+00 -0.00000000000E+00 -0.25094468130E+03  0.25094789494E+03  0.12700000000E+01 0. -1.
         25    2    1    2    0    0  0.00000000000E+00  0.00000000000E+00 -0.23540962634E+03  0.26653477509E+03  0.12499237640E+03 0.  0.
    9000005    1    3    3    0    0 -0.29401722364E+02  0.41213814998E+02 -0.39595373691E+02  0.64279339157E+02  0.10000000000E+01 0.  0.
    9000005    1    3    3    0    0  0.29401722364E+02 -0.41213814998E+02 -0.19581425264E+03  0.20225543593E+03  0.10000000000E+01 0.  0.
<mgrwt>
<rscale>  0 0.12499238E+03</rscale>
<asrwt>0</asrwt>
<pdfrwt beam="1">  1        4 0.23942424E-02 0.12499238E+03</pdfrwt>
<pdfrwt beam="2">  1       -4 0.38611105E-01 0.12499238E+03</pdfrwt>
<totfact> 0.80011228E+03</totfact>
</mgrwt>
</event>
<event>
 5    1  0.3486589E-002  0.1249985E+03  0.7818608E-02  0.1235072E+00
          4   -1    0    0  501    0  0.00000000000E+00  0.00000000000E+00  0.23932069494E+02  0.23965743266E+02  0.12700000000E+01 0. -1.
         -4   -1    0    0    0  501 -0.00000000000E+00 -0.00000000000E+00 -0.16306753085E+03  0.16307247627E+03  0.12700000000E+01 0. -1.
         25    2    1    2    0    0  0.00000000000E+00  0.00000000000E+00 -0.13913546135E+03  0.18703821953E+03  0.12499847583E+03 0.  0.
    9000005    1    3    3    0    0 -0.16276611252E+02 -0.39125551629E+02 -0.84396423082E+00  0.42396334037E+02  0.10000000000E+01 0.  0.
    9000005    1    3    3    0    0  0.16276611252E+02  0.39125551629E+02 -0.13829149712E+03  0.14464188550E+03  0.10000000000E+01 0.  0.
<mgrwt>
<rscale>  0 0.12499848E+03</rscale>
<asrwt>0</asrwt>
<pdfrwt beam="1">  1        4 0.36848277E-02 0.12499848E+03</pdfrwt>
<pdfrwt beam="2">  1       -4 0.25090282E-01 0.12499848E+03</pdfrwt>
<totfact> 0.92368378E+03</totfact>
</mgrwt>
</event>
<event>
 5    1  0.3486589E-002  0.1249993E+03  0.7818608E-02  0.1235070E+00
          4   -1    0    0  501    0  0.00000000000E+00  0.00000000000E+00  0.35331350342E+03  0.35331578594E+03  0.12700000000E+01 0. -1.
         -4   -1    0    0    0  501 -0.00000000000E+00 -0.00000000000E+00 -0.11017124786E+02  0.11090082892E+02  0.12700000000E+01 0. -1.
         25    2    1    2    0    0  0.00000000000E+00  0.00000000000E+00  0.34229637863E+03  0.36440586883E+03  0.12499930567E+03 0.  0.
    9000005    1    3    3    0    0  0.36105796339E+02 -0.44452776573E+02  0.24406058914E+03  0.25069154163E+03  0.10000000000E+01 0.  0.
    9000005    1    3    3    0    0 -0.36105796339E+02  0.44452776573E+02  0.98235789489E+02  0.11371432720E+03  0.10000000000E+01 0.  0.
<mgrwt>
<rscale>  0 0.12499931E+03</rscale>
<asrwt>0</asrwt>
<pdfrwt beam="1">  1        4 0.54361714E-01 0.12499931E+03</pdfrwt>
<pdfrwt beam="2">  1       -4 0.17007299E-02 0.12499931E+03</pdfrwt>
<totfact> 0.68169320E+03</totfact>
</mgrwt>
</event>
<event>
 5    1  0.3486589E-002  0.1249979E+03  0.7818608E-02  0.1235073E+00
          4   -1    0    0  501    0  0.00000000000E+00  0.00000000000E+00  0.21540891858E+02  0.21578297478E+02  0.12700000000E+01 0. -1.
         -4   -1    0    0    0  501 -0.00000000000E+00 -0.00000000000E+00 -0.18113819768E+03  0.18114264975E+03  0.12700000000E+01 0. -1.
         25    2    1    2    0    0  0.00000000000E+00  0.00000000000E+00 -0.15959730582E+03  0.20272094723E+03  0.12499792966E+03 0.  0.
    9000005    1    3    3    0    0  0.76363830916E+01 -0.15195022052E+02  0.17723901292E+02  0.24583321966E+02  0.10000000000E+01 0.  0.
    9000005    1    3    3    0    0 -0.76363830916E+01  0.15195022052E+02 -0.17732120711E+03  0.17813762526E+03  0.10000000000E+01 0.  0.
<mgrwt>
<rscale>  0 0.12499793E+03</rscale>
<asrwt>0</asrwt>
<pdfrwt beam="1">  1        4 0.33172033E-02 0.12499793E+03</pdfrwt>
<pdfrwt beam="2">  1       -4 0.27870634E-01 0.12499793E+03</pdfrwt>
<totfact> 0.89682771E+03</totfact>
</mgrwt>
</event>
<event>
 5    1  0.3486589E-002  0.1250041E+03  0.7818608E-02  0.1235063E+00
         -4   -1    0    0    0  501 -0.00000000000E+00  0.00000000000E+00  0.14884768196E+03  0.14885309982E+03  0.12700000000E+01 0. -1.
          4   -1    0    0  501    0  0.00000000000E+00 -0.00000000000E+00 -0.26223731135E+02  0.26254465804E+02  0.12700000000E+01 0. -1.
         25    2    1    2    0    0  0.00000000000E+00  0.00000000000E+00  0.12262395083E+03  0.17510756562E+03  0.12500410482E+03 0.  0.
    9000005    1    3    3    0    0 -0.37622106955E+02 -0.44073046637E+02  0.28530216282E+02  0.64597442772E+02  0.10000000000E+01 0.  0.
    9000005    1    3    3    0    0  0.37622106955E+02  0.44073046637E+02  0.94093734548E+02  0.11051012285E+03  0.10000000000E+01 0.  0.
<mgrwt>
<rscale>  0 0.12500410E+03</rscale>
<asrwt>0</asrwt>
<pdfrwt beam="2">  1        4 0.40372011E-02 0.12500410E+03</pdfrwt>
<pdfrwt beam="1">  1       -4 0.22902425E-01 0.12500410E+03</pdfrwt>
<totfact> 0.94496441E+03</totfact>
</mgrwt>
</event>
<event>
 5    1  0.3486589E-002  0.1249974E+03  0.7818608E-02  0.1235073E+00
         -4   -1    0    0    0  501 -0.00000000000E+00  0.00000000000E+00  0.14992537859E+02  0.15046231803E+02  0.12700000000E+01 0.  1.
          4   -1    0    0  501    0  0.00000000000E+00 -0.00000000000E+00 -0.26001429924E+03  0.26001740079E+03  0.12700000000E+01 0.  1.
         25    2    1    2    0    0  0.00000000000E+00  0.00000000000E+00 -0.24502176138E+03  0.27506363259E+03  0.12499735366E+03 0.  0.
    9000005    1    3    3    0    0  0.16299904295E+02 -0.60305457324E+02 -0.12609281625E+03  0.14072254039E+03  0.10000000000E+01 0.  0.
    9000005    1    3    3    0    0 -0.16299904295E+02  0.60305457324E+02 -0.11892894513E+03  0.13434109220E+03  0.10000000000E+01 0.  0.
<mgrwt>
<rscale>  0 0.12499735E+03</rscale>
<asrwt>0</asrwt>
<pdfrwt beam="2">  1        4 0.40006565E-01 0.12499735E+03</pdfrwt>
<pdfrwt beam="1">  1       -4 0.23109134E-02 0.12499735E+03</pdfrwt>
<totfact> 0.78841858E+03</totfact>
</mgrwt>
</event>
<event>
 5    1  0.3486589E-002  0.1250014E+03  0.7818608E-02  0.1235067E+00
          4   -1    0    0  501    0  0.00000000000E+00  0.00000000000E+00  0.88297259773E+02  0.88306392653E+02  0.12700000000E+01 0.  1.
         -4   -1    0    0    0  501 -0.00000000000E+00 -0.00000000000E+00 -0.44220230005E+02  0.44238463374E+02  0.12700000000E+01 0.  1.
         25    2    1    2    0    0  0.00000000000E+00  0.00000000000E+00  0.44077029768E+02  0.13254485603E+03  0.12500141722E+03 0.  0.
    9000005    1    3    3    0    0 -0.47985192078E+02 -0.29392213218E+02 -0.67837661537E+01  0.56687744176E+02  0.10000000000E+01 0.  0.
    9000005    1    3    3    0    0  0.47985192078E+02  0.29392213218E+02  0.50860795922E+02  0.75857111851E+02  0.10000000000E+01 0.  0.
<mgrwt>
<rscale>  0 0.12500142E+03</rscale>
<asrwt>0</asrwt>
<pdfrwt beam="1">  1        4 0.13586299E-01 0.12500142E+03</pdfrwt>
<pdfrwt beam="2">  1       -4 0.68052175E-02 0.12500142E+03</pdfrwt>
<totfact> 0.10289754E+04</totfact>
</mgrwt>
</event>
<event>
 5    1  0.3486589E-002  0.1249979E+03  0.7818608E-02  0.1235073E+00
          4   -1    0    0  501    0  0.00000000000E+00  0.00000000000E+00  0.18001350450E+02  0.18046094259E+02  0.12700000000E+01 0.  1.
         -4   -1    0    0    0  501 -0.00000000000E+00 -0.00000000000E+00 -0.21667434843E+03  0.21667807035E+03  0.12700000000E+01 0.  1.
         25    2    1    2    0    0  0.00000000000E+00  0.00000000000E+00 -0.19867299798E+03  0.23472416461E+03  0.12499789327E+03 0.  0.
    9000005    1    3    3    0    0 -0.25176954506E+02 -0.34118497650E+02 -0.13137022342E+02  0.44401940004E+02  0.10000000000E+01 0.  0.
    9000005    1    3    3    0    0  0.25176954506E+02  0.34118497650E+02 -0.18553597564E+03  0.19032222460E+03  0.10000000000E+01 0.  0.
<mgrwt>
<rscale>  0 0.12499789E+03</rscale>
<asrwt>0</asrwt>
<pdfrwt beam="1">  1        4 0.27731668E-02 0.12499789E+03</pdfrwt>
<pdfrwt beam="2">  1       -4 0.33338242E-01 0.12499789E+03</pdfrwt>
<totfact> 0.84593412E+03</totfact>
</mgrwt>
</event>
<event>
 5    1  0.3486589E-002  0.1249998E+03  0.7818608E-02  0.1235070E+00
         -4   -1    0    0    0  501 -0.00000000000E+00  0.00000000000E+00  0.49420856503E+02  0.49437171819E+02  0.12700000000E+01 0.  1.
          4   -1    0    0  501    0  0.00000000000E+00 -0.00000000000E+00 -0.79005736601E+02  0.79015943428E+02  0.12700000000E+01 0.  1.
         25    2    1    2    0    0  0.00000000000E+00  0.00000000000E+00 -0.29584880098E+02  0.12845311525E+03  0.12499975074E+03 0.  0.
    9000005    1    3    3    0    0  0.64671075017E+01 -0.55520570663E+02  0.13923752628E+02  0.57612742804E+02  0.10000000000E+01 0.  0.
    9000005    1    3    3    0    0 -0.64671075017E+01  0.55520570663E+02 -0.43508632726E+02  0.70840372443E+02  0.10000000000E+01 0.  0.
<mgrwt>
<rscale>  0 0.12499975E+03</rscale>
<asrwt>0</asrwt>
<pdfrwt beam="2">  1        4 0.12156769E-01 0.12499975E+03</pdfrwt>
<pdfrwt beam="1">  1       -4 0.76052488E-02 0.12499975E+03</pdfrwt>
<totfact> 0.10377772E+04</totfact>
</mgrwt>
</event>
<event>
 5    1  0.3486589E-002  0.1249918E+03  0.7818608E-02  0.1235082E+00
          4   -1    0    0  501    0  0.00000000000E+00  0.00000000000E+00  0.49173027220E+02  0.49189424738E+02  0.12700000000E+01 0.  1.
         -4   -1    0    0    0  501 -0.00000000000E+00 -0.00000000000E+00 -0.79393783343E+02  0.79403940290E+02  0.12700000000E+01 0.  1.
         25    2    1    2    0    0  0.00000000000E+00  0.00000000000E+00 -0.30220756123E+02  0.12859336503E+03  0.12499183745E+03 0.  0.
    9000005    1    3    3    0    0 -0.44562664103E+02  0.42699867519E+02 -0.25171219444E+02  0.66661083148E+02  0.10000000000E+01 0.  0.
    9000005    1    3    3    0    0  0.44562664103E+02 -0.42699867519E+02 -0.50495366790E+01  0.61932281880E+02  0.10000000000E+01 0.  0.
<mgrwt>
<rscale>  0 0.12499184E+03</rscale>
<asrwt>0</asrwt>
<pdfrwt beam="1">  1        4 0.75671237E-02 0.12499184E+03</pdfrwt>
<pdfrwt beam="2">  1       -4 0.12216471E-01 0.12499184E+03</pdfrwt>
<totfact> 0.10376605E+04</totfact>
</mgrwt>
</event>
<event>
 5    1  0.3486589E-002  0.1250016E+03  0.7818608E-02  0.1235067E+00
          4   -1    0    0  501    0  0.00000000000E+00  0.00000000000E+00  0.48997315513E+02  0.49013771815E+02  0.12700000000E+01 0. -1.
         -4   -1    0    0    0  501 -0.00000000000E+00 -0.00000000000E+00 -0.79690892038E+02  0.79701011121E+02  0.12700000000E+01 0. -1.
         25    2    1    2    0    0  0.00000000000E+00  0.00000000000E+00 -0.30693576524E+02  0.12871478294E+03  0.12500159882E+03 0.  0.
    9000005    1    3    3    0    0  0.99474581708E+01  0.57383235412E+02 -0.38681875390E+02  0.69921921556E+02  0.10000000000E+01 0.  0.
    9000005    1    3    3    0    0 -0.99474581708E+01 -0.57383235412E+02  0.79882988652E+01  0.58792861380E+02  0.10000000000E+01 0.  0.
<mgrwt>
<rscale>  0 0.12500160E+03</rscale>
<asrwt>0</asrwt>
<pdfrwt beam="1">  1        4 0.75400928E-02 0.12500160E+03</pdfrwt>
<pdfrwt beam="2">  1       -4 0.12262181E-01 0.12500160E+03</pdfrwt>
<totfact> 0.10371705E+04</totfact>
</mgrwt>
</event>
<event>
 5    1  0.3486589E-002  0.1250178E+03  0.7818608E-02  0.1235041E+00
          4   -1    0    0  501    0  0.00000000000E+00  0.00000000000E+00  0.24454175444E+02  0.24487131246E+02  0.12700000000E+01 0. -1.
         -4   -1    0    0    0  501 -0.00000000000E+00 -0.00000000000E+00 -0.15963998705E+03  0.15964503864E+03  0.12700000000E+01 0. -1.
         25    2    1    2    0    0  0.00000000000E+00  0.00000000000E+00 -0.13518581160E+03  0.18413216989E+03  0.12501780805E+03 0.  0.
    9000005    1    3    3    0    0  0.26397691496E+02 -0.16787537437E+02  0.12100307969E+02  0.33557070528E+02  0.10000000000E+01 0.  0.
    9000005    1    3    3    0    0 -0.26397691496E+02  0.16787537437E+02 -0.14728611957E+03  0.15057509936E+03  0.10000000000E+01 0.  0.
<mgrwt>
<rscale>  0 0.12501781E+03</rscale>
<asrwt>0</asrwt>
<pdfrwt beam="1">  1        4 0.37651046E-02 0.12501781E+03</pdfrwt>
<pdfrwt beam="2">  1       -4 0.24562921E-01 0.12501781E+03</pdfrwt>
<totfact> 0.92841383E+03</totfact>
</mgrwt>
</event>
<event>
 5    1  0.3486589E-002  0.1250004E+03  0.7818608E-02  0.1235069E+00
          4   -1    0    0  501    0  0.00000000000E+00  0.00000000000E+00  0.80733942816E+02  0.80743931182E+02  0.12700000000E+01 0.  1.
         -4   -1    0    0    0  501 -0.00000000000E+00 -0.00000000000E+00 -0.48363254409E+02  0.48379926385E+02  0.12700000000E+01 0.  1.
         25    2    1    2    0    0  0.00000000000E+00  0.00000000000E+00  0.32370688407E+02  0.12912385757E+03  0.12500043650E+03 0.  0.
    9000005    1    3    3    0    0  0.58173653213E+02 -0.20610226764E+02  0.60472226000E+01  0.62020353728E+02  0.10000000000E+01 0.  0.
    9000005    1    3    3    0    0 -0.58173653213E+02  0.20610226764E+02  0.26323465807E+02  0.67103503839E+02  0.10000000000E+01 0.  0.
<mgrwt>
<rscale>  0 0.12500044E+03</rscale>
<asrwt>0</asrwt>
<pdfrwt beam="1">  1        4 0.12422657E-01 0.12500044E+03</pdfrwt>
<pdfrwt beam="2">  1       -4 0.74425516E-02 0.12500044E+03</pdfrwt>
<totfact> 0.10363184E+04</totfact>
</mgrwt>
</event>
<event>
 5    1  0.3486589E-002  0.1250014E+03  0.7818608E-02  0.1235067E+00
          4   -1    0    0  501    0  0.00000000000E+00  0.00000000000E+00  0.47141578883E+03  0.47141749953E+03  0.12700000000E+01 0.  1.
         -4   -1    0    0    0  501 -0.00000000000E+00 -0.00000000000E+00 -0.82359986927E+01  0.83333411347E+01  0.12700000000E+01 0.  1.
         25    2    1    2    0    0  0.00000000000E+00  0.00000000000E+00  0.46317979014E+03  0.47975084066E+03  0.12500140448E+03 0.  0.
    9000005    1    3    3    0    0  0.54497943851E+02 -0.25672389472E+02  0.16780110241E+03  0.17828995326E+03  0.10000000000E+01 0.  0.
    9000005    1    3    3    0    0 -0.54497943851E+02  0.25672389472E+02  0.29537868773E+03  0.30146088740E+03  0.10000000000E+01 0.  0.
<mgrwt>
<rscale>  0 0.12500140E+03</rscale>
<asrwt>0</asrwt>
<pdfrwt beam="1">  1        4 0.72533112E-01 0.12500140E+03</pdfrwt>
<pdfrwt beam="2">  1       -4 0.12746964E-02 0.12500140E+03</pdfrwt>
<totfact> 0.57468637E+03</totfact>
</mgrwt>
</event>
<event>
 5    1  0.3486589E-002  0.1250025E+03  0.7818608E-02  0.1235065E+00
         -4   -1    0    0    0  501 -0.00000000000E+00  0.00000000000E+00  0.36793430659E+01  0.38923598750E+01  0.12700000000E+01 0. -1.
          4   -1    0    0  501    0  0.00000000000E+00 -0.00000000000E+00 -0.10316302022E+04  0.10316309839E+04  0.12700000000E+01 0. -1.
         25    2    1    2    0    0  0.00000000000E+00  0.00000000000E+00 -0.10279508592E+04  0.10355233438E+04  0.12500250701E+03 0.  0.
    9000005    1    3    3    0    0  0.14104357445E+02  0.33681708200E+01 -0.10409909687E+02  0.17878581971E+02  0.10000000000E+01 0.  0.
    9000005    1    3    3    0    0 -0.14104357445E+02 -0.33681708200E+01 -0.10175409495E+04  0.10176447618E+04  0.10000000000E+01 0.  0.
<mgrwt>
<rscale>  0 0.12500251E+03</rscale>
<asrwt>0</asrwt>
<pdfrwt beam="2">  1        4 0.15872856E+00 0.12500251E+03</pdfrwt>
<pdfrwt beam="1">  1       -4 0.58249964E-03 0.12500251E+03</pdfrwt>
<totfact> 0.29449560E+03</totfact>
</mgrwt>
</event>
<event>
 5    1  0.3486589E-002  0.1249945E+03  0.7818608E-02  0.1235078E+00
          4   -1    0    0  501    0  0.00000000000E+00  0.00000000000E+00  0.18990123161E+03  0.18990547824E+03  0.12700000000E+01 0.  1.
         -4   -1    0    0    0  501 -0.00000000000E+00 -0.00000000000E+00 -0.20544007721E+02  0.20583225045E+02  0.12700000000E+01 0.  1.
         25    2    1    2    0    0  0.00000000000E+00  0.00000000000E+00  0.16935722389E+03  0.21048870329E+03  0.12499449959E+03 0.  0.
    9000005    1    3    3    0    0  0.73889793583E+01  0.58199956439E+02  0.48440695138E+02  0.76087665827E+02  0.10000000000E+01 0.  0.
    9000005    1    3    3    0    0 -0.73889793583E+01 -0.58199956439E+02  0.12091652875E+03  0.13440103746E+03  0.10000000000E+01 0.  0.
<mgrwt>
<rscale>  0 0.12499450E+03</rscale>
<asrwt>0</asrwt>
<pdfrwt beam="1">  1        4 0.29218916E-01 0.12499450E+03</pdfrwt>
<pdfrwt beam="2">  1       -4 0.31639601E-02 0.12499450E+03</pdfrwt>
<totfact> 0.88407002E+03</totfact>
</mgrwt>
</event>
<event>
 5    1  0.3486589E-002  0.1250012E+03  0.7818608E-02  0.1235067E+00
         -4   -1    0    0    0  501 -0.00000000000E+00  0.00000000000E+00  0.24234645675E+02  0.24267899600E+02  0.12700000000E+01 0. -1.
          4   -1    0    0  501    0  0.00000000000E+00 -0.00000000000E+00 -0.16104145100E+03  0.16104645864E+03  0.12700000000E+01 0. -1.
         25    2    1    2    0    0  0.00000000000E+00  0.00000000000E+00 -0.13680680533E+03  0.18531435824E+03  0.12500123754E+03 0.  0.
    9000005    1    3    3    0    0 -0.37636255381E+01  0.53915365932E+02 -0.11491460541E+03  0.12699369314E+03  0.10000000000E+01 0.  0.
    9000005    1    3    3    0    0  0.37636255381E+01 -0.53915365932E+02 -0.21892199920E+02  0.58320665104E+02  0.10000000000E+01 0.  0.
<mgrwt>
<rscale>  0 0.12500124E+03</rscale>
<asrwt>0</asrwt>
<pdfrwt beam="2">  1        4 0.24778550E-01 0.12500124E+03</pdfrwt>
<pdfrwt beam="1">  1       -4 0.37313503E-02 0.12500124E+03</pdfrwt>
<totfact> 0.92666484E+03</totfact>
</mgrwt>
</event>
<event>
 5    1  0.3486589E-002  0.1249999E+03  0.7818608E-02  0.1235069E+00
          4   -1    0    0  501    0  0.00000000000E+00  0.00000000000E+00  0.51082072603E+01  0.52637136524E+01  0.12700000000E+01 0. -1.
         -4   -1    0    0    0  501 -0.00000000000E+00 -0.00000000000E+00 -0.75307850482E+03  0.75307957569E+03  0.12700000000E+01 0. -1.
         25    2    1    2    0    0  0.00000000000E+00  0.00000000000E+00 -0.74797029756E+03  0.75834328934E+03  0.12499991384E+03 0.  0.
    9000005    1    3    3    0    0  0.89681565481E+01 -0.40763890652E+02 -0.65614592520E+03  0.65747288748E+03  0.10000000000E+01 0.  0.
    9000005    1    3    3    0    0 -0.89681565481E+01  0.40763890652E+02 -0.91824372361E+02  0.10087040186E+03  0.10000000000E+01 0.  0.
<mgrwt>
<rscale>  0 0.12499991E+03</rscale>
<asrwt>0</asrwt>
<pdfrwt beam="1">  1        4 0.79792304E-03 0.12499991E+03</pdfrwt>
<pdfrwt beam="2">  1       -4 0.11587019E+00 0.12499991E+03</pdfrwt>
<totfact> 0.40178324E+03</totfact>
</mgrwt>
</event>
<event>
 5    1  0.3486589E-002  0.1250399E+03  0.7818608E-02  0.1235007E+00
          4   -1    0    0  501    0  0.00000000000E+00  0.00000000000E+00  0.97479883311E+02  0.97488155949E+02  0.12700000000E+01 0. -1.
         -4   -1    0    0    0  501 -0.00000000000E+00 -0.00000000000E+00 -0.40077899270E+02  0.40098016283E+02  0.12700000000E+01 0. -1.
         25    2    1    2    0    0  0.00000000000E+00  0.00000000000E+00  0.57401984042E+02  0.13758617223E+03  0.12503986171E+03 0.  0.
    9000005    1    3    3    0    0 -0.15224742933E+02  0.44502999496E+02 -0.16606131533E+02  0.49890614007E+02  0.10000000000E+01 0.  0.
    9000005    1    3    3    0    0  0.15224742933E+02 -0.44502999496E+02  0.74008115575E+02  0.87695558225E+02  0.10000000000E+01 0.  0.
<mgrwt>
<rscale>  0 0.12503986E+03</rscale>
<asrwt>0</asrwt>
<pdfrwt beam="1">  1        4 0.14999089E-01 0.12503986E+03</pdfrwt>
<pdfrwt beam="2">  1       -4 0.61680146E-02 0.12503986E+03</pdfrwt>
<totfact> 0.10174697E+04</totfact>
</mgrwt>
</event>
<event>
 5    1  0.3486589E-002  0.1249990E+03  0.7818608E-02  0.1235071E+00
         -4   -1    0    0    0  501 -0.00000000000E+00  0.00000000000E+00  0.77489490369E+01  0.78523315758E+01  0.12700000000E+01 0.  1.
          4   -1    0    0  501    0  0.00000000000E+00 -0.00000000000E+00 -0.50064789545E+03  0.50064950626E+03  0.12700000000E+01 0.  1.
         25    2    1    2    0    0  0.00000000000E+00  0.00000000000E+00 -0.49289894641E+03  0.50850183783E+03  0.12499899082E+03 0.  0.
    9000005    1    3    3    0    0 -0.59468390293E+02  0.16788901413E+02 -0.28435666400E+03  0.29099496390E+03  0.10000000000E+01 0.  0.
    9000005    1    3    3    0    0  0.59468390293E+02 -0.16788901413E+02 -0.20854228241E+03  0.21750687394E+03  0.10000000000E+01 0.  0.
<mgrwt>
<rscale>  0 0.12499899E+03</rscale>
<asrwt>0</asrwt>
<pdfrwt beam="2">  1        4 0.77030805E-01 0.12499899E+03</pdfrwt>
<pdfrwt beam="1">  1       -4 0.12002228E-02 0.12499899E+03</pdfrwt>
<totfact> 0.55211946E+03</totfact>
</mgrwt>
</event>
<event>
 5    1  0.3486589E-002  0.1250183E+03  0.7818608E-02  0.1235041E+00
          4   -1    0    0  501    0  0.00000000000E+00  0.00000000000E+00  0.75789902960E+02  0.75800542813E+02  0.12700000000E+01 0. -1.
         -4   -1    0    0    0  501 -0.00000000000E+00 -0.00000000000E+00 -0.51533476726E+02  0.51549123401E+02  0.12700000000E+01 0. -1.
         25    2    1    2    0    0  0.00000000000E+00  0.00000000000E+00  0.24256426235E+02  0.12734966621E+03  0.12501825175E+03 0.  0.
    9000005    1    3    3    0    0  0.41448865364E+02  0.16642871042E+02  0.56663049871E+02  0.72157430782E+02  0.10000000000E+01 0.  0.
    9000005    1    3    3    0    0 -0.41448865364E+02 -0.16642871042E+02 -0.32406623636E+02  0.55192235432E+02  0.10000000000E+01 0.  0.
<mgrwt>
<rscale>  0 0.12501825E+03</rscale>
<asrwt>0</asrwt>
<pdfrwt beam="1">  1        4 0.11662007E-01 0.12501825E+03</pdfrwt>
<pdfrwt beam="2">  1       -4 0.79302492E-02 0.12501825E+03</pdfrwt>
<totfact> 0.10397273E+04</totfact>
</mgrwt>
</event>
<event>
 5    1  0.3486589E-002  0.1250006E+03  0.7818608E-02  0.1235068E+00
         -4   -1    0    0    0  501 -0.00000000000E+00  0.00000000000E+00  0.14077867704E+03  0.14078440541E+03  0.12700000000E+01 0.  1.
          4   -1    0    0  501    0  0.00000000000E+00 -0.00000000000E+00 -0.27726889144E+02  0.27755959389E+02  0.12700000000E+01 0.  1.
         25    2    1    2    0    0  0.00000000000E+00  0.00000000000E+00  0.11305178789E+03  0.16854036480E+03  0.12500059129E+03 0.  0.
    9000005    1    3    3    0    0 -0.14505897975E+02  0.60392808352E+02  0.65825816654E+02  0.90508289758E+02  0.10000000000E+01 0.  0.
    9000005    1    3    3    0    0  0.14505897975E+02 -0.60392808352E+02  0.47225971237E+02  0.78032075046E+02  0.10000000000E+01 0.  0.
<mgrwt>
<rscale>  0 0.12500059E+03</rscale>
<asrwt>0</asrwt>
<pdfrwt beam="2">  1        4 0.42683521E-02 0.12500059E+03</pdfrwt>
<pdfrwt beam="1">  1       -4 0.21660934E-01 0.12500059E+03</pdfrwt>
<totfact> 0.95719802E+03</totfact>
</mgrwt>
</event>
<event>
 5    1  0.3486589E-002  0.1249966E+03  0.7818608E-02  0.1235075E+00
         -4   -1    0    0    0  501 -0.00000000000E+00  0.00000000000E+00  0.31390088102E+02  0.31415768828E+02  0.12700000000E+01 0. -1.
          4   -1    0    0  501    0  0.00000000000E+00 -0.00000000000E+00 -0.12435549983E+03  0.12436198470E+03  0.12700000000E+01 0. -1.
         25    2    1    2    0    0  0.00000000000E+00  0.00000000000E+00 -0.92965411726E+02  0.15577775352E+03  0.12499656281E+03 0.  0.
    9000005    1    3    3    0    0 -0.53166104149E+01  0.48864931970E+02  0.16070814271E+01  0.49189741140E+02  0.10000000000E+01 0.  0.
    9000005    1    3    3    0    0  0.53166104149E+01 -0.48864931970E+02 -0.94572493153E+02  0.10658801238E+03  0.10000000000E+01 0.  0.
<mgrwt>
<rscale>  0 0.12499656E+03</rscale>
<asrwt>0</asrwt>
<pdfrwt beam="2">  1        4 0.19134089E-01 0.12499656E+03</pdfrwt>
<pdfrwt beam="1">  1       -4 0.48317186E-02 0.12499656E+03</pdfrwt>
<totfact> 0.98170620E+03</totfact>
</mgrwt>
</event>
<event>
 5    1  0.3486589E-002  0.1249986E+03  0.7818608E-02  0.1235072E+00
         -4   -1    0    0    0  501 -0.00000000000E+00  0.00000000000E+00  0.99320475966E+02  0.99328595310E+02  0.12700000000E+01 0. -1.
          4   -1    0    0  501    0  0.00000000000E+00 -0.00000000000E+00 -0.39308875759E+02  0.39329386131E+02  0.12700000000E+01 0. -1.
         25    2    1    2    0    0  0.00000000000E+00  0.00000000000E+00  0.60011600207E+02  0.13865798144E+03  0.12499857462E+03 0.  0.
    9000005    1    3    3    0    0  0.53409503557E+02  0.32432850654E+02  0.30931260343E+02  0.69729532754E+02  0.10000000000E+01 0.  0.
    9000005    1    3    3    0    0 -0.53409503557E+02 -0.32432850654E+02  0.29080339864E+02  0.68928448687E+02  0.10000000000E+01 0.  0.
<mgrwt>
<rscale>  0 0.12499857E+03</rscale>
<asrwt>0</asrwt>
<pdfrwt beam="2">  1        4 0.60497216E-02 0.12499857E+03</pdfrwt>
<pdfrwt beam="1">  1       -4 0.15282275E-01 0.12499857E+03</pdfrwt>
<totfact> 0.10161802E+04</totfact>
</mgrwt>
</event>
<event>
 5    1  0.3486589E-002  0.1249994E+03  0.7818608E-02  0.1235070E+00
          4   -1    0    0  501    0  0.00000000000E+00  0.00000000000E+00  0.94585098580E+03  0.94585183842E+03  0.12700000000E+01 0. -1.
         -4   -1    0    0    0  501 -0.00000000000E+00 -0.00000000000E+00 -0.40313285237E+01  0.42266428364E+01  0.12700000000E+01 0. -1.
         25    2    1    2    0    0  0.00000000000E+00  0.00000000000E+00  0.94181965728E+03  0.95007848126E+03  0.12499941484E+03 0.  0.
    9000005    1    3    3    0    0  0.26230077564E+02 -0.67729948295E+01  0.89893739545E+03  0.89934605762E+03  0.10000000000E+01 0.  0.
    9000005    1    3    3    0    0 -0.26230077564E+02  0.67729948295E+01  0.42882261831E+02  0.50732423633E+02  0.10000000000E+01 0.  0.
<mgrwt>
<rscale>  0 0.12499941E+03</rscale>
<asrwt>0</asrwt>
<pdfrwt beam="1">  1        4 0.14553054E+00 0.12499941E+03</pdfrwt>
<pdfrwt beam="2">  1       -4 0.63529452E-03 0.12499941E+03</pdfrwt>
<totfact> 0.32313614E+03</totfact>
</mgrwt>
</event>
<event>
 5    1  0.3486589E-002  0.1250009E+03  0.7818608E-02  0.1235068E+00
          4   -1    0    0  501    0  0.00000000000E+00  0.00000000000E+00  0.11120234490E+02  0.11192520498E+02  0.12700000000E+01 0. -1.
         -4   -1    0    0    0  501 -0.00000000000E+00 -0.00000000000E+00 -0.35006784227E+03  0.35007014596E+03  0.12700000000E+01 0. -1.
         25    2    1    2    0    0  0.00000000000E+00  0.00000000000E+00 -0.33894760778E+03  0.36126266646E+03  0.12500093342E+03 0.  0.
    9000005    1    3    3    0    0  0.22953897685E+02 -0.20538017389E+02 -0.32662125614E+03  0.32807184661E+03  0.10000000000E+01 0.  0.
    9000005    1    3    3    0    0 -0.22953897685E+02  0.20538017389E+02 -0.12326351640E+02  0.33190819844E+02  0.10000000000E+01 0.  0.
<mgrwt>
<rscale>  0 0.12500093E+03</rscale>
<asrwt>0</asrwt>
<pdfrwt beam="1">  1        4 0.17165432E-02 0.12500093E+03</pdfrwt>
<pdfrwt beam="2">  1       -4 0.53862320E-01 0.12500093E+03</pdfrwt>
<totfact> 0.68501631E+03</totfact>
</mgrwt>
</event>
<event>
 5    1  0.3486589E-002  0.1249902E+03  0.7818608E-02  0.1235085E+00
         -4   -1    0    0    0  501 -0.00000000000E+00  0.00000000000E+00  0.26196194707E+02  0.26226961645E+02  0.12700000000E+01 0. -1.
          4   -1    0    0  501    0  0.00000000000E+00 -0.00000000000E+00 -0.14897071532E+03  0.14897612870E+03  0.12700000000E+01 0. -1.
         25    2    1    2    0    0  0.00000000000E+00  0.00000000000E+00 -0.12277452061E+03  0.17520309034E+03  0.12499015943E+03 0.  0.
    9000005    1    3    3    0    0  0.20302359804E+02  0.56108445607E+02 -0.87396586106E+02  0.10582772201E+03  0.10000000000E+01 0.  0.
    9000005    1    3    3    0    0 -0.20302359804E+02 -0.56108445607E+02 -0.35377934502E+02  0.69375368335E+02  0.10000000000E+01 0.  0.
<mgrwt>
<rscale>  0 0.12499016E+03</rscale>
<asrwt>0</asrwt>
<pdfrwt beam="2">  1        4 0.22921354E-01 0.12499016E+03</pdfrwt>
<pdfrwt beam="1">  1       -4 0.40329670E-02 0.12499016E+03</pdfrwt>
<totfact> 0.94508520E+03</totfact>
</mgrwt>
</event>
<event>
 5    1  0.3486589E-002  0.1249978E+03  0.7818608E-02  0.1235073E+00
          4   -1    0    0  501    0  0.00000000000E+00  0.00000000000E+00  0.61744323259E+02  0.61757382997E+02  0.12700000000E+01 0.  1.
         -4   -1    0    0    0  501 -0.00000000000E+00 -0.00000000000E+00 -0.63236568837E+02  0.63249320457E+02  0.12700000000E+01 0.  1.
         25    2    1    2    0    0  0.00000000000E+00  0.00000000000E+00 -0.14922455782E+01  0.12500670345E+03  0.12499779643E+03 0.  0.
    9000005    1    3    3    0    0 -0.15518295808E+01  0.54330574005E+02 -0.31584870371E+02  0.62871483863E+02  0.10000000000E+01 0.  0.
    9000005    1    3    3    0    0  0.15518295808E+01 -0.54330574005E+02  0.30092624793E+02  0.62135219591E+02  0.10000000000E+01 0.  0.
<mgrwt>
<rscale>  0 0.12499780E+03</rscale>
<asrwt>0</asrwt>
<pdfrwt beam="1">  1        4 0.95011121E-02 0.12499780E+03</pdfrwt>
<pdfrwt beam="2">  1       -4 0.97306884E-02 0.12499780E+03</pdfrwt>
<totfact> 0.10453238E+04</totfact>
</mgrwt>
</event>
<event>
 5    1  0.3486589E-002  0.1250025E+03  0.7818608E-02  0.1235065E+00
         -4   -1    0    0    0  501 -0.00000000000E+00  0.00000000000E+00  0.41732854767E+02  0.41752174399E+02  0.12700000000E+01 0.  1.
          4   -1    0    0  501    0  0.00000000000E+00 -0.00000000000E+00 -0.93559813491E+02  0.93568432713E+02  0.12700000000E+01 0.  1.
         25    2    1    2    0    0  0.00000000000E+00  0.00000000000E+00 -0.51826958724E+02  0.13532060711E+03  0.12500253221E+03 0.  0.
    9000005    1    3    3    0    0 -0.38784389338E+02  0.66113030991E+01 -0.78475036364E+02  0.87791056021E+02  0.10000000000E+01 0.  0.
    9000005    1    3    3    0    0  0.38784389338E+02 -0.66113030991E+01  0.26648077640E+02  0.47529551091E+02  0.10000000000E+01 0.  0.
<mgrwt>
<rscale>  0 0.12500253E+03</rscale>
<asrwt>0</asrwt>
<pdfrwt beam="2">  1        4 0.14395967E-01 0.12500253E+03</pdfrwt>
<pdfrwt beam="1">  1       -4 0.64225884E-02 0.12500253E+03</pdfrwt>
<totfact> 0.10230734E+04</totfact>
</mgrwt>
</event>
<event>
 5    1  0.3486589E-002  0.1249704E+03  0.7818608E-02  0.1235116E+00
         -4   -1    0    0    0  501 -0.00000000000E+00  0.00000000000E+00  0.77465602160E+02  0.77476011888E+02  0.12700000000E+01 0. -1.
          4   -1    0    0  501    0  0.00000000000E+00 -0.00000000000E+00 -0.50379936162E+02  0.50395940985E+02  0.12700000000E+01 0. -1.
         25    2    1    2    0    0  0.00000000000E+00  0.00000000000E+00  0.27085665998E+02  0.12787195287E+03  0.12497040861E+03 0.  0.
    9000005    1    3    3    0    0  0.32973827357E+02  0.53000734284E+02  0.16259593347E+02  0.64511436979E+02  0.10000000000E+01 0.  0.
    9000005    1    3    3    0    0 -0.32973827357E+02 -0.53000734284E+02  0.10826072651E+02  0.63360515894E+02  0.10000000000E+01 0.  0.
<mgrwt>
<rscale>  0 0.12497041E+03</rscale>
<asrwt>0</asrwt>
<pdfrwt beam="2">  1        4 0.77527913E-02 0.12497041E+03</pdfrwt>
<pdfrwt beam="1">  1       -4 0.11919817E-01 0.12497041E+03</pdfrwt>
<totfact> 0.10397198E+04</totfact>
</mgrwt>
</event>
<event>
 5    1  0.3486589E-002  0.1249997E+03  0.7818608E-02  0.1235070E+00
          4   -1    0    0  501    0  0.00000000000E+00  0.00000000000E+00  0.14325312329E+03  0.14325875273E+03  0.12700000000E+01 0. -1.
         -4   -1    0    0    0  501 -0.00000000000E+00 -0.00000000000E+00 -0.27247071524E+02  0.27276653142E+02  0.12700000000E+01 0. -1.
         25    2    1    2    0    0  0.00000000000E+00  0.00000000000E+00  0.11600605177E+03  0.17053540587E+03  0.12499968243E+03 0.  0.
    9000005    1    3    3    0    0  0.25345647254E+02 -0.14217403877E+02 -0.17474140538E+02  0.33924651734E+02  0.10000000000E+01 0.  0.
    9000005    1    3    3    0    0 -0.25345647254E+02  0.14217403877E+02  0.13348019231E+03  0.13661075414E+03  0.10000000000E+01 0.  0.
<mgrwt>
<rscale>  0 0.12499968E+03</rscale>
<asrwt>0</asrwt>
<pdfrwt beam="1">  1        4 0.22041651E-01 0.12499968E+03</pdfrwt>
<pdfrwt beam="2">  1       -4 0.41945657E-02 0.12499968E+03</pdfrwt>
<totfact> 0.95349617E+03</totfact>
</mgrwt>
</event>
<event>
 5    1  0.3486589E-002  0.1249998E+03  0.7818608E-02  0.1235070E+00
         -4   -1    0    0    0  501 -0.00000000000E+00  0.00000000000E+00  0.12921870107E+03  0.12922494189E+03  0.12700000000E+01 0. -1.
          4   -1    0    0  501    0  0.00000000000E+00 -0.00000000000E+00 -0.30209356872E+02  0.30236040459E+02  0.12700000000E+01 0. -1.
         25    2    1    2    0    0  0.00000000000E+00  0.00000000000E+00  0.99009344199E+02  0.15946098235E+03  0.12499981861E+03 0.  0.
    9000005    1    3    3    0    0 -0.47191530298E+02 -0.37944470452E+02  0.29807126813E+02  0.67500282804E+02  0.10000000000E+01 0.  0.
    9000005    1    3    3    0    0  0.47191530298E+02  0.37944470452E+02  0.69202217387E+02  0.91960699546E+02  0.10000000000E+01 0.  0.
<mgrwt>
<rscale>  0 0.12499982E+03</rscale>
<asrwt>0</asrwt>
<pdfrwt beam="2">  1        4 0.46501260E-02 0.12499982E+03</pdfrwt>
<pdfrwt beam="1">  1       -4 0.19882333E-01 0.12499982E+03</pdfrwt>
<totfact> 0.97447201E+03</totfact>
</mgrwt>
</event>
<event>
 5    1  0.3486589E-002  0.1249978E+03  0.7818608E-02  0.1235073E+00
          4   -1    0    0  501    0  0.00000000000E+00  0.00000000000E+00  0.43552141197E+03  0.43552326365E+03  0.12700000000E+01 0. -1.
         -4   -1    0    0    0  501 -0.00000000000E+00 -0.00000000000E+00 -0.89219789575E+01  0.90119148086E+01  0.12700000000E+01 0. -1.
         25    2    1    2    0    0  0.00000000000E+00  0.00000000000E+00  0.42659943301E+03  0.44453517846E+03  0.12499779456E+03 0.  0.
    9000005    1    3    3    0    0 -0.22673327150E+02  0.15592520743E+02  0.13766758509E+02  0.30785225466E+02  0.10000000000E+01 0.  0.
    9000005    1    3    3    0    0  0.22673327150E+02 -0.15592520743E+02  0.41283267450E+03  0.41374995300E+03  0.10000000000E+01 0.  0.
<mgrwt>
<rscale>  0 0.12499779E+03</rscale>
<asrwt>0</asrwt>
<pdfrwt beam="1">  1        4 0.67010372E-01 0.12499779E+03</pdfrwt>
<pdfrwt beam="2">  1       -4 0.13796724E-02 0.12499779E+03</pdfrwt>
<totfact> 0.60443079E+03</totfact>
</mgrwt>
</event>
<event>
 5    1  0.3486589E-002  0.1250057E+03  0.7818608E-02  0.1235060E+00
         -4   -1    0    0    0  501 -0.00000000000E+00  0.00000000000E+00  0.16756715741E+03  0.16757197004E+03  0.12700000000E+01 0. -1.
          4   -1    0    0  501    0  0.00000000000E+00 -0.00000000000E+00 -0.23291216564E+02  0.23325815506E+02  0.12700000000E+01 0. -1.
         25    2    1    2    0    0  0.00000000000E+00  0.00000000000E+00  0.14427594084E+03  0.19089778554E+03  0.12500566954E+03 0.  0.
    9000005    1    3    3    0    0  0.51029625070E+02 -0.17377548677E+02  0.12041992593E+03  0.13193922992E+03  0.10000000000E+01 0.  0.
    9000005    1    3    3    0    0 -0.51029625070E+02  0.17377548677E+02  0.23856014918E+02  0.58958555618E+02  0.10000000000E+01 0.  0.
<mgrwt>
<rscale>  0 0.12500567E+03</rscale>
<asrwt>0</asrwt>
<pdfrwt beam="2">  1        4 0.35862957E-02 0.12500567E+03</pdfrwt>
<pdfrwt beam="1">  1       -4 0.25782595E-01 0.12500567E+03</pdfrwt>
<totfact> 0.91679694E+03</totfact>
</mgrwt>
</event>
<event>
 5    1  0.3486589E-002  0.1249903E+03  0.7818608E-02  0.1235084E+00
         -4   -1    0    0    0  501 -0.00000000000E+00  0.00000000000E+00  0.20312588071E+02  0.20352251328E+02  0.12700000000E+01 0. -1.
          4   -1    0    0  501    0  0.00000000000E+00 -0.00000000000E+00 -0.19204773565E+03  0.19205193482E+03  0.12700000000E+01 0. -1.
         25    2    1    2    0    0  0.00000000000E+00  0.00000000000E+00 -0.17173514758E+03  0.21240418615E+03  0.12499030914E+03 0.  0.
    9000005    1    3    3    0    0 -0.79402617453E+01  0.32727997425E+02  0.35790246612E+01  0.33881838639E+02  0.10000000000E+01 0.  0.
    9000005    1    3    3    0    0  0.79402617453E+01 -0.32727997425E+02 -0.17531417224E+03  0.17852234751E+03  0.10000000000E+01 0.  0.
<mgrwt>
<rscale>  0 0.12499031E+03</rscale>
<asrwt>0</asrwt>
<pdfrwt beam="2">  1        4 0.29549178E-01 0.12499031E+03</pdfrwt>
<pdfrwt beam="1">  1       -4 0.31283877E-02 0.12499031E+03</pdfrwt>
<totfact> 0.88103828E+03</totfact>
</mgrwt>
</event>
<event>
 5    1  0.3486589E-002  0.1249987E+03  0.7818608E-02  0.1235071E+00
         -4   -1    0    0    0  501 -0.00000000000E+00  0.00000000000E+00  0.56873040112E+02  0.56887218174E+02  0.12700000000E+01 0.  1.
          4   -1    0    0  501    0  0.00000000000E+00 -0.00000000000E+00 -0.68653642238E+02  0.68665387879E+02  0.12700000000E+01 0.  1.
         25    2    1    2    0    0  0.00000000000E+00  0.00000000000E+00 -0.11780602126E+02  0.12555260605E+03  0.12499869719E+03 0.  0.
    9000005    1    3    3    0    0 -0.24390078570E+02 -0.40641512345E+02  0.35015589669E+02  0.58938102941E+02  0.10000000000E+01 0.  0.
    9000005    1    3    3    0    0  0.24390078570E+02  0.40641512345E+02 -0.46796191795E+02  0.66614503112E+02  0.10000000000E+01 0.  0.
<mgrwt>
<rscale>  0 0.12499870E+03</rscale>
<asrwt>0</asrwt>
<pdfrwt beam="2">  1        4 0.10564093E-01 0.12499870E+03</pdfrwt>
<pdfrwt beam="1">  1       -4 0.87516926E-02 0.12499870E+03</pdfrwt>
<totfact> 0.10441099E+04</totfact>
</mgrwt>
</event>
<event>
 5    1  0.3486589E-002  0.1250015E+03  0.7818608E-02  0.1235067E+00
          4   -1    0    0  501    0  0.00000000000E+00  0.00000000000E+00  0.66955155693E+01  0.68148975589E+01  0.12700000000E+01 0. -1.
         -4   -1    0    0    0  501 -0.00000000000E+00 -0.00000000000E+00 -0.57815132337E+03  0.57815271825E+03  0.12700000000E+01 0. -1.
         25    2    1    2    0    0  0.00000000000E+00  0.00000000000E+00 -0.57145580780E+03  0.58496761581E+03  0.12500148507E+03 0.  0.
    9000005    1    3    3    0    0  0.14324348408E+02  0.53653103007E+02 -0.15159956678E+03  0.16145361894E+03  0.10000000000E+01 0.  0.
    9000005    1    3    3    0    0 -0.14324348408E+02 -0.53653103007E+02 -0.41985624102E+03  0.42351399687E+03  0.10000000000E+01 0.  0.
<mgrwt>
<rscale>  0 0.12500149E+03</rscale>
<asrwt>0</asrwt>
<pdfrwt beam="1">  1        4 0.10393703E-02 0.12500149E+03</pdfrwt>
<pdfrwt beam="2">  1       -4 0.88955609E-01 0.12500149E+03</pdfrwt>
<totfact> 0.49828850E+03</totfact>
</mgrwt>
</event>
<event>
 5    1  0.3486589E-002  0.1250043E+03  0.7818608E-02  0.1235063E+00
         -4   -1    0    0    0  501 -0.00000000000E+00  0.00000000000E+00  0.11331157217E+02  0.11402106116E+02  0.12700000000E+01 0.  1.
          4   -1    0    0  501    0  0.00000000000E+00 -0.00000000000E+00 -0.34361105544E+03  0.34361340242E+03  0.12700000000E+01 0.  1.
         25    2    1    2    0    0  0.00000000000E+00  0.00000000000E+00 -0.33227989823E+03  0.35501550854E+03  0.12500432207E+03 0.  0.
    9000005    1    3    3    0    0  0.61251439538E+02  0.11378493845E+02 -0.15213681676E+03  0.16440139896E+03  0.10000000000E+01 0.  0.
    9000005    1    3    3    0    0 -0.61251439538E+02 -0.11378493845E+02 -0.18014308147E+03  0.19061410957E+03  0.10000000000E+01 0.  0.
<mgrwt>
<rscale>  0 0.12500432E+03</rscale>
<asrwt>0</asrwt>
<pdfrwt beam="2">  1        4 0.52868870E-01 0.12500432E+03</pdfrwt>
<pdfrwt beam="1">  1       -4 0.17488934E-02 0.12500432E+03</pdfrwt>
<totfact> 0.69169679E+03</totfact>
</mgrwt>
</event>
<event>
 5    1  0.3486589E-002  0.1250058E+03  0.7818608E-02  0.1235060E+00
          4   -1    0    0  501    0  0.00000000000E+00  0.00000000000E+00  0.13306734413E+02  0.13367201680E+02  0.12700000000E+01 0. -1.
         -4   -1    0    0    0  501 -0.00000000000E+00 -0.00000000000E+00 -0.29285431996E+03  0.29285707371E+03  0.12700000000E+01 0. -1.
         25    2    1    2    0    0  0.00000000000E+00  0.00000000000E+00 -0.27954758555E+03  0.30622427539E+03  0.12500581687E+03 0.  0.
    9000005    1    3    3    0    0  0.19279373361E+02 -0.40645701252E+02 -0.33506047168E+02  0.56101893589E+02  0.10000000000E+01 0.  0.
    9000005    1    3    3    0    0 -0.19279373361E+02  0.40645701252E+02 -0.24604153838E+03  0.25012238180E+03  0.10000000000E+01 0.  0.
<mgrwt>
<rscale>  0 0.12500582E+03</rscale>
<asrwt>0</asrwt>
<pdfrwt beam="1">  1        4 0.20520533E-02 0.12500582E+03</pdfrwt>
<pdfrwt beam="2">  1       -4 0.45059369E-01 0.12500582E+03</pdfrwt>
<totfact> 0.74814996E+03</totfact>
</mgrwt>
</event>
<event>
 5    1  0.3486589E-002  0.1249993E+03  0.7818608E-02  0.1235070E+00
          4   -1    0    0  501    0  0.00000000000E+00  0.00000000000E+00  0.31631751209E+02  0.31657235896E+02  0.12700000000E+01 0.  1.
         -4   -1    0    0    0  501 -0.00000000000E+00 -0.00000000000E+00 -0.12341149917E+03  0.12341803364E+03  0.12700000000E+01 0.  1.
         25    2    1    2    0    0  0.00000000000E+00  0.00000000000E+00 -0.91779747959E+02  0.15507526953E+03  0.12499926834E+03 0.  0.
    9000005    1    3    3    0    0 -0.36175371986E+02 -0.42098855143E+02 -0.10272646759E+02  0.56457934908E+02  0.10000000000E+01 0.  0.
    9000005    1    3    3    0    0  0.36175371986E+02  0.42098855143E+02 -0.81507101200E+02  0.98617334625E+02  0.10000000000E+01 0.  0.
<mgrwt>
<rscale>  0 0.12499927E+03</rscale>
<asrwt>0</asrwt>
<pdfrwt beam="1">  1        4 0.48688863E-02 0.12499927E+03</pdfrwt>
<pdfrwt beam="2">  1       -4 0.18988847E-01 0.12499927E+03</pdfrwt>
<totfact> 0.98302342E+03</totfact>
</mgrwt>
</event>
<event>
 5    1  0.3486589E-002  0.1250049E+03  0.7818608E-02  0.1235062E+00
         -4   -1    0    0    0  501 -0.00000000000E+00  0.00000000000E+00  0.74803743829E+02  0.74814523930E+02  0.12700000000E+01 0. -1.
          4   -1    0    0  501    0  0.00000000000E+00 -0.00000000000E+00 -0.52201838200E+02  0.52217284604E+02  0.12700000000E+01 0. -1.
         25    2    1    2    0    0  0.00000000000E+00  0.00000000000E+00  0.22601905629E+02  0.12703180853E+03  0.12500493687E+03 0.  0.
    9000005    1    3    3    0    0  0.52816961615E+02  0.21127987141E+02  0.37595884750E+02  0.68194382650E+02  0.10000000000E+01 0.  0.
    9000005    1    3    3    0    0 -0.52816961615E+02 -0.21127987141E+02 -0.14993979121E+02  0.58837425884E+02  0.10000000000E+01 0.  0.
<mgrwt>
<rscale>  0 0.12500494E+03</rscale>
<asrwt>0</asrwt>
<pdfrwt beam="2">  1        4 0.80330695E-02 0.12500494E+03</pdfrwt>
<pdfrwt beam="1">  1       -4 0.11510286E-01 0.12500494E+03</pdfrwt>
<totfact> 0.10407295E+04</totfact>
</mgrwt>
</event>
<event>
 5    1  0.3486589E-002  0.1249982E+03  0.7818608E-02  0.1235072E+00
          4   -1    0    0  501    0  0.00000000000E+00  0.00000000000E+00  0.15772649341E+02  0.15823696383E+02  0.12700000000E+01 0.  1.
         -4   -1    0    0    0  501 -0.00000000000E+00 -0.00000000000E+00 -0.24719979023E+03  0.24720305254E+03  0.12700000000E+01 0.  1.
         25    2    1    2    0    0  0.00000000000E+00  0.00000000000E+00 -0.23142714088E+03  0.26302674893E+03  0.12499819644E+03 0.  0.
    9000005    1    3    3    0    0  0.56592170400E+01 -0.40716236976E+02 -0.21475395216E+03  0.21865520497E+03  0.10000000000E+01 0.  0.
    9000005    1    3    3    0    0 -0.56592170400E+01  0.40716236976E+02 -0.16673188722E+02  0.44371543958E+02  0.10000000000E+01 0.  0.
<mgrwt>
<rscale>  0 0.12499820E+03</rscale>
<asrwt>0</asrwt>
<pdfrwt beam="1">  1        4 0.24307393E-02 0.12499820E+03</pdfrwt>
<pdfrwt beam="2">  1       -4 0.38034912E-01 0.12499820E+03</pdfrwt>
<totfact> 0.80486399E+03</totfact>
</mgrwt>
</event>
<event>
 5    1  0.3486589E-002  0.1250007E+03  0.7818608E-02  0.1235068E+00
         -4   -1    0    0    0  501 -0.00000000000E+00  0.00000000000E+00  0.11132610518E+03  0.11133334898E+03  0.12700000000E+01 0.  1.
          4   -1    0    0  501    0  0.00000000000E+00 -0.00000000000E+00 -0.35068847474E+02  0.35091836132E+02  0.12700000000E+01 0.  1.
         25    2    1    2    0    0  0.00000000000E+00  0.00000000000E+00  0.76257257706E+02  0.14642518511E+03  0.12500066192E+03 0.  0.
    9000005    1    3    3    0    0  0.49481673674E+02 -0.36175283491E+02  0.23868162374E+02  0.65785836929E+02  0.10000000000E+01 0.  0.
    9000005    1    3    3    0    0 -0.49481673674E+02  0.36175283491E+02  0.52389095331E+02  0.80639348180E+02  0.10000000000E+01 0.  0.
<mgrwt>
<rscale>  0 0.12500066E+03</rscale>
<asrwt>0</asrwt>
<pdfrwt beam="2">  1        4 0.53975329E-02 0.12500066E+03</pdfrwt>
<pdfrwt beam="1">  1       -4 0.17129419E-01 0.12500066E+03</pdfrwt>
<totfact> 0.10001963E+04</totfact>
</mgrwt>
</event>
<event>
 5    1  0.3486589E-002  0.1249991E+03  0.7818608E-02  0.1235071E+00
          4   -1    0    0  501    0  0.00000000000E+00  0.00000000000E+00  0.20160459321E+03  0.20160859332E+03  0.12700000000E+01 0. -1.
         -4   -1    0    0    0  501 -0.00000000000E+00 -0.00000000000E+00 -0.19350509182E+02  0.19392140305E+02  0.12700000000E+01 0. -1.
         25    2    1    2    0    0  0.00000000000E+00  0.00000000000E+00  0.18225408402E+03  0.22100073363E+03  0.12499909248E+03 0.  0.
    9000005    1    3    3    0    0  0.25006440927E+02  0.44764561397E+02  0.15428281915E+03  0.16258344421E+03  0.10000000000E+01 0.  0.
    9000005    1    3    3    0    0 -0.25006440927E+02 -0.44764561397E+02  0.27971264875E+02  0.58417289424E+02  0.10000000000E+01 0.  0.
<mgrwt>
<rscale>  0 0.12499909E+03</rscale>
<asrwt>0</asrwt>
<pdfrwt beam="1">  1        4 0.31019602E-01 0.12499909E+03</pdfrwt>
<pdfrwt beam="2">  1       -4 0.29805114E-02 0.12499909E+03</pdfrwt>
<totfact> 0.86712000E+03</totfact>
</mgrwt>
</event>
<event>
 5    1  0.3486589E-002  0.1249957E+03  0.7818608E-02  0.1235076E+00
          4   -1    0    0  501    0  0.00000000000E+00  0.00000000000E+00  0.30002222990E+02  0.30029090635E+02  0.12700000000E+01 0. -1.
         -4   -1    0    0    0  501 -0.00000000000E+00 -0.00000000000E+00 -0.13010156530E+03  0.13010776377E+03  0.12700000000E+01 0. -1.
         25    2    1    2    0    0  0.00000000000E+00  0.00000000000E+00 -0.10009934231E+03  0.16013685440E+03  0.12499573516E+03 0.  0.
    9000005    1    3    3    0    0 -0.19904926443E+02 -0.34549280764E+02  0.11593259605E+02  0.41536280121E+02  0.10000000000E+01 0.  0.
    9000005    1    3    3    0    0  0.19904926443E+02  0.34549280764E+02 -0.11169260191E+03  0.11860057428E+03  0.10000000000E+01 0.  0.
<mgrwt>
<rscale>  0 0.12499574E+03</rscale>
<asrwt>0</asrwt>
<pdfrwt beam="1">  1        4 0.46182702E-02 0.12499574E+03</pdfrwt>
<pdfrwt beam="2">  1       -4 0.20018169E-01 0.12499574E+03</pdfrwt>
<totfact> 0.97325737E+03</totfact>
</mgrwt>
</event>
<event>
 5    1  0.3486589E-002  0.1250000E+03  0.7818608E-02  0.1235069E+00
          4   -1    0    0  501    0  0.00000000000E+00  0.00000000000E+00  0.14912922376E+03  0.14913463139E+03  0.12700000000E+01 0. -1.
         -4   -1    0    0    0  501 -0.00000000000E+00 -0.00000000000E+00 -0.26172463029E+02  0.26203257832E+02  0.12700000000E+01 0. -1.
         25    2    1    2    0    0  0.00000000000E+00  0.00000000000E+00  0.12295676073E+03  0.17533788922E+03  0.12500004155E+03 0.  0.
    9000005    1    3    3    0    0 -0.46465912428E+02  0.93621393449E+01  0.43533787516E+01  0.47609689954E+02  0.10000000000E+01 0.  0.
    9000005    1    3    3    0    0  0.46465912428E+02 -0.93621393449E+01  0.11860338198E+03  0.12772819927E+03  0.10000000000E+01 0.  0.
<mgrwt>
<rscale>  0 0.12500004E+03</rscale>
<asrwt>0</asrwt>
<pdfrwt beam="1">  1        4 0.22945742E-01 0.12500004E+03</pdfrwt>
<pdfrwt beam="2">  1       -4 0.40293177E-02 0.12500004E+03</pdfrwt>
<totfact> 0.94462906E+03</totfact>
</mgrwt>
</event>
<event>
 5    1  0.3486589E-002  0.1250022E+03  0.7818608E-02  0.1235066E+00
         -4   -1    0    0    0  501 -0.00000000000E+00  0.00000000000E+00  0.15319696643E+02  0.15372247891E+02  0.12700000000E+01 0.  1.
          4   -1    0    0  501    0  0.00000000000E+00 -0.00000000000E+00 -0.25450025804E+03  0.25450342678E+03  0.12700000000E+01 0.  1.
         25    2    1    2    0    0  0.00000000000E+00  0.00000000000E+00 -0.23918056140E+03  0.26987567467E+03  0.12500215530E+03 0.  0.
    9000005    1    3    3    0    0 -0.56460425131E+02  0.23232776489E+02 -0.90798742410E+02  0.10942099037E+03  0.10000000000E+01 0.  0.
    9000005    1    3    3    0    0  0.56460425131E+02 -0.23232776489E+02 -0.14838181899E+03  0.16045468430E+03  0.10000000000E+01 0.  0.
<mgrwt>
<rscale>  0 0.12500216E+03</rscale>
<asrwt>0</asrwt>
<pdfrwt beam="2">  1        4 0.39158169E-01 0.12500216E+03</pdfrwt>
<pdfrwt beam="1">  1       -4 0.23611627E-02 0.12500216E+03</pdfrwt>
<totfact> 0.79536008E+03</totfact>
</mgrwt>
</event>
<event>
 5    1  0.3486589E-002  0.1250045E+03  0.7818608E-02  0.1235062E+00
          4   -1    0    0  501    0  0.00000000000E+00  0.00000000000E+00  0.13847047822E+03  0.13847630208E+03  0.12700000000E+01 0.  1.
         -4   -1    0    0    0  501 -0.00000000000E+00 -0.00000000000E+00 -0.28191295382E+02  0.28219887231E+02  0.12700000000E+01 0.  1.
         25    2    1    2    0    0  0.00000000000E+00  0.00000000000E+00  0.11027918284E+03  0.16669618931E+03  0.12500448538E+03 0.  0.
    9000005    1    3    3    0    0  0.60447909550E+02  0.12221123220E+01  0.76228089267E+02  0.97299357247E+02  0.10000000000E+01 0.  0.
    9000005    1    3    3    0    0 -0.60447909550E+02 -0.12221123220E+01  0.34051093571E+02  0.69396832067E+02  0.10000000000E+01 0.  0.
<mgrwt>
<rscale>  0 0.12500449E+03</rscale>
<asrwt>0</asrwt>
<pdfrwt beam="1">  1        4 0.21305797E-01 0.12500449E+03</pdfrwt>
<pdfrwt beam="2">  1       -4 0.43397698E-02 0.12500449E+03</pdfrwt>
<totfact> 0.96057445E+03</totfact>
</mgrwt>
</event>
<event>
 5    1  0.3486589E-002  0.1249995E+03  0.7818608E-02  0.1235070E+00
          4   -1    0    0  501    0  0.00000000000E+00  0.00000000000E+00  0.61912569685E+01  0.63201711093E+01  0.12700000000E+01 0.  1.
         -4   -1    0    0    0  501 -0.00000000000E+00 -0.00000000000E+00 -0.62429410354E+03  0.62429539531E+03  0.12700000000E+01 0.  1.
         25    2    1    2    0    0  0.00000000000E+00  0.00000000000E+00 -0.61810284657E+03  0.63061556642E+03  0.12499945472E+03 0.  0.
    9000005    1    3    3    0    0  0.28204194124E+02 -0.50426802041E+02 -0.42916745688E+03  0.43304046575E+03  0.10000000000E+01 0.  0.
    9000005    1    3    3    0    0 -0.28204194124E+02  0.50426802041E+02 -0.18893538969E+03  0.19757510067E+03  0.10000000000E+01 0.  0.
<mgrwt>
<rscale>  0 0.12499945E+03</rscale>
<asrwt>0</asrwt>
<pdfrwt beam="1">  1        4 0.96251741E-03 0.12499945E+03</pdfrwt>
<pdfrwt beam="2">  1       -4 0.96055213E-01 0.12499945E+03</pdfrwt>
<totfact> 0.46990970E+03</totfact>
</mgrwt>
</event>
<event>
 5    1  0.3486589E-002  0.1249997E+03  0.7818608E-02  0.1235070E+00
          4   -1    0    0  501    0  0.00000000000E+00  0.00000000000E+00  0.47248461945E+03  0.47248632628E+03  0.12700000000E+01 0.  1.
         -4   -1    0    0    0  501 -0.00000000000E+00 -0.00000000000E+00 -0.82169143848E+01  0.83144802608E+01  0.12700000000E+01 0.  1.
         25    2    1    2    0    0  0.00000000000E+00  0.00000000000E+00  0.46426770507E+03  0.48080080654E+03  0.12499965440E+03 0.  0.
    9000005    1    3    3    0    0  0.26455569603E+02  0.69432441557E+01  0.44825740556E+03  0.44909220372E+03  0.10000000000E+01 0.  0.
    9000005    1    3    3    0    0 -0.26455569603E+02 -0.69432441557E+01  0.16010299508E+02  0.31708602819E+02  0.10000000000E+01 0.  0.
<mgrwt>
<rscale>  0 0.12499965E+03</rscale>
<asrwt>0</asrwt>
<pdfrwt beam="1">  1        4 0.72697603E-01 0.12499965E+03</pdfrwt>
<pdfrwt beam="2">  1       -4 0.12717766E-02 0.12499965E+03</pdfrwt>
<totfact> 0.57385799E+03</totfact>
</mgrwt>
</event>
<event>
 5    1  0.3486589E-002  0.1249987E+03  0.7818608E-02  0.1235071E+00
          4   -1    0    0  501    0  0.00000000000E+00  0.00000000000E+00  0.12166859654E+04  0.12166866282E+04  0.12700000000E+01 0. -1.
         -4   -1    0    0    0  501 -0.00000000000E+00 -0.00000000000E+00 -0.30842128289E+01  0.33354563067E+01  0.12700000000E+01 0. -1.
         25    2    1    2    0    0  0.00000000000E+00  0.00000000000E+00  0.12136017526E+04  0.12200220845E+04  0.12499869160E+03 0.  0.
    9000005    1    3    3    0    0 -0.43178638466E+02  0.13760090908E+02  0.10267689351E+04  0.10277690310E+04  0.10000000000E+01 0.  0.
    9000005    1    3    3    0    0  0.43178638466E+02 -0.13760090908E+02  0.18683281743E+03  0.19225305352E+03  0.10000000000E+01 0.  0.
<mgrwt>
<rscale>  0 0.12499869E+03</rscale>
<asrwt>0</asrwt>
<pdfrwt beam="1">  1        4 0.18720154E+00 0.12499869E+03</pdfrwt>
<pdfrwt beam="2">  1       -4 0.49387247E-03 0.12499869E+03</pdfrwt>
<totfact> 0.24195352E+03</totfact>
</mgrwt>
</event>
<event>
 5    1  0.3486589E-002  0.1250044E+03  0.7818608E-02  0.1235062E+00
          4   -1    0    0  501    0  0.00000000000E+00  0.00000000000E+00  0.33923754868E+02  0.33947518971E+02  0.12700000000E+01 0. -1.
         -4   -1    0    0    0  501 -0.00000000000E+00 -0.00000000000E+00 -0.11508835496E+03  0.11509536197E+03  0.12700000000E+01 0. -1.
         25    2    1    2    0    0  0.00000000000E+00  0.00000000000E+00 -0.81164600094E+02  0.14904288094E+03  0.12500435213E+03 0.  0.
    9000005    1    3    3    0    0  0.19344345484E+02  0.27035417647E+02  0.22512923996E+02  0.40161539518E+02  0.10000000000E+01 0.  0.
    9000005    1    3    3    0    0 -0.19344345484E+02 -0.27035417647E+02 -0.10367752409E+03  0.10888134143E+03  0.10000000000E+01 0.  0.
<mgrwt>
<rscale>  0 0.12500435E+03</rscale>
<asrwt>0</asrwt>
<pdfrwt beam="1">  1        4 0.52214063E-02 0.12500435E+03</pdfrwt>
<pdfrwt beam="2">  1       -4 0.17708268E-01 0.12500435E+03</pdfrwt>
<totfact> 0.99485082E+03</totfact>
</mgrwt>
</event>
<event>
 5    1  0.3486589E-002  0.1250091E+03  0.7818608E-02  0.1235055E+00
          4   -1    0    0  501    0  0.00000000000E+00  0.00000000000E+00  0.12652342426E+02  0.12715921865E+02  0.12700000000E+01 0. -1.
         -4   -1    0    0    0  501 -0.00000000000E+00 -0.00000000000E+00 -0.30794357182E+03  0.30794619063E+03  0.12700000000E+01 0. -1.
         25    2    1    2    0    0  0.00000000000E+00  0.00000000000E+00 -0.29529122939E+03  0.32066211249E+03  0.12500912061E+03 0.  0.
    9000005    1    3    3    0    0  0.57047697486E+02  0.11331491936E+02 -0.20630634653E+03  0.21435053327E+03  0.10000000000E+01 0.  0.
    9000005    1    3    3    0    0 -0.57047697486E+02 -0.11331491936E+02 -0.88984882865E+02  0.10631157922E+03  0.10000000000E+01 0.  0.
<mgrwt>
<rscale>  0 0.12500912E+03</rscale>
<asrwt>0</asrwt>
<pdfrwt beam="1">  1        4 0.19516066E-02 0.12500912E+03</pdfrwt>
<pdfrwt beam="2">  1       -4 0.47381021E-01 0.12500912E+03</pdfrwt>
<totfact> 0.73062675E+03</totfact>
</mgrwt>
</event>
<event>
 5    1  0.3486589E-002  0.1249977E+03  0.7818608E-02  0.1235073E+00
          4   -1    0    0  501    0  0.00000000000E+00  0.00000000000E+00  0.10691617003E+02  0.10766781048E+02  0.12700000000E+01 0. -1.
         -4   -1    0    0    0  501 -0.00000000000E+00 -0.00000000000E+00 -0.36398714454E+03  0.36398936013E+03  0.12700000000E+01 0. -1.
         25    2    1    2    0    0  0.00000000000E+00  0.00000000000E+00 -0.35329552753E+03  0.37475614118E+03  0.12499774228E+03 0.  0.
    9000005    1    3    3    0    0 -0.40148928113E+00  0.29358515257E+02 -0.11261525245E+02  0.31462764700E+02  0.10000000000E+01 0.  0.
    9000005    1    3    3    0    0  0.40148928113E+00 -0.29358515257E+02 -0.34203400229E+03  0.34329337648E+03  0.10000000000E+01 0.  0.
<mgrwt>
<rscale>  0 0.12499774E+03</rscale>
<asrwt>0</asrwt>
<pdfrwt beam="1">  1        4 0.16508167E-02 0.12499774E+03</pdfrwt>
<pdfrwt beam="2">  1       -4 0.56003965E-01 0.12499774E+03</pdfrwt>
<totfact> 0.67087626E+03</totfact>
</mgrwt>
</event>
<event>
 5    1  0.3486589E-002  0.1250015E+03  0.7818608E-02  0.1235067E+00
         -4   -1    0    0    0  501 -0.00000000000E+00  0.00000000000E+00  0.11844830230E+04  0.11844837039E+04  0.12700000000E+01 0. -1.
          4   -1    0    0  501    0  0.00000000000E+00 -0.00000000000E+00 -0.31749564616E+01  0.34195392281E+01  0.12700000000E+01 0. -1.
         25    2    1    2    0    0  0.00000000000E+00  0.00000000000E+00  0.11813080666E+04  0.11879032431E+04  0.12500146734E+03 0.  0.
    9000005    1    3    3    0    0  0.47144477358E+02 -0.14442880967E+02  0.95552204225E+03  0.95679390246E+03  0.10000000000E+01 0.  0.
    9000005    1    3    3    0    0 -0.47144477358E+02  0.14442880967E+02  0.22578602433E+03  0.23110934065E+03  0.10000000000E+01 0.  0.
<mgrwt>
<rscale>  0 0.12500147E+03</rscale>
<asrwt>0</asrwt>
<pdfrwt beam="2">  1        4 0.50732104E-03 0.12500147E+03</pdfrwt>
<pdfrwt beam="1">  1       -4 0.18224711E+00 0.12500147E+03</pdfrwt>
<totfact> 0.25030777E+03</totfact>
</mgrwt>
</event>
<event>
 5    1  0.3486589E-002  0.1250127E+03  0.7818608E-02  0.1235049E+00
          4   -1    0    0  501    0  0.00000000000E+00  0.00000000000E+00  0.26414306983E+04  0.26414310036E+04  0.12700000000E+01 0. -1.
         -4   -1    0    0    0  501 -0.00000000000E+00 -0.00000000000E+00 -0.12061703865E+01  0.17514985016E+01  0.12700000000E+01 0. -1.
         25    2    1    2    0    0  0.00000000000E+00  0.00000000000E+00  0.26402245279E+04  0.26431825021E+04  0.12501272600E+03 0.  0.
    9000005    1    3    3    0    0  0.24531086063E+02  0.50383677655E+02  0.73502828992E+03  0.73716204198E+03  0.10000000000E+01 0.  0.
    9000005    1    3    3    0    0 -0.24531086063E+02 -0.50383677655E+02  0.19051962380E+04  0.19060204601E+04  0.10000000000E+01 0.  0.
<mgrwt>
<rscale>  0 0.12501273E+03</rscale>
<asrwt>0</asrwt>
<pdfrwt beam="1">  1        4 0.40641409E+00 0.12501273E+03</pdfrwt>
<pdfrwt beam="2">  1       -4 0.22753751E-03 0.12501273E+03</pdfrwt>
<totfact> 0.36386662E+02</totfact>
</mgrwt>
</event>
<event>
 5    1  0.3486589E-002  0.1249996E+03  0.7818608E-02  0.1235070E+00
          4   -1    0    0  501    0  0.00000000000E+00  0.00000000000E+00  0.10215689528E+04  0.10215697422E+04  0.12700000000E+01 0.  1.
         -4   -1    0    0    0  501 -0.00000000000E+00 -0.00000000000E+00 -0.37174853771E+01  0.39284344883E+01  0.12700000000E+01 0.  1.
         25    2    1    2    0    0  0.00000000000E+00  0.00000000000E+00  0.10178514674E+04  0.10254981767E+04  0.12499960281E+03 0.  0.
    9000005    1    3    3    0    0  0.48424793032E+02 -0.16155366201E+02  0.80464236762E+03  0.80626068750E+03  0.10000000000E+01 0.  0.
    9000005    1    3    3    0    0 -0.48424793032E+02  0.16155366201E+02  0.21320909981E+03  0.21923748922E+03  0.10000000000E+01 0.  0.
<mgrwt>
<rscale>  0 0.12499960E+03</rscale>
<asrwt>0</asrwt>
<pdfrwt beam="1">  1        4 0.15718077E+00 0.12499960E+03</pdfrwt>
<pdfrwt beam="2">  1       -4 0.58820831E-03 0.12499960E+03</pdfrwt>
<totfact> 0.29772557E+03</totfact>
</mgrwt>
</event>
<event>
 5    1  0.3486589E-002  0.1250111E+03  0.7818608E-02  0.1235052E+00
          4   -1    0    0  501    0  0.00000000000E+00  0.00000000000E+00  0.42182803970E+03  0.42182995149E+03  0.12700000000E+01 0.  1.
         -4   -1    0    0    0  501 -0.00000000000E+00 -0.00000000000E+00 -0.92164618338E+01  0.93035514044E+01  0.12700000000E+01 0.  1.
         25    2    1    2    0    0  0.00000000000E+00  0.00000000000E+00  0.41261157786E+03  0.43113350290E+03  0.12501113203E+03 0.  0.
    9000005    1    3    3    0    0 -0.29064260770E+02  0.28477725975E+02  0.42708202427E+02  0.58997480331E+02  0.10000000000E+01 0.  0.
    9000005    1    3    3    0    0  0.29064260770E+02 -0.28477725975E+02  0.36990337544E+03  0.37213602257E+03  0.10000000000E+01 0.  0.
<mgrwt>
<rscale>  0 0.12501113E+03</rscale>
<asrwt>0</asrwt>
<pdfrwt beam="1">  1        4 0.64903478E-01 0.12501113E+03</pdfrwt>
<pdfrwt beam="2">  1       -4 0.14247632E-02 0.12501113E+03</pdfrwt>
<totfact> 0.61618248E+03</totfact>
</mgrwt>
</event>
<event>
 5    1  0.3486589E-002  0.1249997E+03  0.7818608E-02  0.1235070E+00
         -4   -1    0    0    0  501 -0.00000000000E+00  0.00000000000E+00  0.10419275344E+03  0.10420049313E+03  0.12700000000E+01 0. -1.
          4   -1    0    0  501    0  0.00000000000E+00 -0.00000000000E+00 -0.37470558885E+02  0.37492074938E+02  0.12700000000E+01 0. -1.
         25    2    1    2    0    0  0.00000000000E+00  0.00000000000E+00  0.66722194555E+02  0.14169256807E+03  0.12499973040E+03 0.  0.
    9000005    1    3    3    0    0  0.19841505904E+02  0.43596634602E+02  0.78856735091E+02  0.92269911534E+02  0.10000000000E+01 0.  0.
    9000005    1    3    3    0    0 -0.19841505904E+02 -0.43596634602E+02 -0.12134540537E+02  0.49422656538E+02  0.10000000000E+01 0.  0.
<mgrwt>
<rscale>  0 0.12499973E+03</rscale>
<asrwt>0</asrwt>
<pdfrwt beam="2">  1        4 0.57669520E-02 0.12499973E+03</pdfrwt>
<pdfrwt beam="1">  1       -4 0.16031904E-01 0.12499973E+03</pdfrwt>
<totfact> 0.10098688E+04</totfact>
</mgrwt>
</event>
<event>
 5    1  0.3486589E-002  0.1250134E+03  0.7818608E-02  0.1235048E+00
          4   -1    0    0  501    0  0.00000000000E+00  0.00000000000E+00  0.56456886807E+01  0.57867694510E+01  0.12700000000E+01 0. -1.
         -4   -1    0    0    0  501 -0.00000000000E+00 -0.00000000000E+00 -0.68336595869E+03  0.68336713880E+03  0.12700000000E+01 0. -1.
         25    2    1    2    0    0  0.00000000000E+00  0.00000000000E+00 -0.67772027001E+03  0.68915390825E+03  0.12501337881E+03 0.  0.
    9000005    1    3    3    0    0  0.27807538856E+02 -0.54869025619E+02 -0.39980338268E+03  0.40450910248E+03  0.10000000000E+01 0.  0.
    9000005    1    3    3    0    0 -0.27807538856E+02  0.54869025619E+02 -0.27791688733E+03  0.28464480577E+03  0.10000000000E+01 0.  0.
<mgrwt>
<rscale>  0 0.12501338E+03</rscale>
<asrwt>0</asrwt>
<pdfrwt beam="1">  1        4 0.87951118E-03 0.12501338E+03</pdfrwt>
<pdfrwt beam="2">  1       -4 0.10514410E+00 0.12501338E+03</pdfrwt>
<totfact> 0.43652699E+03</totfact>
</mgrwt>
</event>
<event>
 5    1  0.3486589E-002  0.1250007E+03  0.7818608E-02  0.1235068E+00
          4   -1    0    0  501    0  0.00000000000E+00  0.00000000000E+00  0.10605884111E+02  0.10681651453E+02  0.12700000000E+01 0.  1.
         -4   -1    0    0    0  501 -0.00000000000E+00 -0.00000000000E+00 -0.36692608140E+03  0.36692827925E+03  0.12700000000E+01 0.  1.
         25    2    1    2    0    0  0.00000000000E+00  0.00000000000E+00 -0.35632019729E+03  0.37760993070E+03  0.12500070707E+03 0.  0.
    9000005    1    3    3    0    0  0.31016862266E+01 -0.31656409001E+02 -0.15662818649E+02  0.35469318803E+02  0.10000000000E+01 0.  0.
    9000005    1    3    3    0    0 -0.31016862266E+01  0.31656409001E+02 -0.34065737864E+03  0.34214061190E+03  0.10000000000E+01 0.  0.
<mgrwt>
<rscale>  0 0.12500071E+03</rscale>
<asrwt>0</asrwt>
<pdfrwt beam="1">  1        4 0.16376721E-02 0.12500071E+03</pdfrwt>
<pdfrwt beam="2">  1       -4 0.56456154E-01 0.12500071E+03</pdfrwt>
<totfact> 0.66789201E+03</totfact>
</mgrwt>
</event>
<event>
 5    1  0.3486589E-002  0.1250031E+03  0.7818608E-02  0.1235064E+00
         -4   -1    0    0    0  501 -0.00000000000E+00  0.00000000000E+00  0.80208984085E+03  0.80209084628E+03  0.12700000000E+01 0. -1.
          4   -1    0    0  501    0  0.00000000000E+00 -0.00000000000E+00 -0.47865172470E+01  0.49521356358E+01  0.12700000000E+01 0. -1.
         25    2    1    2    0    0  0.00000000000E+00  0.00000000000E+00  0.79730332360E+03  0.80704298192E+03  0.12500313932E+03 0.  0.
    9000005    1    3    3    0    0  0.59658117083E+02  0.18021880293E+02  0.42863442737E+03  0.43314241472E+03  0.10000000000E+01 0.  0.
    9000005    1    3    3    0    0 -0.59658117083E+02 -0.18021880293E+02  0.36866889623E+03  0.37390056720E+03  0.10000000000E+01 0.  0.
<mgrwt>
<rscale>  0 0.12500314E+03</rscale>
<asrwt>0</asrwt>
<pdfrwt beam="2">  1        4 0.74920437E-03 0.12500314E+03</pdfrwt>
<pdfrwt beam="1">  1       -4 0.12341127E+00 0.12500314E+03</pdfrwt>
<totfact> 0.37949627E+03</totfact>
</mgrwt>
</event>
<event>
 5    1  0.3486589E-002  0.1249995E+03  0.7818608E-02  0.1235070E+00
         -4   -1    0    0    0  501 -0.00000000000E+00  0.00000000000E+00  0.30884153058E+02  0.30910254126E+02  0.12700000000E+01 0.  1.
          4   -1    0    0  501    0  0.00000000000E+00 -0.00000000000E+00 -0.12639701625E+03  0.12640339638E+03  0.12700000000E+01 0.  1.
         25    2    1    2    0    0  0.00000000000E+00  0.00000000000E+00 -0.95512863190E+02  0.15731365051E+03  0.12499951040E+03 0.  0.
    9000005    1    3    3    0    0  0.29766935239E+02  0.43931884179E+02 -0.89290039251E+02  0.10387392353E+03  0.10000000000E+01 0.  0.
    9000005    1    3    3    0    0 -0.29766935239E+02 -0.43931884179E+02 -0.62228239391E+01  0.53439726972E+02  0.10000000000E+01 0.  0.
<mgrwt>
<rscale>  0 0.12499951E+03</rscale>
<asrwt>0</asrwt>
<pdfrwt beam="2">  1        4 0.19448193E-01 0.12499951E+03</pdfrwt>
<pdfrwt beam="1">  1       -4 0.47539068E-02 0.12499951E+03</pdfrwt>
<totfact> 0.97864283E+03</totfact>
</mgrwt>
</event>
<event>
 5    1  0.3486589E-002  0.1250229E+03  0.7818608E-02  0.1235033E+00
          4   -1    0    0  501    0  0.00000000000E+00  0.00000000000E+00  0.20496572770E+02  0.20535880680E+02  0.12700000000E+01 0. -1.
         -4   -1    0    0    0  501 -0.00000000000E+00 -0.00000000000E+00 -0.19042648753E+03  0.19043072245E+03  0.12700000000E+01 0. -1.
         25    2    1    2    0    0  0.00000000000E+00  0.00000000000E+00 -0.16992991476E+03  0.21096660313E+03  0.12502292472E+03 0.  0.
    9000005    1    3    3    0    0 -0.84618287025E+01  0.88873140369E+01 -0.18838206791E+03  0.18878397815E+03  0.10000000000E+01 0.  0.
    9000005    1    3    3    0    0  0.84618287025E+01 -0.88873140369E+01  0.18452153143E+02  0.22182624989E+02  0.10000000000E+01 0.  0.
<mgrwt>
<rscale>  0 0.12502292E+03</rscale>
<asrwt>0</asrwt>
<pdfrwt beam="1">  1        4 0.31566685E-02 0.12502292E+03</pdfrwt>
<pdfrwt beam="2">  1       -4 0.29299731E-01 0.12502292E+03</pdfrwt>
<totfact> 0.88273020E+03</totfact>
</mgrwt>
</event>
<event>
 5    1  0.3486589E-002  0.1249951E+03  0.7818608E-02  0.1235077E+00
          4   -1    0    0  501    0  0.00000000000E+00  0.00000000000E+00  0.28341327560E+02  0.28369768203E+02  0.12700000000E+01 0. -1.
         -4   -1    0    0    0  501 -0.00000000000E+00 -0.00000000000E+00 -0.13771744626E+03  0.13772330196E+03  0.12700000000E+01 0. -1.
         25    2    1    2    0    0  0.00000000000E+00  0.00000000000E+00 -0.10937611870E+03  0.16609307017E+03  0.12499509037E+03 0.  0.
    9000005    1    3    3    0    0 -0.54014660051E+02 -0.14059532464E+02 -0.92029120671E+02  0.10763648547E+03  0.10000000000E+01 0.  0.
    9000005    1    3    3    0    0  0.54014660051E+02  0.14059532464E+02 -0.17346998027E+02  0.58456584694E+02  0.10000000000E+01 0.  0.
<mgrwt>
<rscale>  0 0.12499509E+03</rscale>
<asrwt>0</asrwt>
<pdfrwt beam="1">  1        4 0.43628425E-02 0.12499509E+03</pdfrwt>
<pdfrwt beam="2">  1       -4 0.21189937E-01 0.12499509E+03</pdfrwt>
<totfact> 0.96191390E+03</totfact>
</mgrwt>
</event>
<event>
 5    1  0.3486589E-002  0.1249967E+03  0.7818608E-02  0.1235074E+00
         -4   -1    0    0    0  501 -0.00000000000E+00  0.00000000000E+00  0.67584124517E+02  0.67596056000E+02  0.12700000000E+01 0. -1.
          4   -1    0    0  501    0  0.00000000000E+00 -0.00000000000E+00 -0.57771290371E+02  0.57785248040E+02  0.12700000000E+01 0. -1.
         25    2    1    2    0    0  0.00000000000E+00  0.00000000000E+00  0.98128341469E+01  0.12538130404E+03  0.12499671871E+03 0.  0.
    9000005    1    3    3    0    0 -0.54305436655E+02  0.14859680690E+02 -0.22290735593E+02  0.60562095850E+02  0.10000000000E+01 0.  0.
    9000005    1    3    3    0    0  0.54305436655E+02 -0.14859680690E+02  0.32103569740E+02  0.64819208191E+02  0.10000000000E+01 0.  0.
<mgrwt>
<rscale>  0 0.12499672E+03</rscale>
<asrwt>0</asrwt>
<pdfrwt beam="2">  1        4 0.88898824E-02 0.12499672E+03</pdfrwt>
<pdfrwt beam="1">  1       -4 0.10399549E-01 0.12499672E+03</pdfrwt>
<totfact> 0.10445354E+04</totfact>
</mgrwt>
</event>
<event>
 5    1  0.3486589E-002  0.1250018E+03  0.7818608E-02  0.1235066E+00
          4   -1    0    0  501    0  0.00000000000E+00  0.00000000000E+00  0.90720573167E+03  0.90720662061E+03  0.12700000000E+01 0. -1.
         -4   -1    0    0    0  501 -0.00000000000E+00 -0.00000000000E+00 -0.42113739751E+01  0.43987010308E+01  0.12700000000E+01 0. -1.
         25    2    1    2    0    0  0.00000000000E+00  0.00000000000E+00  0.90299435770E+03  0.91160532164E+03  0.12500180963E+03 0.  0.
    9000005    1    3    3    0    0  0.59888545930E+02 -0.33114660560E+01  0.32356017145E+03  0.32907413798E+03  0.10000000000E+01 0.  0.
    9000005    1    3    3    0    0 -0.59888545930E+02  0.33114660560E+01  0.57943418625E+03  0.58253118366E+03  0.10000000000E+01 0.  0.
<mgrwt>
<rscale>  0 0.12500181E+03</rscale>
<asrwt>0</asrwt>
<pdfrwt beam="1">  1        4 0.13958463E+00 0.12500181E+03</pdfrwt>
<pdfrwt beam="2">  1       -4 0.66238167E-03 0.12500181E+03</pdfrwt>
<totfact> 0.33718079E+03</totfact>
</mgrwt>
</event>
<event>
 5    1  0.3486589E-002  0.1250016E+03  0.7818608E-02  0.1235067E+00
         -4   -1    0    0    0  501 -0.00000000000E+00  0.00000000000E+00  0.85650658741E+02  0.85660073796E+02  0.12700000000E+01 0.  1.
          4   -1    0    0  501    0  0.00000000000E+00 -0.00000000000E+00 -0.45587183337E+02  0.45604870185E+02  0.12700000000E+01 0.  1.
         25    2    1    2    0    0  0.00000000000E+00  0.00000000000E+00  0.40063475404E+02  0.13126494398E+03  0.12500161382E+03 0.  0.
    9000005    1    3    3    0    0 -0.20562929999E+02  0.37494977336E+02 -0.27821806179E+02  0.51027054732E+02  0.10000000000E+01 0.  0.
    9000005    1    3    3    0    0  0.20562929999E+02 -0.37494977336E+02  0.67885281583E+02  0.80237889250E+02  0.10000000000E+01 0.  0.
<mgrwt>
<rscale>  0 0.12500161E+03</rscale>
<asrwt>0</asrwt>
<pdfrwt beam="2">  1        4 0.70154977E-02 0.12500161E+03</pdfrwt>
<pdfrwt beam="1">  1       -4 0.13179109E-01 0.12500161E+03</pdfrwt>
<totfact> 0.10317037E+04</totfact>
</mgrwt>
</event>
<event>
 5    1  0.3486589E-002  0.1250013E+03  0.7818608E-02  0.1235067E+00
         -4   -1    0    0    0  501 -0.00000000000E+00  0.00000000000E+00  0.15500690459E+03  0.15501210717E+03  0.12700000000E+01 0. -1.
          4   -1    0    0  501    0  0.00000000000E+00 -0.00000000000E+00 -0.25179375139E+02  0.25211382992E+02  0.12700000000E+01 0. -1.
         25    2    1    2    0    0  0.00000000000E+00  0.00000000000E+00  0.12982752945E+03  0.18022349016E+03  0.12500127601E+03 0.  0.
    9000005    1    3    3    0    0  0.38604733313E+02 -0.53295519443E+01 -0.55209541071E+01  0.39372712535E+02  0.10000000000E+01 0.  0.
    9000005    1    3    3    0    0 -0.38604733313E+02  0.53295519443E+01  0.13534848355E+03  0.14085077763E+03  0.10000000000E+01 0.  0.
<mgrwt>
<rscale>  0 0.12500128E+03</rscale>
<asrwt>0</asrwt>
<pdfrwt beam="2">  1        4 0.38766123E-02 0.12500128E+03</pdfrwt>
<pdfrwt beam="1">  1       -4 0.23850079E-01 0.12500128E+03</pdfrwt>
<totfact> 0.93574112E+03</totfact>
</mgrwt>
</event>
<event>
 5    1  0.3486589E-002  0.1250004E+03  0.7818608E-02  0.1235069E+00
         -4   -1    0    0    0  501 -0.00000000000E+00  0.00000000000E+00  0.54672178803E+01  0.56127864159E+01  0.12700000000E+01 0.  1.
          4   -1    0    0  501    0  0.00000000000E+00 -0.00000000000E+00 -0.70495754930E+03  0.70495869326E+03  0.12700000000E+01 0.  1.
         25    2    1    2    0    0  0.00000000000E+00  0.00000000000E+00 -0.69949033142E+03  0.71057147968E+03  0.12500041597E+03 0.  0.
    9000005    1    3    3    0    0 -0.25126275555E+02 -0.31287483954E+02 -0.77417723006E+02  0.87205161607E+02  0.10000000000E+01 0.  0.
    9000005    1    3    3    0    0  0.25126275555E+02  0.31287483954E+02 -0.62207260841E+03  0.62336631807E+03  0.10000000000E+01 0.  0.
<mgrwt>
<rscale>  0 0.12500042E+03</rscale>
<asrwt>0</asrwt>
<pdfrwt beam="2">  1        4 0.10846622E+00 0.12500042E+03</pdfrwt>
<pdfrwt beam="1">  1       -4 0.85239658E-03 0.12500042E+03</pdfrwt>
<totfact> 0.42534125E+03</totfact>
</mgrwt>
</event>
<event>
 5    1  0.3486589E-002  0.1249854E+03  0.7818608E-02  0.1235092E+00
          4   -1    0    0  501    0  0.00000000000E+00  0.00000000000E+00  0.83876120781E+02  0.83885735004E+02  0.12700000000E+01 0. -1.
         -4   -1    0    0    0  501 -0.00000000000E+00 -0.00000000000E+00 -0.46539828893E+02  0.46557153837E+02  0.12700000000E+01 0. -1.
         25    2    1    2    0    0  0.00000000000E+00  0.00000000000E+00  0.37336291888E+02  0.13044288884E+03  0.12498539338E+03 0.  0.
    9000005    1    3    3    0    0  0.33393095323E+02  0.47050827183E+02 -0.63680278352E+01  0.58055412601E+02  0.10000000000E+01 0.  0.
    9000005    1    3    3    0    0 -0.33393095323E+02 -0.47050827183E+02  0.43704319723E+02  0.72387476239E+02  0.10000000000E+01 0.  0.
<mgrwt>
<rscale>  0 0.12498539E+03</rscale>
<asrwt>0</asrwt>
<pdfrwt beam="1">  1        4 0.12906091E-01 0.12498539E+03</pdfrwt>
<pdfrwt beam="2">  1       -4 0.71620459E-02 0.12498539E+03</pdfrwt>
<totfact> 0.10338450E+04</totfact>
</mgrwt>
</event>
<event>
 5    1  0.3486589E-002  0.1250021E+03  0.7818608E-02  0.1235066E+00
         -4   -1    0    0    0  501 -0.00000000000E+00  0.00000000000E+00  0.68800963117E+01  0.69963294133E+01  0.12700000000E+01 0.  1.
          4   -1    0    0  501    0  0.00000000000E+00 -0.00000000000E+00 -0.56290724378E+03  0.56290867643E+03  0.12700000000E+01 0.  1.
         25    2    1    2    0    0  0.00000000000E+00  0.00000000000E+00 -0.55602714747E+03  0.56990500584E+03  0.12500210784E+03 0.  0.
    9000005    1    3    3    0    0  0.27281499438E+02 -0.56100114846E+02 -0.26102884385E+03  0.26838137122E+03  0.10000000000E+01 0.  0.
    9000005    1    3    3    0    0 -0.27281499438E+02  0.56100114846E+02 -0.29499830362E+03  0.30152363462E+03  0.10000000000E+01 0.  0.
<mgrwt>
<rscale>  0 0.12500211E+03</rscale>
<asrwt>0</asrwt>
<pdfrwt beam="2">  1        4 0.86610130E-01 0.12500211E+03</pdfrwt>
<pdfrwt beam="1">  1       -4 0.10675280E-02 0.12500211E+03</pdfrwt>
<totfact> 0.50821783E+03</totfact>
</mgrwt>
</event>
<event>
 5    1  0.3486589E-002  0.1249986E+03  0.7818608E-02  0.1235071E+00
         -4   -1    0    0    0  501 -0.00000000000E+00  0.00000000000E+00  0.23653822130E+03  0.23654163066E+03  0.12700000000E+01 0.  1.
          4   -1    0    0  501    0  0.00000000000E+00 -0.00000000000E+00 -0.16485931488E+02  0.16534776594E+02  0.12700000000E+01 0.  1.
         25    2    1    2    0    0  0.00000000000E+00  0.00000000000E+00  0.22005228981E+03  0.25307640725E+03  0.12499863062E+03 0.  0.
    9000005    1    3    3    0    0 -0.59973102894E+02  0.16277008218E+02  0.96680393518E+02  0.11493394867E+03  0.10000000000E+01 0.  0.
    9000005    1    3    3    0    0  0.59973102894E+02 -0.16277008218E+02  0.12337189629E+03  0.13814245858E+03  0.10000000000E+01 0.  0.
<mgrwt>
<rscale>  0 0.12499863E+03</rscale>
<asrwt>0</asrwt>
<pdfrwt beam="2">  1        4 0.25403168E-02 0.12499863E+03</pdfrwt>
<pdfrwt beam="1">  1       -4 0.36394514E-01 0.12499863E+03</pdfrwt>
<totfact> 0.81890112E+03</totfact>
</mgrwt>
</event>
<event>
 5    1  0.3486589E-002  0.1249961E+03  0.7818608E-02  0.1235075E+00
         -4   -1    0    0    0  501 -0.00000000000E+00  0.00000000000E+00  0.28692430601E+02  0.28720523564E+02  0.12700000000E+01 0. -1.
          4   -1    0    0  501    0  0.00000000000E+00 -0.00000000000E+00 -0.13603595517E+03  0.13604188325E+03  0.12700000000E+01 0. -1.
         25    2    1    2    0    0  0.00000000000E+00  0.00000000000E+00 -0.10734352457E+03  0.16476240681E+03  0.12499607367E+03 0.  0.
    9000005    1    3    3    0    0 -0.94609961414E+01 -0.61455950304E+02 -0.61867622596E+02  0.87720847018E+02  0.10000000000E+01 0.  0.
    9000005    1    3    3    0    0  0.94609961414E+01  0.61455950304E+02 -0.45475901970E+02  0.77041559795E+02  0.10000000000E+01 0.  0.
<mgrwt>
<rscale>  0 0.12499607E+03</rscale>
<asrwt>0</asrwt>
<pdfrwt beam="2">  1        4 0.20931225E-01 0.12499607E+03</pdfrwt>
<pdfrwt beam="1">  1       -4 0.44168372E-02 0.12499607E+03</pdfrwt>
<totfact> 0.96440914E+03</totfact>
</mgrwt>
</event>
<event>
 5    1  0.3486589E-002  0.1249988E+03  0.7818608E-02  0.1235071E+00
         -4   -1    0    0    0  501 -0.00000000000E+00  0.00000000000E+00  0.70845324546E+03  0.70845438378E+03  0.12700000000E+01 0.  1.
          4   -1    0    0  501    0  0.00000000000E+00 -0.00000000000E+00 -0.54393738071E+01  0.55856680365E+01  0.12700000000E+01 0.  1.
         25    2    1    2    0    0  0.00000000000E+00  0.00000000000E+00  0.70301387165E+03  0.71404005182E+03  0.12499876746E+03 0.  0.
    9000005    1    3    3    0    0  0.50917504732E+01 -0.34170605356E+02  0.54045275303E+02  0.64151757388E+02  0.10000000000E+01 0.  0.
    9000005    1    3    3    0    0 -0.50917504732E+01  0.34170605356E+02  0.64896859635E+03  0.64988829443E+03  0.10000000000E+01 0.  0.
<mgrwt>
<rscale>  0 0.12499877E+03</rscale>
<asrwt>0</asrwt>
<pdfrwt beam="2">  1        4 0.84816821E-03 0.12499877E+03</pdfrwt>
<pdfrwt beam="1">  1       -4 0.10900408E+00 0.12499877E+03</pdfrwt>
<totfact> 0.42356995E+03</totfact>
</mgrwt>
</event>
<event>
 5    1  0.3486589E-002  0.1249990E+03  0.7818608E-02  0.1235071E+00
         -4   -1    0    0    0  501 -0.00000000000E+00  0.00000000000E+00  0.88667519366E+01  0.89572423159E+01  0.12700000000E+01 0. -1.
          4   -1    0    0  501    0  0.00000000000E+00 -0.00000000000E+00 -0.43821540030E+03  0.43821724060E+03  0.12700000000E+01 0. -1.
         25    2    1    2    0    0  0.00000000000E+00  0.00000000000E+00 -0.42934864836E+03  0.44717448291E+03  0.12499902528E+03 0.  0.
    9000005    1    3    3    0    0  0.56044093432E+02 -0.25878606221E+02 -0.17988925172E+03  0.19018881553E+03  0.10000000000E+01 0.  0.
    9000005    1    3    3    0    0 -0.56044093432E+02  0.25878606221E+02 -0.24945939664E+03  0.25698566738E+03  0.10000000000E+01 0.  0.
<mgrwt>
<rscale>  0 0.12499903E+03</rscale>
<asrwt>0</asrwt>
<pdfrwt beam="2">  1        4 0.67424839E-01 0.12499903E+03</pdfrwt>
<pdfrwt beam="1">  1       -4 0.13712184E-02 0.12499903E+03</pdfrwt>
<totfact> 0.60210653E+03</totfact>
</mgrwt>
</event>
<event>
 5    1  0.3486589E-002  0.1250012E+03  0.7818608E-02  0.1235067E+00
          4   -1    0    0  501    0  0.00000000000E+00  0.00000000000E+00  0.29638400768E+02  0.29665597922E+02  0.12700000000E+01 0. -1.
         -4   -1    0    0    0  501 -0.00000000000E+00 -0.00000000000E+00 -0.13170865070E+03  0.13171477354E+03  0.12700000000E+01 0. -1.
         25    2    1    2    0    0  0.00000000000E+00  0.00000000000E+00 -0.10207024993E+03  0.16138037147E+03  0.12500115349E+03 0.  0.
    9000005    1    3    3    0    0  0.47776776024E+02  0.36943256630E+02 -0.30302213028E+02  0.67576983154E+02  0.10000000000E+01 0.  0.
    9000005    1    3    3    0    0 -0.47776776024E+02 -0.36943256630E+02 -0.71768036906E+02  0.93803388314E+02  0.10000000000E+01 0.  0.
<mgrwt>
<rscale>  0 0.12500115E+03</rscale>
<asrwt>0</asrwt>
<pdfrwt beam="1">  1        4 0.45623171E-02 0.12500115E+03</pdfrwt>
<pdfrwt beam="2">  1       -4 0.20265432E-01 0.12500115E+03</pdfrwt>
<totfact> 0.97074802E+03</totfact>
</mgrwt>
</event>
<event>
 5    1  0.3486589E-002  0.1250015E+03  0.7818608E-02  0.1235067E+00
          4   -1    0    0  501    0  0.00000000000E+00  0.00000000000E+00  0.71097877423E+01  0.72223252309E+01  0.12700000000E+01 0. -1.
         -4   -1    0    0    0  501 -0.00000000000E+00 -0.00000000000E+00 -0.54500457385E+03  0.54500605356E+03  0.12700000000E+01 0. -1.
         25    2    1    2    0    0  0.00000000000E+00  0.00000000000E+00 -0.53789478611E+03  0.55222837879E+03  0.12500152567E+03 0.  0.
    9000005    1    3    3    0    0  0.54715558545E+02  0.12235968379E+01 -0.13567585100E+03  0.14630183212E+03  0.10000000000E+01 0.  0.
    9000005    1    3    3    0    0 -0.54715558545E+02 -0.12235968379E+01 -0.40221893511E+03  0.40592654667E+03  0.10000000000E+01 0.  0.
<mgrwt>
<rscale>  0 0.12500153E+03</rscale>
<asrwt>0</asrwt>
<pdfrwt beam="1">  1        4 0.11025845E-02 0.12500153E+03</pdfrwt>
<pdfrwt beam="2">  1       -4 0.83855595E-01 0.12500153E+03</pdfrwt>
<totfact> 0.52027234E+03</totfact>
</mgrwt>
</event>
<event>
 5    1  0.3486589E-002  0.1250002E+03  0.7818608E-02  0.1235069E+00
          4   -1    0    0  501    0  0.00000000000E+00  0.00000000000E+00  0.30419700942E+03  0.30419966049E+03  0.12700000000E+01 0.  1.
         -4   -1    0    0    0  501 -0.00000000000E+00 -0.00000000000E+00 -0.12807115889E+02  0.12869930746E+02  0.12700000000E+01 0.  1.
         25    2    1    2    0    0  0.00000000000E+00  0.00000000000E+00  0.29138989353E+03  0.31706959123E+03  0.12500022253E+03 0.  0.
    9000005    1    3    3    0    0 -0.49900870065E+02  0.17967937711E+02  0.61861213433E+02  0.81490817557E+02  0.10000000000E+01 0.  0.
    9000005    1    3    3    0    0  0.49900870065E+02 -0.17967937711E+02  0.22952868010E+03  0.23557877367E+03  0.10000000000E+01 0.  0.
<mgrwt>
<rscale>  0 0.12500022E+03</rscale>
<asrwt>0</asrwt>
<pdfrwt beam="1">  1        4 0.46804574E-01 0.12500022E+03</pdfrwt>
<pdfrwt beam="2">  1       -4 0.19753614E-02 0.12500022E+03</pdfrwt>
<totfact> 0.73505656E+03</totfact>
</mgrwt>
</event>
<event>
 5    1  0.3486589E-002  0.1250040E+03  0.7818608E-02  0.1235063E+00
          4   -1    0    0  501    0  0.00000000000E+00  0.00000000000E+00  0.37239112428E+03  0.37239328988E+03  0.12700000000E+01 0.  1.
         -4   -1    0    0    0  501 -0.00000000000E+00 -0.00000000000E+00 -0.10449665823E+02  0.10526557643E+02  0.12700000000E+01 0.  1.
         25    2    1    2    0    0  0.00000000000E+00  0.00000000000E+00  0.36194145846E+03  0.38291984752E+03  0.12500396103E+03 0.  0.
    9000005    1    3    3    0    0  0.37258896272E+02  0.25545671856E+02  0.31324870010E+03  0.31649100274E+03  0.10000000000E+01 0.  0.
    9000005    1    3    3    0    0 -0.37258896272E+02 -0.25545671856E+02  0.48692758361E+02  0.66428844780E+02  0.10000000000E+01 0.  0.
<mgrwt>
<rscale>  0 0.12500396E+03</rscale>
<asrwt>0</asrwt>
<pdfrwt beam="1">  1        4 0.57297015E-01 0.12500396E+03</pdfrwt>
<pdfrwt beam="2">  1       -4 0.16137225E-02 0.12500396E+03</pdfrwt>
<totfact> 0.66242797E+03</totfact>
</mgrwt>
</event>
<event>
 5    1  0.3486589E-002  0.1249992E+03  0.7818608E-02  0.1235071E+00
          4   -1    0    0  501    0  0.00000000000E+00  0.00000000000E+00  0.45931949255E+02  0.45949503396E+02  0.12700000000E+01 0. -1.
         -4   -1    0    0    0  501 -0.00000000000E+00 -0.00000000000E+00 -0.85004600051E+02  0.85014086656E+02  0.12700000000E+01 0. -1.
         25    2    1    2    0    0  0.00000000000E+00  0.00000000000E+00 -0.39072650796E+02  0.13096359005E+03  0.12499915951E+03 0.  0.
    9000005    1    3    3    0    0 -0.25219335181E+02 -0.11034224989E+02 -0.78315219954E+02  0.83018327281E+02  0.10000000000E+01 0.  0.
    9000005    1    3    3    0    0  0.25219335181E+02  0.11034224989E+02  0.39242569157E+02  0.47945262771E+02  0.10000000000E+01 0.  0.
<mgrwt>
<rscale>  0 0.12499916E+03</rscale>
<asrwt>0</asrwt>
<pdfrwt beam="1">  1        4 0.70685338E-02 0.12499916E+03</pdfrwt>
<pdfrwt beam="2">  1       -4 0.13079711E-01 0.12499916E+03</pdfrwt>
<totfact> 0.10324066E+04</totfact>
</mgrwt>
</event>
<event>
 5    1  0.3486589E-002  0.1250005E+03  0.7818608E-02  0.1235069E+00
          4   -1    0    0  501    0  0.00000000000E+00  0.00000000000E+00  0.94633695898E+02  0.94642217320E+02  0.12700000000E+01 0.  1.
         -4   -1    0    0    0  501 -0.00000000000E+00 -0.00000000000E+00 -0.41257733106E+02  0.41277275117E+02  0.12700000000E+01 0.  1.
         25    2    1    2    0    0  0.00000000000E+00  0.00000000000E+00  0.53375962792E+02  0.13591949244E+03  0.12500046008E+03 0.  0.
    9000005    1    3    3    0    0  0.48638959484E+02  0.14703679154E+02  0.66243271294E+02  0.83493218600E+02  0.10000000000E+01 0.  0.
    9000005    1    3    3    0    0 -0.48638959484E+02 -0.14703679154E+02 -0.12867308503E+02  0.52426273837E+02  0.10000000000E+01 0.  0.
<mgrwt>
<rscale>  0 0.12500046E+03</rscale>
<asrwt>0</asrwt>
<pdfrwt beam="1">  1        4 0.14561189E-01 0.12500046E+03</pdfrwt>
<pdfrwt beam="2">  1       -4 0.63495023E-02 0.12500046E+03</pdfrwt>
<totfact> 0.10218621E+04</totfact>
</mgrwt>
</event>
<event>
 5    1  0.3486589E-002  0.1250003E+03  0.7818608E-02  0.1235069E+00
          4   -1    0    0  501    0  0.00000000000E+00  0.00000000000E+00  0.15974017838E+02  0.16024423419E+02  0.12700000000E+01 0.  1.
         -4   -1    0    0    0  501 -0.00000000000E+00 -0.00000000000E+00 -0.24410169100E+03  0.24410499472E+03  0.12700000000E+01 0.  1.
         25    2    1    2    0    0  0.00000000000E+00  0.00000000000E+00 -0.22812767316E+03  0.26012941814E+03  0.12500031568E+03 0.  0.
    9000005    1    3    3    0    0 -0.31197923574E+02  0.54093325542E+02 -0.10902128694E+03  0.12564250599E+03  0.10000000000E+01 0.  0.
    9000005    1    3    3    0    0  0.31197923574E+02 -0.54093325542E+02 -0.11910638621E+03  0.13448691215E+03  0.10000000000E+01 0.  0.
<mgrwt>
<rscale>  0 0.12500032E+03</rscale>
<asrwt>0</asrwt>
<pdfrwt beam="1">  1        4 0.24616729E-02 0.12500032E+03</pdfrwt>
<pdfrwt beam="2">  1       -4 0.37558235E-01 0.12500032E+03</pdfrwt>
<totfact> 0.80887335E+03</totfact>
</mgrwt>
</event>
<event>
 5    1  0.3486589E-002  0.1249996E+03  0.7818608E-02  0.1235070E+00
          4   -1    0    0  501    0  0.00000000000E+00  0.00000000000E+00  0.14701818848E+03  0.14702367375E+03  0.12700000000E+01 0.  1.
         -4   -1    0    0    0  501 -0.00000000000E+00 -0.00000000000E+00 -0.26548502733E+02  0.26578861852E+02  0.12700000000E+01 0.  1.
         25    2    1    2    0    0  0.00000000000E+00  0.00000000000E+00  0.12046968574E+03  0.17360253560E+03  0.12499958074E+03 0.  0.
    9000005    1    3    3    0    0 -0.42659372739E+02  0.40281398328E+02  0.30357003666E+02  0.66067850013E+02  0.10000000000E+01 0.  0.
    9000005    1    3    3    0    0  0.42659372739E+02 -0.40281398328E+02  0.90112682078E+02  0.10753468559E+03  0.10000000000E+01 0.  0.
<mgrwt>
<rscale>  0 0.12499958E+03</rscale>
<asrwt>0</asrwt>
<pdfrwt beam="1">  1        4 0.22620940E-01 0.12499958E+03</pdfrwt>
<pdfrwt beam="2">  1       -4 0.40871423E-02 0.12499958E+03</pdfrwt>
<totfact> 0.94782299E+03</totfact>
</mgrwt>
</event>
<event>
 5    1  0.3486589E-002  0.1250013E+03  0.7818608E-02  0.1235067E+00
          4   -1    0    0  501    0  0.00000000000E+00  0.00000000000E+00  0.41297978480E+03  0.41298173755E+03  0.12700000000E+01 0. -1.
         -4   -1    0    0    0  501 -0.00000000000E+00 -0.00000000000E+00 -0.94142797556E+01  0.94995559537E+01  0.12700000000E+01 0. -1.
         25    2    1    2    0    0  0.00000000000E+00  0.00000000000E+00  0.40356550504E+03  0.42248129351E+03  0.12500130600E+03 0.  0.
    9000005    1    3    3    0    0  0.25157543534E+02 -0.39152920706E+02  0.60820621249E+02  0.76589824164E+02  0.10000000000E+01 0.  0.
    9000005    1    3    3    0    0 -0.25157543534E+02  0.39152920706E+02  0.34274488379E+03  0.34589146934E+03  0.10000000000E+01 0.  0.
<mgrwt>
<rscale>  0 0.12500131E+03</rscale>
<asrwt>0</asrwt>
<pdfrwt beam="1">  1        4 0.63542041E-01 0.12500131E+03</pdfrwt>
<pdfrwt beam="2">  1       -4 0.14550611E-02 0.12500131E+03</pdfrwt>
<totfact> 0.62421691E+03</totfact>
</mgrwt>
</event>
<event>
 5    1  0.3486589E-002  0.1249946E+03  0.7818608E-02  0.1235078E+00
         -4   -1    0    0    0  501 -0.00000000000E+00  0.00000000000E+00  0.23718734840E+03  0.23719074843E+03  0.12700000000E+01 0.  1.
          4   -1    0    0  501    0  0.00000000000E+00 -0.00000000000E+00 -0.16439613686E+02  0.16488596002E+02  0.12700000000E+01 0.  1.
         25    2    1    2    0    0  0.00000000000E+00  0.00000000000E+00  0.22074773471E+03  0.25367934443E+03  0.12499458952E+03 0.  0.
    9000005    1    3    3    0    0  0.50653620686E+01  0.56734110367E+02  0.58214951705E+02  0.81451812589E+02  0.10000000000E+01 0.  0.
    9000005    1    3    3    0    0 -0.50653620686E+01 -0.56734110367E+02  0.16253278301E+03  0.17222753184E+03  0.10000000000E+01 0.  0.
<mgrwt>
<rscale>  0 0.12499459E+03</rscale>
<asrwt>0</asrwt>
<pdfrwt beam="2">  1        4 0.25332008E-02 0.12499459E+03</pdfrwt>
<pdfrwt beam="1">  1       -4 0.36494391E-01 0.12499459E+03</pdfrwt>
<totfact> 0.81811196E+03</totfact>
</mgrwt>
</event>
<event>
 5    1  0.3486589E-002  0.1250144E+03  0.7818608E-02  0.1235047E+00
          4   -1    0    0  501    0  0.00000000000E+00  0.00000000000E+00  0.52091464458E+03  0.52091619272E+03  0.12700000000E+01 0.  1.
         -4   -1    0    0    0  501 -0.00000000000E+00 -0.00000000000E+00 -0.74452252310E+01  0.75527662972E+01  0.12700000000E+01 0.  1.
         25    2    1    2    0    0  0.00000000000E+00  0.00000000000E+00  0.51346941935E+03  0.52846895902E+03  0.12501438333E+03 0.  0.
    9000005    1    3    3    0    0 -0.44183254980E+01  0.58178047847E+02  0.16202678134E+03  0.17221464724E+03  0.10000000000E+01 0.  0.
    9000005    1    3    3    0    0  0.44183254980E+01 -0.58178047847E+02  0.35144263801E+03  0.35625431178E+03  0.10000000000E+01 0.  0.
<mgrwt>
<rscale>  0 0.12501438E+03</rscale>
<asrwt>0</asrwt>
<pdfrwt beam="1">  1        4 0.80149116E-01 0.12501438E+03</pdfrwt>
<pdfrwt beam="2">  1       -4 0.11538106E-02 0.12501438E+03</pdfrwt>
<totfact> 0.53704281E+03</totfact>
</mgrwt>
</event>
<event>
 5    1  0.3486589E-002  0.1249989E+03  0.7818608E-02  0.1235071E+00
         -4   -1    0    0    0  501 -0.00000000000E+00  0.00000000000E+00  0.48436154696E+03  0.48436321194E+03  0.12700000000E+01 0. -1.
          4   -1    0    0  501    0  0.00000000000E+00 -0.00000000000E+00 -0.80129131375E+01  0.81129326971E+01  0.12700000000E+01 0. -1.
         25    2    1    2    0    0  0.00000000000E+00  0.00000000000E+00  0.47634863383E+03  0.49247614463E+03  0.12499892833E+03 0.  0.
    9000005    1    3    3    0    0  0.13294633376E+02  0.58528628915E+02  0.30673611320E+03  0.31255462053E+03  0.10000000000E+01 0.  0.
    9000005    1    3    3    0    0 -0.13294633376E+02 -0.58528628915E+02  0.16961252063E+03  0.17992152410E+03  0.10000000000E+01 0.  0.
<mgrwt>
<rscale>  0 0.12499893E+03</rscale>
<asrwt>0</asrwt>
<pdfrwt beam="2">  1        4 0.12405776E-02 0.12499893E+03</pdfrwt>
<pdfrwt beam="1">  1       -4 0.74524991E-01 0.12499893E+03</pdfrwt>
<totfact> 0.56454212E+03</totfact>
</mgrwt>
</event>
<event>
 5    1  0.3486589E-002  0.1249984E+03  0.7818608E-02  0.1235072E+00
         -4   -1    0    0    0  501 -0.00000000000E+00  0.00000000000E+00  0.34020808914E+03  0.34021045959E+03  0.12700000000E+01 0.  1.
          4   -1    0    0  501    0  0.00000000000E+00 -0.00000000000E+00 -0.11444113711E+02  0.11514366619E+02  0.12700000000E+01 0.  1.
         25    2    1    2    0    0  0.00000000000E+00  0.00000000000E+00  0.32876397543E+03  0.35172482621E+03  0.12499840732E+03 0.  0.
    9000005    1    3    3    0    0  0.42299810883E+02 -0.28336786790E+02  0.26633847400E+03  0.27116310630E+03  0.10000000000E+01 0.  0.
    9000005    1    3    3    0    0 -0.42299810883E+02  0.28336786790E+02  0.62425501435E+02  0.80561719916E+02  0.10000000000E+01 0.  0.
<mgrwt>
<rscale>  0 0.12499841E+03</rscale>
<asrwt>0</asrwt>
<pdfrwt beam="2">  1        4 0.17662194E-02 0.12499841E+03</pdfrwt>
<pdfrwt beam="1">  1       -4 0.52345289E-01 0.12499841E+03</pdfrwt>
<totfact> 0.69537671E+03</totfact>
</mgrwt>
</event>
<event>
 5    1  0.3486589E-002  0.1249995E+03  0.7818608E-02  0.1235070E+00
          4   -1    0    0  501    0  0.00000000000E+00  0.00000000000E+00  0.10363770180E+03  0.10364548295E+03  0.12700000000E+01 0. -1.
         -4   -1    0    0    0  501 -0.00000000000E+00 -0.00000000000E+00 -0.37671200907E+02  0.37692602428E+02  0.12700000000E+01 0. -1.
         25    2    1    2    0    0  0.00000000000E+00  0.00000000000E+00  0.65966500898E+02  0.14133808538E+03  0.12499950055E+03 0.  0.
    9000005    1    3    3    0    0  0.44680966811E+02  0.21698533074E+02 -0.98943941861E+01  0.50656827468E+02  0.10000000000E+01 0.  0.
    9000005    1    3    3    0    0 -0.44680966811E+02 -0.21698533074E+02  0.75860895084E+02  0.90681257908E+02  0.10000000000E+01 0.  0.
<mgrwt>
<rscale>  0 0.12499950E+03</rscale>
<asrwt>0</asrwt>
<pdfrwt beam="1">  1        4 0.15946507E-01 0.12499950E+03</pdfrwt>
<pdfrwt beam="2">  1       -4 0.57978142E-02 0.12499950E+03</pdfrwt>
<totfact> 0.10106042E+04</totfact>
</mgrwt>
</event>
<event>
 5    1  0.3486589E-002  0.1250008E+03  0.7818608E-02  0.1235068E+00
         -4   -1    0    0    0  501 -0.00000000000E+00  0.00000000000E+00  0.21227654596E+02  0.21265611198E+02  0.12700000000E+01 0.  1.
          4   -1    0    0  501    0  0.00000000000E+00 -0.00000000000E+00 -0.18381498757E+03  0.18381937481E+03  0.12700000000E+01 0.  1.
         25    2    1    2    0    0  0.00000000000E+00  0.00000000000E+00 -0.16258733297E+03  0.20508498601E+03  0.12500084256E+03 0.  0.
    9000005    1    3    3    0    0  0.19272319206E+02  0.55636756519E+02 -0.46940094592E+02  0.75307658600E+02  0.10000000000E+01 0.  0.
    9000005    1    3    3    0    0 -0.19272319206E+02 -0.55636756519E+02 -0.11564723838E+03  0.12977732741E+03  0.10000000000E+01 0.  0.
<mgrwt>
<rscale>  0 0.12500084E+03</rscale>
<asrwt>0</asrwt>
<pdfrwt beam="2">  1        4 0.28282485E-01 0.12500084E+03</pdfrwt>
<pdfrwt beam="1">  1       -4 0.32690504E-02 0.12500084E+03</pdfrwt>
<totfact> 0.89283229E+03</totfact>
</mgrwt>
</event>
<event>
 5    1  0.3486589E-002  0.1249927E+03  0.7818608E-02  0.1235081E+00
         -4   -1    0    0    0  501 -0.00000000000E+00  0.00000000000E+00  0.33912969946E+01  0.36212974617E+01  0.12700000000E+01 0.  1.
          4   -1    0    0  501    0  0.00000000000E+00 -0.00000000000E+00 -0.11137067539E+04  0.11137074780E+04  0.12700000000E+01 0.  1.
         25    2    1    2    0    0  0.00000000000E+00  0.00000000000E+00 -0.11103154569E+04  0.11173287754E+04  0.12499271443E+03 0.  0.
    9000005    1    3    3    0    0  0.26693491987E+02 -0.27530418159E+02 -0.99620572277E+03  0.99694398464E+03  0.10000000000E+01 0.  0.
    9000005    1    3    3    0    0 -0.26693491987E+02  0.27530418159E+02 -0.11410973410E+03  0.12038479080E+03  0.10000000000E+01 0.  0.
<mgrwt>
<rscale>  0 0.12499271E+03</rscale>
<asrwt>0</asrwt>
<pdfrwt beam="2">  1        4 0.17135697E+00 0.12499271E+03</pdfrwt>
<pdfrwt beam="1">  1       -4 0.53948693E-03 0.12499271E+03</pdfrwt>
<totfact> 0.26986029E+03</totfact>
</mgrwt>
</event>
<event>
 5    1  0.3486589E-002  0.1250010E+03  0.7818608E-02  0.1235068E+00
          4   -1    0    0  501    0  0.00000000000E+00  0.00000000000E+00  0.19819478407E+02  0.19860126493E+02  0.12700000000E+01 0. -1.
         -4   -1    0    0    0  501 -0.00000000000E+00 -0.00000000000E+00 -0.19685005989E+03  0.19685415662E+03  0.12700000000E+01 0. -1.
         25    2    1    2    0    0  0.00000000000E+00  0.00000000000E+00 -0.17703058148E+03  0.21671428311E+03  0.12500101490E+03 0.  0.
    9000005    1    3    3    0    0 -0.46275260416E+02 -0.26864927463E+02 -0.32546320369E+02  0.62636946156E+02  0.10000000000E+01 0.  0.
    9000005    1    3    3    0    0  0.46275260416E+02  0.26864927463E+02 -0.14448426111E+03  0.15407733695E+03  0.10000000000E+01 0.  0.
<mgrwt>
<rscale>  0 0.12500101E+03</rscale>
<asrwt>0</asrwt>
<pdfrwt beam="1">  1        4 0.30525926E-02 0.12500101E+03</pdfrwt>
<pdfrwt beam="2">  1       -4 0.30288065E-01 0.12500101E+03</pdfrwt>
<totfact> 0.87388975E+03</totfact>
</mgrwt>
</event>
<event>
 5    1  0.3486589E-002  0.1249990E+03  0.7818608E-02  0.1235071E+00
         -4   -1    0    0    0  501 -0.00000000000E+00  0.00000000000E+00  0.17799326625E+03  0.17799779698E+03  0.12700000000E+01 0. -1.
          4   -1    0    0  501    0  0.00000000000E+00 -0.00000000000E+00 -0.21922520587E+02  0.21959276147E+02  0.12700000000E+01 0. -1.
         25    2    1    2    0    0  0.00000000000E+00  0.00000000000E+00  0.15607074566E+03  0.19995707312E+03  0.12499901376E+03 0.  0.
    9000005    1    3    3    0    0  0.56581902782E+02 -0.22446065605E+02  0.55421075125E+02  0.82327596537E+02  0.10000000000E+01 0.  0.
    9000005    1    3    3    0    0 -0.56581902782E+02  0.22446065605E+02  0.10064967053E+03  0.11762947659E+03  0.10000000000E+01 0.  0.
<mgrwt>
<rscale>  0 0.12499901E+03</rscale>
<asrwt>0</asrwt>
<pdfrwt beam="2">  1        4 0.33758711E-02 0.12499901E+03</pdfrwt>
<pdfrwt beam="1">  1       -4 0.27386757E-01 0.12499901E+03</pdfrwt>
<totfact> 0.90144734E+03</totfact>
</mgrwt>
</event>
<event>
 5    1  0.3486589E-002  0.1250143E+03  0.7818608E-02  0.1235047E+00
          4   -1    0    0  501    0  0.00000000000E+00  0.00000000000E+00  0.77637489767E+02  0.77647876450E+02  0.12700000000E+01 0. -1.
         -4   -1    0    0    0  501 -0.00000000000E+00 -0.00000000000E+00 -0.50303713869E+02  0.50319742935E+02  0.12700000000E+01 0. -1.
         25    2    1    2    0    0  0.00000000000E+00  0.00000000000E+00  0.27333775897E+02  0.12796761939E+03  0.12501430441E+03 0.  0.
    9000005    1    3    3    0    0 -0.58945164028E+02  0.11608525914E+02  0.31303360137E+02  0.67750945322E+02  0.10000000000E+01 0.  0.
    9000005    1    3    3    0    0  0.58945164028E+02 -0.11608525914E+02 -0.39695842393E+01  0.60216674063E+02  0.10000000000E+01 0.  0.
<mgrwt>
<rscale>  0 0.12501430E+03</rscale>
<asrwt>0</asrwt>
<pdfrwt beam="1">  1        4 0.11946261E-01 0.12501430E+03</pdfrwt>
<pdfrwt beam="2">  1       -4 0.77410650E-02 0.12501430E+03</pdfrwt>
<totfact> 0.10384833E+04</totfact>
</mgrwt>
</event>
<event>
 5    1  0.3486589E-002  0.1250020E+03  0.7818608E-02  0.1235066E+00
         -4   -1    0    0    0  501 -0.00000000000E+00  0.00000000000E+00  0.50140764295E+03  0.50140925132E+03  0.12700000000E+01 0.  1.
          4   -1    0    0  501    0  0.00000000000E+00 -0.00000000000E+00 -0.77374316325E+01  0.78409660290E+01  0.12700000000E+01 0.  1.
         25    2    1    2    0    0  0.00000000000E+00  0.00000000000E+00  0.49367021132E+03  0.50925021735E+03  0.12500202529E+03 0.  0.
    9000005    1    3    3    0    0  0.46079403335E+02 -0.29519428233E+02  0.36977542509E+03  0.37380419079E+03  0.10000000000E+01 0.  0.
    9000005    1    3    3    0    0 -0.46079403335E+02  0.29519428233E+02  0.12389478623E+03  0.13544602655E+03  0.10000000000E+01 0.  0.
<mgrwt>
<rscale>  0 0.12500203E+03</rscale>
<asrwt>0</asrwt>
<pdfrwt beam="2">  1        4 0.11984616E-02 0.12500203E+03</pdfrwt>
<pdfrwt beam="1">  1       -4 0.77147749E-01 0.12500203E+03</pdfrwt>
<totfact> 0.55151271E+03</totfact>
</mgrwt>
</event>
<event>
 5    1  0.3486589E-002  0.1250004E+03  0.7818608E-02  0.1235069E+00
         -4   -1    0    0    0  501 -0.00000000000E+00  0.00000000000E+00  0.11686088960E+04  0.11686095861E+04  0.12700000000E+01 0. -1.
          4   -1    0    0  501    0  0.00000000000E+00 -0.00000000000E+00 -0.32213256640E+01  0.34626346954E+01  0.12700000000E+01 0. -1.
         25    2    1    2    0    0  0.00000000000E+00  0.00000000000E+00  0.11653875703E+04  0.11720722208E+04  0.12500040661E+03 0.  0.
    9000005    1    3    3    0    0  0.40264994744E+02  0.29366728184E+01  0.10299640892E+04  0.10307555088E+04  0.10000000000E+01 0.  0.
    9000005    1    3    3    0    0 -0.40264994744E+02 -0.29366728184E+01  0.13542348116E+03  0.14131671203E+03  0.10000000000E+01 0.  0.
<mgrwt>
<rscale>  0 0.12500041E+03</rscale>
<asrwt>0</asrwt>
<pdfrwt beam="2">  1        4 0.51420404E-03 0.12500041E+03</pdfrwt>
<pdfrwt beam="1">  1       -4 0.17980454E+00 0.12500041E+03</pdfrwt>
<totfact> 0.25455467E+03</totfact>
</mgrwt>
</event>
<event>
 5    1  0.3486589E-002  0.1250207E+03  0.7818608E-02  0.1235037E+00
         -4   -1    0    0    0  501 -0.00000000000E+00  0.00000000000E+00  0.99502192664E+01  0.10030940307E+02  0.12700000000E+01 0.  1.
          4   -1    0    0  501    0  0.00000000000E+00 -0.00000000000E+00 -0.39104076849E+03  0.39104283080E+03  0.12700000000E+01 0.  1.
         25    2    1    2    0    0  0.00000000000E+00  0.00000000000E+00 -0.38109054922E+03  0.40107377111E+03  0.12502065095E+03 0.  0.
    9000005    1    3    3    0    0  0.32310311502E+02  0.53499874123E+02 -0.18865270832E+03  0.19873861506E+03  0.10000000000E+01 0.  0.
    9000005    1    3    3    0    0 -0.32310311502E+02 -0.53499874123E+02 -0.19243784090E+03  0.20233515605E+03  0.10000000000E+01 0.  0.
<mgrwt>
<rscale>  0 0.12502065E+03</rscale>
<asrwt>0</asrwt>
<pdfrwt beam="2">  1        4 0.60166474E-01 0.12502065E+03</pdfrwt>
<pdfrwt beam="1">  1       -4 0.15371712E-02 0.12502065E+03</pdfrwt>
<totfact> 0.64419122E+03</totfact>
</mgrwt>
</event>
<event>
 5    1  0.3486589E-002  0.1250001E+03  0.7818608E-02  0.1235069E+00
         -4   -1    0    0    0  501 -0.00000000000E+00  0.00000000000E+00  0.45116380650E+02  0.45134251993E+02  0.12700000000E+01 0.  1.
          4   -1    0    0  501    0  0.00000000000E+00 -0.00000000000E+00 -0.86542118175E+02  0.86551436257E+02  0.12700000000E+01 0.  1.
         25    2    1    2    0    0  0.00000000000E+00  0.00000000000E+00 -0.41425737525E+02  0.13168568825E+03  0.12500011504E+03 0.  0.
    9000005    1    3    3    0    0 -0.24040238885E+02 -0.60159016825E+01 -0.81149588406E+02  0.84855052043E+02  0.10000000000E+01 0.  0.
    9000005    1    3    3    0    0  0.24040238885E+02  0.60159016825E+01  0.39723850881E+02  0.46830636207E+02  0.10000000000E+01 0.  0.
<mgrwt>
<rscale>  0 0.12500012E+03</rscale>
<asrwt>0</asrwt>
<pdfrwt beam="2">  1        4 0.13316263E-01 0.12500012E+03</pdfrwt>
<pdfrwt beam="1">  1       -4 0.69430732E-02 0.12500012E+03</pdfrwt>
<totfact> 0.10308385E+04</totfact>
</mgrwt>
</event>
<event>
 5    1  0.3486589E-002  0.1250001E+03  0.7818608E-02  0.1235069E+00
         -4   -1    0    0    0  501 -0.00000000000E+00  0.00000000000E+00  0.12005732443E+03  0.12006404145E+03  0.12700000000E+01 0.  1.
          4   -1    0    0  501    0  0.00000000000E+00 -0.00000000000E+00 -0.32516591243E+02  0.32541382977E+02  0.12700000000E+01 0.  1.
         25    2    1    2    0    0  0.00000000000E+00  0.00000000000E+00  0.87540733188E+02  0.15260542443E+03  0.12500014239E+03 0.  0.
    9000005    1    3    3    0    0 -0.46214388506E+02  0.26472628891E+02  0.38600515392E+01  0.53408517890E+02  0.10000000000E+01 0.  0.
    9000005    1    3    3    0    0  0.46214388506E+02 -0.26472628891E+02  0.83680681649E+02  0.99196906537E+02  0.10000000000E+01 0.  0.
<mgrwt>
<rscale>  0 0.12500014E+03</rscale>
<asrwt>0</asrwt>
<pdfrwt beam="2">  1        4 0.50049761E-02 0.12500014E+03</pdfrwt>
<pdfrwt beam="1">  1       -4 0.18472782E-01 0.12500014E+03</pdfrwt>
<totfact> 0.98786542E+03</totfact>
</mgrwt>
</event>
<event>
 5    1  0.3486589E-002  0.1249859E+03  0.7818608E-02  0.1235091E+00
          4   -1    0    0  501    0  0.00000000000E+00  0.00000000000E+00  0.15212947881E+02  0.15265866606E+02  0.12700000000E+01 0.  1.
         -4   -1    0    0    0  501 -0.00000000000E+00 -0.00000000000E+00 -0.25621346372E+03  0.25621661127E+03  0.12700000000E+01 0.  1.
         25    2    1    2    0    0  0.00000000000E+00  0.00000000000E+00 -0.24100051584E+03  0.27148247788E+03  0.12498594785E+03 0.  0.
    9000005    1    3    3    0    0 -0.13560159546E+02  0.38248154056E+02 -0.17295082444E+02  0.44123906132E+02  0.10000000000E+01 0.  0.
    9000005    1    3    3    0    0  0.13560159546E+02 -0.38248154056E+02 -0.22370543339E+03  0.22735857174E+03  0.10000000000E+01 0.  0.
<mgrwt>
<rscale>  0 0.12498595E+03</rscale>
<asrwt>0</asrwt>
<pdfrwt beam="1">  1        4 0.23447665E-02 0.12498595E+03</pdfrwt>
<pdfrwt beam="2">  1       -4 0.39421766E-01 0.12498595E+03</pdfrwt>
<totfact> 0.79345981E+03</totfact>
</mgrwt>
</event>
<event>
 5    1  0.3486589E-002  0.1249991E+03  0.7818608E-02  0.1235071E+00
         -4   -1    0    0    0  501 -0.00000000000E+00  0.00000000000E+00  0.83777960793E+03  0.83778057054E+03  0.12700000000E+01 0. -1.
          4   -1    0    0  501    0  0.00000000000E+00 -0.00000000000E+00 -0.45750879416E+01  0.47480869488E+01  0.12700000000E+01 0. -1.
         25    2    1    2    0    0  0.00000000000E+00  0.00000000000E+00  0.83320451999E+03  0.84252865748E+03  0.12499906620E+03 0.  0.
    9000005    1    3    3    0    0  0.39078264834E+02  0.44714644668E+02  0.54776633604E+03  0.55097683175E+03  0.10000000000E+01 0.  0.
    9000005    1    3    3    0    0 -0.39078264834E+02 -0.44714644668E+02  0.28543818395E+03  0.29155182573E+03  0.10000000000E+01 0.  0.
<mgrwt>
<rscale>  0 0.12499907E+03</rscale>
<asrwt>0</asrwt>
<pdfrwt beam="2">  1        4 0.71724253E-03 0.12499907E+03</pdfrwt>
<pdfrwt beam="1">  1       -4 0.12890234E+00 0.12499907E+03</pdfrwt>
<totfact> 0.36435823E+03</totfact>
</mgrwt>
</event>
<event>
 5    1  0.3486589E-002  0.1249916E+03  0.7818608E-02  0.1235082E+00
         -4   -1    0    0    0  501 -0.00000000000E+00  0.00000000000E+00  0.35455300625E+02  0.35478038875E+02  0.12700000000E+01 0. -1.
          4   -1    0    0  501    0  0.00000000000E+00 -0.00000000000E+00 -0.11009749336E+03  0.11010481799E+03  0.12700000000E+01 0. -1.
         25    2    1    2    0    0  0.00000000000E+00  0.00000000000E+00 -0.74642192739E+02  0.14558285687E+03  0.12499164483E+03 0.  0.
    9000005    1    3    3    0    0 -0.42440201865E+02 -0.42479022943E+02 -0.17177826138E+02  0.62463716150E+02  0.10000000000E+01 0.  0.
    9000005    1    3    3    0    0  0.42440201865E+02  0.42479022943E+02 -0.57464366601E+02  0.83119140716E+02  0.10000000000E+01 0.  0.
<mgrwt>
<rscale>  0 0.12499164E+03</rscale>
<asrwt>0</asrwt>
<pdfrwt beam="2">  1        4 0.16940388E-01 0.12499164E+03</pdfrwt>
<pdfrwt beam="1">  1       -4 0.54569742E-02 0.12499164E+03</pdfrwt>
<totfact> 0.10021045E+04</totfact>
</mgrwt>
</event>
<event>
 5    1  0.3486589E-002  0.1249990E+03  0.7818608E-02  0.1235071E+00
          4   -1    0    0  501    0  0.00000000000E+00  0.00000000000E+00  0.68263567094E+03  0.68263685231E+03  0.12700000000E+01 0. -1.
         -4   -1    0    0    0  501 -0.00000000000E+00 -0.00000000000E+00 -0.56505435539E+01  0.57915060610E+01  0.12700000000E+01 0. -1.
         25    2    1    2    0    0  0.00000000000E+00  0.00000000000E+00  0.67698512738E+03  0.68842835837E+03  0.12499896766E+03 0.  0.
    9000005    1    3    3    0    0 -0.55250144125E+02  0.11398399098E+02  0.48654869957E+03  0.48980928838E+03  0.10000000000E+01 0.  0.
    9000005    1    3    3    0    0  0.55250144125E+02 -0.11398399098E+02  0.19043642781E+03  0.19861906999E+03  0.10000000000E+01 0.  0.
<mgrwt>
<rscale>  0 0.12499897E+03</rscale>
<asrwt>0</asrwt>
<pdfrwt beam="1">  1        4 0.10503181E+00 0.12499897E+03</pdfrwt>
<pdfrwt beam="2">  1       -4 0.88024847E-03 0.12499897E+03</pdfrwt>
<totfact> 0.43705607E+03</totfact>
</mgrwt>
</event>
<event>
 5    1  0.3486589E-002  0.1249993E+03  0.7818608E-02  0.1235070E+00
         -4   -1    0    0    0  501 -0.00000000000E+00  0.00000000000E+00  0.62001112004E+02  0.62014117665E+02  0.12700000000E+01 0.  1.
          4   -1    0    0  501    0  0.00000000000E+00 -0.00000000000E+00 -0.62976177252E+02  0.62988981586E+02  0.12700000000E+01 0.  1.
         25    2    1    2    0    0  0.00000000000E+00  0.00000000000E+00 -0.97506524745E+00  0.12500309925E+03  0.12499929628E+03 0.  0.
    9000005    1    3    3    0    0 -0.26617165719E+02  0.12833413452E+01  0.56039274812E+02  0.62060621954E+02  0.10000000000E+01 0.  0.
    9000005    1    3    3    0    0  0.26617165719E+02 -0.12833413452E+01 -0.57014340059E+02  0.62942477297E+02  0.10000000000E+01 0.  0.
<mgrwt>
<rscale>  0 0.12499930E+03</rscale>
<asrwt>0</asrwt>
<pdfrwt beam="2">  1        4 0.96906281E-02 0.12499930E+03</pdfrwt>
<pdfrwt beam="1">  1       -4 0.95406180E-02 0.12499930E+03</pdfrwt>
<totfact> 0.10452961E+04</totfact>
</mgrwt>
</event>
<event>
 5    1  0.3486589E-002  0.1249983E+03  0.7818608E-02  0.1235072E+00
         -4   -1    0    0    0  501 -0.00000000000E+00  0.00000000000E+00  0.66824208763E+02  0.66836275905E+02  0.12700000000E+01 0. -1.
          4   -1    0    0  501    0  0.00000000000E+00 -0.00000000000E+00 -0.58429780913E+02  0.58443581320E+02  0.12700000000E+01 0. -1.
         25    2    1    2    0    0  0.00000000000E+00  0.00000000000E+00  0.83944278503E+01  0.12527985722E+03  0.12499830482E+03 0.  0.
    9000005    1    3    3    0    0  0.14361966760E+02  0.46540722757E+02 -0.35042461799E+02  0.60010658161E+02  0.10000000000E+01 0.  0.
    9000005    1    3    3    0    0 -0.14361966760E+02 -0.46540722757E+02  0.43436889650E+02  0.65269199064E+02  0.10000000000E+01 0.  0.
<mgrwt>
<rscale>  0 0.12499830E+03</rscale>
<asrwt>0</asrwt>
<pdfrwt beam="2">  1        4 0.89911869E-02 0.12499830E+03</pdfrwt>
<pdfrwt beam="1">  1       -4 0.10282637E-01 0.12499830E+03</pdfrwt>
<totfact> 0.10447187E+04</totfact>
</mgrwt>
</event>
<event>
 5    1  0.3486589E-002  0.1250027E+03  0.7818608E-02  0.1235065E+00
          4   -1    0    0  501    0  0.00000000000E+00  0.00000000000E+00  0.29414089325E+02  0.29441493692E+02  0.12700000000E+01 0.  1.
         -4   -1    0    0    0  501 -0.00000000000E+00 -0.00000000000E+00 -0.13271536868E+03  0.13272144508E+03  0.12700000000E+01 0.  1.
         25    2    1    2    0    0  0.00000000000E+00  0.00000000000E+00 -0.10330127935E+03  0.16216293877E+03  0.12500265755E+03 0.  0.
    9000005    1    3    3    0    0 -0.12333366981E+02  0.40025561490E+01 -0.13095743362E+03  0.13160160264E+03  0.10000000000E+01 0.  0.
    9000005    1    3    3    0    0  0.12333366981E+02 -0.40025561490E+01  0.27656154270E+02  0.30561336126E+02  0.10000000000E+01 0.  0.
<mgrwt>
<rscale>  0 0.12500266E+03</rscale>
<asrwt>0</asrwt>
<pdfrwt beam="1">  1        4 0.45278200E-02 0.12500266E+03</pdfrwt>
<pdfrwt beam="2">  1       -4 0.20420324E-01 0.12500266E+03</pdfrwt>
<totfact> 0.96921613E+03</totfact>
</mgrwt>
</event>
<event>
 5    1  0.3486589E-002  0.1249988E+03  0.7818608E-02  0.1235071E+00
         -4   -1    0    0    0  501 -0.00000000000E+00  0.00000000000E+00  0.60548748392E+02  0.60562065947E+02  0.12700000000E+01 0.  1.
          4   -1    0    0  501    0  0.00000000000E+00 -0.00000000000E+00 -0.64486190450E+02  0.64498695015E+02  0.12700000000E+01 0.  1.
         25    2    1    2    0    0  0.00000000000E+00  0.00000000000E+00 -0.39374420579E+01  0.12506076096E+03  0.12499876192E+03 0.  0.
    9000005    1    3    3    0    0 -0.11445766929E+02  0.38528674896E+02 -0.49843350969E+02  0.64037676455E+02  0.10000000000E+01 0.  0.
    9000005    1    3    3    0    0  0.11445766929E+02 -0.38528674896E+02  0.45905908911E+02  0.61023084508E+02  0.10000000000E+01 0.  0.
<mgrwt>
<rscale>  0 0.12499876E+03</rscale>
<asrwt>0</asrwt>
<pdfrwt beam="2">  1        4 0.99229387E-02 0.12499876E+03</pdfrwt>
<pdfrwt beam="1">  1       -4 0.93171784E-02 0.12499876E+03</pdfrwt>
<totfact> 0.10451835E+04</totfact>
</mgrwt>
</event>
<event>
 5    1  0.3486589E-002  0.1250035E+03  0.7818608E-02  0.1235064E+00
         -4   -1    0    0    0  501 -0.00000000000E+00  0.00000000000E+00  0.14944009698E+02  0.14997877378E+02  0.12700000000E+01 0.  1.
          4   -1    0    0  501    0  0.00000000000E+00 -0.00000000000E+00 -0.26088109618E+03  0.26088418742E+03  0.12700000000E+01 0.  1.
         25    2    1    2    0    0  0.00000000000E+00  0.00000000000E+00 -0.24593708649E+03  0.27588206480E+03  0.12500345263E+03 0.  0.
    9000005    1    3    3    0    0  0.45637991544E+02 -0.32850025681E+02 -0.18314774513E+03  0.19158822251E+03  0.10000000000E+01 0.  0.
    9000005    1    3    3    0    0 -0.45637991544E+02  0.32850025681E+02 -0.62789341358E+02  0.84293842288E+02  0.10000000000E+01 0.  0.
<mgrwt>
<rscale>  0 0.12500345E+03</rscale>
<asrwt>0</asrwt>
<pdfrwt beam="2">  1        4 0.40139932E-01 0.12500345E+03</pdfrwt>
<pdfrwt beam="1">  1       -4 0.23034600E-02 0.12500345E+03</pdfrwt>
<totfact> 0.78721259E+03</totfact>
</mgrwt>
</event>
<event>
 5    1  0.3486589E-002  0.1250048E+03  0.7818608E-02  0.1235062E+00
          4   -1    0    0  501    0  0.00000000000E+00  0.00000000000E+00  0.82749998986E+01  0.83718888742E+01  0.12700000000E+01 0.  1.
         -4   -1    0    0    0  501 -0.00000000000E+00 -0.00000000000E+00 -0.46924536908E+03  0.46924708768E+03  0.12700000000E+01 0.  1.
         25    2    1    2    0    0  0.00000000000E+00  0.00000000000E+00 -0.46097036918E+03  0.47761897656E+03  0.12500482194E+03 0.  0.
    9000005    1    3    3    0    0 -0.27927366010E+02 -0.47022534830E+02 -0.11494170731E+03  0.12729356871E+03  0.10000000000E+01 0.  0.
    9000005    1    3    3    0    0  0.27927366010E+02  0.47022534830E+02 -0.34602866187E+03  0.35032540785E+03  0.10000000000E+01 0.  0.
<mgrwt>
<rscale>  0 0.12500482E+03</rscale>
<asrwt>0</asrwt>
<pdfrwt beam="1">  1        4 0.12806625E-02 0.12500482E+03</pdfrwt>
<pdfrwt beam="2">  1       -4 0.72199159E-01 0.12500482E+03</pdfrwt>
<totfact> 0.57637551E+03</totfact>
</mgrwt>
</event>
<event>
 5    1  0.3486589E-002  0.1250003E+03  0.7818608E-02  0.1235069E+00
          4   -1    0    0  501    0  0.00000000000E+00  0.00000000000E+00  0.65814006151E+02  0.65826258481E+02  0.12700000000E+01 0.  1.
         -4   -1    0    0    0  501 -0.00000000000E+00 -0.00000000000E+00 -0.59328556381E+02  0.59342147773E+02  0.12700000000E+01 0.  1.
         25    2    1    2    0    0  0.00000000000E+00  0.00000000000E+00  0.64854497697E+01  0.12516840625E+03  0.12500027546E+03 0.  0.
    9000005    1    3    3    0    0 -0.51614899249E+02 -0.18341487458E+02 -0.26876948873E+02  0.61023588615E+02  0.10000000000E+01 0.  0.
    9000005    1    3    3    0    0  0.51614899249E+02  0.18341487458E+02  0.33362398643E+02  0.64144817639E+02  0.10000000000E+01 0.  0.
<mgrwt>
<rscale>  0 0.12500028E+03</rscale>
<asrwt>0</asrwt>
<pdfrwt beam="1">  1        4 0.10127220E-01 0.12500028E+03</pdfrwt>
<pdfrwt beam="2">  1       -4 0.91294582E-02 0.12500028E+03</pdfrwt>
<totfact> 0.10449141E+04</totfact>
</mgrwt>
</event>
<event>
 5    1  0.3486589E-002  0.1249986E+03  0.7818608E-02  0.1235071E+00
          4   -1    0    0  501    0  0.00000000000E+00  0.00000000000E+00  0.54752644615E+03  0.54752791904E+03  0.12700000000E+01 0. -1.
         -4   -1    0    0    0  501 -0.00000000000E+00 -0.00000000000E+00 -0.70761829844E+01  0.71892465272E+01  0.12700000000E+01 0. -1.
         25    2    1    2    0    0  0.00000000000E+00  0.00000000000E+00  0.54045026316E+03  0.55471716557E+03  0.12499858729E+03 0.  0.
    9000005    1    3    3    0    0 -0.60183457946E+02  0.15863021712E+02  0.29512330965E+03  0.30161639870E+03  0.10000000000E+01 0.  0.
    9000005    1    3    3    0    0  0.60183457946E+02 -0.15863021712E+02  0.24532695351E+03  0.25310076686E+03  0.10000000000E+01 0.  0.
<mgrwt>
<rscale>  0 0.12499859E+03</rscale>
<asrwt>0</asrwt>
<pdfrwt beam="1">  1        4 0.84243648E-01 0.12499859E+03</pdfrwt>
<pdfrwt beam="2">  1       -4 0.10974540E-02 0.12499859E+03</pdfrwt>
<totfact> 0.51858323E+03</totfact>
</mgrwt>
</event>
<event>
 5    1  0.3486589E-002  0.1250004E+03  0.7818608E-02  0.1235069E+00
         -4   -1    0    0    0  501 -0.00000000000E+00  0.00000000000E+00  0.11747028087E+02  0.11815480052E+02  0.12700000000E+01 0. -1.
          4   -1    0    0  501    0  0.00000000000E+00 -0.00000000000E+00 -0.33149730157E+03  0.33149973431E+03  0.12700000000E+01 0. -1.
         25    2    1    2    0    0  0.00000000000E+00  0.00000000000E+00 -0.31975027348E+03  0.34331521436E+03  0.12500039608E+03 0.  0.
    9000005    1    3    3    0    0  0.39518372085E+02  0.47899749310E+02 -0.14061288739E+03  0.15371750654E+03  0.10000000000E+01 0.  0.
    9000005    1    3    3    0    0 -0.39518372085E+02 -0.47899749310E+02 -0.17913738609E+03  0.18959770782E+03  0.10000000000E+01 0.  0.
<mgrwt>
<rscale>  0 0.12500040E+03</rscale>
<asrwt>0</asrwt>
<pdfrwt beam="2">  1        4 0.51005030E-01 0.12500040E+03</pdfrwt>
<pdfrwt beam="1">  1       -4 0.18126880E-02 0.12500040E+03</pdfrwt>
<totfact> 0.70465664E+03</totfact>
</mgrwt>
</event>
<event>
 5    1  0.3486589E-002  0.1249989E+03  0.7818608E-02  0.1235071E+00
          4   -1    0    0  501    0  0.00000000000E+00  0.00000000000E+00  0.42297056031E+02  0.42316118075E+02  0.12700000000E+01 0.  1.
         -4   -1    0    0    0  501 -0.00000000000E+00 -0.00000000000E+00 -0.92306868661E+02  0.92315604867E+02  0.12700000000E+01 0.  1.
         25    2    1    2    0    0  0.00000000000E+00  0.00000000000E+00 -0.50009812630E+02  0.13463172294E+03  0.12499887785E+03 0.  0.
    9000005    1    3    3    0    0  0.16755700482E+02 -0.40872980094E+02  0.22603562814E+02  0.49631391803E+02  0.10000000000E+01 0.  0.
    9000005    1    3    3    0    0 -0.16755700482E+02  0.40872980094E+02 -0.72613375443E+02  0.85000331139E+02  0.10000000000E+01 0.  0.
<mgrwt>
<rscale>  0 0.12499888E+03</rscale>
<asrwt>0</asrwt>
<pdfrwt beam="1">  1        4 0.65093777E-02 0.12499888E+03</pdfrwt>
<pdfrwt beam="2">  1       -4 0.14203195E-01 0.12499888E+03</pdfrwt>
<totfact> 0.10246098E+04</totfact>
</mgrwt>
</event>
<event>
 5    1  0.3486589E-002  0.1250008E+03  0.7818608E-02  0.1235068E+00
         -4   -1    0    0    0  501 -0.00000000000E+00  0.00000000000E+00  0.13746765951E+04  0.13746771818E+04  0.12700000000E+01 0. -1.
          4   -1    0    0  501    0  0.00000000000E+00 -0.00000000000E+00 -0.26990972686E+01  0.29829559275E+01  0.12700000000E+01 0. -1.
         25    2    1    2    0    0  0.00000000000E+00  0.00000000000E+00  0.13719774979E+04  0.13776601377E+04  0.12500080153E+03 0.  0.
    9000005    1    3    3    0    0 -0.30890062761E+02 -0.30115924444E+02  0.11842809666E+04  0.11850669064E+04  0.10000000000E+01 0.  0.
    9000005    1    3    3    0    0  0.30890062761E+02  0.30115924444E+02  0.18769653128E+03  0.19259323128E+03  0.10000000000E+01 0.  0.
<mgrwt>
<rscale>  0 0.12500080E+03</rscale>
<asrwt>0</asrwt>
<pdfrwt beam="2">  1        4 0.43712641E-03 0.12500080E+03</pdfrwt>
<pdfrwt beam="1">  1       -4 0.21151046E+00 0.12500080E+03</pdfrwt>
<totfact> 0.20465108E+03</totfact>
</mgrwt>
</event>
<event>
 5    1  0.3486589E-002  0.1249988E+03  0.7818608E-02  0.1235071E+00
         -4   -1    0    0    0  501 -0.00000000000E+00  0.00000000000E+00  0.10052482647E+03  0.10053284855E+03  0.12700000000E+01 0. -1.
          4   -1    0    0  501    0  0.00000000000E+00 -0.00000000000E+00 -0.38837833684E+02  0.38858592683E+02  0.12700000000E+01 0. -1.
         25    2    1    2    0    0  0.00000000000E+00  0.00000000000E+00  0.61686992789E+02  0.13939144123E+03  0.12499875523E+03 0.  0.
    9000005    1    3    3    0    0  0.18676470562E+02 -0.13209879391E+02  0.95693242489E+02  0.98394654958E+02  0.10000000000E+01 0.  0.
    9000005    1    3    3    0    0 -0.18676470562E+02  0.13209879391E+02 -0.34006249700E+02  0.40996786275E+02  0.10000000000E+01 0.  0.
<mgrwt>
<rscale>  0 0.12499876E+03</rscale>
<asrwt>0</asrwt>
<pdfrwt beam="2">  1        4 0.59772653E-02 0.12499876E+03</pdfrwt>
<pdfrwt beam="1">  1       -4 0.15467572E-01 0.12499876E+03</pdfrwt>
<totfact> 0.10146499E+04</totfact>
</mgrwt>
</event>
<event>
 5    1  0.3486589E-002  0.1249988E+03  0.7818608E-02  0.1235071E+00
         -4   -1    0    0    0  501 -0.00000000000E+00  0.00000000000E+00  0.13100862553E+02  0.13162275625E+02  0.12700000000E+01 0.  1.
          4   -1    0    0  501    0  0.00000000000E+00 -0.00000000000E+00 -0.29740166136E+03  0.29740437300E+03  0.12700000000E+01 0.  1.
         25    2    1    2    0    0  0.00000000000E+00  0.00000000000E+00 -0.28430079881E+03  0.31056664863E+03  0.12499879614E+03 0.  0.
    9000005    1    3    3    0    0 -0.21308238801E+02  0.39896666226E+02 -0.35014702108E+02  0.57208516678E+02  0.10000000000E+01 0.  0.
    9000005    1    3    3    0    0  0.21308238801E+02 -0.39896666226E+02 -0.24928609670E+03  0.25335813195E+03  0.10000000000E+01 0.  0.
<mgrwt>
<rscale>  0 0.12499880E+03</rscale>
<asrwt>0</asrwt>
<pdfrwt beam="2">  1        4 0.45759029E-01 0.12499880E+03</pdfrwt>
<pdfrwt beam="1">  1       -4 0.20204502E-02 0.12499880E+03</pdfrwt>
<totfact> 0.74294197E+03</totfact>
</mgrwt>
</event>
<event>
 5    1  0.3486589E-002  0.1249976E+03  0.7818608E-02  0.1235073E+00
          4   -1    0    0  501    0  0.00000000000E+00  0.00000000000E+00  0.45849112057E+02  0.45866697902E+02  0.12700000000E+01 0. -1.
         -4   -1    0    0    0  501 -0.00000000000E+00 -0.00000000000E+00 -0.85155981269E+02  0.85165451011E+02  0.12700000000E+01 0. -1.
         25    2    1    2    0    0  0.00000000000E+00  0.00000000000E+00 -0.39306869212E+02  0.13103214891E+03  0.12499757630E+03 0.  0.
    9000005    1    3    3    0    0 -0.12402807539E+02  0.28099455385E+02 -0.76702171551E+02  0.82629487160E+02  0.10000000000E+01 0.  0.
    9000005    1    3    3    0    0  0.12402807539E+02 -0.28099455385E+02  0.37395302338E+02  0.48402661753E+02  0.10000000000E+01 0.  0.
<mgrwt>
<rscale>  0 0.12499758E+03</rscale>
<asrwt>0</asrwt>
<pdfrwt beam="1">  1        4 0.70557907E-02 0.12499758E+03</pdfrwt>
<pdfrwt beam="2">  1       -4 0.13103001E-01 0.12499758E+03</pdfrwt>
<totfact> 0.10322965E+04</totfact>
</mgrwt>
</event>
<event>
 5    1  0.3486589E-002  0.1250017E+03  0.7818608E-02  0.1235067E+00
          4   -1    0    0  501    0  0.00000000000E+00  0.00000000000E+00  0.90415733208E+03  0.90415822401E+03  0.12700000000E+01 0.  1.
         -4   -1    0    0    0  501 -0.00000000000E+00 -0.00000000000E+00 -0.42261975408E+01  0.44128953822E+01  0.12700000000E+01 0.  1.
         25    2    1    2    0    0  0.00000000000E+00  0.00000000000E+00  0.89993113454E+03  0.90857111940E+03  0.12500172835E+03 0.  0.
    9000005    1    3    3    0    0  0.28898757729E+02  0.26149136444E+02  0.94891956765E+02  0.10258849348E+03  0.10000000000E+01 0.  0.
    9000005    1    3    3    0    0 -0.28898757729E+02 -0.26149136444E+02  0.80503917777E+03  0.80598262592E+03  0.10000000000E+01 0.  0.
<mgrwt>
<rscale>  0 0.12500173E+03</rscale>
<asrwt>0</asrwt>
<pdfrwt beam="1">  1        4 0.13911563E+00 0.12500173E+03</pdfrwt>
<pdfrwt beam="2">  1       -4 0.66461385E-03 0.12500173E+03</pdfrwt>
<totfact> 0.33832545E+03</totfact>
</mgrwt>
</event>
<event>
 5    1  0.3486589E-002  0.1249992E+03  0.7818608E-02  0.1235070E+00
          4   -1    0    0  501    0  0.00000000000E+00  0.00000000000E+00  0.14527211915E+02  0.14582619313E+02  0.12700000000E+01 0. -1.
         -4   -1    0    0    0  501 -0.00000000000E+00 -0.00000000000E+00 -0.26831993027E+03  0.26832293581E+03  0.12700000000E+01 0. -1.
         25    2    1    2    0    0  0.00000000000E+00  0.00000000000E+00 -0.25379271836E+03  0.28290555512E+03  0.12499923691E+03 0.  0.
    9000005    1    3    3    0    0  0.43871229958E+02  0.44429633901E+02 -0.12111502095E+03  0.13626637695E+03  0.10000000000E+01 0.  0.
    9000005    1    3    3    0    0 -0.43871229958E+02 -0.44429633901E+02 -0.13267769740E+03  0.14663917817E+03  0.10000000000E+01 0.  0.
<mgrwt>
<rscale>  0 0.12499924E+03</rscale>
<asrwt>0</asrwt>
<pdfrwt beam="1">  1        4 0.22394492E-02 0.12499924E+03</pdfrwt>
<pdfrwt beam="2">  1       -4 0.41284479E-01 0.12499924E+03</pdfrwt>
<totfact> 0.77795741E+03</totfact>
</mgrwt>
</event>
<event>
 5    1  0.3486589E-002  0.1250008E+03  0.7818608E-02  0.1235068E+00
          4   -1    0    0  501    0  0.00000000000E+00  0.00000000000E+00  0.57010643154E+01  0.58408076777E+01  0.12700000000E+01 0.  1.
         -4   -1    0    0    0  501 -0.00000000000E+00 -0.00000000000E+00 -0.67675113106E+03  0.67675232271E+03  0.12700000000E+01 0.  1.
         25    2    1    2    0    0  0.00000000000E+00  0.00000000000E+00 -0.67105006674E+03  0.68259313039E+03  0.12500075829E+03 0.  0.
    9000005    1    3    3    0    0 -0.49431001660E+02  0.30071873863E+02 -0.20658331251E+03  0.21453532700E+03  0.10000000000E+01 0.  0.
    9000005    1    3    3    0    0  0.49431001660E+02 -0.30071873863E+02 -0.46446675423E+03  0.46805780339E+03  0.10000000000E+01 0.  0.
<mgrwt>
<rscale>  0 0.12500076E+03</rscale>
<asrwt>0</asrwt>
<pdfrwt beam="1">  1        4 0.88792851E-03 0.12500076E+03</pdfrwt>
<pdfrwt beam="2">  1       -4 0.10412634E+00 0.12500076E+03</pdfrwt>
<totfact> 0.44020940E+03</totfact>
</mgrwt>
</event>
<event>
 5    1  0.3486589E-002  0.1250026E+03  0.7818608E-02  0.1235065E+00
         -4   -1    0    0    0  501 -0.00000000000E+00  0.00000000000E+00  0.18088250772E+02  0.18132780151E+02  0.12700000000E+01 0.  1.
          4   -1    0    0  501    0  0.00000000000E+00 -0.00000000000E+00 -0.21565203800E+03  0.21565577756E+03  0.12700000000E+01 0.  1.
         25    2    1    2    0    0  0.00000000000E+00  0.00000000000E+00 -0.19756378723E+03  0.23378855771E+03  0.12500255874E+03 0.  0.
    9000005    1    3    3    0    0 -0.11844209936E+02  0.52362970919E+01  0.15560401811E+02  0.20268947204E+02  0.10000000000E+01 0.  0.
    9000005    1    3    3    0    0  0.11844209936E+02 -0.52362970919E+01 -0.21312418904E+03  0.21351961050E+03  0.10000000000E+01 0.  0.
<mgrwt>
<rscale>  0 0.12500256E+03</rscale>
<asrwt>0</asrwt>
<pdfrwt beam="2">  1        4 0.33180948E-01 0.12500256E+03</pdfrwt>
<pdfrwt beam="1">  1       -4 0.27865210E-02 0.12500256E+03</pdfrwt>
<totfact> 0.84726400E+03</totfact>
</mgrwt>
</event>
<event>
 5    1  0.3486589E-002  0.1249997E+03  0.7818608E-02  0.1235070E+00
          4   -1    0    0  501    0  0.00000000000E+00  0.00000000000E+00  0.14131293442E+03  0.14131864115E+03  0.12700000000E+01 0. -1.
         -4   -1    0    0    0  501 -0.00000000000E+00 -0.00000000000E+00 -0.27621572198E+02  0.27650753167E+02  0.12700000000E+01 0. -1.
         25    2    1    2    0    0  0.00000000000E+00  0.00000000000E+00  0.11369136222E+03  0.16896939431E+03  0.12499972148E+03 0.  0.
    9000005    1    3    3    0    0 -0.15670757608E+02 -0.60131574017E+02  0.65797316682E+02  0.90507821322E+02  0.10000000000E+01 0.  0.
    9000005    1    3    3    0    0  0.15670757608E+02  0.60131574017E+02  0.47894045542E+02  0.78461572991E+02  0.10000000000E+01 0.  0.
<mgrwt>
<rscale>  0 0.12499972E+03</rscale>
<asrwt>0</asrwt>
<pdfrwt beam="1">  1        4 0.21743135E-01 0.12499972E+03</pdfrwt>
<pdfrwt beam="2">  1       -4 0.42521563E-02 0.12499972E+03</pdfrwt>
<totfact> 0.95641486E+03</totfact>
</mgrwt>
</event>
<event>
 5    1  0.3486589E-002  0.1249973E+03  0.7818608E-02  0.1235074E+00
          4   -1    0    0  501    0  0.00000000000E+00  0.00000000000E+00  0.75366381361E+01  0.76428930644E+01  0.12700000000E+01 0. -1.
         -4   -1    0    0    0  501 -0.00000000000E+00 -0.00000000000E+00 -0.51454390493E+03  0.51454547224E+03  0.12700000000E+01 0. -1.
         25    2    1    2    0    0  0.00000000000E+00  0.00000000000E+00 -0.50700726680E+03  0.52218836530E+03  0.12499728107E+03 0.  0.
    9000005    1    3    3    0    0  0.52023861026E+02 -0.29244291507E+02 -0.33091547491E+03  0.33625550142E+03  0.10000000000E+01 0.  0.
    9000005    1    3    3    0    0 -0.52023861026E+02  0.29244291507E+02 -0.17609179188E+03  0.18593286388E+03  0.10000000000E+01 0.  0.
<mgrwt>
<rscale>  0 0.12499728E+03</rscale>
<asrwt>0</asrwt>
<pdfrwt beam="1">  1        4 0.11677772E-02 0.12499728E+03</pdfrwt>
<pdfrwt beam="2">  1       -4 0.79168868E-01 0.12499728E+03</pdfrwt>
<totfact> 0.54186252E+03</totfact>
</mgrwt>
</event>
<event>
 5    1  0.3486589E-002  0.1250015E+03  0.7818608E-02  0.1235067E+00
         -4   -1    0    0    0  501 -0.00000000000E+00  0.00000000000E+00  0.30075372643E+03  0.30075640785E+03  0.12700000000E+01 0. -1.
          4   -1    0    0  501    0  0.00000000000E+00 -0.00000000000E+00 -0.12954729519E+02  0.13016832062E+02  0.12700000000E+01 0. -1.
         25    2    1    2    0    0  0.00000000000E+00  0.00000000000E+00  0.28779899691E+03  0.31377323991E+03  0.12500153383E+03 0.  0.
    9000005    1    3    3    0    0  0.43998202160E+01  0.44292201838E+02  0.33790111351E+02  0.55892120972E+02  0.10000000000E+01 0.  0.
    9000005    1    3    3    0    0 -0.43998202160E+01 -0.44292201838E+02  0.25400888556E+03  0.25788111894E+03  0.10000000000E+01 0.  0.
<mgrwt>
<rscale>  0 0.12500153E+03</rscale>
<asrwt>0</asrwt>
<pdfrwt beam="2">  1        4 0.19980187E-02 0.12500153E+03</pdfrwt>
<pdfrwt beam="1">  1       -4 0.46274788E-01 0.12500153E+03</pdfrwt>
<totfact> 0.73900372E+03</totfact>
</mgrwt>
</event>
<event>
 5    1  0.3486589E-002  0.1250026E+03  0.7818608E-02  0.1235065E+00
          4   -1    0    0  501    0  0.00000000000E+00  0.00000000000E+00  0.43492592715E+02  0.43511131002E+02  0.12700000000E+01 0.  1.
         -4   -1    0    0    0  501 -0.00000000000E+00 -0.00000000000E+00 -0.89775645651E+02  0.89784628150E+02  0.12700000000E+01 0.  1.
         25    2    1    2    0    0  0.00000000000E+00  0.00000000000E+00 -0.46283052936E+02  0.13329575915E+03  0.12500255365E+03 0.  0.
    9000005    1    3    3    0    0  0.49248513080E+02 -0.38217654038E+02 -0.27838828604E+02  0.68278880328E+02  0.10000000000E+01 0.  0.
    9000005    1    3    3    0    0 -0.49248513080E+02  0.38217654038E+02 -0.18444224333E+02  0.65016878824E+02  0.10000000000E+01 0.  0.
<mgrwt>
<rscale>  0 0.12500255E+03</rscale>
<asrwt>0</asrwt>
<pdfrwt beam="1">  1        4 0.66932851E-02 0.12500255E+03</pdfrwt>
<pdfrwt beam="2">  1       -4 0.13813755E-01 0.12500255E+03</pdfrwt>
<totfact> 0.10273526E+04</totfact>
</mgrwt>
</event>
<event>
 5    1  0.3486589E-002  0.1249991E+03  0.7818608E-02  0.1235071E+00
          4   -1    0    0  501    0  0.00000000000E+00  0.00000000000E+00  0.19858424223E+02  0.19898992754E+02  0.12700000000E+01 0.  1.
         -4   -1    0    0    0  501 -0.00000000000E+00 -0.00000000000E+00 -0.19645862893E+03  0.19646273382E+03  0.12700000000E+01 0.  1.
         25    2    1    2    0    0  0.00000000000E+00  0.00000000000E+00 -0.17660020471E+03  0.21636172658E+03  0.12499905770E+03 0.  0.
    9000005    1    3    3    0    0 -0.26480862145E+02  0.53760718210E+02 -0.57641044824E+02  0.83156123832E+02  0.10000000000E+01 0.  0.
    9000005    1    3    3    0    0  0.26480862145E+02 -0.53760718210E+02 -0.11895915989E+03  0.13320560275E+03  0.10000000000E+01 0.  0.
<mgrwt>
<rscale>  0 0.12499906E+03</rscale>
<asrwt>0</asrwt>
<pdfrwt beam="1">  1        4 0.30585787E-02 0.12499906E+03</pdfrwt>
<pdfrwt beam="2">  1       -4 0.30227840E-01 0.12499906E+03</pdfrwt>
<totfact> 0.87449195E+03</totfact>
</mgrwt>
</event>
<event>
 5    1  0.3486589E-002  0.1250011E+03  0.7818608E-02  0.1235067E+00
         -4   -1    0    0    0  501 -0.00000000000E+00  0.00000000000E+00  0.66389609222E+01  0.67593418412E+01  0.12700000000E+01 0.  1.
          4   -1    0    0  501    0  0.00000000000E+00 -0.00000000000E+00 -0.58298581365E+03  0.58298719696E+03  0.12700000000E+01 0.  1.
         25    2    1    2    0    0  0.00000000000E+00  0.00000000000E+00 -0.57634685273E+03  0.58974653880E+03  0.12500114150E+03 0.  0.
    9000005    1    3    3    0    0 -0.62082534214E+01  0.47792784699E+02 -0.10048351233E+03  0.11144787539E+03  0.10000000000E+01 0.  0.
    9000005    1    3    3    0    0  0.62082534214E+01 -0.47792784699E+02 -0.47586334040E+03  0.47829866341E+03  0.10000000000E+01 0.  0.
<mgrwt>
<rscale>  0 0.12500114E+03</rscale>
<asrwt>0</asrwt>
<pdfrwt beam="2">  1        4 0.89699452E-01 0.12500114E+03</pdfrwt>
<pdfrwt beam="1">  1       -4 0.10307455E-02 0.12500114E+03</pdfrwt>
<totfact> 0.49520078E+03</totfact>
</mgrwt>
</event>
<event>
 5    1  0.3486589E-002  0.1249983E+03  0.7818608E-02  0.1235072E+00
         -4   -1    0    0    0  501 -0.00000000000E+00  0.00000000000E+00  0.61148206750E+03  0.61148338635E+03  0.12700000000E+01 0. -1.
          4   -1    0    0  501    0  0.00000000000E+00 -0.00000000000E+00 -0.63235299512E+01  0.64498008531E+01  0.12700000000E+01 0. -1.
         25    2    1    2    0    0  0.00000000000E+00  0.00000000000E+00  0.60515853755E+03  0.61793318720E+03  0.12499827307E+03 0.  0.
    9000005    1    3    3    0    0  0.48274725329E+01  0.53577928865E+02  0.14537465196E+03  0.15501189756E+03  0.10000000000E+01 0.  0.
    9000005    1    3    3    0    0 -0.48274725329E+01 -0.53577928865E+02  0.45978388559E+03  0.46292128964E+03  0.10000000000E+01 0.  0.
<mgrwt>
<rscale>  0 0.12499827E+03</rscale>
<asrwt>0</asrwt>
<pdfrwt beam="2">  1        4 0.98266516E-03 0.12499827E+03</pdfrwt>
<pdfrwt beam="1">  1       -4 0.94083997E-01 0.12499827E+03</pdfrwt>
<totfact> 0.47756635E+03</totfact>
</mgrwt>
</event>
<event>
 5    1  0.3486589E-002  0.1250000E+03  0.7818608E-02  0.1235069E+00
          4   -1    0    0  501    0  0.00000000000E+00  0.00000000000E+00  0.31828663801E+01  0.34268846484E+01  0.12700000000E+01 0.  1.
         -4   -1    0    0    0  501 -0.00000000000E+00 -0.00000000000E+00 -0.11817211572E+04  0.11817218396E+04  0.12700000000E+01 0.  1.
         25    2    1    2    0    0  0.00000000000E+00  0.00000000000E+00 -0.11785382908E+04  0.11851487242E+04  0.12499998298E+03 0.  0.
    9000005    1    3    3    0    0  0.38067662344E+02 -0.46665644091E+02 -0.43106681897E+03  0.43525444475E+03  0.10000000000E+01 0.  0.
    9000005    1    3    3    0    0 -0.38067662344E+02  0.46665644091E+02 -0.74747147181E+03  0.74989427950E+03  0.10000000000E+01 0.  0.
<mgrwt>
<rscale>  0 0.12499998E+03</rscale>
<asrwt>0</asrwt>
<pdfrwt beam="1">  1        4 0.50849582E-03 0.12499998E+03</pdfrwt>
<pdfrwt beam="2">  1       -4 0.18182174E+00 0.12499998E+03</pdfrwt>
<totfact> 0.25104889E+03</totfact>
</mgrwt>
</event>
<event>
 5    1  0.3486589E-002  0.1249982E+03  0.7818608E-02  0.1235072E+00
         -4   -1    0    0    0  501 -0.00000000000E+00  0.00000000000E+00  0.12820540823E+03  0.12821169838E+03  0.12700000000E+01 0. -1.
          4   -1    0    0  501    0  0.00000000000E+00 -0.00000000000E+00 -0.30447527857E+02  0.30474002898E+02  0.12700000000E+01 0. -1.
         25    2    1    2    0    0  0.00000000000E+00  0.00000000000E+00  0.97757880377E+02  0.15868570127E+03  0.12499819444E+03 0.  0.
    9000005    1    3    3    0    0  0.16604870349E+02 -0.32973861207E+02  0.11288686985E+03  0.11877475585E+03  0.10000000000E+01 0.  0.
    9000005    1    3    3    0    0 -0.16604870349E+02  0.32973861207E+02 -0.15128989474E+02  0.39910945425E+02  0.10000000000E+01 0.  0.
<mgrwt>
<rscale>  0 0.12499819E+03</rscale>
<asrwt>0</asrwt>
<pdfrwt beam="2">  1        4 0.46867555E-02 0.12499819E+03</pdfrwt>
<pdfrwt beam="1">  1       -4 0.19726429E-01 0.12499819E+03</pdfrwt>
<totfact> 0.97600733E+03</totfact>
</mgrwt>
</event>
<event>
 5    1  0.3486589E-002  0.1250042E+03  0.7818608E-02  0.1235063E+00
         -4   -1    0    0    0  501 -0.00000000000E+00  0.00000000000E+00  0.20067309573E+02  0.20107456664E+02  0.12700000000E+01 0. -1.
          4   -1    0    0  501    0  0.00000000000E+00 -0.00000000000E+00 -0.19443366834E+03  0.19443781599E+03  0.12700000000E+01 0. -1.
         25    2    1    2    0    0  0.00000000000E+00  0.00000000000E+00 -0.17436635877E+03  0.21454527265E+03  0.12500418771E+03 0.  0.
    9000005    1    3    3    0    0  0.23723965438E+02  0.41294184379E+02 -0.17731652596E+02  0.50827627363E+02  0.10000000000E+01 0.  0.
    9000005    1    3    3    0    0 -0.23723965438E+02 -0.41294184379E+02 -0.15663470618E+03  0.16371764529E+03  0.10000000000E+01 0.  0.
<mgrwt>
<rscale>  0 0.12500419E+03</rscale>
<asrwt>0</asrwt>
<pdfrwt beam="2">  1        4 0.29916278E-01 0.12500419E+03</pdfrwt>
<pdfrwt beam="1">  1       -4 0.30906858E-02 0.12500419E+03</pdfrwt>
<totfact> 0.87730707E+03</totfact>
</mgrwt>
</event>
<event>
 5    1  0.3486589E-002  0.1249976E+03  0.7818608E-02  0.1235073E+00
         -4   -1    0    0    0  501 -0.00000000000E+00  0.00000000000E+00  0.27014413000E+01  0.29850770673E+01  0.12700000000E+01 0. -1.
          4   -1    0    0  501    0  0.00000000000E+00 -0.00000000000E+00 -0.13735264623E+04  0.13735270494E+04  0.12700000000E+01 0. -1.
         25    2    1    2    0    0  0.00000000000E+00  0.00000000000E+00 -0.13708250210E+04  0.13765121265E+04  0.12499758484E+03 0.  0.
    9000005    1    3    3    0    0 -0.18776941650E+02 -0.22535892064E+02 -0.77770551142E+02  0.83124596804E+02  0.10000000000E+01 0.  0.
    9000005    1    3    3    0    0  0.18776941650E+02  0.22535892064E+02 -0.12930544698E+04  0.12933875297E+04  0.10000000000E+01 0.  0.
<mgrwt>
<rscale>  0 0.12499758E+03</rscale>
<asrwt>0</asrwt>
<pdfrwt beam="2">  1        4 0.21133310E+00 0.12499758E+03</pdfrwt>
<pdfrwt beam="1">  1       -4 0.43747075E-03 0.12499758E+03</pdfrwt>
<totfact> 0.20491783E+03</totfact>
</mgrwt>
</event>
<event>
 5    1  0.3486589E-002  0.1249996E+03  0.7818608E-02  0.1235070E+00
          4   -1    0    0  501    0  0.00000000000E+00  0.00000000000E+00  0.99571980094E+02  0.99580078931E+02  0.12700000000E+01 0.  1.
         -4   -1    0    0    0  501 -0.00000000000E+00 -0.00000000000E+00 -0.39210192370E+02  0.39230754335E+02  0.12700000000E+01 0.  1.
         25    2    1    2    0    0  0.00000000000E+00  0.00000000000E+00  0.60361787724E+02  0.13881083327E+03  0.12499960806E+03 0.  0.
    9000005    1    3    3    0    0 -0.31435385578E+02 -0.16392428401E+02 -0.26967073366E+02  0.44554665539E+02  0.10000000000E+01 0.  0.
    9000005    1    3    3    0    0  0.31435385578E+02  0.16392428401E+02  0.87328861090E+02  0.94256167727E+02  0.10000000000E+01 0.  0.
<mgrwt>
<rscale>  0 0.12499961E+03</rscale>
<asrwt>0</asrwt>
<pdfrwt beam="1">  1        4 0.15320971E-01 0.12499961E+03</pdfrwt>
<pdfrwt beam="2">  1       -4 0.60345420E-02 0.12499961E+03</pdfrwt>
<totfact> 0.10158381E+04</totfact>
</mgrwt>
</event>
<event>
 4    1  0.3486589E-002  0.1258063E+03  0.7818608E-02  0.1233815E+00
         -4   -1    0    0    0  501 -0.00000000000E+00  0.00000000000E+00  0.18355497815E+03  0.18355937161E+03  0.12700000000E+01 0.  1.
          4   -1    0    0  501    0  0.00000000000E+00 -0.00000000000E+00 -0.21533163139E+02  0.21570582161E+02  0.12700000000E+01 0.  1.
    9000005    1    1    2    0    0 -0.50272829023E+02  0.29789782579E+02  0.11893654048E+03  0.13252052348E+03  0.10000000000E+01 0.  0.
    9000005    1    1    2    0    0  0.50272829023E+02 -0.29789782579E+02  0.43085274537E+02  0.72609430283E+02  0.10000000000E+01 0.  0.
<mgrwt>
<rscale>  0 0.12580632E+03</rscale>
<asrwt>0</asrwt>
<pdfrwt beam="2">  1        4 0.33160104E-02 0.12580632E+03</pdfrwt>
<pdfrwt beam="1">  1       -4 0.28242446E-01 0.12580632E+03</pdfrwt>
<totfact> 0.87686282E+03</totfact>
</mgrwt>
</event>
<event>
 5    1  0.3486589E-002  0.1250007E+03  0.7818608E-02  0.1235068E+00
         -4   -1    0    0    0  501 -0.00000000000E+00  0.00000000000E+00  0.39092300748E+02  0.39112924690E+02  0.12700000000E+01 0. -1.
          4   -1    0    0  501    0  0.00000000000E+00 -0.00000000000E+00 -0.99873947854E+02  0.99882022206E+02  0.12700000000E+01 0. -1.
         25    2    1    2    0    0  0.00000000000E+00  0.00000000000E+00 -0.60781647106E+02  0.13899494690E+03  0.12500074655E+03 0.  0.
    9000005    1    3    3    0    0  0.36864436071E+02 -0.21089062848E+02 -0.81365848959E+02  0.91788542833E+02  0.10000000000E+01 0.  0.
    9000005    1    3    3    0    0 -0.36864436071E+02  0.21089062848E+02  0.20584201852E+02  0.47206404063E+02  0.10000000000E+01 0.  0.
<mgrwt>
<rscale>  0 0.12500075E+03</rscale>
<asrwt>0</asrwt>
<pdfrwt beam="2">  1        4 0.15367430E-01 0.12500075E+03</pdfrwt>
<pdfrwt beam="1">  1       -4 0.60164077E-02 0.12500075E+03</pdfrwt>
<totfact> 0.10154288E+04</totfact>
</mgrwt>
</event>
<event>
 5    1  0.3486589E-002  0.1249997E+03  0.7818608E-02  0.1235070E+00
          4   -1    0    0  501    0  0.00000000000E+00  0.00000000000E+00  0.36156749620E+02  0.36179047017E+02  0.12700000000E+01 0.  1.
         -4   -1    0    0    0  501 -0.00000000000E+00 -0.00000000000E+00 -0.10797667711E+03  0.10798414560E+03  0.12700000000E+01 0.  1.
         25    2    1    2    0    0  0.00000000000E+00  0.00000000000E+00 -0.71819927493E+02  0.14416319261E+03  0.12499969648E+03 0.  0.
    9000005    1    3    3    0    0 -0.12932663547E+02 -0.24264778543E+02 -0.10063099080E+03  0.10432463550E+03  0.10000000000E+01 0.  0.
    9000005    1    3    3    0    0  0.12932663547E+02  0.24264778543E+02  0.28811063303E+02  0.39838557112E+02  0.10000000000E+01 0.  0.
<mgrwt>
<rscale>  0 0.12499970E+03</rscale>
<asrwt>0</asrwt>
<pdfrwt beam="1">  1        4 0.55648666E-02 0.12499970E+03</pdfrwt>
<pdfrwt beam="2">  1       -4 0.16614086E-01 0.12499970E+03</pdfrwt>
<totfact> 0.10048087E+04</totfact>
</mgrwt>
</event>
<event>
 5    1  0.3486589E-002  0.1250241E+03  0.7818608E-02  0.1235032E+00
          4   -1    0    0  501    0  0.00000000000E+00  0.00000000000E+00  0.92000976372E+02  0.92009741622E+02  0.12700000000E+01 0. -1.
         -4   -1    0    0    0  501 -0.00000000000E+00 -0.00000000000E+00 -0.42454852787E+02  0.42473844012E+02  0.12700000000E+01 0. -1.
         25    2    1    2    0    0  0.00000000000E+00  0.00000000000E+00  0.49546123585E+02  0.13448358563E+03  0.12502406345E+03 0.  0.
    9000005    1    3    3    0    0  0.32102384624E+02 -0.40959791891E+02 -0.12465443096E+02  0.53522471186E+02  0.10000000000E+01 0.  0.
    9000005    1    3    3    0    0 -0.32102384624E+02  0.40959791891E+02  0.62011566682E+02  0.80961114448E+02  0.10000000000E+01 0.  0.
<mgrwt>
<rscale>  0 0.12502406E+03</rscale>
<asrwt>0</asrwt>
<pdfrwt beam="1">  1        4 0.14156132E-01 0.12502406E+03</pdfrwt>
<pdfrwt beam="2">  1       -4 0.65336509E-02 0.12502406E+03</pdfrwt>
<totfact> 0.10243407E+04</totfact>
</mgrwt>
</event>
<event>
 5    1  0.3486589E-002  0.1250010E+03  0.7818608E-02  0.1235068E+00
         -4   -1    0    0    0  501 -0.00000000000E+00  0.00000000000E+00  0.19269544853E+04  0.19269549038E+04  0.12700000000E+01 0. -1.
          4   -1    0    0  501    0  0.00000000000E+00 -0.00000000000E+00 -0.18278276246E+01  0.22257254605E+01  0.12700000000E+01 0. -1.
         25    2    1    2    0    0  0.00000000000E+00  0.00000000000E+00  0.19251266577E+04  0.19291806293E+04  0.12500100904E+03 0.  0.
    9000005    1    3    3    0    0 -0.66677477856E+01  0.96085264070E+01  0.19099895207E+04  0.19100255893E+04  0.10000000000E+01 0.  0.
    9000005    1    3    3    0    0  0.66677477856E+01 -0.96085264070E+01  0.15137137002E+02  0.19155039986E+02  0.10000000000E+01 0.  0.
<mgrwt>
<rscale>  0 0.12500101E+03</rscale>
<asrwt>0</asrwt>
<pdfrwt beam="2">  1        4 0.31184419E-03 0.12500101E+03</pdfrwt>
<pdfrwt beam="1">  1       -4 0.29648497E+00 0.12500101E+03</pdfrwt>
<totfact> 0.10813817E+03</totfact>
</mgrwt>
</event>
<event>
 5    1  0.3486589E-002  0.1250105E+03  0.7818608E-02  0.1235053E+00
         -4   -1    0    0    0  501 -0.00000000000E+00  0.00000000000E+00  0.19004006606E+03  0.19004430959E+03  0.12700000000E+01 0. -1.
          4   -1    0    0  501    0  0.00000000000E+00 -0.00000000000E+00 -0.20534224222E+02  0.20573460195E+02  0.12700000000E+01 0. -1.
         25    2    1    2    0    0  0.00000000000E+00  0.00000000000E+00  0.16950584184E+03  0.21061776979E+03  0.12501045769E+03 0.  0.
    9000005    1    3    3    0    0  0.26003683808E+02  0.55937756744E+02  0.10165807149E+03  0.11891420311E+03  0.10000000000E+01 0.  0.
    9000005    1    3    3    0    0 -0.26003683808E+02 -0.55937756744E+02  0.67847770349E+02  0.91703566683E+02  0.10000000000E+01 0.  0.
<mgrwt>
<rscale>  0 0.12501046E+03</rscale>
<asrwt>0</asrwt>
<pdfrwt beam="2">  1        4 0.31624558E-02 0.12501046E+03</pdfrwt>
<pdfrwt beam="1">  1       -4 0.29240279E-01 0.12501046E+03</pdfrwt>
<totfact> 0.88354431E+03</totfact>
</mgrwt>
</event>
<event>
 5    1  0.3486589E-002  0.1249998E+03  0.7818608E-02  0.1235070E+00
          4   -1    0    0  501    0  0.00000000000E+00  0.00000000000E+00  0.10389974700E+02  0.10467305015E+02  0.12700000000E+01 0. -1.
         -4   -1    0    0    0  501 -0.00000000000E+00 -0.00000000000E+00 -0.37448997680E+03  0.37449213025E+03  0.12700000000E+01 0. -1.
         25    2    1    2    0    0  0.00000000000E+00  0.00000000000E+00 -0.36410000210E+03  0.38495943527E+03  0.12499982110E+03 0.  0.
    9000005    1    3    3    0    0  0.21140705939E+02  0.49616377918E+02 -0.84831359457E+02  0.10052897071E+03  0.10000000000E+01 0.  0.
    9000005    1    3    3    0    0 -0.21140705939E+02 -0.49616377918E+02 -0.27926864264E+03  0.28443046456E+03  0.10000000000E+01 0.  0.
<mgrwt>
<rscale>  0 0.12499982E+03</rscale>
<asrwt>0</asrwt>
<pdfrwt beam="1">  1        4 0.16045721E-02 0.12499982E+03</pdfrwt>
<pdfrwt beam="2">  1       -4 0.57619946E-01 0.12499982E+03</pdfrwt>
<totfact> 0.66042650E+03</totfact>
</mgrwt>
</event>
<event>
 5    1  0.3486589E-002  0.1249997E+03  0.7818608E-02  0.1235070E+00
          4   -1    0    0  501    0  0.00000000000E+00  0.00000000000E+00  0.33816797671E+02  0.33840636884E+02  0.12700000000E+01 0. -1.
         -4   -1    0    0    0  501 -0.00000000000E+00 -0.00000000000E+00 -0.11544344435E+03  0.11545042981E+03  0.12700000000E+01 0. -1.
         25    2    1    2    0    0  0.00000000000E+00  0.00000000000E+00 -0.81626646676E+02  0.14929106669E+03  0.12499965258E+03 0.  0.
    9000005    1    3    3    0    0  0.30999565572E+02 -0.21079671258E+02 -0.10052875366E+03  0.10729564725E+03  0.10000000000E+01 0.  0.
    9000005    1    3    3    0    0 -0.30999565572E+02  0.21079671258E+02  0.18902106982E+02  0.41995419445E+02  0.10000000000E+01 0.  0.
<mgrwt>
<rscale>  0 0.12499965E+03</rscale>
<asrwt>0</asrwt>
<pdfrwt beam="1">  1        4 0.52049554E-02 0.12499965E+03</pdfrwt>
<pdfrwt beam="2">  1       -4 0.17762901E-01 0.12499965E+03</pdfrwt>
<totfact> 0.99445979E+03</totfact>
</mgrwt>
</event>
<event>
 5    1  0.3486589E-002  0.1250009E+03  0.7818608E-02  0.1235068E+00
          4   -1    0    0  501    0  0.00000000000E+00  0.00000000000E+00  0.12441161372E+03  0.12441809566E+03  0.12700000000E+01 0. -1.
         -4   -1    0    0    0  501 -0.00000000000E+00 -0.00000000000E+00 -0.31378090412E+02  0.31403780949E+02  0.12700000000E+01 0. -1.
         25    2    1    2    0    0  0.00000000000E+00  0.00000000000E+00  0.93033523310E+02  0.15582187661E+03  0.12500088308E+03 0.  0.
    9000005    1    3    3    0    0 -0.41132963077E+02  0.47045046635E+02  0.46036989896E+02  0.77624490357E+02  0.10000000000E+01 0.  0.
    9000005    1    3    3    0    0  0.41132963077E+02 -0.47045046635E+02  0.46996533414E+02  0.78197386256E+02  0.10000000000E+01 0.  0.
<mgrwt>
<rscale>  0 0.12500088E+03</rscale>
<asrwt>0</asrwt>
<pdfrwt beam="1">  1        4 0.19142723E-01 0.12500088E+03</pdfrwt>
<pdfrwt beam="2">  1       -4 0.48298733E-02 0.12500088E+03</pdfrwt>
<totfact> 0.98152446E+03</totfact>
</mgrwt>
</event>
<event>
 5    1  0.3486589E-002  0.1249950E+03  0.7818608E-02  0.1235077E+00
          4   -1    0    0  501    0  0.00000000000E+00  0.00000000000E+00  0.36475147124E+02  0.36497250003E+02  0.12700000000E+01 0.  1.
         -4   -1    0    0    0  501 -0.00000000000E+00 -0.00000000000E+00 -0.10702656525E+03  0.10703410003E+03  0.12700000000E+01 0.  1.
         25    2    1    2    0    0  0.00000000000E+00  0.00000000000E+00 -0.70551418127E+02  0.14353135003E+03  0.12499498327E+03 0.  0.
    9000005    1    3    3    0    0  0.29625810765E+02  0.31565171191E+01 -0.98351440605E+02  0.10276992815E+03  0.10000000000E+01 0.  0.
    9000005    1    3    3    0    0 -0.29625810765E+02 -0.31565171191E+01  0.27800022478E+02  0.40761421879E+02  0.10000000000E+01 0.  0.
<mgrwt>
<rscale>  0 0.12499498E+03</rscale>
<asrwt>0</asrwt>
<pdfrwt beam="1">  1        4 0.56138410E-02 0.12499498E+03</pdfrwt>
<pdfrwt beam="2">  1       -4 0.16467905E-01 0.12499498E+03</pdfrwt>
<totfact> 0.10062051E+04</totfact>
</mgrwt>
</event>
<event>
 5    1  0.3486589E-002  0.1250003E+03  0.7818608E-02  0.1235069E+00
          4   -1    0    0  501    0  0.00000000000E+00  0.00000000000E+00  0.29296486880E+03  0.29296762150E+03  0.12700000000E+01 0.  1.
         -4   -1    0    0    0  501 -0.00000000000E+00 -0.00000000000E+00 -0.13300501239E+02  0.13360996715E+02  0.12700000000E+01 0.  1.
         25    2    1    2    0    0  0.00000000000E+00  0.00000000000E+00  0.27966436756E+03  0.30632861822E+03  0.12500025543E+03 0.  0.
    9000005    1    3    3    0    0  0.56418050373E+02 -0.15047907724E+02  0.85263549509E+02  0.10334557954E+03  0.10000000000E+01 0.  0.
    9000005    1    3    3    0    0 -0.56418050373E+02  0.15047907724E+02  0.19440081805E+03  0.20298303868E+03  0.10000000000E+01 0.  0.
<mgrwt>
<rscale>  0 0.12500026E+03</rscale>
<asrwt>0</asrwt>
<pdfrwt beam="1">  1        4 0.45076382E-01 0.12500026E+03</pdfrwt>
<pdfrwt beam="2">  1       -4 0.20510963E-02 0.12500026E+03</pdfrwt>
<totfact> 0.74811360E+03</totfact>
</mgrwt>
</event>
<event>
 5    1  0.3486589E-002  0.1249981E+03  0.7818608E-02  0.1235072E+00
          4   -1    0    0  501    0  0.00000000000E+00  0.00000000000E+00  0.68647704991E+03  0.68647822468E+03  0.12700000000E+01 0. -1.
         -4   -1    0    0    0  501 -0.00000000000E+00 -0.00000000000E+00 -0.56180566930E+01  0.57598143204E+01  0.12700000000E+01 0. -1.
         25    2    1    2    0    0  0.00000000000E+00  0.00000000000E+00  0.68085899322E+03  0.69223803900E+03  0.12499813594E+03 0.  0.
    9000005    1    3    3    0    0 -0.17565526643E+02  0.56701555996E+02  0.44860033371E+03  0.45251173862E+03  0.10000000000E+01 0.  0.
    9000005    1    3    3    0    0  0.17565526643E+02 -0.56701555996E+02  0.23225865950E+03  0.23972630038E+03  0.10000000000E+01 0.  0.
<mgrwt>
<rscale>  0 0.12499814E+03</rscale>
<asrwt>0</asrwt>
<pdfrwt beam="1">  1        4 0.10562284E+00 0.12499814E+03</pdfrwt>
<pdfrwt beam="2">  1       -4 0.87531129E-03 0.12499814E+03</pdfrwt>
<totfact> 0.43501388E+03</totfact>
</mgrwt>
</event>
<event>
 5    1  0.3486589E-002  0.1250050E+03  0.7818608E-02  0.1235061E+00
          4   -1    0    0  501    0  0.00000000000E+00  0.00000000000E+00  0.26566037632E+03  0.26566341195E+03  0.12700000000E+01 0. -1.
         -4   -1    0    0    0  501 -0.00000000000E+00 -0.00000000000E+00 -0.14674563863E+02  0.14729416980E+02  0.12700000000E+01 0. -1.
         25    2    1    2    0    0  0.00000000000E+00  0.00000000000E+00  0.25098581246E+03  0.28039282893E+03  0.12500504173E+03 0.  0.
    9000005    1    3    3    0    0  0.19550058991E+02 -0.35729025254E+02  0.23181445556E+03  0.23536718093E+03  0.10000000000E+01 0.  0.
    9000005    1    3    3    0    0 -0.19550058991E+02  0.35729025254E+02  0.19171356895E+02  0.45025647994E+02  0.10000000000E+01 0.  0.
<mgrwt>
<rscale>  0 0.12500504E+03</rscale>
<asrwt>0</asrwt>
<pdfrwt beam="1">  1        4 0.40875280E-01 0.12500504E+03</pdfrwt>
<pdfrwt beam="2">  1       -4 0.22620782E-02 0.12500504E+03</pdfrwt>
<totfact> 0.78117292E+03</totfact>
</mgrwt>
</event>
<event>
 5    1  0.3486589E-002  0.1249999E+03  0.7818608E-02  0.1235069E+00
         -4   -1    0    0    0  501 -0.00000000000E+00  0.00000000000E+00  0.37295179085E+02  0.37316796258E+02  0.12700000000E+01 0. -1.
          4   -1    0    0  501    0  0.00000000000E+00 -0.00000000000E+00 -0.10468277043E+03  0.10469047389E+03  0.12700000000E+01 0. -1.
         25    2    1    2    0    0  0.00000000000E+00  0.00000000000E+00 -0.67387591341E+02  0.14200727015E+03  0.12499990924E+03 0.  0.
    9000005    1    3    3    0    0 -0.23160829701E+02 -0.45218657307E+02 -0.75032815930E+02  0.90620496950E+02  0.10000000000E+01 0.  0.
    9000005    1    3    3    0    0  0.23160829701E+02  0.45218657307E+02  0.76452245890E+01  0.51386773201E+02  0.10000000000E+01 0.  0.
<mgrwt>
<rscale>  0 0.12499991E+03</rscale>
<asrwt>0</asrwt>
<pdfrwt beam="2">  1        4 0.16107297E-01 0.12499991E+03</pdfrwt>
<pdfrwt beam="1">  1       -4 0.57399753E-02 0.12499991E+03</pdfrwt>
<totfact> 0.10092173E+04</totfact>
</mgrwt>
</event>
<event>
 5    1  0.3486589E-002  0.1249968E+03  0.7818608E-02  0.1235074E+00
         -4   -1    0    0    0  501 -0.00000000000E+00  0.00000000000E+00  0.25873128645E+03  0.25873440337E+03  0.12700000000E+01 0.  1.
          4   -1    0    0  501    0  0.00000000000E+00 -0.00000000000E+00 -0.15067025117E+02  0.15120454553E+02  0.12700000000E+01 0.  1.
         25    2    1    2    0    0  0.00000000000E+00  0.00000000000E+00  0.24366426133E+03  0.27385485792E+03  0.12499684379E+03 0.  0.
    9000005    1    3    3    0    0  0.45392791676E+02 -0.40926753064E+02  0.93304359041E+02  0.11154464608E+03  0.10000000000E+01 0.  0.
    9000005    1    3    3    0    0 -0.45392791676E+02  0.40926753064E+02  0.15035990229E+03  0.16231021185E+03  0.10000000000E+01 0.  0.
<mgrwt>
<rscale>  0 0.12499684E+03</rscale>
<asrwt>0</asrwt>
<pdfrwt beam="2">  1        4 0.23223537E-02 0.12499684E+03</pdfrwt>
<pdfrwt beam="1">  1       -4 0.39809162E-01 0.12499684E+03</pdfrwt>
<totfact> 0.79005570E+03</totfact>
</mgrwt>
</event>
<event>
 5    1  0.3486589E-002  0.1249997E+03  0.7818608E-02  0.1235070E+00
          4   -1    0    0  501    0  0.00000000000E+00  0.00000000000E+00  0.85694967965E+01  0.86630927125E+01  0.12700000000E+01 0.  1.
         -4   -1    0    0    0  501 -0.00000000000E+00 -0.00000000000E+00 -0.45325978248E+03  0.45326156170E+03  0.12700000000E+01 0.  1.
         25    2    1    2    0    0  0.00000000000E+00  0.00000000000E+00 -0.44469028568E+03  0.46192465441E+03  0.12499974469E+03 0.  0.
    9000005    1    3    3    0    0 -0.32815091415E+02  0.42488239527E+02 -0.34054919791E+03  0.34475619925E+03  0.10000000000E+01 0.  0.
    9000005    1    3    3    0    0  0.32815091415E+02 -0.42488239527E+02 -0.10414108777E+03  0.11716845516E+03  0.10000000000E+01 0.  0.
<mgrwt>
<rscale>  0 0.12499974E+03</rscale>
<asrwt>0</asrwt>
<pdfrwt beam="1">  1        4 0.13257210E-02 0.12499974E+03</pdfrwt>
<pdfrwt beam="2">  1       -4 0.69739592E-01 0.12499974E+03</pdfrwt>
<totfact> 0.58944846E+03</totfact>
</mgrwt>
</event>
<event>
 5    1  0.3486589E-002  0.1249971E+03  0.7818608E-02  0.1235074E+00
         -4   -1    0    0    0  501 -0.00000000000E+00  0.00000000000E+00  0.26488369660E+02  0.26518797621E+02  0.12700000000E+01 0.  1.
          4   -1    0    0  501    0  0.00000000000E+00 -0.00000000000E+00 -0.14734579272E+03  0.14735126580E+03  0.12700000000E+01 0.  1.
         25    2    1    2    0    0  0.00000000000E+00  0.00000000000E+00 -0.12085742306E+03  0.17387006342E+03  0.12499712895E+03 0.  0.
    9000005    1    3    3    0    0 -0.17418231249E+02 -0.31187921806E+02 -0.13175000079E+03  0.13651060015E+03  0.10000000000E+01 0.  0.
    9000005    1    3    3    0    0  0.17418231249E+02  0.31187921806E+02  0.10892577723E+02  0.37359463271E+02  0.10000000000E+01 0.  0.
<mgrwt>
<rscale>  0 0.12499713E+03</rscale>
<asrwt>0</asrwt>
<pdfrwt beam="2">  1        4 0.22671345E-01 0.12499713E+03</pdfrwt>
<pdfrwt beam="1">  1       -4 0.40778955E-02 0.12499713E+03</pdfrwt>
<totfact> 0.94738297E+03</totfact>
</mgrwt>
</event>
<event>
 5    1  0.3486589E-002  0.1249954E+03  0.7818608E-02  0.1235076E+00
          4   -1    0    0  501    0  0.00000000000E+00  0.00000000000E+00  0.15242452708E+02  0.15295269353E+02  0.12700000000E+01 0.  1.
         -4   -1    0    0    0  501 -0.00000000000E+00 -0.00000000000E+00 -0.25575790367E+03  0.25576105683E+03  0.12700000000E+01 0.  1.
         25    2    1    2    0    0  0.00000000000E+00  0.00000000000E+00 -0.24051545096E+03  0.27105632618E+03  0.12499539916E+03 0.  0.
    9000005    1    3    3    0    0  0.36825827754E+00  0.33102673212E+02 -0.23519065360E+03  0.23751119159E+03  0.10000000000E+01 0.  0.
    9000005    1    3    3    0    0 -0.36825827754E+00 -0.33102673212E+02 -0.53247973611E+01  0.33545134594E+02  0.10000000000E+01 0.  0.
<mgrwt>
<rscale>  0 0.12499540E+03</rscale>
<asrwt>0</asrwt>
<pdfrwt beam="1">  1        4 0.23492983E-02 0.12499540E+03</pdfrwt>
<pdfrwt beam="2">  1       -4 0.39351672E-01 0.12499540E+03</pdfrwt>
<totfact> 0.79387196E+03</totfact>
</mgrwt>
</event>
<event>
 5    1  0.3486589E-002  0.1249994E+03  0.7818608E-02  0.1235070E+00
         -4   -1    0    0    0  501 -0.00000000000E+00  0.00000000000E+00  0.56134316599E+02  0.56148681196E+02  0.12700000000E+01 0.  1.
          4   -1    0    0  501    0  0.00000000000E+00 -0.00000000000E+00 -0.69557833201E+02  0.69569426184E+02  0.12700000000E+01 0.  1.
         25    2    1    2    0    0  0.00000000000E+00  0.00000000000E+00 -0.13423516601E+02  0.12571810738E+03  0.12499940690E+03 0.  0.
    9000005    1    3    3    0    0  0.44389318142E+02  0.33699099967E+02 -0.35143929086E+02  0.65894890965E+02  0.10000000000E+01 0.  0.
    9000005    1    3    3    0    0 -0.44389318142E+02 -0.33699099967E+02  0.21720412484E+02  0.59823216415E+02  0.10000000000E+01 0.  0.
<mgrwt>
<rscale>  0 0.12499941E+03</rscale>
<asrwt>0</asrwt>
<pdfrwt beam="2">  1        4 0.10703202E-01 0.12499941E+03</pdfrwt>
<pdfrwt beam="1">  1       -4 0.86380454E-02 0.12499941E+03</pdfrwt>
<totfact> 0.10437286E+04</totfact>
</mgrwt>
</event>
<event>
 5    1  0.3486589E-002  0.1250005E+03  0.7818608E-02  0.1235068E+00
         -4   -1    0    0    0  501 -0.00000000000E+00  0.00000000000E+00  0.38155182978E+03  0.38155394338E+03  0.12700000000E+01 0.  1.
          4   -1    0    0  501    0  0.00000000000E+00 -0.00000000000E+00 -0.10196349149E+02  0.10275136785E+02  0.12700000000E+01 0.  1.
         25    2    1    2    0    0  0.00000000000E+00  0.00000000000E+00  0.37135548063E+03  0.39182908016E+03  0.12500054027E+03 0.  0.
    9000005    1    3    3    0    0 -0.27706070888E+02  0.10740997432E+02  0.35800450124E+03  0.35923699461E+03  0.10000000000E+01 0.  0.
    9000005    1    3    3    0    0  0.27706070888E+02 -0.10740997432E+02  0.13350979389E+02  0.32592085550E+02  0.10000000000E+01 0.  0.
<mgrwt>
<rscale>  0 0.12500054E+03</rscale>
<asrwt>0</asrwt>
<pdfrwt beam="2">  1        4 0.15748923E-02 0.12500054E+03</pdfrwt>
<pdfrwt beam="1">  1       -4 0.58706505E-01 0.12500054E+03</pdfrwt>
<totfact> 0.65354536E+03</totfact>
</mgrwt>
</event>
<event>
 5    1  0.3486589E-002  0.1250009E+03  0.7818608E-02  0.1235068E+00
          4   -1    0    0  501    0  0.00000000000E+00  0.00000000000E+00  0.23349466456E+02  0.23383979212E+02  0.12700000000E+01 0. -1.
         -4   -1    0    0    0  501 -0.00000000000E+00 -0.00000000000E+00 -0.16713695469E+03  0.16714177971E+03  0.12700000000E+01 0. -1.
         25    2    1    2    0    0  0.00000000000E+00  0.00000000000E+00 -0.14378748823E+03  0.19052575892E+03  0.12500089215E+03 0.  0.
    9000005    1    3    3    0    0  0.43817900163E+02  0.20326189738E+02 -0.11459003095E+02  0.49653510610E+02  0.10000000000E+01 0.  0.
    9000005    1    3    3    0    0 -0.43817900163E+02 -0.20326189738E+02 -0.13232848514E+03  0.14087224831E+03  0.10000000000E+01 0.  0.
<mgrwt>
<rscale>  0 0.12500089E+03</rscale>
<asrwt>0</asrwt>
<pdfrwt beam="1">  1        4 0.35952517E-02 0.12500089E+03</pdfrwt>
<pdfrwt beam="2">  1       -4 0.25716403E-01 0.12500089E+03</pdfrwt>
<totfact> 0.91754082E+03</totfact>
</mgrwt>
</event>
<event>
 5    1  0.3486589E-002  0.1250006E+03  0.7818608E-02  0.1235068E+00
          4   -1    0    0  501    0  0.00000000000E+00  0.00000000000E+00  0.29312454950E+03  0.29312730070E+03  0.12700000000E+01 0.  1.
         -4   -1    0    0    0  501 -0.00000000000E+00 -0.00000000000E+00 -0.13293288875E+02  0.13353817024E+02  0.12700000000E+01 0.  1.
         25    2    1    2    0    0  0.00000000000E+00  0.00000000000E+00  0.27983126062E+03  0.30648111773E+03  0.12500056441E+03 0.  0.
    9000005    1    3    3    0    0  0.44694990492E+02 -0.38121435107E+01  0.33236430451E+02  0.55837576258E+02  0.10000000000E+01 0.  0.
    9000005    1    3    3    0    0 -0.44694990492E+02  0.38121435107E+01  0.24659483017E+03  0.25064354147E+03  0.10000000000E+01 0.  0.
<mgrwt>
<rscale>  0 0.12500056E+03</rscale>
<asrwt>0</asrwt>
<pdfrwt beam="1">  1        4 0.45100951E-01 0.12500056E+03</pdfrwt>
<pdfrwt beam="2">  1       -4 0.20499891E-02 0.12500056E+03</pdfrwt>
<totfact> 0.74792048E+03</totfact>
</mgrwt>
</event>
<event>
 5    1  0.3486589E-002  0.1250198E+03  0.7818608E-02  0.1235038E+00
         -4   -1    0    0    0  501 -0.00000000000E+00  0.00000000000E+00  0.11735879205E+02  0.11804395822E+02  0.12700000000E+01 0.  1.
          4   -1    0    0  501    0  0.00000000000E+00 -0.00000000000E+00 -0.33191323020E+03  0.33191565990E+03  0.12700000000E+01 0.  1.
         25    2    1    2    0    0  0.00000000000E+00  0.00000000000E+00 -0.32017735100E+03  0.34372005572E+03  0.12501976088E+03 0.  0.
    9000005    1    3    3    0    0 -0.23935012049E+02  0.40805437367E+02 -0.47785644013E+02  0.67249061660E+02  0.10000000000E+01 0.  0.
    9000005    1    3    3    0    0  0.23935012049E+02 -0.40805437367E+02 -0.27239170699E+03  0.27647099406E+03  0.10000000000E+01 0.  0.
<mgrwt>
<rscale>  0 0.12501976E+03</rscale>
<asrwt>0</asrwt>
<pdfrwt beam="2">  1        4 0.51069024E-01 0.12501976E+03</pdfrwt>
<pdfrwt beam="1">  1       -4 0.18109775E-02 0.12501976E+03</pdfrwt>
<totfact> 0.70390202E+03</totfact>
</mgrwt>
</event>
<event>
 5    1  0.3486589E-002  0.1250107E+03  0.7818608E-02  0.1235053E+00
          4   -1    0    0  501    0  0.00000000000E+00  0.00000000000E+00  0.61625399819E+03  0.61625530682E+03  0.12700000000E+01 0. -1.
         -4   -1    0    0    0  501 -0.00000000000E+00 -0.00000000000E+00 -0.62748546033E+01  0.64020856206E+01  0.12700000000E+01 0. -1.
         25    2    1    2    0    0  0.00000000000E+00  0.00000000000E+00  0.60997914359E+03  0.62265739244E+03  0.12501069055E+03 0.  0.
    9000005    1    3    3    0    0 -0.19166930161E+02  0.58840363239E+02  0.26146534564E+03  0.26869068933E+03  0.10000000000E+01 0.  0.
    9000005    1    3    3    0    0  0.19166930161E+02 -0.58840363239E+02  0.34851379794E+03  0.35396670311E+03  0.10000000000E+01 0.  0.
<mgrwt>
<rscale>  0 0.12501069E+03</rscale>
<asrwt>0</asrwt>
<pdfrwt beam="1">  1        4 0.94818145E-01 0.12501069E+03</pdfrwt>
<pdfrwt beam="2">  1       -4 0.97525043E-03 0.12501069E+03</pdfrwt>
<totfact> 0.47456846E+03</totfact>
</mgrwt>
</event>
<event>
 5    1  0.3486589E-002  0.1250004E+03  0.7818608E-02  0.1235069E+00
         -4   -1    0    0    0  501 -0.00000000000E+00  0.00000000000E+00  0.16056039256E+03  0.16056541520E+03  0.12700000000E+01 0. -1.
          4   -1    0    0  501    0  0.00000000000E+00 -0.00000000000E+00 -0.24307013441E+02  0.24340168496E+02  0.12700000000E+01 0. -1.
         25    2    1    2    0    0  0.00000000000E+00  0.00000000000E+00  0.13625337912E+03  0.18490558369E+03  0.12500036624E+03 0.  0.
    9000005    1    3    3    0    0 -0.44267159984E+02  0.30747429550E+02  0.21342290464E+02  0.57978265232E+02  0.10000000000E+01 0.  0.
    9000005    1    3    3    0    0  0.44267159984E+02 -0.30747429550E+02  0.11491108865E+03  0.12692731846E+03  0.10000000000E+01 0.  0.
<mgrwt>
<rscale>  0 0.12500037E+03</rscale>
<asrwt>0</asrwt>
<pdfrwt beam="2">  1        4 0.37424775E-02 0.12500037E+03</pdfrwt>
<pdfrwt beam="1">  1       -4 0.24704534E-01 0.12500037E+03</pdfrwt>
<totfact> 0.92740601E+03</totfact>
</mgrwt>
</event>
<event>
 5    1  0.3486589E-002  0.1249971E+03  0.7818608E-02  0.1235074E+00
          4   -1    0    0  501    0  0.00000000000E+00  0.00000000000E+00  0.10201876580E+03  0.10202667041E+03  0.12700000000E+01 0.  1.
         -4   -1    0    0    0  501 -0.00000000000E+00 -0.00000000000E+00 -0.38267812198E+02  0.38288880245E+02  0.12700000000E+01 0.  1.
         25    2    1    2    0    0  0.00000000000E+00  0.00000000000E+00  0.63750953604E+02  0.14031555066E+03  0.12499707865E+03 0.  0.
    9000005    1    3    3    0    0  0.19681333508E+02 -0.51219910735E+02 -0.16929783127E+01  0.54906286706E+02  0.10000000000E+01 0.  0.
    9000005    1    3    3    0    0 -0.19681333508E+02  0.51219910735E+02  0.65443931917E+02  0.85409263953E+02  0.10000000000E+01 0.  0.
<mgrwt>
<rscale>  0 0.12499708E+03</rscale>
<asrwt>0</asrwt>
<pdfrwt beam="1">  1        4 0.15697423E-01 0.12499708E+03</pdfrwt>
<pdfrwt beam="2">  1       -4 0.58895845E-02 0.12499708E+03</pdfrwt>
<totfact> 0.10127717E+04</totfact>
</mgrwt>
</event>
<event>
 5    1  0.3486589E-002  0.1249996E+03  0.7818608E-02  0.1235070E+00
         -4   -1    0    0    0  501 -0.00000000000E+00  0.00000000000E+00  0.55400791830E+02  0.55415346570E+02  0.12700000000E+01 0.  1.
          4   -1    0    0  501    0  0.00000000000E+00 -0.00000000000E+00 -0.70478946162E+02  0.70490387657E+02  0.12700000000E+01 0.  1.
         25    2    1    2    0    0  0.00000000000E+00  0.00000000000E+00 -0.15078154331E+02  0.12590573423E+03  0.12499961269E+03 0.  0.
    9000005    1    3    3    0    0  0.49215371119E+02 -0.34286495388E+02 -0.25202137436E+02  0.65068150824E+02  0.10000000000E+01 0.  0.
    9000005    1    3    3    0    0 -0.49215371119E+02  0.34286495388E+02  0.10123983104E+02  0.60837583403E+02  0.10000000000E+01 0.  0.
<mgrwt>
<rscale>  0 0.12499961E+03</rscale>
<asrwt>0</asrwt>
<pdfrwt beam="2">  1        4 0.10844915E-01 0.12499961E+03</pdfrwt>
<pdfrwt beam="1">  1       -4 0.85251984E-02 0.12499961E+03</pdfrwt>
<totfact> 0.10433115E+04</totfact>
</mgrwt>
</event>
<event>
 5    1  0.3486589E-002  0.1249959E+03  0.7818608E-02  0.1235076E+00
         -4   -1    0    0    0  501 -0.00000000000E+00  0.00000000000E+00  0.41191628221E+01  0.43104990842E+01  0.12700000000E+01 0.  1.
          4   -1    0    0  501    0  0.00000000000E+00 -0.00000000000E+00 -0.92653484221E+03  0.92653571260E+03  0.12700000000E+01 0.  1.
         25    2    1    2    0    0  0.00000000000E+00  0.00000000000E+00 -0.92241567939E+03  0.93084621169E+03  0.12499593686E+03 0.  0.
    9000005    1    3    3    0    0 -0.31181256138E+02 -0.20692383352E+02 -0.83389715693E+03  0.83473703272E+03  0.10000000000E+01 0.  0.
    9000005    1    3    3    0    0  0.31181256138E+02  0.20692383352E+02 -0.88518522461E+02  0.96109178968E+02  0.10000000000E+01 0.  0.
<mgrwt>
<rscale>  0 0.12499594E+03</rscale>
<asrwt>0</asrwt>
<pdfrwt beam="2">  1        4 0.14255844E+00 0.12499594E+03</pdfrwt>
<pdfrwt beam="1">  1       -4 0.64850322E-03 0.12499594E+03</pdfrwt>
<totfact> 0.33008880E+03</totfact>
</mgrwt>
</event>
<event>
 5    1  0.3486589E-002  0.1249995E+03  0.7818608E-02  0.1235070E+00
         -4   -1    0    0    0  501 -0.00000000000E+00  0.00000000000E+00  0.24981009473E+03  0.24981332296E+03  0.12700000000E+01 0.  1.
          4   -1    0    0  501    0  0.00000000000E+00 -0.00000000000E+00 -0.15607626866E+02  0.15659211870E+02  0.12700000000E+01 0.  1.
         25    2    1    2    0    0  0.00000000000E+00  0.00000000000E+00  0.23420246787E+03  0.26547253483E+03  0.12499948318E+03 0.  0.
    9000005    1    3    3    0    0  0.12303899775E+02 -0.50374057748E+02  0.19116899945E+03  0.19807957491E+03  0.10000000000E+01 0.  0.
    9000005    1    3    3    0    0 -0.12303899775E+02  0.50374057748E+02  0.43033468411E+02  0.67392959923E+02  0.10000000000E+01 0.  0.
<mgrwt>
<rscale>  0 0.12499948E+03</rscale>
<asrwt>0</asrwt>
<pdfrwt beam="2">  1        4 0.24053899E-02 0.12499948E+03</pdfrwt>
<pdfrwt beam="1">  1       -4 0.38436536E-01 0.12499948E+03</pdfrwt>
<totfact> 0.80145072E+03</totfact>
</mgrwt>
</event>
<event>
 5    1  0.3486589E-002  0.1250035E+03  0.7818608E-02  0.1235064E+00
         -4   -1    0    0    0  501 -0.00000000000E+00  0.00000000000E+00  0.12484254103E+02  0.12548685210E+02  0.12700000000E+01 0.  1.
          4   -1    0    0  501    0  0.00000000000E+00 -0.00000000000E+00 -0.31204046081E+03  0.31204304524E+03  0.12700000000E+01 0.  1.
         25    2    1    2    0    0  0.00000000000E+00  0.00000000000E+00 -0.29955620671E+03  0.32459173045E+03  0.12500348195E+03 0.  0.
    9000005    1    3    3    0    0  0.38360308106E+02  0.32724877527E+02 -0.53911105363E+02  0.73823018962E+02  0.10000000000E+01 0.  0.
    9000005    1    3    3    0    0 -0.38360308106E+02 -0.32724877527E+02 -0.24564510135E+03  0.25076871149E+03  0.10000000000E+01 0.  0.
<mgrwt>
<rscale>  0 0.12500348E+03</rscale>
<asrwt>0</asrwt>
<pdfrwt beam="2">  1        4 0.48011374E-01 0.12500348E+03</pdfrwt>
<pdfrwt beam="1">  1       -4 0.19258098E-02 0.12500348E+03</pdfrwt>
<totfact> 0.72607707E+03</totfact>
</mgrwt>
</event>
<event>
 5    1  0.3486589E-002  0.1249992E+03  0.7818608E-02  0.1235071E+00
          4   -1    0    0  501    0  0.00000000000E+00  0.00000000000E+00  0.36889875817E+02  0.36911730355E+02  0.12700000000E+01 0.  1.
         -4   -1    0    0    0  501 -0.00000000000E+00 -0.00000000000E+00 -0.10583105779E+03  0.10583867768E+03  0.12700000000E+01 0.  1.
         25    2    1    2    0    0  0.00000000000E+00  0.00000000000E+00 -0.68941181972E+02  0.14275040803E+03  0.12499916968E+03 0.  0.
    9000005    1    3    3    0    0  0.39371760599E+02  0.43604479767E+02 -0.58796009634E+02  0.83123143211E+02  0.10000000000E+01 0.  0.
    9000005    1    3    3    0    0 -0.39371760599E+02 -0.43604479767E+02 -0.10145172338E+02  0.59627264822E+02  0.10000000000E+01 0.  0.
<mgrwt>
<rscale>  0 0.12499917E+03</rscale>
<asrwt>0</asrwt>
<pdfrwt beam="1">  1        4 0.56776328E-02 0.12499917E+03</pdfrwt>
<pdfrwt beam="2">  1       -4 0.16283968E-01 0.12499917E+03</pdfrwt>
<totfact> 0.10077085E+04</totfact>
</mgrwt>
</event>
<event>
 5    1  0.3486589E-002  0.1249997E+03  0.7818608E-02  0.1235070E+00
         -4   -1    0    0    0  501 -0.00000000000E+00  0.00000000000E+00  0.23934295895E+02  0.23967966539E+02  0.12700000000E+01 0.  1.
          4   -1    0    0  501    0  0.00000000000E+00 -0.00000000000E+00 -0.16305570580E+03  0.16306065158E+03  0.12700000000E+01 0.  1.
         25    2    1    2    0    0  0.00000000000E+00  0.00000000000E+00 -0.13912140990E+03  0.18702861812E+03  0.12499974921E+03 0.  0.
    9000005    1    3    3    0    0 -0.92455312754E+01  0.57478662896E+02 -0.35574238807E+02  0.68233444905E+02  0.10000000000E+01 0.  0.
    9000005    1    3    3    0    0  0.92455312754E+01 -0.57478662896E+02 -0.10354717109E+03  0.11879517321E+03  0.10000000000E+01 0.  0.
<mgrwt>
<rscale>  0 0.12499975E+03</rscale>
<asrwt>0</asrwt>
<pdfrwt beam="2">  1        4 0.25088463E-01 0.12499975E+03</pdfrwt>
<pdfrwt beam="1">  1       -4 0.36851700E-02 0.12499975E+03</pdfrwt>
<totfact> 0.92367430E+03</totfact>
</mgrwt>
</event>
<event>
 5    1  0.3486589E-002  0.1249988E+03  0.7818608E-02  0.1235071E+00
         -4   -1    0    0    0  501 -0.00000000000E+00  0.00000000000E+00  0.43143914284E+02  0.43162602328E+02  0.12700000000E+01 0.  1.
          4   -1    0    0  501    0  0.00000000000E+00 -0.00000000000E+00 -0.90495477292E+02  0.90504388349E+02  0.12700000000E+01 0.  1.
         25    2    1    2    0    0  0.00000000000E+00  0.00000000000E+00 -0.47351563008E+02  0.13366699068E+03  0.12499877550E+03 0.  0.
    9000005    1    3    3    0    0 -0.59446175928E+02 -0.67162467435E+01 -0.43617849141E+01  0.59991507486E+02  0.10000000000E+01 0.  0.
    9000005    1    3    3    0    0  0.59446175928E+02  0.67162467435E+01 -0.42989778094E+02  0.73675483191E+02  0.10000000000E+01 0.  0.
<mgrwt>
<rscale>  0 0.12499878E+03</rscale>
<asrwt>0</asrwt>
<pdfrwt beam="2">  1        4 0.13924504E-01 0.12499878E+03</pdfrwt>
<pdfrwt beam="1">  1       -4 0.66396483E-02 0.12499878E+03</pdfrwt>
<totfact> 0.10266528E+04</totfact>
</mgrwt>
</event>
<event>
 5    1  0.3486589E-002  0.1249949E+03  0.7818608E-02  0.1235077E+00
          4   -1    0    0  501    0  0.00000000000E+00  0.00000000000E+00  0.13038613656E+03  0.13039232150E+03  0.12700000000E+01 0.  1.
         -4   -1    0    0    0  501 -0.00000000000E+00 -0.00000000000E+00 -0.29936291586E+02  0.29963218350E+02  0.12700000000E+01 0.  1.
         25    2    1    2    0    0  0.00000000000E+00  0.00000000000E+00  0.10044984497E+03  0.16035553985E+03  0.12499491112E+03 0.  0.
    9000005    1    3    3    0    0  0.25064461101E+02 -0.36485615877E+02 -0.63609171434E+01  0.44731293779E+02  0.10000000000E+01 0.  0.
    9000005    1    3    3    0    0 -0.25064461101E+02  0.36485615877E+02  0.10681076212E+03  0.11562424607E+03  0.10000000000E+01 0.  0.
<mgrwt>
<rscale>  0 0.12499491E+03</rscale>
<asrwt>0</asrwt>
<pdfrwt beam="1">  1        4 0.20061953E-01 0.12499491E+03</pdfrwt>
<pdfrwt beam="2">  1       -4 0.46081304E-02 0.12499491E+03</pdfrwt>
<totfact> 0.97285410E+03</totfact>
</mgrwt>
</event>
<event>
 5    1  0.3486589E-002  0.1249969E+03  0.7818608E-02  0.1235074E+00
         -4   -1    0    0    0  501 -0.00000000000E+00  0.00000000000E+00  0.31487579448E+02  0.31513180726E+02  0.12700000000E+01 0. -1.
          4   -1    0    0  501    0  0.00000000000E+00 -0.00000000000E+00 -0.12397143341E+03  0.12397793837E+03  0.12700000000E+01 0. -1.
         25    2    1    2    0    0  0.00000000000E+00  0.00000000000E+00 -0.92483853964E+02  0.15549111909E+03  0.12499689945E+03 0.  0.
    9000005    1    3    3    0    0  0.65694788268E+01  0.43606891788E+02  0.88352579052E+01  0.44986451802E+02  0.10000000000E+01 0.  0.
    9000005    1    3    3    0    0 -0.65694788268E+01 -0.43606891788E+02 -0.10131911187E+03  0.11050466729E+03  0.10000000000E+01 0.  0.
<mgrwt>
<rscale>  0 0.12499690E+03</rscale>
<asrwt>0</asrwt>
<pdfrwt beam="2">  1        4 0.19074998E-01 0.12499690E+03</pdfrwt>
<pdfrwt beam="1">  1       -4 0.48467128E-02 0.12499690E+03</pdfrwt>
<totfact> 0.98226021E+03</totfact>
</mgrwt>
</event>
<event>
 5    1  0.3486589E-002  0.1249958E+03  0.7818608E-02  0.1235076E+00
          4   -1    0    0  501    0  0.00000000000E+00  0.00000000000E+00  0.26193978671E+02  0.26224748208E+02  0.12700000000E+01 0.  1.
         -4   -1    0    0    0  501 -0.00000000000E+00 -0.00000000000E+00 -0.14899673393E+03  0.14900214636E+03  0.12700000000E+01 0.  1.
         25    2    1    2    0    0  0.00000000000E+00  0.00000000000E+00 -0.12280275526E+03  0.17522689457E+03  0.12499579146E+03 0.  0.
    9000005    1    3    3    0    0  0.18258272156E+02 -0.53778146788E+02 -0.97944931165E+02  0.11322395115E+03  0.10000000000E+01 0.  0.
    9000005    1    3    3    0    0 -0.18258272156E+02  0.53778146788E+02 -0.24857824093E+02  0.62002943419E+02  0.10000000000E+01 0.  0.
<mgrwt>
<rscale>  0 0.12499579E+03</rscale>
<asrwt>0</asrwt>
<pdfrwt beam="1">  1        4 0.40326262E-02 0.12499579E+03</pdfrwt>
<pdfrwt beam="2">  1       -4 0.22925357E-01 0.12499579E+03</pdfrwt>
<totfact> 0.94492223E+03</totfact>
</mgrwt>
</event>
<event>
 5    1  0.3486589E-002  0.1250012E+03  0.7818608E-02  0.1235067E+00
         -4   -1    0    0    0  501 -0.00000000000E+00  0.00000000000E+00  0.50159851996E+03  0.50160012772E+03  0.12700000000E+01 0.  1.
          4   -1    0    0  501    0  0.00000000000E+00 -0.00000000000E+00 -0.77343499509E+01  0.78379250547E+01  0.12700000000E+01 0.  1.
         25    2    1    2    0    0  0.00000000000E+00  0.00000000000E+00  0.49386417001E+03  0.50943805278E+03  0.12500124477E+03 0.  0.
    9000005    1    3    3    0    0  0.25221199252E+02 -0.50347203290E+02  0.13648941912E+03  0.14765267117E+03  0.10000000000E+01 0.  0.
    9000005    1    3    3    0    0 -0.25221199252E+02  0.50347203290E+02  0.35737475089E+03  0.36178538161E+03  0.10000000000E+01 0.  0.
<mgrwt>
<rscale>  0 0.12500124E+03</rscale>
<asrwt>0</asrwt>
<pdfrwt beam="2">  1        4 0.11979909E-02 0.12500124E+03</pdfrwt>
<pdfrwt beam="1">  1       -4 0.77177101E-01 0.12500124E+03</pdfrwt>
<totfact> 0.55137941E+03</totfact>
</mgrwt>
</event>
<event>
 5    1  0.3486589E-002  0.1250009E+03  0.7818608E-02  0.1235068E+00
          4   -1    0    0  501    0  0.00000000000E+00  0.00000000000E+00  0.13497080400E+03  0.13497677886E+03  0.12700000000E+01 0. -1.
         -4   -1    0    0    0  501 -0.00000000000E+00 -0.00000000000E+00 -0.28921323417E+02  0.28949194258E+02  0.12700000000E+01 0. -1.
         25    2    1    2    0    0  0.00000000000E+00  0.00000000000E+00  0.10604948058E+03  0.16392597312E+03  0.12500092932E+03 0.  0.
    9000005    1    3    3    0    0  0.73447256898E+01  0.56492891766E+02  0.19336451938E+02  0.60168847331E+02  0.10000000000E+01 0.  0.
    9000005    1    3    3    0    0 -0.73447256898E+01 -0.56492891766E+02  0.86713028641E+02  0.10375712579E+03  0.10000000000E+01 0.  0.
<mgrwt>
<rscale>  0 0.12500093E+03</rscale>
<asrwt>0</asrwt>
<pdfrwt beam="1">  1        4 0.20767342E-01 0.12500093E+03</pdfrwt>
<pdfrwt beam="2">  1       -4 0.44520380E-02 0.12500093E+03</pdfrwt>
<totfact> 0.96589167E+03</totfact>
</mgrwt>
</event>
<event>
 5    1  0.3486589E-002  0.1249996E+03  0.7818608E-02  0.1235070E+00
         -4   -1    0    0    0  501 -0.00000000000E+00  0.00000000000E+00  0.53528259128E+03  0.53528409787E+03  0.12700000000E+01 0.  1.
          4   -1    0    0  501    0  0.00000000000E+00 -0.00000000000E+00 -0.72407148151E+01  0.73512482637E+01  0.12700000000E+01 0.  1.
         25    2    1    2    0    0  0.00000000000E+00  0.00000000000E+00  0.52804187647E+03  0.54263534613E+03  0.12499958227E+03 0.  0.
    9000005    1    3    3    0    0  0.35786039776E+02  0.89807130816E+01  0.48297454304E+03  0.48438280634E+03  0.10000000000E+01 0.  0.
    9000005    1    3    3    0    0 -0.35786039776E+02 -0.89807130816E+01  0.45067333429E+02  0.58252539796E+02  0.10000000000E+01 0.  0.
<mgrwt>
<rscale>  0 0.12499958E+03</rscale>
<asrwt>0</asrwt>
<pdfrwt beam="2">  1        4 0.11225748E-02 0.12499958E+03</pdfrwt>
<pdfrwt beam="1">  1       -4 0.82359773E-01 0.12499958E+03</pdfrwt>
<totfact> 0.52702252E+03</totfact>
</mgrwt>
</event>
<event>
 5    1  0.3486589E-002  0.1250013E+03  0.7818608E-02  0.1235067E+00
          4   -1    0    0  501    0  0.00000000000E+00  0.00000000000E+00  0.20834420231E+04  0.20834424101E+04  0.12700000000E+01 0.  1.
         -4   -1    0    0    0  501 -0.00000000000E+00 -0.00000000000E+00 -0.16594510284E+01  0.20896597129E+01  0.12700000000E+01 0.  1.
         25    2    1    2    0    0  0.00000000000E+00  0.00000000000E+00  0.20817825720E+04  0.20855320698E+04  0.12500134860E+03 0.  0.
    9000005    1    3    3    0    0  0.31914810580E+02 -0.72215720593E+01  0.15261061034E+03  0.15608236488E+03  0.10000000000E+01 0.  0.
    9000005    1    3    3    0    0 -0.31914810580E+02  0.72215720593E+01  0.19291719617E+04  0.19294497050E+04  0.10000000000E+01 0.  0.
<mgrwt>
<rscale>  0 0.12500135E+03</rscale>
<asrwt>0</asrwt>
<pdfrwt beam="1">  1        4 0.32056273E+00 0.12500135E+03</pdfrwt>
<pdfrwt beam="2">  1       -4 0.28842285E-03 0.12500135E+03</pdfrwt>
<totfact> 0.87856155E+02</totfact>
</mgrwt>
</event>
<event>
 5    1  0.3486589E-002  0.1250005E+03  0.7818608E-02  0.1235069E+00
         -4   -1    0    0    0  501 -0.00000000000E+00  0.00000000000E+00  0.10956624968E+03  0.10957360982E+03  0.12700000000E+01 0. -1.
          4   -1    0    0  501    0  0.00000000000E+00 -0.00000000000E+00 -0.35632353069E+02  0.35654978408E+02  0.12700000000E+01 0. -1.
         25    2    1    2    0    0  0.00000000000E+00  0.00000000000E+00  0.73933896614E+02  0.14522858823E+03  0.12500048708E+03 0.  0.
    9000005    1    3    3    0    0 -0.35467224437E+01  0.52639036973E+02 -0.19469297622E+01  0.52803768701E+02  0.10000000000E+01 0.  0.
    9000005    1    3    3    0    0  0.35467224437E+01 -0.52639036973E+02  0.75880826376E+02  0.92424819530E+02  0.10000000000E+01 0.  0.
<mgrwt>
<rscale>  0 0.12500049E+03</rscale>
<asrwt>0</asrwt>
<pdfrwt beam="2">  1        4 0.54842071E-02 0.12500049E+03</pdfrwt>
<pdfrwt beam="1">  1       -4 0.16858652E-01 0.12500049E+03</pdfrwt>
<totfact> 0.10026236E+04</totfact>
</mgrwt>
</event>
<event>
 5    1  0.3486589E-002  0.1249985E+03  0.7818608E-02  0.1235072E+00
          4   -1    0    0  501    0  0.00000000000E+00  0.00000000000E+00  0.27980921757E+02  0.28009728353E+02  0.12700000000E+01 0. -1.
         -4   -1    0    0    0  501 -0.00000000000E+00 -0.00000000000E+00 -0.13949721353E+03  0.13950299453E+03  0.12700000000E+01 0. -1.
         25    2    1    2    0    0  0.00000000000E+00  0.00000000000E+00 -0.11151629178E+03  0.16751272289E+03  0.12499851598E+03 0.  0.
    9000005    1    3    3    0    0 -0.61677201753E+02 -0.80472106581E+01 -0.47681511728E+02  0.78379597959E+02  0.10000000000E+01 0.  0.
    9000005    1    3    3    0    0  0.61677201753E+02  0.80472106581E+01 -0.63834780049E+02  0.89133124928E+02  0.10000000000E+01 0.  0.
<mgrwt>
<rscale>  0 0.12499852E+03</rscale>
<asrwt>0</asrwt>
<pdfrwt beam="1">  1        4 0.43074179E-02 0.12499852E+03</pdfrwt>
<pdfrwt beam="2">  1       -4 0.21463770E-01 0.12499852E+03</pdfrwt>
<totfact> 0.95916825E+03</totfact>
</mgrwt>
</event>
<event>
 5    1  0.3486589E-002  0.1250011E+03  0.7818608E-02  0.1235068E+00
          4   -1    0    0  501    0  0.00000000000E+00  0.00000000000E+00  0.57232263192E+02  0.57246352286E+02  0.12700000000E+01 0.  1.
         -4   -1    0    0    0  501 -0.00000000000E+00 -0.00000000000E+00 -0.68225405430E+02  0.68237224783E+02  0.12700000000E+01 0.  1.
         25    2    1    2    0    0  0.00000000000E+00  0.00000000000E+00 -0.10993142238E+02  0.12548357707E+03  0.12500111575E+03 0.  0.
    9000005    1    3    3    0    0 -0.18937620135E+02 -0.56809596560E+02 -0.23436080115E+02  0.64313401161E+02  0.10000000000E+01 0.  0.
    9000005    1    3    3    0    0  0.18937620135E+02  0.56809596560E+02  0.12442937877E+02  0.61170175909E+02  0.10000000000E+01 0.  0.
<mgrwt>
<rscale>  0 0.12500112E+03</rscale>
<asrwt>0</asrwt>
<pdfrwt beam="1">  1        4 0.88069565E-02 0.12500112E+03</pdfrwt>
<pdfrwt beam="2">  1       -4 0.10498209E-01 0.12500112E+03</pdfrwt>
<totfact> 0.10442054E+04</totfact>
</mgrwt>
</event>
<event>
 5    1  0.3486589E-002  0.1249958E+03  0.7818608E-02  0.1235076E+00
         -4   -1    0    0    0  501 -0.00000000000E+00  0.00000000000E+00  0.16052220940E+03  0.16052723323E+03  0.12700000000E+01 0. -1.
          4   -1    0    0  501    0  0.00000000000E+00 -0.00000000000E+00 -0.24311018125E+02  0.24344167726E+02  0.12700000000E+01 0. -1.
         25    2    1    2    0    0  0.00000000000E+00  0.00000000000E+00  0.13621119127E+03  0.18487140096E+03  0.12499578499E+03 0.  0.
    9000005    1    3    3    0    0 -0.66911413991E+01 -0.25628152009E+02  0.15181626836E+03  0.15411279274E+03  0.10000000000E+01 0.  0.
    9000005    1    3    3    0    0  0.66911413991E+01  0.25628152009E+02 -0.15605077087E+02  0.30758608218E+02  0.10000000000E+01 0.  0.
<mgrwt>
<rscale>  0 0.12499578E+03</rscale>
<asrwt>0</asrwt>
<pdfrwt beam="2">  1        4 0.37430932E-02 0.12499578E+03</pdfrwt>
<pdfrwt beam="1">  1       -4 0.24698660E-01 0.12499578E+03</pdfrwt>
<totfact> 0.92756174E+03</totfact>
</mgrwt>
</event>
<event>
 5    1  0.3486589E-002  0.1250042E+03  0.7818608E-02  0.1235063E+00
         -4   -1    0    0    0  501 -0.00000000000E+00  0.00000000000E+00  0.36657245274E+03  0.36657465270E+03  0.12700000000E+01 0.  1.
          4   -1    0    0  501    0  0.00000000000E+00 -0.00000000000E+00 -0.10616786184E+02  0.10692476274E+02  0.12700000000E+01 0.  1.
         25    2    1    2    0    0  0.00000000000E+00  0.00000000000E+00  0.35595566655E+03  0.37726712898E+03  0.12500420015E+03 0.  0.
    9000005    1    3    3    0    0 -0.40470454818E+02 -0.10525577068E+02  0.31814169267E+03  0.32087970035E+03  0.10000000000E+01 0.  0.
    9000005    1    3    3    0    0  0.40470454818E+02  0.10525577068E+02  0.37813973884E+02  0.56387428623E+02  0.10000000000E+01 0.  0.
<mgrwt>
<rscale>  0 0.12500420E+03</rscale>
<asrwt>0</asrwt>
<pdfrwt beam="2">  1        4 0.16393434E-02 0.12500420E+03</pdfrwt>
<pdfrwt beam="1">  1       -4 0.56401750E-01 0.12500420E+03</pdfrwt>
<totfact> 0.66819249E+03</totfact>
</mgrwt>
</event>
<event>
 5    1  0.3486589E-002  0.1249998E+03  0.7818608E-02  0.1235070E+00
          4   -1    0    0  501    0  0.00000000000E+00  0.00000000000E+00  0.12867286043E+03  0.12867912773E+03  0.12700000000E+01 0.  1.
         -4   -1    0    0    0  501 -0.00000000000E+00 -0.00000000000E+00 -0.30337628459E+02  0.30364199322E+02  0.12700000000E+01 0.  1.
         25    2    1    2    0    0  0.00000000000E+00  0.00000000000E+00  0.98335231976E+02  0.15904332705E+03  0.12499984812E+03 0.  0.
    9000005    1    3    3    0    0 -0.45457563927E+02 -0.25311521853E+02  0.51256698228E+01  0.52290876335E+02  0.10000000000E+01 0.  0.
    9000005    1    3    3    0    0  0.45457563927E+02  0.25311521853E+02  0.93209562153E+02  0.10675245071E+03  0.10000000000E+01 0.  0.
<mgrwt>
<rscale>  0 0.12499985E+03</rscale>
<asrwt>0</asrwt>
<pdfrwt beam="1">  1        4 0.19798351E-01 0.12499985E+03</pdfrwt>
<pdfrwt beam="2">  1       -4 0.46698534E-02 0.12499985E+03</pdfrwt>
<totfact> 0.97527874E+03</totfact>
</mgrwt>
</event>
<event>
 5    1  0.3486589E-002  0.1249996E+03  0.7818608E-02  0.1235070E+00
         -4   -1    0    0    0  501 -0.00000000000E+00  0.00000000000E+00  0.10910523821E+02  0.10984190004E+02  0.12700000000E+01 0. -1.
          4   -1    0    0  501    0  0.00000000000E+00 -0.00000000000E+00 -0.35674400856E+03  0.35674626914E+03  0.12700000000E+01 0. -1.
         25    2    1    2    0    0  0.00000000000E+00  0.00000000000E+00 -0.34583348474E+03  0.36773045914E+03  0.12499956565E+03 0.  0.
    9000005    1    3    3    0    0  0.33354486337E+02  0.25274342715E+02 -0.36384650346E+02  0.55463113321E+02  0.10000000000E+01 0.  0.
    9000005    1    3    3    0    0 -0.33354486337E+02 -0.25274342715E+02 -0.30944883440E+03  0.31226734582E+03  0.10000000000E+01 0.  0.
<mgrwt>
<rscale>  0 0.12499957E+03</rscale>
<asrwt>0</asrwt>
<pdfrwt beam="2">  1        4 0.54889525E-01 0.12499957E+03</pdfrwt>
<pdfrwt beam="1">  1       -4 0.16843829E-02 0.12499957E+03</pdfrwt>
<totfact> 0.67817699E+03</totfact>
</mgrwt>
</event>
<event>
 5    1  0.3486589E-002  0.1249990E+03  0.7818608E-02  0.1235071E+00
         -4   -1    0    0    0  501 -0.00000000000E+00  0.00000000000E+00  0.13880632198E+04  0.13880638008E+04  0.12700000000E+01 0. -1.
          4   -1    0    0  501    0  0.00000000000E+00 -0.00000000000E+00 -0.26702329672E+01  0.29568638959E+01  0.12700000000E+01 0. -1.
         25    2    1    2    0    0  0.00000000000E+00  0.00000000000E+00  0.13853929869E+04  0.13910206647E+04  0.12499904646E+03 0.  0.
    9000005    1    3    3    0    0 -0.38748176498E+02 -0.31118850877E+02  0.11143068656E+04  0.11154149877E+04  0.10000000000E+01 0.  0.
    9000005    1    3    3    0    0  0.38748176498E+02  0.31118850877E+02  0.27108612126E+03  0.27560567701E+03  0.10000000000E+01 0.  0.
<mgrwt>
<rscale>  0 0.12499905E+03</rscale>
<asrwt>0</asrwt>
<pdfrwt beam="2">  1        4 0.43289783E-03 0.12499905E+03</pdfrwt>
<pdfrwt beam="1">  1       -4 0.21357051E+00 0.12499905E+03</pdfrwt>
<totfact> 0.20174827E+03</totfact>
</mgrwt>
</event>
<event>
 5    1  0.3486589E-002  0.1250004E+03  0.7818608E-02  0.1235069E+00
          4   -1    0    0  501    0  0.00000000000E+00  0.00000000000E+00  0.65865905393E+02  0.65878148070E+02  0.12700000000E+01 0. -1.
         -4   -1    0    0    0  501 -0.00000000000E+00 -0.00000000000E+00 -0.59281877820E+02  0.59295479911E+02  0.12700000000E+01 0. -1.
         25    2    1    2    0    0  0.00000000000E+00  0.00000000000E+00  0.65840275722E+01  0.12517362798E+03  0.12500035089E+03 0.  0.
    9000005    1    3    3    0    0  0.40035231847E+02  0.46550523431E+02  0.14948635793E+02  0.63199942506E+02  0.10000000000E+01 0.  0.
    9000005    1    3    3    0    0 -0.40035231847E+02 -0.46550523431E+02 -0.83646082209E+01  0.61973685475E+02  0.10000000000E+01 0.  0.
<mgrwt>
<rscale>  0 0.12500035E+03</rscale>
<asrwt>0</asrwt>
<pdfrwt beam="1">  1        4 0.10135204E-01 0.12500035E+03</pdfrwt>
<pdfrwt beam="2">  1       -4 0.91222770E-02 0.12500035E+03</pdfrwt>
<totfact> 0.10449010E+04</totfact>
</mgrwt>
</event>
<event>
 5    1  0.3486589E-002  0.1249952E+03  0.7818608E-02  0.1235077E+00
          4   -1    0    0  501    0  0.00000000000E+00  0.00000000000E+00  0.26798251933E+02  0.26828328436E+02  0.12700000000E+01 0.  1.
         -4   -1    0    0    0  501 -0.00000000000E+00 -0.00000000000E+00 -0.14563922146E+03  0.14564475867E+03  0.12700000000E+01 0.  1.
         25    2    1    2    0    0  0.00000000000E+00  0.00000000000E+00 -0.11884096953E+03  0.17247308711E+03  0.12499515886E+03 0.  0.
    9000005    1    3    3    0    0  0.68681398200E+01 -0.51223244860E+02 -0.10949945266E+02  0.52838371095E+02  0.10000000000E+01 0.  0.
    9000005    1    3    3    0    0 -0.68681398200E+01  0.51223244860E+02 -0.10789102426E+03  0.11963471601E+03  0.10000000000E+01 0.  0.
<mgrwt>
<rscale>  0 0.12499516E+03</rscale>
<asrwt>0</asrwt>
<pdfrwt beam="1">  1        4 0.41255476E-02 0.12499516E+03</pdfrwt>
<pdfrwt beam="2">  1       -4 0.22408773E-01 0.12499516E+03</pdfrwt>
<totfact> 0.95000006E+03</totfact>
</mgrwt>
</event>
<event>
 5    1  0.3486589E-002  0.1249986E+03  0.7818608E-02  0.1235071E+00
         -4   -1    0    0    0  501 -0.00000000000E+00  0.00000000000E+00  0.49799291399E+01  0.51393184605E+01  0.12700000000E+01 0.  1.
          4   -1    0    0  501    0  0.00000000000E+00 -0.00000000000E+00 -0.77186634427E+03  0.77186738908E+03  0.12700000000E+01 0.  1.
         25    2    1    2    0    0  0.00000000000E+00  0.00000000000E+00 -0.76688641513E+03  0.77700670754E+03  0.12499859937E+03 0.  0.
    9000005    1    3    3    0    0 -0.40242002543E+01 -0.71261537145E+01 -0.76855129703E+03  0.76859551938E+03  0.10000000000E+01 0.  0.
    9000005    1    3    3    0    0  0.40242002543E+01  0.71261537145E+01  0.16648818940E+01  0.84111881545E+01  0.10000000000E+01 0.  0.
<mgrwt>
<rscale>  0 0.12499860E+03</rscale>
<asrwt>0</asrwt>
<pdfrwt beam="2">  1        4 0.11876092E+00 0.12499860E+03</pdfrwt>
<pdfrwt beam="1">  1       -4 0.77848464E-03 0.12499860E+03</pdfrwt>
<totfact> 0.39313264E+03</totfact>
</mgrwt>
</event>
<event>
 5    1  0.3486589E-002  0.1249903E+03  0.7818608E-02  0.1235084E+00
          4   -1    0    0  501    0  0.00000000000E+00  0.00000000000E+00  0.16881319522E+02  0.16929023858E+02  0.12700000000E+01 0.  1.
         -4   -1    0    0    0  501 -0.00000000000E+00 -0.00000000000E+00 -0.23098310432E+03  0.23098659568E+03  0.12700000000E+01 0.  1.
         25    2    1    2    0    0  0.00000000000E+00  0.00000000000E+00 -0.21410178480E+03  0.24791561954E+03  0.12499032024E+03 0.  0.
    9000005    1    3    3    0    0  0.39113306589E+02 -0.47704738722E+02 -0.12679145608E+03  0.14100590833E+03  0.10000000000E+01 0.  0.
    9000005    1    3    3    0    0 -0.39113306589E+02  0.47704738722E+02 -0.87310328723E+02  0.10690971121E+03  0.10000000000E+01 0.  0.
<mgrwt>
<rscale>  0 0.12499032E+03</rscale>
<asrwt>0</asrwt>
<pdfrwt beam="1">  1        4 0.26010644E-02 0.12499032E+03</pdfrwt>
<pdfrwt beam="2">  1       -4 0.35539798E-01 0.12499032E+03</pdfrwt>
<totfact> 0.82650246E+03</totfact>
</mgrwt>
</event>
<event>
 5    1  0.3486589E-002  0.1249983E+03  0.7818608E-02  0.1235072E+00
         -4   -1    0    0    0  501 -0.00000000000E+00  0.00000000000E+00  0.10728609741E+03  0.10729361396E+03  0.12700000000E+01 0.  1.
          4   -1    0    0  501    0  0.00000000000E+00 -0.00000000000E+00 -0.36388812951E+02  0.36410968237E+02  0.12700000000E+01 0.  1.
         25    2    1    2    0    0  0.00000000000E+00  0.00000000000E+00  0.70897284460E+02  0.14370458220E+03  0.12499832800E+03 0.  0.
    9000005    1    3    3    0    0 -0.34519937202E+02  0.42717261095E+02  0.11752216002E+01  0.54943349057E+02  0.10000000000E+01 0.  0.
    9000005    1    3    3    0    0  0.34519937202E+02 -0.42717261095E+02  0.69722062860E+02  0.88761233144E+02  0.10000000000E+01 0.  0.
<mgrwt>
<rscale>  0 0.12499833E+03</rscale>
<asrwt>0</asrwt>
<pdfrwt beam="2">  1        4 0.56005614E-02 0.12499833E+03</pdfrwt>
<pdfrwt beam="1">  1       -4 0.16507836E-01 0.12499833E+03</pdfrwt>
<totfact> 0.10057754E+04</totfact>
</mgrwt>
</event>
<event>
 5    1  0.3486589E-002  0.1250128E+03  0.7818608E-02  0.1235049E+00
          4   -1    0    0  501    0  0.00000000000E+00  0.00000000000E+00  0.66917749775E+02  0.66929800052E+02  0.12700000000E+01 0.  1.
         -4   -1    0    0    0  501 -0.00000000000E+00 -0.00000000000E+00 -0.58361599295E+02  0.58375415821E+02  0.12700000000E+01 0.  1.
         25    2    1    2    0    0  0.00000000000E+00  0.00000000000E+00  0.85561504799E+01  0.12530521587E+03  0.12501275701E+03 0.  0.
    9000005    1    3    3    0    0  0.26872800281E+02 -0.11880125770E+02 -0.51012212303E+02  0.58877250167E+02  0.10000000000E+01 0.  0.
    9000005    1    3    3    0    0 -0.26872800281E+02  0.11880125770E+02  0.59568362782E+02  0.66427965706E+02  0.10000000000E+01 0.  0.
<mgrwt>
<rscale>  0 0.12501276E+03</rscale>
<asrwt>0</asrwt>
<pdfrwt beam="1">  1        4 0.10297028E-01 0.12501276E+03</pdfrwt>
<pdfrwt beam="2">  1       -4 0.89806973E-02 0.12501276E+03</pdfrwt>
<totfact> 0.10443226E+04</totfact>
</mgrwt>
</event>
<event>
 5    1  0.3486589E-002  0.1249986E+03  0.7818608E-02  0.1235071E+00
         -4   -1    0    0    0  501 -0.00000000000E+00  0.00000000000E+00  0.11027889525E+03  0.11028620783E+03  0.12700000000E+01 0.  1.
          4   -1    0    0  501    0  0.00000000000E+00 -0.00000000000E+00 -0.35400911159E+02  0.35423684322E+02  0.12700000000E+01 0.  1.
         25    2    1    2    0    0  0.00000000000E+00  0.00000000000E+00  0.74877984092E+02  0.14570989215E+03  0.12499864067E+03 0.  0.
    9000005    1    3    3    0    0  0.28909450137E+02  0.55363693040E+02  0.39847839427E+02  0.74092814235E+02  0.10000000000E+01 0.  0.
    9000005    1    3    3    0    0 -0.28909450137E+02 -0.55363693040E+02  0.35030144664E+02  0.71617077918E+02  0.10000000000E+01 0.  0.
<mgrwt>
<rscale>  0 0.12499864E+03</rscale>
<asrwt>0</asrwt>
<pdfrwt beam="2">  1        4 0.54486084E-02 0.12499864E+03</pdfrwt>
<pdfrwt beam="1">  1       -4 0.16968298E-01 0.12499864E+03</pdfrwt>
<totfact> 0.10016892E+04</totfact>
</mgrwt>
</event>
<event>
 5    1  0.3486589E-002  0.1249949E+03  0.7818608E-02  0.1235077E+00
          4   -1    0    0  501    0  0.00000000000E+00  0.00000000000E+00  0.15309233853E+02  0.15361820894E+02  0.12700000000E+01 0. -1.
         -4   -1    0    0    0  501 -0.00000000000E+00 -0.00000000000E+00 -0.25464416008E+03  0.25464732703E+03  0.12700000000E+01 0. -1.
         25    2    1    2    0    0  0.00000000000E+00  0.00000000000E+00 -0.23933492623E+03  0.27000914793E+03  0.12499493210E+03 0.  0.
    9000005    1    3    3    0    0 -0.41836218674E+02 -0.23450402605E+02 -0.20620186097E+03  0.21170828525E+03  0.10000000000E+01 0.  0.
    9000005    1    3    3    0    0  0.41836218674E+02  0.23450402605E+02 -0.33133065255E+02  0.58300862674E+02  0.10000000000E+01 0.  0.
<mgrwt>
<rscale>  0 0.12499493E+03</rscale>
<asrwt>0</asrwt>
<pdfrwt beam="1">  1        4 0.23595557E-02 0.12499493E+03</pdfrwt>
<pdfrwt beam="2">  1       -4 0.39180311E-01 0.12499493E+03</pdfrwt>
<totfact> 0.79530586E+03</totfact>
</mgrwt>
</event>
<event>
 5    1  0.3486589E-002  0.1249984E+03  0.7818608E-02  0.1235072E+00
          4   -1    0    0  501    0  0.00000000000E+00  0.00000000000E+00  0.46483108716E+02  0.46500454792E+02  0.12700000000E+01 0.  1.
         -4   -1    0    0    0  501 -0.00000000000E+00 -0.00000000000E+00 -0.83995950420E+02  0.84005550930E+02  0.12700000000E+01 0.  1.
         25    2    1    2    0    0  0.00000000000E+00  0.00000000000E+00 -0.37512841705E+02  0.13050600572E+03  0.12499841694E+03 0.  0.
    9000005    1    3    3    0    0  0.52999217681E+02 -0.30925532178E+02 -0.31103099534E+02  0.68801950669E+02  0.10000000000E+01 0.  0.
    9000005    1    3    3    0    0 -0.52999217681E+02  0.30925532178E+02 -0.64097421713E+01  0.61704055053E+02  0.10000000000E+01 0.  0.
<mgrwt>
<rscale>  0 0.12499842E+03</rscale>
<asrwt>0</asrwt>
<pdfrwt beam="1">  1        4 0.71533203E-02 0.12499842E+03</pdfrwt>
<pdfrwt beam="2">  1       -4 0.12924527E-01 0.12499842E+03</pdfrwt>
<totfact> 0.10334060E+04</totfact>
</mgrwt>
</event>
<event>
 5    1  0.3486589E-002  0.1250010E+03  0.7818608E-02  0.1235068E+00
          4   -1    0    0  501    0  0.00000000000E+00  0.00000000000E+00  0.16888180159E+03  0.16888657676E+03  0.12700000000E+01 0. -1.
         -4   -1    0    0    0  501 -0.00000000000E+00 -0.00000000000E+00 -0.23107915034E+02  0.23142788018E+02  0.12700000000E+01 0. -1.
         25    2    1    2    0    0  0.00000000000E+00  0.00000000000E+00  0.14577388656E+03  0.19202936478E+03  0.12500100373E+03 0.  0.
    9000005    1    3    3    0    0  0.25186182096E+02 -0.12066771885E+02  0.15876936998E+03  0.16120999844E+03  0.10000000000E+01 0.  0.
    9000005    1    3    3    0    0 -0.25186182096E+02  0.12066771885E+02 -0.12995483420E+02  0.30819366340E+02  0.10000000000E+01 0.  0.
<mgrwt>
<rscale>  0 0.12500100E+03</rscale>
<asrwt>0</asrwt>
<pdfrwt beam="1">  1        4 0.25984866E-01 0.12500100E+03</pdfrwt>
<pdfrwt beam="2">  1       -4 0.35581137E-02 0.12500100E+03</pdfrwt>
<totfact> 0.91493349E+03</totfact>
</mgrwt>
</event>
<event>
 5    1  0.3486589E-002  0.1249965E+03  0.7818608E-02  0.1235075E+00
          4   -1    0    0  501    0  0.00000000000E+00  0.00000000000E+00  0.25618934782E+03  0.25619249566E+03  0.12700000000E+01 0.  1.
         -4   -1    0    0    0  501 -0.00000000000E+00 -0.00000000000E+00 -0.15216975339E+02  0.15269880107E+02  0.12700000000E+01 0.  1.
         25    2    1    2    0    0  0.00000000000E+00  0.00000000000E+00  0.24097237248E+03  0.27146237577E+03  0.12499654860E+03 0.  0.
    9000005    1    3    3    0    0 -0.58983406445E+02 -0.18902448872E+02  0.10248683954E+03  0.11975348466E+03  0.10000000000E+01 0.  0.
    9000005    1    3    3    0    0  0.58983406445E+02  0.18902448872E+02  0.13848553294E+03  0.15170889111E+03  0.10000000000E+01 0.  0.
<mgrwt>
<rscale>  0 0.12499655E+03</rscale>
<asrwt>0</asrwt>
<pdfrwt beam="1">  1        4 0.39418056E-01 0.12499655E+03</pdfrwt>
<pdfrwt beam="2">  1       -4 0.23453850E-02 0.12499655E+03</pdfrwt>
<totfact> 0.79330002E+03</totfact>
</mgrwt>
</event>
<event>
 5    1  0.3486589E-002  0.1250051E+03  0.7818608E-02  0.1235061E+00
          4   -1    0    0  501    0  0.00000000000E+00  0.00000000000E+00  0.33571230341E+02  0.33595243809E+02  0.12700000000E+01 0. -1.
         -4   -1    0    0    0  501 -0.00000000000E+00 -0.00000000000E+00 -0.11629752390E+03  0.11630445806E+03  0.12700000000E+01 0. -1.
         25    2    1    2    0    0  0.00000000000E+00  0.00000000000E+00 -0.82726293556E+02  0.14989970187E+03  0.12500512379E+03 0.  0.
    9000005    1    3    3    0    0 -0.54370451206E+02 -0.39652022424E+01 -0.78004961242E+02  0.95171648990E+02  0.10000000000E+01 0.  0.
    9000005    1    3    3    0    0  0.54370451206E+02  0.39652022424E+01 -0.47213323142E+01  0.54728052879E+02  0.10000000000E+01 0.  0.
<mgrwt>
<rscale>  0 0.12500512E+03</rscale>
<asrwt>0</asrwt>
<pdfrwt beam="1">  1        4 0.51671853E-02 0.12500512E+03</pdfrwt>
<pdfrwt beam="2">  1       -4 0.17894307E-01 0.12500512E+03</pdfrwt>
<totfact> 0.99312242E+03</totfact>
</mgrwt>
</event>
<event>
 5    1  0.3486589E-002  0.1250017E+03  0.7818608E-02  0.1235067E+00
          4   -1    0    0  501    0  0.00000000000E+00  0.00000000000E+00  0.36544941599E+01  0.38688793681E+01  0.12700000000E+01 0.  1.
         -4   -1    0    0    0  501 -0.00000000000E+00 -0.00000000000E+00 -0.10382438982E+04  0.10382446750E+04  0.12700000000E+01 0.  1.
         25    2    1    2    0    0  0.00000000000E+00  0.00000000000E+00 -0.10345894041E+04  0.10421135543E+04  0.12500170051E+03 0.  0.
    9000005    1    3    3    0    0  0.34547828585E+02 -0.51941415495E+02 -0.54836890039E+03  0.55190661712E+03  0.10000000000E+01 0.  0.
    9000005    1    3    3    0    0 -0.34547828585E+02  0.51941415495E+02 -0.48622050366E+03  0.49020693721E+03  0.10000000000E+01 0.  0.
<mgrwt>
<rscale>  0 0.12500170E+03</rscale>
<asrwt>0</asrwt>
<pdfrwt beam="1">  1        4 0.57878162E-03 0.12500170E+03</pdfrwt>
<pdfrwt beam="2">  1       -4 0.15974615E+00 0.12500170E+03</pdfrwt>
<totfact> 0.29241257E+03</totfact>
</mgrwt>
</event>
<event>
 5    1  0.3486589E-002  0.1250028E+03  0.7818608E-02  0.1235065E+00
         -4   -1    0    0    0  501 -0.00000000000E+00  0.00000000000E+00  0.37252461305E+01  0.39357793044E+01  0.12700000000E+01 0.  1.
          4   -1    0    0  501    0  0.00000000000E+00 -0.00000000000E+00 -0.10196069409E+04  0.10196077319E+04  0.12700000000E+01 0.  1.
         25    2    1    2    0    0  0.00000000000E+00  0.00000000000E+00 -0.10158816948E+04  0.10235435112E+04  0.12500280574E+03 0.  0.
    9000005    1    3    3    0    0  0.31167860507E+02  0.50992154721E+02 -0.65753795675E+03  0.66024904387E+03  0.10000000000E+01 0.  0.
    9000005    1    3    3    0    0 -0.31167860507E+02 -0.50992154721E+02 -0.35834373803E+03  0.36329446728E+03  0.10000000000E+01 0.  0.
<mgrwt>
<rscale>  0 0.12500281E+03</rscale>
<asrwt>0</asrwt>
<pdfrwt beam="2">  1        4 0.15687865E+00 0.12500281E+03</pdfrwt>
<pdfrwt beam="1">  1       -4 0.58937130E-03 0.12500281E+03</pdfrwt>
<totfact> 0.29833643E+03</totfact>
</mgrwt>
</event>
<event>
 5    1  0.3486589E-002  0.1249870E+03  0.7818608E-02  0.1235090E+00
          4   -1    0    0  501    0  0.00000000000E+00  0.00000000000E+00  0.44843522472E+01  0.46607204462E+01  0.12700000000E+01 0. -1.
         -4   -1    0    0    0  501 -0.00000000000E+00 -0.00000000000E+00 -0.85393108133E+03  0.85393202573E+03  0.12700000000E+01 0. -1.
         25    2    1    2    0    0  0.00000000000E+00  0.00000000000E+00 -0.84944672909E+03  0.85859274618E+03  0.12498703225E+03 0.  0.
    9000005    1    3    3    0    0  0.51771538248E+02 -0.44566136045E+01 -0.66311283791E+03  0.66514644205E+03  0.10000000000E+01 0.  0.
    9000005    1    3    3    0    0 -0.51771538248E+02  0.44566136045E+01 -0.18633389118E+03  0.19344630413E+03  0.10000000000E+01 0.  0.
<mgrwt>
<rscale>  0 0.12498703E+03</rscale>
<asrwt>0</asrwt>
<pdfrwt beam="1">  1        4 0.70354045E-03 0.12498703E+03</pdfrwt>
<pdfrwt beam="2">  1       -4 0.13138753E+00 0.12498703E+03</pdfrwt>
<totfact> 0.35788422E+03</totfact>
</mgrwt>
</event>
<event>
 5    1  0.3486589E-002  0.1250011E+03  0.7818608E-02  0.1235068E+00
         -4   -1    0    0    0  501 -0.00000000000E+00  0.00000000000E+00  0.48741863712E+02  0.48758406230E+02  0.12700000000E+01 0. -1.
          4   -1    0    0  501    0  0.00000000000E+00 -0.00000000000E+00 -0.80107786878E+02  0.80117853306E+02  0.12700000000E+01 0. -1.
         25    2    1    2    0    0  0.00000000000E+00  0.00000000000E+00 -0.31365923166E+02  0.12887625954E+03  0.12500107654E+03 0.  0.
    9000005    1    3    3    0    0 -0.33054308452E+02 -0.53031576991E+02 -0.15045890742E+02  0.64283079372E+02  0.10000000000E+01 0.  0.
    9000005    1    3    3    0    0  0.33054308452E+02  0.53031576991E+02 -0.16320032424E+02  0.64593180164E+02  0.10000000000E+01 0.  0.
<mgrwt>
<rscale>  0 0.12500108E+03</rscale>
<asrwt>0</asrwt>
<pdfrwt beam="2">  1        4 0.12326322E-01 0.12500108E+03</pdfrwt>
<pdfrwt beam="1">  1       -4 0.75007951E-02 0.12500108E+03</pdfrwt>
<totfact> 0.10368355E+04</totfact>
</mgrwt>
</event>
<event>
 5    1  0.3486589E-002  0.1249991E+03  0.7818608E-02  0.1235071E+00
         -4   -1    0    0    0  501 -0.00000000000E+00  0.00000000000E+00  0.15443523641E+03  0.15444045826E+03  0.12700000000E+01 0. -1.
          4   -1    0    0  501    0  0.00000000000E+00 -0.00000000000E+00 -0.25271824989E+02  0.25303715898E+02  0.12700000000E+01 0. -1.
         25    2    1    2    0    0  0.00000000000E+00  0.00000000000E+00  0.12916341143E+03  0.17974417415E+03  0.12499912516E+03 0.  0.
    9000005    1    3    3    0    0 -0.35589901914E+02 -0.30321746334E+02  0.49600245315E+01  0.47028196461E+02  0.10000000000E+01 0.  0.
    9000005    1    3    3    0    0  0.35589901914E+02  0.30321746334E+02  0.12420338689E+03  0.13271597769E+03  0.10000000000E+01 0.  0.
<mgrwt>
<rscale>  0 0.12499913E+03</rscale>
<asrwt>0</asrwt>
<pdfrwt beam="2">  1        4 0.38908278E-02 0.12499913E+03</pdfrwt>
<pdfrwt beam="1">  1       -4 0.23762123E-01 0.12499913E+03</pdfrwt>
<totfact> 0.93664909E+03</totfact>
</mgrwt>
</event>
<event>
 5    1  0.3486589E-002  0.1250004E+03  0.7818608E-02  0.1235069E+00
         -4   -1    0    0    0  501 -0.00000000000E+00  0.00000000000E+00  0.55713517297E+02  0.55727990360E+02  0.12700000000E+01 0.  1.
          4   -1    0    0  501    0  0.00000000000E+00 -0.00000000000E+00 -0.70084282234E+02  0.70095788149E+02  0.12700000000E+01 0.  1.
         25    2    1    2    0    0  0.00000000000E+00  0.00000000000E+00 -0.14370764938E+02  0.12582377851E+03  0.12500041741E+03 0.  0.
    9000005    1    3    3    0    0  0.10708358516E+02  0.60549262718E+02 -0.18412049834E+02  0.64194125408E+02  0.10000000000E+01 0.  0.
    9000005    1    3    3    0    0 -0.10708358516E+02 -0.60549262718E+02  0.40412848959E+01  0.61629653102E+02  0.10000000000E+01 0.  0.
<mgrwt>
<rscale>  0 0.12500042E+03</rscale>
<asrwt>0</asrwt>
<pdfrwt beam="2">  1        4 0.10784196E-01 0.12500042E+03</pdfrwt>
<pdfrwt beam="1">  1       -4 0.85733088E-02 0.12500042E+03</pdfrwt>
<totfact> 0.10434725E+04</totfact>
</mgrwt>
</event>
<event>
 5    1  0.3486589E-002  0.1250004E+03  0.7818608E-02  0.1235069E+00
         -4   -1    0    0    0  501 -0.00000000000E+00  0.00000000000E+00  0.13086802666E+02  0.13148281410E+02  0.12700000000E+01 0. -1.
          4   -1    0    0  501    0  0.00000000000E+00 -0.00000000000E+00 -0.29772741681E+03  0.29773012548E+03  0.12700000000E+01 0. -1.
         25    2    1    2    0    0  0.00000000000E+00  0.00000000000E+00 -0.28464061414E+03  0.31087840689E+03  0.12500041861E+03 0.  0.
    9000005    1    3    3    0    0  0.51821982217E+02 -0.18186868427E+01 -0.55578923183E+02  0.76018696154E+02  0.10000000000E+01 0.  0.
    9000005    1    3    3    0    0 -0.51821982217E+02  0.18186868427E+01 -0.22906169096E+03  0.23485971074E+03  0.10000000000E+01 0.  0.
<mgrwt>
<rscale>  0 0.12500042E+03</rscale>
<asrwt>0</asrwt>
<pdfrwt beam="2">  1        4 0.45809150E-01 0.12500042E+03</pdfrwt>
<pdfrwt beam="1">  1       -4 0.20182920E-02 0.12500042E+03</pdfrwt>
<totfact> 0.74253536E+03</totfact>
</mgrwt>
</event>
<event>
 5    1  0.3486589E-002  0.1249874E+03  0.7818608E-02  0.1235089E+00
         -4   -1    0    0    0  501 -0.00000000000E+00  0.00000000000E+00  0.10798892641E+02  0.10873315147E+02  0.12700000000E+01 0. -1.
          4   -1    0    0  501    0  0.00000000000E+00 -0.00000000000E+00 -0.36033630550E+03  0.36033854354E+03  0.12700000000E+01 0. -1.
         25    2    1    2    0    0  0.00000000000E+00  0.00000000000E+00 -0.34953741286E+03  0.37121185869E+03  0.12498736353E+03 0.  0.
    9000005    1    3    3    0    0 -0.35751152970E+01  0.45454247057E+02 -0.30166746884E+03  0.30509528311E+03  0.10000000000E+01 0.  0.
    9000005    1    3    3    0    0  0.35751152970E+01 -0.45454247057E+02 -0.47869944024E+02  0.66116575575E+02  0.10000000000E+01 0.  0.
<mgrwt>
<rscale>  0 0.12498736E+03</rscale>
<asrwt>0</asrwt>
<pdfrwt beam="2">  1        4 0.55442242E-01 0.12498736E+03</pdfrwt>
<pdfrwt beam="1">  1       -4 0.16672653E-02 0.12498736E+03</pdfrwt>
<totfact> 0.67471195E+03</totfact>
</mgrwt>
</event>
<event>
 5    1  0.3486589E-002  0.1249728E+03  0.7818608E-02  0.1235112E+00
          4   -1    0    0  501    0  0.00000000000E+00  0.00000000000E+00  0.26782479687E+01  0.29641039425E+01  0.12700000000E+01 0. -1.
         -4   -1    0    0    0  501 -0.00000000000E+00 -0.00000000000E+00 -0.13837290761E+04  0.13837296589E+04  0.12700000000E+01 0. -1.
         25    2    1    2    0    0  0.00000000000E+00  0.00000000000E+00 -0.13810508281E+04  0.13866937628E+04  0.12497280524E+03 0.  0.
    9000005    1    3    3    0    0 -0.35131644321E+02 -0.56834013199E+01 -0.12072663951E+03  0.12586681441E+03  0.10000000000E+01 0.  0.
    9000005    1    3    3    0    0  0.35131644321E+02  0.56834013199E+01 -0.12603241886E+04  0.12608269484E+04  0.10000000000E+01 0.  0.
<mgrwt>
<rscale>  0 0.12497281E+03</rscale>
<asrwt>0</asrwt>
<pdfrwt beam="1">  1        4 0.43407301E-03 0.12497281E+03</pdfrwt>
<pdfrwt beam="2">  1       -4 0.21290289E+00 0.12497281E+03</pdfrwt>
<totfact> 0.20280397E+03</totfact>
</mgrwt>
</event>
<event>
 5    1  0.3486589E-002  0.1249833E+03  0.7818608E-02  0.1235095E+00
         -4   -1    0    0    0  501 -0.00000000000E+00  0.00000000000E+00  0.45124281495E+02  0.45142149710E+02  0.12700000000E+01 0. -1.
          4   -1    0    0  501    0  0.00000000000E+00 -0.00000000000E+00 -0.86503693472E+02  0.86513015693E+02  0.12700000000E+01 0. -1.
         25    2    1    2    0    0  0.00000000000E+00  0.00000000000E+00 -0.41379411977E+02  0.13165516540E+03  0.12498330625E+03 0.  0.
    9000005    1    3    3    0    0 -0.57903805403E+02  0.23355497371E+02 -0.23243320528E+02  0.66630187504E+02  0.10000000000E+01 0.  0.
    9000005    1    3    3    0    0  0.57903805403E+02 -0.23355497371E+02 -0.18136091449E+02  0.65024977898E+02  0.10000000000E+01 0.  0.
<mgrwt>
<rscale>  0 0.12498331E+03</rscale>
<asrwt>0</asrwt>
<pdfrwt beam="2">  1        4 0.13310352E-01 0.12498331E+03</pdfrwt>
<pdfrwt beam="1">  1       -4 0.69442888E-02 0.12498331E+03</pdfrwt>
<totfact> 0.10312947E+04</totfact>
</mgrwt>
</event>
<event>
 5    1  0.3486589E-002  0.1250047E+03  0.7818608E-02  0.1235062E+00
         -4   -1    0    0    0  501 -0.00000000000E+00  0.00000000000E+00  0.19659755404E+02  0.19700733046E+02  0.12700000000E+01 0.  1.
          4   -1    0    0  501    0  0.00000000000E+00 -0.00000000000E+00 -0.19845775647E+03  0.19846182001E+03  0.12700000000E+01 0.  1.
         25    2    1    2    0    0  0.00000000000E+00  0.00000000000E+00 -0.17879800107E+03  0.21816255306E+03  0.12500469740E+03 0.  0.
    9000005    1    3    3    0    0  0.33244605687E+02  0.31908821866E+02 -0.15722658135E+02  0.48698857266E+02  0.10000000000E+01 0.  0.
    9000005    1    3    3    0    0 -0.33244605687E+02 -0.31908821866E+02 -0.16307534293E+03  0.16946369579E+03  0.10000000000E+01 0.  0.
<mgrwt>
<rscale>  0 0.12500470E+03</rscale>
<asrwt>0</asrwt>
<pdfrwt beam="2">  1        4 0.30535426E-01 0.12500470E+03</pdfrwt>
<pdfrwt beam="1">  1       -4 0.30280426E-02 0.12500470E+03</pdfrwt>
<totfact> 0.87150794E+03</totfact>
</mgrwt>
</event>
<event>
 5    1  0.3486589E-002  0.1249991E+03  0.7818608E-02  0.1235071E+00
          4   -1    0    0  501    0  0.00000000000E+00  0.00000000000E+00  0.27569066094E+02  0.27598302580E+02  0.12700000000E+01 0.  1.
         -4   -1    0    0    0  501 -0.00000000000E+00 -0.00000000000E+00 -0.14158034546E+03  0.14158604141E+03  0.12700000000E+01 0.  1.
         25    2    1    2    0    0  0.00000000000E+00  0.00000000000E+00 -0.11401127937E+03  0.16918434399E+03  0.12499908171E+03 0.  0.
    9000005    1    3    3    0    0 -0.27729622334E+02  0.31126165715E+02  0.60066315773E+01  0.42128965924E+02  0.10000000000E+01 0.  0.
    9000005    1    3    3    0    0  0.27729622334E+02 -0.31126165715E+02 -0.12001791095E+03  0.12705537806E+03  0.10000000000E+01 0.  0.
<mgrwt>
<rscale>  0 0.12499908E+03</rscale>
<asrwt>0</asrwt>
<pdfrwt beam="1">  1        4 0.42440820E-02 0.12499908E+03</pdfrwt>
<pdfrwt beam="2">  1       -4 0.21784278E-01 0.12499908E+03</pdfrwt>
<totfact> 0.95602731E+03</totfact>
</mgrwt>
</event>
<event>
 5    1  0.3486589E-002  0.1249893E+03  0.7818608E-02  0.1235086E+00
         -4   -1    0    0    0  501 -0.00000000000E+00  0.00000000000E+00  0.39271604543E+02  0.39292134370E+02  0.12700000000E+01 0. -1.
          4   -1    0    0  501    0  0.00000000000E+00 -0.00000000000E+00 -0.99399995808E+02  0.99408108657E+02  0.12700000000E+01 0. -1.
         25    2    1    2    0    0  0.00000000000E+00  0.00000000000E+00 -0.60128391265E+02  0.13870024303E+03  0.12498933546E+03 0.  0.
    9000005    1    3    3    0    0 -0.58478202193E+00 -0.97771021978E+01  0.38419909251E+02  0.39661355553E+02  0.10000000000E+01 0.  0.
    9000005    1    3    3    0    0  0.58478202193E+00  0.97771021978E+01 -0.98548300517E+02  0.99038887474E+02  0.10000000000E+01 0.  0.
<mgrwt>
<rscale>  0 0.12498934E+03</rscale>
<asrwt>0</asrwt>
<pdfrwt beam="2">  1        4 0.15294510E-01 0.12498934E+03</pdfrwt>
<pdfrwt beam="1">  1       -4 0.60439886E-02 0.12498934E+03</pdfrwt>
<totfact> 0.10163037E+04</totfact>
</mgrwt>
</event>
<event>
 5    1  0.3486589E-002  0.1250052E+03  0.7818608E-02  0.1235061E+00
          4   -1    0    0  501    0  0.00000000000E+00  0.00000000000E+00  0.98675249679E+02  0.98683422110E+02  0.12700000000E+01 0.  1.
         -4   -1    0    0    0  501 -0.00000000000E+00 -0.00000000000E+00 -0.39570225632E+02  0.39590600609E+02  0.12700000000E+01 0.  1.
         25    2    1    2    0    0  0.00000000000E+00  0.00000000000E+00  0.59105024047E+02  0.13827402272E+03  0.12500520586E+03 0.  0.
    9000005    1    3    3    0    0  0.45569003782E+02  0.85029172103E+01 -0.16809945562E+02  0.49319448258E+02  0.10000000000E+01 0.  0.
    9000005    1    3    3    0    0 -0.45569003782E+02 -0.85029172103E+01  0.75914969609E+02  0.88954574460E+02  0.10000000000E+01 0.  0.
<mgrwt>
<rscale>  0 0.12500521E+03</rscale>
<asrwt>0</asrwt>
<pdfrwt beam="1">  1        4 0.15183003E-01 0.12500521E+03</pdfrwt>
<pdfrwt beam="2">  1       -4 0.60899231E-02 0.12500521E+03</pdfrwt>
<totfact> 0.10168291E+04</totfact>
</mgrwt>
</event>
<event>
 5    1  0.3486589E-002  0.1249999E+03  0.7818608E-02  0.1235069E+00
         -4   -1    0    0    0  501 -0.00000000000E+00  0.00000000000E+00  0.99168864048E+01  0.99978765728E+01  0.12700000000E+01 0. -1.
          4   -1    0    0  501    0  0.00000000000E+00 -0.00000000000E+00 -0.39221442821E+03  0.39221648435E+03  0.12700000000E+01 0. -1.
         25    2    1    2    0    0  0.00000000000E+00  0.00000000000E+00 -0.38229754181E+03  0.40221436093E+03  0.12499992665E+03 0.  0.
    9000005    1    3    3    0    0  0.31143676093E+02  0.19835540309E+02 -0.28921325911E+02  0.46912901343E+02  0.10000000000E+01 0.  0.
    9000005    1    3    3    0    0 -0.31143676093E+02 -0.19835540309E+02 -0.35337621590E+03  0.35530145958E+03  0.10000000000E+01 0.  0.
<mgrwt>
<rscale>  0 0.12499993E+03</rscale>
<asrwt>0</asrwt>
<pdfrwt beam="2">  1        4 0.60347057E-01 0.12499993E+03</pdfrwt>
<pdfrwt beam="1">  1       -4 0.15320633E-02 0.12499993E+03</pdfrwt>
<totfact> 0.64338101E+03</totfact>
</mgrwt>
</event>
<event>
 5    1  0.3486589E-002  0.1250050E+03  0.7818608E-02  0.1235062E+00
         -4   -1    0    0    0  501 -0.00000000000E+00  0.00000000000E+00  0.21957733960E+02  0.21994430674E+02  0.12700000000E+01 0. -1.
          4   -1    0    0  501    0  0.00000000000E+00 -0.00000000000E+00 -0.17772523838E+03  0.17772977595E+03  0.12700000000E+01 0. -1.
         25    2    1    2    0    0  0.00000000000E+00  0.00000000000E+00 -0.15576750442E+03  0.19972420662E+03  0.12500497301E+03 0.  0.
    9000005    1    3    3    0    0 -0.31313173664E+02  0.53474916090E+02 -0.64955032947E+02  0.89778827131E+02  0.10000000000E+01 0.  0.
    9000005    1    3    3    0    0  0.31313173664E+02 -0.53474916090E+02 -0.90812471474E+02  0.10994537949E+03  0.10000000000E+01 0.  0.
<mgrwt>
<rscale>  0 0.12500497E+03</rscale>
<asrwt>0</asrwt>
<pdfrwt beam="2">  1        4 0.27345515E-01 0.12500497E+03</pdfrwt>
<pdfrwt beam="1">  1       -4 0.33812849E-02 0.12500497E+03</pdfrwt>
<totfact> 0.90172007E+03</totfact>
</mgrwt>
</event>
<event>
 5    1  0.3486589E-002  0.1250166E+03  0.7818608E-02  0.1235043E+00
         -4   -1    0    0    0  501 -0.00000000000E+00  0.00000000000E+00  0.24547832489E+02  0.24580662723E+02  0.12700000000E+01 0.  1.
          4   -1    0    0  501    0  0.00000000000E+00 -0.00000000000E+00 -0.15902859247E+03  0.15903366349E+03  0.12700000000E+01 0.  1.
         25    2    1    2    0    0  0.00000000000E+00  0.00000000000E+00 -0.13448075998E+03  0.18361432621E+03  0.12501658284E+03 0.  0.
    9000005    1    3    3    0    0 -0.25212262592E+02 -0.22513822988E+02 -0.14445308997E+03  0.14835843627E+03  0.10000000000E+01 0.  0.
    9000005    1    3    3    0    0  0.25212262592E+02  0.22513822988E+02  0.99723299854E+01  0.35255889946E+02  0.10000000000E+01 0.  0.
<mgrwt>
<rscale>  0 0.12501658E+03</rscale>
<asrwt>0</asrwt>
<pdfrwt beam="2">  1        4 0.24468852E-01 0.12501658E+03</pdfrwt>
<pdfrwt beam="1">  1       -4 0.37795052E-02 0.12501658E+03</pdfrwt>
<totfact> 0.92935882E+03</totfact>
</mgrwt>
</event>
<event>
 5    1  0.3486589E-002  0.1250227E+03  0.7818608E-02  0.1235034E+00
         -4   -1    0    0    0  501 -0.00000000000E+00  0.00000000000E+00  0.81480632968E+02  0.81490529811E+02  0.12700000000E+01 0. -1.
          4   -1    0    0  501    0  0.00000000000E+00 -0.00000000000E+00 -0.47937033911E+02  0.47953854070E+02  0.12700000000E+01 0. -1.
         25    2    1    2    0    0  0.00000000000E+00  0.00000000000E+00  0.33543599057E+02  0.12944438388E+03  0.12502269986E+03 0.  0.
    9000005    1    3    3    0    0 -0.10343535576E+02  0.42104299212E+02 -0.29841663807E+02  0.52643001806E+02  0.10000000000E+01 0.  0.
    9000005    1    3    3    0    0  0.10343535576E+02 -0.42104299212E+02  0.63385262864E+02  0.76801382075E+02  0.10000000000E+01 0.  0.
<mgrwt>
<rscale>  0 0.12502270E+03</rscale>
<asrwt>0</asrwt>
<pdfrwt beam="2">  1        4 0.73769835E-02 0.12502270E+03</pdfrwt>
<pdfrwt beam="1">  1       -4 0.12537537E-01 0.12502270E+03</pdfrwt>
<totfact> 0.10351103E+04</totfact>
</mgrwt>
</event>
<event>
 5    1  0.3486589E-002  0.1250006E+03  0.7818608E-02  0.1235068E+00
          4   -1    0    0  501    0  0.00000000000E+00  0.00000000000E+00  0.21574192315E+03  0.21574566115E+03  0.12700000000E+01 0.  1.
         -4   -1    0    0    0  501 -0.00000000000E+00 -0.00000000000E+00 -0.18080124379E+02  0.18124673723E+02  0.12700000000E+01 0.  1.
         25    2    1    2    0    0  0.00000000000E+00  0.00000000000E+00  0.19766179878E+03  0.23387033488E+03  0.12500058736E+03 0.  0.
    9000005    1    3    3    0    0 -0.57864845090E+02  0.23428316648E+02  0.93519106214E+02  0.11244576268E+03  0.10000000000E+01 0.  0.
    9000005    1    3    3    0    0  0.57864845090E+02 -0.23428316648E+02  0.10414269256E+03  0.12142457219E+03  0.10000000000E+01 0.  0.
<mgrwt>
<rscale>  0 0.12500059E+03</rscale>
<asrwt>0</asrwt>
<pdfrwt beam="1">  1        4 0.33194780E-01 0.12500059E+03</pdfrwt>
<pdfrwt beam="2">  1       -4 0.27852720E-02 0.12500059E+03</pdfrwt>
<totfact> 0.84717714E+03</totfact>
</mgrwt>
</event>
<event>
 5    1  0.3486589E-002  0.1249993E+03  0.7818608E-02  0.1235070E+00
          4   -1    0    0  501    0  0.00000000000E+00  0.00000000000E+00  0.26455954071E+01  0.29346337179E+01  0.12700000000E+01 0.  1.
         -4   -1    0    0    0  501 -0.00000000000E+00 -0.00000000000E+00 -0.13997273618E+04  0.13997279379E+04  0.12700000000E+01 0.  1.
         25    2    1    2    0    0  0.00000000000E+00  0.00000000000E+00 -0.13970817664E+04  0.14026625716E+04  0.12499931185E+03 0.  0.
    9000005    1    3    3    0    0  0.35028493007E+02 -0.44520731179E+02 -0.99460545793E+03  0.99621790175E+03  0.10000000000E+01 0.  0.
    9000005    1    3    3    0    0 -0.35028493007E+02  0.44520731179E+02 -0.40247630844E+03  0.40644466989E+03  0.10000000000E+01 0.  0.
<mgrwt>
<rscale>  0 0.12499931E+03</rscale>
<asrwt>0</asrwt>
<pdfrwt beam="1">  1        4 0.42929383E-03 0.12499931E+03</pdfrwt>
<pdfrwt beam="2">  1       -4 0.21536439E+00 0.12499931E+03</pdfrwt>
<totfact> 0.19924237E+03</totfact>
</mgrwt>
</event>
<event>
 5    1  0.3486589E-002  0.1250016E+03  0.7818608E-02  0.1235067E+00
         -4   -1    0    0    0  501 -0.00000000000E+00  0.00000000000E+00  0.19853546713E+02  0.19894125190E+02  0.12700000000E+01 0. -1.
          4   -1    0    0  501    0  0.00000000000E+00 -0.00000000000E+00 -0.19651466767E+03  0.19651877139E+03  0.12700000000E+01 0. -1.
         25    2    1    2    0    0  0.00000000000E+00  0.00000000000E+00 -0.17666112095E+03  0.21641289658E+03  0.12500156058E+03 0.  0.
    9000005    1    3    3    0    0 -0.46561552418E+02 -0.39537773971E+02 -0.11117651170E+03  0.12685594385E+03  0.10000000000E+01 0.  0.
    9000005    1    3    3    0    0  0.46561552418E+02  0.39537773971E+02 -0.65484609249E+02  0.89556952732E+02  0.10000000000E+01 0.  0.
<mgrwt>
<rscale>  0 0.12500156E+03</rscale>
<asrwt>0</asrwt>
<pdfrwt beam="2">  1        4 0.30236462E-01 0.12500156E+03</pdfrwt>
<pdfrwt beam="1">  1       -4 0.30578290E-02 0.12500156E+03</pdfrwt>
<totfact> 0.87436115E+03</totfact>
</mgrwt>
</event>
<event>
 5    1  0.3486589E-002  0.1250003E+03  0.7818608E-02  0.1235069E+00
         -4   -1    0    0    0  501 -0.00000000000E+00  0.00000000000E+00  0.42791995872E+03  0.42792184330E+03  0.12700000000E+01 0.  1.
          4   -1    0    0  501    0  0.00000000000E+00 -0.00000000000E+00 -0.90824180043E+01  0.91707805995E+01  0.12700000000E+01 0.  1.
         25    2    1    2    0    0  0.00000000000E+00  0.00000000000E+00  0.41883754072E+03  0.43709262390E+03  0.12500030541E+03 0.  0.
    9000005    1    3    3    0    0 -0.19584900341E+02  0.23206044302E+01  0.41676986141E+03  0.41723742750E+03  0.10000000000E+01 0.  0.
    9000005    1    3    3    0    0  0.19584900341E+02 -0.23206044302E+01  0.20676793061E+01  0.19855196398E+02  0.10000000000E+01 0.  0.
<mgrwt>
<rscale>  0 0.12500031E+03</rscale>
<asrwt>0</asrwt>
<pdfrwt beam="2">  1        4 0.14042369E-02 0.12500031E+03</pdfrwt>
<pdfrwt beam="1">  1       -4 0.65840792E-01 0.12500031E+03</pdfrwt>
<totfact> 0.61097889E+03</totfact>
</mgrwt>
</event>
<event>
 5    1  0.3486589E-002  0.1249998E+03  0.7818608E-02  0.1235070E+00
          4   -1    0    0  501    0  0.00000000000E+00  0.00000000000E+00  0.79246868766E+02  0.79257044540E+02  0.12700000000E+01 0. -1.
         -4   -1    0    0    0  501 -0.00000000000E+00 -0.00000000000E+00 -0.49270489940E+02  0.49286855032E+02  0.12700000000E+01 0. -1.
         25    2    1    2    0    0  0.00000000000E+00  0.00000000000E+00  0.29976378826E+02  0.12854389957E+03  0.12499980332E+03 0.  0.
    9000005    1    3    3    0    0 -0.51970649107E+02  0.18004884385E+02 -0.15519651762E+02  0.57157535121E+02  0.10000000000E+01 0.  0.
    9000005    1    3    3    0    0  0.51970649107E+02 -0.18004884385E+02  0.45496030587E+02  0.71386364451E+02  0.10000000000E+01 0.  0.
<mgrwt>
<rscale>  0 0.12499980E+03</rscale>
<asrwt>0</asrwt>
<pdfrwt beam="1">  1        4 0.12193867E-01 0.12499980E+03</pdfrwt>
<pdfrwt beam="2">  1       -4 0.75821171E-02 0.12499980E+03</pdfrwt>
<totfact> 0.10375804E+04</totfact>
</mgrwt>
</event>
<event>
 5    1  0.3486589E-002  0.1250501E+03  0.7818608E-02  0.1234991E+00
          4   -1    0    0  501    0  0.00000000000E+00  0.00000000000E+00  0.19200507526E+03  0.19200927536E+03  0.12700000000E+01 0. -1.
         -4   -1    0    0    0  501 -0.00000000000E+00 -0.00000000000E+00 -0.20336590022E+02  0.20376206558E+02  0.12700000000E+01 0. -1.
         25    2    1    2    0    0  0.00000000000E+00  0.00000000000E+00  0.17166848524E+03  0.21238548192E+03  0.12505008639E+03 0.  0.
    9000005    1    3    3    0    0  0.28483792445E+02 -0.41674446399E+02  0.23193427713E+02  0.55560966549E+02  0.10000000000E+01 0.  0.
    9000005    1    3    3    0    0 -0.28483792445E+02  0.41674446399E+02  0.14847505752E+03  0.15682451537E+03  0.10000000000E+01 0.  0.
<mgrwt>
<rscale>  0 0.12505009E+03</rscale>
<asrwt>0</asrwt>
<pdfrwt beam="1">  1        4 0.29542614E-01 0.12505009E+03</pdfrwt>
<pdfrwt beam="2">  1       -4 0.31320766E-02 0.12505009E+03</pdfrwt>
<totfact> 0.87989231E+03</totfact>
</mgrwt>
</event>
<event>
 5    1  0.3486589E-002  0.1250006E+03  0.7818608E-02  0.1235068E+00
         -4   -1    0    0    0  501 -0.00000000000E+00  0.00000000000E+00  0.53317674000E+03  0.53317825253E+03  0.12700000000E+01 0.  1.
          4   -1    0    0  501    0  0.00000000000E+00 -0.00000000000E+00 -0.72698636660E+01  0.73799605502E+01  0.12700000000E+01 0.  1.
         25    2    1    2    0    0  0.00000000000E+00  0.00000000000E+00  0.52590687633E+03  0.54055821308E+03  0.12500055663E+03 0.  0.
    9000005    1    3    3    0    0  0.36713786714E+01  0.54162675394E+02  0.39681656183E+03  0.40051399248E+03  0.10000000000E+01 0.  0.
    9000005    1    3    3    0    0 -0.36713786714E+01 -0.54162675394E+02  0.12909031450E+03  0.14004422061E+03  0.10000000000E+01 0.  0.
<mgrwt>
<rscale>  0 0.12500056E+03</rscale>
<asrwt>0</asrwt>
<pdfrwt beam="2">  1        4 0.11270261E-02 0.12500056E+03</pdfrwt>
<pdfrwt beam="1">  1       -4 0.82035759E-01 0.12500056E+03</pdfrwt>
<totfact> 0.52848733E+03</totfact>
</mgrwt>
</event>
<event>
 5    1  0.3486589E-002  0.1250009E+03  0.7818608E-02  0.1235068E+00
          4   -1    0    0  501    0  0.00000000000E+00  0.00000000000E+00  0.40478705523E+02  0.40498623444E+02  0.12700000000E+01 0.  1.
         -4   -1    0    0    0  501 -0.00000000000E+00 -0.00000000000E+00 -0.96454847046E+02  0.96463207591E+02  0.12700000000E+01 0.  1.
         25    2    1    2    0    0  0.00000000000E+00  0.00000000000E+00 -0.55976141523E+02  0.13696183103E+03  0.12500085896E+03 0.  0.
    9000005    1    3    3    0    0  0.21894534054E+02 -0.50915252251E+02  0.36461858851E+01  0.55552031509E+02  0.10000000000E+01 0.  0.
    9000005    1    3    3    0    0 -0.21894534054E+02  0.50915252251E+02 -0.59622327408E+02  0.81409799526E+02  0.10000000000E+01 0.  0.
<mgrwt>
<rscale>  0 0.12500086E+03</rscale>
<asrwt>0</asrwt>
<pdfrwt beam="1">  1        4 0.62296684E-02 0.12500086E+03</pdfrwt>
<pdfrwt beam="2">  1       -4 0.14841382E-01 0.12500086E+03</pdfrwt>
<totfact> 0.10196686E+04</totfact>
</mgrwt>
</event>
<event>
 5    1  0.3486589E-002  0.1250010E+03  0.7818608E-02  0.1235068E+00
         -4   -1    0    0    0  501 -0.00000000000E+00  0.00000000000E+00  0.45745758593E+03  0.45745934882E+03  0.12700000000E+01 0.  1.
          4   -1    0    0  501    0  0.00000000000E+00 -0.00000000000E+00 -0.84901671681E+01  0.85846280375E+01  0.12700000000E+01 0.  1.
         25    2    1    2    0    0  0.00000000000E+00  0.00000000000E+00  0.44896741876E+03  0.46604397686E+03  0.12500098103E+03 0.  0.
    9000005    1    3    3    0    0  0.13383341786E+02  0.49874470087E+02  0.35570449443E+03  0.35943464491E+03  0.10000000000E+01 0.  0.
    9000005    1    3    3    0    0 -0.13383341786E+02 -0.49874470087E+02  0.93262924331E+02  0.10660933195E+03  0.10000000000E+01 0.  0.
<mgrwt>
<rscale>  0 0.12500098E+03</rscale>
<asrwt>0</asrwt>
<pdfrwt beam="2">  1        4 0.13135809E-02 0.12500098E+03</pdfrwt>
<pdfrwt beam="1">  1       -4 0.70385517E-01 0.12500098E+03</pdfrwt>
<totfact> 0.58597393E+03</totfact>
</mgrwt>
</event>
<event>
 5    1  0.3486589E-002  0.1249982E+03  0.7818608E-02  0.1235072E+00
          4   -1    0    0  501    0  0.00000000000E+00  0.00000000000E+00  0.22977606538E+02  0.23012676989E+02  0.12700000000E+01 0.  1.
         -4   -1    0    0    0  501 -0.00000000000E+00 -0.00000000000E+00 -0.16983047777E+03  0.16983522626E+03  0.12700000000E+01 0.  1.
         25    2    1    2    0    0  0.00000000000E+00  0.00000000000E+00 -0.14685287123E+03  0.19284790325E+03  0.12499819198E+03 0.  0.
    9000005    1    3    3    0    0  0.18656421638E+02 -0.35055336238E+02  0.10161033646E+01  0.39736269743E+02  0.10000000000E+01 0.  0.
    9000005    1    3    3    0    0 -0.18656421638E+02  0.35055336238E+02 -0.14786897459E+03  0.15311163351E+03  0.10000000000E+01 0.  0.
<mgrwt>
<rscale>  0 0.12499819E+03</rscale>
<asrwt>0</asrwt>
<pdfrwt beam="1">  1        4 0.35380795E-02 0.12499819E+03</pdfrwt>
<pdfrwt beam="2">  1       -4 0.26130828E-01 0.12499819E+03</pdfrwt>
<totfact> 0.91357836E+03</totfact>
</mgrwt>
</event>
<event>
 5    1  0.3486589E-002  0.1249993E+03  0.7818608E-02  0.1235070E+00
         -4   -1    0    0    0  501 -0.00000000000E+00  0.00000000000E+00  0.84653750564E+02  0.84663276481E+02  0.12700000000E+01 0.  1.
          4   -1    0    0  501    0  0.00000000000E+00 -0.00000000000E+00 -0.46122472005E+02  0.46139953661E+02  0.12700000000E+01 0.  1.
         25    2    1    2    0    0  0.00000000000E+00  0.00000000000E+00  0.38531278559E+02  0.13080323014E+03  0.12499930235E+03 0.  0.
    9000005    1    3    3    0    0  0.16745910716E+02 -0.25564709979E+02  0.76305539593E+02  0.82204107529E+02  0.10000000000E+01 0.  0.
    9000005    1    3    3    0    0 -0.16745910716E+02  0.25564709979E+02 -0.37774261035E+02  0.48599122613E+02  0.10000000000E+01 0.  0.
<mgrwt>
<rscale>  0 0.12499930E+03</rscale>
<asrwt>0</asrwt>
<pdfrwt beam="2">  1        4 0.70978424E-02 0.12499930E+03</pdfrwt>
<pdfrwt beam="1">  1       -4 0.13025731E-01 0.12499930E+03</pdfrwt>
<totfact> 0.10327472E+04</totfact>
</mgrwt>
</event>
<event>
 5    1  0.3486589E-002  0.1249974E+03  0.7818608E-02  0.1235073E+00
          4   -1    0    0  501    0  0.00000000000E+00  0.00000000000E+00  0.17947728964E+04  0.17947733457E+04  0.12700000000E+01 0. -1.
         -4   -1    0    0    0  501 -0.00000000000E+00 -0.00000000000E+00 -0.19906062240E+01  0.23612312760E+01  0.12700000000E+01 0. -1.
         25    2    1    2    0    0  0.00000000000E+00  0.00000000000E+00  0.17927822901E+04  0.17971345770E+04  0.12499739162E+03 0.  0.
    9000005    1    3    3    0    0 -0.40618017013E+02 -0.34737108034E+02  0.13619600373E+04  0.13630086695E+04  0.10000000000E+01 0.  0.
    9000005    1    3    3    0    0  0.40618017013E+02  0.34737108034E+02  0.43082225285E+03  0.43412590746E+03  0.10000000000E+01 0.  0.
<mgrwt>
<rscale>  0 0.12499739E+03</rscale>
<asrwt>0</asrwt>
<pdfrwt beam="1">  1        4 0.27614790E+00 0.12499739E+03</pdfrwt>
<pdfrwt beam="2">  1       -4 0.33479075E-03 0.12499739E+03</pdfrwt>
<totfact> 0.12748369E+03</totfact>
</mgrwt>
</event>
<event>
 5    1  0.3486589E-002  0.1250001E+03  0.7818608E-02  0.1235069E+00
          4   -1    0    0  501    0  0.00000000000E+00  0.00000000000E+00  0.91452559609E+03  0.91452647791E+03  0.12700000000E+01 0. -1.
         -4   -1    0    0    0  501 -0.00000000000E+00 -0.00000000000E+00 -0.41760409621E+01  0.43648846625E+01  0.12700000000E+01 0. -1.
         25    2    1    2    0    0  0.00000000000E+00  0.00000000000E+00  0.91034955513E+03  0.91889136257E+03  0.12500009478E+03 0.  0.
    9000005    1    3    3    0    0  0.12357071201E+02 -0.51997806845E+02  0.69324080933E+03  0.69529870477E+03  0.10000000000E+01 0.  0.
    9000005    1    3    3    0    0 -0.12357071201E+02  0.51997806845E+02  0.21710874579E+03  0.22359265781E+03  0.10000000000E+01 0.  0.
<mgrwt>
<rscale>  0 0.12500009E+03</rscale>
<asrwt>0</asrwt>
<pdfrwt beam="1">  1        4 0.14071099E+00 0.12500009E+03</pdfrwt>
<pdfrwt beam="2">  1       -4 0.65706142E-03 0.12500009E+03</pdfrwt>
<totfact> 0.33446695E+03</totfact>
</mgrwt>
</event>
<event>
 5    1  0.3486589E-002  0.1250405E+03  0.7818608E-02  0.1235006E+00
          4   -1    0    0  501    0  0.00000000000E+00  0.00000000000E+00  0.26901054854E+03  0.26901354636E+03  0.12700000000E+01 0.  1.
         -4   -1    0    0    0  501 -0.00000000000E+00 -0.00000000000E+00 -0.14499380131E+02  0.14554893479E+02  0.12700000000E+01 0.  1.
         25    2    1    2    0    0  0.00000000000E+00  0.00000000000E+00  0.25451116841E+03  0.28356843984E+03  0.12504049435E+03 0.  0.
    9000005    1    3    3    0    0 -0.94692650182E+01  0.49781223434E+02  0.44241734298E+02  0.67276803136E+02  0.10000000000E+01 0.  0.
    9000005    1    3    3    0    0  0.94692650182E+01 -0.49781223434E+02  0.21026943411E+03  0.21629163671E+03  0.10000000000E+01 0.  0.
<mgrwt>
<rscale>  0 0.12504049E+03</rscale>
<asrwt>0</asrwt>
<pdfrwt beam="1">  1        4 0.41390737E-01 0.12504049E+03</pdfrwt>
<pdfrwt beam="2">  1       -4 0.22351748E-02 0.12504049E+03</pdfrwt>
<totfact> 0.77637436E+03</totfact>
</mgrwt>
</event>
<event>
 5    1  0.3486589E-002  0.1250021E+03  0.7818608E-02  0.1235066E+00
          4   -1    0    0  501    0  0.00000000000E+00  0.00000000000E+00  0.72442917114E+02  0.72454048472E+02  0.12700000000E+01 0. -1.
         -4   -1    0    0    0  501 -0.00000000000E+00 -0.00000000000E+00 -0.53900833937E+02  0.53915793596E+02  0.12700000000E+01 0. -1.
         25    2    1    2    0    0  0.00000000000E+00  0.00000000000E+00  0.18542083177E+02  0.12636984207E+03  0.12500211253E+03 0.  0.
    9000005    1    3    3    0    0  0.57401266213E+02  0.17861207777E+02 -0.79877763091E+01  0.60652557048E+02  0.10000000000E+01 0.  0.
    9000005    1    3    3    0    0 -0.57401266213E+02 -0.17861207777E+02  0.26529859487E+02  0.65717285020E+02  0.10000000000E+01 0.  0.
<mgrwt>
<rscale>  0 0.12500211E+03</rscale>
<asrwt>0</asrwt>
<pdfrwt beam="1">  1        4 0.11147071E-01 0.12500211E+03</pdfrwt>
<pdfrwt beam="2">  1       -4 0.82944430E-02 0.12500211E+03</pdfrwt>
<totfact> 0.10422371E+04</totfact>
</mgrwt>
</event>
<event>
 5    1  0.3486589E-002  0.1249979E+03  0.7818608E-02  0.1235073E+00
          4   -1    0    0  501    0  0.00000000000E+00  0.00000000000E+00  0.60902753843E+02  0.60915994005E+02  0.12700000000E+01 0. -1.
         -4   -1    0    0    0  501 -0.00000000000E+00 -0.00000000000E+00 -0.64110466952E+02  0.64123044787E+02  0.12700000000E+01 0. -1.
         25    2    1    2    0    0  0.00000000000E+00  0.00000000000E+00 -0.32077131092E+01  0.12503903879E+03  0.12499788718E+03 0.  0.
    9000005    1    3    3    0    0 -0.91150794816E+01  0.48051678302E+02 -0.40514856452E+02  0.63517730240E+02  0.10000000000E+01 0.  0.
    9000005    1    3    3    0    0  0.91150794816E+01 -0.48051678302E+02  0.37307143343E+02  0.61521308552E+02  0.10000000000E+01 0.  0.
<mgrwt>
<rscale>  0 0.12499789E+03</rscale>
<asrwt>0</asrwt>
<pdfrwt beam="1">  1        4 0.93716404E-02 0.12499789E+03</pdfrwt>
<pdfrwt beam="2">  1       -4 0.98651348E-02 0.12499789E+03</pdfrwt>
<totfact> 0.10452514E+04</totfact>
</mgrwt>
</event>
<event>
 5    1  0.3486589E-002  0.1250042E+03  0.7818608E-02  0.1235063E+00
          4   -1    0    0  501    0  0.00000000000E+00  0.00000000000E+00  0.14530067039E+03  0.14530622050E+03  0.12700000000E+01 0.  1.
         -4   -1    0    0    0  501 -0.00000000000E+00 -0.00000000000E+00 -0.26864636246E+02  0.26894638511E+02  0.12700000000E+01 0.  1.
         25    2    1    2    0    0  0.00000000000E+00  0.00000000000E+00  0.11843603415E+03  0.17220085901E+03  0.12500416657E+03 0.  0.
    9000005    1    3    3    0    0  0.16501509726E+02 -0.48165340158E+02  0.10914031289E+03  0.12043590707E+03  0.10000000000E+01 0.  0.
    9000005    1    3    3    0    0 -0.16501509726E+02  0.48165340158E+02  0.92957212629E+01  0.51764951942E+02  0.10000000000E+01 0.  0.
<mgrwt>
<rscale>  0 0.12500417E+03</rscale>
<asrwt>0</asrwt>
<pdfrwt beam="1">  1        4 0.22356684E-01 0.12500417E+03</pdfrwt>
<pdfrwt beam="2">  1       -4 0.41357557E-02 0.12500417E+03</pdfrwt>
<totfact> 0.95031125E+03</totfact>
</mgrwt>
</event>
<event>
 5    1  0.3486589E-002  0.1250000E+03  0.7818608E-02  0.1235069E+00
         -4   -1    0    0    0  501 -0.00000000000E+00  0.00000000000E+00  0.49149427788E+02  0.49165833176E+02  0.12700000000E+01 0.  1.
          4   -1    0    0  501    0  0.00000000000E+00 -0.00000000000E+00 -0.79442273297E+02  0.79452424045E+02  0.12700000000E+01 0.  1.
         25    2    1    2    0    0  0.00000000000E+00  0.00000000000E+00 -0.30292845509E+02  0.12861825722E+03  0.12499999841E+03 0.  0.
    9000005    1    3    3    0    0 -0.47160705346E+02  0.40876822401E+02 -0.18433122297E+02  0.65083229299E+02  0.10000000000E+01 0.  0.
    9000005    1    3    3    0    0  0.47160705346E+02 -0.40876822401E+02 -0.11859723212E+02  0.63535027922E+02  0.10000000000E+01 0.  0.
<mgrwt>
<rscale>  0 0.12500000E+03</rscale>
<asrwt>0</asrwt>
<pdfrwt beam="2">  1        4 0.12223931E-01 0.12500000E+03</pdfrwt>
<pdfrwt beam="1">  1       -4 0.75634932E-02 0.12500000E+03</pdfrwt>
<totfact> 0.10374158E+04</totfact>
</mgrwt>
</event>
<event>
 5    1  0.3486589E-002  0.1250019E+03  0.7818608E-02  0.1235066E+00
          4   -1    0    0  501    0  0.00000000000E+00  0.00000000000E+00  0.10990829605E+02  0.11063961109E+02  0.12700000000E+01 0. -1.
         -4   -1    0    0    0  501 -0.00000000000E+00 -0.00000000000E+00 -0.35416810192E+03  0.35417037894E+03  0.12700000000E+01 0. -1.
         25    2    1    2    0    0  0.00000000000E+00  0.00000000000E+00 -0.34317727232E+03  0.36523434005E+03  0.12500193165E+03 0.  0.
    9000005    1    3    3    0    0  0.34189083110E+02  0.52056662832E+02 -0.18665269517E+03  0.19677148717E+03  0.10000000000E+01 0.  0.
    9000005    1    3    3    0    0 -0.34189083110E+02 -0.52056662832E+02 -0.15652457715E+03  0.16846285288E+03  0.10000000000E+01 0.  0.
<mgrwt>
<rscale>  0 0.12500193E+03</rscale>
<asrwt>0</asrwt>
<pdfrwt beam="1">  1        4 0.16966978E-02 0.12500193E+03</pdfrwt>
<pdfrwt beam="2">  1       -4 0.54493192E-01 0.12500193E+03</pdfrwt>
<totfact> 0.68077575E+03</totfact>
</mgrwt>
</event>
<event>
 5    1  0.3486589E-002  0.1249993E+03  0.7818608E-02  0.1235070E+00
         -4   -1    0    0    0  501 -0.00000000000E+00  0.00000000000E+00  0.15237501529E+03  0.15238030773E+03  0.12700000000E+01 0. -1.
          4   -1    0    0  501    0  0.00000000000E+00 -0.00000000000E+00 -0.25613993314E+02  0.25645458730E+02  0.12700000000E+01 0. -1.
         25    2    1    2    0    0  0.00000000000E+00  0.00000000000E+00  0.12676102198E+03  0.17802576646E+03  0.12499926733E+03 0.  0.
    9000005    1    3    3    0    0  0.54099091912E+02  0.78181884970E+01  0.20243774766E+02  0.58297909344E+02  0.10000000000E+01 0.  0.
    9000005    1    3    3    0    0 -0.54099091912E+02 -0.78181884970E+01  0.10651724721E+03  0.11972785712E+03  0.10000000000E+01 0.  0.
<mgrwt>
<rscale>  0 0.12499927E+03</rscale>
<asrwt>0</asrwt>
<pdfrwt beam="2">  1        4 0.39434420E-02 0.12499927E+03</pdfrwt>
<pdfrwt beam="1">  1       -4 0.23445137E-01 0.12499927E+03</pdfrwt>
<totfact> 0.93975128E+03</totfact>
</mgrwt>
</event>
<event>
 5    1  0.3486589E-002  0.1249991E+03  0.7818608E-02  0.1235071E+00
         -4   -1    0    0    0  501 -0.00000000000E+00  0.00000000000E+00  0.23539846301E+02  0.23574080340E+02  0.12700000000E+01 0.  1.
          4   -1    0    0  501    0  0.00000000000E+00 -0.00000000000E+00 -0.16578244973E+03  0.16578731417E+03  0.12700000000E+01 0.  1.
         25    2    1    2    0    0  0.00000000000E+00  0.00000000000E+00 -0.14224260343E+03  0.18936139451E+03  0.12499911799E+03 0.  0.
    9000005    1    3    3    0    0 -0.46295030458E+02  0.14549158686E+02 -0.13076856864E+03  0.13948593623E+03  0.10000000000E+01 0.  0.
    9000005    1    3    3    0    0  0.46295030458E+02 -0.14549158686E+02 -0.11474034793E+02  0.49875458274E+02  0.10000000000E+01 0.  0.
<mgrwt>
<rscale>  0 0.12499912E+03</rscale>
<asrwt>0</asrwt>
<pdfrwt beam="2">  1        4 0.25507999E-01 0.12499912E+03</pdfrwt>
<pdfrwt beam="1">  1       -4 0.36245225E-02 0.12499912E+03</pdfrwt>
<totfact> 0.91960366E+03</totfact>
</mgrwt>
</event>
<event>
 5    1  0.3486589E-002  0.1250097E+03  0.7818608E-02  0.1235054E+00
         -4   -1    0    0    0  501 -0.00000000000E+00  0.00000000000E+00  0.98640685696E+02  0.98648860990E+02  0.12700000000E+01 0. -1.
          4   -1    0    0  501    0  0.00000000000E+00 -0.00000000000E+00 -0.39586948032E+02  0.39607314406E+02  0.12700000000E+01 0. -1.
         25    2    1    2    0    0  0.00000000000E+00  0.00000000000E+00  0.59053737664E+02  0.13825617540E+03  0.12500970404E+03 0.  0.
    9000005    1    3    3    0    0 -0.36578685212E+02 -0.28610119090E+02  0.75783619230E+02  0.88885859786E+02  0.10000000000E+01 0.  0.
    9000005    1    3    3    0    0  0.36578685212E+02  0.28610119090E+02 -0.16729881566E+02  0.49370315610E+02  0.10000000000E+01 0.  0.
<mgrwt>
<rscale>  0 0.12500970E+03</rscale>
<asrwt>0</asrwt>
<pdfrwt beam="2">  1        4 0.60924953E-02 0.12500970E+03</pdfrwt>
<pdfrwt beam="1">  1       -4 0.15177685E-01 0.12500970E+03</pdfrwt>
<totfact> 0.10167632E+04</totfact>
</mgrwt>
</event>
<event>
 5    1  0.3486589E-002  0.1250011E+03  0.7818608E-02  0.1235068E+00
          4   -1    0    0  501    0  0.00000000000E+00  0.00000000000E+00  0.42979011353E+02  0.42997771069E+02  0.12700000000E+01 0.  1.
         -4   -1    0    0    0  501 -0.00000000000E+00 -0.00000000000E+00 -0.90845956759E+02  0.90854833440E+02  0.12700000000E+01 0.  1.
         25    2    1    2    0    0  0.00000000000E+00  0.00000000000E+00 -0.47866945406E+02  0.13385260451E+03  0.12500110108E+03 0.  0.
    9000005    1    3    3    0    0 -0.28714683075E+02  0.21324394332E+02 -0.78807265512E+02  0.86549684663E+02  0.10000000000E+01 0.  0.
    9000005    1    3    3    0    0  0.28714683075E+02 -0.21324394332E+02  0.30940320106E+02  0.47302919846E+02  0.10000000000E+01 0.  0.
<mgrwt>
<rscale>  0 0.12500110E+03</rscale>
<asrwt>0</asrwt>
<pdfrwt beam="1">  1        4 0.66142815E-02 0.12500110E+03</pdfrwt>
<pdfrwt beam="2">  1       -4 0.13978427E-01 0.12500110E+03</pdfrwt>
<totfact> 0.10262057E+04</totfact>
</mgrwt>
</event>
<event>
 5    1  0.3486589E-002  0.1250008E+03  0.7818608E-02  0.1235068E+00
         -4   -1    0    0    0  501 -0.00000000000E+00  0.00000000000E+00  0.41232212429E+01  0.43143775238E+01  0.12700000000E+01 0. -1.
          4   -1    0    0  501    0  0.00000000000E+00 -0.00000000000E+00 -0.92573556876E+03  0.92573643990E+03  0.12700000000E+01 0. -1.
         25    2    1    2    0    0  0.00000000000E+00  0.00000000000E+00 -0.92161234751E+03  0.93005081743E+03  0.12500081561E+03 0.  0.
    9000005    1    3    3    0    0  0.17079753356E+02  0.13583497700E+02 -0.25111643074E+02  0.33283990181E+02  0.10000000000E+01 0.  0.
    9000005    1    3    3    0    0 -0.17079753356E+02 -0.13583497700E+02 -0.89650070444E+03  0.89676682725E+03  0.10000000000E+01 0.  0.
<mgrwt>
<rscale>  0 0.12500082E+03</rscale>
<asrwt>0</asrwt>
<pdfrwt beam="2">  1        4 0.14243547E+00 0.12500082E+03</pdfrwt>
<pdfrwt beam="1">  1       -4 0.64911381E-03 0.12500082E+03</pdfrwt>
<totfact> 0.33034452E+03</totfact>
</mgrwt>
</event>
<event>
 5    1  0.3486589E-002  0.1250013E+03  0.7818608E-02  0.1235067E+00
          4   -1    0    0  501    0  0.00000000000E+00  0.00000000000E+00  0.10944236698E+03  0.10944973545E+03  0.12700000000E+01 0. -1.
         -4   -1    0    0    0  501 -0.00000000000E+00 -0.00000000000E+00 -0.35673178176E+02  0.35695777638E+02  0.12700000000E+01 0. -1.
         25    2    1    2    0    0  0.00000000000E+00  0.00000000000E+00  0.73769188801E+02  0.14514551309E+03  0.12500130700E+03 0.  0.
    9000005    1    3    3    0    0 -0.31125433625E+02  0.23953650278E+02  0.93326156234E+02  0.10125878440E+03  0.10000000000E+01 0.  0.
    9000005    1    3    3    0    0  0.31125433625E+02 -0.23953650278E+02 -0.19556967433E+02  0.43886728690E+02  0.10000000000E+01 0.  0.
<mgrwt>
<rscale>  0 0.12500131E+03</rscale>
<asrwt>0</asrwt>
<pdfrwt beam="1">  1        4 0.16839592E-01 0.12500131E+03</pdfrwt>
<pdfrwt beam="2">  1       -4 0.54904865E-02 0.12500131E+03</pdfrwt>
<totfact> 0.10027738E+04</totfact>
</mgrwt>
</event>
<event>
 5    1  0.3486589E-002  0.1249999E+03  0.7818608E-02  0.1235069E+00
          4   -1    0    0  501    0  0.00000000000E+00  0.00000000000E+00  0.10321887148E+03  0.10322668420E+03  0.12700000000E+01 0. -1.
         -4   -1    0    0    0  501 -0.00000000000E+00 -0.00000000000E+00 -0.37824398575E+02  0.37845713464E+02  0.12700000000E+01 0. -1.
         25    2    1    2    0    0  0.00000000000E+00  0.00000000000E+00  0.65394472906E+02  0.14107239766E+03  0.12499993718E+03 0.  0.
    9000005    1    3    3    0    0  0.30119902349E+02  0.35581994909E+00  0.94490568917E+02  0.99180657084E+02  0.10000000000E+01 0.  0.
    9000005    1    3    3    0    0 -0.30119902349E+02 -0.35581994909E+00 -0.29096096010E+02  0.41891740575E+02  0.10000000000E+01 0.  0.
<mgrwt>
<rscale>  0 0.12499994E+03</rscale>
<asrwt>0</asrwt>
<pdfrwt beam="1">  1        4 0.15882067E-01 0.12499994E+03</pdfrwt>
<pdfrwt beam="2">  1       -4 0.58213789E-02 0.12499994E+03</pdfrwt>
<totfact> 0.10111422E+04</totfact>
</mgrwt>
</event>
<event>
 5    1  0.3486589E-002  0.1250007E+03  0.7818608E-02  0.1235068E+00
         -4   -1    0    0    0  501 -0.00000000000E+00  0.00000000000E+00  0.99756608945E+01  0.10056177717E+02  0.12700000000E+01 0. -1.
          4   -1    0    0  501    0  0.00000000000E+00 -0.00000000000E+00 -0.38992664718E+03  0.38992871538E+03  0.12700000000E+01 0. -1.
         25    2    1    2    0    0  0.00000000000E+00  0.00000000000E+00 -0.37995098628E+03  0.39998489310E+03  0.12500065092E+03 0.  0.
    9000005    1    3    3    0    0  0.22713187296E+02  0.47315001655E+02 -0.81430213658E+02  0.96883837430E+02  0.10000000000E+01 0.  0.
    9000005    1    3    3    0    0 -0.22713187296E+02 -0.47315001655E+02 -0.29852077262E+03  0.30310105567E+03  0.10000000000E+01 0.  0.
<mgrwt>
<rscale>  0 0.12500065E+03</rscale>
<asrwt>0</asrwt>
<pdfrwt beam="2">  1        4 0.59995056E-01 0.12500065E+03</pdfrwt>
<pdfrwt beam="1">  1       -4 0.15410701E-02 0.12500065E+03</pdfrwt>
<totfact> 0.64553336E+03</totfact>
</mgrwt>
</event>
<event>
 5    1  0.3486589E-002  0.1249999E+03  0.7818608E-02  0.1235069E+00
          4   -1    0    0  501    0  0.00000000000E+00  0.00000000000E+00  0.33325361077E+03  0.33325603069E+03  0.12700000000E+01 0.  1.
         -4   -1    0    0    0  501 -0.00000000000E+00 -0.00000000000E+00 -0.11684668000E+02  0.11753483155E+02  0.12700000000E+01 0.  1.
         25    2    1    2    0    0  0.00000000000E+00  0.00000000000E+00  0.32156894277E+03  0.34500951385E+03  0.12499991876E+03 0.  0.
    9000005    1    3    3    0    0 -0.52375128904E+02  0.32950958159E+02  0.13667125313E+03  0.15002983438E+03  0.10000000000E+01 0.  0.
    9000005    1    3    3    0    0  0.52375128904E+02 -0.32950958159E+02  0.18489768965E+03  0.19497967947E+03  0.10000000000E+01 0.  0.
<mgrwt>
<rscale>  0 0.12499992E+03</rscale>
<asrwt>0</asrwt>
<pdfrwt beam="1">  1        4 0.51275268E-01 0.12499992E+03</pdfrwt>
<pdfrwt beam="2">  1       -4 0.18031208E-02 0.12499992E+03</pdfrwt>
<totfact> 0.70277205E+03</totfact>
</mgrwt>
</event>
<event>
 5    1  0.3486589E-002  0.1249996E+03  0.7818608E-02  0.1235070E+00
          4   -1    0    0  501    0  0.00000000000E+00  0.00000000000E+00  0.71449794024E+02  0.71461080079E+02  0.12700000000E+01 0. -1.
         -4   -1    0    0    0  501 -0.00000000000E+00 -0.00000000000E+00 -0.54647913549E+02  0.54662668753E+02  0.12700000000E+01 0. -1.
         25    2    1    2    0    0  0.00000000000E+00  0.00000000000E+00  0.16801880475E+02  0.12612374883E+03  0.12499958733E+03 0.  0.
    9000005    1    3    3    0    0 -0.12893806077E+02  0.60428995830E+02  0.17828979226E+02  0.64317853450E+02  0.10000000000E+01 0.  0.
    9000005    1    3    3    0    0  0.12893806077E+02 -0.60428995830E+02 -0.10270987509E+01  0.61805895383E+02  0.10000000000E+01 0.  0.
<mgrwt>
<rscale>  0 0.12499959E+03</rscale>
<asrwt>0</asrwt>
<pdfrwt beam="1">  1        4 0.10994279E-01 0.12499959E+03</pdfrwt>
<pdfrwt beam="2">  1       -4 0.84093745E-02 0.12499959E+03</pdfrwt>
<totfact> 0.10428344E+04</totfact>
</mgrwt>
</event>
<event>
 5    1  0.3486589E-002  0.1250058E+03  0.7818608E-02  0.1235060E+00
          4   -1    0    0  501    0  0.00000000000E+00  0.00000000000E+00  0.21589920966E+02  0.21627241787E+02  0.12700000000E+01 0. -1.
         -4   -1    0    0    0  501 -0.00000000000E+00 -0.00000000000E+00 -0.18075017120E+03  0.18075463283E+03  0.12700000000E+01 0. -1.
         25    2    1    2    0    0  0.00000000000E+00  0.00000000000E+00 -0.15916025023E+03  0.20238187462E+03  0.12500575154E+03 0.  0.
    9000005    1    3    3    0    0 -0.29427424421E+02  0.54448375223E+02 -0.93601898998E+02  0.11221815525E+03  0.10000000000E+01 0.  0.
    9000005    1    3    3    0    0  0.29427424421E+02 -0.54448375223E+02 -0.65558351236E+02  0.90163719362E+02  0.10000000000E+01 0.  0.
<mgrwt>
<rscale>  0 0.12500575E+03</rscale>
<asrwt>0</asrwt>
<pdfrwt beam="1">  1        4 0.33247405E-02 0.12500575E+03</pdfrwt>
<pdfrwt beam="2">  1       -4 0.27810932E-01 0.12500575E+03</pdfrwt>
<totfact> 0.89723788E+03</totfact>
</mgrwt>
</event>
<event>
 5    1  0.3486589E-002  0.1249985E+03  0.7818608E-02  0.1235072E+00
          4   -1    0    0  501    0  0.00000000000E+00  0.00000000000E+00  0.24101044237E+02  0.24134482247E+02  0.12700000000E+01 0.  1.
         -4   -1    0    0    0  501 -0.00000000000E+00 -0.00000000000E+00 -0.16192598034E+03  0.16193096062E+03  0.12700000000E+01 0.  1.
         25    2    1    2    0    0  0.00000000000E+00  0.00000000000E+00 -0.13782493610E+03  0.18606544287E+03  0.12499854407E+03 0.  0.
    9000005    1    3    3    0    0 -0.40916728272E+02  0.26430800450E+02 -0.10642354288E+02  0.49870086923E+02  0.10000000000E+01 0.  0.
    9000005    1    3    3    0    0  0.40916728272E+02 -0.26430800450E+02 -0.12718258181E+03  0.13619535595E+03  0.10000000000E+01 0.  0.
<mgrwt>
<rscale>  0 0.12499854E+03</rscale>
<asrwt>0</asrwt>
<pdfrwt beam="1">  1        4 0.37108083E-02 0.12499854E+03</pdfrwt>
<pdfrwt beam="2">  1       -4 0.24914644E-01 0.12499854E+03</pdfrwt>
<totfact> 0.92539477E+03</totfact>
</mgrwt>
</event>
<event>
 5    1  0.3486589E-002  0.1249969E+03  0.7818608E-02  0.1235074E+00
         -4   -1    0    0    0  501 -0.00000000000E+00  0.00000000000E+00  0.66728508805E+03  0.66728629660E+03  0.12700000000E+01 0. -1.
          4   -1    0    0  501    0  0.00000000000E+00 -0.00000000000E+00 -0.57835445197E+01  0.59213416733E+01  0.12700000000E+01 0. -1.
         25    2    1    2    0    0  0.00000000000E+00  0.00000000000E+00  0.66150154353E+03  0.67320763827E+03  0.12499692852E+03 0.  0.
    9000005    1    3    3    0    0 -0.61293588923E+02  0.12149505967E+02  0.33472129907E+03  0.34050530479E+03  0.10000000000E+01 0.  0.
    9000005    1    3    3    0    0  0.61293588923E+02 -0.12149505967E+02  0.32678024445E+03  0.33270233348E+03  0.10000000000E+01 0.  0.
<mgrwt>
<rscale>  0 0.12499693E+03</rscale>
<asrwt>0</asrwt>
<pdfrwt beam="2">  1        4 0.90046848E-03 0.12499693E+03</pdfrwt>
<pdfrwt beam="1">  1       -4 0.10266998E+00 0.12499693E+03</pdfrwt>
<totfact> 0.44542241E+03</totfact>
</mgrwt>
</event>
<event>
 5    1  0.3486589E-002  0.1250071E+03  0.7818608E-02  0.1235058E+00
          4   -1    0    0  501    0  0.00000000000E+00  0.00000000000E+00  0.67066617369E+01  0.68258487863E+01  0.12700000000E+01 0.  1.
         -4   -1    0    0    0  501 -0.00000000000E+00 -0.00000000000E+00 -0.57725926224E+03  0.57726065927E+03  0.12700000000E+01 0.  1.
         25    2    1    2    0    0  0.00000000000E+00  0.00000000000E+00 -0.57055260050E+03  0.58408650805E+03  0.12500711561E+03 0.  0.
    9000005    1    3    3    0    0 -0.48273996496E+02  0.36649985045E+02 -0.21409351859E+03  0.22250985336E+03  0.10000000000E+01 0.  0.
    9000005    1    3    3    0    0  0.48273996496E+02 -0.36649985045E+02 -0.35645908191E+03  0.36157665469E+03  0.10000000000E+01 0.  0.
<mgrwt>
<rscale>  0 0.12500712E+03</rscale>
<asrwt>0</asrwt>
<pdfrwt beam="1">  1        4 0.10410703E-02 0.12500712E+03</pdfrwt>
<pdfrwt beam="2">  1       -4 0.88818354E-01 0.12500712E+03</pdfrwt>
<totfact> 0.49880003E+03</totfact>
</mgrwt>
</event>
<event>
 5    1  0.3486589E-002  0.1249991E+03  0.7818608E-02  0.1235071E+00
         -4   -1    0    0    0  501 -0.00000000000E+00  0.00000000000E+00  0.18971904353E+03  0.18972329424E+03  0.12700000000E+01 0. -1.
          4   -1    0    0  501    0  0.00000000000E+00 -0.00000000000E+00 -0.20565293562E+02  0.20604470371E+02  0.12700000000E+01 0. -1.
         25    2    1    2    0    0  0.00000000000E+00  0.00000000000E+00  0.16915374996E+03  0.21032776461E+03  0.12499910975E+03 0.  0.
    9000005    1    3    3    0    0  0.28763975240E+02  0.28257990384E+02  0.42442845480E+01  0.40557295811E+02  0.10000000000E+01 0.  0.
    9000005    1    3    3    0    0 -0.28763975240E+02 -0.28257990384E+02  0.16490946542E+03  0.16977046880E+03  0.10000000000E+01 0.  0.
<mgrwt>
<rscale>  0 0.12499911E+03</rscale>
<asrwt>0</asrwt>
<pdfrwt beam="2">  1        4 0.31672318E-02 0.12499911E+03</pdfrwt>
<pdfrwt beam="1">  1       -4 0.29190887E-01 0.12499911E+03</pdfrwt>
<totfact> 0.88424139E+03</totfact>
</mgrwt>
</event>
<event>
 5    1  0.3486589E-002  0.1249750E+03  0.7818608E-02  0.1235108E+00
         -4   -1    0    0    0  501 -0.00000000000E+00  0.00000000000E+00  0.42359457830E+02  0.42378491805E+02  0.12700000000E+01 0.  1.
          4   -1    0    0  501    0  0.00000000000E+00 -0.00000000000E+00 -0.92135728546E+02  0.92144480978E+02  0.12700000000E+01 0.  1.
         25    2    1    2    0    0  0.00000000000E+00  0.00000000000E+00 -0.49776270716E+02  0.13452297278E+03  0.12497500982E+03 0.  0.
    9000005    1    3    3    0    0 -0.40777169574E+02 -0.43505945560E+02 -0.44972235005E+02  0.74693016936E+02  0.10000000000E+01 0.  0.
    9000005    1    3    3    0    0  0.40777169574E+02  0.43505945560E+02 -0.48040357103E+01  0.59829955847E+02  0.10000000000E+01 0.  0.
<mgrwt>
<rscale>  0 0.12497501E+03</rscale>
<asrwt>0</asrwt>
<pdfrwt beam="2">  1        4 0.14176865E-01 0.12497501E+03</pdfrwt>
<pdfrwt beam="1">  1       -4 0.65189771E-02 0.12497501E+03</pdfrwt>
<totfact> 0.10253913E+04</totfact>
</mgrwt>
</event>
<event>
 5    1  0.3486589E-002  0.1249876E+03  0.7818608E-02  0.1235089E+00
          4   -1    0    0  501    0  0.00000000000E+00  0.00000000000E+00  0.77170494437E+03  0.77170598940E+03  0.12700000000E+01 0. -1.
         -4   -1    0    0    0  501 -0.00000000000E+00 -0.00000000000E+00 -0.49801001885E+01  0.51394842044E+01  0.12700000000E+01 0. -1.
         25    2    1    2    0    0  0.00000000000E+00  0.00000000000E+00  0.76672484419E+03  0.77684547360E+03  0.12498761204E+03 0.  0.
    9000005    1    3    3    0    0 -0.32842155515E+02  0.53152684219E+02  0.37831006970E+03  0.38343620572E+03  0.10000000000E+01 0.  0.
    9000005    1    3    3    0    0  0.32842155515E+02 -0.53152684219E+02  0.38841477449E+03  0.39340926789E+03  0.10000000000E+01 0.  0.
<mgrwt>
<rscale>  0 0.12498761E+03</rscale>
<asrwt>0</asrwt>
<pdfrwt beam="1">  1        4 0.11873615E+00 0.12498761E+03</pdfrwt>
<pdfrwt beam="2">  1       -4 0.77851015E-03 0.12498761E+03</pdfrwt>
<totfact> 0.39330180E+03</totfact>
</mgrwt>
</event>
<event>
 5    1  0.3486589E-002  0.1250047E+03  0.7818608E-02  0.1235062E+00
          4   -1    0    0  501    0  0.00000000000E+00  0.00000000000E+00  0.13493274311E+02  0.13552909342E+02  0.12700000000E+01 0.  1.
         -4   -1    0    0    0  501 -0.00000000000E+00 -0.00000000000E+00 -0.28881860060E+03  0.28882139283E+03  0.12700000000E+01 0.  1.
         25    2    1    2    0    0  0.00000000000E+00  0.00000000000E+00 -0.27532532629E+03  0.30237430217E+03  0.12500473317E+03 0.  0.
    9000005    1    3    3    0    0  0.13196861851E+02  0.10457978754E+02 -0.28324001148E+03  0.28374183792E+03  0.10000000000E+01 0.  0.
    9000005    1    3    3    0    0 -0.13196861851E+02 -0.10457978754E+02  0.79146851892E+01  0.18632464249E+02  0.10000000000E+01 0.  0.
<mgrwt>
<rscale>  0 0.12500473E+03</rscale>
<asrwt>0</asrwt>
<pdfrwt beam="1">  1        4 0.20806907E-02 0.12500473E+03</pdfrwt>
<pdfrwt beam="2">  1       -4 0.44438428E-01 0.12500473E+03</pdfrwt>
<totfact> 0.75294064E+03</totfact>
</mgrwt>
</event>
<event>
 5    1  0.3486589E-002  0.1250036E+03  0.7818608E-02  0.1235064E+00
          4   -1    0    0  501    0  0.00000000000E+00  0.00000000000E+00  0.25568406052E+02  0.25599927501E+02  0.12700000000E+01 0. -1.
         -4   -1    0    0    0  501 -0.00000000000E+00 -0.00000000000E+00 -0.15265701443E+03  0.15266229709E+03  0.12700000000E+01 0. -1.
         25    2    1    2    0    0  0.00000000000E+00  0.00000000000E+00 -0.12708860838E+03  0.17826222459E+03  0.12500362530E+03 0.  0.
    9000005    1    3    3    0    0 -0.78598238233E+01  0.88080827501E+01 -0.15105953497E+03  0.15152340498E+03  0.10000000000E+01 0.  0.
    9000005    1    3    3    0    0  0.78598238233E+01 -0.88080827501E+01  0.23970926596E+02  0.26738819610E+02  0.10000000000E+01 0.  0.
<mgrwt>
<rscale>  0 0.12500363E+03</rscale>
<asrwt>0</asrwt>
<pdfrwt beam="1">  1        4 0.39364321E-02 0.12500363E+03</pdfrwt>
<pdfrwt beam="2">  1       -4 0.23488525E-01 0.12500363E+03</pdfrwt>
<totfact> 0.93923111E+03</totfact>
</mgrwt>
</event>
<event>
 5    1  0.3486589E-002  0.1249859E+03  0.7818608E-02  0.1235091E+00
          4   -1    0    0  501    0  0.00000000000E+00  0.00000000000E+00  0.24066971774E+03  0.24067306858E+03  0.12700000000E+01 0. -1.
         -4   -1    0    0    0  501 -0.00000000000E+00 -0.00000000000E+00 -0.16198778456E+02  0.16248486805E+02  0.12700000000E+01 0. -1.
         25    2    1    2    0    0  0.00000000000E+00  0.00000000000E+00  0.22447093929E+03  0.25692155538E+03  0.12498593135E+03 0.  0.
    9000005    1    3    3    0    0 -0.16997764549E+02  0.27516924965E+02  0.23372383340E+01  0.32443301962E+02  0.10000000000E+01 0.  0.
    9000005    1    3    3    0    0  0.16997764549E+02 -0.27516924965E+02  0.22213370095E+03  0.22447825342E+03  0.10000000000E+01 0.  0.
<mgrwt>
<rscale>  0 0.12498593E+03</rscale>
<asrwt>0</asrwt>
<pdfrwt beam="1">  1        4 0.37030191E-01 0.12498593E+03</pdfrwt>
<pdfrwt beam="2">  1       -4 0.24962013E-02 0.12498593E+03</pdfrwt>
<totfact> 0.81365511E+03</totfact>
</mgrwt>
</event>
<event>
 5    1  0.3486589E-002  0.1250023E+03  0.7818608E-02  0.1235066E+00
          4   -1    0    0  501    0  0.00000000000E+00  0.00000000000E+00  0.69377644906E+03  0.69377761147E+03  0.12700000000E+01 0. -1.
         -4   -1    0    0    0  501 -0.00000000000E+00 -0.00000000000E+00 -0.55578255394E+01  0.57010810139E+01  0.12700000000E+01 0. -1.
         25    2    1    2    0    0  0.00000000000E+00  0.00000000000E+00  0.68821862352E+03  0.69947869248E+03  0.12500226987E+03 0.  0.
    9000005    1    3    3    0    0  0.23635346755E+02  0.55670463112E+02  0.43215303423E+03  0.43636575836E+03  0.10000000000E+01 0.  0.
    9000005    1    3    3    0    0 -0.23635346755E+02 -0.55670463112E+02  0.25606558929E+03  0.26311293412E+03  0.10000000000E+01 0.  0.
<mgrwt>
<rscale>  0 0.12500227E+03</rscale>
<asrwt>0</asrwt>
<pdfrwt beam="1">  1        4 0.10674588E+00 0.12500227E+03</pdfrwt>
<pdfrwt beam="2">  1       -4 0.86615972E-03 0.12500227E+03</pdfrwt>
<totfact> 0.43112105E+03</totfact>
</mgrwt>
</event>
<event>
 5    1  0.3486589E-002  0.1250010E+03  0.7818608E-02  0.1235068E+00
         -4   -1    0    0    0  501 -0.00000000000E+00  0.00000000000E+00  0.43890475744E+03  0.43890659485E+03  0.12700000000E+01 0.  1.
          4   -1    0    0  501    0  0.00000000000E+00 -0.00000000000E+00 -0.88529713404E+01  0.89436011513E+01  0.12700000000E+01 0.  1.
         25    2    1    2    0    0  0.00000000000E+00  0.00000000000E+00  0.43005178610E+03  0.44785019600E+03  0.12500103732E+03 0.  0.
    9000005    1    3    3    0    0 -0.13141655518E+02  0.42383583610E+02  0.37267776980E+03  0.37531159238E+03  0.10000000000E+01 0.  0.
    9000005    1    3    3    0    0  0.13141655518E+02 -0.42383583610E+02  0.57374016293E+02  0.72538603619E+02  0.10000000000E+01 0.  0.
<mgrwt>
<rscale>  0 0.12500104E+03</rscale>
<asrwt>0</asrwt>
<pdfrwt beam="2">  1        4 0.13691088E-02 0.12500104E+03</pdfrwt>
<pdfrwt beam="1">  1       -4 0.67530903E-01 0.12500104E+03</pdfrwt>
<totfact> 0.60149119E+03</totfact>
</mgrwt>
</event>
<event>
 5    1  0.3486589E-002  0.1249968E+03  0.7818608E-02  0.1235074E+00
          4   -1    0    0  501    0  0.00000000000E+00  0.00000000000E+00  0.20040832562E+02  0.20081032588E+02  0.12700000000E+01 0.  1.
         -4   -1    0    0    0  501 -0.00000000000E+00 -0.00000000000E+00 -0.19466696228E+03  0.19467110495E+03  0.12700000000E+01 0.  1.
         25    2    1    2    0    0  0.00000000000E+00  0.00000000000E+00 -0.17462612972E+03  0.21475213754E+03  0.12499678155E+03 0.  0.
    9000005    1    3    3    0    0 -0.56876250556E+02  0.23155272172E+02 -0.10719915859E+03  0.12354648562E+03  0.10000000000E+01 0.  0.
    9000005    1    3    3    0    0  0.56876250556E+02 -0.23155272172E+02 -0.67426971126E+02  0.91205651919E+02  0.10000000000E+01 0.  0.
<mgrwt>
<rscale>  0 0.12499678E+03</rscale>
<asrwt>0</asrwt>
<pdfrwt beam="1">  1        4 0.30866161E-02 0.12499678E+03</pdfrwt>
<pdfrwt beam="2">  1       -4 0.29952173E-01 0.12499678E+03</pdfrwt>
<totfact> 0.87711937E+03</totfact>
</mgrwt>
</event>
<event>
 4    1  0.3486589E-002  0.1249060E+03  0.7818608E-02  0.1235216E+00
         -4   -1    0    0    0  501 -0.00000000000E+00  0.00000000000E+00  0.36260047584E+02  0.36282281499E+02  0.12700000000E+01 0. -1.
          4   -1    0    0  501    0  0.00000000000E+00 -0.00000000000E+00 -0.10750783338E+03  0.10751533443E+03  0.12700000000E+01 0. -1.
    9000005    1    1    2    0    0 -0.13221125540E+02 -0.50169266879E+02  0.43829384095E+01  0.52076517249E+02  0.10000000000E+01 0.  0.
    9000005    1    1    2    0    0  0.13221125540E+02  0.50169266879E+02 -0.75630724207E+02  0.91721098684E+02  0.10000000000E+01 0.  0.
<mgrwt>
<rscale>  0 0.12490599E+03</rscale>
<asrwt>0</asrwt>
<pdfrwt beam="2">  1        4 0.16541954E-01 0.12490599E+03</pdfrwt>
<pdfrwt beam="1">  1       -4 0.55807562E-02 0.12490599E+03</pdfrwt>
<totfact> 0.10076793E+04</totfact>
</mgrwt>
</event>
<event>
 5    1  0.3486589E-002  0.1250052E+03  0.7818608E-02  0.1235061E+00
         -4   -1    0    0    0  501 -0.00000000000E+00  0.00000000000E+00  0.16434903775E+03  0.16435394461E+03  0.12700000000E+01 0. -1.
          4   -1    0    0  501    0  0.00000000000E+00 -0.00000000000E+00 -0.23747744297E+02  0.23781679066E+02  0.12700000000E+01 0. -1.
         25    2    1    2    0    0  0.00000000000E+00  0.00000000000E+00  0.14060129345E+03  0.18813562368E+03  0.12500515660E+03 0.  0.
    9000005    1    3    3    0    0 -0.14953245893E+02 -0.49199076660E+02  0.12375383111E+03  0.13401551933E+03  0.10000000000E+01 0.  0.
    9000005    1    3    3    0    0  0.14953245893E+02  0.49199076660E+02  0.16847462341E+02  0.54120104345E+02  0.10000000000E+01 0.  0.
<mgrwt>
<rscale>  0 0.12500516E+03</rscale>
<asrwt>0</asrwt>
<pdfrwt beam="2">  1        4 0.36564870E-02 0.12500516E+03</pdfrwt>
<pdfrwt beam="1">  1       -4 0.25287455E-01 0.12500516E+03</pdfrwt>
<totfact> 0.92162077E+03</totfact>
</mgrwt>
</event>
<event>
 5    1  0.3486589E-002  0.1250070E+03  0.7818608E-02  0.1235058E+00
         -4   -1    0    0    0  501 -0.00000000000E+00  0.00000000000E+00  0.25014215553E+03  0.25014537948E+03  0.12700000000E+01 0. -1.
          4   -1    0    0  501    0  0.00000000000E+00 -0.00000000000E+00 -0.15588710083E+02  0.15640357479E+02  0.12700000000E+01 0. -1.
         25    2    1    2    0    0  0.00000000000E+00  0.00000000000E+00  0.23455344545E+03  0.26578573696E+03  0.12500695660E+03 0.  0.
    9000005    1    3    3    0    0 -0.15116545373E+01  0.82125759928E+01  0.24896106677E+03  0.24910307961E+03  0.10000000000E+01 0.  0.
    9000005    1    3    3    0    0  0.15116545373E+01 -0.82125759928E+01 -0.14407621324E+02  0.16682657345E+02  0.10000000000E+01 0.  0.
<mgrwt>
<rscale>  0 0.12500696E+03</rscale>
<asrwt>0</asrwt>
<pdfrwt beam="2">  1        4 0.24024842E-02 0.12500696E+03</pdfrwt>
<pdfrwt beam="1">  1       -4 0.38487626E-01 0.12500696E+03</pdfrwt>
<totfact> 0.80088513E+03</totfact>
</mgrwt>
</event>
<event>
 5    1  0.3486589E-002  0.1250006E+03  0.7818608E-02  0.1235068E+00
          4   -1    0    0  501    0  0.00000000000E+00  0.00000000000E+00  0.29588364607E+02  0.29615607711E+02  0.12700000000E+01 0. -1.
         -4   -1    0    0    0  501 -0.00000000000E+00 -0.00000000000E+00 -0.13192999232E+03  0.13193610489E+03  0.12700000000E+01 0. -1.
         25    2    1    2    0    0  0.00000000000E+00  0.00000000000E+00 -0.10234162771E+03  0.16155171260E+03  0.12500058832E+03 0.  0.
    9000005    1    3    3    0    0 -0.57254514442E+02 -0.15617111110E+02 -0.76474068692E+02  0.96805251747E+02  0.10000000000E+01 0.  0.
    9000005    1    3    3    0    0  0.57254514442E+02  0.15617111110E+02 -0.25867559020E+02  0.64746460854E+02  0.10000000000E+01 0.  0.
<mgrwt>
<rscale>  0 0.12500059E+03</rscale>
<asrwt>0</asrwt>
<pdfrwt beam="1">  1        4 0.45546220E-02 0.12500059E+03</pdfrwt>
<pdfrwt beam="2">  1       -4 0.20299487E-01 0.12500059E+03</pdfrwt>
<totfact> 0.97043176E+03</totfact>
</mgrwt>
</event>
<event>
 5    1  0.3486589E-002  0.1249932E+03  0.7818608E-02  0.1235080E+00
         -4   -1    0    0    0  501 -0.00000000000E+00  0.00000000000E+00  0.14744130518E+03  0.14744677471E+03  0.12700000000E+01 0.  1.
          4   -1    0    0  501    0  0.00000000000E+00 -0.00000000000E+00 -0.26469528656E+02  0.26499978251E+02  0.12700000000E+01 0.  1.
         25    2    1    2    0    0  0.00000000000E+00  0.00000000000E+00  0.12097177652E+03  0.17394675296E+03  0.12499320842E+03 0.  0.
    9000005    1    3    3    0    0  0.41921738825E+02  0.12183879891E+02 -0.17341805703E+01  0.43702248198E+02  0.10000000000E+01 0.  0.
    9000005    1    3    3    0    0 -0.41921738825E+02 -0.12183879891E+02  0.12270595709E+03  0.13024450477E+03  0.10000000000E+01 0.  0.
<mgrwt>
<rscale>  0 0.12499321E+03</rscale>
<asrwt>0</asrwt>
<pdfrwt beam="2">  1        4 0.40749982E-02 0.12499321E+03</pdfrwt>
<pdfrwt beam="1">  1       -4 0.22686041E-01 0.12499321E+03</pdfrwt>
<totfact> 0.94732529E+03</totfact>
</mgrwt>
</event>
<event>
 5    1  0.3486589E-002  0.1249942E+03  0.7818608E-02  0.1235078E+00
          4   -1    0    0  501    0  0.00000000000E+00  0.00000000000E+00  0.24691148882E+02  0.24723788810E+02  0.12700000000E+01 0. -1.
         -4   -1    0    0    0  501 -0.00000000000E+00 -0.00000000000E+00 -0.15805022324E+03  0.15805532565E+03  0.12700000000E+01 0. -1.
         25    2    1    2    0    0  0.00000000000E+00  0.00000000000E+00 -0.13335907436E+03  0.18277911446E+03  0.12499424774E+03 0.  0.
    9000005    1    3    3    0    0 -0.11476812427E+02  0.61063149501E+02 -0.56928610434E+02  0.84275097962E+02  0.10000000000E+01 0.  0.
    9000005    1    3    3    0    0  0.11476812427E+02 -0.61063149501E+02 -0.76430463925E+02  0.98504016498E+02  0.10000000000E+01 0.  0.
<mgrwt>
<rscale>  0 0.12499425E+03</rscale>
<asrwt>0</asrwt>
<pdfrwt beam="1">  1        4 0.38015416E-02 0.12499425E+03</pdfrwt>
<pdfrwt beam="2">  1       -4 0.24318322E-01 0.12499425E+03</pdfrwt>
<totfact> 0.93131140E+03</totfact>
</mgrwt>
</event>
<event>
 5    1  0.3486589E-002  0.1250003E+03  0.7818608E-02  0.1235069E+00
          4   -1    0    0  501    0  0.00000000000E+00  0.00000000000E+00  0.30284981560E+02  0.30311598573E+02  0.12700000000E+01 0. -1.
         -4   -1    0    0    0  501 -0.00000000000E+00 -0.00000000000E+00 -0.12889733623E+03  0.12890359261E+03  0.12700000000E+01 0. -1.
         25    2    1    2    0    0  0.00000000000E+00  0.00000000000E+00 -0.98612354674E+02  0.15921519118E+03  0.12500032244E+03 0.  0.
    9000005    1    3    3    0    0 -0.29918408768E+02  0.33749241396E+02  0.57907527710E+01  0.45482472400E+02  0.10000000000E+01 0.  0.
    9000005    1    3    3    0    0  0.29918408768E+02 -0.33749241396E+02 -0.10440310745E+03  0.11373271878E+03  0.10000000000E+01 0.  0.
<mgrwt>
<rscale>  0 0.12500032E+03</rscale>
<asrwt>0</asrwt>
<pdfrwt beam="1">  1        4 0.46617567E-02 0.12500032E+03</pdfrwt>
<pdfrwt beam="2">  1       -4 0.19832888E-01 0.12500032E+03</pdfrwt>
<totfact> 0.97493597E+03</totfact>
</mgrwt>
</event>
<event>
 5    1  0.3486589E-002  0.1250010E+03  0.7818608E-02  0.1235068E+00
         -4   -1    0    0    0  501 -0.00000000000E+00  0.00000000000E+00  0.63301267699E+02  0.63314006289E+02  0.12700000000E+01 0.  1.
          4   -1    0    0  501    0  0.00000000000E+00 -0.00000000000E+00 -0.61684389910E+02  0.61697462335E+02  0.12700000000E+01 0.  1.
         25    2    1    2    0    0  0.00000000000E+00  0.00000000000E+00  0.16168777891E+01  0.12501146862E+03  0.12500101197E+03 0.  0.
    9000005    1    3    3    0    0  0.59365632740E+02  0.15199856769E+02 -0.11440003814E+02  0.62347314967E+02  0.10000000000E+01 0.  0.
    9000005    1    3    3    0    0 -0.59365632740E+02 -0.15199856769E+02  0.13056881603E+02  0.62664153657E+02  0.10000000000E+01 0.  0.
<mgrwt>
<rscale>  0 0.12500101E+03</rscale>
<asrwt>0</asrwt>
<pdfrwt beam="2">  1        4 0.94918916E-02 0.12500101E+03</pdfrwt>
<pdfrwt beam="1">  1       -4 0.97406421E-02 0.12500101E+03</pdfrwt>
<totfact> 0.10452374E+04</totfact>
</mgrwt>
</event>
<event>
 5    1  0.3486589E-002  0.1250010E+03  0.7818608E-02  0.1235068E+00
         -4   -1    0    0    0  501 -0.00000000000E+00  0.00000000000E+00  0.47532039433E+02  0.47549002857E+02  0.12700000000E+01 0.  1.
          4   -1    0    0  501    0  0.00000000000E+00 -0.00000000000E+00 -0.82146253419E+02  0.82156070078E+02  0.12700000000E+01 0.  1.
         25    2    1    2    0    0  0.00000000000E+00  0.00000000000E+00 -0.34614213985E+02  0.12970507294E+03  0.12500104854E+03 0.  0.
    9000005    1    3    3    0    0 -0.60324519640E+02 -0.16209530973E+02 -0.15360621949E+02  0.64333080688E+02  0.10000000000E+01 0.  0.
    9000005    1    3    3    0    0  0.60324519640E+02  0.16209530973E+02 -0.19253592036E+02  0.65371992247E+02  0.10000000000E+01 0.  0.
<mgrwt>
<rscale>  0 0.12500105E+03</rscale>
<asrwt>0</asrwt>
<pdfrwt beam="2">  1        4 0.12639945E-01 0.12500105E+03</pdfrwt>
<pdfrwt beam="1">  1       -4 0.73146815E-02 0.12500105E+03</pdfrwt>
<totfact> 0.10350576E+04</totfact>
</mgrwt>
</event>
<event>
 5    1  0.3486589E-002  0.1250032E+03  0.7818608E-02  0.1235064E+00
          4   -1    0    0  501    0  0.00000000000E+00  0.00000000000E+00  0.20903800181E+02  0.20942343757E+02  0.12700000000E+01 0.  1.
         -4   -1    0    0    0  501 -0.00000000000E+00 -0.00000000000E+00 -0.18666458569E+03  0.18666890595E+03  0.12700000000E+01 0.  1.
         25    2    1    2    0    0  0.00000000000E+00  0.00000000000E+00 -0.16576078551E+03  0.20761124971E+03  0.12500317194E+03 0.  0.
    9000005    1    3    3    0    0  0.57264447662E+02 -0.15630399341E+02 -0.11533804702E+03  0.12972043571E+03  0.10000000000E+01 0.  0.
    9000005    1    3    3    0    0 -0.57264447662E+02  0.15630399341E+02 -0.50422738485E+02  0.77890814002E+02  0.10000000000E+01 0.  0.
<mgrwt>
<rscale>  0 0.12500317E+03</rscale>
<asrwt>0</asrwt>
<pdfrwt beam="1">  1        4 0.32192666E-02 0.12500317E+03</pdfrwt>
<pdfrwt beam="2">  1       -4 0.28720925E-01 0.12500317E+03</pdfrwt>
<totfact> 0.88861184E+03</totfact>
</mgrwt>
</event>
<event>
 5    1  0.3486589E-002  0.1249826E+03  0.7818608E-02  0.1235096E+00
          4   -1    0    0  501    0  0.00000000000E+00  0.00000000000E+00  0.35600883197E+02  0.35623528523E+02  0.12700000000E+01 0.  1.
         -4   -1    0    0    0  501 -0.00000000000E+00 -0.00000000000E+00 -0.10963169106E+03  0.10963904680E+03  0.12700000000E+01 0.  1.
         25    2    1    2    0    0  0.00000000000E+00  0.00000000000E+00 -0.74030807859E+02  0.14526257533E+03  0.12498261990E+03 0.  0.
    9000005    1    3    3    0    0 -0.11469826451E+01  0.12151559023E+02  0.34207544710E+02  0.36333621770E+02  0.10000000000E+01 0.  0.
    9000005    1    3    3    0    0  0.11469826451E+01 -0.12151559023E+02 -0.10823835257E+03  0.10892895356E+03  0.10000000000E+01 0.  0.
<mgrwt>
<rscale>  0 0.12498262E+03</rscale>
<asrwt>0</asrwt>
<pdfrwt beam="1">  1        4 0.54793668E-02 0.12498262E+03</pdfrwt>
<pdfrwt beam="2">  1       -4 0.16868722E-01 0.12498262E+03</pdfrwt>
<totfact> 0.10029581E+04</totfact>
</mgrwt>
</event>
<event>
 5    1  0.3486589E-002  0.1249922E+03  0.7818608E-02  0.1235081E+00
         -4   -1    0    0    0  501 -0.00000000000E+00  0.00000000000E+00  0.36263427552E+02  0.36285659396E+02  0.12700000000E+01 0. -1.
          4   -1    0    0  501    0  0.00000000000E+00 -0.00000000000E+00 -0.10764626245E+03  0.10765375386E+03  0.12700000000E+01 0. -1.
         25    2    1    2    0    0  0.00000000000E+00  0.00000000000E+00 -0.71382834901E+02  0.14393941326E+03  0.12499218204E+03 0.  0.
    9000005    1    3    3    0    0  0.17726358699E+02  0.30733528294E+02  0.23545274855E+02  0.42592881120E+02  0.10000000000E+01 0.  0.
    9000005    1    3    3    0    0 -0.17726358699E+02 -0.30733528294E+02 -0.94928109756E+02  0.10134653214E+03  0.10000000000E+01 0.  0.
<mgrwt>
<rscale>  0 0.12499218E+03</rscale>
<asrwt>0</asrwt>
<pdfrwt beam="2">  1        4 0.16563250E-01 0.12499218E+03</pdfrwt>
<pdfrwt beam="1">  1       -4 0.55812753E-02 0.12499218E+03</pdfrwt>
<totfact> 0.10054352E+04</totfact>
</mgrwt>
</event>
<event>
 5    1  0.3486589E-002  0.1250055E+03  0.7818608E-02  0.1235061E+00
         -4   -1    0    0    0  501 -0.00000000000E+00  0.00000000000E+00  0.28640871342E+01  0.31330328936E+01  0.12700000000E+01 0. -1.
          4   -1    0    0  501    0  0.00000000000E+00 -0.00000000000E+00 -0.13025540257E+04  0.13025546448E+04  0.12700000000E+01 0. -1.
         25    2    1    2    0    0  0.00000000000E+00  0.00000000000E+00 -0.12996899386E+04  0.13056876777E+04  0.12500550128E+03 0.  0.
    9000005    1    3    3    0    0 -0.45131725636E+02 -0.30737270212E+02 -0.33235325715E+03  0.33681054018E+03  0.10000000000E+01 0.  0.
    9000005    1    3    3    0    0  0.45131725636E+02  0.30737270212E+02 -0.96733668142E+03  0.96887713755E+03  0.10000000000E+01 0.  0.
<mgrwt>
<rscale>  0 0.12500550E+03</rscale>
<asrwt>0</asrwt>
<pdfrwt beam="2">  1        4 0.20041321E+00 0.12500550E+03</pdfrwt>
<pdfrwt beam="1">  1       -4 0.46136559E-03 0.12500550E+03</pdfrwt>
<totfact> 0.22092089E+03</totfact>
</mgrwt>
</event>
<event>
 4    1  0.3486589E-002  0.1247569E+03  0.7818608E-02  0.1235450E+00
         -4   -1    0    0    0  501 -0.00000000000E+00  0.00000000000E+00  0.13104894189E+03  0.13105509555E+03  0.12700000000E+01 0. -1.
          4   -1    0    0  501    0  0.00000000000E+00 -0.00000000000E+00 -0.29671303725E+02  0.29698470748E+02  0.12700000000E+01 0. -1.
    9000005    1    1    2    0    0  0.27948809975E+02  0.48417354969E+02  0.15056829337E+02  0.57905823118E+02  0.10000000000E+01 0.  0.
    9000005    1    1    2    0    0 -0.27948809975E+02 -0.48417354969E+02  0.86320808829E+02  0.10284774318E+03  0.10000000000E+01 0.  0.
<mgrwt>
<rscale>  0 0.12475690E+03</rscale>
<asrwt>0</asrwt>
<pdfrwt beam="2">  1        4 0.45673790E-02 0.12475690E+03</pdfrwt>
<pdfrwt beam="1">  1       -4 0.20163939E-01 0.12475690E+03</pdfrwt>
<totfact> 0.97730683E+03</totfact>
</mgrwt>
</event>
<event>
 5    1  0.3486589E-002  0.1250013E+03  0.7818608E-02  0.1235067E+00
         -4   -1    0    0    0  501 -0.00000000000E+00  0.00000000000E+00  0.10147411238E+03  0.10148205942E+03  0.12700000000E+01 0.  1.
          4   -1    0    0  501    0  0.00000000000E+00 -0.00000000000E+00 -0.38475901174E+02  0.38496855341E+02  0.12700000000E+01 0.  1.
         25    2    1    2    0    0  0.00000000000E+00  0.00000000000E+00  0.62998211208E+02  0.13997891476E+03  0.12500128784E+03 0.  0.
    9000005    1    3    3    0    0 -0.31780236395E+02  0.38434094886E+02 -0.10671698879E+02  0.51010275749E+02  0.10000000000E+01 0.  0.
    9000005    1    3    3    0    0  0.31780236395E+02 -0.38434094886E+02  0.73669910087E+02  0.88968639010E+02  0.10000000000E+01 0.  0.
<mgrwt>
<rscale>  0 0.12500129E+03</rscale>
<asrwt>0</asrwt>
<pdfrwt beam="2">  1        4 0.59215927E-02 0.12500129E+03</pdfrwt>
<pdfrwt beam="1">  1       -4 0.15613625E-01 0.12500129E+03</pdfrwt>
<totfact> 0.10133729E+04</totfact>
</mgrwt>
</event>
<event>
 5    1  0.3486589E-002  0.1250011E+03  0.7818608E-02  0.1235068E+00
          4   -1    0    0  501    0  0.00000000000E+00  0.00000000000E+00  0.51522839434E+02  0.51538489339E+02  0.12700000000E+01 0.  1.
         -4   -1    0    0    0  501 -0.00000000000E+00 -0.00000000000E+00 -0.75784692059E+02  0.75795332643E+02  0.12700000000E+01 0.  1.
         25    2    1    2    0    0  0.00000000000E+00  0.00000000000E+00 -0.24261852625E+02  0.12733382198E+03  0.12500105891E+03 0.  0.
    9000005    1    3    3    0    0  0.27406438555E+02  0.26689367523E+02  0.38206653114E+02  0.54075720571E+02  0.10000000000E+01 0.  0.
    9000005    1    3    3    0    0 -0.27406438555E+02 -0.26689367523E+02 -0.62468505740E+02  0.73258101411E+02  0.10000000000E+01 0.  0.
<mgrwt>
<rscale>  0 0.12500106E+03</rscale>
<asrwt>0</asrwt>
<pdfrwt beam="1">  1        4 0.79286131E-02 0.12500106E+03</pdfrwt>
<pdfrwt beam="2">  1       -4 0.11661206E-01 0.12500106E+03</pdfrwt>
<totfact> 0.10401653E+04</totfact>
</mgrwt>
</event>
<event>
 5    1  0.3486589E-002  0.1250004E+03  0.7818608E-02  0.1235069E+00
          4   -1    0    0  501    0  0.00000000000E+00  0.00000000000E+00  0.88581109001E+01  0.89486886592E+01  0.12700000000E+01 0. -1.
         -4   -1    0    0    0  501 -0.00000000000E+00 -0.00000000000E+00 -0.43864803644E+03  0.43864987493E+03  0.12700000000E+01 0. -1.
         25    2    1    2    0    0  0.00000000000E+00  0.00000000000E+00 -0.42978992554E+03  0.44759856358E+03  0.12500037611E+03 0.  0.
    9000005    1    3    3    0    0 -0.32970297388E+02  0.53988781859E+01 -0.25787682764E+02  0.42216027499E+02  0.10000000000E+01 0.  0.
    9000005    1    3    3    0    0  0.32970297388E+02 -0.53988781859E+01 -0.40400224278E+03  0.40538253609E+03  0.10000000000E+01 0.  0.
<mgrwt>
<rscale>  0 0.12500038E+03</rscale>
<asrwt>0</asrwt>
<pdfrwt beam="1">  1        4 0.13698956E-02 0.12500038E+03</pdfrwt>
<pdfrwt beam="2">  1       -4 0.67491405E-01 0.12500038E+03</pdfrwt>
<totfact> 0.60171906E+03</totfact>
</mgrwt>
</event>
<event>
 5    1  0.3486589E-002  0.1250026E+03  0.7818608E-02  0.1235065E+00
          4   -1    0    0  501    0  0.00000000000E+00  0.00000000000E+00  0.14924925863E+03  0.14925466191E+03  0.12700000000E+01 0.  1.
         -4   -1    0    0    0  501 -0.00000000000E+00 -0.00000000000E+00 -0.26152441387E+02  0.26183259738E+02  0.12700000000E+01 0.  1.
         25    2    1    2    0    0  0.00000000000E+00  0.00000000000E+00  0.12309681724E+03  0.17543792165E+03  0.12500255172E+03 0.  0.
    9000005    1    3    3    0    0  0.44644313388E+01 -0.65248789133E+01 -0.25454621720E+02  0.26672888087E+02  0.10000000000E+01 0.  0.
    9000005    1    3    3    0    0 -0.44644313388E+01  0.65248789133E+01  0.14855143896E+03  0.14876503356E+03  0.10000000000E+01 0.  0.
<mgrwt>
<rscale>  0 0.12500255E+03</rscale>
<asrwt>0</asrwt>
<pdfrwt beam="1">  1        4 0.22964211E-01 0.12500255E+03</pdfrwt>
<pdfrwt beam="2">  1       -4 0.40262387E-02 0.12500255E+03</pdfrwt>
<totfact> 0.94439291E+03</totfact>
</mgrwt>
</event>
<event>
 5    1  0.3486589E-002  0.1249999E+03  0.7818608E-02  0.1235069E+00
          4   -1    0    0  501    0  0.00000000000E+00  0.00000000000E+00  0.43882435220E+03  0.43882618995E+03  0.12700000000E+01 0. -1.
         -4   -1    0    0    0  501 -0.00000000000E+00 -0.00000000000E+00 -0.88544471037E+01  0.89450619624E+01  0.12700000000E+01 0. -1.
         25    2    1    2    0    0  0.00000000000E+00  0.00000000000E+00  0.42996990509E+03  0.44777125191E+03  0.12499989899E+03 0.  0.
    9000005    1    3    3    0    0  0.54549642262E+01  0.18797038575E+02  0.23909608115E+01  0.19743403646E+02  0.10000000000E+01 0.  0.
    9000005    1    3    3    0    0 -0.54549642262E+01 -0.18797038575E+02  0.42757894428E+03  0.42802784826E+03  0.10000000000E+01 0.  0.
<mgrwt>
<rscale>  0 0.12499990E+03</rscale>
<asrwt>0</asrwt>
<pdfrwt beam="1">  1        4 0.67518533E-01 0.12499990E+03</pdfrwt>
<pdfrwt beam="2">  1       -4 0.13693347E-02 0.12499990E+03</pdfrwt>
<totfact> 0.60157500E+03</totfact>
</mgrwt>
</event>
<event>
 5    1  0.3486589E-002  0.1250010E+03  0.7818608E-02  0.1235068E+00
          4   -1    0    0  501    0  0.00000000000E+00  0.00000000000E+00  0.21947481529E+02  0.21984195357E+02  0.12700000000E+01 0.  1.
         -4   -1    0    0    0  501 -0.00000000000E+00 -0.00000000000E+00 -0.17779670918E+03  0.17780124492E+03  0.12700000000E+01 0.  1.
         25    2    1    2    0    0  0.00000000000E+00  0.00000000000E+00 -0.15584922765E+03  0.19978544027E+03  0.12500096154E+03 0.  0.
    9000005    1    3    3    0    0 -0.38577813356E+02  0.44997711226E+02 -0.46269626631E+02  0.75199202439E+02  0.10000000000E+01 0.  0.
    9000005    1    3    3    0    0  0.38577813356E+02 -0.44997711226E+02 -0.10957960102E+03  0.12458623783E+03  0.10000000000E+01 0.  0.
<mgrwt>
<rscale>  0 0.12500096E+03</rscale>
<asrwt>0</asrwt>
<pdfrwt beam="1">  1        4 0.33797088E-02 0.12500096E+03</pdfrwt>
<pdfrwt beam="2">  1       -4 0.27356512E-01 0.12500096E+03</pdfrwt>
<totfact> 0.90169766E+03</totfact>
</mgrwt>
</event>
<event>
 5    1  0.3486589E-002  0.1249989E+03  0.7818608E-02  0.1235071E+00
         -4   -1    0    0    0  501 -0.00000000000E+00  0.00000000000E+00  0.32643527534E+02  0.32668222937E+02  0.12700000000E+01 0.  1.
          4   -1    0    0  501    0  0.00000000000E+00 -0.00000000000E+00 -0.11958836517E+03  0.11959510853E+03  0.12700000000E+01 0.  1.
         25    2    1    2    0    0  0.00000000000E+00  0.00000000000E+00 -0.86944837641E+02  0.15226333147E+03  0.12499886927E+03 0.  0.
    9000005    1    3    3    0    0 -0.59599955383E+02  0.98920854516E+01 -0.62930730286E+02  0.87242677919E+02  0.10000000000E+01 0.  0.
    9000005    1    3    3    0    0  0.59599955383E+02 -0.98920854516E+01 -0.24014107355E+02  0.65020653551E+02  0.10000000000E+01 0.  0.
<mgrwt>
<rscale>  0 0.12499887E+03</rscale>
<asrwt>0</asrwt>
<pdfrwt beam="2">  1        4 0.18400628E-01 0.12499887E+03</pdfrwt>
<pdfrwt beam="1">  1       -4 0.50244996E-02 0.12499887E+03</pdfrwt>
<totfact> 0.98856951E+03</totfact>
</mgrwt>
</event>
<event>
 5    1  0.3486589E-002  0.1250037E+03  0.7818608E-02  0.1235063E+00
         -4   -1    0    0    0  501 -0.00000000000E+00  0.00000000000E+00  0.23949446099E+02  0.23983095472E+02  0.12700000000E+01 0. -1.
          4   -1    0    0  501    0  0.00000000000E+00 -0.00000000000E+00 -0.16296307618E+03  0.16296802477E+03  0.12700000000E+01 0. -1.
         25    2    1    2    0    0  0.00000000000E+00  0.00000000000E+00 -0.13901363008E+03  0.18695112024E+03  0.12500372799E+03 0.  0.
    9000005    1    3    3    0    0 -0.27934881686E+02  0.47426205745E+02 -0.11376845589E+03  0.12638775321E+03  0.10000000000E+01 0.  0.
    9000005    1    3    3    0    0  0.27934881686E+02 -0.47426205745E+02 -0.25245174188E+02  0.60563367030E+02  0.10000000000E+01 0.  0.
<mgrwt>
<rscale>  0 0.12500373E+03</rscale>
<asrwt>0</asrwt>
<pdfrwt beam="2">  1        4 0.25074211E-01 0.12500373E+03</pdfrwt>
<pdfrwt beam="1">  1       -4 0.36874993E-02 0.12500373E+03</pdfrwt>
<totfact> 0.92372816E+03</totfact>
</mgrwt>
</event>
<event>
 5    1  0.3486589E-002  0.1249978E+03  0.7818608E-02  0.1235073E+00
         -4   -1    0    0    0  501 -0.00000000000E+00  0.00000000000E+00  0.14168409730E+02  0.14225214736E+02  0.12700000000E+01 0.  1.
          4   -1    0    0  501    0  0.00000000000E+00 -0.00000000000E+00 -0.27508203341E+03  0.27508496507E+03  0.12700000000E+01 0.  1.
         25    2    1    2    0    0  0.00000000000E+00  0.00000000000E+00 -0.26091362368E+03  0.28931017980E+03  0.12499784444E+03 0.  0.
    9000005    1    3    3    0    0  0.21677492421E+02 -0.10613869946E+02 -0.26386939154E+03  0.26497287353E+03  0.10000000000E+01 0.  0.
    9000005    1    3    3    0    0 -0.21677492421E+02  0.10613869946E+02  0.29557678633E+01  0.24337306272E+02  0.10000000000E+01 0.  0.
<mgrwt>
<rscale>  0 0.12499784E+03</rscale>
<asrwt>0</asrwt>
<pdfrwt beam="2">  1        4 0.42324904E-01 0.12499784E+03</pdfrwt>
<pdfrwt beam="1">  1       -4 0.21843507E-02 0.12499784E+03</pdfrwt>
<totfact> 0.76963305E+03</totfact>
</mgrwt>
</event>
<event>
 5    1  0.3486589E-002  0.1249952E+03  0.7818608E-02  0.1235077E+00
          4   -1    0    0  501    0  0.00000000000E+00  0.00000000000E+00  0.20790775258E+02  0.20829527979E+02  0.12700000000E+01 0. -1.
         -4   -1    0    0    0  501 -0.00000000000E+00 -0.00000000000E+00 -0.18765340197E+03  0.18765769948E+03  0.12700000000E+01 0. -1.
         25    2    1    2    0    0  0.00000000000E+00  0.00000000000E+00 -0.16686262672E+03  0.20848722745E+03  0.12499515117E+03 0.  0.
    9000005    1    3    3    0    0 -0.59267637158E+02  0.18252083022E+02 -0.70602566389E+02  0.93976133830E+02  0.10000000000E+01 0.  0.
    9000005    1    3    3    0    0  0.59267637158E+02 -0.18252083022E+02 -0.96260060327E+02  0.11451109362E+03  0.10000000000E+01 0.  0.
<mgrwt>
<rscale>  0 0.12499515E+03</rscale>
<asrwt>0</asrwt>
<pdfrwt beam="1">  1        4 0.32018925E-02 0.12499515E+03</pdfrwt>
<pdfrwt beam="2">  1       -4 0.28873065E-01 0.12499515E+03</pdfrwt>
<totfact> 0.88733154E+03</totfact>
</mgrwt>
</event>
<event>
 5    1  0.3486589E-002  0.1250044E+03  0.7818608E-02  0.1235062E+00
         -4   -1    0    0    0  501 -0.00000000000E+00  0.00000000000E+00  0.19509613916E+03  0.19510027272E+03  0.12700000000E+01 0. -1.
          4   -1    0    0  501    0  0.00000000000E+00 -0.00000000000E+00 -0.19999102839E+02  0.20039386577E+02  0.12700000000E+01 0. -1.
         25    2    1    2    0    0  0.00000000000E+00  0.00000000000E+00  0.17509703632E+03  0.21513965929E+03  0.12500440342E+03 0.  0.
    9000005    1    3    3    0    0  0.28902373331E+02 -0.77492980819E+01 -0.68765989358E+01  0.30719479453E+02  0.10000000000E+01 0.  0.
    9000005    1    3    3    0    0 -0.28902373331E+02  0.77492980819E+01  0.18197363525E+03  0.18442017984E+03  0.10000000000E+01 0.  0.
<mgrwt>
<rscale>  0 0.12500440E+03</rscale>
<asrwt>0</asrwt>
<pdfrwt beam="2">  1        4 0.30802017E-02 0.12500440E+03</pdfrwt>
<pdfrwt beam="1">  1       -4 0.30018208E-01 0.12500440E+03</pdfrwt>
<totfact> 0.87634701E+03</totfact>
</mgrwt>
</event>
<event>
 5    1  0.3486589E-002  0.1250005E+03  0.7818608E-02  0.1235069E+00
          4   -1    0    0  501    0  0.00000000000E+00  0.00000000000E+00  0.58785670760E+01  0.60141874652E+01  0.12700000000E+01 0.  1.
         -4   -1    0    0    0  501 -0.00000000000E+00 -0.00000000000E+00 -0.65678131405E+03  0.65678254193E+03  0.12700000000E+01 0.  1.
         25    2    1    2    0    0  0.00000000000E+00  0.00000000000E+00 -0.65090274698E+03  0.66279672940E+03  0.12500047392E+03 0.  0.
    9000005    1    3    3    0    0  0.35766629915E+02  0.32034807857E+02 -0.53753219291E+03  0.53967336338E+03  0.10000000000E+01 0.  0.
    9000005    1    3    3    0    0 -0.35766629915E+02 -0.32034807857E+02 -0.11337055407E+03  0.12312336602E+03  0.10000000000E+01 0.  0.
<mgrwt>
<rscale>  0 0.12500047E+03</rscale>
<asrwt>0</asrwt>
<pdfrwt beam="1">  1        4 0.91492224E-03 0.12500047E+03</pdfrwt>
<pdfrwt beam="2">  1       -4 0.10105375E+00 0.12500047E+03</pdfrwt>
<totfact> 0.45124154E+03</totfact>
</mgrwt>
</event>
<event>
 5    1  0.3486589E-002  0.1249982E+03  0.7818608E-02  0.1235072E+00
         -4   -1    0    0    0  501 -0.00000000000E+00  0.00000000000E+00  0.21896712256E+02  0.21933511064E+02  0.12700000000E+01 0.  1.
          4   -1    0    0  501    0  0.00000000000E+00 -0.00000000000E+00 -0.17820024902E+03  0.17820477449E+03  0.12700000000E+01 0.  1.
         25    2    1    2    0    0  0.00000000000E+00  0.00000000000E+00 -0.15630353677E+03  0.20013828556E+03  0.12499815094E+03 0.  0.
    9000005    1    3    3    0    0  0.39894119695E+01 -0.15810475608E+02 -0.17474182170E+03  0.17550381990E+03  0.10000000000E+01 0.  0.
    9000005    1    3    3    0    0 -0.39894119695E+01  0.15810475608E+02  0.18438284937E+02  0.24634465657E+02  0.10000000000E+01 0.  0.
<mgrwt>
<rscale>  0 0.12499815E+03</rscale>
<asrwt>0</asrwt>
<pdfrwt beam="2">  1        4 0.27418601E-01 0.12499815E+03</pdfrwt>
<pdfrwt beam="1">  1       -4 0.33719039E-02 0.12499815E+03</pdfrwt>
<totfact> 0.90115917E+03</totfact>
</mgrwt>
</event>
<event>
 5    1  0.3486589E-002  0.1249946E+03  0.7818608E-02  0.1235078E+00
          4   -1    0    0  501    0  0.00000000000E+00  0.00000000000E+00  0.65823232295E+03  0.65823354812E+03  0.12700000000E+01 0.  1.
         -4   -1    0    0    0  501 -0.00000000000E+00 -0.00000000000E+00 -0.58647417873E+01  0.60006746480E+01  0.12700000000E+01 0.  1.
         25    2    1    2    0    0  0.00000000000E+00  0.00000000000E+00  0.65236758116E+03  0.66423422277E+03  0.12499456688E+03 0.  0.
    9000005    1    3    3    0    0  0.21963047633E+02  0.36543505779E+02  0.83409616263E+02  0.93680133225E+02  0.10000000000E+01 0.  0.
    9000005    1    3    3    0    0 -0.21963047633E+02 -0.36543505779E+02  0.56895796490E+03  0.57055408955E+03  0.10000000000E+01 0.  0.
<mgrwt>
<rscale>  0 0.12499457E+03</rscale>
<asrwt>0</asrwt>
<pdfrwt beam="1">  1        4 0.10127710E+00 0.12499457E+03</pdfrwt>
<pdfrwt beam="2">  1       -4 0.91281825E-03 0.12499457E+03</pdfrwt>
<totfact> 0.45048423E+03</totfact>
</mgrwt>
</event>
<event>
 5    1  0.3486589E-002  0.1249907E+03  0.7818608E-02  0.1235084E+00
         -4   -1    0    0    0  501 -0.00000000000E+00  0.00000000000E+00  0.16687530122E+04  0.16687534955E+04  0.12700000000E+01 0.  1.
          4   -1    0    0  501    0  0.00000000000E+00 -0.00000000000E+00 -0.21676669525E+01  0.25123057173E+01  0.12700000000E+01 0.  1.
         25    2    1    2    0    0  0.00000000000E+00  0.00000000000E+00  0.16665853452E+04  0.16712658012E+04  0.12499066048E+03 0.  0.
    9000005    1    3    3    0    0  0.27720997802E+02  0.41523365155E+02  0.13357379947E+04  0.13366711016E+04  0.10000000000E+01 0.  0.
    9000005    1    3    3    0    0 -0.27720997802E+02 -0.41523365155E+02  0.33084735058E+03  0.33459469954E+03  0.10000000000E+01 0.  0.
<mgrwt>
<rscale>  0 0.12499066E+03</rscale>
<asrwt>0</asrwt>
<pdfrwt beam="2">  1        4 0.36003471E-03 0.12499066E+03</pdfrwt>
<pdfrwt beam="1">  1       -4 0.25675804E+00 0.12499066E+03</pdfrwt>
<totfact> 0.14795988E+03</totfact>
</mgrwt>
</event>
<event>
 5    1  0.3486589E-002  0.1249930E+03  0.7818608E-02  0.1235080E+00
          4   -1    0    0  501    0  0.00000000000E+00  0.00000000000E+00  0.33213780115E+03  0.33214022920E+03  0.12700000000E+01 0.  1.
         -4   -1    0    0    0  501 -0.00000000000E+00 -0.00000000000E+00 -0.11722845346E+02  0.11791437699E+02  0.12700000000E+01 0.  1.
         25    2    1    2    0    0  0.00000000000E+00  0.00000000000E+00  0.32041495581E+03  0.34393166690E+03  0.12499299018E+03 0.  0.
    9000005    1    3    3    0    0  0.35595448446E+02 -0.19906990930E+02  0.29934397334E+02  0.50600319976E+02  0.10000000000E+01 0.  0.
    9000005    1    3    3    0    0 -0.35595448446E+02  0.19906990930E+02  0.29048055847E+03  0.29333134693E+03  0.10000000000E+01 0.  0.
<mgrwt>
<rscale>  0 0.12499299E+03</rscale>
<asrwt>0</asrwt>
<pdfrwt beam="1">  1        4 0.51103590E-01 0.12499299E+03</pdfrwt>
<pdfrwt beam="2">  1       -4 0.18089776E-02 0.12499299E+03</pdfrwt>
<totfact> 0.70408267E+03</totfact>
</mgrwt>
</event>
<event>
 5    1  0.3486589E-002  0.1250054E+03  0.7818608E-02  0.1235061E+00
         -4   -1    0    0    0  501 -0.00000000000E+00  0.00000000000E+00  0.35840341114E+02  0.35862835236E+02  0.12700000000E+01 0. -1.
          4   -1    0    0  501    0  0.00000000000E+00 -0.00000000000E+00 -0.10893941683E+03  0.10894681932E+03  0.12700000000E+01 0. -1.
         25    2    1    2    0    0  0.00000000000E+00  0.00000000000E+00 -0.73099075716E+02  0.14480965455E+03  0.12500544461E+03 0.  0.
    9000005    1    3    3    0    0 -0.43263773666E+02  0.24381941199E+02 -0.80498929686E+02  0.94590225970E+02  0.10000000000E+01 0.  0.
    9000005    1    3    3    0    0  0.43263773666E+02 -0.24381941199E+02  0.73998539698E+01  0.50219428583E+02  0.10000000000E+01 0.  0.
<mgrwt>
<rscale>  0 0.12500544E+03</rscale>
<asrwt>0</asrwt>
<pdfrwt beam="2">  1        4 0.16762210E-01 0.12500544E+03</pdfrwt>
<pdfrwt beam="1">  1       -4 0.55161984E-02 0.12500544E+03</pdfrwt>
<totfact> 0.10033627E+04</totfact>
</mgrwt>
</event>
<event>
 5    1  0.3486589E-002  0.1249997E+03  0.7818608E-02  0.1235070E+00
         -4   -1    0    0    0  501 -0.00000000000E+00  0.00000000000E+00  0.15182086666E+02  0.15235112587E+02  0.12700000000E+01 0.  1.
          4   -1    0    0  501    0  0.00000000000E+00 -0.00000000000E+00 -0.25678908336E+03  0.25679222385E+03  0.12700000000E+01 0.  1.
         25    2    1    2    0    0  0.00000000000E+00  0.00000000000E+00 -0.24160699669E+03  0.27202733644E+03  0.12499972368E+03 0.  0.
    9000005    1    3    3    0    0  0.34753774937E+02 -0.33693646651E+02 -0.34790455594E+02  0.59619313125E+02  0.10000000000E+01 0.  0.
    9000005    1    3    3    0    0 -0.34753774937E+02  0.33693646651E+02 -0.20681654110E+03  0.21240802332E+03  0.10000000000E+01 0.  0.
<mgrwt>
<rscale>  0 0.12499972E+03</rscale>
<asrwt>0</asrwt>
<pdfrwt beam="2">  1        4 0.39510330E-01 0.12499972E+03</pdfrwt>
<pdfrwt beam="1">  1       -4 0.23400263E-02 0.12499972E+03</pdfrwt>
<totfact> 0.79247727E+03</totfact>
</mgrwt>
</event>
<event>
 5    1  0.3486589E-002  0.1249966E+03  0.7818608E-02  0.1235075E+00
         -4   -1    0    0    0  501 -0.00000000000E+00  0.00000000000E+00  0.84467991796E+02  0.84477538660E+02  0.12700000000E+01 0.  1.
          4   -1    0    0  501    0  0.00000000000E+00 -0.00000000000E+00 -0.46221917959E+02  0.46239362018E+02  0.12700000000E+01 0.  1.
         25    2    1    2    0    0  0.00000000000E+00  0.00000000000E+00  0.38246073837E+02  0.13071690068E+03  0.12499658379E+03 0.  0.
    9000005    1    3    3    0    0 -0.36289833382E+02 -0.33971775855E+02  0.58724261656E+02  0.76945256310E+02  0.10000000000E+01 0.  0.
    9000005    1    3    3    0    0  0.36289833382E+02  0.33971775855E+02 -0.20478187819E+02  0.53771644367E+02  0.10000000000E+01 0.  0.
<mgrwt>
<rscale>  0 0.12499658E+03</rscale>
<asrwt>0</asrwt>
<pdfrwt beam="2">  1        4 0.71131406E-02 0.12499658E+03</pdfrwt>
<pdfrwt beam="1">  1       -4 0.12997152E-01 0.12499658E+03</pdfrwt>
<totfact> 0.10329958E+04</totfact>
</mgrwt>
</event>
<event>
 5    1  0.3486589E-002  0.1250001E+03  0.7818608E-02  0.1235069E+00
         -4   -1    0    0    0  501 -0.00000000000E+00  0.00000000000E+00  0.56089353483E+02  0.56103729592E+02  0.12700000000E+01 0.  1.
          4   -1    0    0  501    0  0.00000000000E+00 -0.00000000000E+00 -0.69614387246E+02  0.69625970813E+02  0.12700000000E+01 0.  1.
         25    2    1    2    0    0  0.00000000000E+00  0.00000000000E+00 -0.13525033763E+02  0.12572970040E+03  0.12500012410E+03 0.  0.
    9000005    1    3    3    0    0  0.19288407902E+02  0.59192122420E+02 -0.12987109390E+01  0.62277096000E+02  0.10000000000E+01 0.  0.
    9000005    1    3    3    0    0 -0.19288407902E+02 -0.59192122420E+02 -0.12226322824E+02  0.63452604405E+02  0.10000000000E+01 0.  0.
<mgrwt>
<rscale>  0 0.12500012E+03</rscale>
<asrwt>0</asrwt>
<pdfrwt beam="2">  1        4 0.10711903E-01 0.12500012E+03</pdfrwt>
<pdfrwt beam="1">  1       -4 0.86311283E-02 0.12500012E+03</pdfrwt>
<totfact> 0.10436862E+04</totfact>
</mgrwt>
</event>
<event>
 5    1  0.3486589E-002  0.1249977E+03  0.7818608E-02  0.1235073E+00
          4   -1    0    0  501    0  0.00000000000E+00  0.00000000000E+00  0.12658694007E+04  0.12658700378E+04  0.12700000000E+01 0.  1.
         -4   -1    0    0    0  501 -0.00000000000E+00 -0.00000000000E+00 -0.29543709154E+01  0.32157747909E+01  0.12700000000E+01 0.  1.
         25    2    1    2    0    0  0.00000000000E+00  0.00000000000E+00  0.12629150298E+04  0.12690858126E+04  0.12499770875E+03 0.  0.
    9000005    1    3    3    0    0  0.56844587442E+02 -0.31387773548E+01  0.36984658194E+03  0.37420402619E+03  0.10000000000E+01 0.  0.
    9000005    1    3    3    0    0 -0.56844587442E+02  0.31387773548E+01  0.89306844786E+03  0.89488178639E+03  0.10000000000E+01 0.  0.
<mgrwt>
<rscale>  0 0.12499771E+03</rscale>
<asrwt>0</asrwt>
<pdfrwt beam="1">  1        4 0.19476898E+00 0.12499771E+03</pdfrwt>
<pdfrwt beam="2">  1       -4 0.47467637E-03 0.12499771E+03</pdfrwt>
<totfact> 0.22971307E+03</totfact>
</mgrwt>
</event>
<event>
 5    1  0.3486589E-002  0.1250218E+03  0.7818608E-02  0.1235035E+00
          4   -1    0    0  501    0  0.00000000000E+00  0.00000000000E+00  0.14500485480E+04  0.14500491042E+04  0.12700000000E+01 0.  1.
         -4   -1    0    0    0  501 -0.00000000000E+00 -0.00000000000E+00 -0.25445968438E+01  0.28439186165E+01  0.12700000000E+01 0.  1.
         25    2    1    2    0    0  0.00000000000E+00  0.00000000000E+00  0.14475039512E+04  0.14528930228E+04  0.12502178611E+03 0.  0.
    9000005    1    3    3    0    0  0.30054841164E+02 -0.22471605328E+02  0.13046155782E+04  0.13051555744E+04  0.10000000000E+01 0.  0.
    9000005    1    3    3    0    0 -0.30054841164E+02  0.22471605328E+02  0.14288837301E+03  0.14773744842E+03  0.10000000000E+01 0.  0.
<mgrwt>
<rscale>  0 0.12502179E+03</rscale>
<asrwt>0</asrwt>
<pdfrwt beam="1">  1        4 0.22310741E+00 0.12502179E+03</pdfrwt>
<pdfrwt beam="2">  1       -4 0.41454407E-03 0.12502179E+03</pdfrwt>
<totfact> 0.18864580E+03</totfact>
</mgrwt>
</event>
<event>
 5    1  0.3486589E-002  0.1249994E+03  0.7818608E-02  0.1235070E+00
          4   -1    0    0  501    0  0.00000000000E+00  0.00000000000E+00  0.45709976861E+03  0.45710153288E+03  0.12700000000E+01 0.  1.
         -4   -1    0    0    0  501 -0.00000000000E+00 -0.00000000000E+00 -0.84966765939E+01  0.85910658909E+01  0.12700000000E+01 0.  1.
         25    2    1    2    0    0  0.00000000000E+00  0.00000000000E+00  0.44860309201E+03  0.46569259877E+03  0.12499944954E+03 0.  0.
    9000005    1    3    3    0    0 -0.24816160121E+02 -0.18843039472E+02  0.42611239187E+03  0.42725129894E+03  0.10000000000E+01 0.  0.
    9000005    1    3    3    0    0  0.24816160121E+02  0.18843039472E+02  0.22490700139E+02  0.38441299827E+02  0.10000000000E+01 0.  0.
<mgrwt>
<rscale>  0 0.12499945E+03</rscale>
<asrwt>0</asrwt>
<pdfrwt beam="1">  1        4 0.70330434E-01 0.12499945E+03</pdfrwt>
<pdfrwt beam="2">  1       -4 0.13145775E-02 0.12499945E+03</pdfrwt>
<totfact> 0.58628761E+03</totfact>
</mgrwt>
</event>
<event>
 5    1  0.3486589E-002  0.1249989E+03  0.7818608E-02  0.1235071E+00
          4   -1    0    0  501    0  0.00000000000E+00  0.00000000000E+00  0.17621349939E+03  0.17621807588E+03  0.12700000000E+01 0.  1.
         -4   -1    0    0    0  501 -0.00000000000E+00 -0.00000000000E+00 -0.22144261138E+02  0.22180649254E+02  0.12700000000E+01 0.  1.
         25    2    1    2    0    0  0.00000000000E+00  0.00000000000E+00  0.15406923826E+03  0.19839872514E+03  0.12499889583E+03 0.  0.
    9000005    1    3    3    0    0  0.16036610543E+02 -0.11145413122E+01 -0.18814172839E+02  0.24766674780E+02  0.10000000000E+01 0.  0.
    9000005    1    3    3    0    0 -0.16036610543E+02  0.11145413122E+01  0.17288341109E+03  0.17363205036E+03  0.10000000000E+01 0.  0.
<mgrwt>
<rscale>  0 0.12499890E+03</rscale>
<asrwt>0</asrwt>
<pdfrwt beam="1">  1        4 0.27112920E-01 0.12499890E+03</pdfrwt>
<pdfrwt beam="2">  1       -4 0.34099605E-02 0.12499890E+03</pdfrwt>
<totfact> 0.90408385E+03</totfact>
</mgrwt>
</event>
<event>
 5    1  0.3486589E-002  0.1250025E+03  0.7818608E-02  0.1235065E+00
          4   -1    0    0  501    0  0.00000000000E+00  0.00000000000E+00  0.87993729846E+02  0.88002894226E+02  0.12700000000E+01 0.  1.
         -4   -1    0    0    0  501 -0.00000000000E+00 -0.00000000000E+00 -0.44373568323E+02  0.44391738710E+02  0.12700000000E+01 0.  1.
         25    2    1    2    0    0  0.00000000000E+00  0.00000000000E+00  0.43620161523E+02  0.13239463294E+03  0.12500248133E+03 0.  0.
    9000005    1    3    3    0    0 -0.54922551846E+02  0.77440875599E+01 -0.86839796750E+01  0.56150414926E+02  0.10000000000E+01 0.  0.
    9000005    1    3    3    0    0  0.54922551846E+02 -0.77440875599E+01  0.52304141198E+02  0.76244218009E+02  0.10000000000E+01 0.  0.
<mgrwt>
<rscale>  0 0.12500248E+03</rscale>
<asrwt>0</asrwt>
<pdfrwt beam="1">  1        4 0.13539599E-01 0.12500248E+03</pdfrwt>
<pdfrwt beam="2">  1       -4 0.68288056E-02 0.12500248E+03</pdfrwt>
<totfact> 0.10292706E+04</totfact>
</mgrwt>
</event>
<event>
 5    1  0.3486589E-002  0.1249955E+03  0.7818608E-02  0.1235076E+00
         -4   -1    0    0    0  501 -0.00000000000E+00  0.00000000000E+00  0.85398510670E+02  0.85407953521E+02  0.12700000000E+01 0.  1.
          4   -1    0    0  501    0  0.00000000000E+00 -0.00000000000E+00 -0.45717374036E+02  0.45735010536E+02  0.12700000000E+01 0.  1.
         25    2    1    2    0    0  0.00000000000E+00  0.00000000000E+00  0.39681136634E+02  0.13114296406E+03  0.12499553759E+03 0.  0.
    9000005    1    3    3    0    0  0.15583743448E+02  0.43023183572E+02 -0.24809748598E+02  0.52061223670E+02  0.10000000000E+01 0.  0.
    9000005    1    3    3    0    0 -0.15583743448E+02 -0.43023183572E+02  0.64490885232E+02  0.79081740386E+02  0.10000000000E+01 0.  0.
<mgrwt>
<rscale>  0 0.12499554E+03</rscale>
<asrwt>0</asrwt>
<pdfrwt beam="2">  1        4 0.70355252E-02 0.12499554E+03</pdfrwt>
<pdfrwt beam="1">  1       -4 0.13140315E-01 0.12499554E+03</pdfrwt>
<totfact> 0.10321064E+04</totfact>
</mgrwt>
</event>
<event>
 5    1  0.3486589E-002  0.1249985E+03  0.7818608E-02  0.1235072E+00
         -4   -1    0    0    0  501 -0.00000000000E+00  0.00000000000E+00  0.10838235374E+04  0.10838242814E+04  0.12700000000E+01 0.  1.
          4   -1    0    0  501    0  0.00000000000E+00 -0.00000000000E+00 -0.34914036886E+01  0.37152119343E+01  0.12700000000E+01 0.  1.
         25    2    1    2    0    0  0.00000000000E+00  0.00000000000E+00  0.10803321337E+04  0.10875394934E+04  0.12499852240E+03 0.  0.
    9000005    1    3    3    0    0  0.14462811795E+02 -0.18602355975E+02  0.10437344822E+04  0.10440009052E+04  0.10000000000E+01 0.  0.
    9000005    1    3    3    0    0 -0.14462811795E+02  0.18602355975E+02  0.36597651446E+02  0.43538588220E+02  0.10000000000E+01 0.  0.
<mgrwt>
<rscale>  0 0.12499852E+03</rscale>
<asrwt>0</asrwt>
<pdfrwt beam="2">  1        4 0.55441225E-03 0.12499852E+03</pdfrwt>
<pdfrwt beam="1">  1       -4 0.16675937E+00 0.12499852E+03</pdfrwt>
<totfact> 0.27851856E+03</totfact>
</mgrwt>
</event>
<event>
 5    1  0.3486589E-002  0.1250022E+03  0.7818608E-02  0.1235066E+00
         -4   -1    0    0    0  501 -0.00000000000E+00  0.00000000000E+00  0.22031895614E+02  0.22068469008E+02  0.12700000000E+01 0.  1.
          4   -1    0    0  501    0  0.00000000000E+00 -0.00000000000E+00 -0.17712013937E+03  0.17712469244E+03  0.12700000000E+01 0.  1.
         25    2    1    2    0    0  0.00000000000E+00  0.00000000000E+00 -0.15508824376E+03  0.19919316144E+03  0.12500220884E+03 0.  0.
    9000005    1    3    3    0    0  0.11516811239E+02  0.56866520011E+02 -0.11453809538E+03  0.12839942886E+03  0.10000000000E+01 0.  0.
    9000005    1    3    3    0    0 -0.11516811239E+02 -0.56866520011E+02 -0.40550148377E+02  0.70793732581E+02  0.10000000000E+01 0.  0.
<mgrwt>
<rscale>  0 0.12500221E+03</rscale>
<asrwt>0</asrwt>
<pdfrwt beam="2">  1        4 0.27252415E-01 0.12500221E+03</pdfrwt>
<pdfrwt beam="1">  1       -4 0.33926861E-02 0.12500221E+03</pdfrwt>
<totfact> 0.90267303E+03</totfact>
</mgrwt>
</event>
<event>
 5    1  0.3486589E-002  0.1249999E+03  0.7818608E-02  0.1235069E+00
          4   -1    0    0  501    0  0.00000000000E+00  0.00000000000E+00  0.14352708045E+01  0.19164817459E+01  0.12700000000E+01 0.  1.
         -4   -1    0    0    0  501 -0.00000000000E+00 -0.00000000000E+00 -0.23303858683E+04  0.23303862144E+04  0.12700000000E+01 0.  1.
         25    2    1    2    0    0  0.00000000000E+00  0.00000000000E+00 -0.23289505975E+04  0.23323026961E+04  0.12499992273E+03 0.  0.
    9000005    1    3    3    0    0  0.58548980769E+02 -0.67428979022E+01 -0.15521916794E+04  0.15533104839E+04  0.10000000000E+01 0.  0.
    9000005    1    3    3    0    0 -0.58548980769E+02  0.67428979022E+01 -0.77675891807E+03  0.77899221218E+03  0.10000000000E+01 0.  0.
<mgrwt>
<rscale>  0 0.12499992E+03</rscale>
<asrwt>0</asrwt>
<pdfrwt beam="1">  1        4 0.25785560E-03 0.12499992E+03</pdfrwt>
<pdfrwt beam="2">  1       -4 0.35855535E+00 0.12499992E+03</pdfrwt>
<totfact> 0.61240579E+02</totfact>
</mgrwt>
</event>
<event>
 5    1  0.3486589E-002  0.1250481E+03  0.7818608E-02  0.1234994E+00
          4   -1    0    0  501    0  0.00000000000E+00  0.00000000000E+00  0.34084244793E+02  0.34107897078E+02  0.12700000000E+01 0.  1.
         -4   -1    0    0    0  501 -0.00000000000E+00 -0.00000000000E+00 -0.11462709153E+03  0.11463412674E+03  0.12700000000E+01 0.  1.
         25    2    1    2    0    0  0.00000000000E+00  0.00000000000E+00 -0.80542846739E+02  0.14874202382E+03  0.12504814868E+03 0.  0.
    9000005    1    3    3    0    0 -0.47010760794E+02 -0.36615048319E+02 -0.17778445091E+02  0.62191209216E+02  0.10000000000E+01 0.  0.
    9000005    1    3    3    0    0  0.47010760794E+02  0.36615048319E+02 -0.62764401648E+02  0.86550814601E+02  0.10000000000E+01 0.  0.
<mgrwt>
<rscale>  0 0.12504815E+03</rscale>
<asrwt>0</asrwt>
<pdfrwt beam="1">  1        4 0.52460906E-02 0.12504815E+03</pdfrwt>
<pdfrwt beam="2">  1       -4 0.17637298E-01 0.12504815E+03</pdfrwt>
<totfact> 0.99447232E+03</totfact>
</mgrwt>
</event>
<event>
 5    1  0.3486589E-002  0.1249991E+03  0.7818608E-02  0.1235071E+00
          4   -1    0    0  501    0  0.00000000000E+00  0.00000000000E+00  0.44475557685E+02  0.44493686422E+02  0.12700000000E+01 0.  1.
         -4   -1    0    0    0  501 -0.00000000000E+00 -0.00000000000E+00 -0.87787283956E+02  0.87796469886E+02  0.12700000000E+01 0.  1.
         25    2    1    2    0    0  0.00000000000E+00  0.00000000000E+00 -0.43311726271E+02  0.13229015631E+03  0.12499911929E+03 0.  0.
    9000005    1    3    3    0    0 -0.10148476579E+02  0.43493012917E+02 -0.67915375892E+02  0.81290417836E+02  0.10000000000E+01 0.  0.
    9000005    1    3    3    0    0  0.10148476579E+02 -0.43493012917E+02  0.24603649620E+02  0.50999738471E+02  0.10000000000E+01 0.  0.
<mgrwt>
<rscale>  0 0.12499912E+03</rscale>
<asrwt>0</asrwt>
<pdfrwt beam="1">  1        4 0.68444946E-02 0.12499912E+03</pdfrwt>
<pdfrwt beam="2">  1       -4 0.13507837E-01 0.12499912E+03</pdfrwt>
<totfact> 0.10295714E+04</totfact>
</mgrwt>
</event>
<event>
 5    1  0.3486589E-002  0.1250021E+03  0.7818608E-02  0.1235066E+00
         -4   -1    0    0    0  501 -0.00000000000E+00  0.00000000000E+00  0.21016977081E+02  0.21055313477E+02  0.12700000000E+01 0.  1.
          4   -1    0    0  501    0  0.00000000000E+00 -0.00000000000E+00 -0.18565801509E+03  0.18566235878E+03  0.12700000000E+01 0.  1.
         25    2    1    2    0    0  0.00000000000E+00  0.00000000000E+00 -0.16464103801E+03  0.20671767226E+03  0.12500209849E+03 0.  0.
    9000005    1    3    3    0    0  0.12353970823E+02  0.42857995313E+02 -0.15470620675E+03  0.16101067903E+03  0.10000000000E+01 0.  0.
    9000005    1    3    3    0    0 -0.12353970823E+02 -0.42857995313E+02 -0.99348312657E+01  0.45706993224E+02  0.10000000000E+01 0.  0.
<mgrwt>
<rscale>  0 0.12500210E+03</rscale>
<asrwt>0</asrwt>
<pdfrwt beam="2">  1        4 0.28566054E-01 0.12500210E+03</pdfrwt>
<pdfrwt beam="1">  1       -4 0.32366643E-02 0.12500210E+03</pdfrwt>
<totfact> 0.89010572E+03</totfact>
</mgrwt>
</event>
<event>
 5    1  0.3486589E-002  0.1250004E+03  0.7818608E-02  0.1235069E+00
          4   -1    0    0  501    0  0.00000000000E+00  0.00000000000E+00  0.42250440955E+03  0.42250631828E+03  0.12700000000E+01 0.  1.
         -4   -1    0    0    0  501 -0.00000000000E+00 -0.00000000000E+00 -0.91999753379E+01  0.92872195095E+01  0.12700000000E+01 0.  1.
         25    2    1    2    0    0  0.00000000000E+00  0.00000000000E+00  0.41330443421E+03  0.43179353779E+03  0.12500041576E+03 0.  0.
    9000005    1    3    3    0    0  0.45496457491E+02 -0.13031577814E+02  0.34762667429E+03  0.35083479637E+03  0.10000000000E+01 0.  0.
    9000005    1    3    3    0    0 -0.45496457491E+02  0.13031577814E+02  0.65677759917E+02  0.80958741420E+02  0.10000000000E+01 0.  0.
<mgrwt>
<rscale>  0 0.12500042E+03</rscale>
<asrwt>0</asrwt>
<pdfrwt beam="1">  1        4 0.65007529E-01 0.12500042E+03</pdfrwt>
<pdfrwt beam="2">  1       -4 0.14222389E-02 0.12500042E+03</pdfrwt>
<totfact> 0.61573192E+03</totfact>
</mgrwt>
</event>
<event>
 5    1  0.3486589E-002  0.1249986E+03  0.7818608E-02  0.1235071E+00
          4   -1    0    0  501    0  0.00000000000E+00  0.00000000000E+00  0.12752955574E+03  0.12753587921E+03  0.12700000000E+01 0.  1.
         -4   -1    0    0    0  501 -0.00000000000E+00 -0.00000000000E+00 -0.30609218064E+02  0.30635553374E+02  0.12700000000E+01 0.  1.
         25    2    1    2    0    0  0.00000000000E+00  0.00000000000E+00  0.96920337675E+02  0.15817143259E+03  0.12499860092E+03 0.  0.
    9000005    1    3    3    0    0  0.11552606436E+02  0.61067201035E+02  0.40211174377E+02  0.74031103615E+02  0.10000000000E+01 0.  0.
    9000005    1    3    3    0    0 -0.11552606436E+02 -0.61067201035E+02  0.56709163298E+02  0.84140328973E+02  0.10000000000E+01 0.  0.
<mgrwt>
<rscale>  0 0.12499860E+03</rscale>
<asrwt>0</asrwt>
<pdfrwt beam="1">  1        4 0.19622444E-01 0.12499860E+03</pdfrwt>
<pdfrwt beam="2">  1       -4 0.47116226E-02 0.12499860E+03</pdfrwt>
<totfact> 0.97699553E+03</totfact>
</mgrwt>
</event>
<event>
 5    1  0.3486589E-002  0.1249993E+03  0.7818608E-02  0.1235070E+00
          4   -1    0    0  501    0  0.00000000000E+00  0.00000000000E+00  0.15591683244E+02  0.15643320823E+02  0.12700000000E+01 0.  1.
         -4   -1    0    0    0  501 -0.00000000000E+00 -0.00000000000E+00 -0.25006393698E+03  0.25006716194E+03  0.12700000000E+01 0.  1.
         25    2    1    2    0    0  0.00000000000E+00  0.00000000000E+00 -0.23447225374E+03  0.26571048276E+03  0.12499929150E+03 0.  0.
    9000005    1    3    3    0    0  0.43299435903E+02  0.27777253789E+02 -0.19265456982E+03  0.19940712187E+03  0.10000000000E+01 0.  0.
    9000005    1    3    3    0    0 -0.43299435903E+02 -0.27777253789E+02 -0.41817683916E+02  0.66303360893E+02  0.10000000000E+01 0.  0.
<mgrwt>
<rscale>  0 0.12499929E+03</rscale>
<asrwt>0</asrwt>
<pdfrwt beam="1">  1        4 0.24029409E-02 0.12499929E+03</pdfrwt>
<pdfrwt beam="2">  1       -4 0.38475592E-01 0.12499929E+03</pdfrwt>
<totfact> 0.80112560E+03</totfact>
</mgrwt>
</event>
<event>
 5    1  0.3486589E-002  0.1250049E+03  0.7818608E-02  0.1235062E+00
          4   -1    0    0  501    0  0.00000000000E+00  0.00000000000E+00  0.54711234397E+03  0.54711381798E+03  0.12700000000E+01 0. -1.
         -4   -1    0    0    0  501 -0.00000000000E+00 -0.00000000000E+00 -0.70823520846E+01  0.71953186900E+01  0.12700000000E+01 0. -1.
         25    2    1    2    0    0  0.00000000000E+00  0.00000000000E+00  0.54002999189E+03  0.55430913667E+03  0.12500490734E+03 0.  0.
    9000005    1    3    3    0    0 -0.29927754372E+02  0.11675492888E+02  0.32311375214E+02  0.45574253523E+02  0.10000000000E+01 0.  0.
    9000005    1    3    3    0    0  0.29927754372E+02 -0.11675492888E+02  0.50771861667E+03  0.50873488315E+03  0.10000000000E+01 0.  0.
<mgrwt>
<rscale>  0 0.12500491E+03</rscale>
<asrwt>0</asrwt>
<pdfrwt beam="1">  1        4 0.84179958E-01 0.12500491E+03</pdfrwt>
<pdfrwt beam="2">  1       -4 0.10983954E-02 0.12500491E+03</pdfrwt>
<totfact> 0.51879294E+03</totfact>
</mgrwt>
</event>
<event>
 5    1  0.3486589E-002  0.1250050E+03  0.7818608E-02  0.1235061E+00
          4   -1    0    0  501    0  0.00000000000E+00  0.00000000000E+00  0.52877897546E+02  0.52893146521E+02  0.12700000000E+01 0.  1.
         -4   -1    0    0    0  501 -0.00000000000E+00 -0.00000000000E+00 -0.73847561888E+02  0.73858481549E+02  0.12700000000E+01 0.  1.
         25    2    1    2    0    0  0.00000000000E+00  0.00000000000E+00 -0.20969664342E+02  0.12675162807E+03  0.12500499348E+03 0.  0.
    9000005    1    3    3    0    0 -0.42163004077E+02  0.42318677127E+02  0.81284764026E+01  0.60296446622E+02  0.10000000000E+01 0.  0.
    9000005    1    3    3    0    0  0.42163004077E+02 -0.42318677127E+02 -0.29098140744E+02  0.66455181449E+02  0.10000000000E+01 0.  0.
<mgrwt>
<rscale>  0 0.12500499E+03</rscale>
<asrwt>0</asrwt>
<pdfrwt beam="1">  1        4 0.81370741E-02 0.12500499E+03</pdfrwt>
<pdfrwt beam="2">  1       -4 0.11363176E-01 0.12500499E+03</pdfrwt>
<totfact> 0.10413373E+04</totfact>
</mgrwt>
</event>
<event>
 5    1  0.3486589E-002  0.1249990E+03  0.7818608E-02  0.1235071E+00
          4   -1    0    0  501    0  0.00000000000E+00  0.00000000000E+00  0.56201840886E+02  0.56216188229E+02  0.12700000000E+01 0. -1.
         -4   -1    0    0    0  501 -0.00000000000E+00 -0.00000000000E+00 -0.69473812277E+02  0.69485419278E+02  0.12700000000E+01 0. -1.
         25    2    1    2    0    0  0.00000000000E+00  0.00000000000E+00 -0.13271971391E+02  0.12570160751E+03  0.12499899562E+03 0.  0.
    9000005    1    3    3    0    0 -0.57134080877E+02  0.24943217393E+02 -0.10986959549E+02  0.63310193269E+02  0.10000000000E+01 0.  0.
    9000005    1    3    3    0    0  0.57134080877E+02 -0.24943217393E+02 -0.22850118412E+01  0.62391414239E+02  0.10000000000E+01 0.  0.
<mgrwt>
<rscale>  0 0.12499900E+03</rscale>
<asrwt>0</asrwt>
<pdfrwt beam="1">  1        4 0.86484335E-02 0.12499900E+03</pdfrwt>
<pdfrwt beam="2">  1       -4 0.10690275E-01 0.12499900E+03</pdfrwt>
<totfact> 0.10437745E+04</totfact>
</mgrwt>
</event>
<event>
 5    1  0.3486589E-002  0.1249985E+03  0.7818608E-02  0.1235072E+00
         -4   -1    0    0    0  501 -0.00000000000E+00  0.00000000000E+00  0.75519718579E+02  0.75530396492E+02  0.12700000000E+01 0. -1.
          4   -1    0    0  501    0  0.00000000000E+00 -0.00000000000E+00 -0.51701516910E+02  0.51717112746E+02  0.12700000000E+01 0. -1.
         25    2    1    2    0    0  0.00000000000E+00  0.00000000000E+00  0.23818201668E+02  0.12724750924E+03  0.12499848750E+03 0.  0.
    9000005    1    3    3    0    0  0.23919520660E+02 -0.57496228868E+02  0.66003250279E+01  0.62630057426E+02  0.10000000000E+01 0.  0.
    9000005    1    3    3    0    0 -0.23919520660E+02  0.57496228868E+02  0.17217876640E+02  0.64617451812E+02  0.10000000000E+01 0.  0.
<mgrwt>
<rscale>  0 0.12499849E+03</rscale>
<asrwt>0</asrwt>
<pdfrwt beam="2">  1        4 0.79561006E-02 0.12499849E+03</pdfrwt>
<pdfrwt beam="1">  1       -4 0.11620439E-01 0.12499849E+03</pdfrwt>
<totfact> 0.10404128E+04</totfact>
</mgrwt>
</event>
<event>
 5    1  0.3486589E-002  0.1250001E+03  0.7818608E-02  0.1235069E+00
         -4   -1    0    0    0  501 -0.00000000000E+00  0.00000000000E+00  0.19315341329E+02  0.19357048087E+02  0.12700000000E+01 0.  1.
          4   -1    0    0  501    0  0.00000000000E+00 -0.00000000000E+00 -0.20197403596E+03  0.20197802876E+03  0.12700000000E+01 0.  1.
         25    2    1    2    0    0  0.00000000000E+00  0.00000000000E+00 -0.18265869463E+03  0.22133507685E+03  0.12500007007E+03 0.  0.
    9000005    1    3    3    0    0  0.18889708337E+02  0.79641523026E+01  0.13200839830E+02  0.24403093557E+02  0.10000000000E+01 0.  0.
    9000005    1    3    3    0    0 -0.18889708337E+02 -0.79641523026E+01 -0.19585953446E+03  0.19693198329E+03  0.10000000000E+01 0.  0.
<mgrwt>
<rscale>  0 0.12500007E+03</rscale>
<asrwt>0</asrwt>
<pdfrwt beam="2">  1        4 0.31076443E-01 0.12500007E+03</pdfrwt>
<pdfrwt beam="1">  1       -4 0.29751065E-02 0.12500007E+03</pdfrwt>
<totfact> 0.86657396E+03</totfact>
</mgrwt>
</event>
<event>
 5    1  0.3486589E-002  0.1249984E+03  0.7818608E-02  0.1235072E+00
         -4   -1    0    0    0  501 -0.00000000000E+00  0.00000000000E+00  0.77483286178E+02  0.77493693530E+02  0.12700000000E+01 0. -1.
          4   -1    0    0  501    0  0.00000000000E+00 -0.00000000000E+00 -0.50391028766E+02  0.50407030067E+02  0.12700000000E+01 0. -1.
         25    2    1    2    0    0  0.00000000000E+00  0.00000000000E+00  0.27092257412E+02  0.12790072360E+03  0.12499841873E+03 0.  0.
    9000005    1    3    3    0    0  0.17170837364E+02 -0.49220139468E+02 -0.21716954817E+02  0.56480845528E+02  0.10000000000E+01 0.  0.
    9000005    1    3    3    0    0 -0.17170837364E+02  0.49220139468E+02  0.48809212229E+02  0.71419878069E+02  0.10000000000E+01 0.  0.
<mgrwt>
<rscale>  0 0.12499842E+03</rscale>
<asrwt>0</asrwt>
<pdfrwt beam="2">  1        4 0.77544974E-02 0.12499842E+03</pdfrwt>
<pdfrwt beam="1">  1       -4 0.11922537E-01 0.12499842E+03</pdfrwt>
<totfact> 0.10390003E+04</totfact>
</mgrwt>
</event>
<event>
 5    1  0.3486589E-002  0.1249833E+03  0.7818608E-02  0.1235095E+00
         -4   -1    0    0    0  501 -0.00000000000E+00  0.00000000000E+00  0.21158648423E+02  0.21196728594E+02  0.12700000000E+01 0.  1.
          4   -1    0    0  501    0  0.00000000000E+00 -0.00000000000E+00 -0.18436171694E+03  0.18436609117E+03  0.12700000000E+01 0.  1.
         25    2    1    2    0    0  0.00000000000E+00  0.00000000000E+00 -0.16320306852E+03  0.20556281977E+03  0.12498332407E+03 0.  0.
    9000005    1    3    3    0    0  0.37875357235E+02  0.30627950903E+02 -0.14596868568E+03  0.15388460372E+03  0.10000000000E+01 0.  0.
    9000005    1    3    3    0    0 -0.37875357235E+02 -0.30627950903E+02 -0.17234382842E+02  0.51678216050E+02  0.10000000000E+01 0.  0.
<mgrwt>
<rscale>  0 0.12498332E+03</rscale>
<asrwt>0</asrwt>
<pdfrwt beam="2">  1        4 0.28366606E-01 0.12498332E+03</pdfrwt>
<pdfrwt beam="1">  1       -4 0.32584425E-02 0.12498332E+03</pdfrwt>
<totfact> 0.89238976E+03</totfact>
</mgrwt>
</event>
<event>
 5    1  0.3486589E-002  0.1250009E+03  0.7818608E-02  0.1235068E+00
          4   -1    0    0  501    0  0.00000000000E+00  0.00000000000E+00  0.24957832727E+01  0.28003275066E+01  0.12700000000E+01 0. -1.
         -4   -1    0    0    0  501 -0.00000000000E+00 -0.00000000000E+00 -0.14748550936E+04  0.14748556404E+04  0.12700000000E+01 0. -1.
         25    2    1    2    0    0  0.00000000000E+00  0.00000000000E+00 -0.14723593103E+04  0.14776559679E+04  0.12500088312E+03 0.  0.
    9000005    1    3    3    0    0  0.45338503486E+02 -0.14931000946E+02 -0.12129684778E+04  0.12139077571E+04  0.10000000000E+01 0.  0.
    9000005    1    3    3    0    0 -0.45338503486E+02  0.14931000946E+02 -0.25939083253E+03  0.26374821078E+03  0.10000000000E+01 0.  0.
<mgrwt>
<rscale>  0 0.12500088E+03</rscale>
<asrwt>0</asrwt>
<pdfrwt beam="1">  1        4 0.40743638E-03 0.12500088E+03</pdfrwt>
<pdfrwt beam="2">  1       -4 0.22692360E+00 0.12500088E+03</pdfrwt>
<totfact> 0.18373041E+03</totfact>
</mgrwt>
</event>
<event>
 5    1  0.3486589E-002  0.1250103E+03  0.7818608E-02  0.1235053E+00
          4   -1    0    0  501    0  0.00000000000E+00  0.00000000000E+00  0.58525070543E+02  0.58538848486E+02  0.12700000000E+01 0.  1.
         -4   -1    0    0    0  501 -0.00000000000E+00 -0.00000000000E+00 -0.66728235272E+02  0.66740319766E+02  0.12700000000E+01 0.  1.
         25    2    1    2    0    0  0.00000000000E+00  0.00000000000E+00 -0.82031647293E+01  0.12527916825E+03  0.12501031192E+03 0.  0.
    9000005    1    3    3    0    0  0.14324180787E+02 -0.49757627191E+02 -0.39175294008E+02  0.64936178510E+02  0.10000000000E+01 0.  0.
    9000005    1    3    3    0    0 -0.14324180787E+02  0.49757627191E+02  0.30972129279E+02  0.60342989742E+02  0.10000000000E+01 0.  0.
<mgrwt>
<rscale>  0 0.12501031E+03</rscale>
<asrwt>0</asrwt>
<pdfrwt beam="1">  1        4 0.90058464E-02 0.12501031E+03</pdfrwt>
<pdfrwt beam="2">  1       -4 0.10267872E-01 0.12501031E+03</pdfrwt>
<totfact> 0.10444368E+04</totfact>
</mgrwt>
</event>
<event>
 5    1  0.3486589E-002  0.1250004E+03  0.7818608E-02  0.1235069E+00
          4   -1    0    0  501    0  0.00000000000E+00  0.00000000000E+00  0.25347305292E+02  0.25379101355E+02  0.12700000000E+01 0.  1.
         -4   -1    0    0    0  501 -0.00000000000E+00 -0.00000000000E+00 -0.15397900550E+03  0.15398424282E+03  0.12700000000E+01 0.  1.
         25    2    1    2    0    0  0.00000000000E+00  0.00000000000E+00 -0.12863170021E+03  0.17936334417E+03  0.12500037973E+03 0.  0.
    9000005    1    3    3    0    0  0.51738946676E+02  0.17190214128E+02 -0.10814152942E+03  0.12111157026E+03  0.10000000000E+01 0.  0.
    9000005    1    3    3    0    0 -0.51738946676E+02 -0.17190214128E+02 -0.20490170788E+02  0.58251773911E+02  0.10000000000E+01 0.  0.
<mgrwt>
<rscale>  0 0.12500038E+03</rscale>
<asrwt>0</asrwt>
<pdfrwt beam="1">  1        4 0.39024343E-02 0.12500038E+03</pdfrwt>
<pdfrwt beam="2">  1       -4 0.23691926E-01 0.12500038E+03</pdfrwt>
<totfact> 0.93730931E+03</totfact>
</mgrwt>
</event>
<event>
 5    1  0.3486589E-002  0.1250008E+03  0.7818608E-02  0.1235068E+00
         -4   -1    0    0    0  501 -0.00000000000E+00  0.00000000000E+00  0.98534847696E+03  0.98534929540E+03  0.12700000000E+01 0. -1.
          4   -1    0    0  501    0  0.00000000000E+00 -0.00000000000E+00 -0.38618308566E+01  0.40652967376E+01  0.12700000000E+01 0. -1.
         25    2    1    2    0    0  0.00000000000E+00  0.00000000000E+00  0.98148664610E+03  0.98941459213E+03  0.12500079463E+03 0.  0.
    9000005    1    3    3    0    0  0.51124687001E+02 -0.19087437507E+02  0.73176751001E+03  0.73380021300E+03  0.10000000000E+01 0.  0.
    9000005    1    3    3    0    0 -0.51124687001E+02  0.19087437507E+02  0.24971913609E+03  0.25561437914E+03  0.10000000000E+01 0.  0.
<mgrwt>
<rscale>  0 0.12500079E+03</rscale>
<asrwt>0</asrwt>
<pdfrwt beam="2">  1        4 0.60984230E-03 0.12500079E+03</pdfrwt>
<pdfrwt beam="1">  1       -4 0.15160771E+00 0.12500079E+03</pdfrwt>
<totfact> 0.30956067E+03</totfact>
</mgrwt>
</event>
<event>
 5    1  0.3486589E-002  0.1249968E+03  0.7818608E-02  0.1235074E+00
          4   -1    0    0  501    0  0.00000000000E+00  0.00000000000E+00  0.35527554833E+02  0.35550246869E+02  0.12700000000E+01 0.  1.
         -4   -1    0    0    0  501 -0.00000000000E+00 -0.00000000000E+00 -0.10988269229E+03  0.10989003124E+03  0.12700000000E+01 0.  1.
         25    2    1    2    0    0  0.00000000000E+00  0.00000000000E+00 -0.74355137460E+02  0.14544027811E+03  0.12499675208E+03 0.  0.
    9000005    1    3    3    0    0  0.15994415386E+02  0.25758799592E+02  0.26400857566E+02  0.40216195248E+02  0.10000000000E+01 0.  0.
    9000005    1    3    3    0    0 -0.15994415386E+02 -0.25758799592E+02 -0.10075599503E+03  0.10522408286E+03  0.10000000000E+01 0.  0.
<mgrwt>
<rscale>  0 0.12499675E+03</rscale>
<asrwt>0</asrwt>
<pdfrwt beam="1">  1        4 0.54680878E-02 0.12499675E+03</pdfrwt>
<pdfrwt beam="2">  1       -4 0.16907340E-01 0.12499675E+03</pdfrwt>
<totfact> 0.10022784E+04</totfact>
</mgrwt>
</event>
<event>
 5    1  0.3486589E-002  0.1249994E+03  0.7818608E-02  0.1235070E+00
         -4   -1    0    0    0  501 -0.00000000000E+00  0.00000000000E+00  0.26536578233E+03  0.26536882133E+03  0.12700000000E+01 0.  1.
          4   -1    0    0  501    0  0.00000000000E+00 -0.00000000000E+00 -0.14689595078E+02  0.14744392275E+02  0.12700000000E+01 0.  1.
         25    2    1    2    0    0  0.00000000000E+00  0.00000000000E+00  0.25067618725E+03  0.28011321360E+03  0.12499944631E+03 0.  0.
    9000005    1    3    3    0    0  0.56699555958E+02 -0.22820890378E+02  0.15452017699E+03  0.16617195245E+03  0.10000000000E+01 0.  0.
    9000005    1    3    3    0    0 -0.56699555958E+02  0.22820890378E+02  0.96156010264E+02  0.11394126115E+03  0.10000000000E+01 0.  0.
<mgrwt>
<rscale>  0 0.12499945E+03</rscale>
<asrwt>0</asrwt>
<pdfrwt beam="2">  1        4 0.22643866E-02 0.12499945E+03</pdfrwt>
<pdfrwt beam="1">  1       -4 0.40829955E-01 0.12499945E+03</pdfrwt>
<totfact> 0.78164056E+03</totfact>
</mgrwt>
</event>
<event>
 5    1  0.3486589E-002  0.1249995E+03  0.7818608E-02  0.1235070E+00
         -4   -1    0    0    0  501 -0.00000000000E+00  0.00000000000E+00  0.95073939248E+03  0.95074024071E+03  0.12700000000E+01 0.  1.
          4   -1    0    0  501    0  0.00000000000E+00 -0.00000000000E+00 -0.40095963213E+01  0.42059199541E+01  0.12700000000E+01 0.  1.
         25    2    1    2    0    0  0.00000000000E+00  0.00000000000E+00  0.94672979615E+03  0.95494616066E+03  0.12499945136E+03 0.  0.
    9000005    1    3    3    0    0  0.58318117741E+02  0.10666001952E+02  0.62432183666E+03  0.62713118419E+03  0.10000000000E+01 0.  0.
    9000005    1    3    3    0    0 -0.58318117741E+02 -0.10666001952E+02  0.32240795949E+03  0.32781497647E+03  0.10000000000E+01 0.  0.
<mgrwt>
<rscale>  0 0.12499945E+03</rscale>
<asrwt>0</asrwt>
<pdfrwt beam="2">  1        4 0.63202817E-03 0.12499945E+03</pdfrwt>
<pdfrwt beam="1">  1       -4 0.14628274E+00 0.12499945E+03</pdfrwt>
<totfact> 0.32141400E+03</totfact>
</mgrwt>
</event>
<event>
 5    1  0.3486589E-002  0.1250020E+03  0.7818608E-02  0.1235066E+00
          4   -1    0    0  501    0  0.00000000000E+00  0.00000000000E+00  0.19155342144E+02  0.19197396508E+02  0.12700000000E+01 0. -1.
         -4   -1    0    0    0  501 -0.00000000000E+00 -0.00000000000E+00 -0.20366374779E+03  0.20366770746E+03  0.12700000000E+01 0. -1.
         25    2    1    2    0    0  0.00000000000E+00  0.00000000000E+00 -0.18450840564E+03  0.22286510397E+03  0.12500201124E+03 0.  0.
    9000005    1    3    3    0    0 -0.88379042276E+01  0.59244374273E+02 -0.12401627849E+03  0.13772814442E+03  0.10000000000E+01 0.  0.
    9000005    1    3    3    0    0  0.88379042276E+01 -0.59244374273E+02 -0.60492127148E+02  0.85136959547E+02  0.10000000000E+01 0.  0.
<mgrwt>
<rscale>  0 0.12500201E+03</rscale>
<asrwt>0</asrwt>
<pdfrwt beam="1">  1        4 0.29505154E-02 0.12500201E+03</pdfrwt>
<pdfrwt beam="2">  1       -4 0.31336422E-01 0.12500201E+03</pdfrwt>
<totfact> 0.86413125E+03</totfact>
</mgrwt>
</event>
<event>
 5    1  0.3486589E-002  0.1249998E+03  0.7818608E-02  0.1235070E+00
          4   -1    0    0  501    0  0.00000000000E+00  0.00000000000E+00  0.50391697237E+02  0.50407698325E+02  0.12700000000E+01 0.  1.
         -4   -1    0    0    0  501 -0.00000000000E+00 -0.00000000000E+00 -0.77483985712E+02  0.77494392970E+02  0.12700000000E+01 0.  1.
         25    2    1    2    0    0  0.00000000000E+00  0.00000000000E+00 -0.27092288475E+02  0.12790209129E+03  0.12499981145E+03 0.  0.
    9000005    1    3    3    0    0 -0.98972235601E+00  0.36449814138E+02 -0.65475552448E+02  0.74950760299E+02  0.10000000000E+01 0.  0.
    9000005    1    3    3    0    0  0.98972235601E+00 -0.36449814138E+02  0.38383263973E+02  0.52951330996E+02  0.10000000000E+01 0.  0.
<mgrwt>
<rscale>  0 0.12499981E+03</rscale>
<asrwt>0</asrwt>
<pdfrwt beam="1">  1        4 0.77546002E-02 0.12499981E+03</pdfrwt>
<pdfrwt beam="2">  1       -4 0.11922645E-01 0.12499981E+03</pdfrwt>
<totfact> 0.10389647E+04</totfact>
</mgrwt>
</event>
<event>
 5    1  0.3486589E-002  0.1250059E+03  0.7818608E-02  0.1235060E+00
          4   -1    0    0  501    0  0.00000000000E+00  0.00000000000E+00  0.12874451200E+02  0.12936939117E+02  0.12700000000E+01 0.  1.
         -4   -1    0    0    0  501 -0.00000000000E+00 -0.00000000000E+00 -0.30264098571E+03  0.30264365040E+03  0.12700000000E+01 0.  1.
         25    2    1    2    0    0  0.00000000000E+00  0.00000000000E+00 -0.28976653450E+03  0.31558058952E+03  0.12500585571E+03 0.  0.
    9000005    1    3    3    0    0  0.41059730598E+02 -0.16976296890E+02 -0.25583383131E+03  0.25966525639E+03  0.10000000000E+01 0.  0.
    9000005    1    3    3    0    0 -0.41059730598E+02  0.16976296890E+02 -0.33932703195E+02  0.55915333130E+02  0.10000000000E+01 0.  0.
<mgrwt>
<rscale>  0 0.12500586E+03</rscale>
<asrwt>0</asrwt>
<pdfrwt beam="1">  1        4 0.19856968E-02 0.12500586E+03</pdfrwt>
<pdfrwt beam="2">  1       -4 0.46565158E-01 0.12500586E+03</pdfrwt>
<totfact> 0.73675293E+03</totfact>
</mgrwt>
</event>
<event>
 5    1  0.3486589E-002  0.1250027E+03  0.7818608E-02  0.1235065E+00
          4   -1    0    0  501    0  0.00000000000E+00  0.00000000000E+00  0.26039687431E+01  0.28971629597E+01  0.12700000000E+01 0. -1.
         -4   -1    0    0    0  501 -0.00000000000E+00 -0.00000000000E+00 -0.14199304743E+04  0.14199310422E+04  0.12700000000E+01 0. -1.
         25    2    1    2    0    0  0.00000000000E+00  0.00000000000E+00 -0.14173265056E+04  0.14228282052E+04  0.12500271272E+03 0.  0.
    9000005    1    3    3    0    0 -0.31610168969E+02  0.53659454406E+02 -0.64965056761E+03  0.65262960386E+03  0.10000000000E+01 0.  0.
    9000005    1    3    3    0    0  0.31610168969E+02 -0.53659454406E+02 -0.76767593794E+03  0.77019860135E+03  0.10000000000E+01 0.  0.
<mgrwt>
<rscale>  0 0.12500271E+03</rscale>
<asrwt>0</asrwt>
<pdfrwt beam="1">  1        4 0.42320880E-03 0.12500271E+03</pdfrwt>
<pdfrwt beam="2">  1       -4 0.21847285E+00 0.12500271E+03</pdfrwt>
<totfact> 0.19495207E+03</totfact>
</mgrwt>
</event>
<event>
 5    1  0.3486589E-002  0.1250008E+03  0.7818608E-02  0.1235068E+00
         -4   -1    0    0    0  501 -0.00000000000E+00  0.00000000000E+00  0.10383898170E+03  0.10384674776E+03  0.12700000000E+01 0. -1.
          4   -1    0    0  501    0  0.00000000000E+00 -0.00000000000E+00 -0.37598938265E+02  0.37620380895E+02  0.12700000000E+01 0. -1.
         25    2    1    2    0    0  0.00000000000E+00  0.00000000000E+00  0.66240043434E+02  0.14146712865E+03  0.12500082054E+03 0.  0.
    9000005    1    3    3    0    0  0.46833514049E+02  0.23255591159E+02 -0.56092918766E+01  0.52599094228E+02  0.10000000000E+01 0.  0.
    9000005    1    3    3    0    0 -0.46833514049E+02 -0.23255591159E+02  0.71849335310E+02  0.88868034426E+02  0.10000000000E+01 0.  0.
<mgrwt>
<rscale>  0 0.12500082E+03</rscale>
<asrwt>0</asrwt>
<pdfrwt beam="2">  1        4 0.57866990E-02 0.12500082E+03</pdfrwt>
<pdfrwt beam="1">  1       -4 0.15977475E-01 0.12500082E+03</pdfrwt>
<totfact> 0.10103082E+04</totfact>
</mgrwt>
</event>
<event>
 5    1  0.3486589E-002  0.1249982E+03  0.7818608E-02  0.1235072E+00
          4   -1    0    0  501    0  0.00000000000E+00  0.00000000000E+00  0.70114604739E+02  0.70126105679E+02  0.12700000000E+01 0.  1.
         -4   -1    0    0    0  501 -0.00000000000E+00 -0.00000000000E+00 -0.55687471269E+02  0.55701951100E+02  0.12700000000E+01 0.  1.
         25    2    1    2    0    0  0.00000000000E+00  0.00000000000E+00  0.14427133470E+02  0.12582805678E+03  0.12499823076E+03 0.  0.
    9000005    1    3    3    0    0  0.41471383524E+02  0.22330124445E+01 -0.39789858055E+02  0.57524732072E+02  0.10000000000E+01 0.  0.
    9000005    1    3    3    0    0 -0.41471383524E+02 -0.22330124445E+01  0.54216991525E+02  0.68303324706E+02  0.10000000000E+01 0.  0.
<mgrwt>
<rscale>  0 0.12499823E+03</rscale>
<asrwt>0</asrwt>
<pdfrwt beam="1">  1        4 0.10788861E-01 0.12499823E+03</pdfrwt>
<pdfrwt beam="2">  1       -4 0.85693018E-02 0.12499823E+03</pdfrwt>
<totfact> 0.10435146E+04</totfact>
</mgrwt>
</event>
<event>
 5    1  0.3486589E-002  0.1250024E+03  0.7818608E-02  0.1235065E+00
          4   -1    0    0  501    0  0.00000000000E+00  0.00000000000E+00  0.31506620010E+02  0.31532205829E+02  0.12700000000E+01 0.  1.
         -4   -1    0    0    0  501 -0.00000000000E+00 -0.00000000000E+00 -0.12390754436E+03  0.12391405267E+03  0.12700000000E+01 0.  1.
         25    2    1    2    0    0  0.00000000000E+00  0.00000000000E+00 -0.92400924354E+02  0.15544625850E+03  0.12500243382E+03 0.  0.
    9000005    1    3    3    0    0  0.10329969363E+02 -0.30915249404E+02 -0.11250538033E+03  0.11713633730E+03  0.10000000000E+01 0.  0.
    9000005    1    3    3    0    0 -0.10329969363E+02  0.30915249404E+02  0.20104455974E+02  0.38309921206E+02  0.10000000000E+01 0.  0.
<mgrwt>
<rscale>  0 0.12500243E+03</rscale>
<asrwt>0</asrwt>
<pdfrwt beam="1">  1        4 0.48496412E-02 0.12500243E+03</pdfrwt>
<pdfrwt beam="2">  1       -4 0.19065168E-01 0.12500243E+03</pdfrwt>
<totfact> 0.98222588E+03</totfact>
</mgrwt>
</event>
<event>
 5    1  0.3486589E-002  0.1249982E+03  0.7818608E-02  0.1235072E+00
         -4   -1    0    0    0  501 -0.00000000000E+00  0.00000000000E+00  0.27340924136E+02  0.27370404319E+02  0.12700000000E+01 0.  1.
          4   -1    0    0  501    0  0.00000000000E+00 -0.00000000000E+00 -0.14275855434E+03  0.14276420327E+03  0.12700000000E+01 0.  1.
         25    2    1    2    0    0  0.00000000000E+00  0.00000000000E+00 -0.11541763020E+03  0.17013460759E+03  0.12499822135E+03 0.  0.
    9000005    1    3    3    0    0  0.15399870178E+02  0.21359616241E+02  0.19427639149E+02  0.32738698361E+02  0.10000000000E+01 0.  0.
    9000005    1    3    3    0    0 -0.15399870178E+02 -0.21359616241E+02 -0.13484526935E+03  0.13739590923E+03  0.10000000000E+01 0.  0.
<mgrwt>
<rscale>  0 0.12499822E+03</rscale>
<asrwt>0</asrwt>
<pdfrwt beam="2">  1        4 0.21965556E-01 0.12499822E+03</pdfrwt>
<pdfrwt beam="1">  1       -4 0.42089983E-02 0.12499822E+03</pdfrwt>
<totfact> 0.95427363E+03</totfact>
</mgrwt>
</event>
<event>
 5    1  0.3486589E-002  0.1250042E+03  0.7818608E-02  0.1235063E+00
          4   -1    0    0  501    0  0.00000000000E+00  0.00000000000E+00  0.15416734022E+03  0.15417257114E+03  0.12700000000E+01 0. -1.
         -4   -1    0    0    0  501 -0.00000000000E+00 -0.00000000000E+00 -0.25317860578E+02  0.25349693573E+02  0.12700000000E+01 0. -1.
         25    2    1    2    0    0  0.00000000000E+00  0.00000000000E+00  0.12884947964E+03  0.17952226471E+03  0.12500422042E+03 0.  0.
    9000005    1    3    3    0    0  0.36512156982E+02  0.50718453958E+02  0.64598274850E+02  0.89885684584E+02  0.10000000000E+01 0.  0.
    9000005    1    3    3    0    0 -0.36512156982E+02 -0.50718453958E+02  0.64251204794E+02  0.89636580127E+02  0.10000000000E+01 0.  0.
<mgrwt>
<rscale>  0 0.12500422E+03</rscale>
<asrwt>0</asrwt>
<pdfrwt beam="1">  1        4 0.23720903E-01 0.12500422E+03</pdfrwt>
<pdfrwt beam="2">  1       -4 0.38979066E-02 0.12500422E+03</pdfrwt>
<totfact> 0.93694201E+03</totfact>
</mgrwt>
</event>
<event>
 5    1  0.3486589E-002  0.1250066E+03  0.7818608E-02  0.1235059E+00
         -4   -1    0    0    0  501 -0.00000000000E+00  0.00000000000E+00  0.26548407625E+02  0.26578766853E+02  0.12700000000E+01 0.  1.
          4   -1    0    0  501    0  0.00000000000E+00 -0.00000000000E+00 -0.14703531069E+03  0.14704079532E+03  0.12700000000E+01 0.  1.
         25    2    1    2    0    0  0.00000000000E+00  0.00000000000E+00 -0.12048690306E+03  0.17361956218E+03  0.12500663406E+03 0.  0.
    9000005    1    3    3    0    0 -0.21671701850E+02  0.38532219805E+02  0.11079206708E+01  0.44233721439E+02  0.10000000000E+01 0.  0.
    9000005    1    3    3    0    0  0.21671701850E+02 -0.38532219805E+02 -0.12159482373E+03  0.12938584074E+03  0.10000000000E+01 0.  0.
<mgrwt>
<rscale>  0 0.12500663E+03</rscale>
<asrwt>0</asrwt>
<pdfrwt beam="2">  1        4 0.22623574E-01 0.12500663E+03</pdfrwt>
<pdfrwt beam="1">  1       -4 0.40871277E-02 0.12500663E+03</pdfrwt>
<totfact> 0.94764168E+03</totfact>
</mgrwt>
</event>
<event>
 5    1  0.3486589E-002  0.1249938E+03  0.7818608E-02  0.1235079E+00
          4   -1    0    0  501    0  0.00000000000E+00  0.00000000000E+00  0.56591612899E+02  0.56605861450E+02  0.12700000000E+01 0.  1.
         -4   -1    0    0    0  501 -0.00000000000E+00 -0.00000000000E+00 -0.68989593539E+02  0.69001281993E+02  0.12700000000E+01 0.  1.
         25    2    1    2    0    0  0.00000000000E+00  0.00000000000E+00 -0.12397980640E+02  0.12560714344E+03  0.12499377808E+03 0.  0.
    9000005    1    3    3    0    0 -0.57718223886E+02 -0.23677084692E+02 -0.25948277840E+01  0.62447824937E+02  0.10000000000E+01 0.  0.
    9000005    1    3    3    0    0  0.57718223886E+02  0.23677084692E+02 -0.98031528562E+01  0.63159318505E+02  0.10000000000E+01 0.  0.
<mgrwt>
<rscale>  0 0.12499378E+03</rscale>
<asrwt>0</asrwt>
<pdfrwt beam="1">  1        4 0.87083971E-02 0.12499378E+03</pdfrwt>
<pdfrwt beam="2">  1       -4 0.10615779E-01 0.12499378E+03</pdfrwt>
<totfact> 0.10441055E+04</totfact>
</mgrwt>
</event>
<event>
 5    1  0.3486589E-002  0.1250009E+03  0.7818608E-02  0.1235068E+00
          4   -1    0    0  501    0  0.00000000000E+00  0.00000000000E+00  0.54092721707E+02  0.54107628313E+02  0.12700000000E+01 0.  1.
         -4   -1    0    0    0  501 -0.00000000000E+00 -0.00000000000E+00 -0.72184609766E+02  0.72195780950E+02  0.12700000000E+01 0.  1.
         25    2    1    2    0    0  0.00000000000E+00  0.00000000000E+00 -0.18091888059E+02  0.12630340926E+03  0.12500093911E+03 0.  0.
    9000005    1    3    3    0    0  0.25363626598E+02 -0.11503285327E+02  0.47480418704E+02  0.55054784422E+02  0.10000000000E+01 0.  0.
    9000005    1    3    3    0    0 -0.25363626598E+02  0.11503285327E+02 -0.65572306763E+02  0.71248624841E+02  0.10000000000E+01 0.  0.
<mgrwt>
<rscale>  0 0.12500094E+03</rscale>
<asrwt>0</asrwt>
<pdfrwt beam="1">  1        4 0.83239632E-02 0.12500094E+03</pdfrwt>
<pdfrwt beam="2">  1       -4 0.11107331E-01 0.12500094E+03</pdfrwt>
<totfact> 0.10424098E+04</totfact>
</mgrwt>
</event>
<event>
 5    1  0.3486589E-002  0.1250005E+03  0.7818608E-02  0.1235069E+00
         -4   -1    0    0    0  501 -0.00000000000E+00  0.00000000000E+00  0.17641862499E+03  0.17642319616E+03  0.12700000000E+01 0.  1.
          4   -1    0    0  501    0  0.00000000000E+00 -0.00000000000E+00 -0.22119036012E+02  0.22155465558E+02  0.12700000000E+01 0.  1.
         25    2    1    2    0    0  0.00000000000E+00  0.00000000000E+00  0.15429958898E+03  0.19857866172E+03  0.12500048692E+03 0.  0.
    9000005    1    3    3    0    0 -0.59480363306E+02 -0.92698289284E+01  0.10380067346E+03  0.11999759647E+03  0.10000000000E+01 0.  0.
    9000005    1    3    3    0    0  0.59480363306E+02  0.92698289284E+01  0.50498915520E+02  0.78581065252E+02  0.10000000000E+01 0.  0.
<mgrwt>
<rscale>  0 0.12500049E+03</rscale>
<asrwt>0</asrwt>
<pdfrwt beam="2">  1        4 0.34060825E-02 0.12500049E+03</pdfrwt>
<pdfrwt beam="1">  1       -4 0.27144481E-01 0.12500049E+03</pdfrwt>
<totfact> 0.90374723E+03</totfact>
</mgrwt>
</event>
<event>
 5    1  0.3486589E-002  0.1250060E+03  0.7818608E-02  0.1235060E+00
         -4   -1    0    0    0  501 -0.00000000000E+00  0.00000000000E+00  0.21768131983E+02  0.21805147787E+02  0.12700000000E+01 0.  1.
          4   -1    0    0  501    0  0.00000000000E+00 -0.00000000000E+00 -0.17927363254E+03  0.17927813091E+03  0.12700000000E+01 0.  1.
         25    2    1    2    0    0  0.00000000000E+00  0.00000000000E+00 -0.15750550056E+03  0.20108327870E+03  0.12500600893E+03 0.  0.
    9000005    1    3    3    0    0 -0.21923259375E+02  0.21721876731E+02  0.86627178232E+01  0.32070421114E+02  0.10000000000E+01 0.  0.
    9000005    1    3    3    0    0  0.21923259375E+02 -0.21721876731E+02 -0.16616821838E+03  0.16901285759E+03  0.10000000000E+01 0.  0.
<mgrwt>
<rscale>  0 0.12500601E+03</rscale>
<asrwt>0</asrwt>
<pdfrwt beam="2">  1        4 0.27583751E-01 0.12500601E+03</pdfrwt>
<pdfrwt beam="1">  1       -4 0.33521369E-02 0.12500601E+03</pdfrwt>
<totfact> 0.89941031E+03</totfact>
</mgrwt>
</event>
<event>
 5    1  0.3486589E-002  0.1250008E+03  0.7818608E-02  0.1235068E+00
         -4   -1    0    0    0  501 -0.00000000000E+00  0.00000000000E+00  0.13191458034E+03  0.13192069362E+03  0.12700000000E+01 0.  1.
          4   -1    0    0  501    0  0.00000000000E+00 -0.00000000000E+00 -0.29591947985E+02  0.29619187794E+02  0.12700000000E+01 0.  1.
         25    2    1    2    0    0  0.00000000000E+00  0.00000000000E+00  0.10232263236E+03  0.16153988142E+03  0.12500084878E+03 0.  0.
    9000005    1    3    3    0    0 -0.81597107770E+01  0.60823486079E+02  0.35912837424E+02  0.71111245458E+02  0.10000000000E+01 0.  0.
    9000005    1    3    3    0    0  0.81597107770E+01 -0.60823486079E+02  0.66409794931E+02  0.90428635960E+02  0.10000000000E+01 0.  0.
<mgrwt>
<rscale>  0 0.12500085E+03</rscale>
<asrwt>0</asrwt>
<pdfrwt beam="2">  1        4 0.45551730E-02 0.12500085E+03</pdfrwt>
<pdfrwt beam="1">  1       -4 0.20297116E-01 0.12500085E+03</pdfrwt>
<totfact> 0.97044876E+03</totfact>
</mgrwt>
</event>
