<event>
 5    1  0.3251953E-002  0.1250015E+03  0.7818608E-02  0.1235067E+00
         -4   -1    0    0    0  501 -0.00000000000E+00  0.00000000000E+00  0.10011637582E+03  0.10012443062E+03  0.12700000000E+01 0.  1.
          4   -1    0    0  501    0  0.00000000000E+00 -0.00000000000E+00 -0.38998088490E+02  0.39018762229E+02  0.12700000000E+01 0.  1.
         25    2    1    2    0    0  0.00000000000E+00  0.00000000000E+00  0.61118287332E+02  0.13914319285E+03  0.12500153227E+03 0.  0.
    9000005    1    3    3    0    0 -0.43694204258E+02 -0.29344404600E+02 -0.69431306769E+01  0.53098819484E+02  0.10000000000E+01 0.  0.
    9000005    1    3    3    0    0  0.43694204258E+02  0.29344404600E+02  0.68061418009E+02  0.86044373369E+02  0.10000000000E+01 0.  0.
<mgrwt>
<rscale>  0 0.12500153E+03</rscale>
<asrwt>0</asrwt>
<pdfrwt beam="2">  1        4 0.60019159E-02 0.12500153E+03</pdfrwt>
<pdfrwt beam="1">  1       -4 0.15404729E-01 0.12500153E+03</pdfrwt>
<totfact> 0.10151024E+04</totfact>
</mgrwt>
</event>
<event>
 5    1  0.3251953E-002  0.1249954E+03  0.7818608E-02  0.1235076E+00
          4   -1    0    0  501    0  0.00000000000E+00  0.00000000000E+00  0.26519365659E+01  0.29403516031E+01  0.12700000000E+01 0. -1.
         -4   -1    0    0    0  501 -0.00000000000E+00 -0.00000000000E+00 -0.13966217831E+04  0.13966223605E+04  0.12700000000E+01 0. -1.
         25    2    1    2    0    0  0.00000000000E+00  0.00000000000E+00 -0.13939698465E+04  0.13995627121E+04  0.12499540849E+03 0.  0.
    9000005    1    3    3    0    0  0.59891294637E+02  0.16221412145E+02 -0.61405089913E+03  0.61717874891E+03  0.10000000000E+01 0.  0.
    9000005    1    3    3    0    0 -0.59891294637E+02 -0.16221412145E+02 -0.77991894741E+03  0.78238396322E+03  0.10000000000E+01 0.  0.
<mgrwt>
<rscale>  0 0.12499541E+03</rscale>
<asrwt>0</asrwt>
<pdfrwt beam="1">  1        4 0.43022155E-03 0.12499541E+03</pdfrwt>
<pdfrwt beam="2">  1       -4 0.21488656E+00 0.12499541E+03</pdfrwt>
<totfact> 0.19992393E+03</totfact>
</mgrwt>
</event>
<event>
 5    1  0.3251953E-002  0.1249980E+03  0.7818608E-02  0.1235072E+00
         -4   -1    0    0    0  501 -0.00000000000E+00  0.00000000000E+00  0.18816828557E+03  0.18817257131E+03  0.12700000000E+01 0.  1.
          4   -1    0    0  501    0  0.00000000000E+00 -0.00000000000E+00 -0.20734730878E+02  0.20773588149E+02  0.12700000000E+01 0.  1.
         25    2    1    2    0    0  0.00000000000E+00  0.00000000000E+00  0.16743355469E+03  0.20894615946E+03  0.12499800925E+03 0.  0.
    9000005    1    3    3    0    0  0.23374873993E+02 -0.44575962895E+02  0.14562733629E+03  0.15408349125E+03  0.10000000000E+01 0.  0.
    9000005    1    3    3    0    0 -0.23374873993E+02  0.44575962895E+02  0.21806218407E+02  0.54862668213E+02  0.10000000000E+01 0.  0.
<mgrwt>
<rscale>  0 0.12499801E+03</rscale>
<asrwt>0</asrwt>
<pdfrwt beam="2">  1        4 0.31932774E-02 0.12499801E+03</pdfrwt>
<pdfrwt beam="1">  1       -4 0.28952285E-01 0.12499801E+03</pdfrwt>
<totfact> 0.88652223E+03</totfact>
</mgrwt>
</event>
<event>
 5    1  0.3251953E-002  0.1249907E+03  0.7818608E-02  0.1235084E+00
          4   -1    0    0  501    0  0.00000000000E+00  0.00000000000E+00  0.24883851146E+02  0.24916238637E+02  0.12700000000E+01 0.  1.
         -4   -1    0    0    0  501 -0.00000000000E+00 -0.00000000000E+00 -0.15681903424E+03  0.15682417670E+03  0.12700000000E+01 0.  1.
         25    2    1    2    0    0  0.00000000000E+00  0.00000000000E+00 -0.13193518309E+03  0.18174041534E+03  0.12499074378E+03 0.  0.
    9000005    1    3    3    0    0 -0.40534396752E+02 -0.36516356162E+02 -0.11026640439E+03  0.12302910844E+03  0.10000000000E+01 0.  0.
    9000005    1    3    3    0    0  0.40534396752E+02  0.36516356162E+02 -0.21668778703E+02  0.58711306900E+02  0.10000000000E+01 0.  0.
<mgrwt>
<rscale>  0 0.12499074E+03</rscale>
<asrwt>0</asrwt>
<pdfrwt beam="1">  1        4 0.38311718E-02 0.12499074E+03</pdfrwt>
<pdfrwt beam="2">  1       -4 0.24128891E-01 0.12499074E+03</pdfrwt>
<totfact> 0.93324022E+03</totfact>
</mgrwt>
</event>
<event>
 5    1  0.3251953E-002  0.1249949E+03  0.7818608E-02  0.1235077E+00
          4   -1    0    0  501    0  0.00000000000E+00  0.00000000000E+00  0.25495642861E+02  0.25527254159E+02  0.12700000000E+01 0.  1.
         -4   -1    0    0    0  501 -0.00000000000E+00 -0.00000000000E+00 -0.15307084567E+03  0.15307611405E+03  0.12700000000E+01 0.  1.
         25    2    1    2    0    0  0.00000000000E+00  0.00000000000E+00 -0.12757520281E+03  0.17860336821E+03  0.12499492296E+03 0.  0.
    9000005    1    3    3    0    0  0.15044283675E+02  0.18910374606E+02 -0.14613155334E+03  0.14811942351E+03  0.10000000000E+01 0.  0.
    9000005    1    3    3    0    0 -0.15044283675E+02 -0.18910374606E+02  0.18556350539E+02  0.30483944698E+02  0.10000000000E+01 0.  0.
<mgrwt>
<rscale>  0 0.12499492E+03</rscale>
<asrwt>0</asrwt>
<pdfrwt beam="1">  1        4 0.39252436E-02 0.12499492E+03</pdfrwt>
<pdfrwt beam="2">  1       -4 0.23552197E-01 0.12499492E+03</pdfrwt>
<totfact> 0.93879695E+03</totfact>
</mgrwt>
</event>
<event>
 5    1  0.3251953E-002  0.1250010E+03  0.7818608E-02  0.1235068E+00
         -4   -1    0    0    0  501 -0.00000000000E+00  0.00000000000E+00  0.73582614907E+02  0.73593573880E+02  0.12700000000E+01 0. -1.
          4   -1    0    0  501    0  0.00000000000E+00 -0.00000000000E+00 -0.53064932397E+02  0.53080127640E+02  0.12700000000E+01 0. -1.
         25    2    1    2    0    0  0.00000000000E+00  0.00000000000E+00  0.20517682510E+02  0.12667370152E+03  0.12500100544E+03 0.  0.
    9000005    1    3    3    0    0  0.47489753878E+02  0.51686000619E+01 -0.30570770546E+02  0.56723567957E+02  0.10000000000E+01 0.  0.
    9000005    1    3    3    0    0 -0.47489753878E+02 -0.51686000619E+01  0.51088453056E+02  0.69950133564E+02  0.10000000000E+01 0.  0.
<mgrwt>
<rscale>  0 0.12500101E+03</rscale>
<asrwt>0</asrwt>
<pdfrwt beam="2">  1        4 0.81658476E-02 0.12500101E+03</pdfrwt>
<pdfrwt beam="1">  1       -4 0.11322414E-01 0.12500101E+03</pdfrwt>
<totfact> 0.10416006E+04</totfact>
</mgrwt>
</event>
<event>
 5    1  0.3251953E-002  0.1249951E+03  0.7818608E-02  0.1235077E+00
         -4   -1    0    0    0  501 -0.00000000000E+00  0.00000000000E+00  0.74522523456E+03  0.74522631671E+03  0.12700000000E+01 0.  1.
          4   -1    0    0  501    0  0.00000000000E+00 -0.00000000000E+00 -0.51632557734E+01  0.53171524505E+01  0.12700000000E+01 0.  1.
         25    2    1    2    0    0  0.00000000000E+00  0.00000000000E+00  0.74006197878E+03  0.75054346916E+03  0.12499506655E+03 0.  0.
    9000005    1    3    3    0    0  0.14458994343E+02  0.50273920601E+02  0.57527996245E+03  0.57765436448E+03  0.10000000000E+01 0.  0.
    9000005    1    3    3    0    0 -0.14458994343E+02 -0.50273920601E+02  0.16478201634E+03  0.17288910468E+03  0.10000000000E+01 0.  0.
<mgrwt>
<rscale>  0 0.12499507E+03</rscale>
<asrwt>0</asrwt>
<pdfrwt beam="2">  1        4 0.80626850E-03 0.12499507E+03</pdfrwt>
<pdfrwt beam="1">  1       -4 0.11466196E+00 0.12499507E+03</pdfrwt>
<totfact> 0.40552527E+03</totfact>
</mgrwt>
</event>
<event>
 4    1  0.3251953E-002  0.1249234E+03  0.7818608E-02  0.1235189E+00
         -4   -1    0    0    0  501 -0.00000000000E+00  0.00000000000E+00  0.16530068531E+02  0.16578783600E+02  0.12700000000E+01 0. -1.
          4   -1    0    0  501    0  0.00000000000E+00 -0.00000000000E+00 -0.23562472004E+03  0.23562814262E+03  0.12700000000E+01 0. -1.
    9000005    1    1    2    0    0  0.51486700486E+02  0.23923266607E+02 -0.57007093187E+02  0.80461243377E+02  0.10000000000E+01 0.  0.
    9000005    1    1    2    0    0 -0.51486700486E+02 -0.23923266607E+02 -0.16208755832E+03  0.17174568284E+03  0.10000000000E+01 0.  0.
<mgrwt>
<rscale>  0 0.12492345E+03</rscale>
<asrwt>0</asrwt>
<pdfrwt beam="2">  1        4 0.36253965E-01 0.12492345E+03</pdfrwt>
<pdfrwt beam="1">  1       -4 0.25470982E-02 0.12492345E+03</pdfrwt>
<totfact> 0.82152296E+03</totfact>
</mgrwt>
</event>
<event>
 5    1  0.3251953E-002  0.1249986E+03  0.7818608E-02  0.1235072E+00
         -4   -1    0    0    0  501 -0.00000000000E+00  0.00000000000E+00  0.38239515666E+02  0.38260599294E+02  0.12700000000E+01 0.  1.
          4   -1    0    0  501    0  0.00000000000E+00 -0.00000000000E+00 -0.10209665641E+03  0.10210455500E+03  0.12700000000E+01 0.  1.
         25    2    1    2    0    0  0.00000000000E+00  0.00000000000E+00 -0.63857140748E+02  0.14036515429E+03  0.12499856845E+03 0.  0.
    9000005    1    3    3    0    0  0.42240438130E+02  0.28033205948E+02 -0.72958641126E+02  0.88848627250E+02  0.10000000000E+01 0.  0.
    9000005    1    3    3    0    0 -0.42240438130E+02 -0.28033205948E+02  0.91015003777E+01  0.51516527040E+02  0.10000000000E+01 0.  0.
<mgrwt>
<rscale>  0 0.12499857E+03</rscale>
<asrwt>0</asrwt>
<pdfrwt beam="2">  1        4 0.15709407E-01 0.12499857E+03</pdfrwt>
<pdfrwt beam="1">  1       -4 0.58852319E-02 0.12499857E+03</pdfrwt>
<totfact> 0.10126350E+04</totfact>
</mgrwt>
</event>
<event>
 5    1  0.3251953E-002  0.1250140E+03  0.7818608E-02  0.1235047E+00
          4   -1    0    0  501    0  0.00000000000E+00  0.00000000000E+00  0.75946944914E+01  0.77001483374E+01  0.12700000000E+01 0. -1.
         -4   -1    0    0    0  501 -0.00000000000E+00 -0.00000000000E+00 -0.51080165255E+03  0.51080323134E+03  0.12700000000E+01 0. -1.
         25    2    1    2    0    0  0.00000000000E+00  0.00000000000E+00 -0.50320695806E+03  0.51850337968E+03  0.12501404761E+03 0.  0.
    9000005    1    3    3    0    0  0.34334297164E+02 -0.44614272483E+02 -0.13901795828E+03  0.14998756613E+03  0.10000000000E+01 0.  0.
    9000005    1    3    3    0    0 -0.34334297164E+02  0.44614272483E+02 -0.36418899979E+03  0.36851581355E+03  0.10000000000E+01 0.  0.
<mgrwt>
<rscale>  0 0.12501405E+03</rscale>
<asrwt>0</asrwt>
<pdfrwt beam="1">  1        4 0.11766482E-02 0.12501405E+03</pdfrwt>
<pdfrwt beam="2">  1       -4 0.78593076E-01 0.12501405E+03</pdfrwt>
<totfact> 0.54439982E+03</totfact>
</mgrwt>
</event>
<event>
 5    1  0.3251953E-002  0.1250523E+03  0.7818608E-02  0.1234988E+00
         -4   -1    0    0    0  501 -0.00000000000E+00  0.00000000000E+00  0.23788738028E+03  0.23789077030E+03  0.12700000000E+01 0. -1.
          4   -1    0    0  501    0  0.00000000000E+00 -0.00000000000E+00 -0.16406286833E+02  0.16455368353E+02  0.12700000000E+01 0. -1.
         25    2    1    2    0    0  0.00000000000E+00  0.00000000000E+00  0.22148109344E+03  0.25434613866E+03  0.12505232303E+03 0.  0.
    9000005    1    3    3    0    0 -0.34491140322E+02 -0.45842208334E+02  0.16127732705E+03  0.17117979743E+03  0.10000000000E+01 0.  0.
    9000005    1    3    3    0    0  0.34491140322E+02  0.45842208334E+02  0.60203766392E+02  0.83166341230E+02  0.10000000000E+01 0.  0.
<mgrwt>
<rscale>  0 0.12505232E+03</rscale>
<asrwt>0</asrwt>
<pdfrwt beam="2">  1        4 0.25280805E-02 0.12505232E+03</pdfrwt>
<pdfrwt beam="1">  1       -4 0.36602093E-01 0.12505232E+03</pdfrwt>
<totfact> 0.81610976E+03</totfact>
</mgrwt>
</event>
<event>
 5    1  0.3251953E-002  0.1250213E+03  0.7818608E-02  0.1235036E+00
          4   -1    0    0  501    0  0.00000000000E+00  0.00000000000E+00  0.34580752137E+02  0.34604065055E+02  0.12700000000E+01 0. -1.
         -4   -1    0    0    0  501 -0.00000000000E+00 -0.00000000000E+00 -0.11293383402E+03  0.11294097470E+03  0.12700000000E+01 0. -1.
         25    2    1    2    0    0  0.00000000000E+00  0.00000000000E+00 -0.78353081884E+02  0.14754503976E+03  0.12502133145E+03 0.  0.
    9000005    1    3    3    0    0  0.14577951878E+02 -0.19117881942E+02 -0.10726438026E+03  0.10993023862E+03  0.10000000000E+01 0.  0.
    9000005    1    3    3    0    0 -0.14577951878E+02  0.19117881942E+02  0.28911298374E+02  0.37614801137E+02  0.10000000000E+01 0.  0.
<mgrwt>
<rscale>  0 0.12502133E+03</rscale>
<asrwt>0</asrwt>
<pdfrwt beam="1">  1        4 0.53224583E-02 0.12502133E+03</pdfrwt>
<pdfrwt beam="2">  1       -4 0.17376778E-01 0.12502133E+03</pdfrwt>
<totfact> 0.99747420E+03</totfact>
</mgrwt>
</event>
<event>
 5    1  0.3251953E-002  0.1249971E+03  0.7818608E-02  0.1235074E+00
         -4   -1    0    0    0  501 -0.00000000000E+00  0.00000000000E+00  0.69910968815E+03  0.69911084169E+03  0.12700000000E+01 0.  1.
          4   -1    0    0  501    0  0.00000000000E+00 -0.00000000000E+00 -0.55138646110E+01  0.56582332003E+01  0.12700000000E+01 0.  1.
         25    2    1    2    0    0  0.00000000000E+00  0.00000000000E+00  0.69359582354E+03  0.70476907489E+03  0.12499712992E+03 0.  0.
    9000005    1    3    3    0    0 -0.16768704901E+02 -0.57105019657E+02  0.45420650243E+03  0.45809029633E+03  0.10000000000E+01 0.  0.
    9000005    1    3    3    0    0  0.16768704901E+02  0.57105019657E+02  0.23938932111E+03  0.24667877857E+03  0.10000000000E+01 0.  0.
<mgrwt>
<rscale>  0 0.12499713E+03</rscale>
<asrwt>0</asrwt>
<pdfrwt beam="2">  1        4 0.85948150E-03 0.12499713E+03</pdfrwt>
<pdfrwt beam="1">  1       -4 0.10756645E+00 0.12499713E+03</pdfrwt>
<totfact> 0.42838850E+03</totfact>
</mgrwt>
</event>
<event>
 5    1  0.3251953E-002  0.1249992E+03  0.7818608E-02  0.1235071E+00
         -4   -1    0    0    0  501 -0.00000000000E+00  0.00000000000E+00  0.21571010684E+03  0.21571384539E+03  0.12700000000E+01 0. -1.
          4   -1    0    0  501    0  0.00000000000E+00 -0.00000000000E+00 -0.18082389076E+02  0.18126932854E+02  0.12700000000E+01 0. -1.
         25    2    1    2    0    0  0.00000000000E+00  0.00000000000E+00  0.19762771777E+03  0.23384077825E+03  0.12499917896E+03 0.  0.
    9000005    1    3    3    0    0 -0.22643079672E+02 -0.52616230347E+02  0.52082004550E+02  0.77425525189E+02  0.10000000000E+01 0.  0.
    9000005    1    3    3    0    0  0.22643079672E+02  0.52616230347E+02  0.14554571322E+03  0.15641525306E+03  0.10000000000E+01 0.  0.
<mgrwt>
<rscale>  0 0.12499918E+03</rscale>
<asrwt>0</asrwt>
<pdfrwt beam="2">  1        4 0.27856200E-02 0.12499918E+03</pdfrwt>
<pdfrwt beam="1">  1       -4 0.33189885E-01 0.12499918E+03</pdfrwt>
<totfact> 0.84724861E+03</totfact>
</mgrwt>
</event>
<event>
 5    1  0.3251953E-002  0.1250118E+03  0.7818608E-02  0.1235051E+00
          4   -1    0    0  501    0  0.00000000000E+00  0.00000000000E+00  0.10604884393E+04  0.10604891997E+04  0.12700000000E+01 0.  1.
         -4   -1    0    0    0  501 -0.00000000000E+00 -0.00000000000E+00 -0.35739053584E+01  0.37928484692E+01  0.12700000000E+01 0.  1.
         25    2    1    2    0    0  0.00000000000E+00  0.00000000000E+00  0.10569145339E+04  0.10642820482E+04  0.12501178387E+03 0.  0.
    9000005    1    3    3    0    0  0.33479949736E+02  0.33454697934E+02  0.18098081083E+03  0.18706998085E+03  0.10000000000E+01 0.  0.
    9000005    1    3    3    0    0 -0.33479949736E+02 -0.33454697934E+02  0.87593372310E+03  0.87721206736E+03  0.10000000000E+01 0.  0.
<mgrwt>
<rscale>  0 0.12501178E+03</rscale>
<asrwt>0</asrwt>
<pdfrwt beam="1">  1        4 0.16316885E+00 0.12501178E+03</pdfrwt>
<pdfrwt beam="2">  1       -4 0.56673229E-03 0.12501178E+03</pdfrwt>
<totfact> 0.28545673E+03</totfact>
</mgrwt>
</event>
<event>
 5    1  0.3251953E-002  0.1249971E+03  0.7818608E-02  0.1235074E+00
         -4   -1    0    0    0  501 -0.00000000000E+00  0.00000000000E+00  0.46575466220E+02  0.46592777913E+02  0.12700000000E+01 0.  1.
          4   -1    0    0  501    0  0.00000000000E+00 -0.00000000000E+00 -0.83827647456E+02  0.83837267238E+02  0.12700000000E+01 0.  1.
         25    2    1    2    0    0  0.00000000000E+00  0.00000000000E+00 -0.37252181236E+02  0.13043004515E+03  0.12499708665E+03 0.  0.
    9000005    1    3    3    0    0  0.31365129290E+02 -0.54007257762E+02 -0.20842732708E+02  0.65848118675E+02  0.10000000000E+01 0.  0.
    9000005    1    3    3    0    0 -0.31365129290E+02  0.54007257762E+02 -0.16409448528E+02  0.64581926476E+02  0.10000000000E+01 0.  0.
<mgrwt>
<rscale>  0 0.12499709E+03</rscale>
<asrwt>0</asrwt>
<pdfrwt beam="2">  1        4 0.12898633E-01 0.12499709E+03</pdfrwt>
<pdfrwt beam="1">  1       -4 0.71675280E-02 0.12499709E+03</pdfrwt>
<totfact> 0.10335996E+04</totfact>
</mgrwt>
</event>
<event>
 5    1  0.3251953E-002  0.1249994E+03  0.7818608E-02  0.1235070E+00
         -4   -1    0    0    0  501 -0.00000000000E+00  0.00000000000E+00  0.24434739351E+02  0.24467721331E+02  0.12700000000E+01 0. -1.
          4   -1    0    0  501    0  0.00000000000E+00 -0.00000000000E+00 -0.15971983502E+03  0.15972488409E+03  0.12700000000E+01 0. -1.
         25    2    1    2    0    0  0.00000000000E+00  0.00000000000E+00 -0.13528509567E+03  0.18419260542E+03  0.12499943513E+03 0.  0.
    9000005    1    3    3    0    0 -0.38123804170E+02 -0.41909687963E+02 -0.28785340308E+02  0.63556606314E+02  0.10000000000E+01 0.  0.
    9000005    1    3    3    0    0  0.38123804170E+02  0.41909687963E+02 -0.10649975536E+03  0.12063599911E+03  0.10000000000E+01 0.  0.
<mgrwt>
<rscale>  0 0.12499944E+03</rscale>
<asrwt>0</asrwt>
<pdfrwt beam="2">  1        4 0.24575207E-01 0.12499944E+03</pdfrwt>
<pdfrwt beam="1">  1       -4 0.37621162E-02 0.12499944E+03</pdfrwt>
<totfact> 0.92868894E+03</totfact>
</mgrwt>
</event>
<event>
 5    1  0.3251953E-002  0.1249990E+03  0.7818608E-02  0.1235071E+00
          4   -1    0    0  501    0  0.00000000000E+00  0.00000000000E+00  0.71932656229E+02  0.71943866536E+02  0.12700000000E+01 0. -1.
         -4   -1    0    0    0  501 -0.00000000000E+00 -0.00000000000E+00 -0.54280541916E+02  0.54295396957E+02  0.12700000000E+01 0. -1.
         25    2    1    2    0    0  0.00000000000E+00  0.00000000000E+00  0.17652114312E+02  0.12623926349E+03  0.12499901803E+03 0.  0.
    9000005    1    3    3    0    0 -0.13899182969E+02  0.56341189758E+02 -0.14591761061E+02  0.59845103738E+02  0.10000000000E+01 0.  0.
    9000005    1    3    3    0    0  0.13899182969E+02 -0.56341189758E+02  0.32243875373E+02  0.66394159755E+02  0.10000000000E+01 0.  0.
<mgrwt>
<rscale>  0 0.12499902E+03</rscale>
<asrwt>0</asrwt>
<pdfrwt beam="1">  1        4 0.11068568E-01 0.12499902E+03</pdfrwt>
<pdfrwt beam="2">  1       -4 0.83528576E-02 0.12499902E+03</pdfrwt>
<totfact> 0.10425952E+04</totfact>
</mgrwt>
</event>
<event>
 5    1  0.3251953E-002  0.1249999E+03  0.7818608E-02  0.1235069E+00
         -4   -1    0    0    0  501 -0.00000000000E+00  0.00000000000E+00  0.15295756333E+03  0.15296283562E+03  0.12700000000E+01 0. -1.
          4   -1    0    0  501    0  0.00000000000E+00 -0.00000000000E+00 -0.25516590879E+02  0.25548176257E+02  0.12700000000E+01 0. -1.
         25    2    1    2    0    0  0.00000000000E+00  0.00000000000E+00  0.12744097245E+03  0.17851101187E+03  0.12499991960E+03 0.  0.
    9000005    1    3    3    0    0 -0.26628665639E+02  0.56031078488E+02  0.52969206036E+02  0.81580048899E+02  0.10000000000E+01 0.  0.
    9000005    1    3    3    0    0  0.26628665639E+02 -0.56031078488E+02  0.74471766415E+02  0.96930962975E+02  0.10000000000E+01 0.  0.
<mgrwt>
<rscale>  0 0.12499992E+03</rscale>
<asrwt>0</asrwt>
<pdfrwt beam="2">  1        4 0.39284646E-02 0.12499992E+03</pdfrwt>
<pdfrwt beam="1">  1       -4 0.23534768E-01 0.12499992E+03</pdfrwt>
<totfact> 0.93885883E+03</totfact>
</mgrwt>
</event>
<event>
 5    1  0.3251953E-002  0.1249998E+03  0.7818608E-02  0.1235070E+00
         -4   -1    0    0    0  501 -0.00000000000E+00  0.00000000000E+00  0.37954664532E+01  0.40023075341E+01  0.12700000000E+01 0.  1.
          4   -1    0    0  501    0  0.00000000000E+00 -0.00000000000E+00 -0.10016775740E+04  0.10016783791E+04  0.12700000000E+01 0.  1.
         25    2    1    2    0    0  0.00000000000E+00  0.00000000000E+00 -0.99788210754E+03  0.10056806866E+04  0.12499977162E+03 0.  0.
    9000005    1    3    3    0    0 -0.28011977227E+02  0.26116394633E+02 -0.10164691087E+03  0.10862702898E+03  0.10000000000E+01 0.  0.
    9000005    1    3    3    0    0  0.28011977227E+02 -0.26116394633E+02 -0.89623519667E+03  0.89705365764E+03  0.10000000000E+01 0.  0.
<mgrwt>
<rscale>  0 0.12499977E+03</rscale>
<asrwt>0</asrwt>
<pdfrwt beam="2">  1        4 0.15412001E+00 0.12499977E+03</pdfrwt>
<pdfrwt beam="1">  1       -4 0.59989150E-03 0.12499977E+03</pdfrwt>
<totfact> 0.30417844E+03</totfact>
</mgrwt>
</event>
<event>
 5    1  0.3251953E-002  0.1249989E+03  0.7818608E-02  0.1235071E+00
         -4   -1    0    0    0  501 -0.00000000000E+00  0.00000000000E+00  0.26398249181E+02  0.26428780899E+02  0.12700000000E+01 0.  1.
          4   -1    0    0  501    0  0.00000000000E+00 -0.00000000000E+00 -0.14785244286E+03  0.14785789719E+03  0.12700000000E+01 0.  1.
         25    2    1    2    0    0  0.00000000000E+00  0.00000000000E+00 -0.12145419368E+03  0.17428667809E+03  0.12499889998E+03 0.  0.
    9000005    1    3    3    0    0 -0.13036629389E+02 -0.36223352567E+02  0.79075393351E+01  0.39314299629E+02  0.10000000000E+01 0.  0.
    9000005    1    3    3    0    0  0.13036629389E+02  0.36223352567E+02 -0.12936173302E+03  0.13497237846E+03  0.10000000000E+01 0.  0.
<mgrwt>
<rscale>  0 0.12499890E+03</rscale>
<asrwt>0</asrwt>
<pdfrwt beam="2">  1        4 0.22749297E-01 0.12499890E+03</pdfrwt>
<pdfrwt beam="1">  1       -4 0.40640374E-02 0.12499890E+03</pdfrwt>
<totfact> 0.94657983E+03</totfact>
</mgrwt>
</event>
<event>
 5    1  0.3251953E-002  0.1249988E+03  0.7818608E-02  0.1235071E+00
          4   -1    0    0  501    0  0.00000000000E+00  0.00000000000E+00  0.50538540352E+02  0.50554494963E+02  0.12700000000E+01 0.  1.
         -4   -1    0    0    0  501 -0.00000000000E+00 -0.00000000000E+00 -0.77257654101E+02  0.77268091843E+02  0.12700000000E+01 0.  1.
         25    2    1    2    0    0  0.00000000000E+00  0.00000000000E+00 -0.26719113748E+02  0.12782258681E+03  0.12499881063E+03 0.  0.
    9000005    1    3    3    0    0 -0.42866107854E+02  0.18021362964E+02 -0.56050752968E+02  0.72835153833E+02  0.10000000000E+01 0.  0.
    9000005    1    3    3    0    0  0.42866107854E+02 -0.18021362964E+02  0.29331639220E+02  0.54987432973E+02  0.10000000000E+01 0.  0.
<mgrwt>
<rscale>  0 0.12499881E+03</rscale>
<asrwt>0</asrwt>
<pdfrwt beam="1">  1        4 0.77771903E-02 0.12499881E+03</pdfrwt>
<pdfrwt beam="2">  1       -4 0.11887823E-01 0.12499881E+03</pdfrwt>
<totfact> 0.10391600E+04</totfact>
</mgrwt>
</event>
<event>
 5    1  0.3251953E-002  0.1250071E+03  0.7818608E-02  0.1235058E+00
         -4   -1    0    0    0  501 -0.00000000000E+00  0.00000000000E+00  0.19606337308E+03  0.19606748625E+03  0.12700000000E+01 0.  1.
          4   -1    0    0  501    0  0.00000000000E+00 -0.00000000000E+00 -0.19901118387E+02  0.19941600062E+02  0.12700000000E+01 0.  1.
         25    2    1    2    0    0  0.00000000000E+00  0.00000000000E+00  0.17616225469E+03  0.21600908631E+03  0.12500714135E+03 0.  0.
    9000005    1    3    3    0    0  0.59529610845E+02  0.11128171429E+02  0.11474380381E+03  0.12974880069E+03  0.10000000000E+01 0.  0.
    9000005    1    3    3    0    0 -0.59529610845E+02 -0.11128171429E+02  0.61418450877E+02  0.86260285617E+02  0.10000000000E+01 0.  0.
<mgrwt>
<rscale>  0 0.12500714E+03</rscale>
<asrwt>0</asrwt>
<pdfrwt beam="2">  1        4 0.30651409E-02 0.12500714E+03</pdfrwt>
<pdfrwt beam="1">  1       -4 0.30167027E-01 0.12500714E+03</pdfrwt>
<totfact> 0.87489863E+03</totfact>
</mgrwt>
</event>
<event>
 5    1  0.3251953E-002  0.1250042E+03  0.7818608E-02  0.1235063E+00
         -4   -1    0    0    0  501 -0.00000000000E+00  0.00000000000E+00  0.61741650438E+01  0.63034287486E+01  0.12700000000E+01 0. -1.
          4   -1    0    0  501    0  0.00000000000E+00 -0.00000000000E+00 -0.62603464781E+03  0.62603593600E+03  0.12700000000E+01 0. -1.
         25    2    1    2    0    0  0.00000000000E+00  0.00000000000E+00 -0.61986048277E+03  0.63233936475E+03  0.12500421637E+03 0.  0.
    9000005    1    3    3    0    0  0.62161570172E+02 -0.11246090704E+01 -0.27786211227E+03  0.28473440078E+03  0.10000000000E+01 0.  0.
    9000005    1    3    3    0    0 -0.62161570172E+02  0.11246090704E+01 -0.34199837050E+03  0.34760496397E+03  0.10000000000E+01 0.  0.
<mgrwt>
<rscale>  0 0.12500422E+03</rscale>
<asrwt>0</asrwt>
<pdfrwt beam="2">  1        4 0.96323015E-01 0.12500422E+03</pdfrwt>
<pdfrwt beam="1">  1       -4 0.95991450E-03 0.12500422E+03</pdfrwt>
<totfact> 0.46883568E+03</totfact>
</mgrwt>
</event>
<event>
 5    1  0.3251953E-002  0.1249990E+03  0.7818608E-02  0.1235071E+00
          4   -1    0    0  501    0  0.00000000000E+00  0.00000000000E+00  0.86944429710E+02  0.86953704680E+02  0.12700000000E+01 0. -1.
         -4   -1    0    0    0  501 -0.00000000000E+00 -0.00000000000E+00 -0.44906735741E+02  0.44924690483E+02  0.12700000000E+01 0. -1.
         25    2    1    2    0    0  0.00000000000E+00  0.00000000000E+00  0.42037693968E+02  0.13187839516E+03  0.12499897358E+03 0.  0.
    9000005    1    3    3    0    0 -0.14633749614E+02 -0.33540075297E+02 -0.32425799970E+02  0.48903126509E+02  0.10000000000E+01 0.  0.
    9000005    1    3    3    0    0  0.14633749614E+02  0.33540075297E+02  0.74463493938E+02  0.82975268654E+02  0.10000000000E+01 0.  0.
<mgrwt>
<rscale>  0 0.12499897E+03</rscale>
<asrwt>0</asrwt>
<pdfrwt beam="1">  1        4 0.13378161E-01 0.12499897E+03</pdfrwt>
<pdfrwt beam="2">  1       -4 0.69108232E-02 0.12499897E+03</pdfrwt>
<totfact> 0.10304533E+04</totfact>
</mgrwt>
</event>
<event>
 5    1  0.3251953E-002  0.1250004E+03  0.7818608E-02  0.1235069E+00
         -4   -1    0    0    0  501 -0.00000000000E+00  0.00000000000E+00  0.23814230651E+02  0.23848070813E+02  0.12700000000E+01 0. -1.
          4   -1    0    0  501    0  0.00000000000E+00 -0.00000000000E+00 -0.16387832066E+03  0.16388324161E+03  0.12700000000E+01 0. -1.
         25    2    1    2    0    0  0.00000000000E+00  0.00000000000E+00 -0.14006409001E+03  0.18773131243E+03  0.12500038542E+03 0.  0.
    9000005    1    3    3    0    0  0.46017408826E+02 -0.36389650615E+02 -0.37699933288E+02  0.69743053825E+02  0.10000000000E+01 0.  0.
    9000005    1    3    3    0    0 -0.46017408826E+02  0.36389650615E+02 -0.10236415672E+03  0.11798825860E+03  0.10000000000E+01 0.  0.
<mgrwt>
<rscale>  0 0.12500039E+03</rscale>
<asrwt>0</asrwt>
<pdfrwt beam="2">  1        4 0.25215030E-01 0.12500039E+03</pdfrwt>
<pdfrwt beam="1">  1       -4 0.36667095E-02 0.12500039E+03</pdfrwt>
<totfact> 0.92242767E+03</totfact>
</mgrwt>
</event>
<event>
 5    1  0.3251953E-002  0.1250063E+03  0.7818608E-02  0.1235059E+00
         -4   -1    0    0    0  501 -0.00000000000E+00  0.00000000000E+00  0.24004530240E+02  0.24038102505E+02  0.12700000000E+01 0.  1.
          4   -1    0    0  501    0  0.00000000000E+00 -0.00000000000E+00 -0.16259624748E+03  0.16260120724E+03  0.12700000000E+01 0.  1.
         25    2    1    2    0    0  0.00000000000E+00  0.00000000000E+00 -0.13859171724E+03  0.18663930974E+03  0.12500627125E+03 0.  0.
    9000005    1    3    3    0    0 -0.37349433662E+02 -0.47341801256E+02 -0.93802438523E+02  0.11151737001E+03  0.10000000000E+01 0.  0.
    9000005    1    3    3    0    0  0.37349433662E+02  0.47341801256E+02 -0.44789278720E+02  0.75121939734E+02  0.10000000000E+01 0.  0.
<mgrwt>
<rscale>  0 0.12500627E+03</rscale>
<asrwt>0</asrwt>
<pdfrwt beam="2">  1        4 0.25017771E-01 0.12500627E+03</pdfrwt>
<pdfrwt beam="1">  1       -4 0.36959687E-02 0.12500627E+03</pdfrwt>
<totfact> 0.92422386E+03</totfact>
</mgrwt>
</event>
<event>
 5    1  0.3251953E-002  0.1249959E+03  0.7818608E-02  0.1235076E+00
         -4   -1    0    0    0  501 -0.00000000000E+00  0.00000000000E+00  0.21064588324E+02  0.21102838227E+02  0.12700000000E+01 0. -1.
          4   -1    0    0  501    0  0.00000000000E+00 -0.00000000000E+00 -0.18522065782E+03  0.18522501177E+03  0.12700000000E+01 0. -1.
         25    2    1    2    0    0  0.00000000000E+00  0.00000000000E+00 -0.16415606950E+03  0.20632785000E+03  0.12499586605E+03 0.  0.
    9000005    1    3    3    0    0  0.22213759523E+02  0.23162040743E+02  0.64306094912E+01  0.32745747540E+02  0.10000000000E+01 0.  0.
    9000005    1    3    3    0    0 -0.22213759523E+02 -0.23162040743E+02 -0.17058667899E+03  0.17358210246E+03  0.10000000000E+01 0.  0.
<mgrwt>
<rscale>  0 0.12499587E+03</rscale>
<asrwt>0</asrwt>
<pdfrwt beam="2">  1        4 0.28498762E-01 0.12499587E+03</pdfrwt>
<pdfrwt beam="1">  1       -4 0.32439832E-02 0.12499587E+03</pdfrwt>
<totfact> 0.89087361E+03</totfact>
</mgrwt>
</event>
<event>
 5    1  0.3251953E-002  0.1249992E+03  0.7818608E-02  0.1235070E+00
         -4   -1    0    0    0  501 -0.00000000000E+00  0.00000000000E+00  0.52271882392E+01  0.53792561649E+01  0.12700000000E+01 0.  1.
          4   -1    0    0  501    0  0.00000000000E+00 -0.00000000000E+00 -0.73641884446E+03  0.73641993955E+03  0.12700000000E+01 0.  1.
         25    2    1    2    0    0  0.00000000000E+00  0.00000000000E+00 -0.73119165622E+03  0.74179919572E+03  0.12499923458E+03 0.  0.
    9000005    1    3    3    0    0 -0.21800630867E+02 -0.50922788715E+02 -0.53726445827E+03  0.54011341035E+03  0.10000000000E+01 0.  0.
    9000005    1    3    3    0    0  0.21800630867E+02  0.50922788715E+02 -0.19392719795E+03  0.20168578537E+03  0.10000000000E+01 0.  0.
<mgrwt>
<rscale>  0 0.12499923E+03</rscale>
<asrwt>0</asrwt>
<pdfrwt beam="2">  1        4 0.11330691E+00 0.12499923E+03</pdfrwt>
<pdfrwt beam="1">  1       -4 0.81596516E-03 0.12499923E+03</pdfrwt>
<totfact> 0.40970196E+03</totfact>
</mgrwt>
</event>
<event>
 5    1  0.3251953E-002  0.1249996E+03  0.7818608E-02  0.1235070E+00
         -4   -1    0    0    0  501 -0.00000000000E+00  0.00000000000E+00  0.24776589107E+03  0.24776914593E+03  0.12700000000E+01 0.  1.
          4   -1    0    0  501    0  0.00000000000E+00 -0.00000000000E+00 -0.15736853481E+02  0.15788016262E+02  0.12700000000E+01 0.  1.
         25    2    1    2    0    0  0.00000000000E+00  0.00000000000E+00  0.23202903759E+03  0.26355716219E+03  0.12499961384E+03 0.  0.
    9000005    1    3    3    0    0 -0.10808411852E+02  0.61463286235E+02  0.10912769897E+03  0.12571559968E+03  0.10000000000E+01 0.  0.
    9000005    1    3    3    0    0  0.10808411852E+02 -0.61463286235E+02  0.12290133862E+03  0.13784156251E+03  0.10000000000E+01 0.  0.
<mgrwt>
<rscale>  0 0.12499961E+03</rscale>
<asrwt>0</asrwt>
<pdfrwt beam="2">  1        4 0.24252404E-02 0.12499961E+03</pdfrwt>
<pdfrwt beam="1">  1       -4 0.38122014E-01 0.12499961E+03</pdfrwt>
<totfact> 0.80410132E+03</totfact>
</mgrwt>
</event>
<event>
 5    1  0.3251953E-002  0.1249955E+03  0.7818608E-02  0.1235076E+00
          4   -1    0    0  501    0  0.00000000000E+00  0.00000000000E+00  0.54539301876E+03  0.54539449742E+03  0.12700000000E+01 0.  1.
         -4   -1    0    0    0  501 -0.00000000000E+00 -0.00000000000E+00 -0.71039426648E+01  0.72165713040E+01  0.12700000000E+01 0.  1.
         25    2    1    2    0    0  0.00000000000E+00  0.00000000000E+00  0.53828907610E+03  0.55261106872E+03  0.12499545523E+03 0.  0.
    9000005    1    3    3    0    0  0.99993986349E+01 -0.32274697669E+02  0.36741878116E+02  0.49926042204E+02  0.10000000000E+01 0.  0.
    9000005    1    3    3    0    0 -0.99993986349E+01  0.32274697669E+02  0.50154719798E+03  0.50268502652E+03  0.10000000000E+01 0.  0.
<mgrwt>
<rscale>  0 0.12499546E+03</rscale>
<asrwt>0</asrwt>
<pdfrwt beam="1">  1        4 0.83915440E-01 0.12499546E+03</pdfrwt>
<pdfrwt beam="2">  1       -4 0.11016912E-02 0.12499546E+03</pdfrwt>
<totfact> 0.52007589E+03</totfact>
</mgrwt>
</event>
<event>
 5    1  0.3251953E-002  0.1250213E+03  0.7818608E-02  0.1235036E+00
         -4   -1    0    0    0  501 -0.00000000000E+00  0.00000000000E+00  0.11147687874E+03  0.11148411274E+03  0.12700000000E+01 0. -1.
          4   -1    0    0  501    0  0.00000000000E+00 -0.00000000000E+00 -0.35032951488E+02  0.35055963686E+02  0.12700000000E+01 0. -1.
         25    2    1    2    0    0  0.00000000000E+00  0.00000000000E+00  0.76443927255E+02  0.14654007643E+03  0.12502127813E+03 0.  0.
    9000005    1    3    3    0    0  0.12313238996E+02 -0.59665313079E+02  0.21853572476E+02  0.64731322166E+02  0.10000000000E+01 0.  0.
    9000005    1    3    3    0    0 -0.12313238996E+02  0.59665313079E+02  0.54590354778E+02  0.81808754264E+02  0.10000000000E+01 0.  0.
<mgrwt>
<rscale>  0 0.12502128E+03</rscale>
<asrwt>0</asrwt>
<pdfrwt beam="2">  1        4 0.53920115E-02 0.12502128E+03</pdfrwt>
<pdfrwt beam="1">  1       -4 0.17152616E-01 0.12502128E+03</pdfrwt>
<totfact> 0.99950019E+03</totfact>
</mgrwt>
</event>
<event>
 5    1  0.3251953E-002  0.1249989E+03  0.7818608E-02  0.1235071E+00
         -4   -1    0    0    0  501 -0.00000000000E+00  0.00000000000E+00  0.30073482623E+02  0.30100286661E+02  0.12700000000E+01 0.  1.
          4   -1    0    0  501    0  0.00000000000E+00 -0.00000000000E+00 -0.12980004855E+03  0.12980626142E+03  0.12700000000E+01 0.  1.
         25    2    1    2    0    0  0.00000000000E+00  0.00000000000E+00 -0.99726565924E+02  0.15990654808E+03  0.12499886466E+03 0.  0.
    9000005    1    3    3    0    0  0.57240949584E+02  0.18881421311E+02 -0.70967055131E+02  0.93114753364E+02  0.10000000000E+01 0.  0.
    9000005    1    3    3    0    0 -0.57240949584E+02 -0.18881421311E+02 -0.28759510792E+02  0.66791794713E+02  0.10000000000E+01 0.  0.
<mgrwt>
<rscale>  0 0.12499886E+03</rscale>
<asrwt>0</asrwt>
<pdfrwt beam="2">  1        4 0.19971778E-01 0.12499886E+03</pdfrwt>
<pdfrwt beam="1">  1       -4 0.46292295E-02 0.12499886E+03</pdfrwt>
<totfact> 0.97363290E+03</totfact>
</mgrwt>
</event>
<event>
 5    1  0.3251953E-002  0.1250014E+03  0.7818608E-02  0.1235067E+00
         -4   -1    0    0    0  501 -0.00000000000E+00  0.00000000000E+00  0.83211974039E+03  0.83212070954E+03  0.12700000000E+01 0. -1.
          4   -1    0    0  501    0  0.00000000000E+00 -0.00000000000E+00 -0.46075604106E+01  0.47793841588E+01  0.12700000000E+01 0. -1.
         25    2    1    2    0    0  0.00000000000E+00  0.00000000000E+00  0.82751217998E+03  0.83690009370E+03  0.12500143527E+03 0.  0.
    9000005    1    3    3    0    0 -0.32893394709E+02 -0.46267251494E+02  0.58869055873E+03  0.59142219092E+03  0.10000000000E+01 0.  0.
    9000005    1    3    3    0    0  0.32893394709E+02  0.46267251494E+02  0.23882162125E+03  0.24547790278E+03  0.10000000000E+01 0.  0.
<mgrwt>
<rscale>  0 0.12500144E+03</rscale>
<asrwt>0</asrwt>
<pdfrwt beam="2">  1        4 0.72214736E-03 0.12500144E+03</pdfrwt>
<pdfrwt beam="1">  1       -4 0.12803169E+00 0.12500144E+03</pdfrwt>
<totfact> 0.36668320E+03</totfact>
</mgrwt>
</event>
<event>
 5    1  0.3251953E-002  0.1249978E+03  0.7818608E-02  0.1235073E+00
          4   -1    0    0  501    0  0.00000000000E+00  0.00000000000E+00  0.23750163324E+03  0.23750502877E+03  0.12700000000E+01 0.  1.
         -4   -1    0    0    0  501 -0.00000000000E+00 -0.00000000000E+00 -0.16418645841E+02  0.16467690526E+02  0.12700000000E+01 0.  1.
         25    2    1    2    0    0  0.00000000000E+00  0.00000000000E+00  0.22108298740E+03  0.25397271930E+03  0.12499781930E+03 0.  0.
    9000005    1    3    3    0    0  0.40744398964E+02 -0.25843263670E+02  0.29851655447E+02  0.56745939564E+02  0.10000000000E+01 0.  0.
    9000005    1    3    3    0    0 -0.40744398964E+02  0.25843263670E+02  0.19123133195E+03  0.19722677973E+03  0.10000000000E+01 0.  0.
<mgrwt>
<rscale>  0 0.12499782E+03</rscale>
<asrwt>0</asrwt>
<pdfrwt beam="1">  1        4 0.36542747E-01 0.12499782E+03</pdfrwt>
<pdfrwt beam="2">  1       -4 0.25299794E-02 0.12499782E+03</pdfrwt>
<totfact> 0.81763385E+03</totfact>
</mgrwt>
</event>
<event>
 5    1  0.3251953E-002  0.1249986E+03  0.7818608E-02  0.1235072E+00
         -4   -1    0    0    0  501 -0.00000000000E+00  0.00000000000E+00  0.56039976717E+02  0.56054365490E+02  0.12700000000E+01 0.  1.
          4   -1    0    0  501    0  0.00000000000E+00 -0.00000000000E+00 -0.69673979101E+02  0.69685552762E+02  0.12700000000E+01 0.  1.
         25    2    1    2    0    0  0.00000000000E+00  0.00000000000E+00 -0.13634002384E+02  0.12573991825E+03  0.12499856408E+03 0.  0.
    9000005    1    3    3    0    0 -0.69493200329E+01 -0.62043508144E+02 -0.40676053289E+01  0.62571841629E+02  0.10000000000E+01 0.  0.
    9000005    1    3    3    0    0  0.69493200329E+01  0.62043508144E+02 -0.95663970547E+01  0.63168076623E+02  0.10000000000E+01 0.  0.
<mgrwt>
<rscale>  0 0.12499856E+03</rscale>
<asrwt>0</asrwt>
<pdfrwt beam="2">  1        4 0.10721071E-01 0.12499856E+03</pdfrwt>
<pdfrwt beam="1">  1       -4 0.86235320E-02 0.12499856E+03</pdfrwt>
<totfact> 0.10437004E+04</totfact>
</mgrwt>
</event>
<event>
 5    1  0.3251953E-002  0.1250004E+03  0.7818608E-02  0.1235069E+00
         -4   -1    0    0    0  501 -0.00000000000E+00  0.00000000000E+00  0.39062272188E+03  0.39062478640E+03  0.12700000000E+01 0. -1.
          4   -1    0    0  501    0  0.00000000000E+00 -0.00000000000E+00 -0.99577061370E+01  0.10038366974E+02  0.12700000000E+01 0. -1.
         25    2    1    2    0    0  0.00000000000E+00  0.00000000000E+00  0.38066501574E+03  0.40066315337E+03  0.12500043304E+03 0.  0.
    9000005    1    3    3    0    0 -0.12709845742E+02 -0.57831368645E+02  0.25437984188E+03  0.26118214207E+03  0.10000000000E+01 0.  0.
    9000005    1    3    3    0    0  0.12709845742E+02  0.57831368645E+02  0.12628517386E+03  0.13948101130E+03  0.10000000000E+01 0.  0.
<mgrwt>
<rscale>  0 0.12500043E+03</rscale>
<asrwt>0</asrwt>
<pdfrwt beam="2">  1        4 0.15383184E-02 0.12500043E+03</pdfrwt>
<pdfrwt beam="1">  1       -4 0.60102162E-01 0.12500043E+03</pdfrwt>
<totfact> 0.64487727E+03</totfact>
</mgrwt>
</event>
<event>
 5    1  0.3251953E-002  0.1250001E+03  0.7818608E-02  0.1235069E+00
         -4   -1    0    0    0  501 -0.00000000000E+00  0.00000000000E+00  0.36439653928E+02  0.36461778322E+02  0.12700000000E+01 0. -1.
          4   -1    0    0  501    0  0.00000000000E+00 -0.00000000000E+00 -0.10713946498E+03  0.10714699183E+03  0.12700000000E+01 0. -1.
         25    2    1    2    0    0  0.00000000000E+00  0.00000000000E+00 -0.70699811057E+02  0.14360877015E+03  0.12500006232E+03 0.  0.
    9000005    1    3    3    0    0 -0.12393983733E+02 -0.47488181509E+02  0.90939133548E+01  0.49924317481E+02  0.10000000000E+01 0.  0.
    9000005    1    3    3    0    0  0.12393983733E+02  0.47488181509E+02 -0.79793724412E+02  0.93684452666E+02  0.10000000000E+01 0.  0.
<mgrwt>
<rscale>  0 0.12500006E+03</rscale>
<asrwt>0</asrwt>
<pdfrwt beam="2">  1        4 0.16485275E-01 0.12500006E+03</pdfrwt>
<pdfrwt beam="1">  1       -4 0.56083815E-02 0.12500006E+03</pdfrwt>
<totfact> 0.10059318E+04</totfact>
</mgrwt>
</event>
<event>
 5    1  0.3251953E-002  0.1249972E+03  0.7818608E-02  0.1235074E+00
         -4   -1    0    0    0  501 -0.00000000000E+00  0.00000000000E+00  0.27107596151E+02  0.27137329807E+02  0.12700000000E+01 0. -1.
          4   -1    0    0  501    0  0.00000000000E+00 -0.00000000000E+00 -0.14398376100E+03  0.14398936187E+03  0.12700000000E+01 0. -1.
         25    2    1    2    0    0  0.00000000000E+00  0.00000000000E+00 -0.11687616484E+03  0.17112669167E+03  0.12499722675E+03 0.  0.
    9000005    1    3    3    0    0  0.39749698704E+02 -0.65669651820E+01  0.69602880304E+01  0.40897545014E+02  0.10000000000E+01 0.  0.
    9000005    1    3    3    0    0 -0.39749698704E+02  0.65669651820E+01 -0.12383645288E+03  0.13022914666E+03  0.10000000000E+01 0.  0.
<mgrwt>
<rscale>  0 0.12499723E+03</rscale>
<asrwt>0</asrwt>
<pdfrwt beam="2">  1        4 0.22154065E-01 0.12499723E+03</pdfrwt>
<pdfrwt beam="1">  1       -4 0.41731175E-02 0.12499723E+03</pdfrwt>
<totfact> 0.95244981E+03</totfact>
</mgrwt>
</event>
<event>
 5    1  0.3251953E-002  0.1250080E+03  0.7818608E-02  0.1235057E+00
          4   -1    0    0  501    0  0.00000000000E+00  0.00000000000E+00  0.93698091437E+02  0.93706697941E+02  0.12700000000E+01 0. -1.
         -4   -1    0    0    0  501 -0.00000000000E+00 -0.00000000000E+00 -0.41674915898E+02  0.41694262376E+02  0.12700000000E+01 0. -1.
         25    2    1    2    0    0  0.00000000000E+00  0.00000000000E+00  0.52023175540E+02  0.13540096032E+03  0.12500803679E+03 0.  0.
    9000005    1    3    3    0    0  0.37457014564E+01  0.53527666847E+02 -0.86912984404E+01  0.54367086238E+02  0.10000000000E+01 0.  0.
    9000005    1    3    3    0    0 -0.37457014564E+01 -0.53527666847E+02  0.60714473980E+02  0.81033874078E+02  0.10000000000E+01 0.  0.
<mgrwt>
<rscale>  0 0.12500804E+03</rscale>
<asrwt>0</asrwt>
<pdfrwt beam="1">  1        4 0.14417241E-01 0.12500804E+03</pdfrwt>
<pdfrwt beam="2">  1       -4 0.64136758E-02 0.12500804E+03</pdfrwt>
<totfact> 0.10227773E+04</totfact>
</mgrwt>
</event>
<event>
 5    1  0.3251953E-002  0.1249992E+03  0.7818608E-02  0.1235071E+00
         -4   -1    0    0    0  501 -0.00000000000E+00  0.00000000000E+00  0.61031002566E+03  0.61031134704E+03  0.12700000000E+01 0. -1.
          4   -1    0    0  501    0  0.00000000000E+00 -0.00000000000E+00 -0.63360135349E+01  0.64620405070E+01  0.12700000000E+01 0. -1.
         25    2    1    2    0    0  0.00000000000E+00  0.00000000000E+00  0.60397401213E+03  0.61677338754E+03  0.12499921703E+03 0.  0.
    9000005    1    3    3    0    0 -0.45164612596E+02  0.32876163501E+02  0.44019063037E+03  0.44372229539E+03  0.10000000000E+01 0.  0.
    9000005    1    3    3    0    0  0.45164612596E+02 -0.32876163501E+02  0.16378338175E+03  0.17305109215E+03  0.10000000000E+01 0.  0.
<mgrwt>
<rscale>  0 0.12499922E+03</rscale>
<asrwt>0</asrwt>
<pdfrwt beam="2">  1        4 0.98456746E-03 0.12499922E+03</pdfrwt>
<pdfrwt beam="1">  1       -4 0.93903634E-01 0.12499922E+03</pdfrwt>
<totfact> 0.47826484E+03</totfact>
</mgrwt>
</event>
<event>
 5    1  0.3251953E-002  0.1250031E+03  0.7818608E-02  0.1235064E+00
         -4   -1    0    0    0  501 -0.00000000000E+00  0.00000000000E+00  0.16355347846E+03  0.16355840919E+03  0.12700000000E+01 0.  1.
          4   -1    0    0  501    0  0.00000000000E+00 -0.00000000000E+00 -0.23862644372E+02  0.23896415975E+02  0.12700000000E+01 0.  1.
         25    2    1    2    0    0  0.00000000000E+00  0.00000000000E+00  0.13969083409E+03  0.18745482516E+03  0.12500312936E+03 0.  0.
    9000005    1    3    3    0    0 -0.16363440432E+01  0.24839147269E+02  0.15580519635E+03  0.15778441010E+03  0.10000000000E+01 0.  0.
    9000005    1    3    3    0    0  0.16363440432E+01 -0.24839147269E+02 -0.16114362267E+02  0.29670415065E+02  0.10000000000E+01 0.  0.
<mgrwt>
<rscale>  0 0.12500313E+03</rscale>
<asrwt>0</asrwt>
<pdfrwt beam="2">  1        4 0.36741533E-02 0.12500313E+03</pdfrwt>
<pdfrwt beam="1">  1       -4 0.25165050E-01 0.12500313E+03</pdfrwt>
<totfact> 0.92285592E+03</totfact>
</mgrwt>
</event>
<event>
 5    1  0.3251953E-002  0.1250059E+03  0.7818608E-02  0.1235060E+00
         -4   -1    0    0    0  501 -0.00000000000E+00  0.00000000000E+00  0.10041557949E+03  0.10042361029E+03  0.12700000000E+01 0.  1.
          4   -1    0    0  501    0  0.00000000000E+00 -0.00000000000E+00 -0.38884538394E+02  0.38905272472E+02  0.12700000000E+01 0.  1.
         25    2    1    2    0    0  0.00000000000E+00  0.00000000000E+00  0.61531041092E+02  0.13932888276E+03  0.12500587408E+03 0.  0.
    9000005    1    3    3    0    0  0.44584141347E+01  0.10112472612E+02  0.99323232631E+02  0.99941203211E+02  0.10000000000E+01 0.  0.
    9000005    1    3    3    0    0 -0.44584141347E+01 -0.10112472612E+02 -0.37792191539E+02  0.39387679549E+02  0.10000000000E+01 0.  0.
<mgrwt>
<rscale>  0 0.12500587E+03</rscale>
<asrwt>0</asrwt>
<pdfrwt beam="2">  1        4 0.59844495E-02 0.12500587E+03</pdfrwt>
<pdfrwt beam="1">  1       -4 0.15450763E-01 0.12500587E+03</pdfrwt>
<totfact> 0.10146171E+04</totfact>
</mgrwt>
</event>
<event>
 5    1  0.3251953E-002  0.1249977E+03  0.7818608E-02  0.1235073E+00
          4   -1    0    0  501    0  0.00000000000E+00  0.00000000000E+00  0.72789976979E+03  0.72790087770E+03  0.12700000000E+01 0.  1.
         -4   -1    0    0    0  501 -0.00000000000E+00 -0.00000000000E+00 -0.52899993548E+01  0.54403118636E+01  0.12700000000E+01 0.  1.
         25    2    1    2    0    0  0.00000000000E+00  0.00000000000E+00  0.72260977043E+03  0.73334118957E+03  0.12499767992E+03 0.  0.
    9000005    1    3    3    0    0  0.38814332041E+02 -0.27581091828E+02  0.12387284044E+03  0.13271303476E+03  0.10000000000E+01 0.  0.
    9000005    1    3    3    0    0 -0.38814332041E+02  0.27581091828E+02  0.59873693000E+03  0.60062815480E+03  0.10000000000E+01 0.  0.
<mgrwt>
<rscale>  0 0.12499768E+03</rscale>
<asrwt>0</asrwt>
<pdfrwt beam="1">  1        4 0.11199623E+00 0.12499768E+03</pdfrwt>
<pdfrwt beam="2">  1       -4 0.82549374E-03 0.12499768E+03</pdfrwt>
<totfact> 0.41385981E+03</totfact>
</mgrwt>
</event>
<event>
 5    1  0.3251953E-002  0.1249915E+03  0.7818608E-02  0.1235083E+00
          4   -1    0    0  501    0  0.00000000000E+00  0.00000000000E+00  0.33402054771E+03  0.33402296207E+03  0.12700000000E+01 0.  1.
         -4   -1    0    0    0  501 -0.00000000000E+00 -0.00000000000E+00 -0.11656109086E+02  0.11725091856E+02  0.12700000000E+01 0.  1.
         25    2    1    2    0    0  0.00000000000E+00  0.00000000000E+00  0.32236443862E+03  0.34574805393E+03  0.12499154174E+03 0.  0.
    9000005    1    3    3    0    0 -0.48866336266E+02 -0.27577794964E+02  0.23725283282E+03  0.24379983649E+03  0.10000000000E+01 0.  0.
    9000005    1    3    3    0    0  0.48866336266E+02  0.27577794964E+02  0.85111605809E+02  0.10194821744E+03  0.10000000000E+01 0.  0.
<mgrwt>
<rscale>  0 0.12499154E+03</rscale>
<asrwt>0</asrwt>
<pdfrwt beam="1">  1        4 0.51393259E-01 0.12499154E+03</pdfrwt>
<pdfrwt beam="2">  1       -4 0.17987400E-02 0.12499154E+03</pdfrwt>
<totfact> 0.70208018E+03</totfact>
</mgrwt>
</event>
<event>
 5    1  0.3251953E-002  0.1249990E+03  0.7818608E-02  0.1235071E+00
          4   -1    0    0  501    0  0.00000000000E+00  0.00000000000E+00  0.11008317153E+03  0.11009049711E+03  0.12700000000E+01 0.  1.
         -4   -1    0    0    0  501 -0.00000000000E+00 -0.00000000000E+00 -0.35464096666E+02  0.35486829280E+02  0.12700000000E+01 0.  1.
         25    2    1    2    0    0  0.00000000000E+00  0.00000000000E+00  0.74619074861E+02  0.14557732639E+03  0.12499900650E+03 0.  0.
    9000005    1    3    3    0    0 -0.72738391353E+01 -0.33110733529E+01 -0.34872177060E+02  0.35790231564E+02  0.10000000000E+01 0.  0.
    9000005    1    3    3    0    0  0.72738391353E+01  0.33110733529E+01  0.10949125192E+03  0.10978709482E+03  0.10000000000E+01 0.  0.
<mgrwt>
<rscale>  0 0.12499901E+03</rscale>
<asrwt>0</asrwt>
<pdfrwt beam="1">  1        4 0.16938185E-01 0.12499901E+03</pdfrwt>
<pdfrwt beam="2">  1       -4 0.54583270E-02 0.12499901E+03</pdfrwt>
<totfact> 0.10019496E+04</totfact>
</mgrwt>
</event>
<event>
 5    1  0.3251953E-002  0.1250030E+03  0.7818608E-02  0.1235065E+00
          4   -1    0    0  501    0  0.00000000000E+00  0.00000000000E+00  0.40022843061E+02  0.40042987735E+02  0.12700000000E+01 0. -1.
         -4   -1    0    0    0  501 -0.00000000000E+00 -0.00000000000E+00 -0.97556301993E+02  0.97564568151E+02  0.12700000000E+01 0. -1.
         25    2    1    2    0    0  0.00000000000E+00  0.00000000000E+00 -0.57533458932E+02  0.13760755589E+03  0.12500296213E+03 0.  0.
    9000005    1    3    3    0    0 -0.53403173530E+02  0.28441878144E+02 -0.11550167158E+02  0.61605565795E+02  0.10000000000E+01 0.  0.
    9000005    1    3    3    0    0  0.53403173530E+02 -0.28441878144E+02 -0.45983291774E+02  0.76001990091E+02  0.10000000000E+01 0.  0.
<mgrwt>
<rscale>  0 0.12500296E+03</rscale>
<asrwt>0</asrwt>
<pdfrwt beam="1">  1        4 0.61595460E-02 0.12500296E+03</pdfrwt>
<pdfrwt beam="2">  1       -4 0.15010847E-01 0.12500296E+03</pdfrwt>
<totfact> 0.10182718E+04</totfact>
</mgrwt>
</event>
<event>
 5    1  0.3251953E-002  0.1250046E+03  0.7818608E-02  0.1235062E+00
         -4   -1    0    0    0  501 -0.00000000000E+00  0.00000000000E+00  0.26341100912E+02  0.26371698794E+02  0.12700000000E+01 0. -1.
          4   -1    0    0  501    0  0.00000000000E+00 -0.00000000000E+00 -0.14818631260E+03  0.14819175464E+03  0.12700000000E+01 0. -1.
         25    2    1    2    0    0  0.00000000000E+00  0.00000000000E+00 -0.12184521169E+03  0.17456345343E+03  0.12500457457E+03 0.  0.
    9000005    1    3    3    0    0  0.27119484248E+02  0.36836509898E+02 -0.14600994176E+01  0.45776924073E+02  0.10000000000E+01 0.  0.
    9000005    1    3    3    0    0 -0.27119484248E+02 -0.36836509898E+02 -0.12038511227E+03  0.12878652936E+03  0.10000000000E+01 0.  0.
<mgrwt>
<rscale>  0 0.12500457E+03</rscale>
<asrwt>0</asrwt>
<pdfrwt beam="2">  1        4 0.22800666E-01 0.12500457E+03</pdfrwt>
<pdfrwt beam="1">  1       -4 0.40552494E-02 0.12500457E+03</pdfrwt>
<totfact> 0.94595146E+03</totfact>
</mgrwt>
</event>
<event>
 5    1  0.3251953E-002  0.1250026E+03  0.7818608E-02  0.1235065E+00
          4   -1    0    0  501    0  0.00000000000E+00  0.00000000000E+00  0.50439554748E+03  0.50439714632E+03  0.12700000000E+01 0.  1.
         -4   -1    0    0    0  501 -0.00000000000E+00 -0.00000000000E+00 -0.76910569774E+01  0.77952073372E+01  0.12700000000E+01 0.  1.
         25    2    1    2    0    0  0.00000000000E+00  0.00000000000E+00  0.49670449051E+03  0.51219235366E+03  0.12500262502E+03 0.  0.
    9000005    1    3    3    0    0 -0.50963507070E+02 -0.34443016373E+02  0.20312898065E+03  0.21224039015E+03  0.10000000000E+01 0.  0.
    9000005    1    3    3    0    0  0.50963507070E+02  0.34443016373E+02  0.29357550986E+03  0.29995196352E+03  0.10000000000E+01 0.  0.
<mgrwt>
<rscale>  0 0.12500263E+03</rscale>
<asrwt>0</asrwt>
<pdfrwt beam="1">  1        4 0.77607465E-01 0.12500263E+03</pdfrwt>
<pdfrwt beam="2">  1       -4 0.11913738E-02 0.12500263E+03</pdfrwt>
<totfact> 0.54927467E+03</totfact>
</mgrwt>
</event>
<event>
 5    1  0.3251953E-002  0.1250100E+03  0.7818608E-02  0.1235054E+00
          4   -1    0    0  501    0  0.00000000000E+00  0.00000000000E+00  0.18499084334E+02  0.18542627138E+02  0.12700000000E+01 0. -1.
         -4   -1    0    0    0  501 -0.00000000000E+00 -0.00000000000E+00 -0.21089911707E+03  0.21090294090E+03  0.12700000000E+01 0. -1.
         25    2    1    2    0    0  0.00000000000E+00  0.00000000000E+00 -0.19240003274E+03  0.22944556804E+03  0.12500998399E+03 0.  0.
    9000005    1    3    3    0    0 -0.38982730060E+02 -0.83736875214E+01 -0.18453115476E+03  0.18879226404E+03  0.10000000000E+01 0.  0.
    9000005    1    3    3    0    0  0.38982730060E+02  0.83736875214E+01 -0.78688779817E+01  0.40653304002E+02  0.10000000000E+01 0.  0.
<mgrwt>
<rscale>  0 0.12500998E+03</rscale>
<asrwt>0</asrwt>
<pdfrwt beam="1">  1        4 0.28496567E-02 0.12500998E+03</pdfrwt>
<pdfrwt beam="2">  1       -4 0.32449660E-01 0.12500998E+03</pdfrwt>
<totfact> 0.85375783E+03</totfact>
</mgrwt>
</event>
<event>
 5    1  0.3251953E-002  0.1249999E+03  0.7818608E-02  0.1235069E+00
          4   -1    0    0  501    0  0.00000000000E+00  0.00000000000E+00  0.12082021644E+02  0.12148586214E+02  0.12700000000E+01 0. -1.
         -4   -1    0    0    0  501 -0.00000000000E+00 -0.00000000000E+00 -0.32235433449E+03  0.32235683623E+03  0.12700000000E+01 0. -1.
         25    2    1    2    0    0  0.00000000000E+00  0.00000000000E+00 -0.31027231284E+03  0.33450542244E+03  0.12499987810E+03 0.  0.
    9000005    1    3    3    0    0  0.58270282669E+02  0.21995624072E+02 -0.16878374456E+03  0.17991160538E+03  0.10000000000E+01 0.  0.
    9000005    1    3    3    0    0 -0.58270282669E+02 -0.21995624072E+02 -0.14148856828E+03  0.15459381707E+03  0.10000000000E+01 0.  0.
<mgrwt>
<rscale>  0 0.12499988E+03</rscale>
<asrwt>0</asrwt>
<pdfrwt beam="1">  1        4 0.18640856E-02 0.12499988E+03</pdfrwt>
<pdfrwt beam="2">  1       -4 0.49598281E-01 0.12499988E+03</pdfrwt>
<totfact> 0.71463670E+03</totfact>
</mgrwt>
</event>
<event>
 5    1  0.3251953E-002  0.1250010E+03  0.7818608E-02  0.1235068E+00
          4   -1    0    0  501    0  0.00000000000E+00  0.00000000000E+00  0.13551210814E+03  0.13551805913E+03  0.12700000000E+01 0. -1.
         -4   -1    0    0    0  501 -0.00000000000E+00 -0.00000000000E+00 -0.28805708467E+02  0.28833691063E+02  0.12700000000E+01 0. -1.
         25    2    1    2    0    0  0.00000000000E+00  0.00000000000E+00  0.10670639967E+03  0.16435175020E+03  0.12500096825E+03 0.  0.
    9000005    1    3    3    0    0  0.42602978614E+02  0.37991485922E+02  0.19911048403E+02  0.60463349542E+02  0.10000000000E+01 0.  0.
    9000005    1    3    3    0    0 -0.42602978614E+02 -0.37991485922E+02  0.86795351266E+02  0.10388840065E+03  0.10000000000E+01 0.  0.
<mgrwt>
<rscale>  0 0.12500097E+03</rscale>
<asrwt>0</asrwt>
<pdfrwt beam="1">  1        4 0.20850627E-01 0.12500097E+03</pdfrwt>
<pdfrwt beam="2">  1       -4 0.44342577E-02 0.12500097E+03</pdfrwt>
<totfact> 0.96508202E+03</totfact>
</mgrwt>
</event>
<event>
 5    1  0.3251953E-002  0.1250191E+03  0.7818608E-02  0.1235039E+00
         -4   -1    0    0    0  501 -0.00000000000E+00  0.00000000000E+00  0.73023502313E+02  0.73034545183E+02  0.12700000000E+01 0. -1.
          4   -1    0    0  501    0  0.00000000000E+00 -0.00000000000E+00 -0.53486751527E+02  0.53501826968E+02  0.12700000000E+01 0. -1.
         25    2    1    2    0    0  0.00000000000E+00  0.00000000000E+00  0.19536750786E+02  0.12653637215E+03  0.12501907393E+03 0.  0.
    9000005    1    3    3    0    0 -0.59567810352E+02 -0.30667748996E+01 -0.91321212383E+01  0.60350018862E+02  0.10000000000E+01 0.  0.
    9000005    1    3    3    0    0  0.59567810352E+02  0.30667748996E+01  0.28668872024E+02  0.66186353288E+02  0.10000000000E+01 0.  0.
<mgrwt>
<rscale>  0 0.12501907E+03</rscale>
<asrwt>0</asrwt>
<pdfrwt beam="2">  1        4 0.82307401E-02 0.12501907E+03</pdfrwt>
<pdfrwt beam="1">  1       -4 0.11236394E-01 0.12501907E+03</pdfrwt>
<totfact> 0.10414751E+04</totfact>
</mgrwt>
</event>
<event>
 5    1  0.3251953E-002  0.1249974E+03  0.7818608E-02  0.1235073E+00
         -4   -1    0    0    0  501 -0.00000000000E+00  0.00000000000E+00  0.21103390041E+02  0.21141569743E+02  0.12700000000E+01 0.  1.
          4   -1    0    0  501    0  0.00000000000E+00 -0.00000000000E+00 -0.18488537513E+03  0.18488973697E+03  0.12700000000E+01 0.  1.
         25    2    1    2    0    0  0.00000000000E+00  0.00000000000E+00 -0.16378198509E+03  0.20603130672E+03  0.12499744280E+03 0.  0.
    9000005    1    3    3    0    0  0.24523675674E+02 -0.18861519745E+02  0.76022256277E+01  0.31874149873E+02  0.10000000000E+01 0.  0.
    9000005    1    3    3    0    0 -0.24523675674E+02  0.18861519745E+02 -0.17138421072E+03  0.17415715684E+03  0.10000000000E+01 0.  0.
<mgrwt>
<rscale>  0 0.12499744E+03</rscale>
<asrwt>0</asrwt>
<pdfrwt beam="2">  1        4 0.28447175E-01 0.12499744E+03</pdfrwt>
<pdfrwt beam="1">  1       -4 0.32499479E-02 0.12499744E+03</pdfrwt>
<totfact> 0.89133248E+03</totfact>
</mgrwt>
</event>
<event>
 5    1  0.3251953E-002  0.1249983E+03  0.7818608E-02  0.1235072E+00
         -4   -1    0    0    0  501 -0.00000000000E+00  0.00000000000E+00  0.24361593311E+03  0.24361924342E+03  0.12700000000E+01 0. -1.
          4   -1    0    0  501    0  0.00000000000E+00 -0.00000000000E+00 -0.16005452675E+02  0.16055759569E+02  0.12700000000E+01 0. -1.
         25    2    1    2    0    0  0.00000000000E+00  0.00000000000E+00  0.22761048044E+03  0.25967500299E+03  0.12499830549E+03 0.  0.
    9000005    1    3    3    0    0 -0.31568790470E+02  0.41828220598E+02  0.43082447072E+02  0.67847518863E+02  0.10000000000E+01 0.  0.
    9000005    1    3    3    0    0  0.31568790470E+02 -0.41828220598E+02  0.18452803337E+03  0.19182748413E+03  0.10000000000E+01 0.  0.
<mgrwt>
<rscale>  0 0.12499831E+03</rscale>
<asrwt>0</asrwt>
<pdfrwt beam="2">  1        4 0.24665018E-02 0.12499831E+03</pdfrwt>
<pdfrwt beam="1">  1       -4 0.37483498E-01 0.12499831E+03</pdfrwt>
<totfact> 0.80954744E+03</totfact>
</mgrwt>
</event>
<event>
 5    1  0.3251953E-002  0.1249995E+03  0.7818608E-02  0.1235070E+00
         -4   -1    0    0    0  501 -0.00000000000E+00  0.00000000000E+00  0.38401475588E+02  0.38422470344E+02  0.12700000000E+01 0. -1.
          4   -1    0    0  501    0  0.00000000000E+00 -0.00000000000E+00 -0.10166772998E+03  0.10167566188E+03  0.12700000000E+01 0. -1.
         25    2    1    2    0    0  0.00000000000E+00  0.00000000000E+00 -0.63266254390E+02  0.14009813222E+03  0.12499947083E+03 0.  0.
    9000005    1    3    3    0    0  0.25792196936E+02 -0.40848131514E+02  0.12796112322E+02  0.49985475506E+02  0.10000000000E+01 0.  0.
    9000005    1    3    3    0    0 -0.25792196936E+02  0.40848131514E+02 -0.76062366712E+02  0.90112656718E+02  0.10000000000E+01 0.  0.
<mgrwt>
<rscale>  0 0.12499947E+03</rscale>
<asrwt>0</asrwt>
<pdfrwt beam="2">  1        4 0.15643414E-01 0.12499947E+03</pdfrwt>
<pdfrwt beam="1">  1       -4 0.59101445E-02 0.12499947E+03</pdfrwt>
<totfact> 0.10131673E+04</totfact>
</mgrwt>
</event>
<event>
 5    1  0.3251953E-002  0.1250084E+03  0.7818608E-02  0.1235056E+00
          4   -1    0    0  501    0  0.00000000000E+00  0.00000000000E+00  0.30378151823E+03  0.30378417292E+03  0.12700000000E+01 0.  1.
         -4   -1    0    0    0  501 -0.00000000000E+00 -0.00000000000E+00 -0.12826397847E+02  0.12889118733E+02  0.12700000000E+01 0.  1.
         25    2    1    2    0    0  0.00000000000E+00  0.00000000000E+00  0.29095512039E+03  0.31667329166E+03  0.12500836600E+03 0.  0.
    9000005    1    3    3    0    0 -0.39965994351E+02 -0.46501502420E+02  0.11485784665E+03  0.13020366880E+03  0.10000000000E+01 0.  0.
    9000005    1    3    3    0    0  0.39965994351E+02  0.46501502420E+02  0.17609727373E+03  0.18646962286E+03  0.10000000000E+01 0.  0.
<mgrwt>
<rscale>  0 0.12500837E+03</rscale>
<asrwt>0</asrwt>
<pdfrwt beam="1">  1        4 0.46740645E-01 0.12500837E+03</pdfrwt>
<pdfrwt beam="2">  1       -4 0.19783210E-02 0.12500837E+03</pdfrwt>
<totfact> 0.73539906E+03</totfact>
</mgrwt>
</event>
<event>
 5    1  0.3251953E-002  0.1249954E+03  0.7818608E-02  0.1235077E+00
         -4   -1    0    0    0  501 -0.00000000000E+00  0.00000000000E+00  0.23636136836E+03  0.23636478027E+03  0.12700000000E+01 0. -1.
          4   -1    0    0  501    0  0.00000000000E+00 -0.00000000000E+00 -0.16497437957E+02  0.16546249096E+02  0.12700000000E+01 0. -1.
         25    2    1    2    0    0  0.00000000000E+00  0.00000000000E+00  0.21986393040E+03  0.25291102937E+03  0.12499536345E+03 0.  0.
    9000005    1    3    3    0    0  0.22025440058E+02  0.34793676103E+02  0.14828718080E+02  0.43779113586E+02  0.10000000000E+01 0.  0.
    9000005    1    3    3    0    0 -0.22025440058E+02 -0.34793676103E+02  0.20503521232E+03  0.20913191578E+03  0.10000000000E+01 0.  0.
<mgrwt>
<rscale>  0 0.12499536E+03</rscale>
<asrwt>0</asrwt>
<pdfrwt beam="2">  1        4 0.25420849E-02 0.12499536E+03</pdfrwt>
<pdfrwt beam="1">  1       -4 0.36367299E-01 0.12499536E+03</pdfrwt>
<totfact> 0.81919769E+03</totfact>
</mgrwt>
</event>
<event>
 5    1  0.3251953E-002  0.1250014E+03  0.7818608E-02  0.1235067E+00
         -4   -1    0    0    0  501 -0.00000000000E+00  0.00000000000E+00  0.95105612110E+02  0.95114091253E+02  0.12700000000E+01 0.  1.
          4   -1    0    0  501    0  0.00000000000E+00 -0.00000000000E+00 -0.41053563454E+02  0.41073202606E+02  0.12700000000E+01 0.  1.
         25    2    1    2    0    0  0.00000000000E+00  0.00000000000E+00  0.54052048656E+02  0.13618729386E+03  0.12500142017E+03 0.  0.
    9000005    1    3    3    0    0  0.61244263520E+02  0.17213555711E+01  0.40436701937E+02  0.73416277096E+02  0.10000000000E+01 0.  0.
    9000005    1    3    3    0    0 -0.61244263520E+02 -0.17213555711E+01  0.13615346719E+02  0.62771016763E+02  0.10000000000E+01 0.  0.
<mgrwt>
<rscale>  0 0.12500142E+03</rscale>
<asrwt>0</asrwt>
<pdfrwt beam="2">  1        4 0.63180958E-02 0.12500142E+03</pdfrwt>
<pdfrwt beam="1">  1       -4 0.14633795E-01 0.12500142E+03</pdfrwt>
<totfact> 0.10212779E+04</totfact>
</mgrwt>
</event>
<event>
 5    1  0.3251953E-002  0.1250050E+03  0.7818608E-02  0.1235061E+00
          4   -1    0    0  501    0  0.00000000000E+00  0.00000000000E+00  0.13011582700E+02  0.13073415175E+02  0.12700000000E+01 0.  1.
         -4   -1    0    0    0  501 -0.00000000000E+00 -0.00000000000E+00 -0.29946251349E+03  0.29946520647E+03  0.12700000000E+01 0.  1.
         25    2    1    2    0    0  0.00000000000E+00  0.00000000000E+00 -0.28645093080E+03  0.31253862165E+03  0.12500501698E+03 0.  0.
    9000005    1    3    3    0    0 -0.40455165923E+02 -0.28386002807E+02 -0.23886221883E+03  0.24392323626E+03  0.10000000000E+01 0.  0.
    9000005    1    3    3    0    0  0.40455165923E+02  0.28386002807E+02 -0.47588711968E+02  0.68615385388E+02  0.10000000000E+01 0.  0.
<mgrwt>
<rscale>  0 0.12500502E+03</rscale>
<asrwt>0</asrwt>
<pdfrwt beam="1">  1        4 0.20067457E-02 0.12500502E+03</pdfrwt>
<pdfrwt beam="2">  1       -4 0.46076114E-01 0.12500502E+03</pdfrwt>
<totfact> 0.74044198E+03</totfact>
</mgrwt>
</event>
<event>
 4    1  0.3251953E-002  0.1250617E+03  0.7818608E-02  0.1234973E+00
          4   -1    0    0  501    0  0.00000000000E+00  0.00000000000E+00  0.14387909719E+03  0.14388470213E+03  0.12700000000E+01 0. -1.
         -4   -1    0    0    0  501 -0.00000000000E+00 -0.00000000000E+00 -0.27155357247E+02  0.27185038665E+02  0.12700000000E+01 0. -1.
    9000005    1    1    2    0    0 -0.52594286819E+01  0.16956382475E+02  0.14036557455E+03  0.14148736698E+03  0.10000000000E+01 0.  0.
    9000005    1    1    2    0    0  0.52594286819E+01 -0.16956382475E+02 -0.23641834610E+02  0.29582373814E+02  0.10000000000E+01 0.  0.
<mgrwt>
<rscale>  0 0.12506168E+03</rscale>
<asrwt>0</asrwt>
<pdfrwt beam="1">  1        4 0.22137961E-01 0.12506168E+03</pdfrwt>
<pdfrwt beam="2">  1       -4 0.41804615E-02 0.12506168E+03</pdfrwt>
<totfact> 0.95117888E+03</totfact>
</mgrwt>
</event>
<event>
 4    1  0.3251953E-002  0.1251743E+03  0.7818608E-02  0.1234797E+00
         -4   -1    0    0    0  501 -0.00000000000E+00  0.00000000000E+00  0.32169820894E+03  0.32170071578E+03  0.12700000000E+01 0. -1.
          4   -1    0    0  501    0  0.00000000000E+00 -0.00000000000E+00 -0.12140811500E+02  0.12207055496E+02  0.12700000000E+01 0. -1.
    9000005    1    1    2    0    0  0.76492844660E+01 -0.34723987762E+02  0.17409699383E+02  0.39602582132E+02  0.10000000000E+01 0.  0.
    9000005    1    1    2    0    0 -0.76492844660E+01  0.34723987762E+02  0.29214769806E+03  0.29430518915E+03  0.10000000000E+01 0.  0.
<mgrwt>
<rscale>  0 0.12517435E+03</rscale>
<asrwt>0</asrwt>
<pdfrwt beam="2">  1        4 0.18731058E-02 0.12517435E+03</pdfrwt>
<pdfrwt beam="1">  1       -4 0.49497318E-01 0.12517435E+03</pdfrwt>
<totfact> 0.71256416E+03</totfact>
</mgrwt>
</event>
<event>
 5    1  0.3251953E-002  0.1249901E+03  0.7818608E-02  0.1235085E+00
          4   -1    0    0  501    0  0.00000000000E+00  0.00000000000E+00  0.37702441180E+03  0.37702655078E+03  0.12700000000E+01 0.  1.
         -4   -1    0    0    0  501 -0.00000000000E+00 -0.00000000000E+00 -0.10317989633E+02  0.10395855427E+02  0.12700000000E+01 0.  1.
         25    2    1    2    0    0  0.00000000000E+00  0.00000000000E+00  0.36670642217E+03  0.38742240621E+03  0.12499008270E+03 0.  0.
    9000005    1    3    3    0    0 -0.72349633805E+01  0.24775831873E+02  0.35974458835E+03  0.36067070215E+03  0.10000000000E+01 0.  0.
    9000005    1    3    3    0    0  0.72349633805E+01 -0.24775831873E+02  0.69618338190E+01  0.26751704062E+02  0.10000000000E+01 0.  0.
<mgrwt>
<rscale>  0 0.12499008E+03</rscale>
<asrwt>0</asrwt>
<pdfrwt beam="1">  1        4 0.58009900E-01 0.12499008E+03</pdfrwt>
<pdfrwt beam="2">  1       -4 0.15935375E-02 0.12499008E+03</pdfrwt>
<totfact> 0.65809153E+03</totfact>
</mgrwt>
</event>
<event>
 5    1  0.3251953E-002  0.1249926E+03  0.7818608E-02  0.1235081E+00
          4   -1    0    0  501    0  0.00000000000E+00  0.00000000000E+00  0.11769263068E+03  0.11769948265E+03  0.12700000000E+01 0.  1.
         -4   -1    0    0    0  501 -0.00000000000E+00 -0.00000000000E+00 -0.33166354111E+02  0.33190660509E+02  0.12700000000E+01 0.  1.
         25    2    1    2    0    0  0.00000000000E+00  0.00000000000E+00  0.84526276564E+02  0.15089014316E+03  0.12499257527E+03 0.  0.
    9000005    1    3    3    0    0  0.47199032482E+02  0.35753611512E+02  0.66368230306E+02  0.88948363658E+02  0.10000000000E+01 0.  0.
    9000005    1    3    3    0    0 -0.47199032482E+02 -0.35753611512E+02  0.18158046258E+02  0.61941779498E+02  0.10000000000E+01 0.  0.
<mgrwt>
<rscale>  0 0.12499258E+03</rscale>
<asrwt>0</asrwt>
<pdfrwt beam="1">  1        4 0.18108956E-01 0.12499258E+03</pdfrwt>
<pdfrwt beam="2">  1       -4 0.51049127E-02 0.12499258E+03</pdfrwt>
<totfact> 0.99143120E+03</totfact>
</mgrwt>
</event>
<event>
 5    1  0.3251953E-002  0.1250005E+03  0.7818608E-02  0.1235068E+00
          4   -1    0    0  501    0  0.00000000000E+00  0.00000000000E+00  0.71857128320E+03  0.71857240550E+03  0.12700000000E+01 0. -1.
         -4   -1    0    0    0  501 -0.00000000000E+00 -0.00000000000E+00 -0.53608630560E+01  0.55092424802E+01  0.12700000000E+01 0. -1.
         25    2    1    2    0    0  0.00000000000E+00  0.00000000000E+00  0.71321042015E+03  0.72408164798E+03  0.12500051813E+03 0.  0.
    9000005    1    3    3    0    0 -0.25020505561E+02  0.42980073101E+02  0.13740413134E+03  0.14613078968E+03  0.10000000000E+01 0.  0.
    9000005    1    3    3    0    0  0.25020505561E+02 -0.42980073101E+02  0.57580628880E+03  0.57795085830E+03  0.10000000000E+01 0.  0.
<mgrwt>
<rscale>  0 0.12500052E+03</rscale>
<asrwt>0</asrwt>
<pdfrwt beam="1">  1        4 0.11056100E+00 0.12500052E+03</pdfrwt>
<pdfrwt beam="2">  1       -4 0.83624777E-03 0.12500052E+03</pdfrwt>
<totfact> 0.41845027E+03</totfact>
</mgrwt>
</event>
<event>
 5    1  0.3251953E-002  0.1250075E+03  0.7818608E-02  0.1235058E+00
          4   -1    0    0  501    0  0.00000000000E+00  0.00000000000E+00  0.17056825097E+04  0.17056829825E+04  0.12700000000E+01 0.  1.
         -4   -1    0    0    0  501 -0.00000000000E+00 -0.00000000000E+00 -0.21138561647E+01  0.24660267405E+01  0.12700000000E+01 0.  1.
         25    2    1    2    0    0  0.00000000000E+00  0.00000000000E+00  0.17035686535E+04  0.17081490092E+04  0.12500752164E+03 0.  0.
    9000005    1    3    3    0    0 -0.34122600098E+02  0.33305603750E+02  0.29975307985E+03  0.30352351467E+03  0.10000000000E+01 0.  0.
    9000005    1    3    3    0    0  0.34122600098E+02 -0.33305603750E+02  0.14038155737E+04  0.14046254945E+04  0.10000000000E+01 0.  0.
<mgrwt>
<rscale>  0 0.12500752E+03</rscale>
<asrwt>0</asrwt>
<pdfrwt beam="1">  1        4 0.26243948E+00 0.12500752E+03</pdfrwt>
<pdfrwt beam="2">  1       -4 0.35233551E-03 0.12500752E+03</pdfrwt>
<totfact> 0.14170109E+03</totfact>
</mgrwt>
</event>
<event>
 5    1  0.3251953E-002  0.1249980E+03  0.7818608E-02  0.1235072E+00
         -4   -1    0    0    0  501 -0.00000000000E+00  0.00000000000E+00  0.13683986877E+01  0.18669266104E+01  0.12700000000E+01 0.  1.
          4   -1    0    0  501    0  0.00000000000E+00 -0.00000000000E+00 -0.24141724296E+04  0.24141727636E+04  0.12700000000E+01 0.  1.
         25    2    1    2    0    0  0.00000000000E+00  0.00000000000E+00 -0.24128040309E+04  0.24160396902E+04  0.12499797325E+03 0.  0.
    9000005    1    3    3    0    0 -0.43843147723E+02  0.44294198791E+02 -0.12948200568E+04  0.12963194734E+04  0.10000000000E+01 0.  0.
    9000005    1    3    3    0    0  0.43843147723E+02 -0.44294198791E+02 -0.11179839740E+04  0.11197202168E+04  0.10000000000E+01 0.  0.
<mgrwt>
<rscale>  0 0.12499797E+03</rscale>
<asrwt>0</asrwt>
<pdfrwt beam="2">  1        4 0.37144663E+00 0.12499797E+03</pdfrwt>
<pdfrwt beam="1">  1       -4 0.24889881E-03 0.12499797E+03</pdfrwt>
<totfact> 0.53633595E+02</totfact>
</mgrwt>
</event>
<event>
 5    1  0.3251953E-002  0.1250017E+03  0.7818608E-02  0.1235067E+00
         -4   -1    0    0    0  501 -0.00000000000E+00  0.00000000000E+00  0.26690961163E+03  0.26691263305E+03  0.12700000000E+01 0.  1.
          4   -1    0    0  501    0  0.00000000000E+00 -0.00000000000E+00 -0.14604840437E+02  0.14659954441E+02  0.12700000000E+01 0.  1.
         25    2    1    2    0    0  0.00000000000E+00  0.00000000000E+00  0.25230477119E+03  0.28157258749E+03  0.12500169782E+03 0.  0.
    9000005    1    3    3    0    0  0.48930712328E+02  0.34115264095E+02  0.84174480392E+02  0.10317174518E+03  0.10000000000E+01 0.  0.
    9000005    1    3    3    0    0 -0.48930712328E+02 -0.34115264095E+02  0.16813029080E+03  0.17840084231E+03  0.10000000000E+01 0.  0.
<mgrwt>
<rscale>  0 0.12500170E+03</rscale>
<asrwt>0</asrwt>
<pdfrwt beam="2">  1        4 0.22513704E-02 0.12500170E+03</pdfrwt>
<pdfrwt beam="1">  1       -4 0.41067490E-01 0.12500170E+03</pdfrwt>
<totfact> 0.77967108E+03</totfact>
</mgrwt>
</event>
<event>
 5    1  0.3251953E-002  0.1249951E+03  0.7818608E-02  0.1235077E+00
          4   -1    0    0  501    0  0.00000000000E+00  0.00000000000E+00  0.13006938166E+03  0.13007558167E+03  0.12700000000E+01 0. -1.
         -4   -1    0    0    0  501 -0.00000000000E+00 -0.00000000000E+00 -0.30009371216E+02  0.30036232467E+02  0.12700000000E+01 0. -1.
         25    2    1    2    0    0  0.00000000000E+00  0.00000000000E+00  0.10006001045E+03  0.16011181414E+03  0.12499514925E+03 0.  0.
    9000005    1    3    3    0    0 -0.19691950239E+02 -0.56393940717E+02  0.26518575698E+02  0.65362713460E+02  0.10000000000E+01 0.  0.
    9000005    1    3    3    0    0  0.19691950239E+02  0.56393940717E+02  0.73541434751E+02  0.94749100676E+02  0.10000000000E+01 0.  0.
<mgrwt>
<rscale>  0 0.12499515E+03</rscale>
<asrwt>0</asrwt>
<pdfrwt beam="1">  1        4 0.20013217E-01 0.12499515E+03</pdfrwt>
<pdfrwt beam="2">  1       -4 0.46193696E-02 0.12499515E+03</pdfrwt>
<totfact> 0.97331844E+03</totfact>
</mgrwt>
</event>
<event>
 5    1  0.3251953E-002  0.1249990E+03  0.7818608E-02  0.1235071E+00
         -4   -1    0    0    0  501 -0.00000000000E+00  0.00000000000E+00  0.72082886637E+01  0.73193118160E+01  0.12700000000E+01 0.  1.
          4   -1    0    0  501    0  0.00000000000E+00 -0.00000000000E+00 -0.53764939525E+03  0.53765089520E+03  0.12700000000E+01 0.  1.
         25    2    1    2    0    0  0.00000000000E+00  0.00000000000E+00 -0.53044110658E+03  0.54497020702E+03  0.12499903592E+03 0.  0.
    9000005    1    3    3    0    0 -0.56042807145E+02  0.40821918792E+01 -0.14600352997E+03  0.15644644863E+03  0.10000000000E+01 0.  0.
    9000005    1    3    3    0    0  0.56042807145E+02 -0.40821918792E+01 -0.38443757661E+03  0.38852375839E+03  0.10000000000E+01 0.  0.
<mgrwt>
<rscale>  0 0.12499904E+03</rscale>
<asrwt>0</asrwt>
<pdfrwt beam="2">  1        4 0.82723916E-01 0.12499904E+03</pdfrwt>
<pdfrwt beam="1">  1       -4 0.11176235E-02 0.12499904E+03</pdfrwt>
<totfact> 0.52537721E+03</totfact>
</mgrwt>
</event>
<event>
 5    1  0.3251953E-002  0.1249598E+03  0.7818608E-02  0.1235132E+00
         -4   -1    0    0    0  501 -0.00000000000E+00  0.00000000000E+00  0.22979332182E+02  0.23014400003E+02  0.12700000000E+01 0. -1.
          4   -1    0    0  501    0  0.00000000000E+00 -0.00000000000E+00 -0.16971328629E+03  0.16971803806E+03  0.12700000000E+01 0. -1.
         25    2    1    2    0    0  0.00000000000E+00  0.00000000000E+00 -0.14673395411E+03  0.19273243806E+03  0.12495975110E+03 0.  0.
    9000005    1    3    3    0    0  0.32735783980E+02 -0.18652049057E+02  0.34913443156E+01  0.37851287586E+02  0.10000000000E+01 0.  0.
    9000005    1    3    3    0    0 -0.32735783980E+02  0.18652049057E+02 -0.15022529842E+03  0.15488115048E+03  0.10000000000E+01 0.  0.
<mgrwt>
<rscale>  0 0.12495975E+03</rscale>
<asrwt>0</asrwt>
<pdfrwt beam="2">  1        4 0.26112799E-01 0.12495975E+03</pdfrwt>
<pdfrwt beam="1">  1       -4 0.35383450E-02 0.12495975E+03</pdfrwt>
<totfact> 0.91456449E+03</totfact>
</mgrwt>
</event>
<event>
 5    1  0.3251953E-002  0.1249996E+03  0.7818608E-02  0.1235070E+00
          4   -1    0    0  501    0  0.00000000000E+00  0.00000000000E+00  0.36735181286E+03  0.36735400816E+03  0.12700000000E+01 0.  1.
         -4   -1    0    0    0  501 -0.00000000000E+00 -0.00000000000E+00 -0.10593310773E+02  0.10669167406E+02  0.12700000000E+01 0.  1.
         25    2    1    2    0    0  0.00000000000E+00  0.00000000000E+00  0.35675850209E+03  0.37802317557E+03  0.12499956981E+03 0.  0.
    9000005    1    3    3    0    0 -0.54053672635E+02 -0.11343289012E+02  0.89963361292E+02  0.10556929528E+03  0.10000000000E+01 0.  0.
    9000005    1    3    3    0    0  0.54053672635E+02  0.11343289012E+02  0.26679514080E+03  0.27245388029E+03  0.10000000000E+01 0.  0.
<mgrwt>
<rscale>  0 0.12499957E+03</rscale>
<asrwt>0</asrwt>
<pdfrwt beam="1">  1        4 0.56521667E-01 0.12499957E+03</pdfrwt>
<pdfrwt beam="2">  1       -4 0.16357441E-02 0.12499957E+03</pdfrwt>
<totfact> 0.66748466E+03</totfact>
</mgrwt>
</event>
<event>
 5    1  0.3251953E-002  0.1249986E+03  0.7818608E-02  0.1235072E+00
          4   -1    0    0  501    0  0.00000000000E+00  0.00000000000E+00  0.19071843958E+02  0.19114082032E+02  0.12700000000E+01 0. -1.
         -4   -1    0    0    0  501 -0.00000000000E+00 -0.00000000000E+00 -0.20454218356E+03  0.20454612623E+03  0.12700000000E+01 0. -1.
         25    2    1    2    0    0  0.00000000000E+00  0.00000000000E+00 -0.18547033960E+03  0.22366020826E+03  0.12499856754E+03 0.  0.
    9000005    1    3    3    0    0  0.25485105868E+02 -0.47785625420E+02 -0.36944399462E+02  0.65565579914E+02  0.10000000000E+01 0.  0.
    9000005    1    3    3    0    0 -0.25485105868E+02  0.47785625420E+02 -0.14852594014E+03  0.15809462835E+03  0.10000000000E+01 0.  0.
<mgrwt>
<rscale>  0 0.12499857E+03</rscale>
<asrwt>0</asrwt>
<pdfrwt beam="1">  1        4 0.29376823E-02 0.12499857E+03</pdfrwt>
<pdfrwt beam="2">  1       -4 0.31471579E-01 0.12499857E+03</pdfrwt>
<totfact> 0.86295224E+03</totfact>
</mgrwt>
</event>
<event>
 5    1  0.3251953E-002  0.1250018E+03  0.7818608E-02  0.1235067E+00
         -4   -1    0    0    0  501 -0.00000000000E+00  0.00000000000E+00  0.55996598169E+03  0.55996742186E+03  0.12700000000E+01 0. -1.
          4   -1    0    0  501    0  0.00000000000E+00 -0.00000000000E+00 -0.69168042750E+01  0.70324306878E+01  0.12700000000E+01 0. -1.
         25    2    1    2    0    0  0.00000000000E+00  0.00000000000E+00  0.55304917741E+03  0.56699985255E+03  0.12500176061E+03 0.  0.
    9000005    1    3    3    0    0  0.15278148556E+02  0.60218765903E+02  0.24588152017E+03  0.25361081118E+03  0.10000000000E+01 0.  0.
    9000005    1    3    3    0    0 -0.15278148556E+02 -0.60218765903E+02  0.30716765725E+03  0.31338904137E+03  0.10000000000E+01 0.  0.
<mgrwt>
<rscale>  0 0.12500176E+03</rscale>
<asrwt>0</asrwt>
<pdfrwt beam="2">  1        4 0.10731284E-02 0.12500176E+03</pdfrwt>
<pdfrwt beam="1">  1       -4 0.86157655E-01 0.12500176E+03</pdfrwt>
<totfact> 0.51017221E+03</totfact>
</mgrwt>
</event>
<event>
 5    1  0.3251953E-002  0.1250044E+03  0.7818608E-02  0.1235062E+00
          4   -1    0    0  501    0  0.00000000000E+00  0.00000000000E+00  0.90850716674E+02  0.90859592891E+02  0.12700000000E+01 0.  1.
         -4   -1    0    0    0  501 -0.00000000000E+00 -0.00000000000E+00 -0.42979051920E+02  0.42997811618E+02  0.12700000000E+01 0.  1.
         25    2    1    2    0    0  0.00000000000E+00  0.00000000000E+00  0.47871664755E+02  0.13385740451E+03  0.12500443374E+03 0.  0.
    9000005    1    3    3    0    0  0.19563782004E+02 -0.56620388512E+02  0.48728935142E+01  0.60111189082E+02  0.10000000000E+01 0.  0.
    9000005    1    3    3    0    0 -0.19563782004E+02  0.56620388512E+02  0.42998771240E+02  0.73746215427E+02  0.10000000000E+01 0.  0.
<mgrwt>
<rscale>  0 0.12500443E+03</rscale>
<asrwt>0</asrwt>
<pdfrwt beam="1">  1        4 0.13979159E-01 0.12500443E+03</pdfrwt>
<pdfrwt beam="2">  1       -4 0.66142877E-02 0.12500443E+03</pdfrwt>
<totfact> 0.10261184E+04</totfact>
</mgrwt>
</event>
<event>
 5    1  0.3251953E-002  0.1249937E+03  0.7818608E-02  0.1235079E+00
         -4   -1    0    0    0  501 -0.00000000000E+00  0.00000000000E+00  0.10111805730E+03  0.10112603231E+03  0.12700000000E+01 0. -1.
          4   -1    0    0  501    0  0.00000000000E+00 -0.00000000000E+00 -0.38606762543E+02  0.38627645723E+02  0.12700000000E+01 0. -1.
         25    2    1    2    0    0  0.00000000000E+00  0.00000000000E+00  0.62511294752E+02  0.13975367803E+03  0.12499371405E+03 0.  0.
    9000005    1    3    3    0    0 -0.21618989448E+02  0.61992407392E+01  0.96441535194E+02  0.99034241559E+02  0.10000000000E+01 0.  0.
    9000005    1    3    3    0    0  0.21618989448E+02 -0.61992407392E+01 -0.33930240442E+02  0.40719436476E+02  0.10000000000E+01 0.  0.
<mgrwt>
<rscale>  0 0.12499371E+03</rscale>
<asrwt>0</asrwt>
<pdfrwt beam="2">  1        4 0.59417219E-02 0.12499371E+03</pdfrwt>
<pdfrwt beam="1">  1       -4 0.15558844E-01 0.12499371E+03</pdfrwt>
<totfact> 0.10140129E+04</totfact>
</mgrwt>
</event>
<event>
 5    1  0.3251953E-002  0.1250105E+03  0.7818608E-02  0.1235053E+00
          4   -1    0    0  501    0  0.00000000000E+00  0.00000000000E+00  0.38073868431E+03  0.38074080243E+03  0.12700000000E+01 0.  1.
         -4   -1    0    0    0  501 -0.00000000000E+00 -0.00000000000E+00 -0.10219935388E+02  0.10298542583E+02  0.12700000000E+01 0.  1.
         25    2    1    2    0    0  0.00000000000E+00  0.00000000000E+00  0.37051874892E+03  0.39103934501E+03  0.12501050372E+03 0.  0.
    9000005    1    3    3    0    0  0.23021413221E+02  0.48344127929E+02  0.28607616911E+03  0.29104589794E+03  0.10000000000E+01 0.  0.
    9000005    1    3    3    0    0 -0.23021413221E+02 -0.48344127929E+02  0.84442579812E+02  0.99993447071E+02  0.10000000000E+01 0.  0.
<mgrwt>
<rscale>  0 0.12501050E+03</rscale>
<asrwt>0</asrwt>
<pdfrwt beam="1">  1        4 0.58581399E-01 0.12501050E+03</pdfrwt>
<pdfrwt beam="2">  1       -4 0.15785072E-02 0.12501050E+03</pdfrwt>
<totfact> 0.65418539E+03</totfact>
</mgrwt>
</event>
<event>
 5    1  0.3251953E-002  0.1249987E+03  0.7818608E-02  0.1235071E+00
          4   -1    0    0  501    0  0.00000000000E+00  0.00000000000E+00  0.15400856311E+03  0.15401379942E+03  0.12700000000E+01 0.  1.
         -4   -1    0    0    0  501 -0.00000000000E+00 -0.00000000000E+00 -0.25341761609E+02  0.25373564618E+02  0.12700000000E+01 0.  1.
         25    2    1    2    0    0  0.00000000000E+00  0.00000000000E+00  0.12866680150E+03  0.17938736403E+03  0.12499872226E+03 0.  0.
    9000005    1    3    3    0    0  0.21221076353E+02 -0.58458340850E+02  0.73116770152E+02  0.95993613194E+02  0.10000000000E+01 0.  0.
    9000005    1    3    3    0    0 -0.21221076353E+02  0.58458340850E+02  0.55550031346E+02  0.83393750839E+02  0.10000000000E+01 0.  0.
<mgrwt>
<rscale>  0 0.12499872E+03</rscale>
<asrwt>0</asrwt>
<pdfrwt beam="1">  1        4 0.23696474E-01 0.12499872E+03</pdfrwt>
<pdfrwt beam="2">  1       -4 0.39015818E-02 0.12499872E+03</pdfrwt>
<totfact> 0.93730081E+03</totfact>
</mgrwt>
</event>
<event>
 5    1  0.3251953E-002  0.1249991E+03  0.7818608E-02  0.1235071E+00
          4   -1    0    0  501    0  0.00000000000E+00  0.00000000000E+00  0.75577278720E+03  0.75577385425E+03  0.12700000000E+01 0.  1.
         -4   -1    0    0    0  501 -0.00000000000E+00 -0.00000000000E+00 -0.50893699868E+01  0.52454348592E+01  0.12700000000E+01 0.  1.
         25    2    1    2    0    0  0.00000000000E+00  0.00000000000E+00  0.75068341721E+03  0.76101928911E+03  0.12499906208E+03 0.  0.
    9000005    1    3    3    0    0  0.33749686455E+02  0.36887818373E+02  0.60358335708E+03  0.60565140256E+03  0.10000000000E+01 0.  0.
    9000005    1    3    3    0    0 -0.33749686455E+02 -0.36887818373E+02  0.14710006013E+03  0.15536788655E+03  0.10000000000E+01 0.  0.
<mgrwt>
<rscale>  0 0.12499906E+03</rscale>
<asrwt>0</asrwt>
<pdfrwt beam="1">  1        4 0.11628472E+00 0.12499906E+03</pdfrwt>
<pdfrwt beam="2">  1       -4 0.79506781E-03 0.12499906E+03</pdfrwt>
<totfact> 0.40053404E+03</totfact>
</mgrwt>
</event>
<event>
 5    1  0.3251953E-002  0.1249995E+03  0.7818608E-02  0.1235070E+00
         -4   -1    0    0    0  501 -0.00000000000E+00  0.00000000000E+00  0.60045785105E+02  0.60059214188E+02  0.12700000000E+01 0. -1.
          4   -1    0    0  501    0  0.00000000000E+00 -0.00000000000E+00 -0.65027134032E+02  0.65039534595E+02  0.12700000000E+01 0. -1.
         25    2    1    2    0    0  0.00000000000E+00  0.00000000000E+00 -0.49813489265E+01  0.12509874878E+03  0.12499953244E+03 0.  0.
    9000005    1    3    3    0    0  0.31703694563E+02 -0.50693664572E+02 -0.20677850392E+02  0.63273575634E+02  0.10000000000E+01 0.  0.
    9000005    1    3    3    0    0 -0.31703694563E+02  0.50693664572E+02  0.15696501465E+02  0.61825173149E+02  0.10000000000E+01 0.  0.
<mgrwt>
<rscale>  0 0.12499953E+03</rscale>
<asrwt>0</asrwt>
<pdfrwt beam="2">  1        4 0.10006161E-01 0.12499953E+03</pdfrwt>
<pdfrwt beam="1">  1       -4 0.92398000E-02 0.12499953E+03</pdfrwt>
<totfact> 0.10450829E+04</totfact>
</mgrwt>
</event>
<event>
 5    1  0.3251953E-002  0.1249989E+03  0.7818608E-02  0.1235071E+00
          4   -1    0    0  501    0  0.00000000000E+00  0.00000000000E+00  0.42726669836E+03  0.42726858581E+03  0.12700000000E+01 0. -1.
         -4   -1    0    0    0  501 -0.00000000000E+00 -0.00000000000E+00 -0.90962385718E+01  0.91844682021E+01  0.12700000000E+01 0. -1.
         25    2    1    2    0    0  0.00000000000E+00  0.00000000000E+00  0.41817045978E+03  0.43645305402E+03  0.12499893969E+03 0.  0.
    9000005    1    3    3    0    0  0.27270573767E+02 -0.45849296363E+02  0.32272993687E+03  0.32711076766E+03  0.10000000000E+01 0.  0.
    9000005    1    3    3    0    0 -0.27270573767E+02  0.45849296363E+02  0.95440522919E+02  0.10934228636E+03  0.10000000000E+01 0.  0.
<mgrwt>
<rscale>  0 0.12499894E+03</rscale>
<asrwt>0</asrwt>
<pdfrwt beam="1">  1        4 0.65740270E-01 0.12499894E+03</pdfrwt>
<pdfrwt beam="2">  1       -4 0.14063534E-02 0.12499894E+03</pdfrwt>
<totfact> 0.61156814E+03</totfact>
</mgrwt>
</event>
<event>
 5    1  0.3251953E-002  0.1249987E+03  0.7818608E-02  0.1235071E+00
         -4   -1    0    0    0  501 -0.00000000000E+00  0.00000000000E+00  0.30404400872E+03  0.30404666112E+03  0.12700000000E+01 0. -1.
          4   -1    0    0  501    0  0.00000000000E+00 -0.00000000000E+00 -0.12813274722E+02  0.12876059534E+02  0.12700000000E+01 0. -1.
         25    2    1    2    0    0  0.00000000000E+00  0.00000000000E+00  0.29123073400E+03  0.31692272065E+03  0.12499868176E+03 0.  0.
    9000005    1    3    3    0    0 -0.30253675903E+02  0.49979331250E+01  0.28367070843E+03  0.28532496396E+03  0.10000000000E+01 0.  0.
    9000005    1    3    3    0    0  0.30253675903E+02 -0.49979331250E+01  0.75600255678E+01  0.31597756688E+02  0.10000000000E+01 0.  0.
<mgrwt>
<rscale>  0 0.12499868E+03</rscale>
<asrwt>0</asrwt>
<pdfrwt beam="2">  1        4 0.19763068E-02 0.12499868E+03</pdfrwt>
<pdfrwt beam="1">  1       -4 0.46781031E-01 0.12499868E+03</pdfrwt>
<totfact> 0.73525778E+03</totfact>
</mgrwt>
</event>
<event>
 5    1  0.3251953E-002  0.1249997E+03  0.7818608E-02  0.1235070E+00
         -4   -1    0    0    0  501 -0.00000000000E+00  0.00000000000E+00  0.10648177449E+02  0.10723645975E+02  0.12700000000E+01 0. -1.
          4   -1    0    0  501    0  0.00000000000E+00 -0.00000000000E+00 -0.36547291399E+03  0.36547512058E+03  0.12700000000E+01 0. -1.
         25    2    1    2    0    0  0.00000000000E+00  0.00000000000E+00 -0.35482473654E+03  0.37619876655E+03  0.12499967317E+03 0.  0.
    9000005    1    3    3    0    0 -0.60634575484E+02 -0.43400166955E+01 -0.22100918556E+03  0.22921921297E+03  0.10000000000E+01 0.  0.
    9000005    1    3    3    0    0  0.60634575484E+02  0.43400166955E+01 -0.13381555098E+03  0.14697955359E+03  0.10000000000E+01 0.  0.
<mgrwt>
<rscale>  0 0.12499967E+03</rscale>
<asrwt>0</asrwt>
<pdfrwt beam="2">  1        4 0.56232568E-01 0.12499967E+03</pdfrwt>
<pdfrwt beam="1">  1       -4 0.16441564E-02 0.12499967E+03</pdfrwt>
<totfact> 0.66935866E+03</totfact>
</mgrwt>
</event>
<event>
 5    1  0.3251953E-002  0.1249922E+03  0.7818608E-02  0.1235082E+00
         -4   -1    0    0    0  501 -0.00000000000E+00  0.00000000000E+00  0.85863525215E+03  0.85863619137E+03  0.12700000000E+01 0. -1.
          4   -1    0    0  501    0  0.00000000000E+00 -0.00000000000E+00 -0.44591949110E+01  0.46365201665E+01  0.12700000000E+01 0. -1.
         25    2    1    2    0    0  0.00000000000E+00  0.00000000000E+00  0.85417605724E+03  0.86327271154E+03  0.12499215066E+03 0.  0.
    9000005    1    3    3    0    0  0.33267869058E+02  0.52583203227E+02  0.38740349244E+03  0.39236999163E+03  0.10000000000E+01 0.  0.
    9000005    1    3    3    0    0 -0.33267869058E+02 -0.52583203227E+02  0.46677256480E+03  0.47090271991E+03  0.10000000000E+01 0.  0.
<mgrwt>
<rscale>  0 0.12499215E+03</rscale>
<asrwt>0</asrwt>
<pdfrwt beam="2">  1        4 0.69974226E-03 0.12499215E+03</pdfrwt>
<pdfrwt beam="1">  1       -4 0.13211152E+00 0.12499215E+03</pdfrwt>
<totfact> 0.35596346E+03</totfact>
</mgrwt>
</event>
<event>
 5    1  0.3251953E-002  0.1249971E+03  0.7818608E-02  0.1235074E+00
          4   -1    0    0  501    0  0.00000000000E+00  0.00000000000E+00  0.17314363238E+01  0.21472707662E+01  0.12700000000E+01 0.  1.
         -4   -1    0    0    0  501 -0.00000000000E+00 -0.00000000000E+00 -0.20136939693E+04  0.20136943698E+04  0.12700000000E+01 0.  1.
         25    2    1    2    0    0  0.00000000000E+00  0.00000000000E+00 -0.20119625330E+04  0.20158416406E+04  0.12499714265E+03 0.  0.
    9000005    1    3    3    0    0  0.24920085409E+01  0.28607067062E+02 -0.11089122884E+03  0.11455321482E+03  0.10000000000E+01 0.  0.
    9000005    1    3    3    0    0 -0.24920085409E+01 -0.28607067062E+02 -0.19010713041E+04  0.19012884257E+04  0.10000000000E+01 0.  0.
<mgrwt>
<rscale>  0 0.12499714E+03</rscale>
<asrwt>0</asrwt>
<pdfrwt beam="1">  1        4 0.29839450E-03 0.12499714E+03</pdfrwt>
<pdfrwt beam="2">  1       -4 0.30982942E+00 0.12499714E+03</pdfrwt>
<totfact> 0.96565774E+02</totfact>
</mgrwt>
</event>
<event>
 5    1  0.3251953E-002  0.1250002E+03  0.7818608E-02  0.1235069E+00
         -4   -1    0    0    0  501 -0.00000000000E+00  0.00000000000E+00  0.84098761190E+02  0.84108349964E+02  0.12700000000E+01 0.  1.
          4   -1    0    0  501    0  0.00000000000E+00 -0.00000000000E+00 -0.46427595730E+02  0.46444962539E+02  0.12700000000E+01 0.  1.
         25    2    1    2    0    0  0.00000000000E+00  0.00000000000E+00  0.37671165461E+02  0.13055331250E+03  0.12500020279E+03 0.  0.
    9000005    1    3    3    0    0 -0.34011418275E+02 -0.37542445541E+02 -0.19383100352E+02  0.54248653159E+02  0.10000000000E+01 0.  0.
    9000005    1    3    3    0    0  0.34011418275E+02  0.37542445541E+02  0.57054265813E+02  0.76304659345E+02  0.10000000000E+01 0.  0.
<mgrwt>
<rscale>  0 0.12500020E+03</rscale>
<asrwt>0</asrwt>
<pdfrwt beam="2">  1        4 0.71447807E-02 0.12500020E+03</pdfrwt>
<pdfrwt beam="1">  1       -4 0.12940344E-01 0.12500020E+03</pdfrwt>
<totfact> 0.10332628E+04</totfact>
</mgrwt>
</event>
<event>
 5    1  0.3251953E-002  0.1249983E+03  0.7818608E-02  0.1235072E+00
          4   -1    0    0  501    0  0.00000000000E+00  0.00000000000E+00  0.49328486023E+03  0.49328649508E+03  0.12700000000E+01 0. -1.
         -4   -1    0    0    0  501 -0.00000000000E+00 -0.00000000000E+00 -0.78660571997E+01  0.79679204231E+01  0.12700000000E+01 0. -1.
         25    2    1    2    0    0  0.00000000000E+00  0.00000000000E+00  0.48541880303E+03  0.50125441550E+03  0.12499829891E+03 0.  0.
    9000005    1    3    3    0    0 -0.24555626820E+02  0.50999212110E+02  0.13651806884E+03  0.14779066806E+03  0.10000000000E+01 0.  0.
    9000005    1    3    3    0    0  0.24555626820E+02 -0.50999212110E+02  0.34890073419E+03  0.35346374745E+03  0.10000000000E+01 0.  0.
<mgrwt>
<rscale>  0 0.12499830E+03</rscale>
<asrwt>0</asrwt>
<pdfrwt beam="1">  1        4 0.75897963E-01 0.12499830E+03</pdfrwt>
<pdfrwt beam="2">  1       -4 0.12181237E-02 0.12499830E+03</pdfrwt>
<totfact> 0.55769244E+03</totfact>
</mgrwt>
</event>
<event>
 5    1  0.3251953E-002  0.1249980E+03  0.7818608E-02  0.1235072E+00
         -4   -1    0    0    0  501 -0.00000000000E+00  0.00000000000E+00  0.21135452190E+03  0.21135833749E+03  0.12700000000E+01 0. -1.
          4   -1    0    0  501    0  0.00000000000E+00 -0.00000000000E+00 -0.18455585068E+02  0.18499230260E+02  0.12700000000E+01 0. -1.
         25    2    1    2    0    0  0.00000000000E+00  0.00000000000E+00  0.19289893683E+03  0.22985756775E+03  0.12499800647E+03 0.  0.
    9000005    1    3    3    0    0 -0.20307281835E+02  0.44017687359E+02  0.16896757522E+03  0.17578675710E+03  0.10000000000E+01 0.  0.
    9000005    1    3    3    0    0  0.20307281835E+02 -0.44017687359E+02  0.23931361612E+02  0.54070810652E+02  0.10000000000E+01 0.  0.
<mgrwt>
<rscale>  0 0.12499801E+03</rscale>
<asrwt>0</asrwt>
<pdfrwt beam="2">  1        4 0.28429715E-02 0.12499801E+03</pdfrwt>
<pdfrwt beam="1">  1       -4 0.32519732E-01 0.12499801E+03</pdfrwt>
<totfact> 0.85335266E+03</totfact>
</mgrwt>
</event>
<event>
 5    1  0.3251953E-002  0.1249958E+03  0.7818608E-02  0.1235076E+00
         -4   -1    0    0    0  501 -0.00000000000E+00  0.00000000000E+00  0.14389171052E+02  0.14445107946E+02  0.12700000000E+01 0.  1.
          4   -1    0    0  501    0  0.00000000000E+00 -0.00000000000E+00 -0.27086912706E+03  0.27087210431E+03  0.12700000000E+01 0.  1.
         25    2    1    2    0    0  0.00000000000E+00  0.00000000000E+00 -0.25647995601E+03  0.28531721226E+03  0.12499577504E+03 0.  0.
    9000005    1    3    3    0    0  0.51981495094E+02 -0.34634908197E+02 -0.12407256696E+03  0.13891239891E+03  0.10000000000E+01 0.  0.
    9000005    1    3    3    0    0 -0.51981495094E+02  0.34634908197E+02 -0.13240738905E+03  0.14640481335E+03  0.10000000000E+01 0.  0.
<mgrwt>
<rscale>  0 0.12499578E+03</rscale>
<asrwt>0</asrwt>
<pdfrwt beam="2">  1        4 0.41676701E-01 0.12499578E+03</pdfrwt>
<pdfrwt beam="1">  1       -4 0.22182507E-02 0.12499578E+03</pdfrwt>
<totfact> 0.77485599E+03</totfact>
</mgrwt>
</event>
<event>
 5    1  0.3251953E-002  0.1250019E+03  0.7818608E-02  0.1235066E+00
         -4   -1    0    0    0  501 -0.00000000000E+00  0.00000000000E+00  0.24542139356E+02  0.24574977195E+02  0.12700000000E+01 0.  1.
          4   -1    0    0  501    0  0.00000000000E+00 -0.00000000000E+00 -0.15902814138E+03  0.15903321241E+03  0.12700000000E+01 0.  1.
         25    2    1    2    0    0  0.00000000000E+00  0.00000000000E+00 -0.13448600202E+03  0.18360818961E+03  0.12500193019E+03 0.  0.
    9000005    1    3    3    0    0 -0.29921022017E+02 -0.98410520825E+00 -0.14781722615E+03  0.15082164423E+03  0.10000000000E+01 0.  0.
    9000005    1    3    3    0    0  0.29921022017E+02  0.98410520825E+00  0.13331224121E+02  0.32786545384E+02  0.10000000000E+01 0.  0.
<mgrwt>
<rscale>  0 0.12500193E+03</rscale>
<asrwt>0</asrwt>
<pdfrwt beam="2">  1        4 0.24468783E-01 0.12500193E+03</pdfrwt>
<pdfrwt beam="1">  1       -4 0.37786299E-02 0.12500193E+03</pdfrwt>
<totfact> 0.92967498E+03</totfact>
</mgrwt>
</event>
<event>
 5    1  0.3251953E-002  0.1249994E+03  0.7818608E-02  0.1235070E+00
         -4   -1    0    0    0  501 -0.00000000000E+00  0.00000000000E+00  0.15916687640E+03  0.15917194301E+03  0.12700000000E+01 0. -1.
          4   -1    0    0  501    0  0.00000000000E+00 -0.00000000000E+00 -0.24519743357E+02  0.24552611150E+02  0.12700000000E+01 0. -1.
         25    2    1    2    0    0  0.00000000000E+00  0.00000000000E+00  0.13464713304E+03  0.18372455416E+03  0.12499944546E+03 0.  0.
    9000005    1    3    3    0    0 -0.76039090539E+01  0.61910067961E+02  0.61719126013E+02  0.87754922731E+02  0.10000000000E+01 0.  0.
    9000005    1    3    3    0    0  0.76039090539E+01 -0.61910067961E+02  0.72928007029E+02  0.95969631431E+02  0.10000000000E+01 0.  0.
<mgrwt>
<rscale>  0 0.12499945E+03</rscale>
<asrwt>0</asrwt>
<pdfrwt beam="2">  1        4 0.37751862E-02 0.12499945E+03</pdfrwt>
<pdfrwt beam="1">  1       -4 0.24490130E-01 0.12499945E+03</pdfrwt>
<totfact> 0.92951990E+03</totfact>
</mgrwt>
</event>
<event>
 5    1  0.3251953E-002  0.1249996E+03  0.7818608E-02  0.1235070E+00
          4   -1    0    0  501    0  0.00000000000E+00  0.00000000000E+00  0.43032295692E+03  0.43032483098E+03  0.12700000000E+01 0. -1.
         -4   -1    0    0    0  501 -0.00000000000E+00 -0.00000000000E+00 -0.90311047429E+01  0.91199645217E+01  0.12700000000E+01 0. -1.
         25    2    1    2    0    0  0.00000000000E+00  0.00000000000E+00  0.42129185218E+03  0.43944479550E+03  0.12499961431E+03 0.  0.
    9000005    1    3    3    0    0 -0.47759239657E+02 -0.37352664815E+02  0.15743881650E+03  0.16871321075E+03  0.10000000000E+01 0.  0.
    9000005    1    3    3    0    0  0.47759239657E+02  0.37352664815E+02  0.26385303568E+03  0.27073158475E+03  0.10000000000E+01 0.  0.
<mgrwt>
<rscale>  0 0.12499961E+03</rscale>
<asrwt>0</asrwt>
<pdfrwt beam="1">  1        4 0.66210519E-01 0.12499961E+03</pdfrwt>
<pdfrwt beam="2">  1       -4 0.13963801E-02 0.12499961E+03</pdfrwt>
<totfact> 0.60889621E+03</totfact>
</mgrwt>
</event>
<event>
 5    1  0.3251953E-002  0.1250000E+03  0.7818608E-02  0.1235069E+00
          4   -1    0    0  501    0  0.00000000000E+00  0.00000000000E+00  0.28603309939E+02  0.28631490346E+02  0.12700000000E+01 0.  1.
         -4   -1    0    0    0  501 -0.00000000000E+00 -0.00000000000E+00 -0.13646791278E+03  0.13647382210E+03  0.12700000000E+01 0.  1.
         25    2    1    2    0    0  0.00000000000E+00  0.00000000000E+00 -0.10786460284E+03  0.16510531245E+03  0.12499996661E+03 0.  0.
    9000005    1    3    3    0    0 -0.50918216164E+02 -0.34688285591E+02 -0.67741649859E+02  0.91574412475E+02  0.10000000000E+01 0.  0.
    9000005    1    3    3    0    0  0.50918216164E+02  0.34688285591E+02 -0.40122952982E+02  0.73530899971E+02  0.10000000000E+01 0.  0.
<mgrwt>
<rscale>  0 0.12499997E+03</rscale>
<asrwt>0</asrwt>
<pdfrwt beam="1">  1        4 0.44031316E-02 0.12499997E+03</pdfrwt>
<pdfrwt beam="2">  1       -4 0.20997685E-01 0.12499997E+03</pdfrwt>
<totfact> 0.96367524E+03</totfact>
</mgrwt>
</event>
<event>
 5    1  0.3251953E-002  0.1249999E+03  0.7818608E-02  0.1235069E+00
          4   -1    0    0  501    0  0.00000000000E+00  0.00000000000E+00  0.34342078473E+02  0.34365553303E+02  0.12700000000E+01 0. -1.
         -4   -1    0    0    0  501 -0.00000000000E+00 -0.00000000000E+00 -0.11367931089E+03  0.11368640475E+03  0.12700000000E+01 0. -1.
         25    2    1    2    0    0  0.00000000000E+00  0.00000000000E+00 -0.79337232415E+02  0.14805195805E+03  0.12499994334E+03 0.  0.
    9000005    1    3    3    0    0  0.51524673911E+02  0.17831811527E+02 -0.35006307114E+01  0.54644486816E+02  0.10000000000E+01 0.  0.
    9000005    1    3    3    0    0 -0.51524673911E+02 -0.17831811527E+02 -0.75836601704E+02  0.93407471232E+02  0.10000000000E+01 0.  0.
<mgrwt>
<rscale>  0 0.12499994E+03</rscale>
<asrwt>0</asrwt>
<pdfrwt beam="1">  1        4 0.52857482E-02 0.12499994E+03</pdfrwt>
<pdfrwt beam="2">  1       -4 0.17491476E-01 0.12499994E+03</pdfrwt>
<totfact> 0.99693564E+03</totfact>
</mgrwt>
</event>
<event>
 5    1  0.3251953E-002  0.1250000E+03  0.7818608E-02  0.1235069E+00
         -4   -1    0    0    0  501 -0.00000000000E+00  0.00000000000E+00  0.33180749615E+02  0.33205045475E+02  0.12700000000E+01 0. -1.
          4   -1    0    0  501    0  0.00000000000E+00 -0.00000000000E+00 -0.11765564543E+03  0.11766249955E+03  0.12700000000E+01 0. -1.
         25    2    1    2    0    0  0.00000000000E+00  0.00000000000E+00 -0.84474895814E+02  0.15086754503E+03  0.12500003248E+03 0.  0.
    9000005    1    3    3    0    0 -0.15588981564E+02 -0.59891583115E+02 -0.52706145304E+02  0.81295484665E+02  0.10000000000E+01 0.  0.
    9000005    1    3    3    0    0  0.15588981564E+02  0.59891583115E+02 -0.31768750510E+02  0.69572060363E+02  0.10000000000E+01 0.  0.
<mgrwt>
<rscale>  0 0.12500003E+03</rscale>
<asrwt>0</asrwt>
<pdfrwt beam="2">  1        4 0.18103264E-01 0.12500003E+03</pdfrwt>
<pdfrwt beam="1">  1       -4 0.51071269E-02 0.12500003E+03</pdfrwt>
<totfact> 0.99130974E+03</totfact>
</mgrwt>
</event>
<event>
 5    1  0.3251953E-002  0.1250043E+03  0.7818608E-02  0.1235063E+00
          4   -1    0    0  501    0  0.00000000000E+00  0.00000000000E+00  0.54638674368E+02  0.54653432067E+02  0.12700000000E+01 0.  1.
         -4   -1    0    0    0  501 -0.00000000000E+00 -0.00000000000E+00 -0.71467265678E+02  0.71478548975E+02  0.12700000000E+01 0.  1.
         25    2    1    2    0    0  0.00000000000E+00  0.00000000000E+00 -0.16828591311E+02  0.12613198104E+03  0.12500430055E+03 0.  0.
    9000005    1    3    3    0    0  0.82916463371E+01 -0.60676962095E+02  0.41509007746E+01  0.61389535797E+02  0.10000000000E+01 0.  0.
    9000005    1    3    3    0    0 -0.82916463371E+01  0.60676962095E+02 -0.20979492085E+02  0.64742445245E+02  0.10000000000E+01 0.  0.
<mgrwt>
<rscale>  0 0.12500430E+03</rscale>
<asrwt>0</asrwt>
<pdfrwt beam="1">  1        4 0.84079530E-02 0.12500430E+03</pdfrwt>
<pdfrwt beam="2">  1       -4 0.10996967E-01 0.12500430E+03</pdfrwt>
<totfact> 0.10427055E+04</totfact>
</mgrwt>
</event>
<event>
 5    1  0.3251953E-002  0.1249920E+03  0.7818608E-02  0.1235082E+00
         -4   -1    0    0    0  501 -0.00000000000E+00  0.00000000000E+00  0.25534024194E+02  0.25565588034E+02  0.12700000000E+01 0. -1.
          4   -1    0    0  501    0  0.00000000000E+00 -0.00000000000E+00 -0.15283384799E+03  0.15283912455E+03  0.12700000000E+01 0. -1.
         25    2    1    2    0    0  0.00000000000E+00  0.00000000000E+00 -0.12729982380E+03  0.17840471258E+03  0.12499198507E+03 0.  0.
    9000005    1    3    3    0    0 -0.57549030025E+01 -0.83215079331E+01 -0.15166397459E+03  0.15200436701E+03  0.10000000000E+01 0.  0.
    9000005    1    3    3    0    0  0.57549030025E+01  0.83215079331E+01  0.24364150786E+02  0.26400345573E+02  0.10000000000E+01 0.  0.
<mgrwt>
<rscale>  0 0.12499199E+03</rscale>
<asrwt>0</asrwt>
<pdfrwt beam="2">  1        4 0.23515733E-01 0.12499199E+03</pdfrwt>
<pdfrwt beam="1">  1       -4 0.39311454E-02 0.12499199E+03</pdfrwt>
<totfact> 0.93921831E+03</totfact>
</mgrwt>
</event>
<event>
 5    1  0.3251953E-002  0.1249958E+03  0.7818608E-02  0.1235076E+00
         -4   -1    0    0    0  501 -0.00000000000E+00  0.00000000000E+00  0.12923432072E+02  0.12985684291E+02  0.12700000000E+01 0. -1.
          4   -1    0    0  501    0  0.00000000000E+00 -0.00000000000E+00 -0.30145108908E+03  0.30145376430E+03  0.12700000000E+01 0. -1.
         25    2    1    2    0    0  0.00000000000E+00  0.00000000000E+00 -0.28852765701E+03  0.31443944859E+03  0.12499583180E+03 0.  0.
    9000005    1    3    3    0    0  0.13039521601E+02 -0.10822189545E+02  0.70456756389E+01  0.18379076563E+02  0.10000000000E+01 0.  0.
    9000005    1    3    3    0    0 -0.13039521601E+02  0.10822189545E+02 -0.29557333265E+03  0.29606037203E+03  0.10000000000E+01 0.  0.
<mgrwt>
<rscale>  0 0.12499583E+03</rscale>
<asrwt>0</asrwt>
<pdfrwt beam="2">  1        4 0.46382080E-01 0.12499583E+03</pdfrwt>
<pdfrwt beam="1">  1       -4 0.19932150E-02 0.12499583E+03</pdfrwt>
<totfact> 0.73829222E+03</totfact>
</mgrwt>
</event>
<event>
 5    1  0.3251953E-002  0.1250005E+03  0.7818608E-02  0.1235068E+00
         -4   -1    0    0    0  501 -0.00000000000E+00  0.00000000000E+00  0.10843250620E+04  0.10843258057E+04  0.12700000000E+01 0.  1.
          4   -1    0    0  501    0  0.00000000000E+00 -0.00000000000E+00 -0.34898051640E+01  0.37137097467E+01  0.12700000000E+01 0.  1.
         25    2    1    2    0    0  0.00000000000E+00  0.00000000000E+00  0.10808352568E+04  0.10880395155E+04  0.12500053931E+03 0.  0.
    9000005    1    3    3    0    0 -0.43592991959E+02 -0.34375474874E+02  0.29066982281E+03  0.29592561246E+03  0.10000000000E+01 0.  0.
    9000005    1    3    3    0    0  0.43592991959E+02  0.34375474874E+02  0.79016543402E+03  0.79211390301E+03  0.10000000000E+01 0.  0.
<mgrwt>
<rscale>  0 0.12500054E+03</rscale>
<asrwt>0</asrwt>
<pdfrwt beam="2">  1        4 0.55417375E-03 0.12500054E+03</pdfrwt>
<pdfrwt beam="1">  1       -4 0.16683652E+00 0.12500054E+03</pdfrwt>
<totfact> 0.27835770E+03</totfact>
</mgrwt>
</event>
<event>
 5    1  0.3251953E-002  0.1249983E+03  0.7818608E-02  0.1235072E+00
          4   -1    0    0  501    0  0.00000000000E+00  0.00000000000E+00  0.10355490568E+03  0.10356269304E+03  0.12700000000E+01 0. -1.
         -4   -1    0    0    0  501 -0.00000000000E+00 -0.00000000000E+00 -0.37700610168E+02  0.37721995004E+02  0.12700000000E+01 0. -1.
         25    2    1    2    0    0  0.00000000000E+00  0.00000000000E+00  0.65854295508E+02  0.14128468804E+03  0.12499829934E+03 0.  0.
    9000005    1    3    3    0    0  0.46602389716E+02 -0.41249391045E+02  0.26548377062E+02  0.67669131171E+02  0.10000000000E+01 0.  0.
    9000005    1    3    3    0    0 -0.46602389716E+02  0.41249391045E+02  0.39305918446E+02  0.73615556873E+02  0.10000000000E+01 0.  0.
<mgrwt>
<rscale>  0 0.12499830E+03</rscale>
<asrwt>0</asrwt>
<pdfrwt beam="1">  1        4 0.15933768E-01 0.12499830E+03</pdfrwt>
<pdfrwt beam="2">  1       -4 0.58023380E-02 0.12499830E+03</pdfrwt>
<totfact> 0.10107416E+04</totfact>
</mgrwt>
</event>
<event>
 5    1  0.3251953E-002  0.1250009E+03  0.7818608E-02  0.1235068E+00
          4   -1    0    0  501    0  0.00000000000E+00  0.00000000000E+00  0.29766959848E+03  0.29767230768E+03  0.12700000000E+01 0.  1.
         -4   -1    0    0    0  501 -0.00000000000E+00 -0.00000000000E+00 -0.13089464911E+02  0.13150931209E+02  0.12700000000E+01 0.  1.
         25    2    1    2    0    0  0.00000000000E+00  0.00000000000E+00  0.28458013357E+03  0.31082323889E+03  0.12500093364E+03 0.  0.
    9000005    1    3    3    0    0 -0.26541887324E+02 -0.78690437283E+01  0.29775996931E+01  0.27861438079E+02  0.10000000000E+01 0.  0.
    9000005    1    3    3    0    0  0.26541887324E+02  0.78690437283E+01  0.28160253388E+03  0.28296180081E+03  0.10000000000E+01 0.  0.
<mgrwt>
<rscale>  0 0.12500093E+03</rscale>
<asrwt>0</asrwt>
<pdfrwt beam="1">  1        4 0.45800258E-01 0.12500093E+03</pdfrwt>
<pdfrwt beam="2">  1       -4 0.20187005E-02 0.12500093E+03</pdfrwt>
<totfact> 0.74259404E+03</totfact>
</mgrwt>
</event>
<event>
 5    1  0.3251953E-002  0.1249958E+03  0.7818608E-02  0.1235076E+00
          4   -1    0    0  501    0  0.00000000000E+00  0.00000000000E+00  0.19321641882E+02  0.19363335069E+02  0.12700000000E+01 0. -1.
         -4   -1    0    0    0  501 -0.00000000000E+00 -0.00000000000E+00 -0.20189449781E+03  0.20189849218E+03  0.12700000000E+01 0. -1.
         25    2    1    2    0    0  0.00000000000E+00  0.00000000000E+00 -0.18257285593E+03  0.22126182725E+03  0.12499579384E+03 0.  0.
    9000005    1    3    3    0    0 -0.36033328823E+02  0.47055900991E+02 -0.56224480640E+02  0.81699760265E+02  0.10000000000E+01 0.  0.
    9000005    1    3    3    0    0  0.36033328823E+02 -0.47055900991E+02 -0.12634837529E+03  0.13956206699E+03  0.10000000000E+01 0.  0.
<mgrwt>
<rscale>  0 0.12499579E+03</rscale>
<asrwt>0</asrwt>
<pdfrwt beam="1">  1        4 0.29760749E-02 0.12499579E+03</pdfrwt>
<pdfrwt beam="2">  1       -4 0.31064205E-01 0.12499579E+03</pdfrwt>
<totfact> 0.86677218E+03</totfact>
</mgrwt>
</event>
<event>
 5    1  0.3251953E-002  0.1250058E+03  0.7818608E-02  0.1235060E+00
         -4   -1    0    0    0  501 -0.00000000000E+00  0.00000000000E+00  0.69095582704E+01  0.70253039430E+01  0.12700000000E+01 0.  1.
          4   -1    0    0  501    0  0.00000000000E+00 -0.00000000000E+00 -0.56058002859E+03  0.56058146718E+03  0.12700000000E+01 0.  1.
         25    2    1    2    0    0  0.00000000000E+00  0.00000000000E+00 -0.55367047032E+03  0.56760677113E+03  0.12500582758E+03 0.  0.
    9000005    1    3    3    0    0 -0.99848918004E+01 -0.59077499862E+02 -0.35752146548E+03  0.36250854794E+03  0.10000000000E+01 0.  0.
    9000005    1    3    3    0    0  0.99848918004E+01  0.59077499862E+02 -0.19614900484E+03  0.20509822318E+03  0.10000000000E+01 0.  0.
<mgrwt>
<rscale>  0 0.12500583E+03</rscale>
<asrwt>0</asrwt>
<pdfrwt beam="2">  1        4 0.86252060E-01 0.12500583E+03</pdfrwt>
<pdfrwt beam="1">  1       -4 0.10720236E-02 0.12500583E+03</pdfrwt>
<totfact> 0.50971854E+03</totfact>
</mgrwt>
</event>
<event>
 5    1  0.3251953E-002  0.1250016E+03  0.7818608E-02  0.1235067E+00
         -4   -1    0    0    0  501 -0.00000000000E+00  0.00000000000E+00  0.16131758893E+03  0.16132258800E+03  0.12700000000E+01 0. -1.
          4   -1    0    0  501    0  0.00000000000E+00 -0.00000000000E+00 -0.24193247314E+02  0.24226558063E+02  0.12700000000E+01 0. -1.
         25    2    1    2    0    0  0.00000000000E+00  0.00000000000E+00  0.13712434162E+03  0.18554914606E+03  0.12500160215E+03 0.  0.
    9000005    1    3    3    0    0  0.20977466114E+02 -0.38546475319E+02  0.13460373121E+03  0.14158053998E+03  0.10000000000E+01 0.  0.
    9000005    1    3    3    0    0 -0.20977466114E+02  0.38546475319E+02  0.25206104044E+01  0.43968606083E+02  0.10000000000E+01 0.  0.
<mgrwt>
<rscale>  0 0.12500160E+03</rscale>
<asrwt>0</asrwt>
<pdfrwt beam="2">  1        4 0.37249851E-02 0.12500160E+03</pdfrwt>
<pdfrwt beam="1">  1       -4 0.24821036E-01 0.12500160E+03</pdfrwt>
<totfact> 0.92624243E+03</totfact>
</mgrwt>
</event>
<event>
 5    1  0.3251953E-002  0.1250018E+03  0.7818608E-02  0.1235067E+00
          4   -1    0    0  501    0  0.00000000000E+00  0.00000000000E+00  0.75111510130E+02  0.75122246066E+02  0.12700000000E+01 0. -1.
         -4   -1    0    0    0  501 -0.00000000000E+00 -0.00000000000E+00 -0.51985264661E+02  0.52000775397E+02  0.12700000000E+01 0. -1.
         25    2    1    2    0    0  0.00000000000E+00  0.00000000000E+00  0.23126245469E+02  0.12712302146E+03  0.12500175741E+03 0.  0.
    9000005    1    3    3    0    0 -0.36597521762E+02  0.44000704632E+02  0.37087227686E+02  0.68204861005E+02  0.10000000000E+01 0.  0.
    9000005    1    3    3    0    0  0.36597521762E+02 -0.44000704632E+02 -0.13960982218E+02  0.58918160458E+02  0.10000000000E+01 0.  0.
<mgrwt>
<rscale>  0 0.12500176E+03</rscale>
<asrwt>0</asrwt>
<pdfrwt beam="1">  1        4 0.11557636E-01 0.12500176E+03</pdfrwt>
<pdfrwt beam="2">  1       -4 0.79997521E-02 0.12500176E+03</pdfrwt>
<totfact> 0.10406061E+04</totfact>
</mgrwt>
</event>
<event>
 5    1  0.3251953E-002  0.1249990E+03  0.7818608E-02  0.1235071E+00
          4   -1    0    0  501    0  0.00000000000E+00  0.00000000000E+00  0.40525086063E+03  0.40525285063E+03  0.12700000000E+01 0.  1.
         -4   -1    0    0    0  501 -0.00000000000E+00 -0.00000000000E+00 -0.95950798241E+01  0.96787631871E+01  0.12700000000E+01 0.  1.
         25    2    1    2    0    0  0.00000000000E+00  0.00000000000E+00  0.39565578081E+03  0.41493161382E+03  0.12499898903E+03 0.  0.
    9000005    1    3    3    0    0 -0.13400034137E+02 -0.42390785214E+02  0.34360737935E+03  0.34647304474E+03  0.10000000000E+01 0.  0.
    9000005    1    3    3    0    0  0.13400034137E+02  0.42390785214E+02  0.52048401457E+02  0.68458569078E+02  0.10000000000E+01 0.  0.
<mgrwt>
<rscale>  0 0.12499899E+03</rscale>
<asrwt>0</asrwt>
<pdfrwt beam="1">  1        4 0.62352867E-01 0.12499899E+03</pdfrwt>
<pdfrwt beam="2">  1       -4 0.14827566E-02 0.12499899E+03</pdfrwt>
<totfact> 0.63127424E+03</totfact>
</mgrwt>
</event>
<event>
 5    1  0.3251953E-002  0.1249996E+03  0.7818608E-02  0.1235070E+00
         -4   -1    0    0    0  501 -0.00000000000E+00  0.00000000000E+00  0.18120798317E+02  0.18165247910E+02  0.12700000000E+01 0.  1.
          4   -1    0    0  501    0  0.00000000000E+00 -0.00000000000E+00 -0.21525542509E+03  0.21525917154E+03  0.12700000000E+01 0.  1.
         25    2    1    2    0    0  0.00000000000E+00  0.00000000000E+00 -0.19713462677E+03  0.23342441945E+03  0.12499959408E+03 0.  0.
    9000005    1    3    3    0    0 -0.20348534469E+01 -0.12034124400E+02  0.15882668970E+02  0.20055422016E+02  0.10000000000E+01 0.  0.
    9000005    1    3    3    0    0  0.20348534469E+01  0.12034124400E+02 -0.21301729574E+03  0.21336899743E+03  0.10000000000E+01 0.  0.
<mgrwt>
<rscale>  0 0.12499959E+03</rscale>
<asrwt>0</asrwt>
<pdfrwt beam="2">  1        4 0.33119925E-01 0.12499959E+03</pdfrwt>
<pdfrwt beam="1">  1       -4 0.27915227E-02 0.12499959E+03</pdfrwt>
<totfact> 0.84787301E+03</totfact>
</mgrwt>
</event>
<event>
 5    1  0.3251953E-002  0.1249976E+03  0.7818608E-02  0.1235073E+00
         -4   -1    0    0    0  501 -0.00000000000E+00  0.00000000000E+00  0.38444208623E+01  0.40487617572E+01  0.12700000000E+01 0.  1.
          4   -1    0    0  501    0  0.00000000000E+00 -0.00000000000E+00 -0.98953511381E+03  0.98953592879E+03  0.12700000000E+01 0.  1.
         25    2    1    2    0    0  0.00000000000E+00  0.00000000000E+00 -0.98569069295E+03  0.99358469054E+03  0.12499758047E+03 0.  0.
    9000005    1    3    3    0    0  0.45782316419E+02  0.25915827921E+02 -0.76092823134E+03  0.76274532046E+03  0.10000000000E+01 0.  0.
    9000005    1    3    3    0    0 -0.45782316419E+02 -0.25915827921E+02 -0.22476246161E+03  0.23083937009E+03  0.10000000000E+01 0.  0.
<mgrwt>
<rscale>  0 0.12499758E+03</rscale>
<asrwt>0</asrwt>
<pdfrwt beam="2">  1        4 0.15225175E+00 0.12499758E+03</pdfrwt>
<pdfrwt beam="1">  1       -4 0.60723137E-03 0.12499758E+03</pdfrwt>
<totfact> 0.30818921E+03</totfact>
</mgrwt>
</event>
<event>
 5    1  0.3251953E-002  0.1250019E+03  0.7818608E-02  0.1235066E+00
         -4   -1    0    0    0  501 -0.00000000000E+00  0.00000000000E+00  0.53594653180E+02  0.53609698278E+02  0.12700000000E+01 0. -1.
          4   -1    0    0  501    0  0.00000000000E+00 -0.00000000000E+00 -0.72856509201E+02  0.72867577378E+02  0.12700000000E+01 0. -1.
         25    2    1    2    0    0  0.00000000000E+00  0.00000000000E+00 -0.19261856021E+02  0.12647727566E+03  0.12500192863E+03 0.  0.
    9000005    1    3    3    0    0  0.38034561437E+02 -0.17328624496E+02  0.37376656639E+02  0.56079617975E+02  0.10000000000E+01 0.  0.
    9000005    1    3    3    0    0 -0.38034561437E+02  0.17328624496E+02 -0.56638512660E+02  0.70397657682E+02  0.10000000000E+01 0.  0.
<mgrwt>
<rscale>  0 0.12500193E+03</rscale>
<asrwt>0</asrwt>
<pdfrwt beam="2">  1        4 0.11210702E-01 0.12500193E+03</pdfrwt>
<pdfrwt beam="1">  1       -4 0.82473399E-02 0.12500193E+03</pdfrwt>
<totfact> 0.10420070E+04</totfact>
</mgrwt>
</event>
<event>
 5    1  0.3251953E-002  0.1249727E+03  0.7818608E-02  0.1235112E+00
          4   -1    0    0  501    0  0.00000000000E+00  0.00000000000E+00  0.67950600985E+02  0.67962468129E+02  0.12700000000E+01 0. -1.
         -4   -1    0    0    0  501 -0.00000000000E+00 -0.00000000000E+00 -0.57437586290E+02  0.57451625032E+02  0.12700000000E+01 0. -1.
         25    2    1    2    0    0  0.00000000000E+00  0.00000000000E+00  0.10513014695E+02  0.12541409316E+03  0.12497268216E+03 0.  0.
    9000005    1    3    3    0    0 -0.16325191242E+02 -0.55517743447E+02 -0.18381117079E+02  0.60725589101E+02  0.10000000000E+01 0.  0.
    9000005    1    3    3    0    0  0.16325191242E+02  0.55517743447E+02  0.28894131774E+02  0.64688504060E+02  0.10000000000E+01 0.  0.
<mgrwt>
<rscale>  0 0.12497268E+03</rscale>
<asrwt>0</asrwt>
<pdfrwt beam="1">  1        4 0.10455931E-01 0.12497268E+03</pdfrwt>
<pdfrwt beam="2">  1       -4 0.88385445E-02 0.12497268E+03</pdfrwt>
<totfact> 0.10450291E+04</totfact>
</mgrwt>
</event>
<event>
 5    1  0.3251953E-002  0.1249992E+03  0.7818608E-02  0.1235071E+00
          4   -1    0    0  501    0  0.00000000000E+00  0.00000000000E+00  0.95645742656E+01  0.96485222123E+01  0.12700000000E+01 0. -1.
         -4   -1    0    0    0  501 -0.00000000000E+00 -0.00000000000E+00 -0.40653350365E+03  0.40653548737E+03  0.12700000000E+01 0. -1.
         25    2    1    2    0    0  0.00000000000E+00  0.00000000000E+00 -0.39696892939E+03  0.41618400958E+03  0.12499919573E+03 0.  0.
    9000005    1    3    3    0    0 -0.99447464091E+01  0.34243815253E+02 -0.27617438201E+02  0.45113853271E+02  0.10000000000E+01 0.  0.
    9000005    1    3    3    0    0  0.99447464091E+01 -0.34243815253E+02 -0.36935149119E+03  0.37107015631E+03  0.10000000000E+01 0.  0.
<mgrwt>
<rscale>  0 0.12499920E+03</rscale>
<asrwt>0</asrwt>
<pdfrwt beam="1">  1        4 0.14780834E-02 0.12499920E+03</pdfrwt>
<pdfrwt beam="2">  1       -4 0.62550213E-01 0.12499920E+03</pdfrwt>
<totfact> 0.63009735E+03</totfact>
</mgrwt>
</event>
<event>
 5    1  0.3251953E-002  0.1250001E+03  0.7818608E-02  0.1235069E+00
         -4   -1    0    0    0  501 -0.00000000000E+00  0.00000000000E+00  0.23242611397E+02  0.23277282585E+02  0.12700000000E+01 0.  1.
          4   -1    0    0  501    0  0.00000000000E+00 -0.00000000000E+00 -0.16790202111E+03  0.16790682414E+03  0.12700000000E+01 0.  1.
         25    2    1    2    0    0  0.00000000000E+00  0.00000000000E+00 -0.14465940972E+03  0.19118410673E+03  0.12500007138E+03 0.  0.
    9000005    1    3    3    0    0 -0.15995612462E+02  0.57169433782E+02 -0.42473617123E+02  0.73001451551E+02  0.10000000000E+01 0.  0.
    9000005    1    3    3    0    0  0.15995612462E+02 -0.57169433782E+02 -0.10218579259E+03  0.11818265518E+03  0.10000000000E+01 0.  0.
<mgrwt>
<rscale>  0 0.12500007E+03</rscale>
<asrwt>0</asrwt>
<pdfrwt beam="2">  1        4 0.25834116E-01 0.12500007E+03</pdfrwt>
<pdfrwt beam="1">  1       -4 0.35788229E-02 0.12500007E+03</pdfrwt>
<totfact> 0.91641545E+03</totfact>
</mgrwt>
</event>
<event>
 5    1  0.3251953E-002  0.1250010E+03  0.7818608E-02  0.1235068E+00
         -4   -1    0    0    0  501 -0.00000000000E+00  0.00000000000E+00  0.39859446303E+02  0.39879673514E+02  0.12700000000E+01 0.  1.
          4   -1    0    0  501    0  0.00000000000E+00 -0.00000000000E+00 -0.97952939525E+02  0.97961172214E+02  0.12700000000E+01 0.  1.
         25    2    1    2    0    0  0.00000000000E+00  0.00000000000E+00 -0.58093493222E+02  0.13784084573E+03  0.12500097918E+03 0.  0.
    9000005    1    3    3    0    0  0.40643172158E+02  0.37128070771E+02  0.35711656962E+01  0.55173492790E+02  0.10000000000E+01 0.  0.
    9000005    1    3    3    0    0 -0.40643172158E+02 -0.37128070771E+02 -0.61664658918E+02  0.82667352938E+02  0.10000000000E+01 0.  0.
<mgrwt>
<rscale>  0 0.12500098E+03</rscale>
<asrwt>0</asrwt>
<pdfrwt beam="2">  1        4 0.15071872E-01 0.12500098E+03</pdfrwt>
<pdfrwt beam="1">  1       -4 0.61344117E-02 0.12500098E+03</pdfrwt>
<totfact> 0.10178308E+04</totfact>
</mgrwt>
</event>
<event>
 5    1  0.3251953E-002  0.1249992E+03  0.7818608E-02  0.1235071E+00
          4   -1    0    0  501    0  0.00000000000E+00  0.00000000000E+00  0.84873431710E+01  0.85818351244E+01  0.12700000000E+01 0.  1.
         -4   -1    0    0    0  501 -0.00000000000E+00 -0.00000000000E+00 -0.45759509732E+03  0.45759685968E+03  0.12700000000E+01 0.  1.
         25    2    1    2    0    0  0.00000000000E+00  0.00000000000E+00 -0.44910775415E+03  0.46617869481E+03  0.12499920262E+03 0.  0.
    9000005    1    3    3    0    0 -0.34536403125E+01 -0.37866164104E+02 -0.39600582397E+02  0.54908834823E+02  0.10000000000E+01 0.  0.
    9000005    1    3    3    0    0  0.34536403125E+01  0.37866164104E+02 -0.40950717175E+03  0.41126985998E+03  0.10000000000E+01 0.  0.
<mgrwt>
<rscale>  0 0.12499920E+03</rscale>
<asrwt>0</asrwt>
<pdfrwt beam="1">  1        4 0.13131496E-02 0.12499920E+03</pdfrwt>
<pdfrwt beam="2">  1       -4 0.70406631E-01 0.12499920E+03</pdfrwt>
<totfact> 0.58588454E+03</totfact>
</mgrwt>
</event>
<event>
 5    1  0.3251953E-002  0.1250007E+03  0.7818608E-02  0.1235068E+00
         -4   -1    0    0    0  501 -0.00000000000E+00  0.00000000000E+00  0.11162177570E+02  0.11234193701E+02  0.12700000000E+01 0.  1.
          4   -1    0    0  501    0  0.00000000000E+00 -0.00000000000E+00 -0.34875952358E+03  0.34876183592E+03  0.12700000000E+01 0.  1.
         25    2    1    2    0    0  0.00000000000E+00  0.00000000000E+00 -0.33759734601E+03  0.35999602962E+03  0.12500069321E+03 0.  0.
    9000005    1    3    3    0    0  0.52971649820E+02  0.11881725961E+02 -0.25794341814E+03  0.26359624060E+03  0.10000000000E+01 0.  0.
    9000005    1    3    3    0    0 -0.52971649820E+02 -0.11881725961E+02 -0.79653927871E+02  0.96399789013E+02  0.10000000000E+01 0.  0.
<mgrwt>
<rscale>  0 0.12500069E+03</rscale>
<asrwt>0</asrwt>
<pdfrwt beam="2">  1        4 0.53661020E-01 0.12500069E+03</pdfrwt>
<pdfrwt beam="1">  1       -4 0.17229759E-02 0.12500069E+03</pdfrwt>
<totfact> 0.68637642E+03</totfact>
</mgrwt>
</event>
<event>
 5    1  0.3251953E-002  0.1250000E+03  0.7818608E-02  0.1235069E+00
         -4   -1    0    0    0  501 -0.00000000000E+00  0.00000000000E+00  0.29774142535E+03  0.29774413390E+03  0.12700000000E+01 0.  1.
          4   -1    0    0  501    0  0.00000000000E+00 -0.00000000000E+00 -0.13086098084E+02  0.13147580122E+02  0.12700000000E+01 0.  1.
         25    2    1    2    0    0  0.00000000000E+00  0.00000000000E+00  0.28465532727E+03  0.31089171402E+03  0.12500001002E+03 0.  0.
    9000005    1    3    3    0    0  0.65621596359E+01 -0.12936563324E+02 -0.88531109276E+01  0.17023342293E+02  0.10000000000E+01 0.  0.
    9000005    1    3    3    0    0 -0.65621596359E+01  0.12936563324E+02  0.29350843820E+03  0.29386837173E+03  0.10000000000E+01 0.  0.
<mgrwt>
<rscale>  0 0.12500001E+03</rscale>
<asrwt>0</asrwt>
<pdfrwt beam="2">  1        4 0.20181836E-02 0.12500001E+03</pdfrwt>
<pdfrwt beam="1">  1       -4 0.45811310E-01 0.12500001E+03</pdfrwt>
<totfact> 0.74252585E+03</totfact>
</mgrwt>
</event>
<event>
 5    1  0.3251953E-002  0.1250013E+03  0.7818608E-02  0.1235067E+00
         -4   -1    0    0    0  501 -0.00000000000E+00  0.00000000000E+00  0.16588266265E+03  0.16588752415E+03  0.12700000000E+01 0.  1.
          4   -1    0    0  501    0  0.00000000000E+00 -0.00000000000E+00 -0.23526442246E+02  0.23560695761E+02  0.12700000000E+01 0.  1.
         25    2    1    2    0    0  0.00000000000E+00  0.00000000000E+00  0.14235622041E+03  0.18944821991E+03  0.12500133815E+03 0.  0.
    9000005    1    3    3    0    0 -0.61918540239E+02 -0.83166273829E+01  0.68898843525E+02  0.93011410888E+02  0.10000000000E+01 0.  0.
    9000005    1    3    3    0    0  0.61918540239E+02  0.83166273829E+01  0.73457376882E+02  0.96436809024E+02  0.10000000000E+01 0.  0.
<mgrwt>
<rscale>  0 0.12500134E+03</rscale>
<asrwt>0</asrwt>
<pdfrwt beam="2">  1        4 0.36224616E-02 0.12500134E+03</pdfrwt>
<pdfrwt beam="1">  1       -4 0.25523418E-01 0.12500134E+03</pdfrwt>
<totfact> 0.91940656E+03</totfact>
</mgrwt>
</event>
<event>
 5    1  0.3251953E-002  0.1250028E+03  0.7818608E-02  0.1235065E+00
          4   -1    0    0  501    0  0.00000000000E+00  0.00000000000E+00  0.15661658114E+03  0.15662173025E+03  0.12700000000E+01 0.  1.
         -4   -1    0    0    0  501 -0.00000000000E+00 -0.00000000000E+00 -0.24920871153E+02  0.24953210595E+02  0.12700000000E+01 0.  1.
         25    2    1    2    0    0  0.00000000000E+00  0.00000000000E+00  0.13169570999E+03  0.18157494085E+03  0.12500279643E+03 0.  0.
    9000005    1    3    3    0    0 -0.95303296625E+01  0.48041373259E+02  0.12222961526E+03  0.13168097651E+03  0.10000000000E+01 0.  0.
    9000005    1    3    3    0    0  0.95303296625E+01 -0.48041373259E+02  0.94660947267E+01  0.49893964339E+02  0.10000000000E+01 0.  0.
<mgrwt>
<rscale>  0 0.12500280E+03</rscale>
<asrwt>0</asrwt>
<pdfrwt beam="1">  1        4 0.24097743E-01 0.12500280E+03</pdfrwt>
<pdfrwt beam="2">  1       -4 0.38368639E-02 0.12500280E+03</pdfrwt>
<totfact> 0.93328423E+03</totfact>
</mgrwt>
</event>
<event>
 5    1  0.3251953E-002  0.1250046E+03  0.7818608E-02  0.1235062E+00
         -4   -1    0    0    0  501 -0.00000000000E+00  0.00000000000E+00  0.19277825910E+01  0.23085159125E+01  0.12700000000E+01 0. -1.
          4   -1    0    0  501    0  0.00000000000E+00 -0.00000000000E+00 -0.18439356348E+04  0.18439360721E+04  0.12700000000E+01 0. -1.
         25    2    1    2    0    0  0.00000000000E+00  0.00000000000E+00 -0.18420078522E+04  0.18462445880E+04  0.12500460535E+03 0.  0.
    9000005    1    3    3    0    0 -0.53830655474E+01  0.38545001091E+01 -0.18388136870E+04  0.18388258781E+04  0.10000000000E+01 0.  0.
    9000005    1    3    3    0    0  0.53830655474E+01 -0.38545001091E+01 -0.31941652085E+01  0.74187099389E+01  0.10000000000E+01 0.  0.
<mgrwt>
<rscale>  0 0.12500461E+03</rscale>
<asrwt>0</asrwt>
<pdfrwt beam="2">  1        4 0.28371044E+00 0.12500461E+03</pdfrwt>
<pdfrwt beam="1">  1       -4 0.32590423E-03 0.12500461E+03</pdfrwt>
<totfact> 0.12003299E+03</totfact>
</mgrwt>
</event>
<event>
 5    1  0.3251953E-002  0.1249972E+03  0.7818608E-02  0.1235074E+00
          4   -1    0    0  501    0  0.00000000000E+00  0.00000000000E+00  0.21769872879E+03  0.21770243319E+03  0.12700000000E+01 0.  1.
         -4   -1    0    0    0  501 -0.00000000000E+00 -0.00000000000E+00 -0.17916227692E+02  0.17961183555E+02  0.12700000000E+01 0.  1.
         25    2    1    2    0    0  0.00000000000E+00  0.00000000000E+00  0.19978250110E+03  0.23566361675E+03  0.12499717002E+03 0.  0.
    9000005    1    3    3    0    0  0.78836334404E+01 -0.46598322209E+02  0.17697234339E+03  0.18317686982E+03  0.10000000000E+01 0.  0.
    9000005    1    3    3    0    0 -0.78836334404E+01  0.46598322209E+02  0.22810157706E+02  0.52486746931E+02  0.10000000000E+01 0.  0.
<mgrwt>
<rscale>  0 0.12499717E+03</rscale>
<asrwt>0</asrwt>
<pdfrwt beam="1">  1        4 0.33495858E-01 0.12499717E+03</pdfrwt>
<pdfrwt beam="2">  1       -4 0.27600856E-02 0.12499717E+03</pdfrwt>
<totfact> 0.84452790E+03</totfact>
</mgrwt>
</event>
<event>
 5    1  0.3251953E-002  0.1250010E+03  0.7818608E-02  0.1235068E+00
         -4   -1    0    0    0  501 -0.00000000000E+00  0.00000000000E+00  0.88395239284E+03  0.88395330517E+03  0.12700000000E+01 0.  1.
          4   -1    0    0  501    0  0.00000000000E+00 -0.00000000000E+00 -0.43269645409E+01  0.45094924480E+01  0.12700000000E+01 0.  1.
         25    2    1    2    0    0  0.00000000000E+00  0.00000000000E+00  0.87962542830E+03  0.88846279762E+03  0.12500099451E+03 0.  0.
    9000005    1    3    3    0    0 -0.41781167407E+02  0.46444472125E+02  0.45117876218E+03  0.45548439094E+03  0.10000000000E+01 0.  0.
    9000005    1    3    3    0    0  0.41781167407E+02 -0.46444472125E+02  0.42844666612E+03  0.43297840668E+03  0.10000000000E+01 0.  0.
<mgrwt>
<rscale>  0 0.12500099E+03</rscale>
<asrwt>0</asrwt>
<pdfrwt beam="2">  1        4 0.67979797E-03 0.12500099E+03</pdfrwt>
<pdfrwt beam="1">  1       -4 0.13600672E+00 0.12500099E+03</pdfrwt>
<totfact> 0.34602187E+03</totfact>
</mgrwt>
</event>
<event>
 5    1  0.3251953E-002  0.1249989E+03  0.7818608E-02  0.1235071E+00
         -4   -1    0    0    0  501 -0.00000000000E+00  0.00000000000E+00  0.32215917012E+03  0.32216167338E+03  0.12700000000E+01 0.  1.
          4   -1    0    0  501    0  0.00000000000E+00 -0.00000000000E+00 -0.12089190614E+02  0.12155715927E+02  0.12700000000E+01 0.  1.
         25    2    1    2    0    0  0.00000000000E+00  0.00000000000E+00  0.31006997951E+03  0.33431738931E+03  0.12499889839E+03 0.  0.
    9000005    1    3    3    0    0 -0.76635712249E+01  0.31887375898E+02  0.12763184876E+02  0.35205595489E+02  0.10000000000E+01 0.  0.
    9000005    1    3    3    0    0  0.76635712249E+01 -0.31887375898E+02  0.29730679463E+03  0.29911179382E+03  0.10000000000E+01 0.  0.
<mgrwt>
<rscale>  0 0.12499890E+03</rscale>
<asrwt>0</asrwt>
<pdfrwt beam="2">  1        4 0.18651853E-02 0.12499890E+03</pdfrwt>
<pdfrwt beam="1">  1       -4 0.49568260E-01 0.12499890E+03</pdfrwt>
<totfact> 0.71486749E+03</totfact>
</mgrwt>
</event>
<event>
 5    1  0.3251953E-002  0.1249968E+03  0.7818608E-02  0.1235074E+00
         -4   -1    0    0    0  501 -0.00000000000E+00  0.00000000000E+00  0.63448453794E+02  0.63461162838E+02  0.12700000000E+01 0. -1.
          4   -1    0    0  501    0  0.00000000000E+00 -0.00000000000E+00 -0.61537105403E+02  0.61550209109E+02  0.12700000000E+01 0. -1.
         25    2    1    2    0    0  0.00000000000E+00  0.00000000000E+00  0.19113483907E+01  0.12501137195E+03  0.12499675941E+03 0.  0.
    9000005    1    3    3    0    0 -0.30484594400E+02 -0.38281573467E+01  0.55377862157E+02  0.63337768365E+02  0.10000000000E+01 0.  0.
    9000005    1    3    3    0    0  0.30484594400E+02  0.38281573467E+01 -0.53466513767E+02  0.61673603582E+02  0.10000000000E+01 0.  0.
<mgrwt>
<rscale>  0 0.12499676E+03</rscale>
<asrwt>0</asrwt>
<pdfrwt beam="2">  1        4 0.94692326E-02 0.12499676E+03</pdfrwt>
<pdfrwt beam="1">  1       -4 0.97632862E-02 0.12499676E+03</pdfrwt>
<totfact> 0.10453381E+04</totfact>
</mgrwt>
</event>
<event>
 5    1  0.3251953E-002  0.1249990E+03  0.7818608E-02  0.1235071E+00
          4   -1    0    0  501    0  0.00000000000E+00  0.00000000000E+00  0.69419861037E+03  0.69419977207E+03  0.12700000000E+01 0.  1.
         -4   -1    0    0    0  501 -0.00000000000E+00 -0.00000000000E+00 -0.55540564723E+01  0.56974067169E+01  0.12700000000E+01 0.  1.
         25    2    1    2    0    0  0.00000000000E+00  0.00000000000E+00  0.68864455390E+03  0.69989717879E+03  0.12499895703E+03 0.  0.
    9000005    1    3    3    0    0 -0.59226575781E+01 -0.47786283364E+02  0.56734985915E+03  0.56939043672E+03  0.10000000000E+01 0.  0.
    9000005    1    3    3    0    0  0.59226575781E+01  0.47786283364E+02  0.12129469474E+03  0.13050674206E+03  0.10000000000E+01 0.  0.
<mgrwt>
<rscale>  0 0.12499896E+03</rscale>
<asrwt>0</asrwt>
<pdfrwt beam="1">  1        4 0.10681082E+00 0.12499896E+03</pdfrwt>
<pdfrwt beam="2">  1       -4 0.86558721E-03 0.12499896E+03</pdfrwt>
<totfact> 0.43093129E+03</totfact>
</mgrwt>
</event>
<event>
 5    1  0.3251953E-002  0.1250033E+03  0.7818608E-02  0.1235064E+00
         -4   -1    0    0    0  501 -0.00000000000E+00  0.00000000000E+00  0.37457818327E+03  0.37458033622E+03  0.12700000000E+01 0.  1.
          4   -1    0    0  501    0  0.00000000000E+00 -0.00000000000E+00 -0.10388086856E+02  0.10465431120E+02  0.12700000000E+01 0.  1.
         25    2    1    2    0    0  0.00000000000E+00  0.00000000000E+00  0.36419009641E+03  0.38504576734E+03  0.12500326643E+03 0.  0.
    9000005    1    3    3    0    0 -0.72968326352E+01  0.58761212454E+02  0.12054092862E+03  0.13430278973E+03  0.10000000000E+01 0.  0.
    9000005    1    3    3    0    0  0.72968326352E+01 -0.58761212454E+02  0.24364916779E+03  0.25074297761E+03  0.10000000000E+01 0.  0.
<mgrwt>
<rscale>  0 0.12500327E+03</rscale>
<asrwt>0</asrwt>
<pdfrwt beam="2">  1        4 0.16042825E-02 0.12500327E+03</pdfrwt>
<pdfrwt beam="1">  1       -4 0.57633524E-01 0.12500327E+03</pdfrwt>
<totfact> 0.66028914E+03</totfact>
</mgrwt>
</event>
<event>
 5    1  0.3251953E-002  0.1250018E+03  0.7818608E-02  0.1235066E+00
          4   -1    0    0  501    0  0.00000000000E+00  0.00000000000E+00  0.18506224272E+01  0.22444828732E+01  0.12700000000E+01 0.  1.
         -4   -1    0    0    0  501 -0.00000000000E+00 -0.00000000000E+00 -0.19074257965E+04  0.19074262192E+04  0.12700000000E+01 0.  1.
         25    2    1    2    0    0  0.00000000000E+00  0.00000000000E+00 -0.19055751740E+04  0.19096707021E+04  0.12500178669E+03 0.  0.
    9000005    1    3    3    0    0 -0.51180251237E+02 -0.31189599773E+02 -0.12231337125E+04  0.12246016854E+04  0.10000000000E+01 0.  0.
    9000005    1    3    3    0    0  0.51180251237E+02  0.31189599773E+02 -0.68244146156E+03  0.68506901675E+03  0.10000000000E+01 0.  0.
<mgrwt>
<rscale>  0 0.12500179E+03</rscale>
<asrwt>0</asrwt>
<pdfrwt beam="1">  1        4 0.31504215E-03 0.12500179E+03</pdfrwt>
<pdfrwt beam="2">  1       -4 0.29347903E+00 0.12500179E+03</pdfrwt>
<totfact> 0.11086361E+03</totfact>
</mgrwt>
</event>
<event>
 5    1  0.3251953E-002  0.1249916E+03  0.7818608E-02  0.1235082E+00
          4   -1    0    0  501    0  0.00000000000E+00  0.00000000000E+00  0.70449321154E+01  0.71584892618E+01  0.12700000000E+01 0.  1.
         -4   -1    0    0    0  501 -0.00000000000E+00 -0.00000000000E+00 -0.54985514540E+03  0.54985661205E+03  0.12700000000E+01 0.  1.
         25    2    1    2    0    0  0.00000000000E+00  0.00000000000E+00 -0.54281021328E+03  0.55701510132E+03  0.12499158152E+03 0.  0.
    9000005    1    3    3    0    0  0.38347432591E+02 -0.48922147204E+02 -0.24293217238E+03  0.25076072748E+03  0.10000000000E+01 0.  0.
    9000005    1    3    3    0    0 -0.38347432591E+02  0.48922147204E+02 -0.29987804091E+03  0.30625437383E+03  0.10000000000E+01 0.  0.
<mgrwt>
<rscale>  0 0.12499158E+03</rscale>
<asrwt>0</asrwt>
<pdfrwt beam="1">  1        4 0.10926841E-02 0.12499158E+03</pdfrwt>
<pdfrwt beam="2">  1       -4 0.84601914E-01 0.12499158E+03</pdfrwt>
<totfact> 0.51708015E+03</totfact>
</mgrwt>
</event>
<event>
 5    1  0.3251953E-002  0.1249866E+03  0.7818608E-02  0.1235090E+00
         -4   -1    0    0    0  501 -0.00000000000E+00  0.00000000000E+00  0.29275003681E+03  0.29275279153E+03  0.12700000000E+01 0. -1.
          4   -1    0    0  501    0  0.00000000000E+00 -0.00000000000E+00 -0.13307393346E+02  0.13367857632E+02  0.12700000000E+01 0. -1.
         25    2    1    2    0    0  0.00000000000E+00  0.00000000000E+00  0.27944264346E+03  0.30612064917E+03  0.12498664273E+03 0.  0.
    9000005    1    3    3    0    0  0.16591739690E+02 -0.20675773843E+02  0.27830605534E+03  0.27956758376E+03  0.10000000000E+01 0.  0.
    9000005    1    3    3    0    0 -0.16591739690E+02  0.20675773843E+02  0.11365881213E+01  0.26553065407E+02  0.10000000000E+01 0.  0.
<mgrwt>
<rscale>  0 0.12498664E+03</rscale>
<asrwt>0</asrwt>
<pdfrwt beam="2">  1        4 0.20521543E-02 0.12498664E+03</pdfrwt>
<pdfrwt beam="1">  1       -4 0.45043329E-01 0.12498664E+03</pdfrwt>
<totfact> 0.74859620E+03</totfact>
</mgrwt>
</event>
<event>
 5    1  0.3251953E-002  0.1250145E+03  0.7818608E-02  0.1235047E+00
          4   -1    0    0  501    0  0.00000000000E+00  0.00000000000E+00  0.36401593713E+02  0.36423741225E+02  0.12700000000E+01 0. -1.
         -4   -1    0    0    0  501 -0.00000000000E+00 -0.00000000000E+00 -0.10727616953E+03  0.10728368678E+03  0.12700000000E+01 0. -1.
         25    2    1    2    0    0  0.00000000000E+00  0.00000000000E+00 -0.70874575820E+02  0.14370742801E+03  0.12501447663E+03 0.  0.
    9000005    1    3    3    0    0  0.25999569116E+02 -0.51190434548E+02 -0.70526773542E+01  0.57854804825E+02  0.10000000000E+01 0.  0.
    9000005    1    3    3    0    0 -0.25999569116E+02  0.51190434548E+02 -0.63821898466E+02  0.85852623182E+02  0.10000000000E+01 0.  0.
<mgrwt>
<rscale>  0 0.12501448E+03</rscale>
<asrwt>0</asrwt>
<pdfrwt beam="1">  1        4 0.56025271E-02 0.12501448E+03</pdfrwt>
<pdfrwt beam="2">  1       -4 0.16506308E-01 0.12501448E+03</pdfrwt>
<totfact> 0.10054039E+04</totfact>
</mgrwt>
</event>
<event>
 5    1  0.3251953E-002  0.1250162E+03  0.7818608E-02  0.1235044E+00
          4   -1    0    0  501    0  0.00000000000E+00  0.00000000000E+00  0.55631063976E+03  0.55631208940E+03  0.12700000000E+01 0.  1.
         -4   -1    0    0    0  501 -0.00000000000E+00 -0.00000000000E+00 -0.69646455053E+01  0.70794905900E+01  0.12700000000E+01 0.  1.
         25    2    1    2    0    0  0.00000000000E+00  0.00000000000E+00  0.54934599426E+03  0.56339157999E+03  0.12501620294E+03 0.  0.
    9000005    1    3    3    0    0 -0.51336174434E+02  0.28078031756E+02  0.17568431545E+03  0.18517493720E+03  0.10000000000E+01 0.  0.
    9000005    1    3    3    0    0  0.51336174434E+02 -0.28078031756E+02  0.37366167881E+03  0.37821664279E+03  0.10000000000E+01 0.  0.
<mgrwt>
<rscale>  0 0.12501620E+03</rscale>
<asrwt>0</asrwt>
<pdfrwt beam="1">  1        4 0.85595219E-01 0.12501620E+03</pdfrwt>
<pdfrwt beam="2">  1       -4 0.10804294E-02 0.12501620E+03</pdfrwt>
<totfact> 0.51244863E+03</totfact>
</mgrwt>
</event>
<event>
 5    1  0.3251953E-002  0.1249951E+03  0.7818608E-02  0.1235077E+00
         -4   -1    0    0    0  501 -0.00000000000E+00  0.00000000000E+00  0.24792057319E+03  0.24792382603E+03  0.12700000000E+01 0.  1.
          4   -1    0    0  501    0  0.00000000000E+00 -0.00000000000E+00 -0.15725853159E+02  0.15777051613E+02  0.12700000000E+01 0.  1.
         25    2    1    2    0    0  0.00000000000E+00  0.00000000000E+00  0.23219472003E+03  0.26370087764E+03  0.12499505933E+03 0.  0.
    9000005    1    3    3    0    0  0.39053627293E+02 -0.47296542942E+02  0.14130727194E+03  0.15404834917E+03  0.10000000000E+01 0.  0.
    9000005    1    3    3    0    0 -0.39053627293E+02  0.47296542942E+02  0.90887448094E+02  0.10965252847E+03  0.10000000000E+01 0.  0.
<mgrwt>
<rscale>  0 0.12499506E+03</rscale>
<asrwt>0</asrwt>
<pdfrwt beam="2">  1        4 0.24235506E-02 0.12499506E+03</pdfrwt>
<pdfrwt beam="1">  1       -4 0.38145814E-01 0.12499506E+03</pdfrwt>
<totfact> 0.80398323E+03</totfact>
</mgrwt>
</event>
<event>
 5    1  0.3251953E-002  0.1249980E+03  0.7818608E-02  0.1235072E+00
         -4   -1    0    0    0  501 -0.00000000000E+00  0.00000000000E+00  0.57866137684E+02  0.57880072482E+02  0.12700000000E+01 0.  1.
          4   -1    0    0  501    0  0.00000000000E+00 -0.00000000000E+00 -0.67474751356E+02  0.67486702176E+02  0.12700000000E+01 0.  1.
         25    2    1    2    0    0  0.00000000000E+00  0.00000000000E+00 -0.96086136721E+01  0.12536677466E+03  0.12499801091E+03 0.  0.
    9000005    1    3    3    0    0 -0.56466341210E+02  0.24957393292E+02 -0.14518256474E+02  0.63427903486E+02  0.10000000000E+01 0.  0.
    9000005    1    3    3    0    0  0.56466341210E+02 -0.24957393292E+02  0.49096428015E+01  0.61938871172E+02  0.10000000000E+01 0.  0.
<mgrwt>
<rscale>  0 0.12499801E+03</rscale>
<asrwt>0</asrwt>
<pdfrwt beam="2">  1        4 0.10382722E-01 0.12499801E+03</pdfrwt>
<pdfrwt beam="1">  1       -4 0.89044739E-02 0.12499801E+03</pdfrwt>
<totfact> 0.10445371E+04</totfact>
</mgrwt>
</event>
<event>
 5    1  0.3251953E-002  0.1250039E+03  0.7818608E-02  0.1235063E+00
         -4   -1    0    0    0  501 -0.00000000000E+00  0.00000000000E+00  0.50603569116E+03  0.50603728482E+03  0.12700000000E+01 0. -1.
          4   -1    0    0  501    0  0.00000000000E+00 -0.00000000000E+00 -0.76659487670E+01  0.77704356697E+01  0.12700000000E+01 0. -1.
         25    2    1    2    0    0  0.00000000000E+00  0.00000000000E+00  0.49836974239E+03  0.51380772049E+03  0.12500389395E+03 0.  0.
    9000005    1    3    3    0    0 -0.49252708075E+02 -0.16013396091E+02  0.10542685170E+03  0.11746522535E+03  0.10000000000E+01 0.  0.
    9000005    1    3    3    0    0  0.49252708075E+02  0.16013396091E+02  0.39294289070E+03  0.39634249514E+03  0.10000000000E+01 0.  0.
<mgrwt>
<rscale>  0 0.12500389E+03</rscale>
<asrwt>0</asrwt>
<pdfrwt beam="2">  1        4 0.11875370E-02 0.12500389E+03</pdfrwt>
<pdfrwt beam="1">  1       -4 0.77859792E-01 0.12500389E+03</pdfrwt>
<totfact> 0.54804064E+03</totfact>
</mgrwt>
</event>
<event>
 5    1  0.3251953E-002  0.1250003E+03  0.7818608E-02  0.1235069E+00
          4   -1    0    0  501    0  0.00000000000E+00  0.00000000000E+00  0.17152902421E+02  0.17199853530E+02  0.12700000000E+01 0. -1.
         -4   -1    0    0    0  501 -0.00000000000E+00 -0.00000000000E+00 -0.22737236432E+03  0.22737591112E+03  0.12700000000E+01 0. -1.
         25    2    1    2    0    0  0.00000000000E+00  0.00000000000E+00 -0.21021946190E+03  0.24457576465E+03  0.12500032997E+03 0.  0.
    9000005    1    3    3    0    0 -0.13188697692E+02  0.35200928875E+02 -0.20278750464E+03  0.20624456157E+03  0.10000000000E+01 0.  0.
    9000005    1    3    3    0    0  0.13188697692E+02 -0.35200928875E+02 -0.74319572589E+01  0.38331203074E+02  0.10000000000E+01 0.  0.
<mgrwt>
<rscale>  0 0.12500033E+03</rscale>
<asrwt>0</asrwt>
<pdfrwt beam="1">  1        4 0.26427927E-02 0.12500033E+03</pdfrwt>
<pdfrwt beam="2">  1       -4 0.34984246E-01 0.12500033E+03</pdfrwt>
<totfact> 0.83119963E+03</totfact>
</mgrwt>
</event>
<event>
 5    1  0.3251953E-002  0.1249997E+03  0.7818608E-02  0.1235070E+00
         -4   -1    0    0    0  501 -0.00000000000E+00  0.00000000000E+00  0.58573157365E+01  0.59934170251E+01  0.12700000000E+01 0. -1.
          4   -1    0    0  501    0  0.00000000000E+00 -0.00000000000E+00 -0.65910187076E+03  0.65910309432E+03  0.12700000000E+01 0. -1.
         25    2    1    2    0    0  0.00000000000E+00  0.00000000000E+00 -0.65324455502E+03  0.66509651134E+03  0.12499968293E+03 0.  0.
    9000005    1    3    3    0    0 -0.11581888971E+02 -0.32098944614E+02 -0.48067703384E+02  0.58957497454E+02  0.10000000000E+01 0.  0.
    9000005    1    3    3    0    0  0.11581888971E+02  0.32098944614E+02 -0.60517685164E+03  0.60613901389E+03  0.10000000000E+01 0.  0.
<mgrwt>
<rscale>  0 0.12499968E+03</rscale>
<asrwt>0</asrwt>
<pdfrwt beam="2">  1        4 0.10141079E+00 0.12499968E+03</pdfrwt>
<pdfrwt beam="1">  1       -4 0.91168947E-03 0.12499968E+03</pdfrwt>
<totfact> 0.44994618E+03</totfact>
</mgrwt>
</event>
<event>
 5    1  0.3251953E-002  0.1250011E+03  0.7818608E-02  0.1235068E+00
          4   -1    0    0  501    0  0.00000000000E+00  0.00000000000E+00  0.19831609815E+03  0.19832016460E+03  0.12700000000E+01 0. -1.
         -4   -1    0    0    0  501 -0.00000000000E+00 -0.00000000000E+00 -0.19672702066E+02  0.19713652797E+02  0.12700000000E+01 0. -1.
         25    2    1    2    0    0  0.00000000000E+00  0.00000000000E+00  0.17864339609E+03  0.21803381740E+03  0.12500113025E+03 0.  0.
    9000005    1    3    3    0    0 -0.22111034558E+02 -0.56333038450E+02  0.11651258628E+03  0.13129543721E+03  0.10000000000E+01 0.  0.
    9000005    1    3    3    0    0  0.22111034558E+02  0.56333038450E+02  0.62130809807E+02  0.86738380188E+02  0.10000000000E+01 0.  0.
<mgrwt>
<rscale>  0 0.12500113E+03</rscale>
<asrwt>0</asrwt>
<pdfrwt beam="1">  1        4 0.30513632E-01 0.12500113E+03</pdfrwt>
<pdfrwt beam="2">  1       -4 0.30300324E-02 0.12500113E+03</pdfrwt>
<totfact> 0.87178229E+03</totfact>
</mgrwt>
</event>
<event>
 5    1  0.3251953E-002  0.1250007E+03  0.7818608E-02  0.1235068E+00
         -4   -1    0    0    0  501 -0.00000000000E+00  0.00000000000E+00  0.19307194134E+03  0.19307611824E+03  0.12700000000E+01 0. -1.
          4   -1    0    0  501    0  0.00000000000E+00 -0.00000000000E+00 -0.20207989441E+02  0.20247857596E+02  0.12700000000E+01 0. -1.
         25    2    1    2    0    0  0.00000000000E+00  0.00000000000E+00  0.17286395190E+03  0.21332397583E+03  0.12500069119E+03 0.  0.
    9000005    1    3    3    0    0  0.20042947715E+02  0.11970339477E+02 -0.12495123096E+02  0.26497865603E+02  0.10000000000E+01 0.  0.
    9000005    1    3    3    0    0 -0.20042947715E+02 -0.11970339477E+02  0.18535907500E+03  0.18682611023E+03  0.10000000000E+01 0.  0.
<mgrwt>
<rscale>  0 0.12500069E+03</rscale>
<asrwt>0</asrwt>
<pdfrwt beam="2">  1        4 0.31123097E-02 0.12500069E+03</pdfrwt>
<pdfrwt beam="1">  1       -4 0.29706762E-01 0.12500069E+03</pdfrwt>
<totfact> 0.87934535E+03</totfact>
</mgrwt>
</event>
<event>
 5    1  0.3251953E-002  0.1249956E+03  0.7818608E-02  0.1235076E+00
         -4   -1    0    0    0  501 -0.00000000000E+00  0.00000000000E+00  0.37607183474E+03  0.37607397914E+03  0.12700000000E+01 0.  1.
          4   -1    0    0  501    0  0.00000000000E+00 -0.00000000000E+00 -0.10345244908E+02  0.10422907090E+02  0.12700000000E+01 0.  1.
         25    2    1    2    0    0  0.00000000000E+00  0.00000000000E+00  0.36572658983E+03  0.38649688623E+03  0.12499561814E+03 0.  0.
    9000005    1    3    3    0    0  0.51078082844E+02 -0.35881414087E+02  0.19189393352E+03  0.20179377629E+03  0.10000000000E+01 0.  0.
    9000005    1    3    3    0    0 -0.51078082844E+02  0.35881414087E+02  0.17383265631E+03  0.18470310994E+03  0.10000000000E+01 0.  0.
<mgrwt>
<rscale>  0 0.12499562E+03</rscale>
<asrwt>0</asrwt>
<pdfrwt beam="2">  1        4 0.15977152E-02 0.12499562E+03</pdfrwt>
<pdfrwt beam="1">  1       -4 0.57863343E-01 0.12499562E+03</pdfrwt>
<totfact> 0.65893998E+03</totfact>
</mgrwt>
</event>
<event>
 5    1  0.3251953E-002  0.1250016E+03  0.7818608E-02  0.1235067E+00
         -4   -1    0    0    0  501 -0.00000000000E+00  0.00000000000E+00  0.23752268447E+01  0.26934369426E+01  0.12700000000E+01 0. -1.
          4   -1    0    0  501    0  0.00000000000E+00 -0.00000000000E+00 -0.15410543680E+04  0.15410548913E+04  0.12700000000E+01 0. -1.
         25    2    1    2    0    0  0.00000000000E+00  0.00000000000E+00 -0.15386791412E+04  0.15437483283E+04  0.12500160622E+03 0.  0.
    9000005    1    3    3    0    0 -0.53838771952E+02 -0.23821006100E+02 -0.51049451505E+03  0.51387907487E+03  0.10000000000E+01 0.  0.
    9000005    1    3    3    0    0  0.53838771952E+02  0.23821006100E+02 -0.10281846261E+04  0.10298692534E+04  0.10000000000E+01 0.  0.
<mgrwt>
<rscale>  0 0.12500161E+03</rscale>
<asrwt>0</asrwt>
<pdfrwt beam="2">  1        4 0.23710906E+00 0.12500161E+03</pdfrwt>
<pdfrwt beam="1">  1       -4 0.38993870E-03 0.12500161E+03</pdfrwt>
<totfact> 0.17085785E+03</totfact>
</mgrwt>
</event>
<event>
 5    1  0.3251953E-002  0.1250006E+03  0.7818608E-02  0.1235068E+00
          4   -1    0    0  501    0  0.00000000000E+00  0.00000000000E+00  0.67463972297E+01  0.68648944333E+01  0.12700000000E+01 0. -1.
         -4   -1    0    0    0  501 -0.00000000000E+00 -0.00000000000E+00 -0.57385806494E+03  0.57385947025E+03  0.12700000000E+01 0. -1.
         25    2    1    2    0    0  0.00000000000E+00  0.00000000000E+00 -0.56711166771E+03  0.58072436468E+03  0.12500057634E+03 0.  0.
    9000005    1    3    3    0    0  0.27368487004E+02 -0.55768717243E+02 -0.31509995762E+03  0.32116688371E+03  0.10000000000E+01 0.  0.
    9000005    1    3    3    0    0 -0.27368487004E+02  0.55768717243E+02 -0.25201171009E+03  0.25955748097E+03  0.10000000000E+01 0.  0.
<mgrwt>
<rscale>  0 0.12500058E+03</rscale>
<asrwt>0</asrwt>
<pdfrwt beam="1">  1        4 0.10471310E-02 0.12500058E+03</pdfrwt>
<pdfrwt beam="2">  1       -4 0.88295041E-01 0.12500058E+03</pdfrwt>
<totfact> 0.50106778E+03</totfact>
</mgrwt>
</event>
<event>
 5    1  0.3251953E-002  0.1249918E+03  0.7818608E-02  0.1235082E+00
         -4   -1    0    0    0  501 -0.00000000000E+00  0.00000000000E+00  0.56691955553E+02  0.56706178891E+02  0.12700000000E+01 0.  1.
          4   -1    0    0  501    0  0.00000000000E+00 -0.00000000000E+00 -0.68865271923E+02  0.68876981474E+02  0.12700000000E+01 0.  1.
         25    2    1    2    0    0  0.00000000000E+00  0.00000000000E+00 -0.12173316370E+02  0.12558316037E+03  0.12499176187E+03 0.  0.
    9000005    1    3    3    0    0  0.40219142104E+02 -0.14068095286E+02  0.39837863899E+02  0.58339918552E+02  0.10000000000E+01 0.  0.
    9000005    1    3    3    0    0 -0.40219142104E+02  0.14068095286E+02 -0.52011180269E+02  0.67243241813E+02  0.10000000000E+01 0.  0.
<mgrwt>
<rscale>  0 0.12499176E+03</rscale>
<asrwt>0</asrwt>
<pdfrwt beam="2">  1        4 0.10596652E-01 0.12499176E+03</pdfrwt>
<pdfrwt beam="1">  1       -4 0.87238341E-02 0.12499176E+03</pdfrwt>
<totfact> 0.10442059E+04</totfact>
</mgrwt>
</event>
<event>
 5    1  0.3251953E-002  0.1250012E+03  0.7818608E-02  0.1235067E+00
          4   -1    0    0  501    0  0.00000000000E+00  0.00000000000E+00  0.99848981745E+03  0.99849062512E+03  0.12700000000E+01 0.  1.
         -4   -1    0    0    0  501 -0.00000000000E+00 -0.00000000000E+00 -0.38083320707E+01  0.40145103264E+01  0.12700000000E+01 0.  1.
         25    2    1    2    0    0  0.00000000000E+00  0.00000000000E+00  0.99468148538E+03  0.10025051354E+04  0.12500115695E+03 0.  0.
    9000005    1    3    3    0    0  0.46245900769E+02 -0.12245005787E+02  0.17487236550E+03  0.18130076591E+03  0.10000000000E+01 0.  0.
    9000005    1    3    3    0    0 -0.46245900769E+02  0.12245005787E+02  0.81980911988E+03  0.82120436953E+03  0.10000000000E+01 0.  0.
<mgrwt>
<rscale>  0 0.12500116E+03</rscale>
<asrwt>0</asrwt>
<pdfrwt beam="1">  1        4 0.15362983E+00 0.12500116E+03</pdfrwt>
<pdfrwt beam="2">  1       -4 0.60181889E-03 0.12500116E+03</pdfrwt>
<totfact> 0.30521121E+03</totfact>
</mgrwt>
</event>
<event>
 5    1  0.3251953E-002  0.1250002E+03  0.7818608E-02  0.1235069E+00
          4   -1    0    0  501    0  0.00000000000E+00  0.00000000000E+00  0.41897224254E+01  0.43779760166E+01  0.12700000000E+01 0.  1.
         -4   -1    0    0    0  501 -0.00000000000E+00 -0.00000000000E+00 -0.91166963136E+03  0.91167051595E+03  0.12700000000E+01 0.  1.
         25    2    1    2    0    0  0.00000000000E+00  0.00000000000E+00 -0.90747990894E+03  0.91604849197E+03  0.12500021802E+03 0.  0.
    9000005    1    3    3    0    0  0.56123834754E+02  0.24645049364E+02 -0.54289358873E+03  0.54634395025E+03  0.10000000000E+01 0.  0.
    9000005    1    3    3    0    0 -0.56123834754E+02 -0.24645049364E+02 -0.36458632021E+03  0.36970454172E+03  0.10000000000E+01 0.  0.
<mgrwt>
<rscale>  0 0.12500022E+03</rscale>
<asrwt>0</asrwt>
<pdfrwt beam="1">  1        4 0.65912250E-03 0.12500022E+03</pdfrwt>
<pdfrwt beam="2">  1       -4 0.14027126E+00 0.12500022E+03</pdfrwt>
<totfact> 0.33552694E+03</totfact>
</mgrwt>
</event>
<event>
 5    1  0.3251953E-002  0.1250017E+03  0.7818608E-02  0.1235067E+00
          4   -1    0    0  501    0  0.00000000000E+00  0.00000000000E+00  0.18280293246E+02  0.18324355954E+02  0.12700000000E+01 0. -1.
         -4   -1    0    0    0  501 -0.00000000000E+00 -0.00000000000E+00 -0.21338898659E+03  0.21339276580E+03  0.12700000000E+01 0. -1.
         25    2    1    2    0    0  0.00000000000E+00  0.00000000000E+00 -0.19510869334E+03  0.23171712176E+03  0.12500168918E+03 0.  0.
    9000005    1    3    3    0    0  0.48469769779E+02  0.38850986223E+02 -0.84894992290E+02  0.10519922732E+03  0.10000000000E+01 0.  0.
    9000005    1    3    3    0    0 -0.48469769779E+02 -0.38850986223E+02 -0.11021370105E+03  0.12651789444E+03  0.10000000000E+01 0.  0.
<mgrwt>
<rscale>  0 0.12500169E+03</rscale>
<asrwt>0</asrwt>
<pdfrwt beam="1">  1        4 0.28160331E-02 0.12500169E+03</pdfrwt>
<pdfrwt beam="2">  1       -4 0.32832753E-01 0.12500169E+03</pdfrwt>
<totfact> 0.85043423E+03</totfact>
</mgrwt>
</event>
<event>
 5    1  0.3251953E-002  0.1250001E+03  0.7818608E-02  0.1235069E+00
         -4   -1    0    0    0  501 -0.00000000000E+00  0.00000000000E+00  0.33375354135E+03  0.33375595764E+03  0.12700000000E+01 0. -1.
          4   -1    0    0  501    0  0.00000000000E+00 -0.00000000000E+00 -0.11667089050E+02  0.11736007281E+02  0.12700000000E+01 0. -1.
         25    2    1    2    0    0  0.00000000000E+00  0.00000000000E+00  0.32208645230E+03  0.34549196492E+03  0.12500006029E+03 0.  0.
    9000005    1    3    3    0    0 -0.15791187085E+02 -0.18940119147E+02  0.31975092984E+03  0.32070195952E+03  0.10000000000E+01 0.  0.
    9000005    1    3    3    0    0  0.15791187085E+02  0.18940119147E+02  0.23355224536E+01  0.24790005405E+02  0.10000000000E+01 0.  0.
<mgrwt>
<rscale>  0 0.12500006E+03</rscale>
<asrwt>0</asrwt>
<pdfrwt beam="2">  1        4 0.18004242E-02 0.12500006E+03</pdfrwt>
<pdfrwt beam="1">  1       -4 0.51352182E-01 0.12500006E+03</pdfrwt>
<totfact> 0.70223265E+03</totfact>
</mgrwt>
</event>
<event>
 5    1  0.3251953E-002  0.1249942E+03  0.7818608E-02  0.1235078E+00
          4   -1    0    0  501    0  0.00000000000E+00  0.00000000000E+00  0.37495718816E+02  0.37517220440E+02  0.12700000000E+01 0.  1.
         -4   -1    0    0    0  501 -0.00000000000E+00 -0.00000000000E+00 -0.10411362774E+03  0.10412137332E+03  0.12700000000E+01 0.  1.
         25    2    1    2    0    0  0.00000000000E+00  0.00000000000E+00 -0.66617908924E+02  0.14163859375E+03  0.12499418167E+03 0.  0.
    9000005    1    3    3    0    0  0.34383545027E+02 -0.46046355892E+02 -0.61120886236E+02  0.83900284826E+02  0.10000000000E+01 0.  0.
    9000005    1    3    3    0    0 -0.34383545027E+02  0.46046355892E+02 -0.54970226874E+01  0.57738308929E+02  0.10000000000E+01 0.  0.
<mgrwt>
<rscale>  0 0.12499418E+03</rscale>
<asrwt>0</asrwt>
<pdfrwt beam="1">  1        4 0.57708220E-02 0.12499418E+03</pdfrwt>
<pdfrwt beam="2">  1       -4 0.16019731E-01 0.12499418E+03</pdfrwt>
<totfact> 0.10101061E+04</totfact>
</mgrwt>
</event>
<event>
 5    1  0.3251953E-002  0.1249949E+03  0.7818608E-02  0.1235077E+00
          4   -1    0    0  501    0  0.00000000000E+00  0.00000000000E+00  0.56295598296E+01  0.57710349050E+01  0.12700000000E+01 0. -1.
         -4   -1    0    0    0  501 -0.00000000000E+00 -0.00000000000E+00 -0.68507289804E+03  0.68507407521E+03  0.12700000000E+01 0. -1.
         25    2    1    2    0    0  0.00000000000E+00  0.00000000000E+00 -0.67944333821E+03  0.69084511012E+03  0.12499486524E+03 0.  0.
    9000005    1    3    3    0    0 -0.56966303047E+00 -0.61359363518E+02 -0.40503211800E+03  0.40965511423E+03  0.10000000000E+01 0.  0.
    9000005    1    3    3    0    0  0.56966303047E+00  0.61359363518E+02 -0.27441122021E+03  0.28118999589E+03  0.10000000000E+01 0.  0.
<mgrwt>
<rscale>  0 0.12499487E+03</rscale>
<asrwt>0</asrwt>
<pdfrwt beam="1">  1        4 0.87705992E-03 0.12499487E+03</pdfrwt>
<pdfrwt beam="2">  1       -4 0.10540674E+00 0.12499487E+03</pdfrwt>
<totfact> 0.43579308E+03</totfact>
</mgrwt>
</event>
<event>
 5    1  0.3251953E-002  0.1250013E+03  0.7818608E-02  0.1235067E+00
          4   -1    0    0  501    0  0.00000000000E+00  0.00000000000E+00  0.40781734792E+03  0.40781932539E+03  0.12700000000E+01 0. -1.
         -4   -1    0    0    0  501 -0.00000000000E+00 -0.00000000000E+00 -0.95345205430E+01  0.96187307887E+01  0.12700000000E+01 0. -1.
         25    2    1    2    0    0  0.00000000000E+00  0.00000000000E+00  0.39828282737E+03  0.41743805618E+03  0.12500128066E+03 0.  0.
    9000005    1    3    3    0    0  0.27945313553E+02 -0.14627587776E+02  0.18982544831E+02  0.36827216593E+02  0.10000000000E+01 0.  0.
    9000005    1    3    3    0    0 -0.27945313553E+02  0.14627587776E+02  0.37930028254E+03  0.38061083959E+03  0.10000000000E+01 0.  0.
<mgrwt>
<rscale>  0 0.12500128E+03</rscale>
<asrwt>0</asrwt>
<pdfrwt beam="1">  1        4 0.62747747E-01 0.12500128E+03</pdfrwt>
<pdfrwt beam="2">  1       -4 0.14734795E-02 0.12500128E+03</pdfrwt>
<totfact> 0.62889629E+03</totfact>
</mgrwt>
</event>
<event>
 5    1  0.3251953E-002  0.1250000E+03  0.7818608E-02  0.1235069E+00
         -4   -1    0    0    0  501 -0.00000000000E+00  0.00000000000E+00  0.64238399107E+03  0.64238524647E+03  0.12700000000E+01 0.  1.
          4   -1    0    0  501    0  0.00000000000E+00 -0.00000000000E+00 -0.60132741496E+01  0.61459227134E+01  0.12700000000E+01 0.  1.
         25    2    1    2    0    0  0.00000000000E+00  0.00000000000E+00  0.63637071692E+03  0.64853116919E+03  0.12499995220E+03 0.  0.
    9000005    1    3    3    0    0  0.24521813178E+02  0.56860181304E+02  0.27451535879E+03  0.28141443060E+03  0.10000000000E+01 0.  0.
    9000005    1    3    3    0    0 -0.24521813178E+02 -0.56860181304E+02  0.36185535813E+03  0.36711673858E+03  0.10000000000E+01 0.  0.
<mgrwt>
<rscale>  0 0.12499995E+03</rscale>
<asrwt>0</asrwt>
<pdfrwt beam="2">  1        4 0.93541904E-03 0.12499995E+03</pdfrwt>
<pdfrwt beam="1">  1       -4 0.98838646E-01 0.12499995E+03</pdfrwt>
<totfact> 0.45940676E+03</totfact>
</mgrwt>
</event>
<event>
 5    1  0.3251953E-002  0.1249990E+03  0.7818608E-02  0.1235071E+00
         -4   -1    0    0    0  501 -0.00000000000E+00  0.00000000000E+00  0.41229370474E+02  0.41248925922E+02  0.12700000000E+01 0.  1.
          4   -1    0    0  501    0  0.00000000000E+00 -0.00000000000E+00 -0.94696590194E+02  0.94705105958E+02  0.12700000000E+01 0.  1.
         25    2    1    2    0    0  0.00000000000E+00  0.00000000000E+00 -0.53467219720E+02  0.13595403188E+03  0.12499902079E+03 0.  0.
    9000005    1    3    3    0    0 -0.27906215036E+02  0.35270293045E+02 -0.73923163174E+02  0.86535452057E+02  0.10000000000E+01 0.  0.
    9000005    1    3    3    0    0  0.27906215036E+02 -0.35270293045E+02  0.20455943453E+02  0.49418579822E+02  0.10000000000E+01 0.  0.
<mgrwt>
<rscale>  0 0.12499902E+03</rscale>
<asrwt>0</asrwt>
<pdfrwt beam="2">  1        4 0.14570865E-01 0.12499902E+03</pdfrwt>
<pdfrwt beam="1">  1       -4 0.63451394E-02 0.12499902E+03</pdfrwt>
<totfact> 0.10218227E+04</totfact>
</mgrwt>
</event>
<event>
 5    1  0.3251953E-002  0.1250001E+03  0.7818608E-02  0.1235069E+00
          4   -1    0    0  501    0  0.00000000000E+00  0.00000000000E+00  0.65213526382E+02  0.65225891509E+02  0.12700000000E+01 0.  1.
         -4   -1    0    0    0  501 -0.00000000000E+00 -0.00000000000E+00 -0.59874681152E+02  0.59888148603E+02  0.12700000000E+01 0.  1.
         25    2    1    2    0    0  0.00000000000E+00  0.00000000000E+00  0.53388452295E+01  0.12511404011E+03  0.12500007906E+03 0.  0.
    9000005    1    3    3    0    0 -0.30671971089E+02  0.53483158290E+02  0.12878570221E+02  0.62992663082E+02  0.10000000000E+01 0.  0.
    9000005    1    3    3    0    0  0.30671971089E+02 -0.53483158290E+02 -0.75397249918E+01  0.62121377030E+02  0.10000000000E+01 0.  0.
<mgrwt>
<rscale>  0 0.12500008E+03</rscale>
<asrwt>0</asrwt>
<pdfrwt beam="1">  1        4 0.10034837E-01 0.12500008E+03</pdfrwt>
<pdfrwt beam="2">  1       -4 0.92134766E-02 0.12500008E+03</pdfrwt>
<totfact> 0.10450368E+04</totfact>
</mgrwt>
</event>
<event>
 5    1  0.3251953E-002  0.1249999E+03  0.7818608E-02  0.1235069E+00
          4   -1    0    0  501    0  0.00000000000E+00  0.00000000000E+00  0.20247173941E+03  0.20247572239E+03  0.12700000000E+01 0. -1.
         -4   -1    0    0    0  501 -0.00000000000E+00 -0.00000000000E+00 -0.19267707292E+02  0.19309516936E+02  0.12700000000E+01 0. -1.
         25    2    1    2    0    0  0.00000000000E+00  0.00000000000E+00  0.18320403211E+03  0.22178523933E+03  0.12499990000E+03 0.  0.
    9000005    1    3    3    0    0 -0.19893901765E+02 -0.57507957138E+02  0.11683874315E+03  0.13173922864E+03  0.10000000000E+01 0.  0.
    9000005    1    3    3    0    0  0.19893901765E+02  0.57507957138E+02  0.66365288968E+02  0.90046010692E+02  0.10000000000E+01 0.  0.
<mgrwt>
<rscale>  0 0.12499990E+03</rscale>
<asrwt>0</asrwt>
<pdfrwt beam="1">  1        4 0.31153021E-01 0.12499990E+03</pdfrwt>
<pdfrwt beam="2">  1       -4 0.29677852E-02 0.12499990E+03</pdfrwt>
<totfact> 0.86586838E+03</totfact>
</mgrwt>
</event>
<event>
 5    1  0.3251953E-002  0.1250006E+03  0.7818608E-02  0.1235068E+00
          4   -1    0    0  501    0  0.00000000000E+00  0.00000000000E+00  0.43276271285E+03  0.43276457634E+03  0.12700000000E+01 0. -1.
         -4   -1    0    0    0  501 -0.00000000000E+00 -0.00000000000E+00 -0.89798381593E+01  0.90692002606E+01  0.12700000000E+01 0. -1.
         25    2    1    2    0    0  0.00000000000E+00  0.00000000000E+00  0.42378287469E+03  0.44183377660E+03  0.12500064505E+03 0.  0.
    9000005    1    3    3    0    0 -0.33864856702E+02 -0.41491913867E+02  0.98073290354E+02  0.11174872579E+03  0.10000000000E+01 0.  0.
    9000005    1    3    3    0    0  0.33864856702E+02  0.41491913867E+02  0.32570958433E+03  0.33008505080E+03  0.10000000000E+01 0.  0.
<mgrwt>
<rscale>  0 0.12500065E+03</rscale>
<asrwt>0</asrwt>
<pdfrwt beam="1">  1        4 0.66585897E-01 0.12500065E+03</pdfrwt>
<pdfrwt beam="2">  1       -4 0.13885309E-02 0.12500065E+03</pdfrwt>
<totfact> 0.60676921E+03</totfact>
</mgrwt>
</event>
<event>
 5    1  0.3251953E-002  0.1249957E+03  0.7818608E-02  0.1235076E+00
         -4   -1    0    0    0  501 -0.00000000000E+00  0.00000000000E+00  0.21305929770E+02  0.21343747172E+02  0.12700000000E+01 0.  1.
          4   -1    0    0  501    0  0.00000000000E+00 -0.00000000000E+00 -0.18312574405E+03  0.18313014781E+03  0.12700000000E+01 0.  1.
         25    2    1    2    0    0  0.00000000000E+00  0.00000000000E+00 -0.16181981428E+03  0.20447389498E+03  0.12499568565E+03 0.  0.
    9000005    1    3    3    0    0 -0.23037674969E+02 -0.53377260070E+02 -0.43423860242E+02  0.72570641439E+02  0.10000000000E+01 0.  0.
    9000005    1    3    3    0    0  0.23037674969E+02  0.53377260070E+02 -0.11839595404E+03  0.13190325354E+03  0.10000000000E+01 0.  0.
<mgrwt>
<rscale>  0 0.12499569E+03</rscale>
<asrwt>0</asrwt>
<pdfrwt beam="2">  1        4 0.28176438E-01 0.12499569E+03</pdfrwt>
<pdfrwt beam="1">  1       -4 0.32810833E-02 0.12499569E+03</pdfrwt>
<totfact> 0.89395021E+03</totfact>
</mgrwt>
</event>
<event>
 5    1  0.3251953E-002  0.1250032E+03  0.7818608E-02  0.1235064E+00
          4   -1    0    0  501    0  0.00000000000E+00  0.00000000000E+00  0.73757266103E+01  0.74842663655E+01  0.12700000000E+01 0.  1.
         -4   -1    0    0    0  501 -0.00000000000E+00 -0.00000000000E+00 -0.52565769759E+03  0.52565923176E+03  0.12700000000E+01 0.  1.
         25    2    1    2    0    0  0.00000000000E+00  0.00000000000E+00 -0.51828197098E+03  0.53314349813E+03  0.12500315257E+03 0.  0.
    9000005    1    3    3    0    0  0.19520893157E+02  0.40105584807E+02 -0.72454761554E+02  0.85089456892E+02  0.10000000000E+01 0.  0.
    9000005    1    3    3    0    0 -0.19520893157E+02 -0.40105584807E+02 -0.44582720943E+03  0.44805404124E+03  0.10000000000E+01 0.  0.
<mgrwt>
<rscale>  0 0.12500315E+03</rscale>
<asrwt>0</asrwt>
<pdfrwt beam="1">  1        4 0.11431948E-02 0.12500315E+03</pdfrwt>
<pdfrwt beam="2">  1       -4 0.80878853E-01 0.12500315E+03</pdfrwt>
<totfact> 0.53377832E+03</totfact>
</mgrwt>
</event>
<event>
 5    1  0.3251953E-002  0.1250011E+03  0.7818608E-02  0.1235068E+00
          4   -1    0    0  501    0  0.00000000000E+00  0.00000000000E+00  0.48924085595E+03  0.48924250432E+03  0.12700000000E+01 0.  1.
         -4   -1    0    0    0  501 -0.00000000000E+00 -0.00000000000E+00 -0.79322702872E+01  0.80332939639E+01  0.12700000000E+01 0.  1.
         25    2    1    2    0    0  0.00000000000E+00  0.00000000000E+00  0.48130858566E+03  0.49727579828E+03  0.12500105969E+03 0.  0.
    9000005    1    3    3    0    0  0.51356391076E+02 -0.28194353984E+02  0.15414246094E+03  0.16490390768E+03  0.10000000000E+01 0.  0.
    9000005    1    3    3    0    0 -0.51356391076E+02  0.28194353984E+02  0.32716612472E+03  0.33237189061E+03  0.10000000000E+01 0.  0.
<mgrwt>
<rscale>  0 0.12500106E+03</rscale>
<asrwt>0</asrwt>
<pdfrwt beam="1">  1        4 0.75275732E-01 0.12500106E+03</pdfrwt>
<pdfrwt beam="2">  1       -4 0.12282470E-02 0.12500106E+03</pdfrwt>
<totfact> 0.56075039E+03</totfact>
</mgrwt>
</event>
<event>
 5    1  0.3251953E-002  0.1250015E+03  0.7818608E-02  0.1235067E+00
          4   -1    0    0  501    0  0.00000000000E+00  0.00000000000E+00  0.43077206139E+02  0.43095923111E+02  0.12700000000E+01 0.  1.
         -4   -1    0    0    0  501 -0.00000000000E+00 -0.00000000000E+00 -0.90639513918E+02  0.90648410815E+02  0.12700000000E+01 0.  1.
         25    2    1    2    0    0  0.00000000000E+00  0.00000000000E+00 -0.47562307778E+02  0.13374433393E+03  0.12500149493E+03 0.  0.
    9000005    1    3    3    0    0 -0.21984357610E+01 -0.50973486101E+02 -0.62391293338E+02  0.80602747406E+02  0.10000000000E+01 0.  0.
    9000005    1    3    3    0    0  0.21984357610E+01  0.50973486101E+02  0.14828985559E+02  0.53141586519E+02  0.10000000000E+01 0.  0.
<mgrwt>
<rscale>  0 0.12500149E+03</rscale>
<asrwt>0</asrwt>
<pdfrwt beam="1">  1        4 0.66293866E-02 0.12500149E+03</pdfrwt>
<pdfrwt beam="2">  1       -4 0.13946665E-01 0.12500149E+03</pdfrwt>
<totfact> 0.10264259E+04</totfact>
</mgrwt>
</event>
<event>
 5    1  0.3251953E-002  0.1249997E+03  0.7818608E-02  0.1235070E+00
          4   -1    0    0  501    0  0.00000000000E+00  0.00000000000E+00  0.15316006028E+02  0.15368569896E+02  0.12700000000E+01 0. -1.
         -4   -1    0    0    0  501 -0.00000000000E+00 -0.00000000000E+00 -0.25455143742E+03  0.25455460553E+03  0.12700000000E+01 0. -1.
         25    2    1    2    0    0  0.00000000000E+00  0.00000000000E+00 -0.23923543140E+03  0.26992317542E+03  0.12499971598E+03 0.  0.
    9000005    1    3    3    0    0 -0.13773494620E+02 -0.59497754341E+02 -0.14822783012E+03  0.16031899934E+03  0.10000000000E+01 0.  0.
    9000005    1    3    3    0    0  0.13773494620E+02  0.59497754341E+02 -0.91007601272E+02  0.10960417608E+03  0.10000000000E+01 0.  0.
<mgrwt>
<rscale>  0 0.12499972E+03</rscale>
<asrwt>0</asrwt>
<pdfrwt beam="1">  1        4 0.23605959E-02 0.12499972E+03</pdfrwt>
<pdfrwt beam="2">  1       -4 0.39166044E-01 0.12499972E+03</pdfrwt>
<totfact> 0.79533846E+03</totfact>
</mgrwt>
</event>
<event>
 5    1  0.3251953E-002  0.1249990E+03  0.7818608E-02  0.1235071E+00
         -4   -1    0    0    0  501 -0.00000000000E+00  0.00000000000E+00  0.72693527856E+03  0.72693638794E+03  0.12700000000E+01 0. -1.
          4   -1    0    0  501    0  0.00000000000E+00 -0.00000000000E+00 -0.52973303850E+01  0.54474406107E+01  0.12700000000E+01 0. -1.
         25    2    1    2    0    0  0.00000000000E+00  0.00000000000E+00  0.72163794817E+03  0.73238382855E+03  0.12499897632E+03 0.  0.
    9000005    1    3    3    0    0  0.49507165744E+02 -0.30427641577E+02  0.49550036947E+03  0.49889720081E+03  0.10000000000E+01 0.  0.
    9000005    1    3    3    0    0 -0.49507165744E+02  0.30427641577E+02  0.22613757870E+03  0.23348662774E+03  0.10000000000E+01 0.  0.
<mgrwt>
<rscale>  0 0.12499898E+03</rscale>
<asrwt>0</asrwt>
<pdfrwt beam="2">  1        4 0.82660654E-03 0.12499898E+03</pdfrwt>
<pdfrwt beam="1">  1       -4 0.11184778E+00 0.12499898E+03</pdfrwt>
<totfact> 0.41432166E+03</totfact>
</mgrwt>
</event>
<event>
 5    1  0.3251953E-002  0.1249967E+03  0.7818608E-02  0.1235074E+00
         -4   -1    0    0    0  501 -0.00000000000E+00  0.00000000000E+00  0.22492929716E+02  0.22528754675E+02  0.12700000000E+01 0. -1.
          4   -1    0    0  501    0  0.00000000000E+00 -0.00000000000E+00 -0.17348029694E+03  0.17348494554E+03  0.12700000000E+01 0. -1.
         25    2    1    2    0    0  0.00000000000E+00  0.00000000000E+00 -0.15098736723E+03  0.19601370021E+03  0.12499674239E+03 0.  0.
    9000005    1    3    3    0    0  0.19162424714E+02  0.59292100567E+02 -0.82898059646E+02  0.10371036594E+03  0.10000000000E+01 0.  0.
    9000005    1    3    3    0    0 -0.19162424714E+02 -0.59292100567E+02 -0.68089307583E+02  0.92303334272E+02  0.10000000000E+01 0.  0.
<mgrwt>
<rscale>  0 0.12499674E+03</rscale>
<asrwt>0</asrwt>
<pdfrwt beam="2">  1        4 0.26692389E-01 0.12499674E+03</pdfrwt>
<pdfrwt beam="1">  1       -4 0.34635642E-02 0.12499674E+03</pdfrwt>
<totfact> 0.90817974E+03</totfact>
</mgrwt>
</event>
<event>
 5    1  0.3251953E-002  0.1249903E+03  0.7818608E-02  0.1235085E+00
         -4   -1    0    0    0  501 -0.00000000000E+00  0.00000000000E+00  0.49083052593E+01  0.50699467964E+01  0.12700000000E+01 0. -1.
          4   -1    0    0  501    0  0.00000000000E+00 -0.00000000000E+00 -0.78266860815E+03  0.78266963853E+03  0.12700000000E+01 0. -1.
         25    2    1    2    0    0  0.00000000000E+00  0.00000000000E+00 -0.77776030289E+03  0.78773958533E+03  0.12499026180E+03 0.  0.
    9000005    1    3    3    0    0 -0.60649028284E+02 -0.15033506910E+02 -0.39250293560E+03  0.39744668248E+03  0.10000000000E+01 0.  0.
    9000005    1    3    3    0    0  0.60649028284E+02  0.15033506910E+02 -0.38525736729E+03  0.39029290285E+03  0.10000000000E+01 0.  0.
<mgrwt>
<rscale>  0 0.12499026E+03</rscale>
<asrwt>0</asrwt>
<pdfrwt beam="2">  1        4 0.12042297E+00 0.12499026E+03</pdfrwt>
<pdfrwt beam="1">  1       -4 0.76763773E-03 0.12499026E+03</pdfrwt>
<totfact> 0.38826249E+03</totfact>
</mgrwt>
</event>
<event>
 5    1  0.3251953E-002  0.1250009E+03  0.7818608E-02  0.1235068E+00
         -4   -1    0    0    0  501 -0.00000000000E+00  0.00000000000E+00  0.21525206442E+02  0.21562639272E+02  0.12700000000E+01 0.  1.
          4   -1    0    0  501    0  0.00000000000E+00 -0.00000000000E+00 -0.18127848577E+03  0.18128293440E+03  0.12700000000E+01 0.  1.
         25    2    1    2    0    0  0.00000000000E+00  0.00000000000E+00 -0.15975327933E+03  0.20284557367E+03  0.12500086600E+03 0.  0.
    9000005    1    3    3    0    0  0.25815003428E+02  0.39109106648E+02 -0.14696856189E+03  0.15426177365E+03  0.10000000000E+01 0.  0.
    9000005    1    3    3    0    0 -0.25815003428E+02 -0.39109106648E+02 -0.12784717444E+02  0.48583800025E+02  0.10000000000E+01 0.  0.
<mgrwt>
<rscale>  0 0.12500087E+03</rscale>
<asrwt>0</asrwt>
<pdfrwt beam="2">  1        4 0.27892218E-01 0.12500087E+03</pdfrwt>
<pdfrwt beam="1">  1       -4 0.33147920E-02 0.12500087E+03</pdfrwt>
<totfact> 0.89656050E+03</totfact>
</mgrwt>
</event>
<event>
 5    1  0.3251953E-002  0.1249985E+03  0.7818608E-02  0.1235072E+00
          4   -1    0    0  501    0  0.00000000000E+00  0.00000000000E+00  0.96739824999E+02  0.96748160917E+02  0.12700000000E+01 0.  1.
         -4   -1    0    0    0  501 -0.00000000000E+00 -0.00000000000E+00 -0.40357874840E+02  0.40377852365E+02  0.12700000000E+01 0.  1.
         25    2    1    2    0    0  0.00000000000E+00  0.00000000000E+00  0.56381950159E+02  0.13712601328E+03  0.12499847685E+03 0.  0.
    9000005    1    3    3    0    0 -0.19533400294E+01  0.22740079066E+02 -0.35627282196E+02  0.42322924873E+02  0.10000000000E+01 0.  0.
    9000005    1    3    3    0    0  0.19533400294E+01 -0.22740079066E+02  0.92009232355E+02  0.94803088408E+02  0.10000000000E+01 0.  0.
<mgrwt>
<rscale>  0 0.12499848E+03</rscale>
<asrwt>0</asrwt>
<pdfrwt beam="1">  1        4 0.14885228E-01 0.12499848E+03</pdfrwt>
<pdfrwt beam="2">  1       -4 0.62110818E-02 0.12499848E+03</pdfrwt>
<totfact> 0.10193802E+04</totfact>
</mgrwt>
</event>
<event>
 5    1  0.3251953E-002  0.1249999E+03  0.7818608E-02  0.1235069E+00
          4   -1    0    0  501    0  0.00000000000E+00  0.00000000000E+00  0.21552992362E+03  0.21553366529E+03  0.12700000000E+01 0. -1.
         -4   -1    0    0    0  501 -0.00000000000E+00 -0.00000000000E+00 -0.18097747848E+02  0.18142253916E+02  0.12700000000E+01 0. -1.
         25    2    1    2    0    0  0.00000000000E+00  0.00000000000E+00  0.19743217577E+03  0.23367591921E+03  0.12499988476E+03 0.  0.
    9000005    1    3    3    0    0 -0.47560621838E+02 -0.40346698923E+02  0.91386208164E+02  0.11064496331E+03  0.10000000000E+01 0.  0.
    9000005    1    3    3    0    0  0.47560621838E+02  0.40346698923E+02  0.10604596761E+03  0.12303095590E+03  0.10000000000E+01 0.  0.
<mgrwt>
<rscale>  0 0.12499988E+03</rscale>
<asrwt>0</asrwt>
<pdfrwt beam="1">  1        4 0.33162164E-01 0.12499988E+03</pdfrwt>
<pdfrwt beam="2">  1       -4 0.27879801E-02 0.12499988E+03</pdfrwt>
<totfact> 0.84748549E+03</totfact>
</mgrwt>
</event>
<event>
 5    1  0.3251953E-002  0.1250008E+03  0.7818608E-02  0.1235068E+00
          4   -1    0    0  501    0  0.00000000000E+00  0.00000000000E+00  0.33161464996E+03  0.33161708184E+03  0.12700000000E+01 0.  1.
         -4   -1    0    0    0  501 -0.00000000000E+00 -0.00000000000E+00 -0.11742920761E+02  0.11811396531E+02  0.12700000000E+01 0.  1.
         25    2    1    2    0    0  0.00000000000E+00  0.00000000000E+00  0.31987172920E+03  0.34342847837E+03  0.12500078646E+03 0.  0.
    9000005    1    3    3    0    0  0.47375869568E+02 -0.38100304888E+02  0.12019868542E+03  0.13470274765E+03  0.10000000000E+01 0.  0.
    9000005    1    3    3    0    0 -0.47375869568E+02  0.38100304888E+02  0.19967304378E+03  0.20872573071E+03  0.10000000000E+01 0.  0.
<mgrwt>
<rscale>  0 0.12500079E+03</rscale>
<asrwt>0</asrwt>
<pdfrwt beam="1">  1        4 0.51023099E-01 0.12500079E+03</pdfrwt>
<pdfrwt beam="2">  1       -4 0.18120574E-02 0.12500079E+03</pdfrwt>
<totfact> 0.70452372E+03</totfact>
</mgrwt>
</event>
<event>
 5    1  0.3251953E-002  0.1249959E+03  0.7818608E-02  0.1235076E+00
         -4   -1    0    0    0  501 -0.00000000000E+00  0.00000000000E+00  0.22160394175E+02  0.22196755844E+02  0.12700000000E+01 0.  1.
          4   -1    0    0  501    0  0.00000000000E+00 -0.00000000000E+00 -0.17607706665E+03  0.17608164668E+03  0.12700000000E+01 0.  1.
         25    2    1    2    0    0  0.00000000000E+00  0.00000000000E+00 -0.15391667247E+03  0.19827840253E+03  0.12499593131E+03 0.  0.
    9000005    1    3    3    0    0 -0.40645675313E+02 -0.43616515142E+02 -0.47259552793E+02  0.76085061904E+02  0.10000000000E+01 0.  0.
    9000005    1    3    3    0    0  0.40645675313E+02  0.43616515142E+02 -0.10665711968E+03  0.12219334062E+03  0.10000000000E+01 0.  0.
<mgrwt>
<rscale>  0 0.12499593E+03</rscale>
<asrwt>0</asrwt>
<pdfrwt beam="2">  1        4 0.27091928E-01 0.12499593E+03</pdfrwt>
<pdfrwt beam="1">  1       -4 0.34124409E-02 0.12499593E+03</pdfrwt>
<totfact> 0.90434753E+03</totfact>
</mgrwt>
</event>
<event>
 4    1  0.3251953E-002  0.1249167E+03  0.7818608E-02  0.1235200E+00
         -4   -1    0    0    0  501 -0.00000000000E+00  0.00000000000E+00  0.18148452672E+03  0.18148897029E+03  0.12700000000E+01 0.  1.
          4   -1    0    0  501    0  0.00000000000E+00 -0.00000000000E+00 -0.21471725143E+02  0.21509251048E+02  0.12700000000E+01 0.  1.
    9000005    1    1    2    0    0 -0.46047684653E+02 -0.13502994043E+02  0.15058007694E+02  0.50303714632E+02  0.10000000000E+01 0.  0.
    9000005    1    1    2    0    0  0.46047684653E+02  0.13502994043E+02  0.14495479388E+03  0.15269450671E+03  0.10000000000E+01 0.  0.
<mgrwt>
<rscale>  0 0.12491670E+03</rscale>
<asrwt>0</asrwt>
<pdfrwt beam="2">  1        4 0.33065707E-02 0.12491670E+03</pdfrwt>
<pdfrwt beam="1">  1       -4 0.27923926E-01 0.12491670E+03</pdfrwt>
<totfact> 0.89799524E+03</totfact>
</mgrwt>
</event>
<event>
 5    1  0.3251953E-002  0.1249969E+03  0.7818608E-02  0.1235074E+00
          4   -1    0    0  501    0  0.00000000000E+00  0.00000000000E+00  0.46622453086E+01  0.48321249278E+01  0.12700000000E+01 0.  1.
         -4   -1    0    0    0  501 -0.00000000000E+00 -0.00000000000E+00 -0.82264456482E+03  0.82264554513E+03  0.12700000000E+01 0.  1.
         25    2    1    2    0    0  0.00000000000E+00  0.00000000000E+00 -0.81798231951E+03  0.82747767006E+03  0.12499687763E+03 0.  0.
    9000005    1    3    3    0    0  0.26560833536E+01 -0.41028052265E+02 -0.72053163160E+03  0.72170436329E+03  0.10000000000E+01 0.  0.
    9000005    1    3    3    0    0 -0.26560833536E+01  0.41028052265E+02 -0.97450687906E+02  0.10577330677E+03  0.10000000000E+01 0.  0.
<mgrwt>
<rscale>  0 0.12499688E+03</rscale>
<asrwt>0</asrwt>
<pdfrwt beam="1">  1        4 0.73041224E-03 0.12499688E+03</pdfrwt>
<pdfrwt beam="2">  1       -4 0.12657373E+00 0.12499688E+03</pdfrwt>
<totfact> 0.37069642E+03</totfact>
</mgrwt>
</event>
<event>
 4    1  0.3251953E-002  0.1250847E+03  0.7818608E-02  0.1234937E+00
          4   -1    0    0  501    0  0.00000000000E+00  0.00000000000E+00  0.68136088084E+02  0.68147922928E+02  0.12700000000E+01 0. -1.
         -4   -1    0    0    0  501 -0.00000000000E+00 -0.00000000000E+00 -0.57384010420E+02  0.57398062266E+02  0.12700000000E+01 0. -1.
    9000005    1    1    2    0    0  0.55245794045E+02  0.60414825056E+01 -0.23399346294E+02  0.60308595387E+02  0.10000000000E+01 0.  0.
    9000005    1    1    2    0    0 -0.55245794045E+02 -0.60414825056E+01  0.34151423958E+02  0.65237389807E+02  0.10000000000E+01 0.  0.
<mgrwt>
<rscale>  0 0.12508472E+03</rscale>
<asrwt>0</asrwt>
<pdfrwt beam="1">  1        4 0.10484466E-01 0.12508472E+03</pdfrwt>
<pdfrwt beam="2">  1       -4 0.88303006E-02 0.12508472E+03</pdfrwt>
<totfact> 0.10421013E+04</totfact>
</mgrwt>
</event>
<event>
 5    1  0.3251953E-002  0.1250066E+03  0.7818608E-02  0.1235059E+00
          4   -1    0    0  501    0  0.00000000000E+00  0.00000000000E+00  0.13491647296E+03  0.13492245023E+03  0.12700000000E+01 0. -1.
         -4   -1    0    0    0  501 -0.00000000000E+00 -0.00000000000E+00 -0.28935595783E+02  0.28963452890E+02  0.12700000000E+01 0. -1.
         25    2    1    2    0    0  0.00000000000E+00  0.00000000000E+00  0.10598087718E+03  0.16388590312E+03  0.12500657149E+03 0.  0.
    9000005    1    3    3    0    0  0.26962393050E+02 -0.56116464321E+02  0.60127066617E+02  0.86558028783E+02  0.10000000000E+01 0.  0.
    9000005    1    3    3    0    0 -0.26962393050E+02  0.56116464321E+02  0.45853810565E+02  0.77327874342E+02  0.10000000000E+01 0.  0.
<mgrwt>
<rscale>  0 0.12500657E+03</rscale>
<asrwt>0</asrwt>
<pdfrwt beam="1">  1        4 0.20758983E-01 0.12500657E+03</pdfrwt>
<pdfrwt beam="2">  1       -4 0.44542328E-02 0.12500657E+03</pdfrwt>
<totfact> 0.96584540E+03</totfact>
</mgrwt>
</event>
<event>
 5    1  0.3251953E-002  0.1250364E+03  0.7818608E-02  0.1235012E+00
         -4   -1    0    0    0  501 -0.00000000000E+00  0.00000000000E+00  0.96976171416E+01  0.97804232130E+01  0.12700000000E+01 0.  1.
          4   -1    0    0  501    0  0.00000000000E+00 -0.00000000000E+00 -0.40124266607E+03  0.40124467595E+03  0.12700000000E+01 0.  1.
         25    2    1    2    0    0  0.00000000000E+00  0.00000000000E+00 -0.39154504893E+03  0.41102509916E+03  0.12503642189E+03 0.  0.
    9000005    1    3    3    0    0  0.45769753862E+02  0.32224314072E+02 -0.28724119955E+03  0.29264617459E+03  0.10000000000E+01 0.  0.
    9000005    1    3    3    0    0 -0.45769753862E+02 -0.32224314072E+02 -0.10430384938E+03  0.11837892457E+03  0.10000000000E+01 0.  0.
<mgrwt>
<rscale>  0 0.12503642E+03</rscale>
<asrwt>0</asrwt>
<pdfrwt beam="2">  1        4 0.61736152E-01 0.12503642E+03</pdfrwt>
<pdfrwt beam="1">  1       -4 0.14984657E-02 0.12503642E+03</pdfrwt>
<totfact> 0.63443446E+03</totfact>
</mgrwt>
</event>
<event>
 5    1  0.3251953E-002  0.1249986E+03  0.7818608E-02  0.1235071E+00
         -4   -1    0    0    0  501 -0.00000000000E+00  0.00000000000E+00  0.24949640553E+04  0.24949643785E+04  0.12700000000E+01 0.  1.
          4   -1    0    0  501    0  0.00000000000E+00 -0.00000000000E+00 -0.13076933494E+01  0.18228993105E+01  0.12700000000E+01 0.  1.
         25    2    1    2    0    0  0.00000000000E+00  0.00000000000E+00  0.24936563619E+04  0.24967872778E+04  0.12499863717E+03 0.  0.
    9000005    1    3    3    0    0 -0.57445443884E+02  0.24012112130E+02  0.11399985541E+04  0.11416979741E+04  0.10000000000E+01 0.  0.
    9000005    1    3    3    0    0  0.57445443884E+02 -0.24012112130E+02  0.13536578078E+04  0.13550893038E+04  0.10000000000E+01 0.  0.
<mgrwt>
<rscale>  0 0.12499864E+03</rscale>
<asrwt>0</asrwt>
<pdfrwt beam="2">  1        4 0.24083966E-03 0.12499864E+03</pdfrwt>
<pdfrwt beam="1">  1       -4 0.38388031E+00 0.12499864E+03</pdfrwt>
<totfact> 0.46947781E+02</totfact>
</mgrwt>
</event>
<event>
 5    1  0.3251953E-002  0.1249967E+03  0.7818608E-02  0.1235074E+00
          4   -1    0    0  501    0  0.00000000000E+00  0.00000000000E+00  0.16725863394E+02  0.16774009845E+02  0.12700000000E+01 0. -1.
         -4   -1    0    0    0  501 -0.00000000000E+00 -0.00000000000E+00 -0.23314758040E+03  0.23315103934E+03  0.12700000000E+01 0. -1.
         25    2    1    2    0    0  0.00000000000E+00  0.00000000000E+00 -0.21642171701E+03  0.24992504919E+03  0.12499668243E+03 0.  0.
    9000005    1    3    3    0    0 -0.27864226046E+02  0.55912675258E+02 -0.10511312034E+03  0.12228004913E+03  0.10000000000E+01 0.  0.
    9000005    1    3    3    0    0  0.27864226046E+02 -0.55912675258E+02 -0.11130859667E+03  0.12764500006E+03  0.10000000000E+01 0.  0.
<mgrwt>
<rscale>  0 0.12499668E+03</rscale>
<asrwt>0</asrwt>
<pdfrwt beam="1">  1        4 0.25771796E-02 0.12499668E+03</pdfrwt>
<pdfrwt beam="2">  1       -4 0.35872826E-01 0.12499668E+03</pdfrwt>
<totfact> 0.82347148E+03</totfact>
</mgrwt>
</event>
<event>
 5    1  0.3251953E-002  0.1249996E+03  0.7818608E-02  0.1235070E+00
         -4   -1    0    0    0  501 -0.00000000000E+00  0.00000000000E+00  0.87475080105E+02  0.87484298817E+02  0.12700000000E+01 0.  1.
          4   -1    0    0  501    0  0.00000000000E+00 -0.00000000000E+00 -0.44634658024E+02  0.44652722167E+02  0.12700000000E+01 0.  1.
         25    2    1    2    0    0  0.00000000000E+00  0.00000000000E+00  0.42840422081E+02  0.13213702098E+03  0.12499956220E+03 0.  0.
    9000005    1    3    3    0    0  0.29750992785E+02 -0.50781167249E+02  0.43628722532E+02  0.73268778812E+02  0.10000000000E+01 0.  0.
    9000005    1    3    3    0    0 -0.29750992785E+02  0.50781167249E+02 -0.78830045076E+00  0.58868242172E+02  0.10000000000E+01 0.  0.
<mgrwt>
<rscale>  0 0.12499956E+03</rscale>
<asrwt>0</asrwt>
<pdfrwt beam="2">  1        4 0.68689691E-02 0.12499956E+03</pdfrwt>
<pdfrwt beam="1">  1       -4 0.13459803E-01 0.12499956E+03</pdfrwt>
<totfact> 0.10298876E+04</totfact>
</mgrwt>
</event>
<event>
 5    1  0.3251953E-002  0.1250011E+03  0.7818608E-02  0.1235068E+00
          4   -1    0    0  501    0  0.00000000000E+00  0.00000000000E+00  0.15631068626E+03  0.15631584545E+03  0.12700000000E+01 0.  1.
         -4   -1    0    0    0  501 -0.00000000000E+00 -0.00000000000E+00 -0.24969034682E+02  0.25001311825E+02  0.12700000000E+01 0.  1.
         25    2    1    2    0    0  0.00000000000E+00  0.00000000000E+00  0.13134165158E+03  0.18131715728E+03  0.12500112833E+03 0.  0.
    9000005    1    3    3    0    0  0.40781289390E+02 -0.21049441158E+02  0.41452059655E+01  0.46090945639E+02  0.10000000000E+01 0.  0.
    9000005    1    3    3    0    0 -0.40781289390E+02  0.21049441158E+02  0.12719644561E+03  0.13522621164E+03  0.10000000000E+01 0.  0.
<mgrwt>
<rscale>  0 0.12500113E+03</rscale>
<asrwt>0</asrwt>
<pdfrwt beam="1">  1        4 0.24050677E-01 0.12500113E+03</pdfrwt>
<pdfrwt beam="2">  1       -4 0.38442697E-02 0.12500113E+03</pdfrwt>
<totfact> 0.93378084E+03</totfact>
</mgrwt>
</event>
<event>
 5    1  0.3251953E-002  0.1249882E+03  0.7818608E-02  0.1235088E+00
          4   -1    0    0  501    0  0.00000000000E+00  0.00000000000E+00  0.69534590332E+02  0.69546187190E+02  0.12700000000E+01 0. -1.
         -4   -1    0    0    0  501 -0.00000000000E+00 -0.00000000000E+00 -0.56142973185E+02  0.56157335568E+02  0.12700000000E+01 0. -1.
         25    2    1    2    0    0  0.00000000000E+00  0.00000000000E+00  0.13391617147E+02  0.12570352276E+03  0.12498816033E+03 0.  0.
    9000005    1    3    3    0    0  0.18026379700E+02  0.59455198921E+02  0.13415291586E+02  0.63567610402E+02  0.10000000000E+01 0.  0.
    9000005    1    3    3    0    0 -0.18026379700E+02 -0.59455198921E+02 -0.23674439840E-01  0.62135912356E+02  0.10000000000E+01 0.  0.
<mgrwt>
<rscale>  0 0.12498816E+03</rscale>
<asrwt>0</asrwt>
<pdfrwt beam="1">  1        4 0.10699626E-01 0.12498816E+03</pdfrwt>
<pdfrwt beam="2">  1       -4 0.86393774E-02 0.12498816E+03</pdfrwt>
<totfact> 0.10440255E+04</totfact>
</mgrwt>
</event>
<event>
 5    1  0.3251953E-002  0.1250019E+03  0.7818608E-02  0.1235066E+00
          4   -1    0    0  501    0  0.00000000000E+00  0.00000000000E+00  0.32874170634E+02  0.32898692905E+02  0.12700000000E+01 0. -1.
         -4   -1    0    0    0  501 -0.00000000000E+00 -0.00000000000E+00 -0.11875573477E+03  0.11876252541E+03  0.12700000000E+01 0. -1.
         25    2    1    2    0    0  0.00000000000E+00  0.00000000000E+00 -0.85881564138E+02  0.15166121831E+03  0.12500192831E+03 0.  0.
    9000005    1    3    3    0    0 -0.18441410851E+02  0.43082990265E+02  0.72179735031E+01  0.47427089578E+02  0.10000000000E+01 0.  0.
    9000005    1    3    3    0    0  0.18441410851E+02 -0.43082990265E+02 -0.93099537641E+02  0.10423412874E+03  0.10000000000E+01 0.  0.
<mgrwt>
<rscale>  0 0.12500193E+03</rscale>
<asrwt>0</asrwt>
<pdfrwt beam="1">  1        4 0.50599735E-02 0.12500193E+03</pdfrwt>
<pdfrwt beam="2">  1       -4 0.18272521E-01 0.12500193E+03</pdfrwt>
<totfact> 0.98969290E+03</totfact>
</mgrwt>
</event>
<event>
 5    1  0.3251953E-002  0.1249984E+03  0.7818608E-02  0.1235072E+00
         -4   -1    0    0    0  501 -0.00000000000E+00  0.00000000000E+00  0.16490471215E+03  0.16490960248E+03  0.12700000000E+01 0. -1.
          4   -1    0    0  501    0  0.00000000000E+00 -0.00000000000E+00 -0.23665057620E+02  0.23699110788E+02  0.12700000000E+01 0. -1.
         25    2    1    2    0    0  0.00000000000E+00  0.00000000000E+00  0.14123965453E+03  0.18860871327E+03  0.12499842682E+03 0.  0.
    9000005    1    3    3    0    0  0.43373259069E+01 -0.57504236773E+02  0.10694621010E+03  0.12150737219E+03  0.10000000000E+01 0.  0.
    9000005    1    3    3    0    0 -0.43373259069E+01  0.57504236773E+02  0.34293444435E+02  0.67101341075E+02  0.10000000000E+01 0.  0.
<mgrwt>
<rscale>  0 0.12499843E+03</rscale>
<asrwt>0</asrwt>
<pdfrwt beam="2">  1        4 0.36437737E-02 0.12499843E+03</pdfrwt>
<pdfrwt beam="1">  1       -4 0.25372952E-01 0.12499843E+03</pdfrwt>
<totfact> 0.92093204E+03</totfact>
</mgrwt>
</event>
<event>
 5    1  0.3251953E-002  0.1250026E+03  0.7818608E-02  0.1235065E+00
          4   -1    0    0  501    0  0.00000000000E+00  0.00000000000E+00  0.35405094510E+03  0.35405322288E+03  0.12700000000E+01 0. -1.
         -4   -1    0    0    0  501 -0.00000000000E+00 -0.00000000000E+00 -0.10994608098E+02  0.11067714634E+02  0.12700000000E+01 0. -1.
         25    2    1    2    0    0  0.00000000000E+00  0.00000000000E+00  0.34305633701E+03  0.36512093751E+03  0.12500259457E+03 0.  0.
    9000005    1    3    3    0    0 -0.10975827745E+02  0.61385068508E+02  0.18350628434E+03  0.19381473582E+03  0.10000000000E+01 0.  0.
    9000005    1    3    3    0    0  0.10975827745E+02 -0.61385068508E+02  0.15955005267E+03  0.17130620169E+03  0.10000000000E+01 0.  0.
<mgrwt>
<rscale>  0 0.12500259E+03</rscale>
<asrwt>0</asrwt>
<pdfrwt beam="1">  1        4 0.54475170E-01 0.12500259E+03</pdfrwt>
<pdfrwt beam="2">  1       -4 0.16972771E-02 0.12500259E+03</pdfrwt>
<totfact> 0.68088581E+03</totfact>
</mgrwt>
</event>
<event>
 5    1  0.3251953E-002  0.1250053E+03  0.7818608E-02  0.1235061E+00
          4   -1    0    0  501    0  0.00000000000E+00  0.00000000000E+00  0.57906144240E+03  0.57906283508E+03  0.12700000000E+01 0.  1.
         -4   -1    0    0    0  501 -0.00000000000E+00 -0.00000000000E+00 -0.66852168647E+01  0.68047795356E+01  0.12700000000E+01 0.  1.
         25    2    1    2    0    0  0.00000000000E+00  0.00000000000E+00  0.57237622553E+03  0.58586761462E+03  0.12500527309E+03 0.  0.
    9000005    1    3    3    0    0 -0.49577472974E+02  0.37987659059E+02  0.27614545113E+03  0.28312240859E+03  0.10000000000E+01 0.  0.
    9000005    1    3    3    0    0  0.49577472974E+02 -0.37987659059E+02  0.29623077440E+03  0.30274520602E+03  0.10000000000E+01 0.  0.
<mgrwt>
<rscale>  0 0.12500527E+03</rscale>
<asrwt>0</asrwt>
<pdfrwt beam="1">  1        4 0.89095687E-01 0.12500527E+03</pdfrwt>
<pdfrwt beam="2">  1       -4 0.10377991E-02 0.12500527E+03</pdfrwt>
<totfact> 0.49766254E+03</totfact>
</mgrwt>
</event>
<event>
 5    1  0.3251953E-002  0.1249954E+03  0.7818608E-02  0.1235076E+00
          4   -1    0    0  501    0  0.00000000000E+00  0.00000000000E+00  0.80396157930E+02  0.80406188256E+02  0.12700000000E+01 0. -1.
         -4   -1    0    0    0  501 -0.00000000000E+00 -0.00000000000E+00 -0.48562604707E+02  0.48579208267E+02  0.12700000000E+01 0. -1.
         25    2    1    2    0    0  0.00000000000E+00  0.00000000000E+00  0.31833553223E+02  0.12898539652E+03  0.12499542954E+03 0.  0.
    9000005    1    3    3    0    0 -0.56286023468E+01  0.59253579783E+02 -0.37248956882E+01  0.59645140031E+02  0.10000000000E+01 0.  0.
    9000005    1    3    3    0    0  0.56286023468E+01 -0.59253579783E+02  0.35558448912E+02  0.69340256493E+02  0.10000000000E+01 0.  0.
<mgrwt>
<rscale>  0 0.12499543E+03</rscale>
<asrwt>0</asrwt>
<pdfrwt beam="1">  1        4 0.12370688E-01 0.12499543E+03</pdfrwt>
<pdfrwt beam="2">  1       -4 0.74732187E-02 0.12499543E+03</pdfrwt>
<totfact> 0.10367330E+04</totfact>
</mgrwt>
</event>
<event>
 5    1  0.3251953E-002  0.1249956E+03  0.7818608E-02  0.1235076E+00
          4   -1    0    0  501    0  0.00000000000E+00  0.00000000000E+00  0.54366121045E+01  0.55829787009E+01  0.12700000000E+01 0.  1.
         -4   -1    0    0    0  501 -0.00000000000E+00 -0.00000000000E+00 -0.70876730255E+03  0.70876844037E+03  0.12700000000E+01 0.  1.
         25    2    1    2    0    0  0.00000000000E+00  0.00000000000E+00 -0.70333069044E+03  0.71435141907E+03  0.12499555914E+03 0.  0.
    9000005    1    3    3    0    0  0.24310544807E+02 -0.50215388533E+02 -0.51253915473E+03  0.51556762210E+03  0.10000000000E+01 0.  0.
    9000005    1    3    3    0    0 -0.24310544807E+02  0.50215388533E+02 -0.19079153572E+03  0.19878379696E+03  0.10000000000E+01 0.  0.
<mgrwt>
<rscale>  0 0.12499556E+03</rscale>
<asrwt>0</asrwt>
<pdfrwt beam="1">  1        4 0.84774892E-03 0.12499556E+03</pdfrwt>
<pdfrwt beam="2">  1       -4 0.10905240E+00 0.12499556E+03</pdfrwt>
<totfact> 0.42343991E+03</totfact>
</mgrwt>
</event>
<event>
 5    1  0.3251953E-002  0.1249797E+03  0.7818608E-02  0.1235101E+00
         -4   -1    0    0    0  501 -0.00000000000E+00  0.00000000000E+00  0.13134562308E+04  0.13134568448E+04  0.12700000000E+01 0. -1.
          4   -1    0    0  501    0  0.00000000000E+00 -0.00000000000E+00 -0.28367890517E+01  0.31080978305E+01  0.12700000000E+01 0. -1.
         25    2    1    2    0    0  0.00000000000E+00  0.00000000000E+00  0.13106194417E+04  0.13165649426E+04  0.12497970655E+03 0.  0.
    9000005    1    3    3    0    0  0.56971689605E+02 -0.11791793186E+02  0.89533347130E+03  0.89722229388E+03  0.10000000000E+01 0.  0.
    9000005    1    3    3    0    0 -0.56971689605E+02  0.11791793186E+02  0.41528597045E+03  0.41934264874E+03  0.10000000000E+01 0.  0.
<mgrwt>
<rscale>  0 0.12497971E+03</rscale>
<asrwt>0</asrwt>
<pdfrwt beam="2">  1        4 0.45734632E-03 0.12497971E+03</pdfrwt>
<pdfrwt beam="1">  1       -4 0.20209106E+00 0.12497971E+03</pdfrwt>
<totfact> 0.21850586E+03</totfact>
</mgrwt>
</event>
<event>
 5    1  0.3251953E-002  0.1250022E+03  0.7818608E-02  0.1235066E+00
          4   -1    0    0  501    0  0.00000000000E+00  0.00000000000E+00  0.47506359967E+02  0.47523332557E+02  0.12700000000E+01 0.  1.
         -4   -1    0    0    0  501 -0.00000000000E+00 -0.00000000000E+00 -0.82192217669E+02  0.82202028840E+02  0.12700000000E+01 0.  1.
         25    2    1    2    0    0  0.00000000000E+00  0.00000000000E+00 -0.34685857702E+02  0.12972536140E+03  0.12500224264E+03 0.  0.
    9000005    1    3    3    0    0  0.35886738842E+00  0.60791193434E+02 -0.23150320767E+01  0.60844534335E+02  0.10000000000E+01 0.  0.
    9000005    1    3    3    0    0 -0.35886738842E+00 -0.60791193434E+02 -0.32370825625E+02  0.68880827061E+02  0.10000000000E+01 0.  0.
<mgrwt>
<rscale>  0 0.12500224E+03</rscale>
<asrwt>0</asrwt>
<pdfrwt beam="1">  1        4 0.73107310E-02 0.12500224E+03</pdfrwt>
<pdfrwt beam="2">  1       -4 0.12647017E-01 0.12500224E+03</pdfrwt>
<totfact> 0.10349862E+04</totfact>
</mgrwt>
</event>
<event>
 5    1  0.3251953E-002  0.1249976E+03  0.7818608E-02  0.1235073E+00
         -4   -1    0    0    0  501 -0.00000000000E+00  0.00000000000E+00  0.72924039069E+02  0.72935096998E+02  0.12700000000E+01 0.  1.
          4   -1    0    0  501    0  0.00000000000E+00 -0.00000000000E+00 -0.53541322309E+02  0.53556382389E+02  0.12700000000E+01 0.  1.
         25    2    1    2    0    0  0.00000000000E+00  0.00000000000E+00  0.19382716760E+02  0.12649147939E+03  0.12499761857E+03 0.  0.
    9000005    1    3    3    0    0 -0.29228676207E+02  0.18580196108E+02  0.62328012482E+02  0.71311432044E+02  0.10000000000E+01 0.  0.
    9000005    1    3    3    0    0  0.29228676207E+02 -0.18580196108E+02 -0.42945295722E+02  0.55180047344E+02  0.10000000000E+01 0.  0.
<mgrwt>
<rscale>  0 0.12499762E+03</rscale>
<asrwt>0</asrwt>
<pdfrwt beam="2">  1        4 0.82391356E-02 0.12499762E+03</pdfrwt>
<pdfrwt beam="1">  1       -4 0.11221092E-01 0.12499762E+03</pdfrwt>
<totfact> 0.10420774E+04</totfact>
</mgrwt>
</event>
<event>
 5    1  0.3251953E-002  0.1250113E+03  0.7818608E-02  0.1235052E+00
         -4   -1    0    0    0  501 -0.00000000000E+00  0.00000000000E+00  0.37556164298E+01  0.39645371442E+01  0.12700000000E+01 0.  1.
          4   -1    0    0  501    0  0.00000000000E+00 -0.00000000000E+00 -0.10119354896E+04  0.10119362866E+04  0.12700000000E+01 0.  1.
         25    2    1    2    0    0  0.00000000000E+00  0.00000000000E+00 -0.10081798732E+04  0.10159008237E+04  0.12501130706E+03 0.  0.
    9000005    1    3    3    0    0  0.53929564231E+02 -0.30894737809E+02 -0.45075526532E+03  0.45502108956E+03  0.10000000000E+01 0.  0.
    9000005    1    3    3    0    0 -0.53929564231E+02  0.30894737809E+02 -0.55742460789E+03  0.56087973417E+03  0.10000000000E+01 0.  0.
<mgrwt>
<rscale>  0 0.12501131E+03</rscale>
<asrwt>0</asrwt>
<pdfrwt beam="2">  1        4 0.15569830E+00 0.12501131E+03</pdfrwt>
<pdfrwt beam="1">  1       -4 0.59392008E-03 0.12501131E+03</pdfrwt>
<totfact> 0.30076413E+03</totfact>
</mgrwt>
</event>
<event>
 5    1  0.3251953E-002  0.1250031E+03  0.7818608E-02  0.1235064E+00
         -4   -1    0    0    0  501 -0.00000000000E+00  0.00000000000E+00  0.16962491183E+03  0.16962966607E+03  0.12700000000E+01 0. -1.
          4   -1    0    0  501    0  0.00000000000E+00 -0.00000000000E+00 -0.23007318505E+02  0.23042343735E+02  0.12700000000E+01 0. -1.
         25    2    1    2    0    0  0.00000000000E+00  0.00000000000E+00  0.14661759332E+03  0.19267200981E+03  0.12500313873E+03 0.  0.
    9000005    1    3    3    0    0  0.57978105673E+02  0.11288784082E+02  0.10476676334E+03  0.12027456957E+03  0.10000000000E+01 0.  0.
    9000005    1    3    3    0    0 -0.57978105673E+02 -0.11288784082E+02  0.41850829981E+02  0.72397440242E+02  0.10000000000E+01 0.  0.
<mgrwt>
<rscale>  0 0.12500314E+03</rscale>
<asrwt>0</asrwt>
<pdfrwt beam="2">  1        4 0.35426474E-02 0.12500314E+03</pdfrwt>
<pdfrwt beam="1">  1       -4 0.26099200E-01 0.12500314E+03</pdfrwt>
<totfact> 0.91378038E+03</totfact>
</mgrwt>
</event>
<event>
 5    1  0.3251953E-002  0.1250017E+03  0.7818608E-02  0.1235067E+00
          4   -1    0    0  501    0  0.00000000000E+00  0.00000000000E+00  0.18049934469E+03  0.18050381252E+03  0.12700000000E+01 0. -1.
         -4   -1    0    0    0  501 -0.00000000000E+00 -0.00000000000E+00 -0.21618573427E+02  0.21655844870E+02  0.12700000000E+01 0. -1.
         25    2    1    2    0    0  0.00000000000E+00  0.00000000000E+00  0.15888077127E+03  0.20215965739E+03  0.12500171038E+03 0.  0.
    9000005    1    3    3    0    0  0.37525347240E+02  0.40840847175E+02  0.32869322814E+02  0.64478824940E+02  0.10000000000E+01 0.  0.
    9000005    1    3    3    0    0 -0.37525347240E+02 -0.40840847175E+02  0.12601144845E+03  0.13768083245E+03  0.10000000000E+01 0.  0.
<mgrwt>
<rscale>  0 0.12500171E+03</rscale>
<asrwt>0</asrwt>
<pdfrwt beam="1">  1        4 0.27772340E-01 0.12500171E+03</pdfrwt>
<pdfrwt beam="2">  1       -4 0.33291452E-02 0.12500171E+03</pdfrwt>
<totfact> 0.89769102E+03</totfact>
</mgrwt>
</event>
<event>
 5    1  0.3251953E-002  0.1250022E+03  0.7818608E-02  0.1235066E+00
          4   -1    0    0  501    0  0.00000000000E+00  0.00000000000E+00  0.84517904034E+03  0.84517999452E+03  0.12700000000E+01 0.  1.
         -4   -1    0    0    0  501 -0.00000000000E+00 -0.00000000000E+00 -0.45337497211E+01  0.47082678910E+01  0.12700000000E+01 0.  1.
         25    2    1    2    0    0  0.00000000000E+00  0.00000000000E+00  0.84064529062E+03  0.84988826241E+03  0.12500221573E+03 0.  0.
    9000005    1    3    3    0    0 -0.52434387913E+02 -0.32726614237E+02  0.35764198299E+03  0.36294515331E+03  0.10000000000E+01 0.  0.
    9000005    1    3    3    0    0  0.52434387913E+02  0.32726614237E+02  0.48300330763E+03  0.48694310910E+03  0.10000000000E+01 0.  0.
<mgrwt>
<rscale>  0 0.12500222E+03</rscale>
<asrwt>0</asrwt>
<pdfrwt beam="1">  1        4 0.13004112E+00 0.12500222E+03</pdfrwt>
<pdfrwt beam="2">  1       -4 0.71099739E-03 0.12500222E+03</pdfrwt>
<totfact> 0.36130125E+03</totfact>
</mgrwt>
</event>
<event>
 5    1  0.3251953E-002  0.1250018E+03  0.7818608E-02  0.1235066E+00
         -4   -1    0    0    0  501 -0.00000000000E+00  0.00000000000E+00  0.33303111494E+02  0.33327318152E+02  0.12700000000E+01 0.  1.
          4   -1    0    0  501    0  0.00000000000E+00 -0.00000000000E+00 -0.11722697557E+03  0.11723385476E+03  0.12700000000E+01 0.  1.
         25    2    1    2    0    0  0.00000000000E+00  0.00000000000E+00 -0.83923864075E+02  0.15056117291E+03  0.12500180729E+03 0.  0.
    9000005    1    3    3    0    0 -0.33584120574E+02  0.17122706151E+01 -0.10540614737E+03  0.11064484140E+03  0.10000000000E+01 0.  0.
    9000005    1    3    3    0    0  0.33584120574E+02 -0.17122706151E+01  0.21482283295E+02  0.39916331507E+02  0.10000000000E+01 0.  0.
<mgrwt>
<rscale>  0 0.12500181E+03</rscale>
<asrwt>0</asrwt>
<pdfrwt beam="2">  1        4 0.18037310E-01 0.12500181E+03</pdfrwt>
<pdfrwt beam="1">  1       -4 0.51259469E-02 0.12500181E+03</pdfrwt>
<totfact> 0.99187920E+03</totfact>
</mgrwt>
</event>
<event>
 5    1  0.3251953E-002  0.1250000E+03  0.7818608E-02  0.1235069E+00
          4   -1    0    0  501    0  0.00000000000E+00  0.00000000000E+00  0.45333966313E+03  0.45334144203E+03  0.12700000000E+01 0. -1.
         -4   -1    0    0    0  501 -0.00000000000E+00 -0.00000000000E+00 -0.85680111972E+01  0.86616231664E+01  0.12700000000E+01 0. -1.
         25    2    1    2    0    0  0.00000000000E+00  0.00000000000E+00  0.44477165193E+03  0.46200306520E+03  0.12500003957E+03 0.  0.
    9000005    1    3    3    0    0 -0.60057623528E+01  0.58457948034E+02  0.30095146012E+03  0.30663688985E+03  0.10000000000E+01 0.  0.
    9000005    1    3    3    0    0  0.60057623528E+01 -0.58457948034E+02  0.14382019181E+03  0.15536617535E+03  0.10000000000E+01 0.  0.
<mgrwt>
<rscale>  0 0.12500004E+03</rscale>
<asrwt>0</asrwt>
<pdfrwt beam="1">  1        4 0.69751888E-01 0.12500004E+03</pdfrwt>
<pdfrwt beam="2">  1       -4 0.13254936E-02 0.12500004E+03</pdfrwt>
<totfact> 0.58937847E+03</totfact>
</mgrwt>
</event>
<event>
 5    1  0.3251953E-002  0.1250007E+03  0.7818608E-02  0.1235068E+00
         -4   -1    0    0    0  501 -0.00000000000E+00  0.00000000000E+00  0.59123313161E+02  0.59136951723E+02  0.12700000000E+01 0. -1.
          4   -1    0    0  501    0  0.00000000000E+00 -0.00000000000E+00 -0.66042866641E+02  0.66055076521E+02  0.12700000000E+01 0. -1.
         25    2    1    2    0    0  0.00000000000E+00  0.00000000000E+00 -0.69195534802E+01  0.12519202824E+03  0.12500065486E+03 0.  0.
    9000005    1    3    3    0    0  0.47218618286E+02 -0.37397233182E+02  0.13213231595E+02  0.61674471637E+02  0.10000000000E+01 0.  0.
    9000005    1    3    3    0    0 -0.47218618286E+02  0.37397233182E+02 -0.20132785075E+02  0.63517556607E+02  0.10000000000E+01 0.  0.
<mgrwt>
<rscale>  0 0.12500065E+03</rscale>
<asrwt>0</asrwt>
<pdfrwt beam="2">  1        4 0.10162429E-01 0.12500065E+03</pdfrwt>
<pdfrwt beam="1">  1       -4 0.90978827E-02 0.12500065E+03</pdfrwt>
<totfact> 0.10448539E+04</totfact>
</mgrwt>
</event>
<event>
 5    1  0.3251953E-002  0.1249995E+03  0.7818608E-02  0.1235070E+00
         -4   -1    0    0    0  501 -0.00000000000E+00  0.00000000000E+00  0.39154082444E+03  0.39154288412E+03  0.12700000000E+01 0. -1.
          4   -1    0    0  501    0  0.00000000000E+00 -0.00000000000E+00 -0.99340103365E+01  0.10014862024E+02  0.12700000000E+01 0. -1.
         25    2    1    2    0    0  0.00000000000E+00  0.00000000000E+00  0.38160681410E+03  0.40155774614E+03  0.12499945166E+03 0.  0.
    9000005    1    3    3    0    0 -0.22991262433E+02 -0.91344931500E+01  0.64515387039E+01  0.25586314018E+02  0.10000000000E+01 0.  0.
    9000005    1    3    3    0    0  0.22991262433E+02  0.91344931500E+01  0.37515527540E+03  0.37597143212E+03  0.10000000000E+01 0.  0.
<mgrwt>
<rscale>  0 0.12499945E+03</rscale>
<asrwt>0</asrwt>
<pdfrwt beam="2">  1        4 0.15346868E-02 0.12499945E+03</pdfrwt>
<pdfrwt beam="1">  1       -4 0.60243437E-01 0.12499945E+03</pdfrwt>
<totfact> 0.64402338E+03</totfact>
</mgrwt>
</event>
<event>
 5    1  0.3251953E-002  0.1249991E+03  0.7818608E-02  0.1235071E+00
          4   -1    0    0  501    0  0.00000000000E+00  0.00000000000E+00  0.68686316427E+03  0.68686433838E+03  0.12700000000E+01 0. -1.
         -4   -1    0    0    0  501 -0.00000000000E+00 -0.00000000000E+00 -0.56149089755E+01  0.57567441148E+01  0.12700000000E+01 0. -1.
         25    2    1    2    0    0  0.00000000000E+00  0.00000000000E+00  0.68124825530E+03  0.69262108249E+03  0.12499911427E+03 0.  0.
    9000005    1    3    3    0    0  0.55390931832E+01 -0.36943288779E+01  0.68491941684E+03  0.68495250725E+03  0.10000000000E+01 0.  0.
    9000005    1    3    3    0    0 -0.55390931832E+01  0.36943288779E+01 -0.36711615460E+01  0.76685752423E+01  0.10000000000E+01 0.  0.
<mgrwt>
<rscale>  0 0.12499911E+03</rscale>
<asrwt>0</asrwt>
<pdfrwt beam="1">  1        4 0.10568224E+00 0.12499911E+03</pdfrwt>
<pdfrwt beam="2">  1       -4 0.87483301E-03 0.12499911E+03</pdfrwt>
<totfact> 0.43479933E+03</totfact>
</mgrwt>
</event>
<event>
 5    1  0.3251953E-002  0.1250596E+03  0.7818608E-02  0.1234976E+00
          4   -1    0    0  501    0  0.00000000000E+00  0.00000000000E+00  0.83975248510E+02  0.83984851386E+02  0.12700000000E+01 0.  1.
         -4   -1    0    0    0  501 -0.00000000000E+00 -0.00000000000E+00 -0.46540159893E+02  0.46557484713E+02  0.12700000000E+01 0.  1.
         25    2    1    2    0    0  0.00000000000E+00  0.00000000000E+00  0.37435088618E+02  0.13054233610E+03  0.12505964839E+03 0.  0.
    9000005    1    3    3    0    0  0.19503018463E+02 -0.31478602189E+02 -0.33866631205E+02  0.50191820391E+02  0.10000000000E+01 0.  0.
    9000005    1    3    3    0    0 -0.19503018463E+02  0.31478602189E+02  0.71301719823E+02  0.80350515709E+02  0.10000000000E+01 0.  0.
<mgrwt>
<rscale>  0 0.12505965E+03</rscale>
<asrwt>0</asrwt>
<pdfrwt beam="1">  1        4 0.12921340E-01 0.12505965E+03</pdfrwt>
<pdfrwt beam="2">  1       -4 0.71620960E-02 0.12505965E+03</pdfrwt>
<totfact> 0.10319018E+04</totfact>
</mgrwt>
</event>
<event>
 5    1  0.3251953E-002  0.1250000E+03  0.7818608E-02  0.1235069E+00
         -4   -1    0    0    0  501 -0.00000000000E+00  0.00000000000E+00  0.15341187234E+04  0.15341192491E+04  0.12700000000E+01 0. -1.
          4   -1    0    0  501    0  0.00000000000E+00 -0.00000000000E+00 -0.23873329605E+01  0.27041188333E+01  0.12700000000E+01 0. -1.
         25    2    1    2    0    0  0.00000000000E+00  0.00000000000E+00  0.15317313905E+04  0.15368233679E+04  0.12500004678E+03 0.  0.
    9000005    1    3    3    0    0  0.29996100502E+02  0.38802324430E+02  0.12420116315E+04  0.12429799995E+04  0.10000000000E+01 0.  0.
    9000005    1    3    3    0    0 -0.29996100502E+02 -0.38802324430E+02  0.28971975896E+03  0.29384336841E+03  0.10000000000E+01 0.  0.
<mgrwt>
<rscale>  0 0.12500005E+03</rscale>
<asrwt>0</asrwt>
<pdfrwt beam="2">  1        4 0.39169108E-03 0.12500005E+03</pdfrwt>
<pdfrwt beam="1">  1       -4 0.23604237E+00 0.12500005E+03</pdfrwt>
<totfact> 0.17217828E+03</totfact>
</mgrwt>
</event>
<event>
 5    1  0.3251953E-002  0.1249928E+03  0.7818608E-02  0.1235081E+00
          4   -1    0    0  501    0  0.00000000000E+00  0.00000000000E+00  0.13695640156E+03  0.13696228980E+03  0.12700000000E+01 0. -1.
         -4   -1    0    0    0  501 -0.00000000000E+00 -0.00000000000E+00 -0.28497917533E+02  0.28526202055E+02  0.12700000000E+01 0. -1.
         25    2    1    2    0    0  0.00000000000E+00  0.00000000000E+00  0.10845848403E+03  0.16548849186E+03  0.12499279251E+03 0.  0.
    9000005    1    3    3    0    0 -0.56924608821E+02 -0.10801439644E+02  0.23243558606E+02  0.62436729611E+02  0.10000000000E+01 0.  0.
    9000005    1    3    3    0    0  0.56924608821E+02  0.10801439644E+02  0.85214925421E+02  0.10305176225E+03  0.10000000000E+01 0.  0.
<mgrwt>
<rscale>  0 0.12499279E+03</rscale>
<asrwt>0</asrwt>
<pdfrwt beam="1">  1        4 0.21072845E-01 0.12499279E+03</pdfrwt>
<pdfrwt beam="2">  1       -4 0.43869236E-02 0.12499279E+03</pdfrwt>
<totfact> 0.96310551E+03</totfact>
</mgrwt>
</event>
<event>
 5    1  0.3251953E-002  0.1249963E+03  0.7818608E-02  0.1235075E+00
         -4   -1    0    0    0  501 -0.00000000000E+00  0.00000000000E+00  0.49498689194E+02  0.49514978864E+02  0.12700000000E+01 0.  1.
          4   -1    0    0  501    0  0.00000000000E+00 -0.00000000000E+00 -0.78877229725E+02  0.78887453179E+02  0.12700000000E+01 0.  1.
         25    2    1    2    0    0  0.00000000000E+00  0.00000000000E+00 -0.29378540532E+02  0.12840243204E+03  0.12499634359E+03 0.  0.
    9000005    1    3    3    0    0  0.61836613833E+02  0.83787219327E+01 -0.11274274156E+02  0.63419863207E+02  0.10000000000E+01 0.  0.
    9000005    1    3    3    0    0 -0.61836613833E+02 -0.83787219327E+01 -0.18104266375E+02  0.64982568836E+02  0.10000000000E+01 0.  0.
<mgrwt>
<rscale>  0 0.12499634E+03</rscale>
<asrwt>0</asrwt>
<pdfrwt beam="2">  1        4 0.12136998E-01 0.12499634E+03</pdfrwt>
<pdfrwt beam="1">  1       -4 0.76172224E-02 0.12499634E+03</pdfrwt>
<totfact> 0.10379663E+04</totfact>
</mgrwt>
</event>
<event>
 5    1  0.3251953E-002  0.1250001E+03  0.7818608E-02  0.1235069E+00
          4   -1    0    0  501    0  0.00000000000E+00  0.00000000000E+00  0.61963120273E+01  0.63251231403E+01  0.12700000000E+01 0. -1.
         -4   -1    0    0    0  501 -0.00000000000E+00 -0.00000000000E+00 -0.62380123301E+03  0.62380252581E+03  0.12700000000E+01 0. -1.
         25    2    1    2    0    0  0.00000000000E+00  0.00000000000E+00 -0.61760492099E+03  0.63012764895E+03  0.12500006219E+03 0.  0.
    9000005    1    3    3    0    0 -0.57654872366E+02  0.12626012565E+02 -0.41232802232E+03  0.41653198976E+03  0.10000000000E+01 0.  0.
    9000005    1    3    3    0    0  0.57654872366E+02 -0.12626012565E+02 -0.20527689866E+03  0.21359565919E+03  0.10000000000E+01 0.  0.
<mgrwt>
<rscale>  0 0.12500006E+03</rscale>
<asrwt>0</asrwt>
<pdfrwt beam="1">  1        4 0.96328726E-03 0.12500006E+03</pdfrwt>
<pdfrwt beam="2">  1       -4 0.95979380E-01 0.12500006E+03</pdfrwt>
<totfact> 0.47019419E+03</totfact>
</mgrwt>
</event>
<event>
 5    1  0.3251953E-002  0.1249961E+03  0.7818608E-02  0.1235075E+00
          4   -1    0    0  501    0  0.00000000000E+00  0.00000000000E+00  0.62382350157E+02  0.62395276353E+02  0.12700000000E+01 0.  1.
         -4   -1    0    0    0  501 -0.00000000000E+00 -0.00000000000E+00 -0.62588150719E+02  0.62601034420E+02  0.12700000000E+01 0.  1.
         25    2    1    2    0    0  0.00000000000E+00  0.00000000000E+00 -0.20580056166E+00  0.12499631077E+03  0.12499614135E+03 0.  0.
    9000005    1    3    3    0    0  0.54267201647E+02 -0.12095353958E+02 -0.28629804814E+02  0.62545123596E+02  0.10000000000E+01 0.  0.
    9000005    1    3    3    0    0 -0.54267201647E+02  0.12095353958E+02  0.28424004253E+02  0.62451187176E+02  0.10000000000E+01 0.  0.
<mgrwt>
<rscale>  0 0.12499614E+03</rscale>
<asrwt>0</asrwt>
<pdfrwt beam="1">  1        4 0.95992701E-02 0.12499614E+03</pdfrwt>
<pdfrwt beam="2">  1       -4 0.96309316E-02 0.12499614E+03</pdfrwt>
<totfact> 0.10453854E+04</totfact>
</mgrwt>
</event>
<event>
 5    1  0.3251953E-002  0.1250082E+03  0.7818608E-02  0.1235056E+00
         -4   -1    0    0    0  501 -0.00000000000E+00  0.00000000000E+00  0.79580720518E+02  0.79590853609E+02  0.12700000000E+01 0. -1.
          4   -1    0    0  501    0  0.00000000000E+00 -0.00000000000E+00 -0.49070335518E+02  0.49086767339E+02  0.12700000000E+01 0. -1.
         25    2    1    2    0    0  0.00000000000E+00  0.00000000000E+00  0.30510385001E+02  0.12867762095E+03  0.12500818589E+03 0.  0.
    9000005    1    3    3    0    0 -0.59541182122E+01 -0.11963063842E+01 -0.48770921213E+02  0.49157760614E+02  0.10000000000E+01 0.  0.
    9000005    1    3    3    0    0  0.59541182122E+01  0.11963063842E+01  0.79281306214E+02  0.79519860334E+02  0.10000000000E+01 0.  0.
<mgrwt>
<rscale>  0 0.12500819E+03</rscale>
<asrwt>0</asrwt>
<pdfrwt beam="2">  1        4 0.75513259E-02 0.12500819E+03</pdfrwt>
<pdfrwt beam="1">  1       -4 0.12245231E-01 0.12500819E+03</pdfrwt>
<totfact> 0.10370963E+04</totfact>
</mgrwt>
</event>
<event>
 5    1  0.3251953E-002  0.1249985E+03  0.7818608E-02  0.1235072E+00
         -4   -1    0    0    0  501 -0.00000000000E+00  0.00000000000E+00  0.93290858562E+03  0.93290945007E+03  0.12700000000E+01 0.  1.
          4   -1    0    0  501    0  0.00000000000E+00 -0.00000000000E+00 -0.40898851465E+01  0.42825296860E+01  0.12700000000E+01 0.  1.
         25    2    1    2    0    0  0.00000000000E+00  0.00000000000E+00  0.92881870048E+03  0.93719197976E+03  0.12499851424E+03 0.  0.
    9000005    1    3    3    0    0  0.32630894092E+02 -0.27698541022E+01  0.65361702671E+02  0.73113606922E+02  0.10000000000E+01 0.  0.
    9000005    1    3    3    0    0 -0.32630894092E+02  0.27698541022E+01  0.86345699780E+03  0.86407837283E+03  0.10000000000E+01 0.  0.
<mgrwt>
<rscale>  0 0.12499851E+03</rscale>
<asrwt>0</asrwt>
<pdfrwt beam="2">  1        4 0.64409832E-03 0.12499851E+03</pdfrwt>
<pdfrwt beam="1">  1       -4 0.14353930E+00 0.12499851E+03</pdfrwt>
<totfact> 0.32776175E+03</totfact>
</mgrwt>
</event>
<event>
 5    1  0.3251953E-002  0.1249993E+03  0.7818608E-02  0.1235070E+00
         -4   -1    0    0    0  501 -0.00000000000E+00  0.00000000000E+00  0.21007994357E+03  0.21008378231E+03  0.12700000000E+01 0. -1.
          4   -1    0    0  501    0  0.00000000000E+00 -0.00000000000E+00 -0.18568208331E+02  0.18611589417E+02  0.12700000000E+01 0. -1.
         25    2    1    2    0    0  0.00000000000E+00  0.00000000000E+00  0.19151173524E+03  0.22869537173E+03  0.12499931326E+03 0.  0.
    9000005    1    3    3    0    0 -0.11560722838E+02 -0.45814670485E+02  0.17058009739E+03  0.17700622580E+03  0.10000000000E+01 0.  0.
    9000005    1    3    3    0    0  0.11560722838E+02  0.45814670485E+02  0.20931637845E+02  0.51689145930E+02  0.10000000000E+01 0.  0.
<mgrwt>
<rscale>  0 0.12499931E+03</rscale>
<asrwt>0</asrwt>
<pdfrwt beam="2">  1        4 0.28602797E-02 0.12499931E+03</pdfrwt>
<pdfrwt beam="1">  1       -4 0.32323624E-01 0.12499931E+03</pdfrwt>
<totfact> 0.85511636E+03</totfact>
</mgrwt>
</event>
<event>
 5    1  0.3251953E-002  0.1250098E+03  0.7818608E-02  0.1235054E+00
          4   -1    0    0  501    0  0.00000000000E+00  0.00000000000E+00  0.46095178939E+02  0.46112670943E+02  0.12700000000E+01 0. -1.
         -4   -1    0    0    0  501 -0.00000000000E+00 -0.00000000000E+00 -0.84718104296E+02  0.84727622978E+02  0.12700000000E+01 0. -1.
         25    2    1    2    0    0  0.00000000000E+00  0.00000000000E+00 -0.38622925356E+02  0.13084029392E+03  0.12500980822E+03 0.  0.
    9000005    1    3    3    0    0 -0.82067231301E+01 -0.39615543669E+02 -0.69168479733E+02  0.80137508031E+02  0.10000000000E+01 0.  0.
    9000005    1    3    3    0    0  0.82067231301E+01  0.39615543669E+02  0.30545554377E+02  0.50702785890E+02  0.10000000000E+01 0.  0.
<mgrwt>
<rscale>  0 0.12500981E+03</rscale>
<asrwt>0</asrwt>
<pdfrwt beam="1">  1        4 0.70936437E-02 0.12500981E+03</pdfrwt>
<pdfrwt beam="2">  1       -4 0.13035632E-01 0.12500981E+03</pdfrwt>
<totfact> 0.10324230E+04</totfact>
</mgrwt>
</event>
<event>
 5    1  0.3251953E-002  0.1250020E+03  0.7818608E-02  0.1235066E+00
          4   -1    0    0  501    0  0.00000000000E+00  0.00000000000E+00  0.17003758423E+02  0.17051120212E+02  0.12700000000E+01 0.  1.
         -4   -1    0    0    0  501 -0.00000000000E+00 -0.00000000000E+00 -0.22936726506E+03  0.22937078101E+03  0.12700000000E+01 0.  1.
         25    2    1    2    0    0  0.00000000000E+00  0.00000000000E+00 -0.21236350664E+03  0.24642190122E+03  0.12500197779E+03 0.  0.
    9000005    1    3    3    0    0  0.31641281913E+02 -0.47861918384E+02 -0.15500743830E+03  0.16528835374E+03  0.10000000000E+01 0.  0.
    9000005    1    3    3    0    0 -0.31641281913E+02  0.47861918384E+02 -0.57356068335E+02  0.81133547484E+02  0.10000000000E+01 0.  0.
<mgrwt>
<rscale>  0 0.12500198E+03</rscale>
<asrwt>0</asrwt>
<pdfrwt beam="1">  1        4 0.26198767E-02 0.12500198E+03</pdfrwt>
<pdfrwt beam="2">  1       -4 0.35291183E-01 0.12500198E+03</pdfrwt>
<totfact> 0.82846490E+03</totfact>
</mgrwt>
</event>
<event>
 5    1  0.3251953E-002  0.1249974E+03  0.7818608E-02  0.1235073E+00
          4   -1    0    0  501    0  0.00000000000E+00  0.00000000000E+00  0.39934257759E+03  0.39934459703E+03  0.12700000000E+01 0. -1.
         -4   -1    0    0    0  501 -0.00000000000E+00 -0.00000000000E+00 -0.97380161985E+01  0.98204816319E+01  0.12700000000E+01 0. -1.
         25    2    1    2    0    0  0.00000000000E+00  0.00000000000E+00  0.38960456139E+03  0.40916507866E+03  0.12499738933E+03 0.  0.
    9000005    1    3    3    0    0  0.43707159899E+02 -0.66683546389E+01  0.33936249383E+03  0.34223191698E+03  0.10000000000E+01 0.  0.
    9000005    1    3    3    0    0 -0.43707159899E+02  0.66683546389E+01  0.50242067562E+02  0.66933161683E+02  0.10000000000E+01 0.  0.
<mgrwt>
<rscale>  0 0.12499739E+03</rscale>
<asrwt>0</asrwt>
<pdfrwt beam="1">  1        4 0.61443799E-01 0.12499739E+03</pdfrwt>
<pdfrwt beam="2">  1       -4 0.15046556E-02 0.12499739E+03</pdfrwt>
<totfact> 0.63674738E+03</totfact>
</mgrwt>
</event>
<event>
 5    1  0.3251953E-002  0.1249987E+03  0.7818608E-02  0.1235071E+00
          4   -1    0    0  501    0  0.00000000000E+00  0.00000000000E+00  0.10294422595E+03  0.10295205950E+03  0.12700000000E+01 0.  1.
         -4   -1    0    0    0  501 -0.00000000000E+00 -0.00000000000E+00 -0.37924613160E+02  0.37945871756E+02  0.12700000000E+01 0.  1.
         25    2    1    2    0    0  0.00000000000E+00  0.00000000000E+00  0.65019612789E+02  0.14089793126E+03  0.12499870794E+03 0.  0.
    9000005    1    3    3    0    0  0.38752158053E+02  0.48405963219E+02  0.41262983880E+02  0.74488259931E+02  0.10000000000E+01 0.  0.
    9000005    1    3    3    0    0 -0.38752158053E+02 -0.48405963219E+02  0.23756628909E+02  0.66409671329E+02  0.10000000000E+01 0.  0.
<mgrwt>
<rscale>  0 0.12499871E+03</rscale>
<asrwt>0</asrwt>
<pdfrwt beam="1">  1        4 0.15839811E-01 0.12499871E+03</pdfrwt>
<pdfrwt beam="2">  1       -4 0.58367938E-02 0.12499871E+03</pdfrwt>
<totfact> 0.10115304E+04</totfact>
</mgrwt>
</event>
<event>
 5    1  0.3251953E-002  0.1250002E+03  0.7818608E-02  0.1235069E+00
         -4   -1    0    0    0  501 -0.00000000000E+00  0.00000000000E+00  0.11625940607E+03  0.11626634250E+03  0.12700000000E+01 0. -1.
          4   -1    0    0  501    0  0.00000000000E+00 -0.00000000000E+00 -0.33579607765E+02  0.33603615247E+02  0.12700000000E+01 0. -1.
         25    2    1    2    0    0  0.00000000000E+00  0.00000000000E+00  0.82679798303E+02  0.14986995775E+03  0.12500022075E+03 0.  0.
    9000005    1    3    3    0    0  0.61400440038E+02 -0.14034001124E+00  0.55282392091E+02  0.82626730587E+02  0.10000000000E+01 0.  0.
    9000005    1    3    3    0    0 -0.61400440038E+02  0.14034001124E+00  0.27397406212E+02  0.67243227163E+02  0.10000000000E+01 0.  0.
<mgrwt>
<rscale>  0 0.12500022E+03</rscale>
<asrwt>0</asrwt>
<pdfrwt beam="2">  1        4 0.51684738E-02 0.12500022E+03</pdfrwt>
<pdfrwt beam="1">  1       -4 0.17888443E-01 0.12500022E+03</pdfrwt>
<totfact> 0.99329133E+03</totfact>
</mgrwt>
</event>
<event>
 5    1  0.3251953E-002  0.1249981E+03  0.7818608E-02  0.1235072E+00
         -4   -1    0    0    0  501 -0.00000000000E+00  0.00000000000E+00  0.22123604448E+02  0.22160026484E+02  0.12700000000E+01 0.  1.
          4   -1    0    0  501    0  0.00000000000E+00 -0.00000000000E+00 -0.17637562026E+03  0.17638019254E+03  0.12700000000E+01 0.  1.
         25    2    1    2    0    0  0.00000000000E+00  0.00000000000E+00 -0.15425201581E+03  0.19854021902E+03  0.12499813675E+03 0.  0.
    9000005    1    3    3    0    0  0.12405359003E+01  0.62148358578E+02 -0.87318204568E+02  0.10718874126E+03  0.10000000000E+01 0.  0.
    9000005    1    3    3    0    0 -0.12405359003E+01 -0.62148358578E+02 -0.66933811239E+02  0.91351477767E+02  0.10000000000E+01 0.  0.
<mgrwt>
<rscale>  0 0.12499814E+03</rscale>
<asrwt>0</asrwt>
<pdfrwt beam="2">  1        4 0.27137863E-01 0.12499814E+03</pdfrwt>
<pdfrwt beam="1">  1       -4 0.34067850E-02 0.12499814E+03</pdfrwt>
<totfact> 0.90385981E+03</totfact>
</mgrwt>
</event>
<event>
 5    1  0.3251953E-002  0.1249987E+03  0.7818608E-02  0.1235071E+00
          4   -1    0    0  501    0  0.00000000000E+00  0.00000000000E+00  0.20006291606E+02  0.20046560897E+02  0.12700000000E+01 0. -1.
         -4   -1    0    0    0  501 -0.00000000000E+00 -0.00000000000E+00 -0.19500840200E+03  0.19501253741E+03  0.12700000000E+01 0. -1.
         25    2    1    2    0    0  0.00000000000E+00  0.00000000000E+00 -0.17500211039E+03  0.21505909831E+03  0.12499870850E+03 0.  0.
    9000005    1    3    3    0    0  0.44120429732E+02  0.24144161257E+02 -0.15131285195E+03  0.15945573683E+03  0.10000000000E+01 0.  0.
    9000005    1    3    3    0    0 -0.44120429732E+02 -0.24144161257E+02 -0.23689258438E+02  0.55603361480E+02  0.10000000000E+01 0.  0.
<mgrwt>
<rscale>  0 0.12499871E+03</rscale>
<asrwt>0</asrwt>
<pdfrwt beam="1">  1        4 0.30813069E-02 0.12499871E+03</pdfrwt>
<pdfrwt beam="2">  1       -4 0.30004707E-01 0.12499871E+03</pdfrwt>
<totfact> 0.87658802E+03</totfact>
</mgrwt>
</event>
<event>
 5    1  0.3251953E-002  0.1250133E+03  0.7818608E-02  0.1235048E+00
         -4   -1    0    0    0  501 -0.00000000000E+00  0.00000000000E+00  0.36677159033E+02  0.36699140245E+02  0.12700000000E+01 0. -1.
          4   -1    0    0  501    0  0.00000000000E+00 -0.00000000000E+00 -0.10646864774E+03  0.10647622200E+03  0.12700000000E+01 0. -1.
         25    2    1    2    0    0  0.00000000000E+00  0.00000000000E+00 -0.69791488709E+02  0.14317536225E+03  0.12501332912E+03 0.  0.
    9000005    1    3    3    0    0 -0.57497113228E+01 -0.25190475627E+02 -0.10007081314E+03  0.10335756810E+03  0.10000000000E+01 0.  0.
    9000005    1    3    3    0    0  0.57497113228E+01  0.25190475627E+02  0.30279324428E+02  0.39817794143E+02  0.10000000000E+01 0.  0.
<mgrwt>
<rscale>  0 0.12501333E+03</rscale>
<asrwt>0</asrwt>
<pdfrwt beam="2">  1        4 0.16382065E-01 0.12501333E+03</pdfrwt>
<pdfrwt beam="1">  1       -4 0.56449134E-02 0.12501333E+03</pdfrwt>
<totfact> 0.10065172E+04</totfact>
</mgrwt>
</event>
<event>
 5    1  0.3251953E-002  0.1249981E+03  0.7818608E-02  0.1235072E+00
          4   -1    0    0  501    0  0.00000000000E+00  0.00000000000E+00  0.30410410728E+02  0.30436918054E+02  0.12700000000E+01 0.  1.
         -4   -1    0    0    0  501 -0.00000000000E+00 -0.00000000000E+00 -0.12836159168E+03  0.12836787417E+03  0.12700000000E+01 0.  1.
         25    2    1    2    0    0  0.00000000000E+00  0.00000000000E+00 -0.97951180951E+02  0.15880479222E+03  0.12499811272E+03 0.  0.
    9000005    1    3    3    0    0  0.29690999738E+02 -0.35307628284E+02  0.45790987250E+01  0.46369733939E+02  0.10000000000E+01 0.  0.
    9000005    1    3    3    0    0 -0.29690999738E+02  0.35307628284E+02 -0.10253027968E+03  0.11243505828E+03  0.10000000000E+01 0.  0.
<mgrwt>
<rscale>  0 0.12499811E+03</rscale>
<asrwt>0</asrwt>
<pdfrwt beam="1">  1        4 0.46810471E-02 0.12499811E+03</pdfrwt>
<pdfrwt beam="2">  1       -4 0.19750459E-01 0.12499811E+03</pdfrwt>
<totfact> 0.97577847E+03</totfact>
</mgrwt>
</event>
<event>
 5    1  0.3251953E-002  0.1250001E+03  0.7818608E-02  0.1235069E+00
          4   -1    0    0  501    0  0.00000000000E+00  0.00000000000E+00  0.95551083371E+03  0.95551167771E+03  0.12700000000E+01 0.  1.
         -4   -1    0    0    0  501 -0.00000000000E+00 -0.00000000000E+00 -0.39886356031E+01  0.41859424237E+01  0.12700000000E+01 0.  1.
         25    2    1    2    0    0  0.00000000000E+00  0.00000000000E+00  0.95152219810E+03  0.95969762013E+03  0.12500011439E+03 0.  0.
    9000005    1    3    3    0    0  0.39686340513E+02  0.47363986721E+02  0.40418885902E+03  0.40888627590E+03  0.10000000000E+01 0.  0.
    9000005    1    3    3    0    0 -0.39686340513E+02 -0.47363986721E+02  0.54733333908E+03  0.55081134423E+03  0.10000000000E+01 0.  0.
<mgrwt>
<rscale>  0 0.12500011E+03</rscale>
<asrwt>0</asrwt>
<pdfrwt beam="1">  1        4 0.14701689E+00 0.12500011E+03</pdfrwt>
<pdfrwt beam="2">  1       -4 0.62887871E-03 0.12500011E+03</pdfrwt>
<totfact> 0.31974073E+03</totfact>
</mgrwt>
</event>
<event>
 5    1  0.3251953E-002  0.1249997E+03  0.7818608E-02  0.1235070E+00
         -4   -1    0    0    0  501 -0.00000000000E+00  0.00000000000E+00  0.24875713546E+02  0.24908111619E+02  0.12700000000E+01 0.  1.
          4   -1    0    0  501    0  0.00000000000E+00 -0.00000000000E+00 -0.15689263275E+03  0.15689777280E+03  0.12700000000E+01 0.  1.
         25    2    1    2    0    0  0.00000000000E+00  0.00000000000E+00 -0.13201691920E+03  0.18180588442E+03  0.12499965062E+03 0.  0.
    9000005    1    3    3    0    0 -0.49950084280E+01  0.53925045292E+02 -0.20654588238E+02  0.57969583699E+02  0.10000000000E+01 0.  0.
    9000005    1    3    3    0    0  0.49950084280E+01 -0.53925045292E+02 -0.11136233096E+03  0.12383630072E+03  0.10000000000E+01 0.  0.
<mgrwt>
<rscale>  0 0.12499965E+03</rscale>
<asrwt>0</asrwt>
<pdfrwt beam="2">  1        4 0.24140215E-01 0.12499965E+03</pdfrwt>
<pdfrwt beam="1">  1       -4 0.38299205E-02 0.12499965E+03</pdfrwt>
<totfact> 0.93293676E+03</totfact>
</mgrwt>
</event>
<event>
 5    1  0.3251953E-002  0.1249979E+03  0.7818608E-02  0.1235073E+00
          4   -1    0    0  501    0  0.00000000000E+00  0.00000000000E+00  0.32402308168E+01  0.34802292663E+01  0.12700000000E+01 0. -1.
         -4   -1    0    0    0  501 -0.00000000000E+00 -0.00000000000E+00 -0.11622150612E+04  0.11622157551E+04  0.12700000000E+01 0. -1.
         25    2    1    2    0    0  0.00000000000E+00  0.00000000000E+00 -0.11589748304E+04  0.11656959843E+04  0.12499788191E+03 0.  0.
    9000005    1    3    3    0    0  0.42033407686E+02 -0.37445780137E+02 -0.83250929545E+03  0.83441100234E+03  0.10000000000E+01 0.  0.
    9000005    1    3    3    0    0 -0.42033407686E+02  0.37445780137E+02 -0.32646553491E+03  0.33128498199E+03  0.10000000000E+01 0.  0.
<mgrwt>
<rscale>  0 0.12499788E+03</rscale>
<asrwt>0</asrwt>
<pdfrwt beam="1">  1        4 0.51701277E-03 0.12499788E+03</pdfrwt>
<pdfrwt beam="2">  1       -4 0.17882051E+00 0.12499788E+03</pdfrwt>
<totfact> 0.25629960E+03</totfact>
</mgrwt>
</event>
<event>
 5    1  0.3251953E-002  0.1249977E+03  0.7818608E-02  0.1235073E+00
          4   -1    0    0  501    0  0.00000000000E+00  0.00000000000E+00  0.11971706580E+03  0.11972380191E+03  0.12700000000E+01 0. -1.
         -4   -1    0    0    0  501 -0.00000000000E+00 -0.00000000000E+00 -0.32607809028E+02  0.32632531462E+02  0.12700000000E+01 0. -1.
         25    2    1    2    0    0  0.00000000000E+00  0.00000000000E+00  0.87109256769E+02  0.15235633337E+03  0.12499771879E+03 0.  0.
    9000005    1    3    3    0    0 -0.47924025937E+02  0.59179102618E+01  0.91902163883E+02  0.10382071879E+03  0.10000000000E+01 0.  0.
    9000005    1    3    3    0    0  0.47924025937E+02 -0.59179102618E+01 -0.47929071143E+01  0.48535614578E+02  0.10000000000E+01 0.  0.
<mgrwt>
<rscale>  0 0.12499772E+03</rscale>
<asrwt>0</asrwt>
<pdfrwt beam="1">  1        4 0.18420430E-01 0.12499772E+03</pdfrwt>
<pdfrwt beam="2">  1       -4 0.50190059E-02 0.12499772E+03</pdfrwt>
<totfact> 0.98841129E+03</totfact>
</mgrwt>
</event>
<event>
 5    1  0.3251953E-002  0.1250015E+03  0.7818608E-02  0.1235067E+00
          4   -1    0    0  501    0  0.00000000000E+00  0.00000000000E+00  0.87520090179E+01  0.88436735495E+01  0.12700000000E+01 0. -1.
         -4   -1    0    0    0  501 -0.00000000000E+00 -0.00000000000E+00 -0.44391919307E+03  0.44392100972E+03  0.12700000000E+01 0. -1.
         25    2    1    2    0    0  0.00000000000E+00  0.00000000000E+00 -0.43516718405E+03  0.45276468327E+03  0.12500152137E+03 0.  0.
    9000005    1    3    3    0    0  0.36489580276E+01  0.48856240034E+01  0.76895976773E+01  0.98647923966E+01  0.10000000000E+01 0.  0.
    9000005    1    3    3    0    0 -0.36489580276E+01 -0.48856240034E+01 -0.44285678173E+03  0.44289989088E+03  0.10000000000E+01 0.  0.
<mgrwt>
<rscale>  0 0.12500152E+03</rscale>
<asrwt>0</asrwt>
<pdfrwt beam="1">  1        4 0.13536541E-02 0.12500152E+03</pdfrwt>
<pdfrwt beam="2">  1       -4 0.68302434E-01 0.12500152E+03</pdfrwt>
<totfact> 0.59723043E+03</totfact>
</mgrwt>
</event>
<event>
 5    1  0.3251953E-002  0.1249958E+03  0.7818608E-02  0.1235076E+00
         -4   -1    0    0    0  501 -0.00000000000E+00  0.00000000000E+00  0.73978895775E+01  0.75061088589E+01  0.12700000000E+01 0.  1.
          4   -1    0    0  501    0  0.00000000000E+00 -0.00000000000E+00 -0.52404421110E+03  0.52404575000E+03  0.12700000000E+01 0.  1.
         25    2    1    2    0    0  0.00000000000E+00  0.00000000000E+00 -0.51664632153E+03  0.53155185886E+03  0.12499582836E+03 0.  0.
    9000005    1    3    3    0    0 -0.46063506573E+02  0.16817440461E+02 -0.42304134309E+03  0.42587515883E+03  0.10000000000E+01 0.  0.
    9000005    1    3    3    0    0  0.46063506573E+02 -0.16817440461E+02 -0.93604978436E+02  0.10567670003E+03  0.10000000000E+01 0.  0.
<mgrwt>
<rscale>  0 0.12499583E+03</rscale>
<asrwt>0</asrwt>
<pdfrwt beam="2">  1        4 0.80630600E-01 0.12499583E+03</pdfrwt>
<pdfrwt beam="1">  1       -4 0.11465802E-02 0.12499583E+03</pdfrwt>
<totfact> 0.53501737E+03</totfact>
</mgrwt>
</event>
<event>
 5    1  0.3251953E-002  0.1249956E+03  0.7818608E-02  0.1235076E+00
         -4   -1    0    0    0  501 -0.00000000000E+00  0.00000000000E+00  0.22970442534E+03  0.22970793613E+03  0.12700000000E+01 0.  1.
          4   -1    0    0  501    0  0.00000000000E+00 -0.00000000000E+00 -0.16976990200E+02  0.17024426459E+02  0.12700000000E+01 0.  1.
         25    2    1    2    0    0  0.00000000000E+00  0.00000000000E+00  0.21272743514E+03  0.24673236259E+03  0.12499558827E+03 0.  0.
    9000005    1    3    3    0    0 -0.33721956657E+02  0.52087936328E+02  0.12095621734E+03  0.13594752659E+03  0.10000000000E+01 0.  0.
    9000005    1    3    3    0    0  0.33721956657E+02 -0.52087936328E+02  0.91771217803E+02  0.11078483601E+03  0.10000000000E+01 0.  0.
<mgrwt>
<rscale>  0 0.12499559E+03</rscale>
<asrwt>0</asrwt>
<pdfrwt beam="2">  1        4 0.26157638E-02 0.12499559E+03</pdfrwt>
<pdfrwt beam="1">  1       -4 0.35343060E-01 0.12499559E+03</pdfrwt>
<totfact> 0.82812949E+03</totfact>
</mgrwt>
</event>
<event>
 5    1  0.3251953E-002  0.1249995E+03  0.7818608E-02  0.1235070E+00
          4   -1    0    0  501    0  0.00000000000E+00  0.00000000000E+00  0.34606382196E+02  0.34629677860E+02  0.12700000000E+01 0. -1.
         -4   -1    0    0    0  501 -0.00000000000E+00 -0.00000000000E+00 -0.11281074984E+03  0.11281789832E+03  0.12700000000E+01 0. -1.
         25    2    1    2    0    0  0.00000000000E+00  0.00000000000E+00 -0.78204367648E+02  0.14744757617E+03  0.12499945840E+03 0.  0.
    9000005    1    3    3    0    0  0.28821922244E+02 -0.50569699090E+01  0.26031245653E+02  0.39177824043E+02  0.10000000000E+01 0.  0.
    9000005    1    3    3    0    0 -0.28821922244E+02  0.50569699090E+01 -0.10423561330E+03  0.10826975213E+03  0.10000000000E+01 0.  0.
<mgrwt>
<rscale>  0 0.12499946E+03</rscale>
<asrwt>0</asrwt>
<pdfrwt beam="1">  1        4 0.53264007E-02 0.12499946E+03</pdfrwt>
<pdfrwt beam="2">  1       -4 0.17357842E-01 0.12499946E+03</pdfrwt>
<totfact> 0.99816157E+03</totfact>
</mgrwt>
</event>
<event>
 5    1  0.3251953E-002  0.1250006E+03  0.7818608E-02  0.1235068E+00
         -4   -1    0    0    0  501 -0.00000000000E+00  0.00000000000E+00  0.66015026304E+03  0.66015148465E+03  0.12700000000E+01 0.  1.
          4   -1    0    0  501    0  0.00000000000E+00 -0.00000000000E+00 -0.58478831713E+01  0.59841989928E+01  0.12700000000E+01 0.  1.
         25    2    1    2    0    0  0.00000000000E+00  0.00000000000E+00  0.65430237987E+03  0.66613568365E+03  0.12500057890E+03 0.  0.
    9000005    1    3    3    0    0  0.48907157190E+02 -0.34983843159E+02  0.23647774521E+03  0.24400512963E+03  0.10000000000E+01 0.  0.
    9000005    1    3    3    0    0 -0.48907157190E+02  0.34983843159E+02  0.41782463466E+03  0.42213055401E+03  0.10000000000E+01 0.  0.
<mgrwt>
<rscale>  0 0.12500058E+03</rscale>
<asrwt>0</asrwt>
<pdfrwt beam="2">  1        4 0.91025428E-03 0.12500058E+03</pdfrwt>
<pdfrwt beam="1">  1       -4 0.10157214E+00 0.12500058E+03</pdfrwt>
<totfact> 0.44935025E+03</totfact>
</mgrwt>
</event>
<event>
 5    1  0.3251953E-002  0.1250020E+03  0.7818608E-02  0.1235066E+00
          4   -1    0    0  501    0  0.00000000000E+00  0.00000000000E+00  0.17793793786E+03  0.17794247000E+03  0.12700000000E+01 0. -1.
         -4   -1    0    0    0  501 -0.00000000000E+00 -0.00000000000E+00 -0.21930404290E+02  0.21967146659E+02  0.12700000000E+01 0. -1.
         25    2    1    2    0    0  0.00000000000E+00  0.00000000000E+00  0.15600753357E+03  0.19990961666E+03  0.12500201719E+03 0.  0.
    9000005    1    3    3    0    0 -0.51473884282E+02  0.19507491888E+02  0.12531763424E+03  0.13687809341E+03  0.10000000000E+01 0.  0.
    9000005    1    3    3    0    0  0.51473884282E+02 -0.19507491888E+02  0.30689899331E+02  0.63031523254E+02  0.10000000000E+01 0.  0.
<mgrwt>
<rscale>  0 0.12500202E+03</rscale>
<asrwt>0</asrwt>
<pdfrwt beam="1">  1        4 0.27378242E-01 0.12500202E+03</pdfrwt>
<pdfrwt beam="2">  1       -4 0.33770833E-02 0.12500202E+03</pdfrwt>
<totfact> 0.90146682E+03</totfact>
</mgrwt>
</event>
<event>
 5    1  0.3251953E-002  0.1250005E+03  0.7818608E-02  0.1235068E+00
          4   -1    0    0  501    0  0.00000000000E+00  0.00000000000E+00  0.13311041554E+03  0.13311647391E+03  0.12700000000E+01 0.  1.
         -4   -1    0    0    0  501 -0.00000000000E+00 -0.00000000000E+00 -0.29325724038E+02  0.29353210904E+02  0.12700000000E+01 0.  1.
         25    2    1    2    0    0  0.00000000000E+00  0.00000000000E+00  0.10378469150E+03  0.16246968481E+03  0.12500054517E+03 0.  0.
    9000005    1    3    3    0    0 -0.44647821198E+02 -0.41058713231E+02  0.32351140160E+02  0.68752033713E+02  0.10000000000E+01 0.  0.
    9000005    1    3    3    0    0  0.44647821198E+02  0.41058713231E+02  0.71433551343E+02  0.93717651098E+02  0.10000000000E+01 0.  0.
<mgrwt>
<rscale>  0 0.12500055E+03</rscale>
<asrwt>0</asrwt>
<pdfrwt beam="1">  1        4 0.20481106E-01 0.12500055E+03</pdfrwt>
<pdfrwt beam="2">  1       -4 0.45142303E-02 0.12500055E+03</pdfrwt>
<totfact> 0.96867565E+03</totfact>
</mgrwt>
</event>
<event>
 5    1  0.3251953E-002  0.1250070E+03  0.7818608E-02  0.1235058E+00
         -4   -1    0    0    0  501 -0.00000000000E+00  0.00000000000E+00  0.19453565288E+02  0.19494976338E+02  0.12700000000E+01 0. -1.
          4   -1    0    0  501    0  0.00000000000E+00 -0.00000000000E+00 -0.20056430143E+03  0.20056832229E+03  0.12700000000E+01 0. -1.
         25    2    1    2    0    0  0.00000000000E+00  0.00000000000E+00 -0.18111073614E+03  0.22006329863E+03  0.12500702644E+03 0.  0.
    9000005    1    3    3    0    0  0.33768511133E+02  0.47593264471E+02 -0.12992942945E+03  0.14243625875E+03  0.10000000000E+01 0.  0.
    9000005    1    3    3    0    0 -0.33768511133E+02 -0.47593264471E+02 -0.51181306683E+02  0.77627039883E+02  0.10000000000E+01 0.  0.
<mgrwt>
<rscale>  0 0.12500703E+03</rscale>
<asrwt>0</asrwt>
<pdfrwt beam="2">  1        4 0.30859540E-01 0.12500703E+03</pdfrwt>
<pdfrwt beam="1">  1       -4 0.29963511E-02 0.12500703E+03</pdfrwt>
<totfact> 0.86844704E+03</totfact>
</mgrwt>
</event>
<event>
 5    1  0.3251953E-002  0.1249985E+03  0.7818608E-02  0.1235072E+00
          4   -1    0    0  501    0  0.00000000000E+00  0.00000000000E+00  0.17669159743E+03  0.17669616154E+03  0.12700000000E+01 0.  1.
         -4   -1    0    0    0  501 -0.00000000000E+00 -0.00000000000E+00 -0.22084106840E+02  0.22120593910E+02  0.12700000000E+01 0.  1.
         25    2    1    2    0    0  0.00000000000E+00  0.00000000000E+00  0.15460749059E+03  0.19881675545E+03  0.12499850439E+03 0.  0.
    9000005    1    3    3    0    0  0.85697612809E+01  0.61791839363E+02  0.71463078295E+02  0.94866452341E+02  0.10000000000E+01 0.  0.
    9000005    1    3    3    0    0 -0.85697612809E+01 -0.61791839363E+02  0.83144412300E+02  0.10395030311E+03  0.10000000000E+01 0.  0.
<mgrwt>
<rscale>  0 0.12499850E+03</rscale>
<asrwt>0</asrwt>
<pdfrwt beam="1">  1        4 0.27186481E-01 0.12499850E+03</pdfrwt>
<pdfrwt beam="2">  1       -4 0.34007126E-02 0.12499850E+03</pdfrwt>
<totfact> 0.90338477E+03</totfact>
</mgrwt>
</event>
<event>
 5    1  0.3251953E-002  0.1249845E+03  0.7818608E-02  0.1235094E+00
          4   -1    0    0  501    0  0.00000000000E+00  0.00000000000E+00  0.53096256882E+02  0.53111443163E+02  0.12700000000E+01 0. -1.
         -4   -1    0    0    0  501 -0.00000000000E+00 -0.00000000000E+00 -0.73519784405E+02  0.73530752743E+02  0.12700000000E+01 0. -1.
         25    2    1    2    0    0  0.00000000000E+00  0.00000000000E+00 -0.20423527523E+02  0.12664219591E+03  0.12498450027E+03 0.  0.
    9000005    1    3    3    0    0 -0.48141377190E+02 -0.39650810750E+02 -0.14070465905E+02  0.63943389037E+02  0.10000000000E+01 0.  0.
    9000005    1    3    3    0    0  0.48141377190E+02  0.39650810750E+02 -0.63530616188E+01  0.62698806869E+02  0.10000000000E+01 0.  0.
<mgrwt>
<rscale>  0 0.12498450E+03</rscale>
<asrwt>0</asrwt>
<pdfrwt beam="1">  1        4 0.81706668E-02 0.12498450E+03</pdfrwt>
<pdfrwt beam="2">  1       -4 0.11312748E-01 0.12498450E+03</pdfrwt>
<totfact> 0.10420574E+04</totfact>
</mgrwt>
</event>
<event>
 5    1  0.3251953E-002  0.1250009E+03  0.7818608E-02  0.1235068E+00
         -4   -1    0    0    0  501 -0.00000000000E+00  0.00000000000E+00  0.40087983685E+02  0.40108095641E+02  0.12700000000E+01 0.  1.
          4   -1    0    0  501    0  0.00000000000E+00 -0.00000000000E+00 -0.97394574575E+02  0.97402854458E+02  0.12700000000E+01 0.  1.
         25    2    1    2    0    0  0.00000000000E+00  0.00000000000E+00 -0.57306590890E+02  0.13751095010E+03  0.12500086415E+03 0.  0.
    9000005    1    3    3    0    0 -0.34466624315E+02  0.49609232238E+02 -0.46264194825E+02  0.76094676802E+02  0.10000000000E+01 0.  0.
    9000005    1    3    3    0    0  0.34466624315E+02 -0.49609232238E+02 -0.11042396065E+02  0.61416273297E+02  0.10000000000E+01 0.  0.
<mgrwt>
<rscale>  0 0.12500086E+03</rscale>
<asrwt>0</asrwt>
<pdfrwt beam="2">  1        4 0.14985965E-01 0.12500086E+03</pdfrwt>
<pdfrwt beam="1">  1       -4 0.61695661E-02 0.12500086E+03</pdfrwt>
<totfact> 0.10185215E+04</totfact>
</mgrwt>
</event>
<event>
 5    1  0.3251953E-002  0.1250010E+03  0.7818608E-02  0.1235068E+00
         -4   -1    0    0    0  501 -0.00000000000E+00  0.00000000000E+00  0.64239329442E+01  0.65482680513E+01  0.12700000000E+01 0. -1.
          4   -1    0    0  501    0  0.00000000000E+00 -0.00000000000E+00 -0.60213426202E+03  0.60213560133E+03  0.12700000000E+01 0. -1.
         25    2    1    2    0    0  0.00000000000E+00  0.00000000000E+00 -0.59571032907E+03  0.60868386939E+03  0.12500102674E+03 0.  0.
    9000005    1    3    3    0    0 -0.42803651835E+02  0.21494736030E+02 -0.10240116247E+03  0.11305385602E+03  0.10000000000E+01 0.  0.
    9000005    1    3    3    0    0  0.42803651835E+02 -0.21494736030E+02 -0.49330916661E+03  0.49563001336E+03  0.10000000000E+01 0.  0.
<mgrwt>
<rscale>  0 0.12500103E+03</rscale>
<asrwt>0</asrwt>
<pdfrwt beam="2">  1        4 0.92645663E-01 0.12500103E+03</pdfrwt>
<pdfrwt beam="1">  1       -4 0.99796512E-03 0.12500103E+03</pdfrwt>
<totfact> 0.48322937E+03</totfact>
</mgrwt>
</event>
<event>
 5    1  0.3251953E-002  0.1250020E+03  0.7818608E-02  0.1235066E+00
          4   -1    0    0  501    0  0.00000000000E+00  0.00000000000E+00  0.27159087826E+01  0.29981761982E+01  0.12700000000E+01 0. -1.
         -4   -1    0    0    0  501 -0.00000000000E+00 -0.00000000000E+00 -0.13669961913E+04  0.13669967812E+04  0.12700000000E+01 0. -1.
         25    2    1    2    0    0  0.00000000000E+00  0.00000000000E+00 -0.13642802825E+04  0.13699949574E+04  0.12500197658E+03 0.  0.
    9000005    1    3    3    0    0  0.32173195551E+02 -0.38660488813E+02 -0.10886323424E+04  0.10897940745E+04  0.10000000000E+01 0.  0.
    9000005    1    3    3    0    0 -0.32173195551E+02  0.38660488813E+02 -0.27564794012E+03  0.28020088294E+03  0.10000000000E+01 0.  0.
<mgrwt>
<rscale>  0 0.12500198E+03</rscale>
<asrwt>0</asrwt>
<pdfrwt beam="1">  1        4 0.43959147E-03 0.12500198E+03</pdfrwt>
<pdfrwt beam="2">  1       -4 0.21032834E+00 0.12500198E+03</pdfrwt>
<totfact> 0.20633271E+03</totfact>
</mgrwt>
</event>
<event>
 5    1  0.3251953E-002  0.1250012E+03  0.7818608E-02  0.1235067E+00
         -4   -1    0    0    0  501 -0.00000000000E+00  0.00000000000E+00  0.60043741533E+03  0.60043875843E+03  0.12700000000E+01 0. -1.
          4   -1    0    0  501    0  0.00000000000E+00 -0.00000000000E+00 -0.64424593527E+01  0.65664436730E+01  0.12700000000E+01 0. -1.
         25    2    1    2    0    0  0.00000000000E+00  0.00000000000E+00  0.59399495598E+03  0.60700520210E+03  0.12500123062E+03 0.  0.
    9000005    1    3    3    0    0  0.39950218813E+02 -0.48055199603E+02  0.29733116929E+03  0.30382914018E+03  0.10000000000E+01 0.  0.
    9000005    1    3    3    0    0 -0.39950218813E+02  0.48055199603E+02  0.29666378669E+03  0.30317606192E+03  0.10000000000E+01 0.  0.
<mgrwt>
<rscale>  0 0.12500123E+03</rscale>
<asrwt>0</asrwt>
<pdfrwt beam="2">  1        4 0.10007878E-02 0.12500123E+03</pdfrwt>
<pdfrwt beam="1">  1       -4 0.92384660E-01 0.12500123E+03</pdfrwt>
<totfact> 0.48427066E+03</totfact>
</mgrwt>
</event>
<event>
 5    1  0.3251953E-002  0.1249953E+03  0.7818608E-02  0.1235077E+00
          4   -1    0    0  501    0  0.00000000000E+00  0.00000000000E+00  0.12480703273E+03  0.12481349414E+03  0.12700000000E+01 0. -1.
         -4   -1    0    0    0  501 -0.00000000000E+00 -0.00000000000E+00 -0.31275806607E+02  0.31301581093E+02  0.12700000000E+01 0. -1.
         25    2    1    2    0    0  0.00000000000E+00  0.00000000000E+00  0.93531226125E+02  0.15611507523E+03  0.12499530573E+03 0.  0.
    9000005    1    3    3    0    0 -0.13561581002E+02 -0.56546133789E+02  0.75344186338E+02  0.95179452303E+02  0.10000000000E+01 0.  0.
    9000005    1    3    3    0    0  0.13561581002E+02  0.56546133789E+02  0.18187039787E+02  0.60935622931E+02  0.10000000000E+01 0.  0.
<mgrwt>
<rscale>  0 0.12499531E+03</rscale>
<asrwt>0</asrwt>
<pdfrwt beam="1">  1        4 0.19203562E-01 0.12499531E+03</pdfrwt>
<pdfrwt beam="2">  1       -4 0.48141423E-02 0.12499531E+03</pdfrwt>
<totfact> 0.98107395E+03</totfact>
</mgrwt>
</event>
<event>
 5    1  0.3251953E-002  0.1250023E+03  0.7818608E-02  0.1235066E+00
         -4   -1    0    0    0  501 -0.00000000000E+00  0.00000000000E+00  0.42858097571E+02  0.42876910189E+02  0.12700000000E+01 0. -1.
          4   -1    0    0  501    0  0.00000000000E+00 -0.00000000000E+00 -0.91103959824E+02  0.91112811370E+02  0.12700000000E+01 0. -1.
         25    2    1    2    0    0  0.00000000000E+00  0.00000000000E+00 -0.48245862253E+02  0.13398972156E+03  0.12500232901E+03 0.  0.
    9000005    1    3    3    0    0  0.83375522723E+01 -0.57948956673E+02 -0.69272591730E+00  0.58558314752E+02  0.10000000000E+01 0.  0.
    9000005    1    3    3    0    0 -0.83375522723E+01  0.57948956673E+02 -0.47553136336E+02  0.75431406807E+02  0.10000000000E+01 0.  0.
<mgrwt>
<rscale>  0 0.12500233E+03</rscale>
<asrwt>0</asrwt>
<pdfrwt beam="2">  1        4 0.14018122E-01 0.12500233E+03</pdfrwt>
<pdfrwt beam="1">  1       -4 0.65956815E-02 0.12500233E+03</pdfrwt>
<totfact> 0.10258870E+04</totfact>
</mgrwt>
</event>
<event>
 5    1  0.3251953E-002  0.1249843E+03  0.7818608E-02  0.1235094E+00
         -4   -1    0    0    0  501 -0.00000000000E+00  0.00000000000E+00  0.21924848540E+01  0.25337501524E+01  0.12700000000E+01 0. -1.
          4   -1    0    0  501    0  0.00000000000E+00 -0.00000000000E+00 -0.16522490882E+04  0.16522495763E+04  0.12700000000E+01 0. -1.
         25    2    1    2    0    0  0.00000000000E+00  0.00000000000E+00 -0.16500566034E+04  0.16547833265E+04  0.12498425194E+03 0.  0.
    9000005    1    3    3    0    0  0.39414029415E+02 -0.10143377583E+02 -0.14527620711E+04  0.14533323739E+04  0.10000000000E+01 0.  0.
    9000005    1    3    3    0    0 -0.39414029415E+02  0.10143377583E+02 -0.19729453224E+03  0.20145095253E+03  0.10000000000E+01 0.  0.
<mgrwt>
<rscale>  0 0.12498425E+03</rscale>
<asrwt>0</asrwt>
<pdfrwt beam="2">  1        4 0.25421753E+00 0.12498425E+03</pdfrwt>
<pdfrwt beam="1">  1       -4 0.36359541E-03 0.12498425E+03</pdfrwt>
<totfact> 0.15081736E+03</totfact>
</mgrwt>
</event>
<event>
 5    1  0.3251953E-002  0.1249987E+03  0.7818608E-02  0.1235071E+00
         -4   -1    0    0    0  501 -0.00000000000E+00  0.00000000000E+00  0.79285251330E+01  0.80295959291E+01  0.12700000000E+01 0.  1.
          4   -1    0    0  501    0  0.00000000000E+00 -0.00000000000E+00 -0.48945059440E+03  0.48945224206E+03  0.12700000000E+01 0.  1.
         25    2    1    2    0    0  0.00000000000E+00  0.00000000000E+00 -0.48152206927E+03  0.49748183799E+03  0.12499870375E+03 0.  0.
    9000005    1    3    3    0    0 -0.51186098705E+02  0.12359150025E+02 -0.10683273356E+03  0.11910918625E+03  0.10000000000E+01 0.  0.
    9000005    1    3    3    0    0  0.51186098705E+02 -0.12359150025E+02 -0.37468933570E+03  0.37837265173E+03  0.10000000000E+01 0.  0.
<mgrwt>
<rscale>  0 0.12499870E+03</rscale>
<asrwt>0</asrwt>
<pdfrwt beam="2">  1        4 0.75307970E-01 0.12499870E+03</pdfrwt>
<pdfrwt beam="1">  1       -4 0.12276749E-02 0.12499870E+03</pdfrwt>
<totfact> 0.56061884E+03</totfact>
</mgrwt>
</event>
<event>
 5    1  0.3251953E-002  0.1250029E+03  0.7818608E-02  0.1235065E+00
          4   -1    0    0  501    0  0.00000000000E+00  0.00000000000E+00  0.12245898937E+03  0.12246557466E+03  0.12700000000E+01 0. -1.
         -4   -1    0    0    0  501 -0.00000000000E+00 -0.00000000000E+00 -0.31879839860E+02  0.31905126383E+02  0.12700000000E+01 0. -1.
         25    2    1    2    0    0  0.00000000000E+00  0.00000000000E+00  0.90579149509E+02  0.15437070105E+03  0.12500292403E+03 0.  0.
    9000005    1    3    3    0    0 -0.34847210797E+01 -0.59583594800E+02  0.22415402767E+02  0.63763612911E+02  0.10000000000E+01 0.  0.
    9000005    1    3    3    0    0  0.34847210797E+01  0.59583594800E+02  0.68163746743E+02  0.90607088135E+02  0.10000000000E+01 0.  0.
<mgrwt>
<rscale>  0 0.12500292E+03</rscale>
<asrwt>0</asrwt>
<pdfrwt beam="1">  1        4 0.18842296E-01 0.12500292E+03</pdfrwt>
<pdfrwt beam="2">  1       -4 0.49070424E-02 0.12500292E+03</pdfrwt>
<totfact> 0.98432706E+03</totfact>
</mgrwt>
</event>
<event>
 5    1  0.3251953E-002  0.1249996E+03  0.7818608E-02  0.1235070E+00
          4   -1    0    0  501    0  0.00000000000E+00  0.00000000000E+00  0.50667535750E+03  0.50667694915E+03  0.12700000000E+01 0.  1.
         -4   -1    0    0    0  501 -0.00000000000E+00 -0.00000000000E+00 -0.76556031550E+01  0.77602293565E+01  0.12700000000E+01 0.  1.
         25    2    1    2    0    0  0.00000000000E+00  0.00000000000E+00  0.49901975435E+03  0.51443717851E+03  0.12499958160E+03 0.  0.
    9000005    1    3    3    0    0 -0.16815541094E+02  0.57557810025E+02  0.17710027518E+03  0.18697906670E+03  0.10000000000E+01 0.  0.
    9000005    1    3    3    0    0  0.16815541094E+02 -0.57557810025E+02  0.32191947917E+03  0.32745811180E+03  0.10000000000E+01 0.  0.
<mgrwt>
<rscale>  0 0.12499958E+03</rscale>
<asrwt>0</asrwt>
<pdfrwt beam="1">  1        4 0.77958229E-01 0.12499958E+03</pdfrwt>
<pdfrwt beam="2">  1       -4 0.11859557E-02 0.12499958E+03</pdfrwt>
<totfact> 0.54761865E+03</totfact>
</mgrwt>
</event>
<event>
 5    1  0.3251953E-002  0.1249927E+03  0.7818608E-02  0.1235081E+00
          4   -1    0    0  501    0  0.00000000000E+00  0.00000000000E+00  0.71259725966E+02  0.71271042119E+02  0.12700000000E+01 0.  1.
         -4   -1    0    0    0  501 -0.00000000000E+00 -0.00000000000E+00 -0.54787618442E+02  0.54802336032E+02  0.12700000000E+01 0.  1.
         25    2    1    2    0    0  0.00000000000E+00  0.00000000000E+00  0.16472107523E+02  0.12607337815E+03  0.12499266519E+03 0.  0.
    9000005    1    3    3    0    0  0.24268009031E+02 -0.21839406216E+02  0.61978023123E+02  0.70058341948E+02  0.10000000000E+01 0.  0.
    9000005    1    3    3    0    0 -0.24268009031E+02  0.21839406216E+02 -0.45505915600E+02  0.56015036203E+02  0.10000000000E+01 0.  0.
<mgrwt>
<rscale>  0 0.12499267E+03</rscale>
<asrwt>0</asrwt>
<pdfrwt beam="1">  1        4 0.10965037E-01 0.12499267E+03</pdfrwt>
<pdfrwt beam="2">  1       -4 0.84308670E-02 0.12499267E+03</pdfrwt>
<totfact> 0.10431076E+04</totfact>
</mgrwt>
</event>
<event>
 5    1  0.3251953E-002  0.1249991E+03  0.7818608E-02  0.1235071E+00
         -4   -1    0    0    0  501 -0.00000000000E+00  0.00000000000E+00  0.16657367616E+02  0.16705711475E+02  0.12700000000E+01 0. -1.
          4   -1    0    0  501    0  0.00000000000E+00 -0.00000000000E+00 -0.23411259738E+03  0.23411604206E+03  0.12700000000E+01 0. -1.
         25    2    1    2    0    0  0.00000000000E+00  0.00000000000E+00 -0.21745522976E+03  0.25082175354E+03  0.12499910038E+03 0.  0.
    9000005    1    3    3    0    0 -0.91434916746E+01 -0.61819012405E+02 -0.10871500772E+03  0.12539994672E+03  0.10000000000E+01 0.  0.
    9000005    1    3    3    0    0  0.91434916746E+01  0.61819012405E+02 -0.10874022204E+03  0.12542180681E+03  0.10000000000E+01 0.  0.
<mgrwt>
<rscale>  0 0.12499910E+03</rscale>
<asrwt>0</asrwt>
<pdfrwt beam="2">  1        4 0.36021304E-01 0.12499910E+03</pdfrwt>
<pdfrwt beam="1">  1       -4 0.25666558E-02 0.12499910E+03</pdfrwt>
<totfact> 0.82213252E+03</totfact>
</mgrwt>
</event>
<event>
 5    1  0.3251953E-002  0.1250024E+03  0.7818608E-02  0.1235065E+00
         -4   -1    0    0    0  501 -0.00000000000E+00  0.00000000000E+00  0.23174834566E+01  0.26426557800E+01  0.12700000000E+01 0. -1.
          4   -1    0    0  501    0  0.00000000000E+00 -0.00000000000E+00 -0.15747924293E+04  0.15747929414E+04  0.12700000000E+01 0. -1.
         25    2    1    2    0    0  0.00000000000E+00  0.00000000000E+00 -0.15724749458E+04  0.15774355972E+04  0.12500243175E+03 0.  0.
    9000005    1    3    3    0    0 -0.45740716428E+02 -0.36911948532E+01 -0.13215615968E+04  0.13223584583E+04  0.10000000000E+01 0.  0.
    9000005    1    3    3    0    0  0.45740716428E+02  0.36911948532E+01 -0.25091334905E+03  0.25507713890E+03  0.10000000000E+01 0.  0.
<mgrwt>
<rscale>  0 0.12500243E+03</rscale>
<asrwt>0</asrwt>
<pdfrwt beam="2">  1        4 0.24230001E+00 0.12500243E+03</pdfrwt>
<pdfrwt beam="1">  1       -4 0.38158982E-03 0.12500243E+03</pdfrwt>
<totfact> 0.16456690E+03</totfact>
</mgrwt>
</event>
<event>
 5    1  0.3251953E-002  0.1249943E+03  0.7818608E-02  0.1235078E+00
         -4   -1    0    0    0  501 -0.00000000000E+00  0.00000000000E+00  0.56377891190E+03  0.56378034233E+03  0.12700000000E+01 0. -1.
          4   -1    0    0  501    0  0.00000000000E+00 -0.00000000000E+00 -0.68684050130E+01  0.69848326696E+01  0.12700000000E+01 0. -1.
         25    2    1    2    0    0  0.00000000000E+00  0.00000000000E+00  0.55691050688E+03  0.57076517500E+03  0.12499428914E+03 0.  0.
    9000005    1    3    3    0    0 -0.39428565073E+02  0.78870638888E+01  0.60030186761E+02  0.72259538077E+02  0.10000000000E+01 0.  0.
    9000005    1    3    3    0    0  0.39428565073E+02 -0.78870638888E+01  0.49688032012E+03  0.49850563692E+03  0.10000000000E+01 0.  0.
<mgrwt>
<rscale>  0 0.12499429E+03</rscale>
<asrwt>0</asrwt>
<pdfrwt beam="2">  1        4 0.10657435E-02 0.12499429E+03</pdfrwt>
<pdfrwt beam="1">  1       -4 0.86744299E-01 0.12499429E+03</pdfrwt>
<totfact> 0.50772928E+03</totfact>
</mgrwt>
</event>
<event>
 5    1  0.3251953E-002  0.1250001E+03  0.7818608E-02  0.1235069E+00
          4   -1    0    0  501    0  0.00000000000E+00  0.00000000000E+00  0.50302419176E+01  0.51880857500E+01  0.12700000000E+01 0.  1.
         -4   -1    0    0    0  501 -0.00000000000E+00 -0.00000000000E+00 -0.76440053333E+03  0.76440158834E+03  0.12700000000E+01 0.  1.
         25    2    1    2    0    0  0.00000000000E+00  0.00000000000E+00 -0.75937029141E+03  0.76958967409E+03  0.12500010794E+03 0.  0.
    9000005    1    3    3    0    0  0.21627311266E+02  0.27598358521E+02 -0.69816316481E+03  0.69904378595E+03  0.10000000000E+01 0.  0.
    9000005    1    3    3    0    0 -0.21627311266E+02 -0.27598358521E+02 -0.61207126603E+02  0.70545888134E+02  0.10000000000E+01 0.  0.
<mgrwt>
<rscale>  0 0.12500011E+03</rscale>
<asrwt>0</asrwt>
<pdfrwt beam="1">  1        4 0.78610697E-03 0.12500011E+03</pdfrwt>
<pdfrwt beam="2">  1       -4 0.11761221E+00 0.12500011E+03</pdfrwt>
<totfact> 0.39654155E+03</totfact>
</mgrwt>
</event>
<event>
 5    1  0.3251953E-002  0.1250032E+03  0.7818608E-02  0.1235064E+00
          4   -1    0    0  501    0  0.00000000000E+00  0.00000000000E+00  0.12089837561E+04  0.12089844231E+04  0.12700000000E+01 0. -1.
         -4   -1    0    0    0  501 -0.00000000000E+00 -0.00000000000E+00 -0.31057020408E+01  0.33553368186E+01  0.12700000000E+01 0. -1.
         25    2    1    2    0    0  0.00000000000E+00  0.00000000000E+00  0.12058780540E+04  0.12123397599E+04  0.12500324929E+03 0.  0.
    9000005    1    3    3    0    0 -0.19205125977E+02  0.59451645893E+02  0.61705361111E+03  0.62020923408E+03  0.10000000000E+01 0.  0.
    9000005    1    3    3    0    0  0.19205125977E+02 -0.59451645893E+02  0.58882444292E+03  0.59213052585E+03  0.10000000000E+01 0.  0.
<mgrwt>
<rscale>  0 0.12500325E+03</rscale>
<asrwt>0</asrwt>
<pdfrwt beam="1">  1        4 0.18601692E+00 0.12500325E+03</pdfrwt>
<pdfrwt beam="2">  1       -4 0.49705385E-03 0.12500325E+03</pdfrwt>
<totfact> 0.24390267E+03</totfact>
</mgrwt>
</event>
<event>
 5    1  0.3251953E-002  0.1250040E+03  0.7818608E-02  0.1235063E+00
         -4   -1    0    0    0  501 -0.00000000000E+00  0.00000000000E+00  0.19778965691E+03  0.19779373418E+03  0.12700000000E+01 0. -1.
          4   -1    0    0  501    0  0.00000000000E+00 -0.00000000000E+00 -0.19726092578E+02  0.19766932701E+02  0.12700000000E+01 0. -1.
         25    2    1    2    0    0  0.00000000000E+00  0.00000000000E+00  0.17806356433E+03  0.21756066688E+03  0.12500404326E+03 0.  0.
    9000005    1    3    3    0    0  0.58325888282E+02 -0.26208939676E+01  0.50242293159E+02  0.77032891358E+02  0.10000000000E+01 0.  0.
    9000005    1    3    3    0    0 -0.58325888282E+02  0.26208939676E+01  0.12782127117E+03  0.14052777552E+03  0.10000000000E+01 0.  0.
<mgrwt>
<rscale>  0 0.12500404E+03</rscale>
<asrwt>0</asrwt>
<pdfrwt beam="2">  1        4 0.30382388E-02 0.12500404E+03</pdfrwt>
<pdfrwt beam="1">  1       -4 0.30432632E-01 0.12500404E+03</pdfrwt>
<totfact> 0.87247939E+03</totfact>
</mgrwt>
</event>
<event>
 5    1  0.3251953E-002  0.1249942E+03  0.7818608E-02  0.1235078E+00
          4   -1    0    0  501    0  0.00000000000E+00  0.00000000000E+00  0.31734929560E+01  0.34181804431E+01  0.12700000000E+01 0.  1.
         -4   -1    0    0    0  501 -0.00000000000E+00 -0.00000000000E+00 -0.11848527590E+04  0.11848534396E+04  0.12700000000E+01 0.  1.
         25    2    1    2    0    0  0.00000000000E+00  0.00000000000E+00 -0.11816792660E+04  0.11882716201E+04  0.12499422098E+03 0.  0.
    9000005    1    3    3    0    0 -0.58871064270E+02 -0.12236892030E+02 -0.75254850418E+03  0.75494754445E+03  0.10000000000E+01 0.  0.
    9000005    1    3    3    0    0  0.58871064270E+02  0.12236892030E+02 -0.42913076185E+03  0.43332407561E+03  0.10000000000E+01 0.  0.
<mgrwt>
<rscale>  0 0.12499422E+03</rscale>
<asrwt>0</asrwt>
<pdfrwt beam="1">  1        4 0.50710510E-03 0.12499422E+03</pdfrwt>
<pdfrwt beam="2">  1       -4 0.18230357E+00 0.12499422E+03</pdfrwt>
<totfact> 0.25025030E+03</totfact>
</mgrwt>
</event>
<event>
 5    1  0.3251953E-002  0.1250014E+03  0.7818608E-02  0.1235067E+00
          4   -1    0    0  501    0  0.00000000000E+00  0.00000000000E+00  0.90435506778E+03  0.90435595952E+03  0.12700000000E+01 0.  1.
         -4   -1    0    0    0  501 -0.00000000000E+00 -0.00000000000E+00 -0.42252068444E+01  0.44119466087E+01  0.12700000000E+01 0.  1.
         25    2    1    2    0    0  0.00000000000E+00  0.00000000000E+00  0.90012986094E+03  0.90876790613E+03  0.12500136264E+03 0.  0.
    9000005    1    3    3    0    0 -0.28255061002E+02  0.11895085492E+02  0.54163809014E+02  0.62245961620E+02  0.10000000000E+01 0.  0.
    9000005    1    3    3    0    0  0.28255061002E+02 -0.11895085492E+02  0.84596605192E+03  0.84652194451E+03  0.10000000000E+01 0.  0.
<mgrwt>
<rscale>  0 0.12500136E+03</rscale>
<asrwt>0</asrwt>
<pdfrwt beam="1">  1        4 0.13914634E+00 0.12500136E+03</pdfrwt>
<pdfrwt beam="2">  1       -4 0.66446330E-03 0.12500136E+03</pdfrwt>
<totfact> 0.33825309E+03</totfact>
</mgrwt>
</event>
<event>
 5    1  0.3251953E-002  0.1250028E+03  0.7818608E-02  0.1235065E+00
         -4   -1    0    0    0  501 -0.00000000000E+00  0.00000000000E+00  0.14870984941E+03  0.14871527229E+03  0.12700000000E+01 0. -1.
          4   -1    0    0  501    0  0.00000000000E+00 -0.00000000000E+00 -0.26247532600E+02  0.26278239431E+02  0.12700000000E+01 0. -1.
         25    2    1    2    0    0  0.00000000000E+00  0.00000000000E+00  0.12246231681E+03  0.17499351172E+03  0.12500284039E+03 0.  0.
    9000005    1    3    3    0    0 -0.20631391532E+01 -0.61057908046E+02  0.42812662070E+02  0.74607296638E+02  0.10000000000E+01 0.  0.
    9000005    1    3    3    0    0  0.20631391532E+01  0.61057908046E+02  0.79649654745E+02  0.10038621508E+03  0.10000000000E+01 0.  0.
<mgrwt>
<rscale>  0 0.12500284E+03</rscale>
<asrwt>0</asrwt>
<pdfrwt beam="2">  1        4 0.40408611E-02 0.12500284E+03</pdfrwt>
<pdfrwt beam="1">  1       -4 0.22881218E-01 0.12500284E+03</pdfrwt>
<totfact> 0.94520006E+03</totfact>
</mgrwt>
</event>
<event>
 5    1  0.3251953E-002  0.1250036E+03  0.7818608E-02  0.1235064E+00
         -4   -1    0    0    0  501 -0.00000000000E+00  0.00000000000E+00  0.80624002572E+02  0.80634004556E+02  0.12700000000E+01 0. -1.
          4   -1    0    0  501    0  0.00000000000E+00 -0.00000000000E+00 -0.48431695506E+02  0.48448343931E+02  0.12700000000E+01 0. -1.
         25    2    1    2    0    0  0.00000000000E+00  0.00000000000E+00  0.32192307066E+02  0.12908234849E+03  0.12500363217E+03 0.  0.
    9000005    1    3    3    0    0  0.38675717130E+02  0.41606778479E+02 -0.10802625185E+02  0.57832791925E+02  0.10000000000E+01 0.  0.
    9000005    1    3    3    0    0 -0.38675717130E+02 -0.41606778479E+02  0.42994932251E+02  0.71249556562E+02  0.10000000000E+01 0.  0.
<mgrwt>
<rscale>  0 0.12500363E+03</rscale>
<asrwt>0</asrwt>
<pdfrwt beam="2">  1        4 0.74530802E-02 0.12500363E+03</pdfrwt>
<pdfrwt beam="1">  1       -4 0.12405743E-01 0.12500363E+03</pdfrwt>
<totfact> 0.10363328E+04</totfact>
</mgrwt>
</event>
<event>
 5    1  0.3251953E-002  0.1250215E+03  0.7818608E-02  0.1235036E+00
         -4   -1    0    0    0  501 -0.00000000000E+00  0.00000000000E+00  0.83213861070E+02  0.83223551800E+02  0.12700000000E+01 0.  1.
          4   -1    0    0  501    0  0.00000000000E+00 -0.00000000000E+00 -0.46937472077E+02  0.46954650302E+02  0.12700000000E+01 0.  1.
         25    2    1    2    0    0  0.00000000000E+00  0.00000000000E+00  0.36276388993E+02  0.13017820210E+03  0.12502154976E+03 0.  0.
    9000005    1    3    3    0    0  0.34401104342E+02  0.47867661277E+02  0.39776280737E+02  0.71118924945E+02  0.10000000000E+01 0.  0.
    9000005    1    3    3    0    0 -0.34401104342E+02 -0.47867661277E+02 -0.34998917435E+01  0.59059277157E+02  0.10000000000E+01 0.  0.
<mgrwt>
<rscale>  0 0.12502155E+03</rscale>
<asrwt>0</asrwt>
<pdfrwt beam="2">  1        4 0.72232165E-02 0.12502155E+03</pdfrwt>
<pdfrwt beam="1">  1       -4 0.12804199E-01 0.12502155E+03</pdfrwt>
<totfact> 0.10335669E+04</totfact>
</mgrwt>
</event>
<event>
 5    1  0.3251953E-002  0.1249975E+03  0.7818608E-02  0.1235073E+00
         -4   -1    0    0    0  501 -0.00000000000E+00  0.00000000000E+00  0.28483728953E+02  0.28512027551E+02  0.12700000000E+01 0. -1.
          4   -1    0    0  501    0  0.00000000000E+00 -0.00000000000E+00 -0.13703483365E+03  0.13704071852E+03  0.12700000000E+01 0. -1.
         25    2    1    2    0    0  0.00000000000E+00  0.00000000000E+00 -0.10855110470E+03  0.16555274607E+03  0.12499747758E+03 0.  0.
    9000005    1    3    3    0    0  0.39450798436E+02  0.13060645724E+02 -0.11608838865E+03  0.12330636619E+03  0.10000000000E+01 0.  0.
    9000005    1    3    3    0    0 -0.39450798436E+02 -0.13060645724E+02  0.75372839516E+01  0.42246379885E+02  0.10000000000E+01 0.  0.
<mgrwt>
<rscale>  0 0.12499748E+03</rscale>
<asrwt>0</asrwt>
<pdfrwt beam="2">  1        4 0.21084911E-01 0.12499748E+03</pdfrwt>
<pdfrwt beam="1">  1       -4 0.43847417E-02 0.12499748E+03</pdfrwt>
<totfact> 0.96288269E+03</totfact>
</mgrwt>
</event>
<event>
 5    1  0.3251953E-002  0.1250016E+03  0.7818608E-02  0.1235067E+00
         -4   -1    0    0    0  501 -0.00000000000E+00  0.00000000000E+00  0.36669507078E+02  0.36691492874E+02  0.12700000000E+01 0. -1.
          4   -1    0    0  501    0  0.00000000000E+00 -0.00000000000E+00 -0.10647085899E+03  0.10647843309E+03  0.12700000000E+01 0. -1.
         25    2    1    2    0    0  0.00000000000E+00  0.00000000000E+00 -0.69801351911E+02  0.14316992597E+03  0.12500159588E+03 0.  0.
    9000005    1    3    3    0    0 -0.63799214989E+01 -0.58176067398E+02 -0.98024231731E+01  0.59348510649E+02  0.10000000000E+01 0.  0.
    9000005    1    3    3    0    0  0.63799214989E+01  0.58176067398E+02 -0.59998928738E+02  0.83821415318E+02  0.10000000000E+01 0.  0.
<mgrwt>
<rscale>  0 0.12500160E+03</rscale>
<asrwt>0</asrwt>
<pdfrwt beam="2">  1        4 0.16382406E-01 0.12500160E+03</pdfrwt>
<pdfrwt beam="1">  1       -4 0.56437365E-02 0.12500160E+03</pdfrwt>
<totfact> 0.10067943E+04</totfact>
</mgrwt>
</event>
<event>
 5    1  0.3251953E-002  0.1250012E+03  0.7818608E-02  0.1235067E+00
         -4   -1    0    0    0  501 -0.00000000000E+00  0.00000000000E+00  0.82495797449E+02  0.82505572520E+02  0.12700000000E+01 0. -1.
          4   -1    0    0  501    0  0.00000000000E+00 -0.00000000000E+00 -0.47330731140E+02  0.47347766687E+02  0.12700000000E+01 0. -1.
         25    2    1    2    0    0  0.00000000000E+00  0.00000000000E+00  0.35165066310E+02  0.12985333921E+03  0.12500123125E+03 0.  0.
    9000005    1    3    3    0    0 -0.20528159506E+02 -0.17612899604E+02  0.76104952631E+02  0.80774893253E+02  0.10000000000E+01 0.  0.
    9000005    1    3    3    0    0  0.20528159506E+02  0.17612899604E+02 -0.40939886321E+02  0.49078445953E+02  0.10000000000E+01 0.  0.
<mgrwt>
<rscale>  0 0.12500123E+03</rscale>
<asrwt>0</asrwt>
<pdfrwt beam="2">  1        4 0.72837132E-02 0.12500123E+03</pdfrwt>
<pdfrwt beam="1">  1       -4 0.12693724E-01 0.12500123E+03</pdfrwt>
<totfact> 0.10347358E+04</totfact>
</mgrwt>
</event>
<event>
 5    1  0.3251953E-002  0.1250361E+03  0.7818608E-02  0.1235013E+00
          4   -1    0    0  501    0  0.00000000000E+00  0.00000000000E+00  0.57220205974E+02  0.57234298036E+02  0.12700000000E+01 0.  1.
         -4   -1    0    0    0  501 -0.00000000000E+00 -0.00000000000E+00 -0.68277953298E+02  0.68289763557E+02  0.12700000000E+01 0.  1.
         25    2    1    2    0    0  0.00000000000E+00  0.00000000000E+00 -0.11057747324E+02  0.12552406159E+03  0.12503605985E+03 0.  0.
    9000005    1    3    3    0    0  0.59282365355E+02 -0.12078464417E+02 -0.21313340674E+02  0.64152526337E+02  0.10000000000E+01 0.  0.
    9000005    1    3    3    0    0 -0.59282365355E+02  0.12078464417E+02  0.10255593350E+02  0.61371535256E+02  0.10000000000E+01 0.  0.
<mgrwt>
<rscale>  0 0.12503606E+03</rscale>
<asrwt>0</asrwt>
<pdfrwt beam="1">  1        4 0.88051011E-02 0.12503606E+03</pdfrwt>
<pdfrwt beam="2">  1       -4 0.10506293E-01 0.12503606E+03</pdfrwt>
<totfact> 0.10432935E+04</totfact>
</mgrwt>
</event>
<event>
 5    1  0.3251953E-002  0.1250007E+03  0.7818608E-02  0.1235068E+00
         -4   -1    0    0    0  501 -0.00000000000E+00  0.00000000000E+00  0.27028699206E+02  0.27058519559E+02  0.12700000000E+01 0. -1.
          4   -1    0    0  501    0  0.00000000000E+00 -0.00000000000E+00 -0.14441170895E+03  0.14441729322E+03  0.12700000000E+01 0. -1.
         25    2    1    2    0    0  0.00000000000E+00  0.00000000000E+00 -0.11738300974E+03  0.17147581278E+03  0.12500073357E+03 0.  0.
    9000005    1    3    3    0    0 -0.28950969533E+02 -0.42878867368E+02 -0.10677377336E+03  0.11865241077E+03  0.10000000000E+01 0.  0.
    9000005    1    3    3    0    0  0.28950969533E+02  0.42878867368E+02 -0.10609236384E+02  0.52823402014E+02  0.10000000000E+01 0.  0.
<mgrwt>
<rscale>  0 0.12500073E+03</rscale>
<asrwt>0</asrwt>
<pdfrwt beam="2">  1        4 0.22219909E-01 0.12500073E+03</pdfrwt>
<pdfrwt beam="1">  1       -4 0.41609849E-02 0.12500073E+03</pdfrwt>
<totfact> 0.95172712E+03</totfact>
</mgrwt>
</event>
<event>
 5    1  0.3251953E-002  0.1249802E+03  0.7818608E-02  0.1235100E+00
          4   -1    0    0  501    0  0.00000000000E+00  0.00000000000E+00  0.39030650012E+02  0.39051306513E+02  0.12700000000E+01 0.  1.
         -4   -1    0    0    0  501 -0.00000000000E+00 -0.00000000000E+00 -0.99998792167E+02  0.10000685644E+03  0.12700000000E+01 0.  1.
         25    2    1    2    0    0  0.00000000000E+00  0.00000000000E+00 -0.60968142155E+02  0.13905816295E+03  0.12498023174E+03 0.  0.
    9000005    1    3    3    0    0  0.43584429542E+02  0.23246432255E+02 -0.73056457464E+02  0.88194359731E+02  0.10000000000E+01 0.  0.
    9000005    1    3    3    0    0 -0.43584429542E+02 -0.23246432255E+02  0.12088315309E+02  0.50863803221E+02  0.10000000000E+01 0.  0.
<mgrwt>
<rscale>  0 0.12498023E+03</rscale>
<asrwt>0</asrwt>
<pdfrwt beam="1">  1        4 0.60069247E-02 0.12498023E+03</pdfrwt>
<pdfrwt beam="2">  1       -4 0.15386639E-01 0.12498023E+03</pdfrwt>
<totfact> 0.10157667E+04</totfact>
</mgrwt>
</event>
<event>
 5    1  0.3251953E-002  0.1249972E+03  0.7818608E-02  0.1235074E+00
         -4   -1    0    0    0  501 -0.00000000000E+00  0.00000000000E+00  0.23291470889E+03  0.23291817129E+03  0.12700000000E+01 0. -1.
          4   -1    0    0  501    0  0.00000000000E+00 -0.00000000000E+00 -0.16742778381E+02  0.16790876330E+02  0.12700000000E+01 0. -1.
         25    2    1    2    0    0  0.00000000000E+00  0.00000000000E+00  0.21617193051E+03  0.24970904762E+03  0.12499721966E+03 0.  0.
    9000005    1    3    3    0    0  0.57301357862E+01  0.35674540772E+02  0.20994149055E+03  0.21303036584E+03  0.10000000000E+01 0.  0.
    9000005    1    3    3    0    0 -0.57301357862E+01 -0.35674540772E+02  0.62304399634E+01  0.36678681786E+02  0.10000000000E+01 0.  0.
<mgrwt>
<rscale>  0 0.12499722E+03</rscale>
<asrwt>0</asrwt>
<pdfrwt beam="2">  1        4 0.25797783E-02 0.12499722E+03</pdfrwt>
<pdfrwt beam="1">  1       -4 0.35836998E-01 0.12499722E+03</pdfrwt>
<totfact> 0.82377399E+03</totfact>
</mgrwt>
</event>
<event>
 5    1  0.3251953E-002  0.1250016E+03  0.7818608E-02  0.1235067E+00
         -4   -1    0    0    0  501 -0.00000000000E+00  0.00000000000E+00  0.21186649230E+04  0.21186653036E+04  0.12700000000E+01 0. -1.
          4   -1    0    0  501    0  0.00000000000E+00 -0.00000000000E+00 -0.16246594233E+01  0.20621392391E+01  0.12700000000E+01 0. -1.
         25    2    1    2    0    0  0.00000000000E+00  0.00000000000E+00  0.21170402635E+04  0.21207274428E+04  0.12500163750E+03 0.  0.
    9000005    1    3    3    0    0  0.55858636185E+02 -0.41899885915E+01  0.58847537518E+03  0.59113620295E+03  0.10000000000E+01 0.  0.
    9000005    1    3    3    0    0 -0.55858636185E+02  0.41899885915E+01  0.15285648884E+04  0.15295912399E+04  0.10000000000E+01 0.  0.
<mgrwt>
<rscale>  0 0.12500164E+03</rscale>
<asrwt>0</asrwt>
<pdfrwt beam="2">  1        4 0.28362901E-03 0.12500164E+03</pdfrwt>
<pdfrwt beam="1">  1       -4 0.32598232E+00 0.12500164E+03</pdfrwt>
<totfact> 0.83663293E+02</totfact>
</mgrwt>
</event>
<event>
 5    1  0.3251953E-002  0.1250003E+03  0.7818608E-02  0.1235069E+00
         -4   -1    0    0    0  501 -0.00000000000E+00  0.00000000000E+00  0.16856603117E+02  0.16904377204E+02  0.12700000000E+01 0. -1.
          4   -1    0    0  501    0  0.00000000000E+00 -0.00000000000E+00 -0.23135764785E+03  0.23136113355E+03  0.12700000000E+01 0. -1.
         25    2    1    2    0    0  0.00000000000E+00  0.00000000000E+00 -0.21450104473E+03  0.24826551075E+03  0.12500026256E+03 0.  0.
    9000005    1    3    3    0    0  0.32269644054E+02 -0.20697575987E+02 -0.92330027455E+01  0.39445759200E+02  0.10000000000E+01 0.  0.
    9000005    1    3    3    0    0 -0.32269644054E+02  0.20697575987E+02 -0.20526804198E+03  0.20881975155E+03  0.10000000000E+01 0.  0.
<mgrwt>
<rscale>  0 0.12500026E+03</rscale>
<asrwt>0</asrwt>
<pdfrwt beam="2">  1        4 0.35597425E-01 0.12500026E+03</pdfrwt>
<pdfrwt beam="1">  1       -4 0.25972668E-02 0.12500026E+03</pdfrwt>
<totfact> 0.82581081E+03</totfact>
</mgrwt>
</event>
<event>
 5    1  0.3251953E-002  0.1249997E+03  0.7818608E-02  0.1235070E+00
         -4   -1    0    0    0  501 -0.00000000000E+00  0.00000000000E+00  0.18831363610E+03  0.18831791854E+03  0.12700000000E+01 0.  1.
          4   -1    0    0  501    0  0.00000000000E+00 -0.00000000000E+00 -0.20719274513E+02  0.20758160717E+02  0.12700000000E+01 0.  1.
         25    2    1    2    0    0  0.00000000000E+00  0.00000000000E+00  0.16759436159E+03  0.20907607925E+03  0.12499974752E+03 0.  0.
    9000005    1    3    3    0    0  0.52335636642E+02 -0.34148655983E+02  0.84283826724E+02  0.10492813262E+03  0.10000000000E+01 0.  0.
    9000005    1    3    3    0    0 -0.52335636642E+02  0.34148655983E+02  0.83310534866E+02  0.10414794663E+03  0.10000000000E+01 0.  0.
<mgrwt>
<rscale>  0 0.12499975E+03</rscale>
<asrwt>0</asrwt>
<pdfrwt beam="2">  1        4 0.31909015E-02 0.12499975E+03</pdfrwt>
<pdfrwt beam="1">  1       -4 0.28974648E-01 0.12499975E+03</pdfrwt>
<totfact> 0.88627493E+03</totfact>
</mgrwt>
</event>
<event>
 4    1  0.3251953E-002  0.1248529E+03  0.7818608E-02  0.1235299E+00
          4   -1    0    0  501    0  0.00000000000E+00  0.00000000000E+00  0.35886507501E+03  0.35886732223E+03  0.12700000000E+01 0. -1.
         -4   -1    0    0    0  501 -0.00000000000E+00 -0.00000000000E+00 -0.10819994228E+02  0.10894272583E+02  0.12700000000E+01 0. -1.
    9000005    1    1    2    0    0 -0.57530716443E+02  0.23690367691E+02  0.18884458255E+03  0.19883232437E+03  0.10000000000E+01 0.  0.
    9000005    1    1    2    0    0  0.57530716443E+02 -0.23690367691E+02  0.15920049824E+03  0.17092927045E+03  0.10000000000E+01 0.  0.
<mgrwt>
<rscale>  0 0.12485295E+03</rscale>
<asrwt>0</asrwt>
<pdfrwt beam="1">  1        4 0.55215898E-01 0.12485295E+03</pdfrwt>
<pdfrwt beam="2">  1       -4 0.16705011E-02 0.12485295E+03</pdfrwt>
<totfact> 0.67824140E+03</totfact>
</mgrwt>
</event>
<event>
 5    1  0.3251953E-002  0.1249965E+03  0.7818608E-02  0.1235075E+00
         -4   -1    0    0    0  501 -0.00000000000E+00  0.00000000000E+00  0.37583503909E+02  0.37604955339E+02  0.12700000000E+01 0.  1.
          4   -1    0    0  501    0  0.00000000000E+00 -0.00000000000E+00 -0.10387450378E+03  0.10388226718E+03  0.12700000000E+01 0.  1.
         25    2    1    2    0    0  0.00000000000E+00  0.00000000000E+00 -0.66290999869E+02  0.14148722252E+03  0.12499654985E+03 0.  0.
    9000005    1    3    3    0    0  0.12170118597E+02 -0.38783365098E+02 -0.86870686011E+02  0.95915469466E+02  0.10000000000E+01 0.  0.
    9000005    1    3    3    0    0 -0.12170118597E+02  0.38783365098E+02  0.20579686141E+02  0.45571753057E+02  0.10000000000E+01 0.  0.
<mgrwt>
<rscale>  0 0.12499655E+03</rscale>
<asrwt>0</asrwt>
<pdfrwt beam="2">  1        4 0.15982940E-01 0.12499655E+03</pdfrwt>
<pdfrwt beam="1">  1       -4 0.57843248E-02 0.12499655E+03</pdfrwt>
<totfact> 0.10103640E+04</totfact>
</mgrwt>
</event>
<event>
 5    1  0.3251953E-002  0.1249984E+03  0.7818608E-02  0.1235072E+00
         -4   -1    0    0    0  501 -0.00000000000E+00  0.00000000000E+00  0.19846939543E+02  0.19887531502E+02  0.12700000000E+01 0.  1.
          4   -1    0    0  501    0  0.00000000000E+00 -0.00000000000E+00 -0.19657012067E+03  0.19657422324E+03  0.12700000000E+01 0.  1.
         25    2    1    2    0    0  0.00000000000E+00  0.00000000000E+00 -0.17672318113E+03  0.21646175474E+03  0.12499843405E+03 0.  0.
    9000005    1    3    3    0    0  0.26031700273E+02  0.43876440887E+02 -0.25867027721E+02  0.57209217851E+02  0.10000000000E+01 0.  0.
    9000005    1    3    3    0    0 -0.26031700273E+02 -0.43876440887E+02 -0.15085615341E+03  0.15925253689E+03  0.10000000000E+01 0.  0.
<mgrwt>
<rscale>  0 0.12499843E+03</rscale>
<asrwt>0</asrwt>
<pdfrwt beam="2">  1        4 0.30244994E-01 0.12499843E+03</pdfrwt>
<pdfrwt beam="1">  1       -4 0.30568135E-02 0.12499843E+03</pdfrwt>
<totfact> 0.87434405E+03</totfact>
</mgrwt>
</event>
<event>
 5    1  0.3251953E-002  0.1250054E+03  0.7818608E-02  0.1235061E+00
         -4   -1    0    0    0  501 -0.00000000000E+00  0.00000000000E+00  0.37583117758E+02  0.37604569409E+02  0.12700000000E+01 0. -1.
          4   -1    0    0  501    0  0.00000000000E+00 -0.00000000000E+00 -0.10389028885E+03  0.10389805108E+03  0.12700000000E+01 0. -1.
         25    2    1    2    0    0  0.00000000000E+00  0.00000000000E+00 -0.66307171097E+02  0.14150262049E+03  0.12500540255E+03 0.  0.
    9000005    1    3    3    0    0 -0.11265522943E+02 -0.31595293287E+01 -0.10264498889E+03  0.10331451194E+03  0.10000000000E+01 0.  0.
    9000005    1    3    3    0    0  0.11265522943E+02  0.31595293287E+01  0.36337817793E+02  0.38188108551E+02  0.10000000000E+01 0.  0.
<mgrwt>
<rscale>  0 0.12500540E+03</rscale>
<asrwt>0</asrwt>
<pdfrwt beam="2">  1        4 0.15985368E-01 0.12500540E+03</pdfrwt>
<pdfrwt beam="1">  1       -4 0.57842654E-02 0.12500540E+03</pdfrwt>
<totfact> 0.10101308E+04</totfact>
</mgrwt>
</event>
<event>
 5    1  0.3251953E-002  0.1250589E+03  0.7818608E-02  0.1234977E+00
         -4   -1    0    0    0  501 -0.00000000000E+00  0.00000000000E+00  0.10020315472E+03  0.10021120255E+03  0.12700000000E+01 0.  1.
          4   -1    0    0  501    0  0.00000000000E+00 -0.00000000000E+00 -0.39000103624E+02  0.39020776295E+02  0.12700000000E+01 0.  1.
         25    2    1    2    0    0  0.00000000000E+00  0.00000000000E+00  0.61203051098E+02  0.13923197884E+03  0.12505890800E+03 0.  0.
    9000005    1    3    3    0    0  0.26296940558E+02 -0.43320032241E+02 -0.10164920908E+02  0.51696033631E+02  0.10000000000E+01 0.  0.
    9000005    1    3    3    0    0 -0.26296940558E+02  0.43320032241E+02  0.71367972006E+02  0.87535945213E+02  0.10000000000E+01 0.  0.
<mgrwt>
<rscale>  0 0.12505891E+03</rscale>
<asrwt>0</asrwt>
<pdfrwt beam="2">  1        4 0.60022252E-02 0.12505891E+03</pdfrwt>
<pdfrwt beam="1">  1       -4 0.15418079E-01 0.12505891E+03</pdfrwt>
<totfact> 0.10136069E+04</totfact>
</mgrwt>
</event>
<event>
 5    1  0.3251953E-002  0.1250022E+03  0.7818608E-02  0.1235066E+00
         -4   -1    0    0    0  501 -0.00000000000E+00  0.00000000000E+00  0.92328853488E+02  0.92337587614E+02  0.12700000000E+01 0. -1.
          4   -1    0    0  501    0  0.00000000000E+00 -0.00000000000E+00 -0.42289253625E+02  0.42308319184E+02  0.12700000000E+01 0. -1.
         25    2    1    2    0    0  0.00000000000E+00  0.00000000000E+00  0.50039599863E+02  0.13464590680E+03  0.12500223463E+03 0.  0.
    9000005    1    3    3    0    0 -0.25338445457E+01 -0.37529760599E+02  0.78774626253E+02  0.87300315235E+02  0.10000000000E+01 0.  0.
    9000005    1    3    3    0    0  0.25338445457E+01  0.37529760599E+02 -0.28735026390E+02  0.47345591563E+02  0.10000000000E+01 0.  0.
<mgrwt>
<rscale>  0 0.12500223E+03</rscale>
<asrwt>0</asrwt>
<pdfrwt beam="2">  1        4 0.65081775E-02 0.12500223E+03</pdfrwt>
<pdfrwt beam="1">  1       -4 0.14206577E-01 0.12500223E+03</pdfrwt>
<totfact> 0.10245023E+04</totfact>
</mgrwt>
</event>
<event>
 5    1  0.3251953E-002  0.1250061E+03  0.7818608E-02  0.1235060E+00
          4   -1    0    0  501    0  0.00000000000E+00  0.00000000000E+00  0.41888430627E+02  0.41907678537E+02  0.12700000000E+01 0.  1.
         -4   -1    0    0    0  501 -0.00000000000E+00 -0.00000000000E+00 -0.93217812566E+02  0.93226463408E+02  0.12700000000E+01 0.  1.
         25    2    1    2    0    0  0.00000000000E+00  0.00000000000E+00 -0.51329381939E+02  0.13513414195E+03  0.12500612333E+03 0.  0.
    9000005    1    3    3    0    0  0.60551044981E+02  0.11345669682E+02 -0.14302173863E+02  0.63251129998E+02  0.10000000000E+01 0.  0.
    9000005    1    3    3    0    0 -0.60551044981E+02 -0.11345669682E+02 -0.37027208076E+02  0.71883011948E+02  0.10000000000E+01 0.  0.
<mgrwt>
<rscale>  0 0.12500612E+03</rscale>
<asrwt>0</asrwt>
<pdfrwt beam="1">  1        4 0.64465200E-02 0.12500612E+03</pdfrwt>
<pdfrwt beam="2">  1       -4 0.14343348E-01 0.12500612E+03</pdfrwt>
<totfact> 0.10233831E+04</totfact>
</mgrwt>
</event>
<event>
 5    1  0.3251953E-002  0.1249973E+03  0.7818608E-02  0.1235074E+00
         -4   -1    0    0    0  501 -0.00000000000E+00  0.00000000000E+00  0.88572674076E+02  0.88581778561E+02  0.12700000000E+01 0.  1.
          4   -1    0    0  501    0  0.00000000000E+00 -0.00000000000E+00 -0.44079769785E+02  0.44098061230E+02  0.12700000000E+01 0.  1.
         25    2    1    2    0    0  0.00000000000E+00  0.00000000000E+00  0.44492904292E+02  0.13267983979E+03  0.12499728539E+03 0.  0.
    9000005    1    3    3    0    0  0.25589839620E+02 -0.56774260550E+02  0.16738724943E+02  0.64492956712E+02  0.10000000000E+01 0.  0.
    9000005    1    3    3    0    0 -0.25589839620E+02  0.56774260550E+02  0.27754179348E+02  0.68186883079E+02  0.10000000000E+01 0.  0.
<mgrwt>
<rscale>  0 0.12499729E+03</rscale>
<asrwt>0</asrwt>
<pdfrwt beam="2">  1        4 0.67836105E-02 0.12499729E+03</pdfrwt>
<pdfrwt beam="1">  1       -4 0.13628672E-01 0.12499729E+03</pdfrwt>
<totfact> 0.10287839E+04</totfact>
</mgrwt>
</event>
<event>
 5    1  0.3251953E-002  0.1250106E+03  0.7818608E-02  0.1235053E+00
         -4   -1    0    0    0  501 -0.00000000000E+00  0.00000000000E+00  0.79538505934E+01  0.80546036068E+01  0.12700000000E+01 0. -1.
          4   -1    0    0  501    0  0.00000000000E+00 -0.00000000000E+00 -0.48800478998E+03  0.48800644252E+03  0.12700000000E+01 0. -1.
         25    2    1    2    0    0  0.00000000000E+00  0.00000000000E+00 -0.48005093939E+03  0.49606104613E+03  0.12501062787E+03 0.  0.
    9000005    1    3    3    0    0  0.16192568744E+02 -0.44005812575E+02 -0.40398279613E+03  0.40669621388E+03  0.10000000000E+01 0.  0.
    9000005    1    3    3    0    0 -0.16192568744E+02  0.44005812575E+02 -0.76068143262E+02  0.89364832245E+02  0.10000000000E+01 0.  0.
<mgrwt>
<rscale>  0 0.12501063E+03</rscale>
<asrwt>0</asrwt>
<pdfrwt beam="2">  1        4 0.75085514E-01 0.12501063E+03</pdfrwt>
<pdfrwt beam="1">  1       -4 0.12315471E-02 0.12501063E+03</pdfrwt>
<totfact> 0.56158165E+03</totfact>
</mgrwt>
</event>
<event>
 5    1  0.3251953E-002  0.1249961E+03  0.7818608E-02  0.1235075E+00
         -4   -1    0    0    0  501 -0.00000000000E+00  0.00000000000E+00  0.26053601129E+04  0.26053604224E+04  0.12700000000E+01 0.  1.
          4   -1    0    0  501    0  0.00000000000E+00 -0.00000000000E+00 -0.12298968425E+01  0.17679214471E+01  0.12700000000E+01 0.  1.
         25    2    1    2    0    0  0.00000000000E+00  0.00000000000E+00  0.26041302160E+04  0.26071283439E+04  0.12499607710E+03 0.  0.
    9000005    1    3    3    0    0  0.44474943153E+01  0.25955523608E+02  0.24840784684E+04  0.24842182486E+04  0.10000000000E+01 0.  0.
    9000005    1    3    3    0    0 -0.44474943153E+01 -0.25955523608E+02  0.12005174766E+03  0.12291009531E+03  0.10000000000E+01 0.  0.
<mgrwt>
<rscale>  0 0.12499608E+03</rscale>
<asrwt>0</asrwt>
<pdfrwt beam="2">  1        4 0.23062393E-03 0.12499608E+03</pdfrwt>
<pdfrwt beam="1">  1       -4 0.40086829E+00 0.12499608E+03</pdfrwt>
<totfact> 0.38815513E+02</totfact>
</mgrwt>
</event>
<event>
 5    1  0.3251953E-002  0.1250022E+03  0.7818608E-02  0.1235066E+00
          4   -1    0    0  501    0  0.00000000000E+00  0.00000000000E+00  0.15560486574E+04  0.15560491757E+04  0.12700000000E+01 0.  1.
         -4   -1    0    0    0  501 -0.00000000000E+00 -0.00000000000E+00 -0.23492818650E+01  0.26705851946E+01  0.12700000000E+01 0.  1.
         25    2    1    2    0    0  0.00000000000E+00  0.00000000000E+00  0.15536993755E+04  0.15587197609E+04  0.12500217344E+03 0.  0.
    9000005    1    3    3    0    0 -0.50653863131E+02 -0.26287593807E+02  0.10944032483E+04  0.10958906521E+04  0.10000000000E+01 0.  0.
    9000005    1    3    3    0    0  0.50653863131E+02  0.26287593807E+02  0.45929612720E+03  0.46282910875E+03  0.10000000000E+01 0.  0.
<mgrwt>
<rscale>  0 0.12500217E+03</rscale>
<asrwt>0</asrwt>
<pdfrwt beam="1">  1        4 0.23941753E+00 0.12500217E+03</pdfrwt>
<pdfrwt beam="2">  1       -4 0.38618240E-03 0.12500217E+03</pdfrwt>
<totfact> 0.16803728E+03</totfact>
</mgrwt>
</event>
<event>
 5    1  0.3251953E-002  0.1249967E+03  0.7818608E-02  0.1235075E+00
         -4   -1    0    0    0  501 -0.00000000000E+00  0.00000000000E+00  0.64000742142E+03  0.64000868148E+03  0.12700000000E+01 0. -1.
          4   -1    0    0  501    0  0.00000000000E+00 -0.00000000000E+00 -0.60357698544E+01  0.61679346410E+01  0.12700000000E+01 0. -1.
         25    2    1    2    0    0  0.00000000000E+00  0.00000000000E+00  0.63397165156E+03  0.64617661612E+03  0.12499665690E+03 0.  0.
    9000005    1    3    3    0    0 -0.40738848814E+02  0.38349788029E+02  0.17310123160E+03  0.18192140178E+03  0.10000000000E+01 0.  0.
    9000005    1    3    3    0    0  0.40738848814E+02 -0.38349788029E+02  0.46087041996E+03  0.46425521434E+03  0.10000000000E+01 0.  0.
<mgrwt>
<rscale>  0 0.12499666E+03</rscale>
<asrwt>0</asrwt>
<pdfrwt beam="2">  1        4 0.93884403E-03 0.12499666E+03</pdfrwt>
<pdfrwt beam="1">  1       -4 0.98472881E-01 0.12499666E+03</pdfrwt>
<totfact> 0.46080039E+03</totfact>
</mgrwt>
</event>
<event>
 5    1  0.3251953E-002  0.1250001E+03  0.7818608E-02  0.1235069E+00
          4   -1    0    0  501    0  0.00000000000E+00  0.00000000000E+00  0.89115748263E+01  0.90016146266E+01  0.12700000000E+01 0. -1.
         -4   -1    0    0    0  501 -0.00000000000E+00 -0.00000000000E+00 -0.43604101119E+03  0.43604286066E+03  0.12700000000E+01 0. -1.
         25    2    1    2    0    0  0.00000000000E+00  0.00000000000E+00 -0.42712943636E+03  0.44504447529E+03  0.12500011833E+03 0.  0.
    9000005    1    3    3    0    0 -0.41413958622E+02 -0.26479345489E+02 -0.76180055458E+02  0.90667924625E+02  0.10000000000E+01 0.  0.
    9000005    1    3    3    0    0  0.41413958622E+02  0.26479345489E+02 -0.35094938090E+03  0.35437655066E+03  0.10000000000E+01 0.  0.
<mgrwt>
<rscale>  0 0.12500012E+03</rscale>
<asrwt>0</asrwt>
<pdfrwt beam="1">  1        4 0.13780803E-02 0.12500012E+03</pdfrwt>
<pdfrwt beam="2">  1       -4 0.67090284E-01 0.12500012E+03</pdfrwt>
<totfact> 0.60395359E+03</totfact>
</mgrwt>
</event>
<event>
 5    1  0.3251953E-002  0.1249942E+03  0.7818608E-02  0.1235078E+00
         -4   -1    0    0    0  501 -0.00000000000E+00  0.00000000000E+00  0.10032626275E+02  0.10112689552E+02  0.12700000000E+01 0. -1.
          4   -1    0    0  501    0  0.00000000000E+00 -0.00000000000E+00 -0.38769026020E+03  0.38769234033E+03  0.12700000000E+01 0. -1.
         25    2    1    2    0    0  0.00000000000E+00  0.00000000000E+00 -0.37765763393E+03  0.39780502989E+03  0.12499421323E+03 0.  0.
    9000005    1    3    3    0    0 -0.26984659688E+02 -0.41024872960E+02 -0.31182980621E+03  0.31567394587E+03  0.10000000000E+01 0.  0.
    9000005    1    3    3    0    0  0.26984659688E+02  0.41024872960E+02 -0.65827827713E+02  0.82131084014E+02  0.10000000000E+01 0.  0.
<mgrwt>
<rscale>  0 0.12499421E+03</rscale>
<asrwt>0</asrwt>
<pdfrwt beam="2">  1        4 0.59650963E-01 0.12499421E+03</pdfrwt>
<pdfrwt beam="1">  1       -4 0.15498000E-02 0.12499421E+03</pdfrwt>
<totfact> 0.64775111E+03</totfact>
</mgrwt>
</event>
<event>
 5    1  0.3251953E-002  0.1250008E+03  0.7818608E-02  0.1235068E+00
         -4   -1    0    0    0  501 -0.00000000000E+00  0.00000000000E+00  0.63500006420E+01  0.64757554118E+01  0.12700000000E+01 0.  1.
          4   -1    0    0  501    0  0.00000000000E+00 -0.00000000000E+00 -0.60900685100E+03  0.60900817520E+03  0.12700000000E+01 0.  1.
         25    2    1    2    0    0  0.00000000000E+00  0.00000000000E+00 -0.60265685036E+03  0.61548393061E+03  0.12500075825E+03 0.  0.
    9000005    1    3    3    0    0 -0.50237391348E+02  0.23781456070E+02 -0.44197666903E+03  0.44545900946E+03  0.10000000000E+01 0.  0.
    9000005    1    3    3    0    0  0.50237391348E+02 -0.23781456070E+02 -0.16068018133E+03  0.17002492115E+03  0.10000000000E+01 0.  0.
<mgrwt>
<rscale>  0 0.12500076E+03</rscale>
<asrwt>0</asrwt>
<pdfrwt beam="2">  1        4 0.93703091E-01 0.12500076E+03</pdfrwt>
<pdfrwt beam="1">  1       -4 0.98669896E-03 0.12500076E+03</pdfrwt>
<totfact> 0.47903804E+03</totfact>
</mgrwt>
</event>
<event>
 5    1  0.3251953E-002  0.1249994E+03  0.7818608E-02  0.1235070E+00
          4   -1    0    0  501    0  0.00000000000E+00  0.00000000000E+00  0.66371413389E+02  0.66383562839E+02  0.12700000000E+01 0. -1.
         -4   -1    0    0    0  501 -0.00000000000E+00 -0.00000000000E+00 -0.58829437904E+02  0.58843144580E+02  0.12700000000E+01 0. -1.
         25    2    1    2    0    0  0.00000000000E+00  0.00000000000E+00  0.75419754850E+01  0.12522670742E+03  0.12499938743E+03 0.  0.
    9000005    1    3    3    0    0 -0.45037265817E+02  0.51054876156E+01 -0.39328062116E+02  0.60017645620E+02  0.10000000000E+01 0.  0.
    9000005    1    3    3    0    0  0.45037265817E+02 -0.51054876156E+01  0.46870037601E+02  0.65209061799E+02  0.10000000000E+01 0.  0.
<mgrwt>
<rscale>  0 0.12499939E+03</rscale>
<asrwt>0</asrwt>
<pdfrwt beam="1">  1        4 0.10212976E-01 0.12499939E+03</pdfrwt>
<pdfrwt beam="2">  1       -4 0.90526717E-02 0.12499939E+03</pdfrwt>
<totfact> 0.10448085E+04</totfact>
</mgrwt>
</event>
<event>
 5    1  0.3251953E-002  0.1249891E+03  0.7818608E-02  0.1235086E+00
          4   -1    0    0  501    0  0.00000000000E+00  0.00000000000E+00  0.14507842269E+03  0.14508398131E+03  0.12700000000E+01 0.  1.
         -4   -1    0    0    0  501 -0.00000000000E+00 -0.00000000000E+00 -0.26899333484E+02  0.26929297092E+02  0.12700000000E+01 0.  1.
         25    2    1    2    0    0  0.00000000000E+00  0.00000000000E+00  0.11817908921E+03  0.17201327840E+03  0.12498908280E+03 0.  0.
    9000005    1    3    3    0    0 -0.48542187956E+02 -0.28477962609E+02  0.96456799720E+02  0.11167923969E+03  0.10000000000E+01 0.  0.
    9000005    1    3    3    0    0  0.48542187956E+02  0.28477962609E+02  0.21722289490E+02  0.60334038706E+02  0.10000000000E+01 0.  0.
<mgrwt>
<rscale>  0 0.12498908E+03</rscale>
<asrwt>0</asrwt>
<pdfrwt beam="1">  1        4 0.22322490E-01 0.12498908E+03</pdfrwt>
<pdfrwt beam="2">  1       -4 0.41410914E-02 0.12498908E+03</pdfrwt>
<totfact> 0.95098010E+03</totfact>
</mgrwt>
</event>
<event>
 5    1  0.3251953E-002  0.1249976E+03  0.7818608E-02  0.1235073E+00
          4   -1    0    0  501    0  0.00000000000E+00  0.00000000000E+00  0.70413730286E+03  0.70413844816E+03  0.12700000000E+01 0.  1.
         -4   -1    0    0    0  501 -0.00000000000E+00 -0.00000000000E+00 -0.54735029442E+01  0.56189086556E+01  0.12700000000E+01 0.  1.
         25    2    1    2    0    0  0.00000000000E+00  0.00000000000E+00  0.69866379991E+03  0.70975735681E+03  0.12499760095E+03 0.  0.
    9000005    1    3    3    0    0 -0.22312980987E+02 -0.50826864427E+02  0.18635158876E+03  0.19444576082E+03  0.10000000000E+01 0.  0.
    9000005    1    3    3    0    0  0.22312980987E+02  0.50826864427E+02  0.51231221115E+03  0.51531159599E+03  0.10000000000E+01 0.  0.
<mgrwt>
<rscale>  0 0.12499760E+03</rscale>
<asrwt>0</asrwt>
<pdfrwt beam="1">  1        4 0.10834004E+00 0.12499760E+03</pdfrwt>
<pdfrwt beam="2">  1       -4 0.85335094E-03 0.12499760E+03</pdfrwt>
<totfact> 0.42578853E+03</totfact>
</mgrwt>
</event>
<event>
 5    1  0.3251953E-002  0.1250022E+03  0.7818608E-02  0.1235066E+00
          4   -1    0    0  501    0  0.00000000000E+00  0.00000000000E+00  0.19548268829E+02  0.19589479682E+02  0.12700000000E+01 0. -1.
         -4   -1    0    0    0  501 -0.00000000000E+00 -0.00000000000E+00 -0.19957913077E+03  0.19958317149E+03  0.12700000000E+01 0. -1.
         25    2    1    2    0    0  0.00000000000E+00  0.00000000000E+00 -0.18003086194E+03  0.21917265117E+03  0.12500215905E+03 0.  0.
    9000005    1    3    3    0    0 -0.31591094465E+02 -0.53339709618E+02 -0.10385058865E+03  0.12095067852E+03  0.10000000000E+01 0.  0.
    9000005    1    3    3    0    0  0.31591094465E+02  0.53339709618E+02 -0.76180273292E+02  0.98221972646E+02  0.10000000000E+01 0.  0.
<mgrwt>
<rscale>  0 0.12500216E+03</rscale>
<asrwt>0</asrwt>
<pdfrwt beam="1">  1        4 0.30109070E-02 0.12500216E+03</pdfrwt>
<pdfrwt beam="2">  1       -4 0.30707961E-01 0.12500216E+03</pdfrwt>
<totfact> 0.86995241E+03</totfact>
</mgrwt>
</event>
<event>
 5    1  0.3251953E-002  0.1249980E+03  0.7818608E-02  0.1235072E+00
         -4   -1    0    0    0  501 -0.00000000000E+00  0.00000000000E+00  0.52382409896E+02  0.52397803070E+02  0.12700000000E+01 0. -1.
          4   -1    0    0  501    0  0.00000000000E+00 -0.00000000000E+00 -0.74537679918E+02  0.74548498493E+02  0.12700000000E+01 0. -1.
         25    2    1    2    0    0  0.00000000000E+00  0.00000000000E+00 -0.22155270022E+02  0.12694630156E+03  0.12499802995E+03 0.  0.
    9000005    1    3    3    0    0 -0.12713991804E+02 -0.61064153003E+02 -0.71903789003E+01  0.62794728427E+02  0.10000000000E+01 0.  0.
    9000005    1    3    3    0    0  0.12713991804E+02  0.61064153003E+02 -0.14964891122E+02  0.64151573136E+02  0.10000000000E+01 0.  0.
<mgrwt>
<rscale>  0 0.12499803E+03</rscale>
<asrwt>0</asrwt>
<pdfrwt beam="2">  1        4 0.11469352E-01 0.12499803E+03</pdfrwt>
<pdfrwt beam="1">  1       -4 0.80608486E-02 0.12499803E+03</pdfrwt>
<totfact> 0.10410775E+04</totfact>
</mgrwt>
</event>
<event>
 5    1  0.3251953E-002  0.1249962E+03  0.7818608E-02  0.1235075E+00
          4   -1    0    0  501    0  0.00000000000E+00  0.00000000000E+00  0.11862653468E+03  0.11863333272E+03  0.12700000000E+01 0.  1.
         -4   -1    0    0    0  501 -0.00000000000E+00 -0.00000000000E+00 -0.32906955615E+02  0.32931453473E+02  0.12700000000E+01 0.  1.
         25    2    1    2    0    0  0.00000000000E+00  0.00000000000E+00  0.85719579069E+02  0.15156478619E+03  0.12499615265E+03 0.  0.
    9000005    1    3    3    0    0 -0.42786192723E+02 -0.45540612841E+02  0.43630347898E+02  0.76218193126E+02  0.10000000000E+01 0.  0.
    9000005    1    3    3    0    0  0.42786192723E+02  0.45540612841E+02  0.42089231171E+02  0.75346593063E+02  0.10000000000E+01 0.  0.
<mgrwt>
<rscale>  0 0.12499615E+03</rscale>
<asrwt>0</asrwt>
<pdfrwt beam="1">  1        4 0.18252644E-01 0.12499615E+03</pdfrwt>
<pdfrwt beam="2">  1       -4 0.50650159E-02 0.12499615E+03</pdfrwt>
<totfact> 0.99001262E+03</totfact>
</mgrwt>
</event>
<event>
 5    1  0.3251953E-002  0.1249941E+03  0.7818608E-02  0.1235078E+00
          4   -1    0    0  501    0  0.00000000000E+00  0.00000000000E+00  0.35272407694E+03  0.35272636328E+03  0.12700000000E+01 0. -1.
         -4   -1    0    0    0  501 -0.00000000000E+00 -0.00000000000E+00 -0.11034732436E+02  0.11107574890E+02  0.12700000000E+01 0. -1.
         25    2    1    2    0    0  0.00000000000E+00  0.00000000000E+00  0.34168934450E+03  0.36383393817E+03  0.12499410553E+03 0.  0.
    9000005    1    3    3    0    0  0.10629625325E+02  0.48348945954E+02  0.28184813062E+03  0.28616425046E+03  0.10000000000E+01 0.  0.
    9000005    1    3    3    0    0 -0.10629625325E+02 -0.48348945954E+02  0.59841213880E+02  0.77669687704E+02  0.10000000000E+01 0.  0.
<mgrwt>
<rscale>  0 0.12499411E+03</rscale>
<asrwt>0</asrwt>
<pdfrwt beam="1">  1        4 0.54271020E-01 0.12499411E+03</pdfrwt>
<pdfrwt beam="2">  1       -4 0.17034303E-02 0.12499411E+03</pdfrwt>
<totfact> 0.68237888E+03</totfact>
</mgrwt>
</event>
<event>
 5    1  0.3251953E-002  0.1249844E+03  0.7818608E-02  0.1235094E+00
         -4   -1    0    0    0  501 -0.00000000000E+00  0.00000000000E+00  0.43962473213E+03  0.43962656653E+03  0.12700000000E+01 0. -1.
          4   -1    0    0  501    0  0.00000000000E+00 -0.00000000000E+00 -0.88359415701E+01  0.89267442795E+01  0.12700000000E+01 0. -1.
         25    2    1    2    0    0  0.00000000000E+00  0.00000000000E+00  0.43078879056E+03  0.44855331081E+03  0.12498436129E+03 0.  0.
    9000005    1    3    3    0    0 -0.53793424816E+02 -0.28865569465E+02  0.16760450721E+03  0.17837943965E+03  0.10000000000E+01 0.  0.
    9000005    1    3    3    0    0  0.53793424816E+02  0.28865569465E+02  0.26318428335E+03  0.27017387115E+03  0.10000000000E+01 0.  0.
<mgrwt>
<rscale>  0 0.12498436E+03</rscale>
<asrwt>0</asrwt>
<pdfrwt beam="2">  1        4 0.13665019E-02 0.12498436E+03</pdfrwt>
<pdfrwt beam="1">  1       -4 0.67641685E-01 0.12498436E+03</pdfrwt>
<totfact> 0.60110038E+03</totfact>
</mgrwt>
</event>
<event>
 5    1  0.3251953E-002  0.1250012E+03  0.7818608E-02  0.1235067E+00
         -4   -1    0    0    0  501 -0.00000000000E+00  0.00000000000E+00  0.54963732176E+02  0.54978402621E+02  0.12700000000E+01 0.  1.
          4   -1    0    0  501    0  0.00000000000E+00 -0.00000000000E+00 -0.71041172444E+02  0.71052523405E+02  0.12700000000E+01 0.  1.
         25    2    1    2    0    0  0.00000000000E+00  0.00000000000E+00 -0.16077440268E+02  0.12603092603E+03  0.12500124091E+03 0.  0.
    9000005    1    3    3    0    0 -0.29314385094E+02  0.47595590527E+02 -0.36209063351E+02  0.66609081061E+02  0.10000000000E+01 0.  0.
    9000005    1    3    3    0    0  0.29314385094E+02 -0.47595590527E+02  0.20131623083E+02  0.59421844965E+02  0.10000000000E+01 0.  0.
<mgrwt>
<rscale>  0 0.12500124E+03</rscale>
<asrwt>0</asrwt>
<pdfrwt beam="2">  1        4 0.10931413E-01 0.12500124E+03</pdfrwt>
<pdfrwt beam="1">  1       -4 0.84579604E-02 0.12500124E+03</pdfrwt>
<totfact> 0.10429987E+04</totfact>
</mgrwt>
</event>
<event>
 5    1  0.3251953E-002  0.1250003E+03  0.7818608E-02  0.1235069E+00
         -4   -1    0    0    0  501 -0.00000000000E+00  0.00000000000E+00  0.67021979895E+01  0.68214630315E+01  0.12700000000E+01 0. -1.
          4   -1    0    0  501    0  0.00000000000E+00 -0.00000000000E+00 -0.57757410339E+03  0.57757549966E+03  0.12700000000E+01 0. -1.
         25    2    1    2    0    0  0.00000000000E+00  0.00000000000E+00 -0.57087190540E+03  0.58439696269E+03  0.12500031051E+03 0.  0.
    9000005    1    3    3    0    0 -0.26666012570E+02 -0.45560113395E+02 -0.44178991160E+03  0.44493384469E+03  0.10000000000E+01 0.  0.
    9000005    1    3    3    0    0  0.26666012570E+02  0.45560113395E+02 -0.12908199379E+03  0.13946311799E+03  0.10000000000E+01 0.  0.
<mgrwt>
<rscale>  0 0.12500031E+03</rscale>
<asrwt>0</asrwt>
<pdfrwt beam="2">  1        4 0.88866797E-01 0.12500031E+03</pdfrwt>
<pdfrwt beam="1">  1       -4 0.10403895E-02 0.12500031E+03</pdfrwt>
<totfact> 0.49867243E+03</totfact>
</mgrwt>
</event>
<event>
 5    1  0.3251953E-002  0.1249988E+03  0.7818608E-02  0.1235071E+00
          4   -1    0    0  501    0  0.00000000000E+00  0.00000000000E+00  0.99924266976E+02  0.99932337262E+02  0.12700000000E+01 0.  1.
         -4   -1    0    0    0  501 -0.00000000000E+00 -0.00000000000E+00 -0.39071390707E+02  0.39092025680E+02  0.12700000000E+01 0.  1.
         25    2    1    2    0    0  0.00000000000E+00  0.00000000000E+00  0.60852876268E+02  0.13902436294E+03  0.12499880376E+03 0.  0.
    9000005    1    3    3    0    0  0.58955567923E+02 -0.20545161977E+02  0.33434037213E+02  0.70828648965E+02  0.10000000000E+01 0.  0.
    9000005    1    3    3    0    0 -0.58955567923E+02  0.20545161977E+02  0.27418839055E+02  0.68195713978E+02  0.10000000000E+01 0.  0.
<mgrwt>
<rscale>  0 0.12499880E+03</rscale>
<asrwt>0</asrwt>
<pdfrwt beam="1">  1        4 0.15375172E-01 0.12499880E+03</pdfrwt>
<pdfrwt beam="2">  1       -4 0.60131914E-02 0.12499880E+03</pdfrwt>
<totfact> 0.10154120E+04</totfact>
</mgrwt>
</event>
<event>
 5    1  0.3251953E-002  0.1249986E+03  0.7818608E-02  0.1235071E+00
          4   -1    0    0  501    0  0.00000000000E+00  0.00000000000E+00  0.86159669958E+01  0.87090635130E+01  0.12700000000E+01 0. -1.
         -4   -1    0    0    0  501 -0.00000000000E+00 -0.00000000000E+00 -0.45083336033E+03  0.45083514913E+03  0.12700000000E+01 0. -1.
         25    2    1    2    0    0  0.00000000000E+00  0.00000000000E+00 -0.44221739334E+03  0.45954421264E+03  0.12499864160E+03 0.  0.
    9000005    1    3    3    0    0  0.39823228708E+01  0.55776714602E+02 -0.11854691279E+03  0.13107734862E+03  0.10000000000E+01 0.  0.
    9000005    1    3    3    0    0 -0.39823228708E+01 -0.55776714602E+02 -0.32367048054E+03  0.32846686402E+03  0.10000000000E+01 0.  0.
<mgrwt>
<rscale>  0 0.12499864E+03</rscale>
<asrwt>0</asrwt>
<pdfrwt beam="1">  1        4 0.13328326E-02 0.12499864E+03</pdfrwt>
<pdfrwt beam="2">  1       -4 0.69366259E-01 0.12499864E+03</pdfrwt>
<totfact> 0.59147584E+03</totfact>
</mgrwt>
</event>
<event>
 5    1  0.3251953E-002  0.1250020E+03  0.7818608E-02  0.1235066E+00
         -4   -1    0    0    0  501 -0.00000000000E+00  0.00000000000E+00  0.14487535375E+02  0.14543093936E+02  0.12700000000E+01 0.  1.
          4   -1    0    0  501    0  0.00000000000E+00 -0.00000000000E+00 -0.26906372927E+03  0.26906672650E+03  0.12700000000E+01 0.  1.
         25    2    1    2    0    0  0.00000000000E+00  0.00000000000E+00 -0.25457619390E+03  0.28360982044E+03  0.12500196698E+03 0.  0.
    9000005    1    3    3    0    0 -0.19968132968E+02  0.45338298117E+02 -0.40860807402E+02  0.64225331388E+02  0.10000000000E+01 0.  0.
    9000005    1    3    3    0    0  0.19968132968E+02 -0.45338298117E+02 -0.21371538650E+03  0.21938448905E+03  0.10000000000E+01 0.  0.
<mgrwt>
<rscale>  0 0.12500197E+03</rscale>
<asrwt>0</asrwt>
<pdfrwt beam="2">  1        4 0.41398920E-01 0.12500197E+03</pdfrwt>
<pdfrwt beam="1">  1       -4 0.22333561E-02 0.12500197E+03</pdfrwt>
<totfact> 0.77698497E+03</totfact>
</mgrwt>
</event>
<event>
 5    1  0.3251953E-002  0.1249972E+03  0.7818608E-02  0.1235074E+00
         -4   -1    0    0    0  501 -0.00000000000E+00  0.00000000000E+00  0.78902685440E+02  0.78912905597E+02  0.12700000000E+01 0.  1.
          4   -1    0    0  501    0  0.00000000000E+00 -0.00000000000E+00 -0.49483366432E+02  0.49499661145E+02  0.12700000000E+01 0.  1.
         25    2    1    2    0    0  0.00000000000E+00  0.00000000000E+00  0.29419319008E+02  0.12841256674E+03  0.12499716383E+03 0.  0.
    9000005    1    3    3    0    0 -0.56432947401E+02 -0.25366714191E+02  0.23719998300E+02  0.66270551987E+02  0.10000000000E+01 0.  0.
    9000005    1    3    3    0    0  0.56432947401E+02  0.25366714191E+02  0.56993207082E+01  0.62142014755E+02  0.10000000000E+01 0.  0.
<mgrwt>
<rscale>  0 0.12499716E+03</rscale>
<asrwt>0</asrwt>
<pdfrwt beam="2">  1        4 0.76148652E-02 0.12499716E+03</pdfrwt>
<pdfrwt beam="1">  1       -4 0.12140914E-01 0.12499716E+03</pdfrwt>
<totfact> 0.10379252E+04</totfact>
</mgrwt>
</event>
<event>
 5    1  0.3251953E-002  0.1250435E+03  0.7818608E-02  0.1235001E+00
         -4   -1    0    0    0  501 -0.00000000000E+00  0.00000000000E+00  0.24878562431E+03  0.24878886584E+03  0.12700000000E+01 0. -1.
          4   -1    0    0  501    0  0.00000000000E+00 -0.00000000000E+00 -0.15683178326E+02  0.15734515640E+02  0.12700000000E+01 0. -1.
         25    2    1    2    0    0  0.00000000000E+00  0.00000000000E+00  0.23310244599E+03  0.26452338148E+03  0.12504346853E+03 0.  0.
    9000005    1    3    3    0    0  0.26826764483E+02 -0.52465018407E+02  0.72393800552E+02  0.93349428533E+02  0.10000000000E+01 0.  0.
    9000005    1    3    3    0    0 -0.26826764483E+02  0.52465018407E+02  0.16070864544E+03  0.17117395294E+03  0.10000000000E+01 0.  0.
<mgrwt>
<rscale>  0 0.12504347E+03</rscale>
<asrwt>0</asrwt>
<pdfrwt beam="2">  1        4 0.24169952E-02 0.12504347E+03</pdfrwt>
<pdfrwt beam="1">  1       -4 0.38278908E-01 0.12504347E+03</pdfrwt>
<totfact> 0.80197831E+03</totfact>
</mgrwt>
</event>
<event>
 5    1  0.3251953E-002  0.1250009E+03  0.7818608E-02  0.1235068E+00
         -4   -1    0    0    0  501 -0.00000000000E+00  0.00000000000E+00  0.18842806030E+03  0.18843234013E+03  0.12700000000E+01 0. -1.
          4   -1    0    0  501    0  0.00000000000E+00 -0.00000000000E+00 -0.20707059136E+02  0.20745968237E+02  0.12700000000E+01 0. -1.
         25    2    1    2    0    0  0.00000000000E+00  0.00000000000E+00  0.16772100116E+03  0.20917830837E+03  0.12500092184E+03 0.  0.
    9000005    1    3    3    0    0  0.15736720846E+02  0.31180996644E+02 -0.28573739996E+01  0.35058002237E+02  0.10000000000E+01 0.  0.
    9000005    1    3    3    0    0 -0.15736720846E+02 -0.31180996644E+02  0.17057837516E+03  0.17412030613E+03  0.10000000000E+01 0.  0.
<mgrwt>
<rscale>  0 0.12500092E+03</rscale>
<asrwt>0</asrwt>
<pdfrwt beam="2">  1        4 0.31890237E-02 0.12500092E+03</pdfrwt>
<pdfrwt beam="1">  1       -4 0.28992254E-01 0.12500092E+03</pdfrwt>
<totfact> 0.88608423E+03</totfact>
</mgrwt>
</event>
<event>
 5    1  0.3251953E-002  0.1250002E+03  0.7818608E-02  0.1235069E+00
          4   -1    0    0  501    0  0.00000000000E+00  0.00000000000E+00  0.20812364258E+01  0.24381232659E+01  0.12700000000E+01 0. -1.
         -4   -1    0    0    0  501 -0.00000000000E+00 -0.00000000000E+00 -0.17283230900E+04  0.17283235566E+04  0.12700000000E+01 0. -1.
         25    2    1    2    0    0  0.00000000000E+00  0.00000000000E+00 -0.17262418536E+04  0.17307616799E+04  0.12500022196E+03 0.  0.
    9000005    1    3    3    0    0  0.29091314536E+02  0.42858125044E+02 -0.13471673762E+04  0.13481632183E+04  0.10000000000E+01 0.  0.
    9000005    1    3    3    0    0 -0.29091314536E+02 -0.42858125044E+02 -0.37907447737E+03  0.38259846165E+03  0.10000000000E+01 0.  0.
<mgrwt>
<rscale>  0 0.12500022E+03</rscale>
<asrwt>0</asrwt>
<pdfrwt beam="1">  1        4 0.34768033E-03 0.12500022E+03</pdfrwt>
<pdfrwt beam="2">  1       -4 0.26592229E+00 0.12500022E+03</pdfrwt>
<totfact> 0.13800982E+03</totfact>
</mgrwt>
</event>
<event>
 5    1  0.3251953E-002  0.1249971E+03  0.7818608E-02  0.1235074E+00
         -4   -1    0    0    0  501 -0.00000000000E+00  0.00000000000E+00  0.18388198384E+03  0.18388636948E+03  0.12700000000E+01 0.  1.
          4   -1    0    0  501    0  0.00000000000E+00 -0.00000000000E+00 -0.21218637599E+02  0.21256610303E+02  0.12700000000E+01 0.  1.
         25    2    1    2    0    0  0.00000000000E+00  0.00000000000E+00  0.16266334624E+03  0.20514297978E+03  0.12499711174E+03 0.  0.
    9000005    1    3    3    0    0 -0.41400468702E+02 -0.43383718231E+02  0.52485893972E+02  0.79698901387E+02  0.10000000000E+01 0.  0.
    9000005    1    3    3    0    0  0.41400468702E+02  0.43383718231E+02  0.11017745227E+03  0.12544407840E+03  0.10000000000E+01 0.  0.
<mgrwt>
<rscale>  0 0.12499711E+03</rscale>
<asrwt>0</asrwt>
<pdfrwt beam="2">  1        4 0.32676641E-02 0.12499711E+03</pdfrwt>
<pdfrwt beam="1">  1       -4 0.28292794E-01 0.12499711E+03</pdfrwt>
<totfact> 0.89281057E+03</totfact>
</mgrwt>
</event>
<event>
 5    1  0.3251953E-002  0.1250037E+03  0.7818608E-02  0.1235064E+00
         -4   -1    0    0    0  501 -0.00000000000E+00  0.00000000000E+00  0.50085946722E+03  0.50086107735E+03  0.12700000000E+01 0.  1.
          4   -1    0    0  501    0  0.00000000000E+00 -0.00000000000E+00 -0.77462181106E+01  0.78496366169E+01  0.12700000000E+01 0.  1.
         25    2    1    2    0    0  0.00000000000E+00  0.00000000000E+00  0.49311324911E+03  0.50871071397E+03  0.12500365618E+03 0.  0.
    9000005    1    3    3    0    0 -0.26250931121E+01  0.60704067261E+02  0.18707915664E+03  0.19670151434E+03  0.10000000000E+01 0.  0.
    9000005    1    3    3    0    0  0.26250931121E+01 -0.60704067261E+02  0.30603409247E+03  0.31200919963E+03  0.10000000000E+01 0.  0.
<mgrwt>
<rscale>  0 0.12500366E+03</rscale>
<asrwt>0</asrwt>
<pdfrwt beam="2">  1        4 0.11998044E-02 0.12500366E+03</pdfrwt>
<pdfrwt beam="1">  1       -4 0.77063419E-01 0.12500366E+03</pdfrwt>
<totfact> 0.55190345E+03</totfact>
</mgrwt>
</event>
<event>
 5    1  0.3251953E-002  0.1249992E+03  0.7818608E-02  0.1235071E+00
          4   -1    0    0  501    0  0.00000000000E+00  0.00000000000E+00  0.11422893035E+02  0.11493275655E+02  0.12700000000E+01 0. -1.
         -4   -1    0    0    0  501 -0.00000000000E+00 -0.00000000000E+00 -0.34084035766E+03  0.34084272371E+03  0.12700000000E+01 0. -1.
         25    2    1    2    0    0  0.00000000000E+00  0.00000000000E+00 -0.32941746462E+03  0.35233599937E+03  0.12499916181E+03 0.  0.
    9000005    1    3    3    0    0 -0.50305537493E+02 -0.32248251338E+02 -0.11314867362E+03  0.12796178788E+03  0.10000000000E+01 0.  0.
    9000005    1    3    3    0    0  0.50305537493E+02  0.32248251338E+02 -0.21626879101E+03  0.22437421149E+03  0.10000000000E+01 0.  0.
<mgrwt>
<rscale>  0 0.12499916E+03</rscale>
<asrwt>0</asrwt>
<pdfrwt beam="1">  1        4 0.17629645E-02 0.12499916E+03</pdfrwt>
<pdfrwt beam="2">  1       -4 0.52442566E-01 0.12499916E+03</pdfrwt>
<totfact> 0.69469622E+03</totfact>
</mgrwt>
</event>
<event>
 5    1  0.3251953E-002  0.1250006E+03  0.7818608E-02  0.1235068E+00
         -4   -1    0    0    0  501 -0.00000000000E+00  0.00000000000E+00  0.13331770843E+04  0.13331776892E+04  0.12700000000E+01 0.  1.
          4   -1    0    0  501    0  0.00000000000E+00 -0.00000000000E+00 -0.27918087921E+01  0.30670990091E+01  0.12700000000E+01 0.  1.
         25    2    1    2    0    0  0.00000000000E+00  0.00000000000E+00  0.13303852755E+04  0.13362447882E+04  0.12500061100E+03 0.  0.
    9000005    1    3    3    0    0  0.10877392300E+02 -0.22887324042E+02  0.54543422461E+02  0.60150911870E+02  0.10000000000E+01 0.  0.
    9000005    1    3    3    0    0 -0.10877392300E+02  0.22887324042E+02  0.12758418530E+04  0.12760938763E+04  0.10000000000E+01 0.  0.
<mgrwt>
<rscale>  0 0.12500061E+03</rscale>
<asrwt>0</asrwt>
<pdfrwt beam="2">  1        4 0.45073068E-03 0.12500061E+03</pdfrwt>
<pdfrwt beam="1">  1       -4 0.20512587E+00 0.12500061E+03</pdfrwt>
<totfact> 0.21388538E+03</totfact>
</mgrwt>
</event>
<event>
 5    1  0.3251953E-002  0.1249991E+03  0.7818608E-02  0.1235071E+00
          4   -1    0    0  501    0  0.00000000000E+00  0.00000000000E+00  0.74508357034E+02  0.74519179866E+02  0.12700000000E+01 0.  1.
         -4   -1    0    0    0  501 -0.00000000000E+00 -0.00000000000E+00 -0.52403913475E+02  0.52419300334E+02  0.12700000000E+01 0.  1.
         25    2    1    2    0    0  0.00000000000E+00  0.00000000000E+00  0.22104443559E+02  0.12693848020E+03  0.12499908532E+03 0.  0.
    9000005    1    3    3    0    0  0.43932674992E+02  0.44442235155E+02  0.11077815710E+02  0.63473696902E+02  0.10000000000E+01 0.  0.
    9000005    1    3    3    0    0 -0.43932674992E+02 -0.44442235155E+02  0.11026627849E+02  0.63464783299E+02  0.10000000000E+01 0.  0.
<mgrwt>
<rscale>  0 0.12499909E+03</rscale>
<asrwt>0</asrwt>
<pdfrwt beam="1">  1        4 0.11464840E-01 0.12499909E+03</pdfrwt>
<pdfrwt beam="2">  1       -4 0.80641567E-02 0.12499909E+03</pdfrwt>
<totfact> 0.10410697E+04</totfact>
</mgrwt>
</event>
<event>
 5    1  0.3251953E-002  0.1250168E+03  0.7818608E-02  0.1235043E+00
          4   -1    0    0  501    0  0.00000000000E+00  0.00000000000E+00  0.22445312567E+02  0.22481213406E+02  0.12700000000E+01 0. -1.
         -4   -1    0    0    0  501 -0.00000000000E+00 -0.00000000000E+00 -0.17390355496E+03  0.17390819224E+03  0.12700000000E+01 0. -1.
         25    2    1    2    0    0  0.00000000000E+00  0.00000000000E+00 -0.15145824240E+03  0.19638940565E+03  0.12501679672E+03 0.  0.
    9000005    1    3    3    0    0  0.33226372209E+02 -0.78871604844E+01  0.65013833643E+01  0.34777393467E+02  0.10000000000E+01 0.  0.
    9000005    1    3    3    0    0 -0.33226372209E+02  0.78871604844E+01 -0.15795962576E+03  0.16161201218E+03  0.10000000000E+01 0.  0.
<mgrwt>
<rscale>  0 0.12501680E+03</rscale>
<asrwt>0</asrwt>
<pdfrwt beam="1">  1        4 0.34562434E-02 0.12501680E+03</pdfrwt>
<pdfrwt beam="2">  1       -4 0.26757510E-01 0.12501680E+03</pdfrwt>
<totfact> 0.90713197E+03</totfact>
</mgrwt>
</event>
<event>
 5    1  0.3251953E-002  0.1250011E+03  0.7818608E-02  0.1235068E+00
          4   -1    0    0  501    0  0.00000000000E+00  0.00000000000E+00  0.30652074491E+02  0.30678373011E+02  0.12700000000E+01 0. -1.
         -4   -1    0    0    0  501 -0.00000000000E+00 -0.00000000000E+00 -0.12735646777E+03  0.12736279983E+03  0.12700000000E+01 0. -1.
         25    2    1    2    0    0  0.00000000000E+00  0.00000000000E+00 -0.96704393274E+02  0.15804117284E+03  0.12500109054E+03 0.  0.
    9000005    1    3    3    0    0 -0.42126390348E+02  0.24072215719E+02  0.14435530862E+01  0.48550882370E+02  0.10000000000E+01 0.  0.
    9000005    1    3    3    0    0  0.42126390348E+02 -0.24072215719E+02 -0.98147946361E+02  0.10949029047E+03  0.10000000000E+01 0.  0.
<mgrwt>
<rscale>  0 0.12500109E+03</rscale>
<asrwt>0</asrwt>
<pdfrwt beam="1">  1        4 0.47182139E-02 0.12500109E+03</pdfrwt>
<pdfrwt beam="2">  1       -4 0.19595812E-01 0.12500109E+03</pdfrwt>
<totfact> 0.97719370E+03</totfact>
</mgrwt>
</event>
<event>
 5    1  0.3251953E-002  0.1250528E+03  0.7818608E-02  0.1234987E+00
          4   -1    0    0  501    0  0.00000000000E+00  0.00000000000E+00  0.41683557341E+02  0.41702899810E+02  0.12700000000E+01 0.  1.
         -4   -1    0    0    0  501 -0.00000000000E+00 -0.00000000000E+00 -0.93745759513E+02  0.93754361641E+02  0.12700000000E+01 0.  1.
         25    2    1    2    0    0  0.00000000000E+00  0.00000000000E+00 -0.52062202172E+02  0.13545726145E+03  0.12505277600E+03 0.  0.
    9000005    1    3    3    0    0  0.43863731621E+02 -0.44183032651E+02 -0.19867139576E+02  0.65359548353E+02  0.10000000000E+01 0.  0.
    9000005    1    3    3    0    0 -0.43863731621E+02  0.44183032651E+02 -0.32195062596E+02  0.70097713098E+02  0.10000000000E+01 0.  0.
<mgrwt>
<rscale>  0 0.12505278E+03</rscale>
<asrwt>0</asrwt>
<pdfrwt beam="1">  1        4 0.64150046E-02 0.12505278E+03</pdfrwt>
<pdfrwt beam="2">  1       -4 0.14424574E-01 0.12505278E+03</pdfrwt>
<totfact> 0.10216278E+04</totfact>
</mgrwt>
</event>
<event>
 5    1  0.3251953E-002  0.1250022E+03  0.7818608E-02  0.1235066E+00
          4   -1    0    0  501    0  0.00000000000E+00  0.00000000000E+00  0.10873875346E+04  0.10873882763E+04  0.12700000000E+01 0.  1.
         -4   -1    0    0    0  501 -0.00000000000E+00 -0.00000000000E+00 -0.34794451307E+01  0.37039760282E+01  0.12700000000E+01 0.  1.
         25    2    1    2    0    0  0.00000000000E+00  0.00000000000E+00  0.10839080895E+04  0.10910922523E+04  0.12500222615E+03 0.  0.
    9000005    1    3    3    0    0 -0.60019220985E+02 -0.38099815815E+00  0.69387579254E+03  0.69646756386E+03  0.10000000000E+01 0.  0.
    9000005    1    3    3    0    0  0.60019220985E+02  0.38099815815E+00  0.39003229698E+03  0.39462468845E+03  0.10000000000E+01 0.  0.
<mgrwt>
<rscale>  0 0.12500223E+03</rscale>
<asrwt>0</asrwt>
<pdfrwt beam="1">  1        4 0.16730783E+00 0.12500223E+03</pdfrwt>
<pdfrwt beam="2">  1       -4 0.55262754E-03 0.12500223E+03</pdfrwt>
<totfact> 0.27744194E+03</totfact>
</mgrwt>
</event>
<event>
 5    1  0.3251953E-002  0.1249962E+03  0.7818608E-02  0.1235075E+00
          4   -1    0    0  501    0  0.00000000000E+00  0.00000000000E+00  0.74635095959E+01  0.75707909421E+01  0.12700000000E+01 0. -1.
         -4   -1    0    0    0  501 -0.00000000000E+00 -0.00000000000E+00 -0.51950534180E+03  0.51950689414E+03  0.12700000000E+01 0. -1.
         25    2    1    2    0    0  0.00000000000E+00  0.00000000000E+00 -0.51204183221E+03  0.52707768509E+03  0.12499619268E+03 0.  0.
    9000005    1    3    3    0    0  0.50779779977E+02  0.30196313017E+02 -0.17015969993E+03  0.18012697426E+03  0.10000000000E+01 0.  0.
    9000005    1    3    3    0    0 -0.50779779977E+02 -0.30196313017E+02 -0.34188213228E+03  0.34695071083E+03  0.10000000000E+01 0.  0.
<mgrwt>
<rscale>  0 0.12499619E+03</rscale>
<asrwt>0</asrwt>
<pdfrwt beam="1">  1        4 0.11566045E-02 0.12499619E+03</pdfrwt>
<pdfrwt beam="2">  1       -4 0.79932243E-01 0.12499619E+03</pdfrwt>
<totfact> 0.53827533E+03</totfact>
</mgrwt>
</event>
<event>
 5    1  0.3251953E-002  0.1250006E+03  0.7818608E-02  0.1235068E+00
         -4   -1    0    0    0  501 -0.00000000000E+00  0.00000000000E+00  0.12665940680E+04  0.12665947047E+04  0.12700000000E+01 0.  1.
          4   -1    0    0  501    0  0.00000000000E+00 -0.00000000000E+00 -0.29526821439E+01  0.32142233655E+01  0.12700000000E+01 0.  1.
         25    2    1    2    0    0  0.00000000000E+00  0.00000000000E+00  0.12636413859E+04  0.12698089281E+04  0.12500064706E+03 0.  0.
    9000005    1    3    3    0    0  0.45408076055E+02 -0.17655943048E+02  0.23425584911E+03  0.23927061779E+03  0.10000000000E+01 0.  0.
    9000005    1    3    3    0    0 -0.45408076055E+02  0.17655943048E+02  0.10293855368E+04  0.10305383103E+04  0.10000000000E+01 0.  0.
<mgrwt>
<rscale>  0 0.12500065E+03</rscale>
<asrwt>0</asrwt>
<pdfrwt beam="2">  1        4 0.47442723E-03 0.12500065E+03</pdfrwt>
<pdfrwt beam="1">  1       -4 0.19488042E+00 0.12500065E+03</pdfrwt>
<totfact> 0.22952219E+03</totfact>
</mgrwt>
</event>
<event>
 5    1  0.3251953E-002  0.1250012E+03  0.7818608E-02  0.1235067E+00
         -4   -1    0    0    0  501 -0.00000000000E+00  0.00000000000E+00  0.65541537248E+01  0.66760640387E+01  0.12700000000E+01 0.  1.
          4   -1    0    0  501    0  0.00000000000E+00 -0.00000000000E+00 -0.59039326450E+03  0.59039463045E+03  0.12700000000E+01 0.  1.
         25    2    1    2    0    0  0.00000000000E+00  0.00000000000E+00 -0.58383911077E+03  0.59707069449E+03  0.12500122779E+03 0.  0.
    9000005    1    3    3    0    0 -0.37210031299E+02 -0.26652229049E+02 -0.88684496937E+02  0.99804146906E+02  0.10000000000E+01 0.  0.
    9000005    1    3    3    0    0  0.37210031299E+02  0.26652229049E+02 -0.49515461384E+03  0.49726654758E+03  0.10000000000E+01 0.  0.
<mgrwt>
<rscale>  0 0.12500123E+03</rscale>
<asrwt>0</asrwt>
<pdfrwt beam="2">  1        4 0.90839174E-01 0.12500123E+03</pdfrwt>
<pdfrwt beam="1">  1       -4 0.10178146E-02 0.12500123E+03</pdfrwt>
<totfact> 0.49051736E+03</totfact>
</mgrwt>
</event>
<event>
 5    1  0.3251953E-002  0.1249886E+03  0.7818608E-02  0.1235087E+00
         -4   -1    0    0    0  501 -0.00000000000E+00  0.00000000000E+00  0.48520008470E+03  0.48520174680E+03  0.12700000000E+01 0.  1.
          4   -1    0    0  501    0  0.00000000000E+00 -0.00000000000E+00 -0.79975517284E+01  0.80977610269E+01  0.12700000000E+01 0.  1.
         25    2    1    2    0    0  0.00000000000E+00  0.00000000000E+00  0.47720253297E+03  0.49329950782E+03  0.12498858725E+03 0.  0.
    9000005    1    3    3    0    0  0.47183943381E+02 -0.29196823860E+02  0.12518727409E+03  0.13693660077E+03  0.10000000000E+01 0.  0.
    9000005    1    3    3    0    0 -0.47183943381E+02  0.29196823860E+02  0.35201525888E+03  0.35636290705E+03  0.10000000000E+01 0.  0.
<mgrwt>
<rscale>  0 0.12498859E+03</rscale>
<asrwt>0</asrwt>
<pdfrwt beam="2">  1        4 0.12382288E-02 0.12498859E+03</pdfrwt>
<pdfrwt beam="1">  1       -4 0.74654003E-01 0.12498859E+03</pdfrwt>
<totfact> 0.56402170E+03</totfact>
</mgrwt>
</event>
<event>
 5    1  0.3251953E-002  0.1250422E+03  0.7818608E-02  0.1235003E+00
         -4   -1    0    0    0  501 -0.00000000000E+00  0.00000000000E+00  0.26975539950E+02  0.27005419005E+02  0.12700000000E+01 0.  1.
          4   -1    0    0  501    0  0.00000000000E+00 -0.00000000000E+00 -0.14479213113E+03  0.14479770073E+03  0.12700000000E+01 0.  1.
         25    2    1    2    0    0  0.00000000000E+00  0.00000000000E+00 -0.11781659118E+03  0.17180311973E+03  0.12504224404E+03 0.  0.
    9000005    1    3    3    0    0  0.33718969428E+02  0.28727117473E+02  0.16968337851E+01  0.44340674583E+02  0.10000000000E+01 0.  0.
    9000005    1    3    3    0    0 -0.33718969428E+02 -0.28727117473E+02 -0.11951342496E+03  0.12746244515E+03  0.10000000000E+01 0.  0.
<mgrwt>
<rscale>  0 0.12504224E+03</rscale>
<asrwt>0</asrwt>
<pdfrwt beam="2">  1        4 0.22278439E-01 0.12504224E+03</pdfrwt>
<pdfrwt beam="1">  1       -4 0.41528100E-02 0.12504224E+03</pdfrwt>
<totfact> 0.95023514E+03</totfact>
</mgrwt>
</event>
<event>
 5    1  0.3251953E-002  0.1249792E+03  0.7818608E-02  0.1235102E+00
         -4   -1    0    0    0  501 -0.00000000000E+00  0.00000000000E+00  0.19200352322E+02  0.19242308315E+02  0.12700000000E+01 0.  1.
          4   -1    0    0  501    0  0.00000000000E+00 -0.00000000000E+00 -0.20311306470E+03  0.20311703511E+03  0.12700000000E+01 0.  1.
         25    2    1    2    0    0  0.00000000000E+00  0.00000000000E+00 -0.18391271238E+03  0.22235934343E+03  0.12497916560E+03 0.  0.
    9000005    1    3    3    0    0  0.25368855193E+02  0.27396978848E+02 -0.18108865965E+03  0.18490071909E+03  0.10000000000E+01 0.  0.
    9000005    1    3    3    0    0 -0.25368855193E+02 -0.27396978848E+02 -0.28240527297E+01  0.37458624342E+02  0.10000000000E+01 0.  0.
<mgrwt>
<rscale>  0 0.12497917E+03</rscale>
<asrwt>0</asrwt>
<pdfrwt beam="2">  1        4 0.31251695E-01 0.12497917E+03</pdfrwt>
<pdfrwt beam="1">  1       -4 0.29574333E-02 0.12497917E+03</pdfrwt>
<totfact> 0.86536643E+03</totfact>
</mgrwt>
</event>
<event>
 5    1  0.3251953E-002  0.1250002E+03  0.7818608E-02  0.1235069E+00
          4   -1    0    0  501    0  0.00000000000E+00  0.00000000000E+00  0.17138506042E+03  0.17138976585E+03  0.12700000000E+01 0. -1.
         -4   -1    0    0    0  501 -0.00000000000E+00 -0.00000000000E+00 -0.22769586065E+02  0.22804976421E+02  0.12700000000E+01 0. -1.
         25    2    1    2    0    0  0.00000000000E+00  0.00000000000E+00  0.14861547436E+03  0.19419474227E+03  0.12500015482E+03 0.  0.
    9000005    1    3    3    0    0  0.59684272068E+02  0.44908846833E+01  0.46392133940E+02  0.75733813248E+02  0.10000000000E+01 0.  0.
    9000005    1    3    3    0    0 -0.59684272068E+02 -0.44908846833E+01  0.10222334042E+03  0.11846092902E+03  0.10000000000E+01 0.  0.
<mgrwt>
<rscale>  0 0.12500015E+03</rscale>
<asrwt>0</asrwt>
<pdfrwt beam="1">  1        4 0.26370016E-01 0.12500015E+03</pdfrwt>
<pdfrwt beam="2">  1       -4 0.35060976E-02 0.12500015E+03</pdfrwt>
<totfact> 0.91122207E+03</totfact>
</mgrwt>
</event>
<event>
 5    1  0.3251953E-002  0.1250029E+03  0.7818608E-02  0.1235065E+00
          4   -1    0    0  501    0  0.00000000000E+00  0.00000000000E+00  0.22417134898E+03  0.22417494642E+03  0.12700000000E+01 0. -1.
         -4   -1    0    0    0  501 -0.00000000000E+00 -0.00000000000E+00 -0.17399201920E+02  0.17445490175E+02  0.12700000000E+01 0. -1.
         25    2    1    2    0    0  0.00000000000E+00  0.00000000000E+00  0.20677214706E+03  0.24162043660E+03  0.12500285830E+03 0.  0.
    9000005    1    3    3    0    0 -0.37716886786E+02 -0.41298883131E+02  0.49497221354E+02  0.74693615648E+02  0.10000000000E+01 0.  0.
    9000005    1    3    3    0    0  0.37716886786E+02  0.41298883131E+02  0.15727492571E+03  0.16692682095E+03  0.10000000000E+01 0.  0.
<mgrwt>
<rscale>  0 0.12500286E+03</rscale>
<asrwt>0</asrwt>
<pdfrwt beam="1">  1        4 0.34491737E-01 0.12500286E+03</pdfrwt>
<pdfrwt beam="2">  1       -4 0.26806377E-02 0.12500286E+03</pdfrwt>
<totfact> 0.83551298E+03</totfact>
</mgrwt>
</event>
<event>
 5    1  0.3251953E-002  0.1249966E+03  0.7818608E-02  0.1235075E+00
         -4   -1    0    0    0  501 -0.00000000000E+00  0.00000000000E+00  0.48350477497E+01  0.49990585856E+01  0.12700000000E+01 0. -1.
          4   -1    0    0  501    0  0.00000000000E+00 -0.00000000000E+00 -0.79422158640E+03  0.79422260180E+03  0.12700000000E+01 0. -1.
         25    2    1    2    0    0  0.00000000000E+00  0.00000000000E+00 -0.78938653865E+03  0.79922166038E+03  0.12499662004E+03 0.  0.
    9000005    1    3    3    0    0  0.51648586071E+02  0.34634937346E+02 -0.35533884115E+03  0.36074069268E+03  0.10000000000E+01 0.  0.
    9000005    1    3    3    0    0 -0.51648586071E+02 -0.34634937346E+02 -0.43404769750E+03  0.43848096770E+03  0.10000000000E+01 0.  0.
<mgrwt>
<rscale>  0 0.12499662E+03</rscale>
<asrwt>0</asrwt>
<pdfrwt beam="2">  1        4 0.12220053E+00 0.12499662E+03</pdfrwt>
<pdfrwt beam="1">  1       -4 0.75654845E-03 0.12499662E+03</pdfrwt>
<totfact> 0.38302352E+03</totfact>
</mgrwt>
</event>
<event>
 5    1  0.3251953E-002  0.1250014E+03  0.7818608E-02  0.1235067E+00
          4   -1    0    0  501    0  0.00000000000E+00  0.00000000000E+00  0.98266141507E+01  0.99083422260E+01  0.12700000000E+01 0.  1.
         -4   -1    0    0    0  501 -0.00000000000E+00 -0.00000000000E+00 -0.39579716115E+03  0.39579919868E+03  0.12700000000E+01 0.  1.
         25    2    1    2    0    0  0.00000000000E+00  0.00000000000E+00 -0.38597054700E+03  0.40570754091E+03  0.12500138238E+03 0.  0.
    9000005    1    3    3    0    0 -0.31395816638E+02  0.22206060079E+02 -0.35286415305E+03  0.35495480968E+03  0.10000000000E+01 0.  0.
    9000005    1    3    3    0    0  0.31395816638E+02 -0.22206060079E+02 -0.33106393953E+02  0.50752731229E+02  0.10000000000E+01 0.  0.
<mgrwt>
<rscale>  0 0.12500138E+03</rscale>
<asrwt>0</asrwt>
<pdfrwt beam="1">  1        4 0.15182306E-02 0.12500138E+03</pdfrwt>
<pdfrwt beam="2">  1       -4 0.60898302E-01 0.12500138E+03</pdfrwt>
<totfact> 0.63999493E+03</totfact>
</mgrwt>
</event>
<event>
 5    1  0.3251953E-002  0.1250135E+03  0.7818608E-02  0.1235048E+00
          4   -1    0    0  501    0  0.00000000000E+00  0.00000000000E+00  0.49043112130E+01  0.50660801882E+01  0.12700000000E+01 0.  1.
         -4   -1    0    0    0  501 -0.00000000000E+00 -0.00000000000E+00 -0.78357689997E+03  0.78357792916E+03  0.12700000000E+01 0.  1.
         25    2    1    2    0    0  0.00000000000E+00  0.00000000000E+00 -0.77867258875E+03  0.78864400935E+03  0.12501349127E+03 0.  0.
    9000005    1    3    3    0    0  0.59817698301E+02 -0.90646329291E+01 -0.48823426191E+03  0.49196953066E+03  0.10000000000E+01 0.  0.
    9000005    1    3    3    0    0 -0.59817698301E+02  0.90646329291E+01 -0.29043832685E+03  0.29667447868E+03  0.10000000000E+01 0.  0.
<mgrwt>
<rscale>  0 0.12501349E+03</rscale>
<asrwt>0</asrwt>
<pdfrwt beam="1">  1        4 0.76703298E-03 0.12501349E+03</pdfrwt>
<pdfrwt beam="2">  1       -4 0.12056272E+00 0.12501349E+03</pdfrwt>
<totfact> 0.38765344E+03</totfact>
</mgrwt>
</event>
<event>
 5    1  0.3251953E-002  0.1250058E+03  0.7818608E-02  0.1235060E+00
         -4   -1    0    0    0  501 -0.00000000000E+00  0.00000000000E+00  0.14311020994E+03  0.14311584500E+03  0.12700000000E+01 0.  1.
          4   -1    0    0  501    0  0.00000000000E+00 -0.00000000000E+00 -0.27276970096E+02  0.27306519324E+02  0.12700000000E+01 0.  1.
         25    2    1    2    0    0  0.00000000000E+00  0.00000000000E+00  0.11583323985E+03  0.17042236432E+03  0.12500577110E+03 0.  0.
    9000005    1    3    3    0    0 -0.51226220209E+02 -0.40407009127E+01  0.94247566875E+01  0.52252071149E+02  0.10000000000E+01 0.  0.
    9000005    1    3    3    0    0  0.51226220209E+02  0.40407009127E+01  0.10640848316E+03  0.11817029318E+03  0.10000000000E+01 0.  0.
<mgrwt>
<rscale>  0 0.12500577E+03</rscale>
<asrwt>0</asrwt>
<pdfrwt beam="2">  1        4 0.41991635E-02 0.12500577E+03</pdfrwt>
<pdfrwt beam="1">  1       -4 0.22019662E-01 0.12500577E+03</pdfrwt>
<totfact> 0.95357620E+03</totfact>
</mgrwt>
</event>
<event>
 5    1  0.3251953E-002  0.1250004E+03  0.7818608E-02  0.1235069E+00
          4   -1    0    0  501    0  0.00000000000E+00  0.00000000000E+00  0.68581669085E+01  0.69747654688E+01  0.12700000000E+01 0. -1.
         -4   -1    0    0    0  501 -0.00000000000E+00 -0.00000000000E+00 -0.56466151941E+03  0.56466294761E+03  0.12700000000E+01 0. -1.
         25    2    1    2    0    0  0.00000000000E+00  0.00000000000E+00 -0.55780335251E+03  0.57163771308E+03  0.12500037980E+03 0.  0.
    9000005    1    3    3    0    0 -0.60823547958E+02  0.41723818797E+01 -0.21613848576E+03  0.22457461518E+03  0.10000000000E+01 0.  0.
    9000005    1    3    3    0    0  0.60823547958E+02 -0.41723818797E+01 -0.34166486675E+03  0.34706309790E+03  0.10000000000E+01 0.  0.
<mgrwt>
<rscale>  0 0.12500038E+03</rscale>
<asrwt>0</asrwt>
<pdfrwt beam="1">  1        4 0.10641820E-02 0.12500038E+03</pdfrwt>
<pdfrwt beam="2">  1       -4 0.86880045E-01 0.12500038E+03</pdfrwt>
<totfact> 0.50707892E+03</totfact>
</mgrwt>
</event>
<event>
 5    1  0.3251953E-002  0.1249991E+03  0.7818608E-02  0.1235071E+00
          4   -1    0    0  501    0  0.00000000000E+00  0.00000000000E+00  0.21854781488E+02  0.21891650781E+02  0.12700000000E+01 0.  1.
         -4   -1    0    0    0  501 -0.00000000000E+00 -0.00000000000E+00 -0.17854419763E+03  0.17854871438E+03  0.12700000000E+01 0.  1.
         25    2    1    2    0    0  0.00000000000E+00  0.00000000000E+00 -0.15668941614E+03  0.20044036516E+03  0.12499906742E+03 0.  0.
    9000005    1    3    3    0    0  0.17782667314E+02  0.59481970102E+02 -0.66908492221E+02  0.91280196950E+02  0.10000000000E+01 0.  0.
    9000005    1    3    3    0    0 -0.17782667314E+02 -0.59481970102E+02 -0.89780923921E+02  0.10916016821E+03  0.10000000000E+01 0.  0.
<mgrwt>
<rscale>  0 0.12499907E+03</rscale>
<asrwt>0</asrwt>
<pdfrwt beam="1">  1        4 0.33654577E-02 0.12499907E+03</pdfrwt>
<pdfrwt beam="2">  1       -4 0.27471521E-01 0.12499907E+03</pdfrwt>
<totfact> 0.90063168E+03</totfact>
</mgrwt>
</event>
<event>
 5    1  0.3251953E-002  0.1249865E+03  0.7818608E-02  0.1235090E+00
         -4   -1    0    0    0  501 -0.00000000000E+00  0.00000000000E+00  0.19128287102E+02  0.19170400816E+02  0.12700000000E+01 0.  1.
          4   -1    0    0  501    0  0.00000000000E+00 -0.00000000000E+00 -0.20390057963E+03  0.20390453471E+03  0.12700000000E+01 0.  1.
         25    2    1    2    0    0  0.00000000000E+00  0.00000000000E+00 -0.18477229253E+03  0.22307493552E+03  0.12498650636E+03 0.  0.
    9000005    1    3    3    0    0  0.45811595292E+01 -0.55411896651E+02 -0.41497925982E+02  0.69386909240E+02  0.10000000000E+01 0.  0.
    9000005    1    3    3    0    0 -0.45811595292E+01  0.55411896651E+02 -0.14327436655E+03  0.15368802628E+03  0.10000000000E+01 0.  0.
<mgrwt>
<rscale>  0 0.12498651E+03</rscale>
<asrwt>0</asrwt>
<pdfrwt beam="2">  1        4 0.31372862E-01 0.12498651E+03</pdfrwt>
<pdfrwt beam="1">  1       -4 0.29463573E-02 0.12498651E+03</pdfrwt>
<totfact> 0.86410143E+03</totfact>
</mgrwt>
</event>
<event>
 5    1  0.3251953E-002  0.1250026E+03  0.7818608E-02  0.1235065E+00
         -4   -1    0    0    0  501 -0.00000000000E+00  0.00000000000E+00  0.25885027963E+03  0.25885339512E+03  0.12700000000E+01 0.  1.
          4   -1    0    0  501    0  0.00000000000E+00 -0.00000000000E+00 -0.15061461416E+02  0.15114910519E+02  0.12700000000E+01 0.  1.
         25    2    1    2    0    0  0.00000000000E+00  0.00000000000E+00  0.24378881821E+03  0.27396830564E+03  0.12500257840E+03 0.  0.
    9000005    1    3    3    0    0  0.20623321736E+02  0.52784438293E+02  0.17962786455E+03  0.18835787228E+03  0.10000000000E+01 0.  0.
    9000005    1    3    3    0    0 -0.20623321736E+02 -0.52784438293E+02  0.64160953663E+02  0.85610433361E+02  0.10000000000E+01 0.  0.
<mgrwt>
<rscale>  0 0.12500258E+03</rscale>
<asrwt>0</asrwt>
<pdfrwt beam="2">  1        4 0.23214992E-02 0.12500258E+03</pdfrwt>
<pdfrwt beam="1">  1       -4 0.39827469E-01 0.12500258E+03</pdfrwt>
<totfact> 0.78980194E+03</totfact>
</mgrwt>
</event>
<event>
 5    1  0.3251953E-002  0.1250024E+03  0.7818608E-02  0.1235066E+00
          4   -1    0    0  501    0  0.00000000000E+00  0.00000000000E+00  0.10142958060E+02  0.10222157218E+02  0.12700000000E+01 0.  1.
         -4   -1    0    0    0  501 -0.00000000000E+00 -0.00000000000E+00 -0.38355603681E+03  0.38355813936E+03  0.12700000000E+01 0.  1.
         25    2    1    2    0    0  0.00000000000E+00  0.00000000000E+00 -0.37341307875E+03  0.39378029658E+03  0.12500237836E+03 0.  0.
    9000005    1    3    3    0    0  0.14558175636E+01 -0.55516231829E+02 -0.27698151520E+03  0.28249589583E+03  0.10000000000E+01 0.  0.
    9000005    1    3    3    0    0 -0.14558175636E+01  0.55516231829E+02 -0.96431563554E+02  0.11128440075E+03  0.10000000000E+01 0.  0.
<mgrwt>
<rscale>  0 0.12500238E+03</rscale>
<asrwt>0</asrwt>
<pdfrwt beam="1">  1        4 0.15667094E-02 0.12500238E+03</pdfrwt>
<pdfrwt beam="2">  1       -4 0.59014864E-01 0.12500238E+03</pdfrwt>
<totfact> 0.65158821E+03</totfact>
</mgrwt>
</event>
<event>
 5    1  0.3251953E-002  0.1250005E+03  0.7818608E-02  0.1235068E+00
          4   -1    0    0  501    0  0.00000000000E+00  0.00000000000E+00  0.53984977976E+01  0.55458703979E+01  0.12700000000E+01 0. -1.
         -4   -1    0    0    0  501 -0.00000000000E+00 -0.00000000000E+00 -0.71369566390E+03  0.71369679387E+03  0.12700000000E+01 0. -1.
         25    2    1    2    0    0  0.00000000000E+00  0.00000000000E+00 -0.70829716611E+03  0.71924266426E+03  0.12500053833E+03 0.  0.
    9000005    1    3    3    0    0  0.74197111392E+01 -0.19641766986E+02 -0.69282083160E+03  0.69313963659E+03  0.10000000000E+01 0.  0.
    9000005    1    3    3    0    0 -0.74197111392E+01  0.19641766986E+02 -0.15476334511E+02  0.26103027671E+02  0.10000000000E+01 0.  0.
<mgrwt>
<rscale>  0 0.12500054E+03</rscale>
<asrwt>0</asrwt>
<pdfrwt beam="1">  1        4 0.84196196E-03 0.12500054E+03</pdfrwt>
<pdfrwt beam="2">  1       -4 0.10981068E+00 0.12500054E+03</pdfrwt>
<totfact> 0.42089694E+03</totfact>
</mgrwt>
</event>
<event>
 5    1  0.3251953E-002  0.1249987E+03  0.7818608E-02  0.1235071E+00
         -4   -1    0    0    0  501 -0.00000000000E+00  0.00000000000E+00  0.33278412194E+02  0.33302636804E+02  0.12700000000E+01 0.  1.
          4   -1    0    0  501    0  0.00000000000E+00 -0.00000000000E+00 -0.11730808367E+03  0.11731495810E+03  0.12700000000E+01 0.  1.
         25    2    1    2    0    0  0.00000000000E+00  0.00000000000E+00 -0.84029671474E+02  0.15061759490E+03  0.12499869682E+03 0.  0.
    9000005    1    3    3    0    0 -0.51336729242E+02  0.19947286110E+02 -0.64367742088E+01  0.55459769695E+02  0.10000000000E+01 0.  0.
    9000005    1    3    3    0    0  0.51336729242E+02 -0.19947286110E+02 -0.77592897265E+02  0.95157825209E+02  0.10000000000E+01 0.  0.
<mgrwt>
<rscale>  0 0.12499870E+03</rscale>
<asrwt>0</asrwt>
<pdfrwt beam="2">  1        4 0.18049789E-01 0.12499870E+03</pdfrwt>
<pdfrwt beam="1">  1       -4 0.51221480E-02 0.12499870E+03</pdfrwt>
<totfact> 0.99183641E+03</totfact>
</mgrwt>
</event>
<event>
 5    1  0.3251953E-002  0.1250000E+03  0.7818608E-02  0.1235069E+00
         -4   -1    0    0    0  501 -0.00000000000E+00  0.00000000000E+00  0.40461213748E+02  0.40481140274E+02  0.12700000000E+01 0.  1.
          4   -1    0    0  501    0  0.00000000000E+00 -0.00000000000E+00 -0.96495278856E+02  0.96503635898E+02  0.12700000000E+01 0.  1.
         25    2    1    2    0    0  0.00000000000E+00  0.00000000000E+00 -0.56034065109E+02  0.13698477617E+03  0.12500004980E+03 0.  0.
    9000005    1    3    3    0    0 -0.57223318249E+01 -0.58188048732E+02 -0.38415859837E+01  0.58603343588E+02  0.10000000000E+01 0.  0.
    9000005    1    3    3    0    0  0.57223318249E+01  0.58188048732E+02 -0.52192479125E+02  0.78381432585E+02  0.10000000000E+01 0.  0.
<mgrwt>
<rscale>  0 0.12500005E+03</rscale>
<asrwt>0</asrwt>
<pdfrwt beam="2">  1        4 0.14847603E-01 0.12500005E+03</pdfrwt>
<pdfrwt beam="1">  1       -4 0.62269778E-02 0.12500005E+03</pdfrwt>
<totfact> 0.10196393E+04</totfact>
</mgrwt>
</event>
<event>
 5    1  0.3251953E-002  0.1249974E+03  0.7818608E-02  0.1235073E+00
          4   -1    0    0  501    0  0.00000000000E+00  0.00000000000E+00  0.63917219306E+03  0.63917345477E+03  0.12700000000E+01 0. -1.
         -4   -1    0    0    0  501 -0.00000000000E+00 -0.00000000000E+00 -0.60439017880E+01  0.61758925528E+01  0.12700000000E+01 0. -1.
         25    2    1    2    0    0  0.00000000000E+00  0.00000000000E+00  0.63312829127E+03  0.64534934732E+03  0.12499738749E+03 0.  0.
    9000005    1    3    3    0    0 -0.36067390251E+02  0.82465108296E+01  0.56555469187E+02  0.67589811920E+02  0.10000000000E+01 0.  0.
    9000005    1    3    3    0    0  0.36067390251E+02 -0.82465108296E+01  0.57657282209E+03  0.57775953540E+03  0.10000000000E+01 0.  0.
<mgrwt>
<rscale>  0 0.12499739E+03</rscale>
<asrwt>0</asrwt>
<pdfrwt beam="1">  1        4 0.98344448E-01 0.12499739E+03</pdfrwt>
<pdfrwt beam="2">  1       -4 0.94008110E-03 0.12499739E+03</pdfrwt>
<totfact> 0.46127199E+03</totfact>
</mgrwt>
</event>
<event>
 5    1  0.3251953E-002  0.1249982E+03  0.7818608E-02  0.1235072E+00
         -4   -1    0    0    0  501 -0.00000000000E+00  0.00000000000E+00  0.17665974006E+01  0.21757220355E+01  0.12700000000E+01 0. -1.
          4   -1    0    0  501    0  0.00000000000E+00 -0.00000000000E+00 -0.19812344864E+04  0.19812348935E+04  0.12700000000E+01 0. -1.
         25    2    1    2    0    0  0.00000000000E+00  0.00000000000E+00 -0.19794678890E+04  0.19834106155E+04  0.12499818406E+03 0.  0.
    9000005    1    3    3    0    0  0.53322089162E+02 -0.29219904472E+02 -0.12186271830E+04  0.12201435404E+04  0.10000000000E+01 0.  0.
    9000005    1    3    3    0    0 -0.53322089162E+02  0.29219904472E+02 -0.76084070605E+03  0.76326707514E+03  0.10000000000E+01 0.  0.
<mgrwt>
<rscale>  0 0.12499818E+03</rscale>
<asrwt>0</asrwt>
<pdfrwt beam="2">  1        4 0.30483521E+00 0.12499818E+03</pdfrwt>
<pdfrwt beam="1">  1       -4 0.30328824E-03 0.12499818E+03</pdfrwt>
<totfact> 0.10079877E+03</totfact>
</mgrwt>
</event>
<event>
 5    1  0.3251953E-002  0.1250274E+03  0.7818608E-02  0.1235026E+00
         -4   -1    0    0    0  501 -0.00000000000E+00  0.00000000000E+00  0.84400360317E+01  0.85350517407E+01  0.12700000000E+01 0.  1.
          4   -1    0    0  501    0  0.00000000000E+00 -0.00000000000E+00 -0.46033902867E+03  0.46034078052E+03  0.12700000000E+01 0.  1.
         25    2    1    2    0    0  0.00000000000E+00  0.00000000000E+00 -0.45189899264E+03  0.46887583227E+03  0.12502738315E+03 0.  0.
    9000005    1    3    3    0    0 -0.11895179984E+01  0.62125230935E+02 -0.20051385014E+03  0.20992323208E+03  0.10000000000E+01 0.  0.
    9000005    1    3    3    0    0  0.11895179984E+01 -0.62125230935E+02 -0.25138514250E+03  0.25895260018E+03  0.10000000000E+01 0.  0.
<mgrwt>
<rscale>  0 0.12502738E+03</rscale>
<asrwt>0</asrwt>
<pdfrwt beam="2">  1        4 0.70828813E-01 0.12502738E+03</pdfrwt>
<pdfrwt beam="1">  1       -4 0.13059111E-02 0.12502738E+03</pdfrwt>
<totfact> 0.58327606E+03</totfact>
</mgrwt>
</event>
<event>
 5    1  0.3251953E-002  0.1249996E+03  0.7818608E-02  0.1235070E+00
          4   -1    0    0  501    0  0.00000000000E+00  0.00000000000E+00  0.15550793977E+02  0.15602566882E+02  0.12700000000E+01 0. -1.
         -4   -1    0    0    0  501 -0.00000000000E+00 -0.00000000000E+00 -0.25072045631E+03  0.25072367282E+03  0.12700000000E+01 0. -1.
         25    2    1    2    0    0  0.00000000000E+00  0.00000000000E+00 -0.23516966234E+03  0.26632623971E+03  0.12499958349E+03 0.  0.
    9000005    1    3    3    0    0  0.27952795822E+02  0.30671106820E+02 -0.18033512208E+02  0.45257962287E+02  0.10000000000E+01 0.  0.
    9000005    1    3    3    0    0 -0.27952795822E+02 -0.30671106820E+02 -0.21713615013E+03  0.22106827742E+03  0.10000000000E+01 0.  0.
<mgrwt>
<rscale>  0 0.12499958E+03</rscale>
<asrwt>0</asrwt>
<pdfrwt beam="1">  1        4 0.23966600E-02 0.12499958E+03</pdfrwt>
<pdfrwt beam="2">  1       -4 0.38576605E-01 0.12499958E+03</pdfrwt>
<totfact> 0.80027122E+03</totfact>
</mgrwt>
</event>
<event>
 5    1  0.3251953E-002  0.1249861E+03  0.7818608E-02  0.1235091E+00
          4   -1    0    0  501    0  0.00000000000E+00  0.00000000000E+00  0.21252262731E+02  0.21290175461E+02  0.12700000000E+01 0. -1.
         -4   -1    0    0    0  501 -0.00000000000E+00 -0.00000000000E+00 -0.18355911285E+03  0.18356350621E+03  0.12700000000E+01 0. -1.
         25    2    1    2    0    0  0.00000000000E+00  0.00000000000E+00 -0.16230685012E+03  0.20485368167E+03  0.12498606841E+03 0.  0.
    9000005    1    3    3    0    0  0.24173505741E+02  0.33574914383E+02 -0.44037868243E+01  0.41617623599E+02  0.10000000000E+01 0.  0.
    9000005    1    3    3    0    0 -0.24173505741E+02 -0.33574914383E+02 -0.15790306330E+03  0.16323605807E+03  0.10000000000E+01 0.  0.
<mgrwt>
<rscale>  0 0.12498607E+03</rscale>
<asrwt>0</asrwt>
<pdfrwt beam="1">  1        4 0.32728333E-02 0.12498607E+03</pdfrwt>
<pdfrwt beam="2">  1       -4 0.28243117E-01 0.12498607E+03</pdfrwt>
<totfact> 0.89351140E+03</totfact>
</mgrwt>
</event>
<event>
 5    1  0.3251953E-002  0.1249964E+03  0.7818608E-02  0.1235075E+00
          4   -1    0    0  501    0  0.00000000000E+00  0.00000000000E+00  0.46730336819E+01  0.48425348519E+01  0.12700000000E+01 0. -1.
         -4   -1    0    0    0  501 -0.00000000000E+00 -0.00000000000E+00 -0.82080584038E+03  0.82080682289E+03  0.12700000000E+01 0. -1.
         25    2    1    2    0    0  0.00000000000E+00  0.00000000000E+00 -0.81613280670E+03  0.82564935774E+03  0.12499641503E+03 0.  0.
    9000005    1    3    3    0    0  0.32212545468E+02 -0.13463531581E+02 -0.65724483535E+02  0.74428640348E+02  0.10000000000E+01 0.  0.
    9000005    1    3    3    0    0 -0.32212545468E+02  0.13463531581E+02 -0.75040832316E+03  0.75122071739E+03  0.10000000000E+01 0.  0.
<mgrwt>
<rscale>  0 0.12499642E+03</rscale>
<asrwt>0</asrwt>
<pdfrwt beam="1">  1        4 0.73204304E-03 0.12499642E+03</pdfrwt>
<pdfrwt beam="2">  1       -4 0.12629082E+00 0.12499642E+03</pdfrwt>
<totfact> 0.37147935E+03</totfact>
</mgrwt>
</event>
<event>
 5    1  0.3251953E-002  0.1249998E+03  0.7818608E-02  0.1235070E+00
         -4   -1    0    0    0  501 -0.00000000000E+00  0.00000000000E+00  0.28956583759E+03  0.28956862261E+03  0.12700000000E+01 0.  1.
          4   -1    0    0  501    0  0.00000000000E+00 -0.00000000000E+00 -0.13457224587E+02  0.13517018665E+02  0.12700000000E+01 0.  1.
         25    2    1    2    0    0  0.00000000000E+00  0.00000000000E+00  0.27610861300E+03  0.30308564127E+03  0.12499975909E+03 0.  0.
    9000005    1    3    3    0    0 -0.35201553410E+02  0.33681478902E+02  0.43161117775E+02  0.65095879064E+02  0.10000000000E+01 0.  0.
    9000005    1    3    3    0    0  0.35201553410E+02 -0.33681478902E+02  0.23294749523E+03  0.23798976221E+03  0.10000000000E+01 0.  0.
<mgrwt>
<rscale>  0 0.12499976E+03</rscale>
<asrwt>0</asrwt>
<pdfrwt beam="2">  1        4 0.20751562E-02 0.12499976E+03</pdfrwt>
<pdfrwt beam="1">  1       -4 0.44553400E-01 0.12499976E+03</pdfrwt>
<totfact> 0.75213809E+03</totfact>
</mgrwt>
</event>
<event>
 5    1  0.3251953E-002  0.1249988E+03  0.7818608E-02  0.1235071E+00
          4   -1    0    0  501    0  0.00000000000E+00  0.00000000000E+00  0.72998426473E+02  0.73009473135E+02  0.12700000000E+01 0. -1.
         -4   -1    0    0    0  501 -0.00000000000E+00 -0.00000000000E+00 -0.53487785527E+02  0.53502860677E+02  0.12700000000E+01 0. -1.
         25    2    1    2    0    0  0.00000000000E+00  0.00000000000E+00  0.19510640945E+02  0.12651233381E+03  0.12499882198E+03 0.  0.
    9000005    1    3    3    0    0  0.44318798176E+02 -0.15075498038E+02  0.51654031600E+02  0.69717755940E+02  0.10000000000E+01 0.  0.
    9000005    1    3    3    0    0 -0.44318798176E+02  0.15075498038E+02 -0.32143390655E+02  0.56794577872E+02  0.10000000000E+01 0.  0.
<mgrwt>
<rscale>  0 0.12499882E+03</rscale>
<asrwt>0</asrwt>
<pdfrwt beam="1">  1        4 0.11232537E-01 0.12499882E+03</pdfrwt>
<pdfrwt beam="2">  1       -4 0.82308994E-02 0.12499882E+03</pdfrwt>
<totfact> 0.10420036E+04</totfact>
</mgrwt>
</event>
<event>
 5    1  0.3251953E-002  0.1249976E+03  0.7818608E-02  0.1235073E+00
          4   -1    0    0  501    0  0.00000000000E+00  0.00000000000E+00  0.16848764213E+02  0.16896560464E+02  0.12700000000E+01 0. -1.
         -4   -1    0    0    0  501 -0.00000000000E+00 -0.00000000000E+00 -0.23145501874E+03  0.23145850298E+03  0.12700000000E+01 0. -1.
         25    2    1    2    0    0  0.00000000000E+00  0.00000000000E+00 -0.21460625453E+03  0.24835506344E+03  0.12499757220E+03 0.  0.
    9000005    1    3    3    0    0  0.46202277681E+01  0.36535172431E+02 -0.69916455889E+01  0.37497312400E+02  0.10000000000E+01 0.  0.
    9000005    1    3    3    0    0 -0.46202277681E+01 -0.36535172431E+02 -0.20761460894E+03  0.21085775104E+03  0.10000000000E+01 0.  0.
<mgrwt>
<rscale>  0 0.12499757E+03</rscale>
<asrwt>0</asrwt>
<pdfrwt beam="1">  1        4 0.25960624E-02 0.12499757E+03</pdfrwt>
<pdfrwt beam="2">  1       -4 0.35612407E-01 0.12499757E+03</pdfrwt>
<totfact> 0.82573022E+03</totfact>
</mgrwt>
</event>
<event>
 5    1  0.3251953E-002  0.1250000E+03  0.7818608E-02  0.1235069E+00
         -4   -1    0    0    0  501 -0.00000000000E+00  0.00000000000E+00  0.49856789954E+02  0.49872962661E+02  0.12700000000E+01 0.  1.
          4   -1    0    0  501    0  0.00000000000E+00 -0.00000000000E+00 -0.78315334205E+02  0.78325631000E+02  0.12700000000E+01 0.  1.
         25    2    1    2    0    0  0.00000000000E+00  0.00000000000E+00 -0.28458544250E+02  0.12819859366E+03  0.12499996270E+03 0.  0.
    9000005    1    3    3    0    0 -0.42287418290E+02 -0.27559481664E+02  0.23557761477E+02  0.55711030336E+02  0.10000000000E+01 0.  0.
    9000005    1    3    3    0    0  0.42287418290E+02  0.27559481664E+02 -0.52016305727E+02  0.72487563325E+02  0.10000000000E+01 0.  0.
<mgrwt>
<rscale>  0 0.12499996E+03</rscale>
<asrwt>0</asrwt>
<pdfrwt beam="2">  1        4 0.12050549E-01 0.12499996E+03</pdfrwt>
<pdfrwt beam="1">  1       -4 0.76723115E-02 0.12499996E+03</pdfrwt>
<totfact> 0.10383210E+04</totfact>
</mgrwt>
</event>
<event>
 5    1  0.3251953E-002  0.1250030E+03  0.7818608E-02  0.1235065E+00
         -4   -1    0    0    0  501 -0.00000000000E+00  0.00000000000E+00  0.18997895307E+03  0.18998319796E+03  0.12700000000E+01 0. -1.
          4   -1    0    0  501    0  0.00000000000E+00 -0.00000000000E+00 -0.20538381503E+02  0.20577609549E+02  0.12700000000E+01 0. -1.
         25    2    1    2    0    0  0.00000000000E+00  0.00000000000E+00  0.16944057157E+03  0.21056080751E+03  0.12500298544E+03 0.  0.
    9000005    1    3    3    0    0  0.36577718949E+02  0.13528659879E+02  0.24668182322E+01  0.39090143947E+02  0.10000000000E+01 0.  0.
    9000005    1    3    3    0    0 -0.36577718949E+02 -0.13528659879E+02  0.16697375333E+03  0.17147066357E+03  0.10000000000E+01 0.  0.
<mgrwt>
<rscale>  0 0.12500299E+03</rscale>
<asrwt>0</asrwt>
<pdfrwt beam="2">  1        4 0.31630951E-02 0.12500299E+03</pdfrwt>
<pdfrwt beam="1">  1       -4 0.29230875E-01 0.12500299E+03</pdfrwt>
<totfact> 0.88378476E+03</totfact>
</mgrwt>
</event>
<event>
 5    1  0.3251953E-002  0.1249982E+03  0.7818608E-02  0.1235072E+00
         -4   -1    0    0    0  501 -0.00000000000E+00  0.00000000000E+00  0.97466719254E+01  0.98290647379E+01  0.12700000000E+01 0. -1.
          4   -1    0    0  501    0  0.00000000000E+00 -0.00000000000E+00 -0.39899615436E+03  0.39899817556E+03  0.12700000000E+01 0. -1.
         25    2    1    2    0    0  0.00000000000E+00  0.00000000000E+00 -0.38924948244E+03  0.40882724029E+03  0.12499821130E+03 0.  0.
    9000005    1    3    3    0    0 -0.50058858592E+02 -0.37272486559E+02 -0.20497298650E+03  0.21426631274E+03  0.10000000000E+01 0.  0.
    9000005    1    3    3    0    0  0.50058858592E+02  0.37272486559E+02 -0.18427649593E+03  0.19456092756E+03  0.10000000000E+01 0.  0.
<mgrwt>
<rscale>  0 0.12499821E+03</rscale>
<asrwt>0</asrwt>
<pdfrwt beam="2">  1        4 0.61390504E-01 0.12499821E+03</pdfrwt>
<pdfrwt beam="1">  1       -4 0.15059817E-02 0.12499821E+03</pdfrwt>
<totfact> 0.63705743E+03</totfact>
</mgrwt>
</event>
<event>
 5    1  0.3251953E-002  0.1250005E+03  0.7818608E-02  0.1235068E+00
         -4   -1    0    0    0  501 -0.00000000000E+00  0.00000000000E+00  0.33203216305E+03  0.33203459188E+03  0.12700000000E+01 0.  1.
          4   -1    0    0  501    0  0.00000000000E+00 -0.00000000000E+00 -0.11728017544E+02  0.11796579823E+02  0.12700000000E+01 0.  1.
         25    2    1    2    0    0  0.00000000000E+00  0.00000000000E+00  0.32030414551E+03  0.34383117170E+03  0.12500051600E+03 0.  0.
    9000005    1    3    3    0    0 -0.30188432669E+02  0.52766107856E+02  0.12032205114E+03  0.13481097729E+03  0.10000000000E+01 0.  0.
    9000005    1    3    3    0    0  0.30188432669E+02 -0.52766107856E+02  0.19998209437E+03  0.20902019441E+03  0.10000000000E+01 0.  0.
<mgrwt>
<rscale>  0 0.12500052E+03</rscale>
<asrwt>0</asrwt>
<pdfrwt beam="2">  1        4 0.18097710E-02 0.12500052E+03</pdfrwt>
<pdfrwt beam="1">  1       -4 0.51087338E-01 0.12500052E+03</pdfrwt>
<totfact> 0.70407766E+03</totfact>
</mgrwt>
</event>
<event>
 5    1  0.3251953E-002  0.1250235E+03  0.7818608E-02  0.1235033E+00
         -4   -1    0    0    0  501 -0.00000000000E+00  0.00000000000E+00  0.56246268854E+02  0.56260604867E+02  0.12700000000E+01 0.  1.
          4   -1    0    0  501    0  0.00000000000E+00 -0.00000000000E+00 -0.69446120102E+02  0.69457731731E+02  0.12700000000E+01 0.  1.
         25    2    1    2    0    0  0.00000000000E+00  0.00000000000E+00 -0.13199851248E+02  0.12571833660E+03  0.12502345414E+03 0.  0.
    9000005    1    3    3    0    0 -0.12755228393E+02 -0.35605395441E+01 -0.68024153142E+02  0.69308431694E+02  0.10000000000E+01 0.  0.
    9000005    1    3    3    0    0  0.12755228393E+02  0.35605395441E+01  0.54824301893E+02  0.56409904904E+02  0.10000000000E+01 0.  0.
<mgrwt>
<rscale>  0 0.12502345E+03</rscale>
<asrwt>0</asrwt>
<pdfrwt beam="2">  1        4 0.10686014E-01 0.12502345E+03</pdfrwt>
<pdfrwt beam="1">  1       -4 0.86552681E-02 0.12502345E+03</pdfrwt>
<totfact> 0.10431620E+04</totfact>
</mgrwt>
</event>
<event>
 4    1  0.3251953E-002  0.1251070E+03  0.7818608E-02  0.1234902E+00
          4   -1    0    0  501    0  0.00000000000E+00  0.00000000000E+00  0.17280561294E+02  0.17327166492E+02  0.12700000000E+01 0.  1.
         -4   -1    0    0    0  501 -0.00000000000E+00 -0.00000000000E+00 -0.22608246171E+03  0.22608602874E+03  0.12700000000E+01 0.  1.
    9000005    1    1    2    0    0  0.53960933996E+02  0.24753984049E+02 -0.66106143480E+02  0.88856988076E+02  0.10000000000E+01 0.  0.
    9000005    1    1    2    0    0 -0.53960933996E+02 -0.24753984049E+02 -0.14269575694E+03  0.15455620716E+03  0.10000000000E+01 0.  0.
<mgrwt>
<rscale>  0 0.12510695E+03</rscale>
<asrwt>0</asrwt>
<pdfrwt beam="1">  1        4 0.26624075E-02 0.12510695E+03</pdfrwt>
<pdfrwt beam="2">  1       -4 0.34785774E-01 0.12510695E+03</pdfrwt>
<totfact> 0.83093409E+03</totfact>
</mgrwt>
</event>
<event>
 5    1  0.3251953E-002  0.1249993E+03  0.7818608E-02  0.1235070E+00
          4   -1    0    0  501    0  0.00000000000E+00  0.00000000000E+00  0.77570455034E+02  0.77580850693E+02  0.12700000000E+01 0. -1.
         -4   -1    0    0    0  501 -0.00000000000E+00 -0.00000000000E+00 -0.50335125600E+02  0.50351144666E+02  0.12700000000E+01 0. -1.
         25    2    1    2    0    0  0.00000000000E+00  0.00000000000E+00  0.27235329434E+02  0.12793199536E+03  0.12499932907E+03 0.  0.
    9000005    1    3    3    0    0  0.12629982606E+02  0.60922143126E+02  0.76337766718E+01  0.62692093042E+02  0.10000000000E+01 0.  0.
    9000005    1    3    3    0    0 -0.12629982606E+02 -0.60922143126E+02  0.19601552762E+02  0.65239902317E+02  0.10000000000E+01 0.  0.
<mgrwt>
<rscale>  0 0.12499933E+03</rscale>
<asrwt>0</asrwt>
<pdfrwt beam="1">  1        4 0.11935948E-01 0.12499933E+03</pdfrwt>
<pdfrwt beam="2">  1       -4 0.77458974E-02 0.12499933E+03</pdfrwt>
<totfact> 0.10389114E+04</totfact>
</mgrwt>
</event>
<event>
 5    1  0.3251953E-002  0.1250064E+03  0.7818608E-02  0.1235059E+00
         -4   -1    0    0    0  501 -0.00000000000E+00  0.00000000000E+00  0.17128872921E+03  0.17129343728E+03  0.12700000000E+01 0. -1.
          4   -1    0    0  501    0  0.00000000000E+00 -0.00000000000E+00 -0.22784689448E+02  0.22820056382E+02  0.12700000000E+01 0. -1.
         25    2    1    2    0    0  0.00000000000E+00  0.00000000000E+00  0.14850403976E+03  0.19411349366E+03  0.12500639422E+03 0.  0.
    9000005    1    3    3    0    0  0.28327423713E+02  0.25406643328E+02 -0.27299011710E+01  0.38162715048E+02  0.10000000000E+01 0.  0.
    9000005    1    3    3    0    0 -0.28327423713E+02 -0.25406643328E+02  0.15123394093E+03  0.15595077861E+03  0.10000000000E+01 0.  0.
<mgrwt>
<rscale>  0 0.12500639E+03</rscale>
<asrwt>0</asrwt>
<pdfrwt beam="2">  1        4 0.35084196E-02 0.12500639E+03</pdfrwt>
<pdfrwt beam="1">  1       -4 0.26355194E-01 0.12500639E+03</pdfrwt>
<totfact> 0.91123419E+03</totfact>
</mgrwt>
</event>
<event>
 5    1  0.3251953E-002  0.1249992E+03  0.7818608E-02  0.1235071E+00
         -4   -1    0    0    0  501 -0.00000000000E+00  0.00000000000E+00  0.16583726427E+03  0.16584212710E+03  0.12700000000E+01 0. -1.
          4   -1    0    0  501    0  0.00000000000E+00 -0.00000000000E+00 -0.23532092167E+02  0.23566337471E+02  0.12700000000E+01 0. -1.
         25    2    1    2    0    0  0.00000000000E+00  0.00000000000E+00  0.14230517210E+03  0.18940846457E+03  0.12499921777E+03 0.  0.
    9000005    1    3    3    0    0  0.48785947742E+01  0.60426750981E+02  0.94133311705E+02  0.11196996603E+03  0.10000000000E+01 0.  0.
    9000005    1    3    3    0    0 -0.48785947742E+01 -0.60426750981E+02  0.48171860396E+02  0.77438498534E+02  0.10000000000E+01 0.  0.
<mgrwt>
<rscale>  0 0.12499922E+03</rscale>
<asrwt>0</asrwt>
<pdfrwt beam="2">  1        4 0.36233301E-02 0.12499922E+03</pdfrwt>
<pdfrwt beam="1">  1       -4 0.25516434E-01 0.12499922E+03</pdfrwt>
<totfact> 0.91951952E+03</totfact>
</mgrwt>
</event>
<event>
 5    1  0.3251953E-002  0.1250075E+03  0.7818608E-02  0.1235058E+00
         -4   -1    0    0    0  501 -0.00000000000E+00  0.00000000000E+00  0.67977200362E+03  0.67977318997E+03  0.12700000000E+01 0.  1.
          4   -1    0    0  501    0  0.00000000000E+00 -0.00000000000E+00 -0.56757375558E+01  0.58160894768E+01  0.12700000000E+01 0.  1.
         25    2    1    2    0    0  0.00000000000E+00  0.00000000000E+00  0.67409626606E+03  0.68558927945E+03  0.12500753647E+03 0.  0.
    9000005    1    3    3    0    0 -0.10979774196E+02 -0.33534866803E+02  0.61993699235E+03  0.62094123492E+03  0.10000000000E+01 0.  0.
    9000005    1    3    3    0    0  0.10979774196E+02  0.33534866803E+02  0.54159273709E+02  0.64648044530E+02  0.10000000000E+01 0.  0.
<mgrwt>
<rscale>  0 0.12500754E+03</rscale>
<asrwt>0</asrwt>
<pdfrwt beam="2">  1        4 0.88407845E-03 0.12500754E+03</pdfrwt>
<pdfrwt beam="1">  1       -4 0.10459114E+00 0.12500754E+03</pdfrwt>
<totfact> 0.43851199E+03</totfact>
</mgrwt>
</event>
<event>
 5    1  0.3251953E-002  0.1250006E+03  0.7818608E-02  0.1235068E+00
          4   -1    0    0  501    0  0.00000000000E+00  0.00000000000E+00  0.79349842136E+03  0.79349943768E+03  0.12700000000E+01 0. -1.
         -4   -1    0    0    0  501 -0.00000000000E+00 -0.00000000000E+00 -0.48399241852E+01  0.50037751867E+01  0.12700000000E+01 0. -1.
         25    2    1    2    0    0  0.00000000000E+00  0.00000000000E+00  0.78865849718E+03  0.79850321287E+03  0.12500062318E+03 0.  0.
    9000005    1    3    3    0    0 -0.39554705715E+01 -0.37206004876E+02  0.71407092497E+03  0.71505119987E+03  0.10000000000E+01 0.  0.
    9000005    1    3    3    0    0  0.39554705715E+01  0.37206004876E+02  0.74587572208E+02  0.83452013003E+02  0.10000000000E+01 0.  0.
<mgrwt>
<rscale>  0 0.12500062E+03</rscale>
<asrwt>0</asrwt>
<pdfrwt beam="1">  1        4 0.12208944E+00 0.12500062E+03</pdfrwt>
<pdfrwt beam="2">  1       -4 0.75728531E-03 0.12500062E+03</pdfrwt>
<totfact> 0.38331086E+03</totfact>
</mgrwt>
</event>
<event>
 5    1  0.3251953E-002  0.1249993E+03  0.7818608E-02  0.1235070E+00
         -4   -1    0    0    0  501 -0.00000000000E+00  0.00000000000E+00  0.41686993052E+03  0.41687186506E+03  0.12700000000E+01 0.  1.
          4   -1    0    0  501    0  0.00000000000E+00 -0.00000000000E+00 -0.93253209306E+01  0.94114032142E+01  0.12700000000E+01 0.  1.
         25    2    1    2    0    0  0.00000000000E+00  0.00000000000E+00  0.40754460959E+03  0.42628326827E+03  0.12499926399E+03 0.  0.
    9000005    1    3    3    0    0  0.57718211102E+02  0.84363516832E+01  0.28022968054E+03  0.28623807884E+03  0.10000000000E+01 0.  0.
    9000005    1    3    3    0    0 -0.57718211102E+02 -0.84363516832E+01  0.12731492905E+03  0.14004518943E+03  0.10000000000E+01 0.  0.
<mgrwt>
<rscale>  0 0.12499926E+03</rscale>
<asrwt>0</asrwt>
<pdfrwt beam="2">  1        4 0.14414351E-02 0.12499926E+03</pdfrwt>
<pdfrwt beam="1">  1       -4 0.64140616E-01 0.12499926E+03</pdfrwt>
<totfact> 0.62075341E+03</totfact>
</mgrwt>
</event>
<event>
 5    1  0.3251953E-002  0.1250018E+03  0.7818608E-02  0.1235066E+00
          4   -1    0    0  501    0  0.00000000000E+00  0.00000000000E+00  0.52461906769E+02  0.52477276624E+02  0.12700000000E+01 0.  1.
         -4   -1    0    0    0  501 -0.00000000000E+00 -0.00000000000E+00 -0.74429256640E+02  0.74440090972E+02  0.12700000000E+01 0.  1.
         25    2    1    2    0    0  0.00000000000E+00  0.00000000000E+00 -0.21967349871E+02  0.12691736760E+03  0.12500181494E+03 0.  0.
    9000005    1    3    3    0    0  0.11198155787E+02  0.39908298000E+02 -0.58468863639E+02  0.71677604295E+02  0.10000000000E+01 0.  0.
    9000005    1    3    3    0    0 -0.11198155787E+02 -0.39908298000E+02  0.36501513768E+02  0.55239763302E+02  0.10000000000E+01 0.  0.
<mgrwt>
<rscale>  0 0.12500181E+03</rscale>
<asrwt>0</asrwt>
<pdfrwt beam="1">  1        4 0.80730783E-02 0.12500181E+03</pdfrwt>
<pdfrwt beam="2">  1       -4 0.11452671E-01 0.12500181E+03</pdfrwt>
<totfact> 0.10410515E+04</totfact>
</mgrwt>
</event>
<event>
 5    1  0.3251953E-002  0.1249981E+03  0.7818608E-02  0.1235072E+00
          4   -1    0    0  501    0  0.00000000000E+00  0.00000000000E+00  0.36114308721E+02  0.36136632305E+02  0.12700000000E+01 0. -1.
         -4   -1    0    0    0  501 -0.00000000000E+00 -0.00000000000E+00 -0.10810079816E+03  0.10810825807E+03  0.12700000000E+01 0. -1.
         25    2    1    2    0    0  0.00000000000E+00  0.00000000000E+00 -0.71986489444E+02  0.14424489038E+03  0.12499813494E+03 0.  0.
    9000005    1    3    3    0    0 -0.13980150904E+02 -0.32133202343E+02 -0.95701302311E+02  0.10192019710E+03  0.10000000000E+01 0.  0.
    9000005    1    3    3    0    0  0.13980150904E+02  0.32133202343E+02  0.23714812868E+02  0.42324693283E+02  0.10000000000E+01 0.  0.
<mgrwt>
<rscale>  0 0.12499813E+03</rscale>
<asrwt>0</asrwt>
<pdfrwt beam="1">  1        4 0.55583386E-02 0.12499813E+03</pdfrwt>
<pdfrwt beam="2">  1       -4 0.16633183E-01 0.12499813E+03</pdfrwt>
<totfact> 0.10046775E+04</totfact>
</mgrwt>
</event>
<event>
 5    1  0.3251953E-002  0.1249995E+03  0.7818608E-02  0.1235070E+00
         -4   -1    0    0    0  501 -0.00000000000E+00  0.00000000000E+00  0.42897708532E+02  0.42916503787E+02  0.12700000000E+01 0.  1.
          4   -1    0    0  501    0  0.00000000000E+00 -0.00000000000E+00 -0.91015723834E+02  0.91024583959E+02  0.12700000000E+01 0.  1.
         25    2    1    2    0    0  0.00000000000E+00  0.00000000000E+00 -0.48118015302E+02  0.13394108775E+03  0.12499948636E+03 0.  0.
    9000005    1    3    3    0    0  0.23887949002E+02 -0.15618918244E+02 -0.83629244205E+02  0.88371008826E+02  0.10000000000E+01 0.  0.
    9000005    1    3    3    0    0 -0.23887949002E+02  0.15618918244E+02  0.35511228904E+02  0.45570078921E+02  0.10000000000E+01 0.  0.
<mgrwt>
<rscale>  0 0.12499949E+03</rscale>
<asrwt>0</asrwt>
<pdfrwt beam="2">  1        4 0.14004546E-01 0.12499949E+03</pdfrwt>
<pdfrwt beam="1">  1       -4 0.66017748E-02 0.12499949E+03</pdfrwt>
<totfact> 0.10260557E+04</totfact>
</mgrwt>
</event>
<event>
 5    1  0.3251953E-002  0.1249977E+03  0.7818608E-02  0.1235073E+00
          4   -1    0    0  501    0  0.00000000000E+00  0.00000000000E+00  0.55755040700E+02  0.55769502988E+02  0.12700000000E+01 0.  1.
         -4   -1    0    0    0  501 -0.00000000000E+00 -0.00000000000E+00 -0.70029003266E+02  0.70040518262E+02  0.12700000000E+01 0.  1.
         25    2    1    2    0    0  0.00000000000E+00  0.00000000000E+00 -0.14273962566E+02  0.12581002125E+03  0.12499766174E+03 0.  0.
    9000005    1    3    3    0    0 -0.23051429794E+02 -0.58016419335E+02 -0.99534762448E+01  0.63224560238E+02  0.10000000000E+01 0.  0.
    9000005    1    3    3    0    0  0.23051429794E+02  0.58016419335E+02 -0.43204863209E+01  0.62585461012E+02  0.10000000000E+01 0.  0.
<mgrwt>
<rscale>  0 0.12499766E+03</rscale>
<asrwt>0</asrwt>
<pdfrwt beam="1">  1        4 0.85796968E-02 0.12499766E+03</pdfrwt>
<pdfrwt beam="2">  1       -4 0.10775691E-01 0.12499766E+03</pdfrwt>
<totfact> 0.10435676E+04</totfact>
</mgrwt>
</event>
<event>
 5    1  0.3251953E-002  0.1249984E+03  0.7818608E-02  0.1235072E+00
         -4   -1    0    0    0  501 -0.00000000000E+00  0.00000000000E+00  0.46087709543E+02  0.46105204380E+02  0.12700000000E+01 0. -1.
          4   -1    0    0  501    0  0.00000000000E+00 -0.00000000000E+00 -0.84716361555E+02  0.84725880433E+02  0.12700000000E+01 0. -1.
         25    2    1    2    0    0  0.00000000000E+00  0.00000000000E+00 -0.38628652012E+02  0.13083108481E+03  0.12499839998E+03 0.  0.
    9000005    1    3    3    0    0 -0.28797974303E+02  0.55337041720E+02 -0.15448968941E+02  0.64274272859E+02  0.10000000000E+01 0.  0.
    9000005    1    3    3    0    0  0.28797974303E+02 -0.55337041720E+02 -0.23179683071E+02  0.66556811954E+02  0.10000000000E+01 0.  0.
<mgrwt>
<rscale>  0 0.12499840E+03</rscale>
<asrwt>0</asrwt>
<pdfrwt beam="2">  1        4 0.13035364E-01 0.12499840E+03</pdfrwt>
<pdfrwt beam="1">  1       -4 0.70924948E-02 0.12499840E+03</pdfrwt>
<totfact> 0.10327085E+04</totfact>
</mgrwt>
</event>
<event>
 5    1  0.3251953E-002  0.1250067E+03  0.7818608E-02  0.1235059E+00
         -4   -1    0    0    0  501 -0.00000000000E+00  0.00000000000E+00  0.41206654486E+02  0.41226220709E+02  0.12700000000E+01 0. -1.
          4   -1    0    0  501    0  0.00000000000E+00 -0.00000000000E+00 -0.94760438185E+02  0.94768948211E+02  0.12700000000E+01 0. -1.
         25    2    1    2    0    0  0.00000000000E+00  0.00000000000E+00 -0.53553783698E+02  0.13599516892E+03  0.12500671270E+03 0.  0.
    9000005    1    3    3    0    0  0.31417093654E+01 -0.52036205499E+02 -0.64274564478E+02  0.82763860829E+02  0.10000000000E+01 0.  0.
    9000005    1    3    3    0    0 -0.31417093654E+01  0.52036205499E+02  0.10720780780E+02  0.53231308090E+02  0.10000000000E+01 0.  0.
<mgrwt>
<rscale>  0 0.12500671E+03</rscale>
<asrwt>0</asrwt>
<pdfrwt beam="2">  1        4 0.14580689E-01 0.12500671E+03</pdfrwt>
<pdfrwt beam="1">  1       -4 0.63416450E-02 0.12500671E+03</pdfrwt>
<totfact> 0.10215591E+04</totfact>
</mgrwt>
</event>
<event>
 5    1  0.3251953E-002  0.1250154E+03  0.7818608E-02  0.1235045E+00
          4   -1    0    0  501    0  0.00000000000E+00  0.00000000000E+00  0.13939000133E+03  0.13939578678E+03  0.12700000000E+01 0.  1.
         -4   -1    0    0    0  501 -0.00000000000E+00 -0.00000000000E+00 -0.28010049145E+02  0.28038825816E+02  0.12700000000E+01 0.  1.
         25    2    1    2    0    0  0.00000000000E+00  0.00000000000E+00  0.11137995219E+03  0.16743461260E+03  0.12501542203E+03 0.  0.
    9000005    1    3    3    0    0 -0.31496883956E+02 -0.50861397956E+02  0.31460705209E+02  0.67599641073E+02  0.10000000000E+01 0.  0.
    9000005    1    3    3    0    0  0.31496883956E+02  0.50861397956E+02  0.79919246981E+02  0.99834971523E+02  0.10000000000E+01 0.  0.
<mgrwt>
<rscale>  0 0.12501542E+03</rscale>
<asrwt>0</asrwt>
<pdfrwt beam="1">  1        4 0.21447274E-01 0.12501542E+03</pdfrwt>
<pdfrwt beam="2">  1       -4 0.43118970E-02 0.12501542E+03</pdfrwt>
<totfact> 0.95895074E+03</totfact>
</mgrwt>
</event>
<event>
 5    1  0.3251953E-002  0.1249981E+03  0.7818608E-02  0.1235072E+00
          4   -1    0    0  501    0  0.00000000000E+00  0.00000000000E+00  0.59854489610E+01  0.61187007824E+01  0.12700000000E+01 0. -1.
         -4   -1    0    0    0  501 -0.00000000000E+00 -0.00000000000E+00 -0.64528662748E+03  0.64528787723E+03  0.12700000000E+01 0. -1.
         25    2    1    2    0    0  0.00000000000E+00  0.00000000000E+00 -0.63930117851E+03  0.65140657801E+03  0.12499813209E+03 0.  0.
    9000005    1    3    3    0    0  0.17744898375E+02 -0.14042825272E+02 -0.62321007174E+03  0.62362158067E+03  0.10000000000E+01 0.  0.
    9000005    1    3    3    0    0 -0.17744898375E+02  0.14042825272E+02 -0.16091106773E+02  0.27784997339E+02  0.10000000000E+01 0.  0.
<mgrwt>
<rscale>  0 0.12499813E+03</rscale>
<asrwt>0</asrwt>
<pdfrwt beam="1">  1        4 0.93118509E-03 0.12499813E+03</pdfrwt>
<pdfrwt beam="2">  1       -4 0.99285158E-01 0.12499813E+03</pdfrwt>
<totfact> 0.45777244E+03</totfact>
</mgrwt>
</event>
<event>
 5    1  0.3251953E-002  0.1249963E+03  0.7818608E-02  0.1235075E+00
         -4   -1    0    0    0  501 -0.00000000000E+00  0.00000000000E+00  0.74185851905E+03  0.74185960612E+03  0.12700000000E+01 0. -1.
          4   -1    0    0  501    0  0.00000000000E+00 -0.00000000000E+00 -0.51874925081E+01  0.53406908281E+01  0.12700000000E+01 0. -1.
         25    2    1    2    0    0  0.00000000000E+00  0.00000000000E+00  0.73667102654E+03  0.74720029694E+03  0.12499632958E+03 0.  0.
    9000005    1    3    3    0    0 -0.48369286695E+01  0.81237373780E+01 -0.91650752623E+00  0.95514906683E+01  0.10000000000E+01 0.  0.
    9000005    1    3    3    0    0  0.48369286695E+01 -0.81237373780E+01  0.73758753407E+03  0.73764880628E+03  0.10000000000E+01 0.  0.
<mgrwt>
<rscale>  0 0.12499633E+03</rscale>
<asrwt>0</asrwt>
<pdfrwt beam="2">  1        4 0.80994325E-03 0.12499633E+03</pdfrwt>
<pdfrwt beam="1">  1       -4 0.11414404E+00 0.12499633E+03</pdfrwt>
<totfact> 0.40711642E+03</totfact>
</mgrwt>
</event>
<event>
 4    1  0.3251953E-002  0.1257795E+03  0.7818608E-02  0.1233856E+00
         -4   -1    0    0    0  501 -0.00000000000E+00  0.00000000000E+00  0.43534717320E+03  0.43534902563E+03  0.12700000000E+01 0. -1.
          4   -1    0    0  501    0  0.00000000000E+00 -0.00000000000E+00 -0.90387230806E+01  0.91275086922E+01  0.12700000000E+01 0. -1.
    9000005    1    1    2    0    0  0.33550532103E+02 -0.48472373824E+02  0.13582070151E+03  0.14806576980E+03  0.10000000000E+01 0.  0.
    9000005    1    1    2    0    0 -0.33550532103E+02  0.48472373824E+02  0.29048774861E+03  0.29641076452E+03  0.10000000000E+01 0.  0.
<mgrwt>
<rscale>  0 0.12577955E+03</rscale>
<asrwt>0</asrwt>
<pdfrwt beam="2">  1        4 0.13975449E-02 0.12577955E+03</pdfrwt>
<pdfrwt beam="1">  1       -4 0.66983461E-01 0.12577955E+03</pdfrwt>
<totfact> 0.59418702E+03</totfact>
</mgrwt>
</event>
<event>
 5    1  0.3251953E-002  0.1249986E+03  0.7818608E-02  0.1235072E+00
          4   -1    0    0  501    0  0.00000000000E+00  0.00000000000E+00  0.33823567815E+03  0.33823806242E+03  0.12700000000E+01 0.  1.
         -4   -1    0    0    0  501 -0.00000000000E+00 -0.00000000000E+00 -0.11511285104E+02  0.11581130547E+02  0.12700000000E+01 0.  1.
         25    2    1    2    0    0  0.00000000000E+00  0.00000000000E+00  0.32672439304E+03  0.34981919297E+03  0.12499855503E+03 0.  0.
    9000005    1    3    3    0    0  0.53400820205E+02  0.28012179022E+02  0.20924790490E+03  0.21776596492E+03  0.10000000000E+01 0.  0.
    9000005    1    3    3    0    0 -0.53400820205E+02 -0.28012179022E+02  0.11747648815E+03  0.13205322806E+03  0.10000000000E+01 0.  0.
<mgrwt>
<rscale>  0 0.12499856E+03</rscale>
<asrwt>0</asrwt>
<pdfrwt beam="1">  1        4 0.52041809E-01 0.12499856E+03</pdfrwt>
<pdfrwt beam="2">  1       -4 0.17765233E-02 0.12499856E+03</pdfrwt>
<totfact> 0.69746684E+03</totfact>
</mgrwt>
</event>
<event>
 5    1  0.3251953E-002  0.1250035E+03  0.7818608E-02  0.1235064E+00
          4   -1    0    0  501    0  0.00000000000E+00  0.00000000000E+00  0.36611683328E+02  0.36633703828E+02  0.12700000000E+01 0. -1.
         -4   -1    0    0    0  501 -0.00000000000E+00 -0.00000000000E+00 -0.10664216026E+03  0.10664972220E+03  0.12700000000E+01 0. -1.
         25    2    1    2    0    0  0.00000000000E+00  0.00000000000E+00 -0.70030476930E+02  0.14328342602E+03  0.12500348985E+03 0.  0.
    9000005    1    3    3    0    0 -0.27563642782E+02 -0.50360850796E+02 -0.67169537143E+01  0.57810787605E+02  0.10000000000E+01 0.  0.
    9000005    1    3    3    0    0  0.27563642782E+02  0.50360850796E+02 -0.63313523215E+02  0.85472638419E+02  0.10000000000E+01 0.  0.
<mgrwt>
<rscale>  0 0.12500349E+03</rscale>
<asrwt>0</asrwt>
<pdfrwt beam="1">  1        4 0.56348423E-02 0.12500349E+03</pdfrwt>
<pdfrwt beam="2">  1       -4 0.16408762E-01 0.12500349E+03</pdfrwt>
<totfact> 0.10065191E+04</totfact>
</mgrwt>
</event>
<event>
 5    1  0.3251953E-002  0.1250017E+03  0.7818608E-02  0.1235067E+00
          4   -1    0    0  501    0  0.00000000000E+00  0.00000000000E+00  0.43380480786E+01  0.45201284420E+01  0.12700000000E+01 0.  1.
         -4   -1    0    0    0  501 -0.00000000000E+00 -0.00000000000E+00 -0.88179442295E+03  0.88179533751E+03  0.12700000000E+01 0.  1.
         25    2    1    2    0    0  0.00000000000E+00  0.00000000000E+00 -0.87745637487E+03  0.88631546595E+03  0.12500166149E+03 0.  0.
    9000005    1    3    3    0    0  0.65030534500E+01  0.58523798711E+02 -0.29033155841E+03  0.29624438987E+03  0.10000000000E+01 0.  0.
    9000005    1    3    3    0    0 -0.65030534500E+01 -0.58523798711E+02 -0.58712481647E+03  0.59007107608E+03  0.10000000000E+01 0.  0.
<mgrwt>
<rscale>  0 0.12500166E+03</rscale>
<asrwt>0</asrwt>
<pdfrwt beam="1">  1        4 0.68146925E-03 0.12500166E+03</pdfrwt>
<pdfrwt beam="2">  1       -4 0.13567462E+00 0.12500166E+03</pdfrwt>
<totfact> 0.34684311E+03</totfact>
</mgrwt>
</event>
<event>
 5    1  0.3251953E-002  0.1249959E+03  0.7818608E-02  0.1235076E+00
         -4   -1    0    0    0  501 -0.00000000000E+00  0.00000000000E+00  0.53900821703E+03  0.53900971320E+03  0.12700000000E+01 0.  1.
          4   -1    0    0  501    0  0.00000000000E+00 -0.00000000000E+00 -0.71894701819E+01  0.73007795129E+01  0.12700000000E+01 0.  1.
         25    2    1    2    0    0  0.00000000000E+00  0.00000000000E+00  0.53181874685E+03  0.54631049271E+03  0.12499589974E+03 0.  0.
    9000005    1    3    3    0    0 -0.58485972852E+02 -0.15228050229E+02  0.19646022879E+03  0.20554834962E+03  0.10000000000E+01 0.  0.
    9000005    1    3    3    0    0  0.58485972852E+02  0.15228050229E+02  0.33535851805E+03  0.34076214309E+03  0.10000000000E+01 0.  0.
<mgrwt>
<rscale>  0 0.12499590E+03</rscale>
<asrwt>0</asrwt>
<pdfrwt beam="2">  1        4 0.11147497E-02 0.12499590E+03</pdfrwt>
<pdfrwt beam="1">  1       -4 0.82933017E-01 0.12499590E+03</pdfrwt>
<totfact> 0.52446865E+03</totfact>
</mgrwt>
</event>
<event>
 5    1  0.3251953E-002  0.1249890E+03  0.7818608E-02  0.1235086E+00
         -4   -1    0    0    0  501 -0.00000000000E+00  0.00000000000E+00  0.21521796984E+03  0.21522171694E+03  0.12700000000E+01 0. -1.
          4   -1    0    0  501    0  0.00000000000E+00 -0.00000000000E+00 -0.18120891500E+02  0.18165340865E+02  0.12700000000E+01 0. -1.
         25    2    1    2    0    0  0.00000000000E+00  0.00000000000E+00  0.19709707834E+03  0.23338705781E+03  0.12498904136E+03 0.  0.
    9000005    1    3    3    0    0 -0.12551280208E+02 -0.58943666512E+02  0.67714727120E+02  0.90654148971E+02  0.10000000000E+01 0.  0.
    9000005    1    3    3    0    0  0.12551280208E+02  0.58943666512E+02  0.12938235122E+03  0.14273290883E+03  0.10000000000E+01 0.  0.
<mgrwt>
<rscale>  0 0.12498904E+03</rscale>
<asrwt>0</asrwt>
<pdfrwt beam="2">  1        4 0.27915369E-02 0.12498904E+03</pdfrwt>
<pdfrwt beam="1">  1       -4 0.33114164E-01 0.12498904E+03</pdfrwt>
<totfact> 0.84812939E+03</totfact>
</mgrwt>
</event>
<event>
 5    1  0.3251953E-002  0.1249985E+03  0.7818608E-02  0.1235072E+00
          4   -1    0    0  501    0  0.00000000000E+00  0.00000000000E+00  0.50222714777E+03  0.50222875352E+03  0.12700000000E+01 0.  1.
         -4   -1    0    0    0  501 -0.00000000000E+00 -0.00000000000E+00 -0.77242005572E+01  0.78279099540E+01  0.12700000000E+01 0.  1.
         25    2    1    2    0    0  0.00000000000E+00  0.00000000000E+00  0.49450294721E+03  0.51005666347E+03  0.12499854058E+03 0.  0.
    9000005    1    3    3    0    0 -0.17442095260E+02 -0.54964933086E+02  0.14899793945E+03  0.15977095017E+03  0.10000000000E+01 0.  0.
    9000005    1    3    3    0    0  0.17442095260E+02  0.54964933086E+02  0.34550500776E+03  0.35028571330E+03  0.10000000000E+01 0.  0.
<mgrwt>
<rscale>  0 0.12499854E+03</rscale>
<asrwt>0</asrwt>
<pdfrwt beam="1">  1        4 0.77273853E-01 0.12499854E+03</pdfrwt>
<pdfrwt beam="2">  1       -4 0.11964391E-02 0.12499854E+03</pdfrwt>
<totfact> 0.55094197E+03</totfact>
</mgrwt>
</event>
<event>
 5    1  0.3251953E-002  0.1249982E+03  0.7818608E-02  0.1235072E+00
         -4   -1    0    0    0  501 -0.00000000000E+00  0.00000000000E+00  0.14770905208E+03  0.14771451170E+03  0.12700000000E+01 0. -1.
          4   -1    0    0  501    0  0.00000000000E+00 -0.00000000000E+00 -0.26423608422E+02  0.26454110872E+02  0.12700000000E+01 0. -1.
         25    2    1    2    0    0  0.00000000000E+00  0.00000000000E+00  0.12128544366E+03  0.17416862257E+03  0.12499820097E+03 0.  0.
    9000005    1    3    3    0    0 -0.52716922922E+02 -0.24776225323E+01  0.10727220712E+03  0.11955558957E+03  0.10000000000E+01 0.  0.
    9000005    1    3    3    0    0  0.52716922922E+02  0.24776225323E+01  0.14013236537E+02  0.54613033005E+02  0.10000000000E+01 0.  0.
<mgrwt>
<rscale>  0 0.12499820E+03</rscale>
<asrwt>0</asrwt>
<pdfrwt beam="2">  1        4 0.40679369E-02 0.12499820E+03</pdfrwt>
<pdfrwt beam="1">  1       -4 0.22727236E-01 0.12499820E+03</pdfrwt>
<totfact> 0.94681148E+03</totfact>
</mgrwt>
</event>
<event>
 5    1  0.3251953E-002  0.1249990E+03  0.7818608E-02  0.1235071E+00
          4   -1    0    0  501    0  0.00000000000E+00  0.00000000000E+00  0.27028690825E+02  0.27058511188E+02  0.12700000000E+01 0. -1.
         -4   -1    0    0    0  501 -0.00000000000E+00 -0.00000000000E+00 -0.14440778226E+03  0.14441336668E+03  0.12700000000E+01 0. -1.
         25    2    1    2    0    0  0.00000000000E+00  0.00000000000E+00 -0.11737909143E+03  0.17147187787E+03  0.12499901518E+03 0.  0.
    9000005    1    3    3    0    0  0.33304102283E+02 -0.46170876069E+02 -0.94045324259E+02  0.10993832835E+03  0.10000000000E+01 0.  0.
    9000005    1    3    3    0    0 -0.33304102283E+02  0.46170876069E+02 -0.23333767173E+02  0.61533549519E+02  0.10000000000E+01 0.  0.
<mgrwt>
<rscale>  0 0.12499902E+03</rscale>
<asrwt>0</asrwt>
<pdfrwt beam="1">  1        4 0.41609837E-02 0.12499902E+03</pdfrwt>
<pdfrwt beam="2">  1       -4 0.22219305E-01 0.12499902E+03</pdfrwt>
<totfact> 0.95177112E+03</totfact>
</mgrwt>
</event>
<event>
 4    1  0.3251953E-002  0.1249215E+03  0.7818608E-02  0.1235192E+00
          4   -1    0    0  501    0  0.00000000000E+00  0.00000000000E+00  0.30753780460E+02  0.30779992083E+02  0.12700000000E+01 0.  1.
         -4   -1    0    0    0  501 -0.00000000000E+00 -0.00000000000E+00 -0.12677403496E+03  0.12678039611E+03  0.12700000000E+01 0.  1.
    9000005    1    1    2    0    0  0.13713425796E+02  0.57248250989E+02 -0.74313876033E+02  0.94810191748E+02  0.10000000000E+01 0.  0.
    9000005    1    1    2    0    0 -0.13713425796E+02 -0.57248250989E+02 -0.21706378462E+02  0.62750196448E+02  0.10000000000E+01 0.  0.
<mgrwt>
<rscale>  0 0.12492152E+03</rscale>
<asrwt>0</asrwt>
<pdfrwt beam="1">  1        4 0.47338565E-02 0.12492152E+03</pdfrwt>
<pdfrwt beam="2">  1       -4 0.19506203E-01 0.12492152E+03</pdfrwt>
<totfact> 0.97987986E+03</totfact>
</mgrwt>
</event>
<event>
 5    1  0.3251953E-002  0.1250002E+03  0.7818608E-02  0.1235069E+00
          4   -1    0    0  501    0  0.00000000000E+00  0.00000000000E+00  0.13659945935E+03  0.13660536298E+03  0.12700000000E+01 0. -1.
         -4   -1    0    0    0  501 -0.00000000000E+00 -0.00000000000E+00 -0.28575858608E+02  0.28604066060E+02  0.12700000000E+01 0. -1.
         25    2    1    2    0    0  0.00000000000E+00  0.00000000000E+00  0.10802360075E+03  0.16520942904E+03  0.12500022851E+03 0.  0.
    9000005    1    3    3    0    0 -0.27188831136E+02 -0.56238954158E+02  0.56380428102E+02  0.84153462057E+02  0.10000000000E+01 0.  0.
    9000005    1    3    3    0    0  0.27188831136E+02  0.56238954158E+02  0.51643172644E+02  0.81055966986E+02  0.10000000000E+01 0.  0.
<mgrwt>
<rscale>  0 0.12500023E+03</rscale>
<asrwt>0</asrwt>
<pdfrwt beam="1">  1        4 0.21017925E-01 0.12500023E+03</pdfrwt>
<pdfrwt beam="2">  1       -4 0.43989099E-02 0.12500023E+03</pdfrwt>
<totfact> 0.96347250E+03</totfact>
</mgrwt>
</event>
<event>
 5    1  0.3251953E-002  0.1250014E+03  0.7818608E-02  0.1235067E+00
          4   -1    0    0  501    0  0.00000000000E+00  0.00000000000E+00  0.10216325364E+04  0.10216333257E+04  0.12700000000E+01 0. -1.
         -4   -1    0    0    0  501 -0.00000000000E+00 -0.00000000000E+00 -0.37173535860E+01  0.39283097744E+01  0.12700000000E+01 0. -1.
         25    2    1    2    0    0  0.00000000000E+00  0.00000000000E+00  0.10179151828E+04  0.10255616355E+04  0.12500139561E+03 0.  0.
    9000005    1    3    3    0    0 -0.59797391989E+02  0.73806340443E+01  0.64504568283E+03  0.64785425428E+03  0.10000000000E+01 0.  0.
    9000005    1    3    3    0    0  0.59797391989E+02 -0.73806340443E+01  0.37286949994E+03  0.37770738123E+03  0.10000000000E+01 0.  0.
<mgrwt>
<rscale>  0 0.12500140E+03</rscale>
<asrwt>0</asrwt>
<pdfrwt beam="1">  1        4 0.15719042E+00 0.12500140E+03</pdfrwt>
<pdfrwt beam="2">  1       -4 0.58818906E-03 0.12500140E+03</pdfrwt>
<totfact> 0.29769374E+03</totfact>
</mgrwt>
</event>
<event>
 5    1  0.3251953E-002  0.1249982E+03  0.7818608E-02  0.1235072E+00
         -4   -1    0    0    0  501 -0.00000000000E+00  0.00000000000E+00  0.79657610320E+02  0.79667733631E+02  0.12700000000E+01 0.  1.
          4   -1    0    0  501    0  0.00000000000E+00 -0.00000000000E+00 -0.49015127789E+02  0.49031578112E+02  0.12700000000E+01 0.  1.
         25    2    1    2    0    0  0.00000000000E+00  0.00000000000E+00  0.30642482531E+02  0.12869931174E+03  0.12499820442E+03 0.  0.
    9000005    1    3    3    0    0 -0.24730376788E+02  0.46402686963E+02  0.50089987935E+02  0.72627871955E+02  0.10000000000E+01 0.  0.
    9000005    1    3    3    0    0  0.24730376788E+02 -0.46402686963E+02 -0.19447505404E+02  0.56071439788E+02  0.10000000000E+01 0.  0.
<mgrwt>
<rscale>  0 0.12499820E+03</rscale>
<asrwt>0</asrwt>
<pdfrwt beam="2">  1        4 0.75428332E-02 0.12499820E+03</pdfrwt>
<pdfrwt beam="1">  1       -4 0.12257061E-01 0.12499820E+03</pdfrwt>
<totfact> 0.10372833E+04</totfact>
</mgrwt>
</event>
<event>
 5    1  0.3251953E-002  0.1250104E+03  0.7818608E-02  0.1235053E+00
          4   -1    0    0  501    0  0.00000000000E+00  0.00000000000E+00  0.40482387897E+02  0.40502304007E+02  0.12700000000E+01 0.  1.
         -4   -1    0    0    0  501 -0.00000000000E+00 -0.00000000000E+00 -0.96460747765E+02  0.96469107798E+02  0.12700000000E+01 0.  1.
         25    2    1    2    0    0  0.00000000000E+00  0.00000000000E+00 -0.55978359868E+02  0.13697141181E+03  0.12501036308E+03 0.  0.
    9000005    1    3    3    0    0 -0.20310679293E+02  0.28106815130E+02  0.28979681751E+02  0.45203304132E+02  0.10000000000E+01 0.  0.
    9000005    1    3    3    0    0  0.20310679293E+02 -0.28106815130E+02 -0.84958041619E+02  0.91768107673E+02  0.10000000000E+01 0.  0.
<mgrwt>
<rscale>  0 0.12501036E+03</rscale>
<asrwt>0</asrwt>
<pdfrwt beam="1">  1        4 0.62302348E-02 0.12501036E+03</pdfrwt>
<pdfrwt beam="2">  1       -4 0.14842290E-01 0.12501036E+03</pdfrwt>
<totfact> 0.10194301E+04</totfact>
</mgrwt>
</event>
<event>
 5    1  0.3251953E-002  0.1250021E+03  0.7818608E-02  0.1235066E+00
          4   -1    0    0  501    0  0.00000000000E+00  0.00000000000E+00  0.19452280267E+02  0.19493694047E+02  0.12700000000E+01 0. -1.
         -4   -1    0    0    0  501 -0.00000000000E+00 -0.00000000000E+00 -0.20056179664E+03  0.20056581755E+03  0.12700000000E+01 0. -1.
         25    2    1    2    0    0  0.00000000000E+00  0.00000000000E+00 -0.18110951637E+03  0.22005951160E+03  0.12500212688E+03 0.  0.
    9000005    1    3    3    0    0  0.16690463673E+02  0.51708343909E+02 -0.14490262810E+03  0.15475818569E+03  0.10000000000E+01 0.  0.
    9000005    1    3    3    0    0 -0.16690463673E+02 -0.51708343909E+02 -0.36206888270E+02  0.65301325910E+02  0.10000000000E+01 0.  0.
<mgrwt>
<rscale>  0 0.12500213E+03</rscale>
<asrwt>0</asrwt>
<pdfrwt beam="1">  1        4 0.29961536E-02 0.12500213E+03</pdfrwt>
<pdfrwt beam="2">  1       -4 0.30859155E-01 0.12500213E+03</pdfrwt>
<totfact> 0.86854808E+03</totfact>
</mgrwt>
</event>
<event>
 5    1  0.3251953E-002  0.1249930E+03  0.7818608E-02  0.1235080E+00
          4   -1    0    0  501    0  0.00000000000E+00  0.00000000000E+00  0.22701468067E+02  0.22736964450E+02  0.12700000000E+01 0. -1.
         -4   -1    0    0    0  501 -0.00000000000E+00 -0.00000000000E+00 -0.17187876522E+03  0.17188345713E+03  0.12700000000E+01 0. -1.
         25    2    1    2    0    0  0.00000000000E+00  0.00000000000E+00 -0.14917729715E+03  0.19462042158E+03  0.12499296984E+03 0.  0.
    9000005    1    3    3    0    0 -0.28770036161E+02 -0.16236697333E+02  0.80006169620E+01  0.34005223022E+02  0.10000000000E+01 0.  0.
    9000005    1    3    3    0    0  0.28770036161E+02  0.16236697333E+02 -0.15717791412E+03  0.16061519856E+03  0.10000000000E+01 0.  0.
<mgrwt>
<rscale>  0 0.12499297E+03</rscale>
<asrwt>0</asrwt>
<pdfrwt beam="1">  1        4 0.34956251E-02 0.12499297E+03</pdfrwt>
<pdfrwt beam="2">  1       -4 0.26445978E-01 0.12499297E+03</pdfrwt>
<totfact> 0.91063867E+03</totfact>
</mgrwt>
</event>
<event>
 5    1  0.3251953E-002  0.1249990E+03  0.7818608E-02  0.1235071E+00
         -4   -1    0    0    0  501 -0.00000000000E+00  0.00000000000E+00  0.94177478098E+01  0.95029928869E+01  0.12700000000E+01 0.  1.
          4   -1    0    0  501    0  0.00000000000E+00 -0.00000000000E+00 -0.41281373572E+03  0.41281568926E+03  0.12700000000E+01 0.  1.
         25    2    1    2    0    0  0.00000000000E+00  0.00000000000E+00 -0.40339598791E+03  0.42231868214E+03  0.12499898491E+03 0.  0.
    9000005    1    3    3    0    0  0.15906767202E+02 -0.50896913529E+02 -0.31178287093E+03  0.31631168119E+03  0.10000000000E+01 0.  0.
    9000005    1    3    3    0    0 -0.15906767202E+02  0.50896913529E+02 -0.91613116973E+02  0.10600700095E+03  0.10000000000E+01 0.  0.
<mgrwt>
<rscale>  0 0.12499898E+03</rscale>
<asrwt>0</asrwt>
<pdfrwt beam="2">  1        4 0.63516499E-01 0.12499898E+03</pdfrwt>
<pdfrwt beam="1">  1       -4 0.14555922E-02 0.12499898E+03</pdfrwt>
<totfact> 0.62439885E+03</totfact>
</mgrwt>
</event>
<event>
 5    1  0.3251953E-002  0.1249905E+03  0.7818608E-02  0.1235084E+00
          4   -1    0    0  501    0  0.00000000000E+00  0.00000000000E+00  0.25428697230E+03  0.25429014370E+03  0.12700000000E+01 0. -1.
         -4   -1    0    0    0  501 -0.00000000000E+00 -0.00000000000E+00 -0.15329709486E+02  0.15382226527E+02  0.12700000000E+01 0. -1.
         25    2    1    2    0    0  0.00000000000E+00  0.00000000000E+00  0.23895726281E+03  0.26967237022E+03  0.12499045488E+03 0.  0.
    9000005    1    3    3    0    0  0.15437829923E+01 -0.59393264525E+02  0.77714117753E+02  0.97828560425E+02  0.10000000000E+01 0.  0.
    9000005    1    3    3    0    0 -0.15437829923E+01  0.59393264525E+02  0.16124314506E+03  0.17184380980E+03  0.10000000000E+01 0.  0.
<mgrwt>
<rscale>  0 0.12499045E+03</rscale>
<asrwt>0</asrwt>
<pdfrwt beam="1">  1        4 0.39125352E-01 0.12499045E+03</pdfrwt>
<pdfrwt beam="2">  1       -4 0.23627008E-02 0.12499045E+03</pdfrwt>
<totfact> 0.79584454E+03</totfact>
</mgrwt>
</event>
<event>
 5    1  0.3251953E-002  0.1249966E+03  0.7818608E-02  0.1235075E+00
         -4   -1    0    0    0  501 -0.00000000000E+00  0.00000000000E+00  0.16613473773E+02  0.16661944989E+02  0.12700000000E+01 0.  1.
          4   -1    0    0  501    0  0.00000000000E+00 -0.00000000000E+00 -0.23471998529E+03  0.23472342106E+03  0.12700000000E+01 0.  1.
         25    2    1    2    0    0  0.00000000000E+00  0.00000000000E+00 -0.21810651152E+03  0.25138536605E+03  0.12499660755E+03 0.  0.
    9000005    1    3    3    0    0  0.46454959014E+02  0.22222968370E+02 -0.37860282252E+02  0.63924365561E+02  0.10000000000E+01 0.  0.
    9000005    1    3    3    0    0 -0.46454959014E+02 -0.22222968370E+02 -0.18024622927E+03  0.18746100049E+03  0.10000000000E+01 0.  0.
<mgrwt>
<rscale>  0 0.12499661E+03</rscale>
<asrwt>0</asrwt>
<pdfrwt beam="2">  1        4 0.36114757E-01 0.12499661E+03</pdfrwt>
<pdfrwt beam="1">  1       -4 0.25599121E-02 0.12499661E+03</pdfrwt>
<totfact> 0.82136618E+03</totfact>
</mgrwt>
</event>
<event>
 5    1  0.3251953E-002  0.1249955E+03  0.7818608E-02  0.1235076E+00
          4   -1    0    0  501    0  0.00000000000E+00  0.00000000000E+00  0.45296429940E+02  0.45314230274E+02  0.12700000000E+01 0.  1.
         -4   -1    0    0    0  501 -0.00000000000E+00 -0.00000000000E+00 -0.86191914456E+02  0.86201270395E+02  0.12700000000E+01 0.  1.
         25    2    1    2    0    0  0.00000000000E+00  0.00000000000E+00 -0.40895484516E+02  0.13151550067E+03  0.12499554497E+03 0.  0.
    9000005    1    3    3    0    0  0.40142766280E+02  0.45935588316E+02 -0.61968135157E+01  0.61326343901E+02  0.10000000000E+01 0.  0.
    9000005    1    3    3    0    0 -0.40142766280E+02 -0.45935588316E+02 -0.34698671000E+02  0.70189156767E+02  0.10000000000E+01 0.  0.
<mgrwt>
<rscale>  0 0.12499554E+03</rscale>
<asrwt>0</asrwt>
<pdfrwt beam="1">  1        4 0.69707705E-02 0.12499554E+03</pdfrwt>
<pdfrwt beam="2">  1       -4 0.13262383E-01 0.12499554E+03</pdfrwt>
<totfact> 0.10313087E+04</totfact>
</mgrwt>
</event>
<event>
 5    1  0.3251953E-002  0.1249942E+03  0.7818608E-02  0.1235078E+00
         -4   -1    0    0    0  501 -0.00000000000E+00  0.00000000000E+00  0.15924892106E+03  0.15925398506E+03  0.12700000000E+01 0. -1.
          4   -1    0    0  501    0  0.00000000000E+00 -0.00000000000E+00 -0.24505051767E+02  0.24537939239E+02  0.12700000000E+01 0. -1.
         25    2    1    2    0    0  0.00000000000E+00  0.00000000000E+00  0.13474386929E+03  0.18379192430E+03  0.12499424438E+03 0.  0.
    9000005    1    3    3    0    0 -0.60632606447E+02  0.99851951365E+00  0.89554088811E+02  0.10815842468E+03  0.10000000000E+01 0.  0.
    9000005    1    3    3    0    0  0.60632606447E+02 -0.99851951365E+00  0.45189780483E+02  0.75633499628E+02  0.10000000000E+01 0.  0.
<mgrwt>
<rscale>  0 0.12499424E+03</rscale>
<asrwt>0</asrwt>
<pdfrwt beam="2">  1        4 0.37729275E-02 0.12499424E+03</pdfrwt>
<pdfrwt beam="1">  1       -4 0.24502752E-01 0.12499424E+03</pdfrwt>
<totfact> 0.92950855E+03</totfact>
</mgrwt>
</event>
<event>
 4    1  0.3251953E-002  0.1249274E+03  0.7818608E-02  0.1235183E+00
         -4   -1    0    0    0  501 -0.00000000000E+00  0.00000000000E+00  0.46216209612E+02  0.46233655824E+02  0.12700000000E+01 0.  1.
          4   -1    0    0  501    0  0.00000000000E+00 -0.00000000000E+00 -0.84384886073E+02  0.84394442338E+02  0.12700000000E+01 0.  1.
    9000005    1    1    2    0    0 -0.36455656210E+02 -0.49200257124E+02 -0.62339962793E+01  0.61559263156E+02  0.10000000000E+01 0.  0.
    9000005    1    1    2    0    0  0.36455656210E+02  0.49200257124E+02 -0.31934680182E+02  0.69068835006E+02  0.10000000000E+01 0.  0.
<mgrwt>
<rscale>  0 0.12492739E+03</rscale>
<asrwt>0</asrwt>
<pdfrwt beam="2">  1        4 0.12984367E-01 0.12492739E+03</pdfrwt>
<pdfrwt beam="1">  1       -4 0.71122632E-02 0.12492739E+03</pdfrwt>
<totfact> 0.10348012E+04</totfact>
</mgrwt>
</event>
<event>
 5    1  0.3251953E-002  0.1249991E+03  0.7818608E-02  0.1235071E+00
          4   -1    0    0  501    0  0.00000000000E+00  0.00000000000E+00  0.62291015056E+02  0.62303960201E+02  0.12700000000E+01 0. -1.
         -4   -1    0    0    0  501 -0.00000000000E+00 -0.00000000000E+00 -0.62682934767E+02  0.62695798990E+02  0.12700000000E+01 0. -1.
         25    2    1    2    0    0  0.00000000000E+00  0.00000000000E+00 -0.39191971109E+00  0.12499975919E+03  0.12499914478E+03 0.  0.
    9000005    1    3    3    0    0 -0.17802689581E+02  0.18174321709E+02 -0.57274737444E+02  0.62678842325E+02  0.10000000000E+01 0.  0.
    9000005    1    3    3    0    0  0.17802689581E+02 -0.18174321709E+02  0.56882817733E+02  0.62320916867E+02  0.10000000000E+01 0.  0.
<mgrwt>
<rscale>  0 0.12499914E+03</rscale>
<asrwt>0</asrwt>
<pdfrwt beam="1">  1        4 0.95852184E-02 0.12499914E+03</pdfrwt>
<pdfrwt beam="2">  1       -4 0.96455138E-02 0.12499914E+03</pdfrwt>
<totfact> 0.10453070E+04</totfact>
</mgrwt>
</event>
<event>
 5    1  0.3251953E-002  0.1250008E+03  0.7818608E-02  0.1235068E+00
         -4   -1    0    0    0  501 -0.00000000000E+00  0.00000000000E+00  0.60855690544E+02  0.60868940944E+02  0.12700000000E+01 0.  1.
          4   -1    0    0  501    0  0.00000000000E+00 -0.00000000000E+00 -0.64163011032E+02  0.64175578569E+02  0.12700000000E+01 0.  1.
         25    2    1    2    0    0  0.00000000000E+00  0.00000000000E+00 -0.33073204876E+01  0.12504451951E+03  0.12500077396E+03 0.  0.
    9000005    1    3    3    0    0  0.50680818718E+02  0.27733088426E+02  0.22179639151E+02  0.61891889392E+02  0.10000000000E+01 0.  0.
    9000005    1    3    3    0    0 -0.50680818718E+02 -0.27733088426E+02 -0.25486959638E+02  0.63152630121E+02  0.10000000000E+01 0.  0.
<mgrwt>
<rscale>  0 0.12500077E+03</rscale>
<asrwt>0</asrwt>
<pdfrwt beam="2">  1        4 0.98732184E-02 0.12500077E+03</pdfrwt>
<pdfrwt beam="1">  1       -4 0.93643999E-02 0.12500077E+03</pdfrwt>
<totfact> 0.10451713E+04</totfact>
</mgrwt>
</event>
<event>
 5    1  0.3251953E-002  0.1250003E+03  0.7818608E-02  0.1235069E+00
          4   -1    0    0  501    0  0.00000000000E+00  0.00000000000E+00  0.37301077265E+03  0.37301293465E+03  0.12700000000E+01 0. -1.
         -4   -1    0    0    0  501 -0.00000000000E+00 -0.00000000000E+00 -0.10431558827E+02  0.10508583137E+02  0.12700000000E+01 0. -1.
         25    2    1    2    0    0  0.00000000000E+00  0.00000000000E+00  0.36257921383E+03  0.38352151779E+03  0.12500027322E+03 0.  0.
    9000005    1    3    3    0    0 -0.43222272111E+02 -0.19270867924E+02  0.30651195657E+03  0.31014530575E+03  0.10000000000E+01 0.  0.
    9000005    1    3    3    0    0  0.43222272111E+02  0.19270867924E+02  0.56067257260E+02  0.73376212042E+02  0.10000000000E+01 0.  0.
<mgrwt>
<rscale>  0 0.12500027E+03</rscale>
<asrwt>0</asrwt>
<pdfrwt beam="1">  1        4 0.57392360E-01 0.12500027E+03</pdfrwt>
<pdfrwt beam="2">  1       -4 0.16109466E-02 0.12500027E+03</pdfrwt>
<totfact> 0.66187255E+03</totfact>
</mgrwt>
</event>
<event>
 5    1  0.3251953E-002  0.1250002E+03  0.7818608E-02  0.1235069E+00
          4   -1    0    0  501    0  0.00000000000E+00  0.00000000000E+00  0.43221365161E+03  0.43221551747E+03  0.12700000000E+01 0. -1.
         -4   -1    0    0    0  501 -0.00000000000E+00 -0.00000000000E+00 -0.89912933949E+01  0.90805427653E+01  0.12700000000E+01 0. -1.
         25    2    1    2    0    0  0.00000000000E+00  0.00000000000E+00  0.42322235822E+03  0.44129606023E+03  0.12500019313E+03 0.  0.
    9000005    1    3    3    0    0 -0.48452935744E+02 -0.37555034718E+02  0.16877950078E+03  0.17957056412E+03  0.10000000000E+01 0.  0.
    9000005    1    3    3    0    0  0.48452935744E+02  0.37555034718E+02  0.25444285743E+03  0.26172549611E+03  0.10000000000E+01 0.  0.
<mgrwt>
<rscale>  0 0.12500019E+03</rscale>
<asrwt>0</asrwt>
<pdfrwt beam="1">  1        4 0.66501411E-01 0.12500019E+03</pdfrwt>
<pdfrwt beam="2">  1       -4 0.13902849E-02 0.12500019E+03</pdfrwt>
<totfact> 0.60724993E+03</totfact>
</mgrwt>
</event>
<event>
 5    1  0.3251953E-002  0.1250038E+03  0.7818608E-02  0.1235063E+00
         -4   -1    0    0    0  501 -0.00000000000E+00  0.00000000000E+00  0.19163144973E+02  0.19205182250E+02  0.12700000000E+01 0. -1.
          4   -1    0    0  501    0  0.00000000000E+00 -0.00000000000E+00 -0.20358670066E+03  0.20359066183E+03  0.12700000000E+01 0. -1.
         25    2    1    2    0    0  0.00000000000E+00  0.00000000000E+00 -0.18442355569E+03  0.22279584408E+03  0.12500376094E+03 0.  0.
    9000005    1    3    3    0    0 -0.77744670195E+01  0.59129360306E+02 -0.12549675462E+03  0.13895020334E+03  0.10000000000E+01 0.  0.
    9000005    1    3    3    0    0  0.77744670195E+01 -0.59129360306E+02 -0.58926801063E+02  0.83845640740E+02  0.10000000000E+01 0.  0.
<mgrwt>
<rscale>  0 0.12500376E+03</rscale>
<asrwt>0</asrwt>
<pdfrwt beam="2">  1        4 0.31324568E-01 0.12500376E+03</pdfrwt>
<pdfrwt beam="1">  1       -4 0.29517146E-02 0.12500376E+03</pdfrwt>
<totfact> 0.86420610E+03</totfact>
</mgrwt>
</event>
<event>
 5    1  0.3251953E-002  0.1249971E+03  0.7818608E-02  0.1235074E+00
         -4   -1    0    0    0  501 -0.00000000000E+00  0.00000000000E+00  0.30060041221E+03  0.30060309500E+03  0.12700000000E+01 0. -1.
          4   -1    0    0  501    0  0.00000000000E+00 -0.00000000000E+00 -0.12960448259E+02  0.13022523529E+02  0.12700000000E+01 0. -1.
         25    2    1    2    0    0  0.00000000000E+00  0.00000000000E+00  0.28763996395E+03  0.31362561853E+03  0.12499711890E+03 0.  0.
    9000005    1    3    3    0    0 -0.12388854751E+02 -0.57701803048E+02  0.92271829944E+02  0.10953571289E+03  0.10000000000E+01 0.  0.
    9000005    1    3    3    0    0  0.12388854751E+02  0.57701803048E+02  0.19536813401E+03  0.20408990564E+03  0.10000000000E+01 0.  0.
<mgrwt>
<rscale>  0 0.12499712E+03</rscale>
<asrwt>0</asrwt>
<pdfrwt beam="2">  1        4 0.19988965E-02 0.12499712E+03</pdfrwt>
<pdfrwt beam="1">  1       -4 0.46251200E-01 0.12499712E+03</pdfrwt>
<totfact> 0.73925463E+03</totfact>
</mgrwt>
</event>
<event>
 5    1  0.3251953E-002  0.1249997E+03  0.7818608E-02  0.1235070E+00
         -4   -1    0    0    0  501 -0.00000000000E+00  0.00000000000E+00  0.15712249813E+03  0.15712763066E+03  0.12700000000E+01 0. -1.
          4   -1    0    0  501    0  0.00000000000E+00 -0.00000000000E+00 -0.24839302816E+02  0.24871748318E+02  0.12700000000E+01 0. -1.
         25    2    1    2    0    0  0.00000000000E+00  0.00000000000E+00  0.13228319531E+03  0.18199937898E+03  0.12499972075E+03 0.  0.
    9000005    1    3    3    0    0 -0.58627499811E+02 -0.12425826512E+02  0.91927473140E+02  0.10974172049E+03  0.10000000000E+01 0.  0.
    9000005    1    3    3    0    0  0.58627499811E+02  0.12425826512E+02  0.40355722173E+02  0.72257658491E+02  0.10000000000E+01 0.  0.
<mgrwt>
<rscale>  0 0.12499972E+03</rscale>
<asrwt>0</asrwt>
<pdfrwt beam="2">  1        4 0.38243218E-02 0.12499972E+03</pdfrwt>
<pdfrwt beam="1">  1       -4 0.24175583E-01 0.12499972E+03</pdfrwt>
<totfact> 0.93258925E+03</totfact>
</mgrwt>
</event>
<event>
 5    1  0.3251953E-002  0.1249912E+03  0.7818608E-02  0.1235083E+00
         -4   -1    0    0    0  501 -0.00000000000E+00  0.00000000000E+00  0.71177667143E+03  0.71177780444E+03  0.12700000000E+01 0. -1.
          4   -1    0    0  501    0  0.00000000000E+00 -0.00000000000E+00 -0.54126225477E+01  0.55596207464E+01  0.12700000000E+01 0. -1.
         25    2    1    2    0    0  0.00000000000E+00  0.00000000000E+00  0.70636404888E+03  0.71733742518E+03  0.12499124777E+03 0.  0.
    9000005    1    3    3    0    0 -0.26885194620E+02 -0.54761798399E+02  0.43082651811E+03  0.43512544968E+03  0.10000000000E+01 0.  0.
    9000005    1    3    3    0    0  0.26885194620E+02  0.54761798399E+02  0.27553753077E+03  0.28221197550E+03  0.10000000000E+01 0.  0.
<mgrwt>
<rscale>  0 0.12499125E+03</rscale>
<asrwt>0</asrwt>
<pdfrwt beam="2">  1        4 0.84410654E-03 0.12499125E+03</pdfrwt>
<pdfrwt beam="1">  1       -4 0.10951541E+00 0.12499125E+03</pdfrwt>
<totfact> 0.42195241E+03</totfact>
</mgrwt>
</event>
<event>
 5    1  0.3251953E-002  0.1250027E+03  0.7818608E-02  0.1235065E+00
         -4   -1    0    0    0  501 -0.00000000000E+00  0.00000000000E+00  0.39440227885E+03  0.39440432358E+03  0.12700000000E+01 0.  1.
          4   -1    0    0  501    0  0.00000000000E+00 -0.00000000000E+00 -0.98618727256E+01  0.99433110007E+01  0.12700000000E+01 0.  1.
         25    2    1    2    0    0  0.00000000000E+00  0.00000000000E+00  0.38454040612E+03  0.40434763458E+03  0.12500274258E+03 0.  0.
    9000005    1    3    3    0    0 -0.59008680552E+02 -0.12372824898E+02  0.13908796478E+03  0.15159674509E+03  0.10000000000E+01 0.  0.
    9000005    1    3    3    0    0  0.59008680552E+02  0.12372824898E+02  0.24545244135E+03  0.25275088949E+03  0.10000000000E+01 0.  0.
<mgrwt>
<rscale>  0 0.12500274E+03</rscale>
<asrwt>0</asrwt>
<pdfrwt beam="2">  1        4 0.15236332E-02 0.12500274E+03</pdfrwt>
<pdfrwt beam="1">  1       -4 0.60683684E-01 0.12500274E+03</pdfrwt>
<totfact> 0.64128252E+03</totfact>
</mgrwt>
</event>
<event>
 5    1  0.3251953E-002  0.1250004E+03  0.7818608E-02  0.1235069E+00
          4   -1    0    0  501    0  0.00000000000E+00  0.00000000000E+00  0.10396077881E+03  0.10396853577E+03  0.12700000000E+01 0. -1.
         -4   -1    0    0    0  501 -0.00000000000E+00 -0.00000000000E+00 -0.37554596040E+02  0.37576063973E+02  0.12700000000E+01 0. -1.
         25    2    1    2    0    0  0.00000000000E+00  0.00000000000E+00  0.66406182768E+02  0.14154459974E+03  0.12500037043E+03 0.  0.
    9000005    1    3    3    0    0 -0.15333482299E+02 -0.48795819274E+02 -0.74533725231E+01  0.51698166505E+02  0.10000000000E+01 0.  0.
    9000005    1    3    3    0    0  0.15333482299E+02  0.48795819274E+02  0.73859555291E+02  0.89846433239E+02  0.10000000000E+01 0.  0.
<mgrwt>
<rscale>  0 0.12500037E+03</rscale>
<asrwt>0</asrwt>
<pdfrwt beam="1">  1        4 0.15996214E-01 0.12500037E+03</pdfrwt>
<pdfrwt beam="2">  1       -4 0.57798783E-02 0.12500037E+03</pdfrwt>
<totfact> 0.10101589E+04</totfact>
</mgrwt>
</event>
<event>
 5    1  0.3251953E-002  0.1249956E+03  0.7818608E-02  0.1235076E+00
         -4   -1    0    0    0  501 -0.00000000000E+00  0.00000000000E+00  0.27442613441E+02  0.27471984502E+02  0.12700000000E+01 0. -1.
          4   -1    0    0  501    0  0.00000000000E+00 -0.00000000000E+00 -0.14222414122E+03  0.14222981138E+03  0.12700000000E+01 0. -1.
         25    2    1    2    0    0  0.00000000000E+00  0.00000000000E+00 -0.11478152778E+03  0.16970179588E+03  0.12499560155E+03 0.  0.
    9000005    1    3    3    0    0  0.43582765454E+02  0.13318742428E+02  0.65828354493E+00  0.45588152866E+02  0.10000000000E+01 0.  0.
    9000005    1    3    3    0    0 -0.43582765454E+02 -0.13318742428E+02 -0.11543981132E+03  0.12411364302E+03  0.10000000000E+01 0.  0.
<mgrwt>
<rscale>  0 0.12499560E+03</rscale>
<asrwt>0</asrwt>
<pdfrwt beam="2">  1        4 0.21883332E-01 0.12499560E+03</pdfrwt>
<pdfrwt beam="1">  1       -4 0.42246361E-02 0.12499560E+03</pdfrwt>
<totfact> 0.95513676E+03</totfact>
</mgrwt>
</event>
<event>
 5    1  0.3251953E-002  0.1249921E+03  0.7818608E-02  0.1235082E+00
          4   -1    0    0  501    0  0.00000000000E+00  0.00000000000E+00  0.19362699394E+03  0.19363115886E+03  0.12700000000E+01 0. -1.
         -4   -1    0    0    0  501 -0.00000000000E+00 -0.00000000000E+00 -0.20147165798E+02  0.20187154076E+02  0.12700000000E+01 0. -1.
         25    2    1    2    0    0  0.00000000000E+00  0.00000000000E+00  0.17347982815E+03  0.21381831294E+03  0.12499208045E+03 0.  0.
    9000005    1    3    3    0    0 -0.43236366967E+02  0.34786629564E+02  0.13588253678E+03  0.14678064187E+03  0.10000000000E+01 0.  0.
    9000005    1    3    3    0    0  0.43236366967E+02 -0.34786629564E+02  0.37597291362E+02  0.67037671071E+02  0.10000000000E+01 0.  0.
<mgrwt>
<rscale>  0 0.12499208E+03</rscale>
<asrwt>0</asrwt>
<pdfrwt beam="1">  1        4 0.29792165E-01 0.12499208E+03</pdfrwt>
<pdfrwt beam="2">  1       -4 0.31029604E-02 0.12499208E+03</pdfrwt>
<totfact> 0.87871624E+03</totfact>
</mgrwt>
</event>
<event>
 5    1  0.3251953E-002  0.1250025E+03  0.7818608E-02  0.1235065E+00
         -4   -1    0    0    0  501 -0.00000000000E+00  0.00000000000E+00  0.43440657074E+03  0.43440842717E+03  0.12700000000E+01 0.  1.
          4   -1    0    0  501    0  0.00000000000E+00 -0.00000000000E+00 -0.89457808360E+01  0.90354797751E+01  0.12700000000E+01 0.  1.
         25    2    1    2    0    0  0.00000000000E+00  0.00000000000E+00  0.42546078990E+03  0.44344390695E+03  0.12500245944E+03 0.  0.
    9000005    1    3    3    0    0 -0.32191951220E+02  0.26010759174E+02  0.46621781298E+02  0.62349593483E+02  0.10000000000E+01 0.  0.
    9000005    1    3    3    0    0  0.32191951220E+02 -0.26010759174E+02  0.37883900860E+03  0.38109431347E+03  0.10000000000E+01 0.  0.
<mgrwt>
<rscale>  0 0.12500246E+03</rscale>
<asrwt>0</asrwt>
<pdfrwt beam="2">  1        4 0.13833170E-02 0.12500246E+03</pdfrwt>
<pdfrwt beam="1">  1       -4 0.66838808E-01 0.12500246E+03</pdfrwt>
<totfact> 0.60532713E+03</totfact>
</mgrwt>
</event>
<event>
 5    1  0.3251953E-002  0.1249869E+03  0.7818608E-02  0.1235090E+00
          4   -1    0    0  501    0  0.00000000000E+00  0.00000000000E+00  0.40762637686E+03  0.40762835526E+03  0.12700000000E+01 0. -1.
         -4   -1    0    0    0  501 -0.00000000000E+00 -0.00000000000E+00 -0.95368125966E+01  0.96210027805E+01  0.12700000000E+01 0. -1.
         25    2    1    2    0    0  0.00000000000E+00  0.00000000000E+00  0.39808956427E+03  0.41724935805E+03  0.12498690175E+03 0.  0.
    9000005    1    3    3    0    0  0.14826196106E+02  0.57859632396E+02  0.13777199142E+03  0.15016549128E+03  0.10000000000E+01 0.  0.
    9000005    1    3    3    0    0 -0.14826196106E+02 -0.57859632396E+02  0.26031757285E+03  0.26708386677E+03  0.10000000000E+01 0.  0.
<mgrwt>
<rscale>  0 0.12498690E+03</rscale>
<asrwt>0</asrwt>
<pdfrwt beam="1">  1        4 0.62718383E-01 0.12498690E+03</pdfrwt>
<pdfrwt beam="2">  1       -4 0.14738302E-02 0.12498690E+03</pdfrwt>
<totfact> 0.62927191E+03</totfact>
</mgrwt>
</event>
<event>
 5    1  0.3251953E-002  0.1250014E+03  0.7818608E-02  0.1235067E+00
         -4   -1    0    0    0  501 -0.00000000000E+00  0.00000000000E+00  0.77980310654E+02  0.77990651681E+02  0.12700000000E+01 0. -1.
          4   -1    0    0  501    0  0.00000000000E+00 -0.00000000000E+00 -0.50072180035E+02  0.50088283195E+02  0.12700000000E+01 0. -1.
         25    2    1    2    0    0  0.00000000000E+00  0.00000000000E+00  0.27908130619E+02  0.12807893488E+03  0.12500139921E+03 0.  0.
    9000005    1    3    3    0    0 -0.28599776162E+02  0.55332023057E+02  0.87539315990E+01  0.62906369236E+02  0.10000000000E+01 0.  0.
    9000005    1    3    3    0    0  0.28599776162E+02 -0.55332023057E+02  0.19154199020E+02  0.65172565640E+02  0.10000000000E+01 0.  0.
<mgrwt>
<rscale>  0 0.12500140E+03</rscale>
<asrwt>0</asrwt>
<pdfrwt beam="2">  1        4 0.77054466E-02 0.12500140E+03</pdfrwt>
<pdfrwt beam="1">  1       -4 0.11999005E-01 0.12500140E+03</pdfrwt>
<totfact> 0.10385455E+04</totfact>
</mgrwt>
</event>
<event>
 5    1  0.3251953E-002  0.1249948E+03  0.7818608E-02  0.1235077E+00
          4   -1    0    0  501    0  0.00000000000E+00  0.00000000000E+00  0.10578129271E+03  0.10578891619E+03  0.12700000000E+01 0. -1.
         -4   -1    0    0    0  501 -0.00000000000E+00 -0.00000000000E+00 -0.36904646420E+02  0.36926492216E+02  0.12700000000E+01 0. -1.
         25    2    1    2    0    0  0.00000000000E+00  0.00000000000E+00  0.68876646294E+02  0.14271540840E+03  0.12499478146E+03 0.  0.
    9000005    1    3    3    0    0 -0.96834393518E+01  0.69258758336E+00  0.10492060378E+03  0.10537353450E+03  0.10000000000E+01 0.  0.
    9000005    1    3    3    0    0  0.96834393518E+01 -0.69258758336E+00 -0.36043957488E+02  0.37341873904E+02  0.10000000000E+01 0.  0.
<mgrwt>
<rscale>  0 0.12499478E+03</rscale>
<asrwt>0</asrwt>
<pdfrwt beam="1">  1        4 0.16276312E-01 0.12499478E+03</pdfrwt>
<pdfrwt beam="2">  1       -4 0.56799049E-02 0.12499478E+03</pdfrwt>
<totfact> 0.10078799E+04</totfact>
</mgrwt>
</event>
<event>
 5    1  0.3251953E-002  0.1249996E+03  0.7818608E-02  0.1235070E+00
         -4   -1    0    0    0  501 -0.00000000000E+00  0.00000000000E+00  0.24294040466E+03  0.24294372417E+03  0.12700000000E+01 0.  1.
          4   -1    0    0  501    0  0.00000000000E+00 -0.00000000000E+00 -0.16050422981E+02  0.16100589364E+02  0.12700000000E+01 0.  1.
         25    2    1    2    0    0  0.00000000000E+00  0.00000000000E+00  0.22688998168E+03  0.25904431354E+03  0.12499957036E+03 0.  0.
    9000005    1    3    3    0    0 -0.14529746513E+02 -0.56981407755E+02  0.15727084778E+03  0.16790805200E+03  0.10000000000E+01 0.  0.
    9000005    1    3    3    0    0  0.14529746513E+02  0.56981407755E+02  0.69619133896E+02  0.91136261542E+02  0.10000000000E+01 0.  0.
<mgrwt>
<rscale>  0 0.12499957E+03</rscale>
<asrwt>0</asrwt>
<pdfrwt beam="2">  1        4 0.24734104E-02 0.12499957E+03</pdfrwt>
<pdfrwt beam="1">  1       -4 0.37379557E-01 0.12499957E+03</pdfrwt>
<totfact> 0.81041143E+03</totfact>
</mgrwt>
</event>
<event>
 5    1  0.3251953E-002  0.1250003E+03  0.7818608E-02  0.1235069E+00
          4   -1    0    0  501    0  0.00000000000E+00  0.00000000000E+00  0.45996979452E+02  0.46014508785E+02  0.12700000000E+01 0.  1.
         -4   -1    0    0    0  501 -0.00000000000E+00 -0.00000000000E+00 -0.84885999907E+02  0.84895499764E+02  0.12700000000E+01 0.  1.
         25    2    1    2    0    0  0.00000000000E+00  0.00000000000E+00 -0.38889020455E+02  0.13091000855E+03  0.12500029770E+03 0.  0.
    9000005    1    3    3    0    0  0.60579710351E+01  0.59546423792E+01  0.45394674976E+02  0.46193433463E+02  0.10000000000E+01 0.  0.
    9000005    1    3    3    0    0 -0.60579710351E+01 -0.59546423792E+01 -0.84283695430E+02  0.84716575086E+02  0.10000000000E+01 0.  0.
<mgrwt>
<rscale>  0 0.12500030E+03</rscale>
<asrwt>0</asrwt>
<pdfrwt beam="1">  1        4 0.70785376E-02 0.12500030E+03</pdfrwt>
<pdfrwt beam="2">  1       -4 0.13061464E-01 0.12500030E+03</pdfrwt>
<totfact> 0.10324950E+04</totfact>
</mgrwt>
</event>
<event>
 5    1  0.3251953E-002  0.1249993E+03  0.7818608E-02  0.1235070E+00
          4   -1    0    0  501    0  0.00000000000E+00  0.00000000000E+00  0.10494445922E+03  0.10495214348E+03  0.12700000000E+01 0. -1.
         -4   -1    0    0    0  501 -0.00000000000E+00 -0.00000000000E+00 -0.37201751560E+02  0.37223422990E+02  0.12700000000E+01 0. -1.
         25    2    1    2    0    0  0.00000000000E+00  0.00000000000E+00  0.67742707665E+02  0.14217556647E+03  0.12499926904E+03 0.  0.
    9000005    1    3    3    0    0  0.31625884979E+02 -0.40877920996E+02  0.73826769454E+02  0.90125428785E+02  0.10000000000E+01 0.  0.
    9000005    1    3    3    0    0 -0.31625884979E+02  0.40877920996E+02 -0.60840617889E+01  0.52050137690E+02  0.10000000000E+01 0.  0.
<mgrwt>
<rscale>  0 0.12499927E+03</rscale>
<asrwt>0</asrwt>
<pdfrwt beam="1">  1        4 0.16147559E-01 0.12499927E+03</pdfrwt>
<pdfrwt beam="2">  1       -4 0.57256046E-02 0.12499927E+03</pdfrwt>
<totfact> 0.10088860E+04</totfact>
</mgrwt>
</event>
<event>
 5    1  0.3251953E-002  0.1249975E+03  0.7818608E-02  0.1235073E+00
         -4   -1    0    0    0  501 -0.00000000000E+00  0.00000000000E+00  0.62499555913E+01  0.63776833484E+01  0.12700000000E+01 0. -1.
          4   -1    0    0  501    0  0.00000000000E+00 -0.00000000000E+00 -0.61852911508E+03  0.61853041890E+03  0.12700000000E+01 0. -1.
         25    2    1    2    0    0  0.00000000000E+00  0.00000000000E+00 -0.61227915949E+03  0.62490810225E+03  0.12499746841E+03 0.  0.
    9000005    1    3    3    0    0  0.13743620166E+02  0.13789198228E+02 -0.60300523279E+03  0.60332026309E+03  0.10000000000E+01 0.  0.
    9000005    1    3    3    0    0 -0.13743620166E+02 -0.13789198228E+02 -0.92739266991E+01  0.21587839156E+02  0.10000000000E+01 0.  0.
<mgrwt>
<rscale>  0 0.12499747E+03</rscale>
<asrwt>0</asrwt>
<pdfrwt beam="2">  1        4 0.95168203E-01 0.12499747E+03</pdfrwt>
<pdfrwt beam="1">  1       -4 0.97145763E-03 0.12499747E+03</pdfrwt>
<totfact> 0.47334806E+03</totfact>
</mgrwt>
</event>
<event>
 5    1  0.3251953E-002  0.1249992E+03  0.7818608E-02  0.1235070E+00
         -4   -1    0    0    0  501 -0.00000000000E+00  0.00000000000E+00  0.38707550562E+02  0.38728379395E+02  0.12700000000E+01 0. -1.
          4   -1    0    0  501    0  0.00000000000E+00 -0.00000000000E+00 -0.10086378042E+03  0.10087177554E+03  0.12700000000E+01 0. -1.
         25    2    1    2    0    0  0.00000000000E+00  0.00000000000E+00 -0.62156229862E+02  0.13960015494E+03  0.12499922539E+03 0.  0.
    9000005    1    3    3    0    0 -0.19460553981E+02  0.64964566443E+01  0.34844645046E+02  0.40448317623E+02  0.10000000000E+01 0.  0.
    9000005    1    3    3    0    0  0.19460553981E+02 -0.64964566443E+01 -0.97000874908E+02  0.99151837316E+02  0.10000000000E+01 0.  0.
<mgrwt>
<rscale>  0 0.12499923E+03</rscale>
<asrwt>0</asrwt>
<pdfrwt beam="2">  1        4 0.15519722E-01 0.12499923E+03</pdfrwt>
<pdfrwt beam="1">  1       -4 0.59572250E-02 0.12499923E+03</pdfrwt>
<totfact> 0.10142056E+04</totfact>
</mgrwt>
</event>
<event>
 5    1  0.3251953E-002  0.1250024E+03  0.7818608E-02  0.1235065E+00
         -4   -1    0    0    0  501 -0.00000000000E+00  0.00000000000E+00  0.80331831174E+01  0.81329533995E+01  0.12700000000E+01 0.  1.
          4   -1    0    0  501    0  0.00000000000E+00 -0.00000000000E+00 -0.48318148733E+03  0.48318315636E+03  0.12700000000E+01 0.  1.
         25    2    1    2    0    0  0.00000000000E+00  0.00000000000E+00 -0.47514830421E+03  0.49131610976E+03  0.12500243486E+03 0.  0.
    9000005    1    3    3    0    0  0.51299551861E+02  0.84214242389E+01 -0.37388990949E+03  0.37748805123E+03  0.10000000000E+01 0.  0.
    9000005    1    3    3    0    0 -0.51299551861E+02 -0.84214242389E+01 -0.10125839472E+03  0.11382805853E+03  0.10000000000E+01 0.  0.
<mgrwt>
<rscale>  0 0.12500243E+03</rscale>
<asrwt>0</asrwt>
<pdfrwt beam="2">  1        4 0.74343394E-01 0.12500243E+03</pdfrwt>
<pdfrwt beam="1">  1       -4 0.12436777E-02 0.12500243E+03</pdfrwt>
<totfact> 0.56541462E+03</totfact>
</mgrwt>
</event>
<event>
 5    1  0.3251953E-002  0.1249919E+03  0.7818608E-02  0.1235082E+00
          4   -1    0    0  501    0  0.00000000000E+00  0.00000000000E+00  0.57455024786E+02  0.57469059268E+02  0.12700000000E+01 0.  1.
         -4   -1    0    0    0  501 -0.00000000000E+00 -0.00000000000E+00 -0.67950844922E+02  0.67962712023E+02  0.12700000000E+01 0.  1.
         25    2    1    2    0    0  0.00000000000E+00  0.00000000000E+00 -0.10495820136E+02  0.12543177129E+03  0.12499186777E+03 0.  0.
    9000005    1    3    3    0    0 -0.57532689134E+02  0.33245817256E+01 -0.29492379189E+02  0.64744602809E+02  0.10000000000E+01 0.  0.
    9000005    1    3    3    0    0  0.57532689134E+02 -0.33245817256E+01  0.18996559054E+02  0.60687168483E+02  0.10000000000E+01 0.  0.
<mgrwt>
<rscale>  0 0.12499187E+03</rscale>
<asrwt>0</asrwt>
<pdfrwt beam="1">  1        4 0.88412270E-02 0.12499187E+03</pdfrwt>
<pdfrwt beam="2">  1       -4 0.10455969E-01 0.12499187E+03</pdfrwt>
<totfact> 0.10445379E+04</totfact>
</mgrwt>
</event>
<event>
 5    1  0.3251953E-002  0.1250009E+03  0.7818608E-02  0.1235068E+00
          4   -1    0    0  501    0  0.00000000000E+00  0.00000000000E+00  0.24619536308E+02  0.24652271052E+02  0.12700000000E+01 0.  1.
         -4   -1    0    0    0  501 -0.00000000000E+00 -0.00000000000E+00 -0.15852626339E+03  0.15853135047E+03  0.12700000000E+01 0.  1.
         25    2    1    2    0    0  0.00000000000E+00  0.00000000000E+00 -0.13390672708E+03  0.18318362153E+03  0.12500091055E+03 0.  0.
    9000005    1    3    3    0    0  0.43304223068E+02 -0.36720577847E+02 -0.28692542006E+02  0.63623254709E+02  0.10000000000E+01 0.  0.
    9000005    1    3    3    0    0 -0.43304223068E+02  0.36720577847E+02 -0.10521418507E+03  0.11956036682E+03  0.10000000000E+01 0.  0.
<mgrwt>
<rscale>  0 0.12500091E+03</rscale>
<asrwt>0</asrwt>
<pdfrwt beam="1">  1        4 0.37905304E-02 0.12500091E+03</pdfrwt>
<pdfrwt beam="2">  1       -4 0.24391565E-01 0.12500091E+03</pdfrwt>
<totfact> 0.93045161E+03</totfact>
</mgrwt>
</event>
<event>
 5    1  0.3251953E-002  0.1250005E+03  0.7818608E-02  0.1235069E+00
         -4   -1    0    0    0  501 -0.00000000000E+00  0.00000000000E+00  0.43788962261E+01  0.45593455845E+01  0.12700000000E+01 0. -1.
          4   -1    0    0  501    0  0.00000000000E+00 -0.00000000000E+00 -0.87387875615E+03  0.87387967899E+03  0.12700000000E+01 0. -1.
         25    2    1    2    0    0  0.00000000000E+00  0.00000000000E+00 -0.86949985992E+03  0.87843902457E+03  0.12500045394E+03 0.  0.
    9000005    1    3    3    0    0 -0.87072396782E+01 -0.52983995999E+02 -0.21007265043E+03  0.21682859201E+03  0.10000000000E+01 0.  0.
    9000005    1    3    3    0    0  0.87072396782E+01  0.52983995999E+02 -0.65942720950E+03  0.66161043256E+03  0.10000000000E+01 0.  0.
<mgrwt>
<rscale>  0 0.12500045E+03</rscale>
<asrwt>0</asrwt>
<pdfrwt beam="2">  1        4 0.13445670E+00 0.12500045E+03</pdfrwt>
<pdfrwt beam="1">  1       -4 0.68762874E-03 0.12500045E+03</pdfrwt>
<totfact> 0.34990669E+03</totfact>
</mgrwt>
</event>
<event>
 5    1  0.3251953E-002  0.1249997E+03  0.7818608E-02  0.1235070E+00
          4   -1    0    0  501    0  0.00000000000E+00  0.00000000000E+00  0.15380371640E+02  0.15432716280E+02  0.12700000000E+01 0. -1.
         -4   -1    0    0    0  501 -0.00000000000E+00 -0.00000000000E+00 -0.25348974998E+03  0.25349293135E+03  0.12700000000E+01 0. -1.
         25    2    1    2    0    0  0.00000000000E+00  0.00000000000E+00 -0.23810937834E+03  0.26892564763E+03  0.12499971160E+03 0.  0.
    9000005    1    3    3    0    0  0.45341457225E+02  0.24584175745E+02 -0.43143056876E+02  0.67249927859E+02  0.10000000000E+01 0.  0.
    9000005    1    3    3    0    0 -0.45341457225E+02 -0.24584175745E+02 -0.19496632146E+03  0.20167571977E+03  0.10000000000E+01 0.  0.
<mgrwt>
<rscale>  0 0.12499971E+03</rscale>
<asrwt>0</asrwt>
<pdfrwt beam="1">  1        4 0.23704824E-02 0.12499971E+03</pdfrwt>
<pdfrwt beam="2">  1       -4 0.39002691E-01 0.12499971E+03</pdfrwt>
<totfact> 0.79670077E+03</totfact>
</mgrwt>
</event>
<event>
 5    1  0.3251953E-002  0.1250010E+03  0.7818608E-02  0.1235068E+00
          4   -1    0    0  501    0  0.00000000000E+00  0.00000000000E+00  0.24422569002E+02  0.24455567396E+02  0.12700000000E+01 0. -1.
         -4   -1    0    0    0  501 -0.00000000000E+00 -0.00000000000E+00 -0.15980336871E+03  0.15980841515E+03  0.12700000000E+01 0. -1.
         25    2    1    2    0    0  0.00000000000E+00  0.00000000000E+00 -0.13538079971E+03  0.18426398254E+03  0.12500101733E+03 0.  0.
    9000005    1    3    3    0    0 -0.12785872431E+02 -0.61146299415E+02 -0.70228728421E+02  0.93996929532E+02  0.10000000000E+01 0.  0.
    9000005    1    3    3    0    0  0.12785872431E+02  0.61146299415E+02 -0.65152071291E+02  0.90267053012E+02  0.10000000000E+01 0.  0.
<mgrwt>
<rscale>  0 0.12500102E+03</rscale>
<asrwt>0</asrwt>
<pdfrwt beam="1">  1        4 0.37602449E-02 0.12500102E+03</pdfrwt>
<pdfrwt beam="2">  1       -4 0.24588060E-01 0.12500102E+03</pdfrwt>
<totfact> 0.92852938E+03</totfact>
</mgrwt>
</event>
<event>
 5    1  0.3251953E-002  0.1250041E+03  0.7818608E-02  0.1235063E+00
         -4   -1    0    0    0  501 -0.00000000000E+00  0.00000000000E+00  0.61710751628E+03  0.61710882310E+03  0.12700000000E+01 0. -1.
          4   -1    0    0  501    0  0.00000000000E+00 -0.00000000000E+00 -0.62653273351E+01  0.63927479706E+01  0.12700000000E+01 0. -1.
         25    2    1    2    0    0  0.00000000000E+00  0.00000000000E+00  0.61084218894E+03  0.62350157107E+03  0.12500411727E+03 0.  0.
    9000005    1    3    3    0    0  0.29374484157E+02 -0.39600233472E+02  0.11389366175E+03  0.12411206628E+03  0.10000000000E+01 0.  0.
    9000005    1    3    3    0    0 -0.29374484157E+02  0.39600233472E+02  0.49694852719E+03  0.49938950479E+03  0.10000000000E+01 0.  0.
<mgrwt>
<rscale>  0 0.12500412E+03</rscale>
<asrwt>0</asrwt>
<pdfrwt beam="2">  1        4 0.97379837E-03 0.12500412E+03</pdfrwt>
<pdfrwt beam="1">  1       -4 0.94949545E-01 0.12500412E+03</pdfrwt>
<totfact> 0.47412662E+03</totfact>
</mgrwt>
</event>
<event>
 5    1  0.3251953E-002  0.1249918E+03  0.7818608E-02  0.1235082E+00
         -4   -1    0    0    0  501 -0.00000000000E+00  0.00000000000E+00  0.55891410475E+02  0.55905837485E+02  0.12700000000E+01 0.  1.
          4   -1    0    0  501    0  0.00000000000E+00 -0.00000000000E+00 -0.69851600496E+02  0.69863144732E+02  0.12700000000E+01 0.  1.
         25    2    1    2    0    0  0.00000000000E+00  0.00000000000E+00 -0.13960190020E+02  0.12576898222E+03  0.12499179966E+03 0.  0.
    9000005    1    3    3    0    0 -0.33298239160E+02 -0.37099304304E+02  0.30931844014E+02  0.58676316219E+02  0.10000000000E+01 0.  0.
    9000005    1    3    3    0    0  0.33298239160E+02  0.37099304304E+02 -0.44892034034E+02  0.67092665998E+02  0.10000000000E+01 0.  0.
<mgrwt>
<rscale>  0 0.12499180E+03</rscale>
<asrwt>0</asrwt>
<pdfrwt beam="2">  1        4 0.10748398E-01 0.12499180E+03</pdfrwt>
<pdfrwt beam="1">  1       -4 0.86006763E-02 0.12499180E+03</pdfrwt>
<totfact> 0.10437958E+04</totfact>
</mgrwt>
</event>
<event>
 5    1  0.3251953E-002  0.1250026E+03  0.7818608E-02  0.1235065E+00
         -4   -1    0    0    0  501 -0.00000000000E+00  0.00000000000E+00  0.12772942413E+04  0.12772948727E+04  0.12700000000E+01 0.  1.
          4   -1    0    0  501    0  0.00000000000E+00 -0.00000000000E+00 -0.29258475323E+01  0.31895899082E+01  0.12700000000E+01 0.  1.
         25    2    1    2    0    0  0.00000000000E+00  0.00000000000E+00  0.12743683938E+04  0.12804844626E+04  0.12500262349E+03 0.  0.
    9000005    1    3    3    0    0 -0.62325325411E+01  0.61111829746E+02  0.75483645216E+03  0.75733253575E+03  0.10000000000E+01 0.  0.
    9000005    1    3    3    0    0  0.62325325411E+01 -0.61111829746E+02  0.51953194164E+03  0.52315192687E+03  0.10000000000E+01 0.  0.
<mgrwt>
<rscale>  0 0.12500262E+03</rscale>
<asrwt>0</asrwt>
<pdfrwt beam="2">  1        4 0.47046649E-03 0.12500262E+03</pdfrwt>
<pdfrwt beam="1">  1       -4 0.19652729E+00 0.12500262E+03</pdfrwt>
<totfact> 0.22692533E+03</totfact>
</mgrwt>
</event>
<event>
 5    1  0.3251953E-002  0.1249881E+03  0.7818608E-02  0.1235088E+00
          4   -1    0    0  501    0  0.00000000000E+00  0.00000000000E+00  0.40322190822E+01  0.42274922504E+01  0.12700000000E+01 0.  1.
         -4   -1    0    0    0  501 -0.00000000000E+00 -0.00000000000E+00 -0.94548007846E+03  0.94548093141E+03  0.12700000000E+01 0.  1.
         25    2    1    2    0    0  0.00000000000E+00  0.00000000000E+00 -0.94144785938E+03  0.94970842366E+03  0.12498807163E+03 0.  0.
    9000005    1    3    3    0    0 -0.60675805596E+02  0.10143709044E+02 -0.38746818882E+03  0.39232262944E+03  0.10000000000E+01 0.  0.
    9000005    1    3    3    0    0  0.60675805596E+02 -0.10143709044E+02 -0.55397967056E+03  0.55738579423E+03  0.10000000000E+01 0.  0.
<mgrwt>
<rscale>  0 0.12498807E+03</rscale>
<asrwt>0</asrwt>
<pdfrwt beam="1">  1        4 0.63542878E-03 0.12498807E+03</pdfrwt>
<pdfrwt beam="2">  1       -4 0.14547339E+00 0.12498807E+03</pdfrwt>
<totfact> 0.32334777E+03</totfact>
</mgrwt>
</event>
<event>
 5    1  0.3251953E-002  0.1249932E+03  0.7818608E-02  0.1235080E+00
          4   -1    0    0  501    0  0.00000000000E+00  0.00000000000E+00  0.84903891638E+01  0.85848475905E+01  0.12700000000E+01 0. -1.
         -4   -1    0    0    0  501 -0.00000000000E+00 -0.00000000000E+00 -0.45738855684E+03  0.45739031999E+03  0.12700000000E+01 0. -1.
         25    2    1    2    0    0  0.00000000000E+00  0.00000000000E+00 -0.44889816767E+03  0.46597516759E+03  0.12499316728E+03 0.  0.
    9000005    1    3    3    0    0 -0.16713297310E+01  0.54139242804E+02 -0.34061530335E+03  0.34489655816E+03  0.10000000000E+01 0.  0.
    9000005    1    3    3    0    0  0.16713297310E+01 -0.54139242804E+02 -0.10828286432E+03  0.12107860943E+03  0.10000000000E+01 0.  0.
<mgrwt>
<rscale>  0 0.12499317E+03</rscale>
<asrwt>0</asrwt>
<pdfrwt beam="1">  1        4 0.13136157E-02 0.12499317E+03</pdfrwt>
<pdfrwt beam="2">  1       -4 0.70374853E-01 0.12499317E+03</pdfrwt>
<totfact> 0.58613249E+03</totfact>
</mgrwt>
</event>
<event>
 5    1  0.3251953E-002  0.1250004E+03  0.7818608E-02  0.1235069E+00
          4   -1    0    0  501    0  0.00000000000E+00  0.00000000000E+00  0.10074705281E+03  0.10075505719E+03  0.12700000000E+01 0.  1.
         -4   -1    0    0    0  501 -0.00000000000E+00 -0.00000000000E+00 -0.38753130721E+02  0.38773935068E+02  0.12700000000E+01 0.  1.
         25    2    1    2    0    0  0.00000000000E+00  0.00000000000E+00  0.61993922092E+02  0.13952899226E+03  0.12500037322E+03 0.  0.
    9000005    1    3    3    0    0 -0.56466884485E+02  0.15094869772E+02  0.63157055373E+01  0.58798403663E+02  0.10000000000E+01 0.  0.
    9000005    1    3    3    0    0  0.56466884485E+02 -0.15094869772E+02  0.55678216554E+02  0.80730588599E+02  0.10000000000E+01 0.  0.
<mgrwt>
<rscale>  0 0.12500037E+03</rscale>
<asrwt>0</asrwt>
<pdfrwt beam="1">  1        4 0.15501763E-01 0.12500037E+03</pdfrwt>
<pdfrwt beam="2">  1       -4 0.59642362E-02 0.12500037E+03</pdfrwt>
<totfact> 0.10143272E+04</totfact>
</mgrwt>
</event>
<event>
 5    1  0.3251953E-002  0.1250005E+03  0.7818608E-02  0.1235068E+00
         -4   -1    0    0    0  501 -0.00000000000E+00  0.00000000000E+00  0.12224854162E+02  0.12290645194E+02  0.12700000000E+01 0.  1.
          4   -1    0    0  501    0  0.00000000000E+00 -0.00000000000E+00 -0.31861155465E+03  0.31861408578E+03  0.12700000000E+01 0.  1.
         25    2    1    2    0    0  0.00000000000E+00  0.00000000000E+00 -0.30638670048E+03  0.33090473097E+03  0.12500052298E+03 0.  0.
    9000005    1    3    3    0    0  0.10918678572E+02  0.10740188813E+02  0.71926253435E+01  0.16950016426E+02  0.10000000000E+01 0.  0.
    9000005    1    3    3    0    0 -0.10918678572E+02 -0.10740188813E+02 -0.31357932583E+03  0.31395471454E+03  0.10000000000E+01 0.  0.
<mgrwt>
<rscale>  0 0.12500052E+03</rscale>
<asrwt>0</asrwt>
<pdfrwt beam="2">  1        4 0.49022412E-01 0.12500052E+03</pdfrwt>
<pdfrwt beam="1">  1       -4 0.18860026E-02 0.12500052E+03</pdfrwt>
<totfact> 0.71876821E+03</totfact>
</mgrwt>
</event>
<event>
 5    1  0.3251953E-002  0.1249925E+03  0.7818608E-02  0.1235081E+00
         -4   -1    0    0    0  501 -0.00000000000E+00  0.00000000000E+00  0.18485055963E+02  0.18528631735E+02  0.12700000000E+01 0.  1.
          4   -1    0    0  501    0  0.00000000000E+00 -0.00000000000E+00 -0.21099982079E+03  0.21100364279E+03  0.12700000000E+01 0.  1.
         25    2    1    2    0    0  0.00000000000E+00  0.00000000000E+00 -0.19251476482E+03  0.22953227453E+03  0.12499252128E+03 0.  0.
    9000005    1    3    3    0    0  0.47122107551E+02  0.96838240590E+01 -0.23020750968E+02  0.53340645324E+02  0.10000000000E+01 0.  0.
    9000005    1    3    3    0    0 -0.47122107551E+02 -0.96838240590E+01 -0.16949401386E+03  0.17619162920E+03  0.10000000000E+01 0.  0.
<mgrwt>
<rscale>  0 0.12499252E+03</rscale>
<asrwt>0</asrwt>
<pdfrwt beam="2">  1        4 0.32465155E-01 0.12499252E+03</pdfrwt>
<pdfrwt beam="1">  1       -4 0.28475009E-02 0.12499252E+03</pdfrwt>
<totfact> 0.85395718E+03</totfact>
</mgrwt>
</event>
<event>
 5    1  0.3251953E-002  0.1249982E+03  0.7818608E-02  0.1235072E+00
          4   -1    0    0  501    0  0.00000000000E+00  0.00000000000E+00  0.25594323013E+02  0.25625812582E+02  0.12700000000E+01 0.  1.
         -4   -1    0    0    0  501 -0.00000000000E+00 -0.00000000000E+00 -0.15248949563E+03  0.15249478410E+03  0.12700000000E+01 0.  1.
         25    2    1    2    0    0  0.00000000000E+00  0.00000000000E+00 -0.12689517261E+03  0.17812059668E+03  0.12499824850E+03 0.  0.
    9000005    1    3    3    0    0 -0.29114929937E+02  0.53925676665E+02 -0.80869898875E+02  0.10147215526E+03  0.10000000000E+01 0.  0.
    9000005    1    3    3    0    0  0.29114929937E+02 -0.53925676665E+02 -0.46025273739E+02  0.76648441418E+02  0.10000000000E+01 0.  0.
<mgrwt>
<rscale>  0 0.12499825E+03</rscale>
<asrwt>0</asrwt>
<pdfrwt beam="1">  1        4 0.39404173E-02 0.12499825E+03</pdfrwt>
<pdfrwt beam="2">  1       -4 0.23462751E-01 0.12499825E+03</pdfrwt>
<totfact> 0.93960091E+03</totfact>
</mgrwt>
</event>
<event>
 5    1  0.3251953E-002  0.1250033E+03  0.7818608E-02  0.1235064E+00
         -4   -1    0    0    0  501 -0.00000000000E+00  0.00000000000E+00  0.21681695071E+03  0.21682067017E+03  0.12700000000E+01 0. -1.
          4   -1    0    0  501    0  0.00000000000E+00 -0.00000000000E+00 -0.17991038320E+02  0.18035807712E+02  0.12700000000E+01 0. -1.
         25    2    1    2    0    0  0.00000000000E+00  0.00000000000E+00  0.19882591239E+03  0.23485647788E+03  0.12500328703E+03 0.  0.
    9000005    1    3    3    0    0 -0.26734707477E+02 -0.54882960790E+02  0.12451951269E+03  0.13868306677E+03  0.10000000000E+01 0.  0.
    9000005    1    3    3    0    0  0.26734707477E+02  0.54882960790E+02  0.74306399699E+02  0.96173411113E+02  0.10000000000E+01 0.  0.
<mgrwt>
<rscale>  0 0.12500329E+03</rscale>
<asrwt>0</asrwt>
<pdfrwt beam="2">  1        4 0.27715820E-02 0.12500329E+03</pdfrwt>
<pdfrwt beam="1">  1       -4 0.33360184E-01 0.12500329E+03</pdfrwt>
<totfact> 0.84563216E+03</totfact>
</mgrwt>
</event>
<event>
 5    1  0.3251953E-002  0.1250013E+03  0.7818608E-02  0.1235067E+00
         -4   -1    0    0    0  501 -0.00000000000E+00  0.00000000000E+00  0.58242780631E+02  0.58256625337E+02  0.12700000000E+01 0. -1.
          4   -1    0    0  501    0  0.00000000000E+00 -0.00000000000E+00 -0.67041984785E+02  0.67054012735E+02  0.12700000000E+01 0. -1.
         25    2    1    2    0    0  0.00000000000E+00  0.00000000000E+00 -0.87992041540E+01  0.12531063807E+03  0.12500132007E+03 0.  0.
    9000005    1    3    3    0    0  0.40407302283E+02  0.98432935105E+00  0.43379783949E+02  0.59300292053E+02  0.10000000000E+01 0.  0.
    9000005    1    3    3    0    0 -0.40407302283E+02 -0.98432935105E+00 -0.52178988103E+02  0.66010346019E+02  0.10000000000E+01 0.  0.
<mgrwt>
<rscale>  0 0.12500132E+03</rscale>
<asrwt>0</asrwt>
<pdfrwt beam="2">  1        4 0.10316142E-01 0.12500132E+03</pdfrwt>
<pdfrwt beam="1">  1       -4 0.89624180E-02 0.12500132E+03</pdfrwt>
<totfact> 0.10445808E+04</totfact>
</mgrwt>
</event>
<event>
 5    1  0.3251953E-002  0.1249942E+03  0.7818608E-02  0.1235078E+00
         -4   -1    0    0    0  501 -0.00000000000E+00  0.00000000000E+00  0.10819945764E+02  0.10894224449E+02  0.12700000000E+01 0.  1.
          4   -1    0    0  501    0  0.00000000000E+00 -0.00000000000E+00 -0.35967904212E+03  0.35968128425E+03  0.12700000000E+01 0.  1.
         25    2    1    2    0    0  0.00000000000E+00  0.00000000000E+00 -0.34885909636E+03  0.37057550870E+03  0.12499415402E+03 0.  0.
    9000005    1    3    3    0    0 -0.31548471665E+02 -0.31070413106E+02 -0.30515446520E+03  0.30835194870E+03  0.10000000000E+01 0.  0.
    9000005    1    3    3    0    0  0.31548471665E+02  0.31070413106E+02 -0.43704631161E+02  0.62223560007E+02  0.10000000000E+01 0.  0.
<mgrwt>
<rscale>  0 0.12499415E+03</rscale>
<asrwt>0</asrwt>
<pdfrwt beam="2">  1        4 0.55341114E-01 0.12499415E+03</pdfrwt>
<pdfrwt beam="1">  1       -4 0.16704935E-02 0.12499415E+03</pdfrwt>
<totfact> 0.67527502E+03</totfact>
</mgrwt>
</event>
<event>
 5    1  0.3251953E-002  0.1249951E+03  0.7818608E-02  0.1235077E+00
          4   -1    0    0  501    0  0.00000000000E+00  0.00000000000E+00  0.89618342191E+01  0.90513740708E+01  0.12700000000E+01 0. -1.
         -4   -1    0    0    0  501 -0.00000000000E+00 -0.00000000000E+00 -0.43358515028E+03  0.43358701023E+03  0.12700000000E+01 0. -1.
         25    2    1    2    0    0  0.00000000000E+00  0.00000000000E+00 -0.42462331606E+03  0.44263838430E+03  0.12499511477E+03 0.  0.
    9000005    1    3    3    0    0 -0.21825986144E+02 -0.45270055760E+02 -0.34382462141E+03  0.34747967121E+03  0.10000000000E+01 0.  0.
    9000005    1    3    3    0    0  0.21825986144E+02  0.45270055760E+02 -0.80798694653E+02  0.95158713092E+02  0.10000000000E+01 0.  0.
<mgrwt>
<rscale>  0 0.12499511E+03</rscale>
<asrwt>0</asrwt>
<pdfrwt beam="1">  1        4 0.13857748E-02 0.12499511E+03</pdfrwt>
<pdfrwt beam="2">  1       -4 0.66712422E-01 0.12499511E+03</pdfrwt>
<totfact> 0.60613402E+03</totfact>
</mgrwt>
</event>
<event>
 5    1  0.3251953E-002  0.1250079E+03  0.7818608E-02  0.1235057E+00
          4   -1    0    0  501    0  0.00000000000E+00  0.00000000000E+00  0.44564258323E+03  0.44564439286E+03  0.12700000000E+01 0.  1.
         -4   -1    0    0    0  501 -0.00000000000E+00 -0.00000000000E+00 -0.87187077271E+01  0.88107187238E+01  0.12700000000E+01 0.  1.
         25    2    1    2    0    0  0.00000000000E+00  0.00000000000E+00  0.43692387550E+03  0.45445511158E+03  0.12500790159E+03 0.  0.
    9000005    1    3    3    0    0  0.48353560444E+01  0.58955187024E+02  0.14515189953E+03  0.15674555395E+03  0.10000000000E+01 0.  0.
    9000005    1    3    3    0    0 -0.48353560444E+01 -0.58955187024E+02  0.29177197597E+03  0.29770955764E+03  0.10000000000E+01 0.  0.
<mgrwt>
<rscale>  0 0.12500790E+03</rscale>
<asrwt>0</asrwt>
<pdfrwt beam="1">  1        4 0.68567599E-01 0.12500790E+03</pdfrwt>
<pdfrwt beam="2">  1       -4 0.13485569E-02 0.12500790E+03</pdfrwt>
<totfact> 0.59569422E+03</totfact>
</mgrwt>
</event>
<event>
 5    1  0.3251953E-002  0.1250014E+03  0.7818608E-02  0.1235067E+00
          4   -1    0    0  501    0  0.00000000000E+00  0.00000000000E+00  0.33586757184E+03  0.33586997293E+03  0.12700000000E+01 0. -1.
         -4   -1    0    0    0  501 -0.00000000000E+00 -0.00000000000E+00 -0.11593470745E+02  0.11662824012E+02  0.12700000000E+01 0. -1.
         25    2    1    2    0    0  0.00000000000E+00  0.00000000000E+00  0.32427410109E+03  0.34753279694E+03  0.12500140922E+03 0.  0.
    9000005    1    3    3    0    0 -0.61109530590E+02 -0.12006341399E+02  0.17653293380E+03  0.18719883460E+03  0.10000000000E+01 0.  0.
    9000005    1    3    3    0    0  0.61109530590E+02  0.12006341399E+02  0.14774116730E+03  0.16033396233E+03  0.10000000000E+01 0.  0.
<mgrwt>
<rscale>  0 0.12500141E+03</rscale>
<asrwt>0</asrwt>
<pdfrwt beam="1">  1        4 0.51677456E-01 0.12500141E+03</pdfrwt>
<pdfrwt beam="2">  1       -4 0.17891304E-02 0.12500141E+03</pdfrwt>
<totfact> 0.69994647E+03</totfact>
</mgrwt>
</event>
<event>
 5    1  0.3251953E-002  0.1249985E+03  0.7818608E-02  0.1235072E+00
         -4   -1    0    0    0  501 -0.00000000000E+00  0.00000000000E+00  0.60954161952E+02  0.60967390950E+02  0.12700000000E+01 0. -1.
          4   -1    0    0  501    0  0.00000000000E+00 -0.00000000000E+00 -0.64056984374E+02  0.64069572709E+02  0.12700000000E+01 0. -1.
         25    2    1    2    0    0  0.00000000000E+00  0.00000000000E+00 -0.31028224229E+01  0.12503696366E+03  0.12499845909E+03 0.  0.
    9000005    1    3    3    0    0 -0.35842725310E+02  0.34062534259E+02 -0.39775699736E+02  0.63467026772E+02  0.10000000000E+01 0.  0.
    9000005    1    3    3    0    0  0.35842725310E+02 -0.34062534259E+02  0.36672877313E+02  0.61569936887E+02  0.10000000000E+01 0.  0.
<mgrwt>
<rscale>  0 0.12499846E+03</rscale>
<asrwt>0</asrwt>
<pdfrwt beam="2">  1        4 0.98569067E-02 0.12499846E+03</pdfrwt>
<pdfrwt beam="1">  1       -4 0.93795493E-02 0.12499846E+03</pdfrwt>
<totfact> 0.10452424E+04</totfact>
</mgrwt>
</event>
<event>
 5    1  0.3251953E-002  0.1250014E+03  0.7818608E-02  0.1235067E+00
         -4   -1    0    0    0  501 -0.00000000000E+00  0.00000000000E+00  0.46105939689E+01  0.47823087256E+01  0.12700000000E+01 0. -1.
          4   -1    0    0  501    0  0.00000000000E+00 -0.00000000000E+00 -0.83159124823E+03  0.83159221800E+03  0.12700000000E+01 0. -1.
         25    2    1    2    0    0  0.00000000000E+00  0.00000000000E+00 -0.82698065427E+03  0.83637452673E+03  0.12500138570E+03 0.  0.
    9000005    1    3    3    0    0  0.32451303772E+02 -0.48957895238E+02 -0.27070943950E+03  0.27701004179E+03  0.10000000000E+01 0.  0.
    9000005    1    3    3    0    0 -0.32451303772E+02  0.48957895238E+02 -0.55627121477E+03  0.55936448493E+03  0.10000000000E+01 0.  0.
<mgrwt>
<rscale>  0 0.12500139E+03</rscale>
<asrwt>0</asrwt>
<pdfrwt beam="2">  1        4 0.12795028E+00 0.12500139E+03</pdfrwt>
<pdfrwt beam="1">  1       -4 0.72260623E-03 0.12500139E+03</pdfrwt>
<totfact> 0.36690390E+03</totfact>
</mgrwt>
</event>
<event>
 5    1  0.3251953E-002  0.1250018E+03  0.7818608E-02  0.1235067E+00
         -4   -1    0    0    0  501 -0.00000000000E+00  0.00000000000E+00  0.46368607271E+03  0.46368781192E+03  0.12700000000E+01 0.  1.
          4   -1    0    0  501    0  0.00000000000E+00 -0.00000000000E+00 -0.83749537514E+01  0.84706995188E+01  0.12700000000E+01 0.  1.
         25    2    1    2    0    0  0.00000000000E+00  0.00000000000E+00  0.45531111895E+03  0.47215851144E+03  0.12500177950E+03 0.  0.
    9000005    1    3    3    0    0 -0.61000492889E+02  0.86325109461E+01  0.26723183361E+03  0.27424338328E+03  0.10000000000E+01 0.  0.
    9000005    1    3    3    0    0  0.61000492889E+02 -0.86325109461E+01  0.18807928534E+03  0.19791512816E+03  0.10000000000E+01 0.  0.
<mgrwt>
<rscale>  0 0.12500178E+03</rscale>
<asrwt>0</asrwt>
<pdfrwt beam="2">  1        4 0.12959529E-02 0.12500178E+03</pdfrwt>
<pdfrwt beam="1">  1       -4 0.71343838E-01 0.12500178E+03</pdfrwt>
<totfact> 0.58088851E+03</totfact>
</mgrwt>
</event>
<event>
 5    1  0.3251953E-002  0.1250029E+03  0.7818608E-02  0.1235065E+00
          4   -1    0    0  501    0  0.00000000000E+00  0.00000000000E+00  0.18005281560E+02  0.18050015625E+02  0.12700000000E+01 0. -1.
         -4   -1    0    0    0  501 -0.00000000000E+00 -0.00000000000E+00 -0.21664454945E+03  0.21664827187E+03  0.12700000000E+01 0. -1.
         25    2    1    2    0    0  0.00000000000E+00  0.00000000000E+00 -0.19863926789E+03  0.23469828750E+03  0.12500290959E+03 0.  0.
    9000005    1    3    3    0    0 -0.83559975464E+01  0.48936928177E+02 -0.17058681348E+03  0.17766684150E+03  0.10000000000E+01 0.  0.
    9000005    1    3    3    0    0  0.83559975464E+01 -0.48936928177E+02 -0.28052454406E+02  0.57031445998E+02  0.10000000000E+01 0.  0.
<mgrwt>
<rscale>  0 0.12500291E+03</rscale>
<asrwt>0</asrwt>
<pdfrwt beam="1">  1        4 0.27737709E-02 0.12500291E+03</pdfrwt>
<pdfrwt beam="2">  1       -4 0.33333656E-01 0.12500291E+03</pdfrwt>
<totfact> 0.84587865E+03</totfact>
</mgrwt>
</event>
<event>
 5    1  0.3251953E-002  0.1250000E+03  0.7818608E-02  0.1235069E+00
         -4   -1    0    0    0  501 -0.00000000000E+00  0.00000000000E+00  0.24620659378E+02  0.24653392631E+02  0.12700000000E+01 0.  1.
          4   -1    0    0  501    0  0.00000000000E+00 -0.00000000000E+00 -0.15851682212E+03  0.15852190951E+03  0.12700000000E+01 0.  1.
         25    2    1    2    0    0  0.00000000000E+00  0.00000000000E+00 -0.13389616274E+03  0.18317530214E+03  0.12500003567E+03 0.  0.
    9000005    1    3    3    0    0 -0.12632424220E+02  0.53781197016E+02 -0.24142865353E+02  0.60298202640E+02  0.10000000000E+01 0.  0.
    9000005    1    3    3    0    0  0.12632424220E+02 -0.53781197016E+02 -0.10975329738E+03  0.12287709950E+03  0.10000000000E+01 0.  0.
<mgrwt>
<rscale>  0 0.12500004E+03</rscale>
<asrwt>0</asrwt>
<pdfrwt beam="2">  1        4 0.24390112E-01 0.12500004E+03</pdfrwt>
<pdfrwt beam="1">  1       -4 0.37907031E-02 0.12500004E+03</pdfrwt>
<totfact> 0.93048467E+03</totfact>
</mgrwt>
</event>
<event>
 5    1  0.3251953E-002  0.1249930E+03  0.7818608E-02  0.1235080E+00
          4   -1    0    0  501    0  0.00000000000E+00  0.00000000000E+00  0.31270999044E+03  0.31271256934E+03  0.12700000000E+01 0.  1.
         -4   -1    0    0    0  501 -0.00000000000E+00 -0.00000000000E+00 -0.12455295729E+02  0.12519875866E+02  0.12700000000E+01 0.  1.
         25    2    1    2    0    0  0.00000000000E+00  0.00000000000E+00  0.30025469471E+03  0.32523244520E+03  0.12499304667E+03 0.  0.
    9000005    1    3    3    0    0  0.24886332763E+02 -0.43602643856E+02  0.53316864648E+02  0.73240754813E+02  0.10000000000E+01 0.  0.
    9000005    1    3    3    0    0 -0.24886332763E+02  0.43602643856E+02  0.24693783006E+03  0.25199169039E+03  0.10000000000E+01 0.  0.
<mgrwt>
<rscale>  0 0.12499305E+03</rscale>
<asrwt>0</asrwt>
<pdfrwt beam="1">  1        4 0.48114392E-01 0.12499305E+03</pdfrwt>
<pdfrwt beam="2">  1       -4 0.19213656E-02 0.12499305E+03</pdfrwt>
<totfact> 0.72549266E+03</totfact>
</mgrwt>
</event>
<event>
 5    1  0.3251953E-002  0.1249961E+03  0.7818608E-02  0.1235075E+00
          4   -1    0    0  501    0  0.00000000000E+00  0.00000000000E+00  0.87036033781E+01  0.87957723802E+01  0.12700000000E+01 0.  1.
         -4   -1    0    0    0  501 -0.00000000000E+00 -0.00000000000E+00 -0.44632368912E+03  0.44632549599E+03  0.12700000000E+01 0.  1.
         25    2    1    2    0    0  0.00000000000E+00  0.00000000000E+00 -0.43762008574E+03  0.45512126837E+03  0.12499611785E+03 0.  0.
    9000005    1    3    3    0    0 -0.29339939188E+02 -0.30611437102E+02 -0.51672215661E+02  0.66849906390E+02  0.10000000000E+01 0.  0.
    9000005    1    3    3    0    0  0.29339939188E+02  0.30611437102E+02 -0.38594787008E+03  0.38827136198E+03  0.10000000000E+01 0.  0.
<mgrwt>
<rscale>  0 0.12499612E+03</rscale>
<asrwt>0</asrwt>
<pdfrwt beam="1">  1        4 0.13462452E-02 0.12499612E+03</pdfrwt>
<pdfrwt beam="2">  1       -4 0.68672394E-01 0.12499612E+03</pdfrwt>
<totfact> 0.59527790E+03</totfact>
</mgrwt>
</event>
<event>
 5    1  0.3251953E-002  0.1250026E+03  0.7818608E-02  0.1235065E+00
          4   -1    0    0  501    0  0.00000000000E+00  0.00000000000E+00  0.44908798247E+02  0.44926752164E+02  0.12700000000E+01 0.  1.
         -4   -1    0    0    0  501 -0.00000000000E+00 -0.00000000000E+00 -0.86945506122E+02  0.86954780977E+02  0.12700000000E+01 0.  1.
         25    2    1    2    0    0  0.00000000000E+00  0.00000000000E+00 -0.42036707875E+02  0.13188153314E+03  0.12500261587E+03 0.  0.
    9000005    1    3    3    0    0  0.43102798896E+02  0.30071310528E+02 -0.56691458338E+02  0.77311425016E+02  0.10000000000E+01 0.  0.
    9000005    1    3    3    0    0 -0.43102798896E+02 -0.30071310528E+02  0.14654750463E+02  0.54570108124E+02  0.10000000000E+01 0.  0.
<mgrwt>
<rscale>  0 0.12500262E+03</rscale>
<asrwt>0</asrwt>
<pdfrwt beam="1">  1        4 0.69111404E-02 0.12500262E+03</pdfrwt>
<pdfrwt beam="2">  1       -4 0.13378326E-01 0.12500262E+03</pdfrwt>
<totfact> 0.10303620E+04</totfact>
</mgrwt>
</event>
<event>
 5    1  0.3251953E-002  0.1249990E+03  0.7818608E-02  0.1235071E+00
          4   -1    0    0  501    0  0.00000000000E+00  0.00000000000E+00  0.71737557963E+02  0.71748798753E+02  0.12700000000E+01 0.  1.
         -4   -1    0    0    0  501 -0.00000000000E+00 -0.00000000000E+00 -0.54428169043E+02  0.54442983803E+02  0.12700000000E+01 0.  1.
         25    2    1    2    0    0  0.00000000000E+00  0.00000000000E+00  0.17309388920E+02  0.12619178256E+03  0.12499900416E+03 0.  0.
    9000005    1    3    3    0    0 -0.15604300902E+02 -0.45513392935E+02  0.48912839309E+02  0.68617993211E+02  0.10000000000E+01 0.  0.
    9000005    1    3    3    0    0  0.15604300902E+02  0.45513392935E+02 -0.31603450389E+02  0.57573789345E+02  0.10000000000E+01 0.  0.
<mgrwt>
<rscale>  0 0.12499900E+03</rscale>
<asrwt>0</asrwt>
<pdfrwt beam="1">  1        4 0.11038552E-01 0.12499900E+03</pdfrwt>
<pdfrwt beam="2">  1       -4 0.83755688E-02 0.12499900E+03</pdfrwt>
<totfact> 0.10426993E+04</totfact>
</mgrwt>
</event>
<event>
 5    1  0.3251953E-002  0.1250032E+03  0.7818608E-02  0.1235064E+00
         -4   -1    0    0    0  501 -0.00000000000E+00  0.00000000000E+00  0.21444672267E+03  0.21445048325E+03  0.12700000000E+01 0. -1.
          4   -1    0    0  501    0  0.00000000000E+00 -0.00000000000E+00 -0.18190344482E+02  0.18234624548E+02  0.12700000000E+01 0. -1.
         25    2    1    2    0    0  0.00000000000E+00  0.00000000000E+00  0.19625637819E+03  0.23268510779E+03  0.12500317360E+03 0.  0.
    9000005    1    3    3    0    0  0.61413114002E+02  0.35889144707E+01  0.11860374498E+03  0.13361249643E+03  0.10000000000E+01 0.  0.
    9000005    1    3    3    0    0 -0.61413114002E+02 -0.35889144707E+01  0.77652633211E+02  0.99072611367E+02  0.10000000000E+01 0.  0.
<mgrwt>
<rscale>  0 0.12500317E+03</rscale>
<asrwt>0</asrwt>
<pdfrwt beam="2">  1        4 0.28022097E-02 0.12500317E+03</pdfrwt>
<pdfrwt beam="1">  1       -4 0.32995502E-01 0.12500317E+03</pdfrwt>
<totfact> 0.84892981E+03</totfact>
</mgrwt>
</event>
<event>
 5    1  0.3251953E-002  0.1250040E+03  0.7818608E-02  0.1235063E+00
          4   -1    0    0  501    0  0.00000000000E+00  0.00000000000E+00  0.30235774214E+01  0.32794695339E+01  0.12700000000E+01 0.  1.
         -4   -1    0    0    0  501 -0.00000000000E+00 -0.00000000000E+00 -0.12393039152E+04  0.12393045659E+04  0.12700000000E+01 0.  1.
         25    2    1    2    0    0  0.00000000000E+00  0.00000000000E+00 -0.12362803378E+04  0.12425840355E+04  0.12500404636E+03 0.  0.
    9000005    1    3    3    0    0  0.56123134564E+02 -0.12183035678E+02 -0.37318155121E+03  0.37757608869E+03  0.10000000000E+01 0.  0.
    9000005    1    3    3    0    0 -0.56123134564E+02  0.12183035678E+02 -0.86309878657E+03  0.86500794676E+03  0.10000000000E+01 0.  0.
<mgrwt>
<rscale>  0 0.12500405E+03</rscale>
<asrwt>0</asrwt>
<pdfrwt beam="1">  1        4 0.48490081E-03 0.12500405E+03</pdfrwt>
<pdfrwt beam="2">  1       -4 0.19068149E+00 0.12500405E+03</pdfrwt>
<totfact> 0.23622497E+03</totfact>
</mgrwt>
</event>
<event>
 5    1  0.3251953E-002  0.1249993E+03  0.7818608E-02  0.1235070E+00
          4   -1    0    0  501    0  0.00000000000E+00  0.00000000000E+00  0.17730485848E+04  0.17730490397E+04  0.12700000000E+01 0. -1.
         -4   -1    0    0    0  501 -0.00000000000E+00 -0.00000000000E+00 -0.20195828587E+01  0.23857105699E+01  0.12700000000E+01 0. -1.
         25    2    1    2    0    0  0.00000000000E+00  0.00000000000E+00  0.17710290020E+04  0.17754347502E+04  0.12499930611E+03 0.  0.
    9000005    1    3    3    0    0 -0.13262296849E+02  0.56890400300E+02  0.57020818545E+03  0.57319349344E+03  0.10000000000E+01 0.  0.
    9000005    1    3    3    0    0  0.13262296849E+02 -0.56890400300E+02  0.12008208165E+04  0.12022412568E+04  0.10000000000E+01 0.  0.
<mgrwt>
<rscale>  0 0.12499931E+03</rscale>
<asrwt>0</asrwt>
<pdfrwt beam="1">  1        4 0.27280458E+00 0.12499931E+03</pdfrwt>
<pdfrwt beam="2">  1       -4 0.33890412E-03 0.12499931E+03</pdfrwt>
<totfact> 0.13086011E+03</totfact>
</mgrwt>
</event>
<event>
 5    1  0.3251953E-002  0.1250013E+03  0.7818608E-02  0.1235067E+00
          4   -1    0    0  501    0  0.00000000000E+00  0.00000000000E+00  0.18739023477E+03  0.18739453830E+03  0.12700000000E+01 0.  1.
         -4   -1    0    0    0  501 -0.00000000000E+00 -0.00000000000E+00 -0.20822093658E+02  0.20860788199E+02  0.12700000000E+01 0.  1.
         25    2    1    2    0    0  0.00000000000E+00  0.00000000000E+00  0.16656814111E+03  0.20825532650E+03  0.12500134153E+03 0.  0.
    9000005    1    3    3    0    0 -0.35395825865E+02 -0.40023993463E+02  0.13728356128E+03  0.14731789008E+03  0.10000000000E+01 0.  0.
    9000005    1    3    3    0    0  0.35395825865E+02  0.40023993463E+02  0.29284579828E+02  0.60937436417E+02  0.10000000000E+01 0.  0.
<mgrwt>
<rscale>  0 0.12500134E+03</rscale>
<asrwt>0</asrwt>
<pdfrwt beam="1">  1        4 0.28832574E-01 0.12500134E+03</pdfrwt>
<pdfrwt beam="2">  1       -4 0.32067066E-02 0.12500134E+03</pdfrwt>
<totfact> 0.88758941E+03</totfact>
</mgrwt>
</event>
<event>
 5    1  0.3251953E-002  0.1249965E+03  0.7818608E-02  0.1235075E+00
         -4   -1    0    0    0  501 -0.00000000000E+00  0.00000000000E+00  0.28630878486E+03  0.28631160156E+03  0.12700000000E+01 0.  1.
          4   -1    0    0  501    0  0.00000000000E+00 -0.00000000000E+00 -0.13610266530E+02  0.13669391172E+02  0.12700000000E+01 0.  1.
         25    2    1    2    0    0  0.00000000000E+00  0.00000000000E+00  0.27269851833E+03  0.29998099273E+03  0.12499645636E+03 0.  0.
    9000005    1    3    3    0    0  0.26269885058E+02  0.14483392777E+02  0.47876033254E+01  0.30394023638E+02  0.10000000000E+01 0.  0.
    9000005    1    3    3    0    0 -0.26269885058E+02 -0.14483392777E+02  0.26791091500E+03  0.26958696909E+03  0.10000000000E+01 0.  0.
<mgrwt>
<rscale>  0 0.12499646E+03</rscale>
<asrwt>0</asrwt>
<pdfrwt beam="2">  1        4 0.20986518E-02 0.12499646E+03</pdfrwt>
<pdfrwt beam="1">  1       -4 0.44052272E-01 0.12499646E+03</pdfrwt>
<totfact> 0.75607167E+03</totfact>
</mgrwt>
</event>
<event>
 5    1  0.3251953E-002  0.1249957E+03  0.7818608E-02  0.1235076E+00
         -4   -1    0    0    0  501 -0.00000000000E+00  0.00000000000E+00  0.36935918933E+02  0.36957746244E+02  0.12700000000E+01 0.  1.
          4   -1    0    0  501    0  0.00000000000E+00 -0.00000000000E+00 -0.10569335380E+03  0.10570098362E+03  0.12700000000E+01 0.  1.
         25    2    1    2    0    0  0.00000000000E+00  0.00000000000E+00 -0.68757434865E+02  0.14265872986E+03  0.12499571335E+03 0.  0.
    9000005    1    3    3    0    0 -0.31078809005E+02 -0.80911860812E+01  0.26802495944E+02  0.41841766814E+02  0.10000000000E+01 0.  0.
    9000005    1    3    3    0    0  0.31078809005E+02  0.80911860812E+01 -0.95559930809E+02  0.10081696304E+03  0.10000000000E+01 0.  0.
<mgrwt>
<rscale>  0 0.12499571E+03</rscale>
<asrwt>0</asrwt>
<pdfrwt beam="2">  1        4 0.16262782E-01 0.12499571E+03</pdfrwt>
<pdfrwt beam="1">  1       -4 0.56847150E-02 0.12499571E+03</pdfrwt>
<totfact> 0.10079750E+04</totfact>
</mgrwt>
</event>
<event>
 5    1  0.3251953E-002  0.1249951E+03  0.7818608E-02  0.1235077E+00
          4   -1    0    0  501    0  0.00000000000E+00  0.00000000000E+00  0.39253766987E+02  0.39274306138E+02  0.12700000000E+01 0.  1.
         -4   -1    0    0    0  501 -0.00000000000E+00 -0.00000000000E+00 -0.99454353317E+02  0.99462461731E+02  0.12700000000E+01 0.  1.
         25    2    1    2    0    0  0.00000000000E+00  0.00000000000E+00 -0.60200586330E+02  0.13873676787E+03  0.12499512056E+03 0.  0.
    9000005    1    3    3    0    0 -0.24519601507E+02 -0.56924556972E+02 -0.38933122031E+02  0.73201120454E+02  0.10000000000E+01 0.  0.
    9000005    1    3    3    0    0  0.24519601507E+02  0.56924556972E+02 -0.21267464299E+02  0.65535647416E+02  0.10000000000E+01 0.  0.
<mgrwt>
<rscale>  0 0.12499512E+03</rscale>
<asrwt>0</asrwt>
<pdfrwt beam="1">  1        4 0.60412448E-02 0.12499512E+03</pdfrwt>
<pdfrwt beam="2">  1       -4 0.15302873E-01 0.12499512E+03</pdfrwt>
<totfact> 0.10160951E+04</totfact>
</mgrwt>
</event>
<event>
 5    1  0.3251953E-002  0.1249956E+03  0.7818608E-02  0.1235076E+00
          4   -1    0    0  501    0  0.00000000000E+00  0.00000000000E+00  0.36189781146E+02  0.36212058205E+02  0.12700000000E+01 0.  1.
         -4   -1    0    0    0  501 -0.00000000000E+00 -0.00000000000E+00 -0.10787109973E+03  0.10787857552E+03  0.12700000000E+01 0.  1.
         25    2    1    2    0    0  0.00000000000E+00  0.00000000000E+00 -0.71681318583E+02  0.14409063373E+03  0.12499559710E+03 0.  0.
    9000005    1    3    3    0    0  0.57121216733E+02 -0.21462617931E+02 -0.20310485900E+02  0.64319462117E+02  0.10000000000E+01 0.  0.
    9000005    1    3    3    0    0 -0.57121216733E+02  0.21462617931E+02 -0.51370832683E+02  0.79771171610E+02  0.10000000000E+01 0.  0.
<mgrwt>
<rscale>  0 0.12499560E+03</rscale>
<asrwt>0</asrwt>
<pdfrwt beam="1">  1        4 0.55699474E-02 0.12499560E+03</pdfrwt>
<pdfrwt beam="2">  1       -4 0.16597842E-01 0.12499560E+03</pdfrwt>
<totfact> 0.10050494E+04</totfact>
</mgrwt>
</event>
<event>
 5    1  0.3251953E-002  0.1249890E+03  0.7818608E-02  0.1235086E+00
         -4   -1    0    0    0  501 -0.00000000000E+00  0.00000000000E+00  0.47801698065E+02  0.47818565829E+02  0.12700000000E+01 0. -1.
          4   -1    0    0  501    0  0.00000000000E+00 -0.00000000000E+00 -0.81667245059E+02  0.81677119290E+02  0.12700000000E+01 0. -1.
         25    2    1    2    0    0  0.00000000000E+00  0.00000000000E+00 -0.33865546993E+02  0.12949568512E+03  0.12498902828E+03 0.  0.
    9000005    1    3    3    0    0 -0.36138643685E+02  0.20412086450E+02  0.31462368485E+02  0.52091606534E+02  0.10000000000E+01 0.  0.
    9000005    1    3    3    0    0  0.36138643685E+02 -0.20412086450E+02 -0.65327915479E+02  0.77404078584E+02  0.10000000000E+01 0.  0.
<mgrwt>
<rscale>  0 0.12498903E+03</rscale>
<asrwt>0</asrwt>
<pdfrwt beam="2">  1        4 0.12566249E-01 0.12498903E+03</pdfrwt>
<pdfrwt beam="1">  1       -4 0.73561645E-02 0.12498903E+03</pdfrwt>
<totfact> 0.10357873E+04</totfact>
</mgrwt>
</event>
<event>
 5    1  0.3251953E-002  0.1249885E+03  0.7818608E-02  0.1235087E+00
         -4   -1    0    0    0  501 -0.00000000000E+00  0.00000000000E+00  0.82461795832E+02  0.82471574932E+02  0.12700000000E+01 0. -1.
          4   -1    0    0  501    0  0.00000000000E+00 -0.00000000000E+00 -0.47340606010E+02  0.47357638005E+02  0.12700000000E+01 0. -1.
         25    2    1    2    0    0  0.00000000000E+00  0.00000000000E+00  0.35121189822E+02  0.12982921294E+03  0.12498850570E+03 0.  0.
    9000005    1    3    3    0    0  0.52287059295E+02 -0.15755802075E+02  0.49107021400E+02  0.73448495012E+02  0.10000000000E+01 0.  0.
    9000005    1    3    3    0    0 -0.52287059295E+02  0.15755802075E+02 -0.13985831578E+02  0.56380717925E+02  0.10000000000E+01 0.  0.
<mgrwt>
<rscale>  0 0.12498851E+03</rscale>
<asrwt>0</asrwt>
<pdfrwt beam="2">  1        4 0.72852326E-02 0.12498851E+03</pdfrwt>
<pdfrwt beam="1">  1       -4 0.12688492E-01 0.12498851E+03</pdfrwt>
<totfact> 0.10350848E+04</totfact>
</mgrwt>
</event>
<event>
 5    1  0.3251953E-002  0.1249992E+03  0.7818608E-02  0.1235071E+00
         -4   -1    0    0    0  501 -0.00000000000E+00  0.00000000000E+00  0.72517156721E+02  0.72528276685E+02  0.12700000000E+01 0. -1.
          4   -1    0    0  501    0  0.00000000000E+00 -0.00000000000E+00 -0.53843106811E+02  0.53858082505E+02  0.12700000000E+01 0. -1.
         25    2    1    2    0    0  0.00000000000E+00  0.00000000000E+00  0.18674049910E+02  0.12638635919E+03  0.12499916659E+03 0.  0.
    9000005    1    3    3    0    0 -0.44617564429E+02  0.36823316111E+02 -0.14558149960E+02  0.59662579522E+02  0.10000000000E+01 0.  0.
    9000005    1    3    3    0    0  0.44617564429E+02 -0.36823316111E+02  0.33232199869E+02  0.66723779667E+02  0.10000000000E+01 0.  0.
<mgrwt>
<rscale>  0 0.12499917E+03</rscale>
<asrwt>0</asrwt>
<pdfrwt beam="2">  1        4 0.82855623E-02 0.12499917E+03</pdfrwt>
<pdfrwt beam="1">  1       -4 0.11158493E-01 0.12499917E+03</pdfrwt>
<totfact> 0.10422703E+04</totfact>
</mgrwt>
</event>
<event>
 5    1  0.3251953E-002  0.1250021E+03  0.7818608E-02  0.1235066E+00
         -4   -1    0    0    0  501 -0.00000000000E+00  0.00000000000E+00  0.78093694680E+01  0.79119625561E+01  0.12700000000E+01 0. -1.
          4   -1    0    0  501    0  0.00000000000E+00 -0.00000000000E+00 -0.49684976342E+03  0.49685138654E+03  0.12700000000E+01 0. -1.
         25    2    1    2    0    0  0.00000000000E+00  0.00000000000E+00 -0.48904039395E+03  0.50476334910E+03  0.12500212669E+03 0.  0.
    9000005    1    3    3    0    0  0.43056438328E+02 -0.32395104318E+02 -0.11669328020E+03  0.12853645906E+03  0.10000000000E+01 0.  0.
    9000005    1    3    3    0    0 -0.43056438328E+02  0.32395104318E+02 -0.37234711375E+03  0.37622689004E+03  0.10000000000E+01 0.  0.
<mgrwt>
<rscale>  0 0.12500213E+03</rscale>
<asrwt>0</asrwt>
<pdfrwt beam="2">  1        4 0.76446417E-01 0.12500213E+03</pdfrwt>
<pdfrwt beam="1">  1       -4 0.12094585E-02 0.12500213E+03</pdfrwt>
<totfact> 0.55494090E+03</totfact>
</mgrwt>
</event>
<event>
 5    1  0.3251953E-002  0.1250216E+03  0.7818608E-02  0.1235036E+00
         -4   -1    0    0    0  501 -0.00000000000E+00  0.00000000000E+00  0.27990876273E+03  0.27991164383E+03  0.12700000000E+01 0. -1.
          4   -1    0    0  501    0  0.00000000000E+00 -0.00000000000E+00 -0.13928422289E+02  0.13986202038E+02  0.12700000000E+01 0. -1.
         25    2    1    2    0    0  0.00000000000E+00  0.00000000000E+00  0.26598034044E+03  0.29389784587E+03  0.12502160736E+03 0.  0.
    9000005    1    3    3    0    0  0.29640548394E+01 -0.17930661217E+02  0.27357183478E+03  0.27417666388E+03  0.10000000000E+01 0.  0.
    9000005    1    3    3    0    0 -0.29640548394E+01  0.17930661217E+02 -0.75914943380E+01  0.19721181989E+02  0.10000000000E+01 0.  0.
<mgrwt>
<rscale>  0 0.12502161E+03</rscale>
<asrwt>0</asrwt>
<pdfrwt beam="2">  1        4 0.21475007E-02 0.12502161E+03</pdfrwt>
<pdfrwt beam="1">  1       -4 0.43067547E-01 0.12502161E+03</pdfrwt>
<totfact> 0.76334081E+03</totfact>
</mgrwt>
</event>
<event>
 5    1  0.3251953E-002  0.1249980E+03  0.7818608E-02  0.1235072E+00
         -4   -1    0    0    0  501 -0.00000000000E+00  0.00000000000E+00  0.50143899084E+01  0.51727174824E+01  0.12700000000E+01 0. -1.
          4   -1    0    0  501    0  0.00000000000E+00 -0.00000000000E+00 -0.76671719675E+03  0.76671824857E+03  0.12700000000E+01 0. -1.
         25    2    1    2    0    0  0.00000000000E+00  0.00000000000E+00 -0.76170280684E+03  0.77189096606E+03  0.12499799008E+03 0.  0.
    9000005    1    3    3    0    0  0.17920986624E+02 -0.59570252687E+02 -0.41756551162E+03  0.42217500312E+03  0.10000000000E+01 0.  0.
    9000005    1    3    3    0    0 -0.17920986624E+02  0.59570252687E+02 -0.34413729523E+03  0.34971596294E+03  0.10000000000E+01 0.  0.
<mgrwt>
<rscale>  0 0.12499799E+03</rscale>
<asrwt>0</asrwt>
<pdfrwt beam="2">  1        4 0.11796866E+00 0.12499799E+03</pdfrwt>
<pdfrwt beam="1">  1       -4 0.78370516E-03 0.12499799E+03</pdfrwt>
<totfact> 0.39550084E+03</totfact>
</mgrwt>
</event>
<event>
 5    1  0.3251953E-002  0.1250066E+03  0.7818608E-02  0.1235059E+00
          4   -1    0    0  501    0  0.00000000000E+00  0.00000000000E+00  0.80621957047E+02  0.80631959285E+02  0.12700000000E+01 0.  1.
         -4   -1    0    0    0  501 -0.00000000000E+00 -0.00000000000E+00 -0.48435232145E+02  0.48451879354E+02  0.12700000000E+01 0.  1.
         25    2    1    2    0    0  0.00000000000E+00  0.00000000000E+00  0.32186724902E+02  0.12908383864E+03  0.12500660838E+03 0.  0.
    9000005    1    3    3    0    0  0.15618331266E+02 -0.30235619849E+02  0.70219963735E+02  0.78038248866E+02  0.10000000000E+01 0.  0.
    9000005    1    3    3    0    0 -0.15618331266E+02  0.30235619849E+02 -0.38033238832E+02  0.51045589773E+02  0.10000000000E+01 0.  0.
<mgrwt>
<rscale>  0 0.12500661E+03</rscale>
<asrwt>0</asrwt>
<pdfrwt beam="1">  1        4 0.12405428E-01 0.12500661E+03</pdfrwt>
<pdfrwt beam="2">  1       -4 0.74536241E-02 0.12500661E+03</pdfrwt>
<totfact> 0.10362600E+04</totfact>
</mgrwt>
</event>
<event>
 5    1  0.3251953E-002  0.1250012E+03  0.7818608E-02  0.1235067E+00
          4   -1    0    0  501    0  0.00000000000E+00  0.00000000000E+00  0.20768456545E+03  0.20768844846E+03  0.12700000000E+01 0.  1.
         -4   -1    0    0    0  501 -0.00000000000E+00 -0.00000000000E+00 -0.18783427645E+02  0.18826312812E+02  0.12700000000E+01 0.  1.
         25    2    1    2    0    0  0.00000000000E+00  0.00000000000E+00  0.18890113780E+03  0.22651476128E+03  0.12500118885E+03 0.  0.
    9000005    1    3    3    0    0 -0.92334471500E+01 -0.55771940137E+02  0.46180662829E+02  0.73002873041E+02  0.10000000000E+01 0.  0.
    9000005    1    3    3    0    0  0.92334471500E+01  0.55771940137E+02  0.14272047497E+03  0.15351188824E+03  0.10000000000E+01 0.  0.
<mgrwt>
<rscale>  0 0.12500119E+03</rscale>
<asrwt>0</asrwt>
<pdfrwt beam="1">  1        4 0.31955069E-01 0.12500119E+03</pdfrwt>
<pdfrwt beam="2">  1       -4 0.28933557E-02 0.12500119E+03</pdfrwt>
<totfact> 0.85845369E+03</totfact>
</mgrwt>
</event>
<event>
 5    1  0.3251953E-002  0.1250113E+03  0.7818608E-02  0.1235052E+00
         -4   -1    0    0    0  501 -0.00000000000E+00  0.00000000000E+00  0.22691450931E+03  0.22691806326E+03  0.12700000000E+01 0. -1.
          4   -1    0    0  501    0  0.00000000000E+00 -0.00000000000E+00 -0.17190619648E+02  0.17237468024E+02  0.12700000000E+01 0. -1.
         25    2    1    2    0    0  0.00000000000E+00  0.00000000000E+00  0.20972388966E+03  0.24415553128E+03  0.12501125375E+03 0.  0.
    9000005    1    3    3    0    0 -0.55029519842E+02 -0.24571871132E+02  0.72537129287E+02  0.94311505291E+02  0.10000000000E+01 0.  0.
    9000005    1    3    3    0    0  0.55029519842E+02  0.24571871132E+02  0.13718676037E+03  0.14984402599E+03  0.10000000000E+01 0.  0.
<mgrwt>
<rscale>  0 0.12501125E+03</rscale>
<asrwt>0</asrwt>
<pdfrwt beam="2">  1        4 0.26485881E-02 0.12501125E+03</pdfrwt>
<pdfrwt beam="1">  1       -4 0.34913798E-01 0.12501125E+03</pdfrwt>
<totfact> 0.83161484E+03</totfact>
</mgrwt>
</event>
<event>
 5    1  0.3251953E-002  0.1250069E+03  0.7818608E-02  0.1235058E+00
          4   -1    0    0  501    0  0.00000000000E+00  0.00000000000E+00  0.16018435978E+03  0.16018939422E+03  0.12700000000E+01 0. -1.
         -4   -1    0    0    0  501 -0.00000000000E+00 -0.00000000000E+00 -0.24366712932E+02  0.24399786866E+02  0.12700000000E+01 0. -1.
         25    2    1    2    0    0  0.00000000000E+00  0.00000000000E+00  0.13581764685E+03  0.18458918108E+03  0.12500693011E+03 0.  0.
    9000005    1    3    3    0    0  0.10213614830E+02  0.59056202161E+02  0.41754088796E+02  0.73050372161E+02  0.10000000000E+01 0.  0.
    9000005    1    3    3    0    0 -0.10213614830E+02 -0.59056202161E+02  0.94063558056E+02  0.11153880892E+03  0.10000000000E+01 0.  0.
<mgrwt>
<rscale>  0 0.12500693E+03</rscale>
<asrwt>0</asrwt>
<pdfrwt beam="1">  1        4 0.24646679E-01 0.12500693E+03</pdfrwt>
<pdfrwt beam="2">  1       -4 0.37516565E-02 0.12500693E+03</pdfrwt>
<totfact> 0.92782986E+03</totfact>
</mgrwt>
</event>
<event>
 5    1  0.3251953E-002  0.1249964E+03  0.7818608E-02  0.1235075E+00
         -4   -1    0    0    0  501 -0.00000000000E+00  0.00000000000E+00  0.47388567119E+03  0.47388737297E+03  0.12700000000E+01 0.  1.
          4   -1    0    0  501    0  0.00000000000E+00 -0.00000000000E+00 -0.81918955498E+01  0.82897558890E+01  0.12700000000E+01 0.  1.
         25    2    1    2    0    0  0.00000000000E+00  0.00000000000E+00  0.46569377564E+03  0.48217712886E+03  0.12499636364E+03 0.  0.
    9000005    1    3    3    0    0  0.44349415606E+02  0.41150602109E+01  0.63764804486E+02  0.77786597022E+02  0.10000000000E+01 0.  0.
    9000005    1    3    3    0    0 -0.44349415606E+02 -0.41150602109E+01  0.40192897115E+03  0.40439053184E+03  0.10000000000E+01 0.  0.
<mgrwt>
<rscale>  0 0.12499636E+03</rscale>
<asrwt>0</asrwt>
<pdfrwt beam="2">  1        4 0.12679501E-02 0.12499636E+03</pdfrwt>
<pdfrwt beam="1">  1       -4 0.72913155E-01 0.12499636E+03</pdfrwt>
<totfact> 0.57278789E+03</totfact>
</mgrwt>
</event>
<event>
 5    1  0.3251953E-002  0.1249967E+03  0.7818608E-02  0.1235074E+00
         -4   -1    0    0    0  501 -0.00000000000E+00  0.00000000000E+00  0.65690440479E+02  0.65702715852E+02  0.12700000000E+01 0. -1.
          4   -1    0    0  501    0  0.00000000000E+00 -0.00000000000E+00 -0.59436777225E+02  0.59450343875E+02  0.12700000000E+01 0. -1.
         25    2    1    2    0    0  0.00000000000E+00  0.00000000000E+00  0.62536632541E+01  0.12515305973E+03  0.12499672018E+03 0.  0.
    9000005    1    3    3    0    0 -0.22776961851E+02 -0.13139160069E+02  0.59886512579E+02  0.65412704479E+02  0.10000000000E+01 0.  0.
    9000005    1    3    3    0    0  0.22776961851E+02  0.13139160069E+02 -0.53632849324E+02  0.59740355248E+02  0.10000000000E+01 0.  0.
<mgrwt>
<rscale>  0 0.12499672E+03</rscale>
<asrwt>0</asrwt>
<pdfrwt beam="2">  1        4 0.91461074E-02 0.12499672E+03</pdfrwt>
<pdfrwt beam="1">  1       -4 0.10108209E-01 0.12499672E+03</pdfrwt>
<totfact> 0.10450314E+04</totfact>
</mgrwt>
</event>
<event>
 5    1  0.3251953E-002  0.1249931E+03  0.7818608E-02  0.1235080E+00
          4   -1    0    0  501    0  0.00000000000E+00  0.00000000000E+00  0.25789652766E+02  0.25820904124E+02  0.12700000000E+01 0.  1.
         -4   -1    0    0    0  501 -0.00000000000E+00 -0.00000000000E+00 -0.15132346460E+03  0.15132879382E+03  0.12700000000E+01 0.  1.
         25    2    1    2    0    0  0.00000000000E+00  0.00000000000E+00 -0.12553381184E+03  0.17714969795E+03  0.12499311008E+03 0.  0.
    9000005    1    3    3    0    0  0.28595116765E+01 -0.40248694629E+02 -0.13039168054E+03  0.13649587752E+03  0.10000000000E+01 0.  0.
    9000005    1    3    3    0    0 -0.28595116765E+01  0.40248694629E+02  0.48578687063E+01  0.40653820420E+02  0.10000000000E+01 0.  0.
<mgrwt>
<rscale>  0 0.12499311E+03</rscale>
<asrwt>0</asrwt>
<pdfrwt beam="1">  1        4 0.39704529E-02 0.12499311E+03</pdfrwt>
<pdfrwt beam="2">  1       -4 0.23283346E-01 0.12499311E+03</pdfrwt>
<totfact> 0.94147145E+03</totfact>
</mgrwt>
</event>
<event>
 5    1  0.3251953E-002  0.1249993E+03  0.7818608E-02  0.1235070E+00
          4   -1    0    0  501    0  0.00000000000E+00  0.00000000000E+00  0.45075486556E+02  0.45093374106E+02  0.12700000000E+01 0.  1.
         -4   -1    0    0    0  501 -0.00000000000E+00 -0.00000000000E+00 -0.86619431390E+02  0.86628741156E+02  0.12700000000E+01 0.  1.
         25    2    1    2    0    0  0.00000000000E+00  0.00000000000E+00 -0.41543944834E+02  0.13172211526E+03  0.12499926518E+03 0.  0.
    9000005    1    3    3    0    0 -0.11395623424E+02 -0.19400112547E+01  0.43944212852E+02  0.45450167437E+02  0.10000000000E+01 0.  0.
    9000005    1    3    3    0    0  0.11395623424E+02  0.19400112547E+01 -0.85488157686E+02  0.86271947824E+02  0.10000000000E+01 0.  0.
<mgrwt>
<rscale>  0 0.12499927E+03</rscale>
<asrwt>0</asrwt>
<pdfrwt beam="1">  1        4 0.69367824E-02 0.12499927E+03</pdfrwt>
<pdfrwt beam="2">  1       -4 0.13328158E-01 0.12499927E+03</pdfrwt>
<totfact> 0.10307804E+04</totfact>
</mgrwt>
</event>
<event>
 5    1  0.3251953E-002  0.1250024E+03  0.7818608E-02  0.1235065E+00
         -4   -1    0    0    0  501 -0.00000000000E+00  0.00000000000E+00  0.25965094846E+01  0.28904604310E+01  0.12700000000E+01 0. -1.
          4   -1    0    0  501    0  0.00000000000E+00 -0.00000000000E+00 -0.14235889395E+04  0.14235895060E+04  0.12700000000E+01 0. -1.
         25    2    1    2    0    0  0.00000000000E+00  0.00000000000E+00 -0.14209924300E+04  0.14264799664E+04  0.12500243374E+03 0.  0.
    9000005    1    3    3    0    0  0.22610924049E+02 -0.53813880494E+02 -0.96521172193E+03  0.96697562315E+03  0.10000000000E+01 0.  0.
    9000005    1    3    3    0    0 -0.22610924049E+02  0.53813880494E+02 -0.45578070807E+03  0.45950434325E+03  0.10000000000E+01 0.  0.
<mgrwt>
<rscale>  0 0.12500243E+03</rscale>
<asrwt>0</asrwt>
<pdfrwt beam="2">  1        4 0.21903575E+00 0.12500243E+03</pdfrwt>
<pdfrwt beam="1">  1       -4 0.42211932E-03 0.12500243E+03</pdfrwt>
<totfact> 0.19418763E+03</totfact>
</mgrwt>
</event>
<event>
 5    1  0.3251953E-002  0.1249983E+03  0.7818608E-02  0.1235072E+00
          4   -1    0    0  501    0  0.00000000000E+00  0.00000000000E+00  0.12435349575E+02  0.12500032762E+02  0.12700000000E+01 0.  1.
         -4   -1    0    0    0  501 -0.00000000000E+00 -0.00000000000E+00 -0.31323545100E+03  0.31323802557E+03  0.12700000000E+01 0.  1.
         25    2    1    2    0    0  0.00000000000E+00  0.00000000000E+00 -0.30080010142E+03  0.32573805833E+03  0.12499832650E+03 0.  0.
    9000005    1    3    3    0    0 -0.11059967181E+02  0.42304913438E+01 -0.31029785375E+03  0.31052532582E+03  0.10000000000E+01 0.  0.
    9000005    1    3    3    0    0  0.11059967181E+02 -0.42304913438E+01  0.94977523316E+01  0.15212732510E+02  0.10000000000E+01 0.  0.
<mgrwt>
<rscale>  0 0.12499833E+03</rscale>
<asrwt>0</asrwt>
<pdfrwt beam="1">  1        4 0.19183046E-02 0.12499833E+03</pdfrwt>
<pdfrwt beam="2">  1       -4 0.48195237E-01 0.12499833E+03</pdfrwt>
<totfact> 0.72481508E+03</totfact>
</mgrwt>
</event>
<event>
 5    1  0.3251953E-002  0.1249997E+03  0.7818608E-02  0.1235070E+00
          4   -1    0    0  501    0  0.00000000000E+00  0.00000000000E+00  0.63633672635E+01  0.64888629921E+01  0.12700000000E+01 0. -1.
         -4   -1    0    0    0  501 -0.00000000000E+00 -0.00000000000E+00 -0.60774195788E+03  0.60774328484E+03  0.12700000000E+01 0. -1.
         25    2    1    2    0    0  0.00000000000E+00  0.00000000000E+00 -0.60137859061E+03  0.61423214783E+03  0.12499968871E+03 0.  0.
    9000005    1    3    3    0    0 -0.56797517293E+02  0.23352248191E+02 -0.24381880249E+03  0.25143566556E+03  0.10000000000E+01 0.  0.
    9000005    1    3    3    0    0  0.56797517293E+02 -0.23352248191E+02 -0.35755978812E+03  0.36279648227E+03  0.10000000000E+01 0.  0.
<mgrwt>
<rscale>  0 0.12499969E+03</rscale>
<asrwt>0</asrwt>
<pdfrwt beam="1">  1        4 0.98873565E-03 0.12499969E+03</pdfrwt>
<pdfrwt beam="2">  1       -4 0.93508473E-01 0.12499969E+03</pdfrwt>
<totfact> 0.47981730E+03</totfact>
</mgrwt>
</event>
<event>
 5    1  0.3251953E-002  0.1249978E+03  0.7818608E-02  0.1235073E+00
         -4   -1    0    0    0  501 -0.00000000000E+00  0.00000000000E+00  0.24422878282E+03  0.24423208482E+03  0.12700000000E+01 0. -1.
          4   -1    0    0  501    0  0.00000000000E+00 -0.00000000000E+00 -0.15965022949E+02  0.16015456839E+02  0.12700000000E+01 0. -1.
         25    2    1    2    0    0  0.00000000000E+00  0.00000000000E+00  0.22826375987E+03  0.26024754166E+03  0.12499775547E+03 0.  0.
    9000005    1    3    3    0    0 -0.62406326113E+02 -0.10943603161E+01  0.12050249848E+03  0.13571145605E+03  0.10000000000E+01 0.  0.
    9000005    1    3    3    0    0  0.62406326113E+02  0.10943603161E+01  0.10776126139E+03  0.12453608561E+03  0.10000000000E+01 0.  0.
<mgrwt>
<rscale>  0 0.12499776E+03</rscale>
<asrwt>0</asrwt>
<pdfrwt beam="2">  1        4 0.24602911E-02 0.12499776E+03</pdfrwt>
<pdfrwt beam="1">  1       -4 0.37577789E-01 0.12499776E+03</pdfrwt>
<totfact> 0.80875377E+03</totfact>
</mgrwt>
</event>
<event>
 5    1  0.3251953E-002  0.1249991E+03  0.7818608E-02  0.1235071E+00
          4   -1    0    0  501    0  0.00000000000E+00  0.00000000000E+00  0.20911937700E+02  0.20950466304E+02  0.12700000000E+01 0. -1.
         -4   -1    0    0    0  501 -0.00000000000E+00 -0.00000000000E+00 -0.18657995130E+03  0.18658427352E+03  0.12700000000E+01 0. -1.
         25    2    1    2    0    0  0.00000000000E+00  0.00000000000E+00 -0.16566801360E+03  0.20753473983E+03  0.12499911002E+03 0.  0.
    9000005    1    3    3    0    0  0.29646203649E+02  0.51726507771E+02 -0.51743319022E+02  0.78948717915E+02  0.10000000000E+01 0.  0.
    9000005    1    3    3    0    0 -0.29646203649E+02 -0.51726507771E+02 -0.11392469457E+03  0.12858602191E+03  0.10000000000E+01 0.  0.
<mgrwt>
<rscale>  0 0.12499911E+03</rscale>
<asrwt>0</asrwt>
<pdfrwt beam="1">  1        4 0.32205175E-02 0.12499911E+03</pdfrwt>
<pdfrwt beam="2">  1       -4 0.28707903E-01 0.12499911E+03</pdfrwt>
<totfact> 0.88881849E+03</totfact>
</mgrwt>
</event>
<event>
 5    1  0.3251953E-002  0.1249984E+03  0.7818608E-02  0.1235072E+00
         -4   -1    0    0    0  501 -0.00000000000E+00  0.00000000000E+00  0.11440893986E+03  0.11441598848E+03  0.12700000000E+01 0.  1.
          4   -1    0    0  501    0  0.00000000000E+00 -0.00000000000E+00 -0.34122099481E+02  0.34145725545E+02  0.12700000000E+01 0.  1.
         25    2    1    2    0    0  0.00000000000E+00  0.00000000000E+00  0.80286840377E+02  0.14856171402E+03  0.12499842453E+03 0.  0.
    9000005    1    3    3    0    0  0.59502265206E+02 -0.12232005266E+02  0.57570784432E+02  0.83699084449E+02  0.10000000000E+01 0.  0.
    9000005    1    3    3    0    0 -0.59502265206E+02  0.12232005266E+02  0.22716055945E+02  0.64862629573E+02  0.10000000000E+01 0.  0.
<mgrwt>
<rscale>  0 0.12499842E+03</rscale>
<asrwt>0</asrwt>
<pdfrwt beam="2">  1        4 0.52519133E-02 0.12499842E+03</pdfrwt>
<pdfrwt beam="1">  1       -4 0.17603735E-01 0.12499842E+03</pdfrwt>
<totfact> 0.99594706E+03</totfact>
</mgrwt>
</event>
<event>
 5    1  0.3251953E-002  0.1249993E+03  0.7818608E-02  0.1235070E+00
         -4   -1    0    0    0  501 -0.00000000000E+00  0.00000000000E+00  0.42744455309E+01  0.44591237476E+01  0.12700000000E+01 0.  1.
          4   -1    0    0  501    0  0.00000000000E+00 -0.00000000000E+00 -0.89434204033E+03  0.89434294206E+03  0.12700000000E+01 0.  1.
         25    2    1    2    0    0  0.00000000000E+00  0.00000000000E+00 -0.89006759480E+03  0.89880206580E+03  0.12499932071E+03 0.  0.
    9000005    1    3    3    0    0  0.33057636427E+02 -0.38209948210E+02 -0.18060484632E+03  0.18754177663E+03  0.10000000000E+01 0.  0.
    9000005    1    3    3    0    0 -0.33057636427E+02  0.38209948210E+02 -0.70946274849E+03  0.71126028917E+03  0.10000000000E+01 0.  0.
<mgrwt>
<rscale>  0 0.12499932E+03</rscale>
<asrwt>0</asrwt>
<pdfrwt beam="2">  1        4 0.13760521E+00 0.12499932E+03</pdfrwt>
<pdfrwt beam="1">  1       -4 0.67188310E-03 0.12499932E+03</pdfrwt>
<totfact> 0.34206370E+03</totfact>
</mgrwt>
</event>
<event>
 5    1  0.3251953E-002  0.1250098E+03  0.7818608E-02  0.1235054E+00
          4   -1    0    0  501    0  0.00000000000E+00  0.00000000000E+00  0.32723777884E+02  0.32748412771E+02  0.12700000000E+01 0. -1.
         -4   -1    0    0    0  501 -0.00000000000E+00 -0.00000000000E+00 -0.11931609953E+03  0.11932285828E+03  0.12700000000E+01 0. -1.
         25    2    1    2    0    0  0.00000000000E+00  0.00000000000E+00 -0.86592321649E+02  0.15207127105E+03  0.12500976486E+03 0.  0.
    9000005    1    3    3    0    0  0.72350259841E+01  0.50901777928E+02 -0.72354105491E-01  0.51423164356E+02  0.10000000000E+01 0.  0.
    9000005    1    3    3    0    0 -0.72350259841E+01 -0.50901777928E+02 -0.86519967543E+02  0.10064810669E+03  0.10000000000E+01 0.  0.
<mgrwt>
<rscale>  0 0.12500976E+03</rscale>
<asrwt>0</asrwt>
<pdfrwt beam="1">  1        4 0.50368423E-02 0.12500976E+03</pdfrwt>
<pdfrwt beam="2">  1       -4 0.18358738E-01 0.12500976E+03</pdfrwt>
<totfact> 0.98870688E+03</totfact>
</mgrwt>
</event>
<event>
 5    1  0.3251953E-002  0.1249972E+03  0.7818608E-02  0.1235074E+00
          4   -1    0    0  501    0  0.00000000000E+00  0.00000000000E+00  0.27440304133E+02  0.27469677663E+02  0.12700000000E+01 0. -1.
         -4   -1    0    0    0  501 -0.00000000000E+00 -0.00000000000E+00 -0.14223976347E+03  0.14224543301E+03  0.12700000000E+01 0. -1.
         25    2    1    2    0    0  0.00000000000E+00  0.00000000000E+00 -0.11479945934E+03  0.16971511068E+03  0.12499721168E+03 0.  0.
    9000005    1    3    3    0    0 -0.57073638189E+02  0.13346939330E+02 -0.86820501624E+02  0.10475848638E+03  0.10000000000E+01 0.  0.
    9000005    1    3    3    0    0  0.57073638189E+02 -0.13346939330E+02 -0.27978957717E+02  0.64956624301E+02  0.10000000000E+01 0.  0.
<mgrwt>
<rscale>  0 0.12499721E+03</rscale>
<asrwt>0</asrwt>
<pdfrwt beam="1">  1        4 0.42242810E-02 0.12499721E+03</pdfrwt>
<pdfrwt beam="2">  1       -4 0.21885736E-01 0.12499721E+03</pdfrwt>
<totfact> 0.95507740E+03</totfact>
</mgrwt>
</event>
<event>
 5    1  0.3251953E-002  0.1250013E+03  0.7818608E-02  0.1235067E+00
          4   -1    0    0  501    0  0.00000000000E+00  0.00000000000E+00  0.51288375365E+01  0.52837367910E+01  0.12700000000E+01 0.  1.
         -4   -1    0    0    0  501 -0.00000000000E+00 -0.00000000000E+00 -0.75015504812E+03  0.75015612317E+03  0.12700000000E+01 0.  1.
         25    2    1    2    0    0  0.00000000000E+00  0.00000000000E+00 -0.74502621059E+03  0.75543985996E+03  0.12500131020E+03 0.  0.
    9000005    1    3    3    0    0 -0.58043146035E+02 -0.15104546631E+02 -0.26642028944E+03  0.27308959108E+03  0.10000000000E+01 0.  0.
    9000005    1    3    3    0    0  0.58043146035E+02  0.15104546631E+02 -0.47860592115E+03  0.48235026888E+03  0.10000000000E+01 0.  0.
<mgrwt>
<rscale>  0 0.12500131E+03</rscale>
<asrwt>0</asrwt>
<pdfrwt beam="1">  1        4 0.80105055E-03 0.12500131E+03</pdfrwt>
<pdfrwt beam="2">  1       -4 0.11542038E+00 0.12500131E+03</pdfrwt>
<totfact> 0.40314161E+03</totfact>
</mgrwt>
</event>
<event>
 5    1  0.3251953E-002  0.1249895E+03  0.7818608E-02  0.1235086E+00
         -4   -1    0    0    0  501 -0.00000000000E+00  0.00000000000E+00  0.24196387734E+02  0.24229694165E+02  0.12700000000E+01 0. -1.
          4   -1    0    0  501    0  0.00000000000E+00 -0.00000000000E+00 -0.16126545865E+03  0.16127045934E+03  0.12700000000E+01 0. -1.
         25    2    1    2    0    0  0.00000000000E+00  0.00000000000E+00 -0.13706907092E+03  0.18550015350E+03  0.12498950655E+03 0.  0.
    9000005    1    3    3    0    0  0.45098860989E+02  0.14885851487E+02 -0.12880353723E+03  0.13728381930E+03  0.10000000000E+01 0.  0.
    9000005    1    3    3    0    0 -0.45098860989E+02 -0.14885851487E+02 -0.82655336867E+01  0.48216334205E+02  0.10000000000E+01 0.  0.
<mgrwt>
<rscale>  0 0.12498951E+03</rscale>
<asrwt>0</asrwt>
<pdfrwt beam="2">  1        4 0.24813017E-01 0.12498951E+03</pdfrwt>
<pdfrwt beam="1">  1       -4 0.37254680E-02 0.12498951E+03</pdfrwt>
<totfact> 0.92658010E+03</totfact>
</mgrwt>
</event>
<event>
 5    1  0.3251953E-002  0.1250068E+03  0.7818608E-02  0.1235059E+00
         -4   -1    0    0    0  501 -0.00000000000E+00  0.00000000000E+00  0.71741840702E+02  0.71753080821E+02  0.12700000000E+01 0. -1.
          4   -1    0    0  501    0  0.00000000000E+00 -0.00000000000E+00 -0.54431699084E+02  0.54446512883E+02  0.12700000000E+01 0. -1.
         25    2    1    2    0    0  0.00000000000E+00  0.00000000000E+00  0.17310141619E+02  0.12619959370E+03  0.12500678561E+03 0.  0.
    9000005    1    3    3    0    0 -0.33322032931E+02 -0.52216025821E+02  0.17028969075E+02  0.64248400906E+02  0.10000000000E+01 0.  0.
    9000005    1    3    3    0    0  0.33322032931E+02  0.52216025821E+02  0.28117254387E+00  0.61951192799E+02  0.10000000000E+01 0.  0.
<mgrwt>
<rscale>  0 0.12500679E+03</rscale>
<asrwt>0</asrwt>
<pdfrwt beam="2">  1        4 0.83761118E-02 0.12500679E+03</pdfrwt>
<pdfrwt beam="1">  1       -4 0.11039210E-01 0.12500679E+03</pdfrwt>
<totfact> 0.10424991E+04</totfact>
</mgrwt>
</event>
<event>
 5    1  0.3251953E-002  0.1249917E+03  0.7818608E-02  0.1235082E+00
          4   -1    0    0  501    0  0.00000000000E+00  0.00000000000E+00  0.55861060548E+02  0.55875495395E+02  0.12700000000E+01 0. -1.
         -4   -1    0    0    0  501 -0.00000000000E+00 -0.00000000000E+00 -0.69889393229E+02  0.69900931224E+02  0.12700000000E+01 0. -1.
         25    2    1    2    0    0  0.00000000000E+00  0.00000000000E+00 -0.14028332681E+02  0.12577642662E+03  0.12499166122E+03 0.  0.
    9000005    1    3    3    0    0 -0.95114866236E+01 -0.30531238953E+02  0.47008128574E+02  0.56862897233E+02  0.10000000000E+01 0.  0.
    9000005    1    3    3    0    0  0.95114866236E+01  0.30531238953E+02 -0.61036461255E+02  0.68913529385E+02  0.10000000000E+01 0.  0.
<mgrwt>
<rscale>  0 0.12499166E+03</rscale>
<asrwt>0</asrwt>
<pdfrwt beam="1">  1        4 0.85960072E-02 0.12499166E+03</pdfrwt>
<pdfrwt beam="2">  1       -4 0.10754212E-01 0.12499166E+03</pdfrwt>
<totfact> 0.10437827E+04</totfact>
</mgrwt>
</event>
<event>
 5    1  0.3251953E-002  0.1249991E+03  0.7818608E-02  0.1235071E+00
         -4   -1    0    0    0  501 -0.00000000000E+00  0.00000000000E+00  0.50226421349E+02  0.50242475074E+02  0.12700000000E+01 0. -1.
          4   -1    0    0  501    0  0.00000000000E+00 -0.00000000000E+00 -0.77737971304E+02  0.77748344564E+02  0.12700000000E+01 0. -1.
         25    2    1    2    0    0  0.00000000000E+00  0.00000000000E+00 -0.27511549955E+02  0.12799081964E+03  0.12499905812E+03 0.  0.
    9000005    1    3    3    0    0 -0.56855531116E+01 -0.60851795884E+02 -0.40826814357E+00  0.61126371227E+02  0.10000000000E+01 0.  0.
    9000005    1    3    3    0    0  0.56855531116E+01  0.60851795884E+02 -0.27103281811E+02  0.66864448412E+02  0.10000000000E+01 0.  0.
<mgrwt>
<rscale>  0 0.12499906E+03</rscale>
<asrwt>0</asrwt>
<pdfrwt beam="2">  1        4 0.11961721E-01 0.12499906E+03</pdfrwt>
<pdfrwt beam="1">  1       -4 0.77291746E-02 0.12499906E+03</pdfrwt>
<totfact> 0.10387907E+04</totfact>
</mgrwt>
</event>
<event>
 5    1  0.3251953E-002  0.1250256E+03  0.7818608E-02  0.1235029E+00
          4   -1    0    0  501    0  0.00000000000E+00  0.00000000000E+00  0.15704401152E+03  0.15704914662E+03  0.12700000000E+01 0. -1.
         -4   -1    0    0    0  501 -0.00000000000E+00 -0.00000000000E+00 -0.24862033600E+02  0.24894449477E+02  0.12700000000E+01 0. -1.
         25    2    1    2    0    0  0.00000000000E+00  0.00000000000E+00  0.13218197792E+03  0.18194359610E+03  0.12502558488E+03 0.  0.
    9000005    1    3    3    0    0  0.40565596262E+02 -0.36563117481E+02  0.21845137238E+02  0.58827197630E+02  0.10000000000E+01 0.  0.
    9000005    1    3    3    0    0 -0.40565596262E+02  0.36563117481E+02  0.11033684068E+03  0.12311639847E+03  0.10000000000E+01 0.  0.
<mgrwt>
<rscale>  0 0.12502558E+03</rscale>
<asrwt>0</asrwt>
<pdfrwt beam="1">  1        4 0.24163506E-01 0.12502558E+03</pdfrwt>
<pdfrwt beam="2">  1       -4 0.38278168E-02 0.12502558E+03</pdfrwt>
<totfact> 0.93214841E+03</totfact>
</mgrwt>
</event>
<event>
 5    1  0.3251953E-002  0.1250026E+03  0.7818608E-02  0.1235065E+00
         -4   -1    0    0    0  501 -0.00000000000E+00  0.00000000000E+00  0.31052264053E+03  0.31052523759E+03  0.12700000000E+01 0. -1.
          4   -1    0    0  501    0  0.00000000000E+00 -0.00000000000E+00 -0.12545416323E+02  0.12609534913E+02  0.12700000000E+01 0. -1.
         25    2    1    2    0    0  0.00000000000E+00  0.00000000000E+00  0.29797722421E+03  0.32313477250E+03  0.12500262020E+03 0.  0.
    9000005    1    3    3    0    0  0.51321042971E+02  0.35586206396E+02  0.14310166233E+03  0.15613876296E+03  0.10000000000E+01 0.  0.
    9000005    1    3    3    0    0 -0.51321042971E+02 -0.35586206396E+02  0.15487556188E+03  0.16699600954E+03  0.10000000000E+01 0.  0.
<mgrwt>
<rscale>  0 0.12500262E+03</rscale>
<asrwt>0</asrwt>
<pdfrwt beam="2">  1        4 0.19351962E-02 0.12500262E+03</pdfrwt>
<pdfrwt beam="1">  1       -4 0.47777841E-01 0.12500262E+03</pdfrwt>
<totfact> 0.72780606E+03</totfact>
</mgrwt>
</event>
<event>
 5    1  0.3251953E-002  0.1250059E+03  0.7818608E-02  0.1235060E+00
          4   -1    0    0  501    0  0.00000000000E+00  0.00000000000E+00  0.78097418877E+01  0.79123301468E+01  0.12700000000E+01 0.  1.
         -4   -1    0    0    0  501 -0.00000000000E+00 -0.00000000000E+00 -0.49685632048E+03  0.49685794359E+03  0.12700000000E+01 0.  1.
         25    2    1    2    0    0  0.00000000000E+00  0.00000000000E+00 -0.48904657860E+03  0.50477027373E+03  0.12500589269E+03 0.  0.
    9000005    1    3    3    0    0 -0.19691538212E+02 -0.37325530982E+00 -0.48401697163E+03  0.48441854302E+03  0.10000000000E+01 0.  0.
    9000005    1    3    3    0    0  0.19691538212E+02  0.37325530982E+00 -0.50296069645E+01  0.20351730710E+02  0.10000000000E+01 0.  0.
<mgrwt>
<rscale>  0 0.12500589E+03</rscale>
<asrwt>0</asrwt>
<pdfrwt beam="1">  1        4 0.12095154E-02 0.12500589E+03</pdfrwt>
<pdfrwt beam="2">  1       -4 0.76447425E-01 0.12500589E+03</pdfrwt>
<totfact> 0.55488964E+03</totfact>
</mgrwt>
</event>
<event>
 5    1  0.3251953E-002  0.1249978E+03  0.7818608E-02  0.1235073E+00
         -4   -1    0    0    0  501 -0.00000000000E+00  0.00000000000E+00  0.60343380023E+01  0.61665334772E+01  0.12700000000E+01 0.  1.
          4   -1    0    0  501    0  0.00000000000E+00 -0.00000000000E+00 -0.64016787006E+03  0.64016912980E+03  0.12700000000E+01 0.  1.
         25    2    1    2    0    0  0.00000000000E+00  0.00000000000E+00 -0.63413353205E+03  0.64633566328E+03  0.12499781259E+03 0.  0.
    9000005    1    3    3    0    0  0.18890947320E+02 -0.37872874318E+02 -0.79329655507E+02  0.89918945404E+02  0.10000000000E+01 0.  0.
    9000005    1    3    3    0    0 -0.18890947320E+02  0.37872874318E+02 -0.55480387655E+03  0.55641671788E+03  0.10000000000E+01 0.  0.
<mgrwt>
<rscale>  0 0.12499781E+03</rscale>
<asrwt>0</asrwt>
<pdfrwt beam="2">  1        4 0.98497578E-01 0.12499781E+03</pdfrwt>
<pdfrwt beam="1">  1       -4 0.93862598E-03 0.12499781E+03</pdfrwt>
<totfact> 0.46069664E+03</totfact>
</mgrwt>
</event>
<event>
 5    1  0.3251953E-002  0.1249996E+03  0.7818608E-02  0.1235070E+00
         -4   -1    0    0    0  501 -0.00000000000E+00  0.00000000000E+00  0.27173752700E+03  0.27174049474E+03  0.12700000000E+01 0. -1.
          4   -1    0    0  501    0  0.00000000000E+00 -0.00000000000E+00 -0.14343893078E+02  0.14400005855E+02  0.12700000000E+01 0. -1.
         25    2    1    2    0    0  0.00000000000E+00  0.00000000000E+00  0.25739363392E+03  0.28614050059E+03  0.12499961318E+03 0.  0.
    9000005    1    3    3    0    0 -0.60204181843E+02  0.41403106451E+01  0.91535247284E+02  0.10964208671E+03  0.10000000000E+01 0.  0.
    9000005    1    3    3    0    0  0.60204181843E+02 -0.41403106451E+01  0.16585838664E+03  0.17649841388E+03  0.10000000000E+01 0.  0.
<mgrwt>
<rscale>  0 0.12499961E+03</rscale>
<asrwt>0</asrwt>
<pdfrwt beam="2">  1        4 0.22112975E-02 0.12499961E+03</pdfrwt>
<pdfrwt beam="1">  1       -4 0.41810317E-01 0.12499961E+03</pdfrwt>
<totfact> 0.77371566E+03</totfact>
</mgrwt>
</event>
<event>
 5    1  0.3251953E-002  0.1250021E+03  0.7818608E-02  0.1235066E+00
         -4   -1    0    0    0  501 -0.00000000000E+00  0.00000000000E+00  0.67039690139E+03  0.67039810433E+03  0.12700000000E+01 0.  1.
          4   -1    0    0  501    0  0.00000000000E+00 -0.00000000000E+00 -0.57565457086E+01  0.58949740029E+01  0.12700000000E+01 0.  1.
         25    2    1    2    0    0  0.00000000000E+00  0.00000000000E+00  0.66464035568E+03  0.67629307833E+03  0.12500210160E+03 0.  0.
    9000005    1    3    3    0    0  0.61511919989E+02 -0.16487518198E+00  0.39198962652E+03  0.39678786622E+03  0.10000000000E+01 0.  0.
    9000005    1    3    3    0    0 -0.61511919989E+02  0.16487518198E+00  0.27265072916E+03  0.27950521211E+03  0.10000000000E+01 0.  0.
<mgrwt>
<rscale>  0 0.12500210E+03</rscale>
<asrwt>0</asrwt>
<pdfrwt beam="2">  1        4 0.89636303E-03 0.12500210E+03</pdfrwt>
<pdfrwt beam="1">  1       -4 0.10314875E+00 0.12500210E+03</pdfrwt>
<totfact> 0.44365995E+03</totfact>
</mgrwt>
</event>
<event>
 5    1  0.3251953E-002  0.1249973E+03  0.7818608E-02  0.1235074E+00
          4   -1    0    0  501    0  0.00000000000E+00  0.00000000000E+00  0.63197189664E+02  0.63209949228E+02  0.12700000000E+01 0. -1.
         -4   -1    0    0    0  501 -0.00000000000E+00 -0.00000000000E+00 -0.61782283264E+02  0.61795334981E+02  0.12700000000E+01 0. -1.
         25    2    1    2    0    0  0.00000000000E+00  0.00000000000E+00  0.14149063993E+01  0.12500528421E+03  0.12499727645E+03 0.  0.
    9000005    1    3    3    0    0 -0.10851065675E+02  0.54242875424E+02  0.29778966676E+02  0.62831695957E+02  0.10000000000E+01 0.  0.
    9000005    1    3    3    0    0  0.10851065675E+02 -0.54242875424E+02 -0.28364060277E+02  0.62173588251E+02  0.10000000000E+01 0.  0.
<mgrwt>
<rscale>  0 0.12499728E+03</rscale>
<asrwt>0</asrwt>
<pdfrwt beam="1">  1        4 0.97246301E-02 0.12499728E+03</pdfrwt>
<pdfrwt beam="2">  1       -4 0.95069521E-02 0.12499728E+03</pdfrwt>
<totfact> 0.10453391E+04</totfact>
</mgrwt>
</event>
<event>
 5    1  0.3251953E-002  0.1249944E+03  0.7818608E-02  0.1235078E+00
          4   -1    0    0  501    0  0.00000000000E+00  0.00000000000E+00  0.54269704143E+02  0.54284562149E+02  0.12700000000E+01 0.  1.
         -4   -1    0    0    0  501 -0.00000000000E+00 -0.00000000000E+00 -0.71941662689E+02  0.71952871593E+02  0.12700000000E+01 0.  1.
         25    2    1    2    0    0  0.00000000000E+00  0.00000000000E+00 -0.17671958547E+02  0.12623743374E+03  0.12499436611E+03 0.  0.
    9000005    1    3    3    0    0  0.25352855085E+02 -0.36408212478E+02 -0.53280130911E+02  0.69340446687E+02  0.10000000000E+01 0.  0.
    9000005    1    3    3    0    0 -0.25352855085E+02  0.36408212478E+02  0.35608172365E+02  0.56896987055E+02  0.10000000000E+01 0.  0.
<mgrwt>
<rscale>  0 0.12499437E+03</rscale>
<asrwt>0</asrwt>
<pdfrwt beam="1">  1        4 0.83511904E-02 0.12499437E+03</pdfrwt>
<pdfrwt beam="2">  1       -4 0.11069953E-01 0.12499437E+03</pdfrwt>
<totfact> 0.10427086E+04</totfact>
</mgrwt>
</event>
<event>
 5    1  0.3251953E-002  0.1249998E+03  0.7818608E-02  0.1235070E+00
         -4   -1    0    0    0  501 -0.00000000000E+00  0.00000000000E+00  0.80016034468E+01  0.81017626305E+01  0.12700000000E+01 0.  1.
          4   -1    0    0  501    0  0.00000000000E+00 -0.00000000000E+00 -0.48504455783E+03  0.48504622046E+03  0.12700000000E+01 0.  1.
         25    2    1    2    0    0  0.00000000000E+00  0.00000000000E+00 -0.47704295439E+03  0.49314798309E+03  0.12499981159E+03 0.  0.
    9000005    1    3    3    0    0 -0.35558821409E+02  0.50687581093E+02 -0.20514378004E+03  0.21428632981E+03  0.10000000000E+01 0.  0.
    9000005    1    3    3    0    0  0.35558821409E+02 -0.50687581093E+02 -0.27189917435E+03  0.27886165328E+03  0.10000000000E+01 0.  0.
<mgrwt>
<rscale>  0 0.12499981E+03</rscale>
<asrwt>0</asrwt>
<pdfrwt beam="2">  1        4 0.74630049E-01 0.12499981E+03</pdfrwt>
<pdfrwt beam="1">  1       -4 0.12388487E-02 0.12499981E+03</pdfrwt>
<totfact> 0.56400189E+03</totfact>
</mgrwt>
</event>
<event>
 5    1  0.3251953E-002  0.1250008E+03  0.7818608E-02  0.1235068E+00
          4   -1    0    0  501    0  0.00000000000E+00  0.00000000000E+00  0.60688909720E+03  0.60689042602E+03  0.12700000000E+01 0. -1.
         -4   -1    0    0    0  501 -0.00000000000E+00 -0.00000000000E+00 -0.63726062645E+01  0.64979235608E+01  0.12700000000E+01 0. -1.
         25    2    1    2    0    0  0.00000000000E+00  0.00000000000E+00  0.60051649093E+03  0.61338834958E+03  0.12500084608E+03 0.  0.
    9000005    1    3    3    0    0  0.47973356758E+02 -0.25192228959E+02  0.14749043489E+03  0.15713217284E+03  0.10000000000E+01 0.  0.
    9000005    1    3    3    0    0 -0.47973356758E+02  0.25192228959E+02  0.45302605604E+03  0.45625617674E+03  0.10000000000E+01 0.  0.
<mgrwt>
<rscale>  0 0.12500085E+03</rscale>
<asrwt>0</asrwt>
<pdfrwt beam="1">  1        4 0.93377293E-01 0.12500085E+03</pdfrwt>
<pdfrwt beam="2">  1       -4 0.99014300E-03 0.12500085E+03</pdfrwt>
<totfact> 0.48032369E+03</totfact>
</mgrwt>
</event>
<event>
 5    1  0.3251953E-002  0.1249983E+03  0.7818608E-02  0.1235072E+00
         -4   -1    0    0    0  501 -0.00000000000E+00  0.00000000000E+00  0.85305028996E+02  0.85314482194E+02  0.12700000000E+01 0.  1.
          4   -1    0    0  501    0  0.00000000000E+00 -0.00000000000E+00 -0.45769547817E+02  0.45787164221E+02  0.12700000000E+01 0.  1.
         25    2    1    2    0    0  0.00000000000E+00  0.00000000000E+00  0.39535481179E+02  0.13110164642E+03  0.12499834967E+03 0.  0.
    9000005    1    3    3    0    0  0.21291161387E+02  0.57595590329E+02  0.76003853364E+01  0.61881592059E+02  0.10000000000E+01 0.  0.
    9000005    1    3    3    0    0 -0.21291161387E+02 -0.57595590329E+02  0.31935095843E+02  0.69220054356E+02  0.10000000000E+01 0.  0.
<mgrwt>
<rscale>  0 0.12499835E+03</rscale>
<asrwt>0</asrwt>
<pdfrwt beam="2">  1        4 0.70435513E-02 0.12499835E+03</pdfrwt>
<pdfrwt beam="1">  1       -4 0.13125933E-01 0.12499835E+03</pdfrwt>
<totfact> 0.10321295E+04</totfact>
</mgrwt>
</event>
<event>
 5    1  0.3251953E-002  0.1250072E+03  0.7818608E-02  0.1235058E+00
          4   -1    0    0  501    0  0.00000000000E+00  0.00000000000E+00  0.20564105271E+02  0.20603284340E+02  0.12700000000E+01 0. -1.
         -4   -1    0    0    0  501 -0.00000000000E+00 -0.00000000000E+00 -0.18975441385E+03  0.18975866377E+03  0.12700000000E+01 0. -1.
         25    2    1    2    0    0  0.00000000000E+00  0.00000000000E+00 -0.16919030858E+03  0.21036194811E+03  0.12500715458E+03 0.  0.
    9000005    1    3    3    0    0  0.84094825732E+01 -0.61916012288E+02 -0.86575716196E+02  0.10677390416E+03  0.10000000000E+01 0.  0.
    9000005    1    3    3    0    0 -0.84094825732E+01  0.61916012288E+02 -0.82614592385E+02  0.10358804395E+03  0.10000000000E+01 0.  0.
<mgrwt>
<rscale>  0 0.12500715E+03</rscale>
<asrwt>0</asrwt>
<pdfrwt beam="1">  1        4 0.31670493E-02 0.12500715E+03</pdfrwt>
<pdfrwt beam="2">  1       -4 0.29196326E-01 0.12500715E+03</pdfrwt>
<totfact> 0.88402664E+03</totfact>
</mgrwt>
</event>
<event>
 5    1  0.3251953E-002  0.1249999E+03  0.7818608E-02  0.1235069E+00
         -4   -1    0    0    0  501 -0.00000000000E+00  0.00000000000E+00  0.11298754199E+03  0.11299467928E+03  0.12700000000E+01 0.  1.
          4   -1    0    0  501    0  0.00000000000E+00 -0.00000000000E+00 -0.34552433751E+02  0.34575765763E+02  0.12700000000E+01 0.  1.
         25    2    1    2    0    0  0.00000000000E+00  0.00000000000E+00  0.78435108242E+02  0.14757044504E+03  0.12499988018E+03 0.  0.
    9000005    1    3    3    0    0 -0.40446744458E+02 -0.18354576263E+02  0.91114255545E+02  0.10136881755E+03  0.10000000000E+01 0.  0.
    9000005    1    3    3    0    0  0.40446744458E+02  0.18354576263E+02 -0.12679147304E+02  0.46201627497E+02  0.10000000000E+01 0.  0.
<mgrwt>
<rscale>  0 0.12499988E+03</rscale>
<asrwt>0</asrwt>
<pdfrwt beam="2">  1        4 0.53181027E-02 0.12499988E+03</pdfrwt>
<pdfrwt beam="1">  1       -4 0.17385043E-01 0.12499988E+03</pdfrwt>
<totfact> 0.99790485E+03</totfact>
</mgrwt>
</event>
<event>
 5    1  0.3251953E-002  0.1250027E+03  0.7818608E-02  0.1235065E+00
         -4   -1    0    0    0  501 -0.00000000000E+00  0.00000000000E+00  0.49612955132E+01  0.51212648017E+01  0.12700000000E+01 0.  1.
          4   -1    0    0  501    0  0.00000000000E+00 -0.00000000000E+00 -0.77472590159E+03  0.77472694253E+03  0.12700000000E+01 0.  1.
         25    2    1    2    0    0  0.00000000000E+00  0.00000000000E+00 -0.76976460607E+03  0.77984820734E+03  0.12500271086E+03 0.  0.
    9000005    1    3    3    0    0 -0.43203435097E+02  0.41633516560E+02 -0.49393079294E+03  0.49756257367E+03  0.10000000000E+01 0.  0.
    9000005    1    3    3    0    0  0.43203435097E+02 -0.41633516560E+02 -0.27583381314E+03  0.28228563367E+03  0.10000000000E+01 0.  0.
<mgrwt>
<rscale>  0 0.12500271E+03</rscale>
<asrwt>0</asrwt>
<pdfrwt beam="2">  1        4 0.11920089E+00 0.12500271E+03</pdfrwt>
<pdfrwt beam="1">  1       -4 0.77566225E-03 0.12500271E+03</pdfrwt>
<totfact> 0.39178042E+03</totfact>
</mgrwt>
</event>
<event>
 5    1  0.3251953E-002  0.1249986E+03  0.7818608E-02  0.1235071E+00
         -4   -1    0    0    0  501 -0.00000000000E+00  0.00000000000E+00  0.15441466947E+03  0.15441989201E+03  0.12700000000E+01 0. -1.
          4   -1    0    0  501    0  0.00000000000E+00 -0.00000000000E+00 -0.25274986528E+02  0.25306873453E+02  0.12700000000E+01 0. -1.
         25    2    1    2    0    0  0.00000000000E+00  0.00000000000E+00  0.12913968294E+03  0.17972676546E+03  0.12499861004E+03 0.  0.
    9000005    1    3    3    0    0  0.43511790650E+01  0.61353204204E+02  0.80452151070E+02  0.10127535256E+03  0.10000000000E+01 0.  0.
    9000005    1    3    3    0    0 -0.43511790650E+01 -0.61353204204E+02  0.48687531871E+02  0.78451412894E+02  0.10000000000E+01 0.  0.
<mgrwt>
<rscale>  0 0.12499861E+03</rscale>
<asrwt>0</asrwt>
<pdfrwt beam="2">  1        4 0.38913141E-02 0.12499861E+03</pdfrwt>
<pdfrwt beam="1">  1       -4 0.23758957E-01 0.12499861E+03</pdfrwt>
<totfact> 0.93669129E+03</totfact>
</mgrwt>
</event>
<event>
 5    1  0.3251953E-002  0.1249989E+03  0.7818608E-02  0.1235071E+00
         -4   -1    0    0    0  501 -0.00000000000E+00  0.00000000000E+00  0.21809829755E+02  0.21846774909E+02  0.12700000000E+01 0. -1.
          4   -1    0    0  501    0  0.00000000000E+00 -0.00000000000E+00 -0.17891106401E+03  0.17891557150E+03  0.12700000000E+01 0. -1.
         25    2    1    2    0    0  0.00000000000E+00  0.00000000000E+00 -0.15710123426E+03  0.20076234641E+03  0.12499888772E+03 0.  0.
    9000005    1    3    3    0    0 -0.36349416322E+02  0.13153394021E+02  0.31082047332E+00  0.38670252787E+02  0.10000000000E+01 0.  0.
    9000005    1    3    3    0    0  0.36349416322E+02 -0.13153394021E+02 -0.15741205473E+03  0.16209209363E+03  0.10000000000E+01 0.  0.
<mgrwt>
<rscale>  0 0.12499889E+03</rscale>
<asrwt>0</asrwt>
<pdfrwt beam="2">  1        4 0.27527967E-01 0.12499889E+03</pdfrwt>
<pdfrwt beam="1">  1       -4 0.33585472E-02 0.12499889E+03</pdfrwt>
<totfact> 0.90009330E+03</totfact>
</mgrwt>
</event>
<event>
 4    1  0.3251953E-002  0.1249300E+03  0.7818608E-02  0.1235179E+00
         -4   -1    0    0    0  501 -0.00000000000E+00  0.00000000000E+00  0.58733878479E+01  0.60091251287E+01  0.12700000000E+01 0. -1.
          4   -1    0    0  501    0  0.00000000000E+00 -0.00000000000E+00 -0.65660672217E+03  0.65660795038E+03  0.12700000000E+01 0. -1.
    9000005    1    1    2    0    0  0.16304896951E+02 -0.29428086564E+02 -0.60446583811E+03  0.60540218977E+03  0.10000000000E+01 0.  0.
    9000005    1    1    2    0    0 -0.16304896951E+02  0.29428086564E+02 -0.46267496212E+02  0.57214885731E+02  0.10000000000E+01 0.  0.
<mgrwt>
<rscale>  0 0.12493005E+03</rscale>
<asrwt>0</asrwt>
<pdfrwt beam="2">  1        4 0.10102690E+00 0.12493005E+03</pdfrwt>
<pdfrwt beam="1">  1       -4 0.91413446E-03 0.12493005E+03</pdfrwt>
<totfact> 0.45204020E+03</totfact>
</mgrwt>
</event>
<event>
 5    1  0.3251953E-002  0.1249992E+03  0.7818608E-02  0.1235070E+00
          4   -1    0    0  501    0  0.00000000000E+00  0.00000000000E+00  0.17414151484E+03  0.17414614579E+03  0.12700000000E+01 0.  1.
         -4   -1    0    0    0  501 -0.00000000000E+00 -0.00000000000E+00 -0.22408285587E+02  0.22444245654E+02  0.12700000000E+01 0.  1.
         25    2    1    2    0    0  0.00000000000E+00  0.00000000000E+00  0.15173322926E+03  0.19659039144E+03  0.12499923658E+03 0.  0.
    9000005    1    3    3    0    0  0.18963490902E+02  0.11771653270E+02  0.16766647991E+03  0.16914855687E+03  0.10000000000E+01 0.  0.
    9000005    1    3    3    0    0 -0.18963490902E+02 -0.11771653270E+02 -0.15933250652E+02  0.27441834564E+02  0.10000000000E+01 0.  0.
<mgrwt>
<rscale>  0 0.12499924E+03</rscale>
<asrwt>0</asrwt>
<pdfrwt beam="1">  1        4 0.26794125E-01 0.12499924E+03</pdfrwt>
<pdfrwt beam="2">  1       -4 0.34505509E-02 0.12499924E+03</pdfrwt>
<totfact> 0.90714634E+03</totfact>
</mgrwt>
</event>
<event>
 5    1  0.3251953E-002  0.1250009E+03  0.7818608E-02  0.1235068E+00
          4   -1    0    0  501    0  0.00000000000E+00  0.00000000000E+00  0.14674615602E+02  0.14729468526E+02  0.12700000000E+01 0.  1.
         -4   -1    0    0    0  501 -0.00000000000E+00 -0.00000000000E+00 -0.26564164192E+03  0.26564467776E+03  0.12700000000E+01 0.  1.
         25    2    1    2    0    0  0.00000000000E+00  0.00000000000E+00 -0.25096702632E+03  0.28037414628E+03  0.12500085442E+03 0.  0.
    9000005    1    3    3    0    0  0.96321095386E+00 -0.62174050737E+02 -0.13944828690E+03  0.15268714773E+03  0.10000000000E+01 0.  0.
    9000005    1    3    3    0    0 -0.96321095386E+00  0.62174050737E+02 -0.11151873941E+03  0.12768699856E+03  0.10000000000E+01 0.  0.
<mgrwt>
<rscale>  0 0.12500085E+03</rscale>
<asrwt>0</asrwt>
<pdfrwt beam="1">  1        4 0.22620863E-02 0.12500085E+03</pdfrwt>
<pdfrwt beam="2">  1       -4 0.40872394E-01 0.12500085E+03</pdfrwt>
<totfact> 0.78127040E+03</totfact>
</mgrwt>
</event>
<event>
 5    1  0.3251953E-002  0.1249905E+03  0.7818608E-02  0.1235084E+00
         -4   -1    0    0    0  501 -0.00000000000E+00  0.00000000000E+00  0.45609570892E+03  0.45609747707E+03  0.12700000000E+01 0.  1.
          4   -1    0    0  501    0  0.00000000000E+00 -0.00000000000E+00 -0.85143510263E+01  0.86085465323E+01  0.12700000000E+01 0.  1.
         25    2    1    2    0    0  0.00000000000E+00  0.00000000000E+00  0.44758135789E+03  0.46470602360E+03  0.12499046541E+03 0.  0.
    9000005    1    3    3    0    0  0.51616686649E+02 -0.32492497032E+02  0.17327475156E+03  0.18369862338E+03  0.10000000000E+01 0.  0.
    9000005    1    3    3    0    0 -0.51616686649E+02  0.32492497032E+02  0.27430660633E+03  0.28100740023E+03  0.10000000000E+01 0.  0.
<mgrwt>
<rscale>  0 0.12499047E+03</rscale>
<asrwt>0</asrwt>
<pdfrwt beam="2">  1        4 0.13172823E-02 0.12499047E+03</pdfrwt>
<pdfrwt beam="1">  1       -4 0.70175938E-01 0.12499047E+03</pdfrwt>
<totfact> 0.58722984E+03</totfact>
</mgrwt>
</event>
<event>
 5    1  0.3251953E-002  0.1250017E+03  0.7818608E-02  0.1235067E+00
         -4   -1    0    0    0  501 -0.00000000000E+00  0.00000000000E+00  0.71048809079E+02  0.71060158820E+02  0.12700000000E+01 0.  1.
          4   -1    0    0  501    0  0.00000000000E+00 -0.00000000000E+00 -0.54958222780E+02  0.54972894695E+02  0.12700000000E+01 0.  1.
         25    2    1    2    0    0  0.00000000000E+00  0.00000000000E+00  0.16090586299E+02  0.12603305352E+03  0.12500169443E+03 0.  0.
    9000005    1    3    3    0    0 -0.37531648121E+02 -0.49302500465E+02 -0.14544834360E+00  0.61970818278E+02  0.10000000000E+01 0.  0.
    9000005    1    3    3    0    0  0.37531648121E+02  0.49302500465E+02  0.16236034642E+02  0.64062235238E+02  0.10000000000E+01 0.  0.
<mgrwt>
<rscale>  0 0.12500169E+03</rscale>
<asrwt>0</asrwt>
<pdfrwt beam="2">  1        4 0.84571129E-02 0.12500169E+03</pdfrwt>
<pdfrwt beam="1">  1       -4 0.10932588E-01 0.12500169E+03</pdfrwt>
<totfact> 0.10429834E+04</totfact>
</mgrwt>
</event>
<event>
 5    1  0.3251953E-002  0.1249974E+03  0.7818608E-02  0.1235073E+00
          4   -1    0    0  501    0  0.00000000000E+00  0.00000000000E+00  0.25207777298E+02  0.25239749133E+02  0.12700000000E+01 0. -1.
         -4   -1    0    0    0  501 -0.00000000000E+00 -0.00000000000E+00 -0.15482279531E+03  0.15482800409E+03  0.12700000000E+01 0. -1.
         25    2    1    2    0    0  0.00000000000E+00  0.00000000000E+00 -0.12961501802E+03  0.18006775322E+03  0.12499737139E+03 0.  0.
    9000005    1    3    3    0    0 -0.34452379230E+02 -0.15114614470E+02  0.70721087176E+01  0.38294029912E+02  0.10000000000E+01 0.  0.
    9000005    1    3    3    0    0  0.34452379230E+02  0.15114614470E+02 -0.13668712673E+03  0.14177372331E+03  0.10000000000E+01 0.  0.
<mgrwt>
<rscale>  0 0.12499737E+03</rscale>
<asrwt>0</asrwt>
<pdfrwt beam="1">  1        4 0.38809797E-02 0.12499737E+03</pdfrwt>
<pdfrwt beam="2">  1       -4 0.23821751E-01 0.12499737E+03</pdfrwt>
<totfact> 0.93610326E+03</totfact>
</mgrwt>
</event>
<event>
 5    1  0.3251953E-002  0.1250015E+03  0.7818608E-02  0.1235067E+00
          4   -1    0    0  501    0  0.00000000000E+00  0.00000000000E+00  0.59206442203E+03  0.59206578412E+03  0.12700000000E+01 0. -1.
         -4   -1    0    0    0  501 -0.00000000000E+00 -0.00000000000E+00 -0.65353423464E+01  0.66575971329E+01  0.12700000000E+01 0. -1.
         25    2    1    2    0    0  0.00000000000E+00  0.00000000000E+00  0.58552907968E+03  0.59872338126E+03  0.12500153644E+03 0.  0.
    9000005    1    3    3    0    0 -0.52697815594E+02 -0.24150507265E+02  0.40458589725E+03  0.40871879700E+03  0.10000000000E+01 0.  0.
    9000005    1    3    3    0    0  0.52697815594E+02  0.24150507265E+02  0.18094318244E+03  0.19000458426E+03  0.10000000000E+01 0.  0.
<mgrwt>
<rscale>  0 0.12500154E+03</rscale>
<asrwt>0</asrwt>
<pdfrwt beam="1">  1        4 0.91096362E-01 0.12500154E+03</pdfrwt>
<pdfrwt beam="2">  1       -4 0.10149461E-02 0.12500154E+03</pdfrwt>
<totfact> 0.48946636E+03</totfact>
</mgrwt>
</event>
<event>
 5    1  0.3251953E-002  0.1249748E+03  0.7818608E-02  0.1235109E+00
         -4   -1    0    0    0  501 -0.00000000000E+00  0.00000000000E+00  0.84242825707E+02  0.84252398086E+02  0.12700000000E+01 0.  1.
          4   -1    0    0  501    0  0.00000000000E+00 -0.00000000000E+00 -0.46329353621E+02  0.46346757243E+02  0.12700000000E+01 0.  1.
         25    2    1    2    0    0  0.00000000000E+00  0.00000000000E+00  0.37913472086E+02  0.13059915533E+03  0.12497482949E+03 0.  0.
    9000005    1    3    3    0    0  0.18962105480E+01 -0.54484065552E+02 -0.12938446595E+02  0.56040274926E+02  0.10000000000E+01 0.  0.
    9000005    1    3    3    0    0 -0.18962105480E+01  0.54484065552E+02  0.50851918681E+02  0.74558880403E+02  0.10000000000E+01 0.  0.
<mgrwt>
<rscale>  0 0.12497483E+03</rscale>
<asrwt>0</asrwt>
<pdfrwt beam="2">  1        4 0.71296681E-02 0.12497483E+03</pdfrwt>
<pdfrwt beam="1">  1       -4 0.12962510E-01 0.12497483E+03</pdfrwt>
<totfact> 0.10337560E+04</totfact>
</mgrwt>
</event>
<event>
 5    1  0.3251953E-002  0.1249982E+03  0.7818608E-02  0.1235072E+00
         -4   -1    0    0    0  501 -0.00000000000E+00  0.00000000000E+00  0.17044198758E+02  0.17091448484E+02  0.12700000000E+01 0. -1.
          4   -1    0    0  501    0  0.00000000000E+00 -0.00000000000E+00 -0.22881058300E+03  0.22881410750E+03  0.12700000000E+01 0. -1.
         25    2    1    2    0    0  0.00000000000E+00  0.00000000000E+00 -0.21176638424E+03  0.24590555599E+03  0.12499816387E+03 0.  0.
    9000005    1    3    3    0    0  0.60897782522E+02  0.30540487185E+01 -0.78961855099E+02  0.99768941512E+02  0.10000000000E+01 0.  0.
    9000005    1    3    3    0    0 -0.60897782522E+02 -0.30540487185E+01 -0.13280452914E+03  0.14613661447E+03  0.10000000000E+01 0.  0.
<mgrwt>
<rscale>  0 0.12499816E+03</rscale>
<asrwt>0</asrwt>
<pdfrwt beam="2">  1        4 0.35205532E-01 0.12499816E+03</pdfrwt>
<pdfrwt beam="1">  1       -4 0.26260903E-02 0.12499816E+03</pdfrwt>
<totfact> 0.82929021E+03</totfact>
</mgrwt>
</event>
<event>
 5    1  0.3251953E-002  0.1250075E+03  0.7818608E-02  0.1235058E+00
          4   -1    0    0  501    0  0.00000000000E+00  0.00000000000E+00  0.20249454443E+03  0.20249852697E+03  0.12700000000E+01 0.  1.
         -4   -1    0    0    0  501 -0.00000000000E+00 -0.00000000000E+00 -0.19267874252E+02  0.19309683534E+02  0.12700000000E+01 0.  1.
         25    2    1    2    0    0  0.00000000000E+00  0.00000000000E+00  0.18322667018E+03  0.22180821050E+03  0.12500747810E+03 0.  0.
    9000005    1    3    3    0    0  0.51188324105E+02  0.14185603004E+02  0.33187538152E+02  0.62640949433E+02  0.10000000000E+01 0.  0.
    9000005    1    3    3    0    0 -0.51188324105E+02 -0.14185603004E+02  0.15003913203E+03  0.15916726107E+03  0.10000000000E+01 0.  0.
<mgrwt>
<rscale>  0 0.12500748E+03</rscale>
<asrwt>0</asrwt>
<pdfrwt beam="1">  1        4 0.31156528E-01 0.12500748E+03</pdfrwt>
<pdfrwt beam="2">  1       -4 0.29678109E-02 0.12500748E+03</pdfrwt>
<totfact> 0.86568572E+03</totfact>
</mgrwt>
</event>
<event>
 5    1  0.3251953E-002  0.1250001E+03  0.7818608E-02  0.1235069E+00
         -4   -1    0    0    0  501 -0.00000000000E+00  0.00000000000E+00  0.27795093161E+02  0.27824092147E+02  0.12700000000E+01 0. -1.
          4   -1    0    0  501    0  0.00000000000E+00 -0.00000000000E+00 -0.14043249618E+03  0.14043823868E+03  0.12700000000E+01 0. -1.
         25    2    1    2    0    0  0.00000000000E+00  0.00000000000E+00 -0.11263740302E+03  0.16826233083E+03  0.12500010966E+03 0.  0.
    9000005    1    3    3    0    0 -0.33366627839E+02 -0.31451213278E+02  0.83492587052E+00  0.45871644523E+02  0.10000000000E+01 0.  0.
    9000005    1    3    3    0    0  0.33366627839E+02  0.31451213278E+02 -0.11347232889E+03  0.12239068630E+03  0.10000000000E+01 0.  0.
<mgrwt>
<rscale>  0 0.12500011E+03</rscale>
<asrwt>0</asrwt>
<pdfrwt beam="2">  1        4 0.21607672E-01 0.12500011E+03</pdfrwt>
<pdfrwt beam="1">  1       -4 0.42788407E-02 0.12500011E+03</pdfrwt>
<totfact> 0.95772865E+03</totfact>
</mgrwt>
</event>
<event>
 5    1  0.3251953E-002  0.1249984E+03  0.7818608E-02  0.1235072E+00
          4   -1    0    0  501    0  0.00000000000E+00  0.00000000000E+00  0.18277137624E+03  0.18277578853E+03  0.12700000000E+01 0. -1.
         -4   -1    0    0    0  501 -0.00000000000E+00 -0.00000000000E+00 -0.21348238396E+02  0.21385980983E+02  0.12700000000E+01 0. -1.
         25    2    1    2    0    0  0.00000000000E+00  0.00000000000E+00  0.16142313784E+03  0.20416176951E+03  0.12499839478E+03 0.  0.
    9000005    1    3    3    0    0 -0.60470886239E+02  0.45832779390E+01  0.56080702604E+02  0.82606172432E+02  0.10000000000E+01 0.  0.
    9000005    1    3    3    0    0  0.60470886239E+02 -0.45832779390E+01  0.10534243524E+03  0.12155559708E+03  0.10000000000E+01 0.  0.
<mgrwt>
<rscale>  0 0.12499839E+03</rscale>
<asrwt>0</asrwt>
<pdfrwt beam="1">  1        4 0.28121916E-01 0.12499839E+03</pdfrwt>
<pdfrwt beam="2">  1       -4 0.32875870E-02 0.12499839E+03</pdfrwt>
<totfact> 0.89441516E+03</totfact>
</mgrwt>
</event>
<event>
 5    1  0.3251953E-002  0.1250112E+03  0.7818608E-02  0.1235052E+00
          4   -1    0    0  501    0  0.00000000000E+00  0.00000000000E+00  0.16408085202E+03  0.16408576691E+03  0.12700000000E+01 0.  1.
         -4   -1    0    0    0  501 -0.00000000000E+00 -0.00000000000E+00 -0.23788898998E+02  0.23822775143E+02  0.12700000000E+01 0.  1.
         25    2    1    2    0    0  0.00000000000E+00  0.00000000000E+00  0.14029195303E+03  0.18790854205E+03  0.12501115187E+03 0.  0.
    9000005    1    3    3    0    0 -0.23757506154E+02  0.16415136281E+02 -0.13167144951E+02  0.31752944808E+02  0.10000000000E+01 0.  0.
    9000005    1    3    3    0    0  0.23757506154E+02 -0.16415136281E+02  0.15345909798E+03  0.15615559724E+03  0.10000000000E+01 0.  0.
<mgrwt>
<rscale>  0 0.12501115E+03</rscale>
<asrwt>0</asrwt>
<pdfrwt beam="1">  1        4 0.25246191E-01 0.12501115E+03</pdfrwt>
<pdfrwt beam="2">  1       -4 0.36628147E-02 0.12501115E+03</pdfrwt>
<totfact> 0.92189465E+03</totfact>
</mgrwt>
</event>
<event>
 5    1  0.3251953E-002  0.1250047E+03  0.7818608E-02  0.1235062E+00
         -4   -1    0    0    0  501 -0.00000000000E+00  0.00000000000E+00  0.17701321834E+03  0.17701777416E+03  0.12700000000E+01 0. -1.
          4   -1    0    0  501    0  0.00000000000E+00 -0.00000000000E+00 -0.22046115082E+02  0.22082664925E+02  0.12700000000E+01 0. -1.
         25    2    1    2    0    0  0.00000000000E+00  0.00000000000E+00  0.15496710326E+03  0.19910043908E+03  0.12500472691E+03 0.  0.
    9000005    1    3    3    0    0 -0.41836242202E+02  0.44114739440E+02  0.54448494541E+02  0.81621197953E+02  0.10000000000E+01 0.  0.
    9000005    1    3    3    0    0  0.41836242202E+02 -0.44114739440E+02  0.10051860872E+03  0.11747924113E+03  0.10000000000E+01 0.  0.
<mgrwt>
<rscale>  0 0.12500473E+03</rscale>
<asrwt>0</asrwt>
<pdfrwt beam="2">  1        4 0.33948720E-02 0.12500473E+03</pdfrwt>
<pdfrwt beam="1">  1       -4 0.27235964E-01 0.12500473E+03</pdfrwt>
<totfact> 0.90277896E+03</totfact>
</mgrwt>
</event>
<event>
 5    1  0.3251953E-002  0.1250152E+03  0.7818608E-02  0.1235046E+00
         -4   -1    0    0    0  501 -0.00000000000E+00  0.00000000000E+00  0.79653278270E+03  0.79653379515E+03  0.12700000000E+01 0. -1.
          4   -1    0    0  501    0  0.00000000000E+00 -0.00000000000E+00 -0.48220204994E+01  0.49864598360E+01  0.12700000000E+01 0. -1.
         25    2    1    2    0    0  0.00000000000E+00  0.00000000000E+00  0.79171076220E+03  0.80152025498E+03  0.12501515175E+03 0.  0.
    9000005    1    3    3    0    0 -0.11894887746E+02 -0.34963301631E+02  0.71912375415E+03  0.72007214541E+03  0.10000000000E+01 0.  0.
    9000005    1    3    3    0    0  0.11894887746E+02  0.34963301631E+02  0.72587008051E+02  0.81448109574E+02  0.10000000000E+01 0.  0.
<mgrwt>
<rscale>  0 0.12501515E+03</rscale>
<asrwt>0</asrwt>
<pdfrwt beam="2">  1        4 0.75457710E-03 0.12501515E+03</pdfrwt>
<pdfrwt beam="1">  1       -4 0.12255611E+00 0.12501515E+03</pdfrwt>
<totfact> 0.38184338E+03</totfact>
</mgrwt>
</event>
<event>
 5    1  0.3251953E-002  0.1250001E+03  0.7818608E-02  0.1235069E+00
          4   -1    0    0  501    0  0.00000000000E+00  0.00000000000E+00  0.72854108531E+02  0.72865177072E+02  0.12700000000E+01 0.  1.
         -4   -1    0    0    0  501 -0.00000000000E+00 -0.00000000000E+00 -0.53594834261E+02  0.53609879309E+02  0.12700000000E+01 0.  1.
         25    2    1    2    0    0  0.00000000000E+00  0.00000000000E+00  0.19259274269E+02  0.12647505638E+03  0.12500008097E+03 0.  0.
    9000005    1    3    3    0    0  0.37066798060E+02  0.47029761409E+02 -0.84560990801E+01  0.60483481946E+02  0.10000000000E+01 0.  0.
    9000005    1    3    3    0    0 -0.37066798060E+02 -0.47029761409E+02  0.27715373349E+02  0.65991574436E+02  0.10000000000E+01 0.  0.
<mgrwt>
<rscale>  0 0.12500008E+03</rscale>
<asrwt>0</asrwt>
<pdfrwt beam="1">  1        4 0.11210333E-01 0.12500008E+03</pdfrwt>
<pdfrwt beam="2">  1       -4 0.82473679E-02 0.12500008E+03</pdfrwt>
<totfact> 0.10420553E+04</totfact>
</mgrwt>
</event>
<event>
 5    1  0.3251953E-002  0.1249994E+03  0.7818608E-02  0.1235070E+00
         -4   -1    0    0    0  501 -0.00000000000E+00  0.00000000000E+00  0.20642520799E+03  0.20642911469E+03  0.12700000000E+01 0. -1.
          4   -1    0    0  501    0  0.00000000000E+00 -0.00000000000E+00 -0.18897741178E+02  0.18940367516E+02  0.12700000000E+01 0. -1.
         25    2    1    2    0    0  0.00000000000E+00  0.00000000000E+00  0.18752746681E+03  0.22536948221E+03  0.12499941081E+03 0.  0.
    9000005    1    3    3    0    0 -0.44817918316E+01 -0.62054206050E+02  0.10433873482E+03  0.12148408344E+03  0.10000000000E+01 0.  0.
    9000005    1    3    3    0    0  0.44817918316E+01  0.62054206050E+02  0.83188731993E+02  0.10388539877E+03  0.10000000000E+01 0.  0.
<mgrwt>
<rscale>  0 0.12499941E+03</rscale>
<asrwt>0</asrwt>
<pdfrwt beam="2">  1        4 0.29109241E-02 0.12499941E+03</pdfrwt>
<pdfrwt beam="1">  1       -4 0.31761305E-01 0.12499941E+03</pdfrwt>
<totfact> 0.86026856E+03</totfact>
</mgrwt>
</event>
<event>
 5    1  0.3251953E-002  0.1250011E+03  0.7818608E-02  0.1235068E+00
          4   -1    0    0  501    0  0.00000000000E+00  0.00000000000E+00  0.87657328215E+01  0.88572553253E+01  0.12700000000E+01 0.  1.
         -4   -1    0    0    0  501 -0.00000000000E+00 -0.00000000000E+00 -0.44322854674E+03  0.44323036623E+03  0.12700000000E+01 0.  1.
         25    2    1    2    0    0  0.00000000000E+00  0.00000000000E+00 -0.43446281392E+03  0.45208762155E+03  0.12500112352E+03 0.  0.
    9000005    1    3    3    0    0 -0.13933434651E+02 -0.52356079632E+02 -0.10458971487E+03  0.11779349783E+03  0.10000000000E+01 0.  0.
    9000005    1    3    3    0    0  0.13933434651E+02  0.52356079632E+02 -0.32987309905E+03  0.33429412372E+03  0.10000000000E+01 0.  0.
<mgrwt>
<rscale>  0 0.12500112E+03</rscale>
<asrwt>0</asrwt>
<pdfrwt beam="1">  1        4 0.13557548E-02 0.12500112E+03</pdfrwt>
<pdfrwt beam="2">  1       -4 0.68196170E-01 0.12500112E+03</pdfrwt>
<totfact> 0.59781898E+03</totfact>
</mgrwt>
</event>
<event>
 5    1  0.3251953E-002  0.1250009E+03  0.7818608E-02  0.1235068E+00
          4   -1    0    0  501    0  0.00000000000E+00  0.00000000000E+00  0.21075298635E+02  0.21113529136E+02  0.12700000000E+01 0. -1.
         -4   -1    0    0    0  501 -0.00000000000E+00 -0.00000000000E+00 -0.18514156046E+03  0.18514591627E+03  0.12700000000E+01 0. -1.
         25    2    1    2    0    0  0.00000000000E+00  0.00000000000E+00 -0.16406626183E+03  0.20625944540E+03  0.12500088219E+03 0.  0.
    9000005    1    3    3    0    0 -0.61510526510E+02  0.10701201259E+02 -0.77591865937E+02  0.99596979068E+02  0.10000000000E+01 0.  0.
    9000005    1    3    3    0    0  0.61510526510E+02 -0.10701201259E+02 -0.86474395890E+02  0.10666246633E+03  0.10000000000E+01 0.  0.
<mgrwt>
<rscale>  0 0.12500088E+03</rscale>
<asrwt>0</asrwt>
<pdfrwt beam="1">  1        4 0.32456296E-02 0.12500088E+03</pdfrwt>
<pdfrwt beam="2">  1       -4 0.28486592E-01 0.12500088E+03</pdfrwt>
<totfact> 0.89088672E+03</totfact>
</mgrwt>
</event>
<event>
 5    1  0.3251953E-002  0.1249916E+03  0.7818608E-02  0.1235082E+00
         -4   -1    0    0    0  501 -0.00000000000E+00  0.00000000000E+00  0.10731731831E+04  0.10731739345E+04  0.12700000000E+01 0.  1.
          4   -1    0    0  501    0  0.00000000000E+00 -0.00000000000E+00 -0.35278469415E+01  0.37494805030E+01  0.12700000000E+01 0.  1.
         25    2    1    2    0    0  0.00000000000E+00  0.00000000000E+00  0.10696453361E+04  0.10769234150E+04  0.12499158672E+03 0.  0.
    9000005    1    3    3    0    0 -0.47252786242E+02  0.36078823119E+02  0.70060267743E+03  0.70312134010E+03  0.10000000000E+01 0.  0.
    9000005    1    3    3    0    0  0.47252786242E+02 -0.36078823119E+02  0.36904265869E+03  0.37380207492E+03  0.10000000000E+01 0.  0.
<mgrwt>
<rscale>  0 0.12499159E+03</rscale>
<asrwt>0</asrwt>
<pdfrwt beam="2">  1        4 0.55985158E-03 0.12499159E+03</pdfrwt>
<pdfrwt beam="1">  1       -4 0.16512086E+00 0.12499159E+03</pdfrwt>
<totfact> 0.28173916E+03</totfact>
</mgrwt>
</event>
<event>
 5    1  0.3251953E-002  0.1250608E+03  0.7818608E-02  0.1234974E+00
          4   -1    0    0  501    0  0.00000000000E+00  0.00000000000E+00  0.26146712029E+02  0.26177537125E+02  0.12700000000E+01 0.  1.
         -4   -1    0    0    0  501 -0.00000000000E+00 -0.00000000000E+00 -0.14942110801E+03  0.14942650508E+03  0.12700000000E+01 0.  1.
         25    2    1    2    0    0  0.00000000000E+00  0.00000000000E+00 -0.12327439598E+03  0.17560404220E+03  0.12506079695E+03 0.  0.
    9000005    1    3    3    0    0 -0.43061066103E+02  0.23673863169E+02 -0.73573604230E+01  0.49697464358E+02  0.10000000000E+01 0.  0.
    9000005    1    3    3    0    0  0.43061066103E+02 -0.23673863169E+02 -0.11591703556E+03  0.12590657784E+03  0.10000000000E+01 0.  0.
<mgrwt>
<rscale>  0 0.12506080E+03</rscale>
<asrwt>0</asrwt>
<pdfrwt beam="1">  1        4 0.40253575E-02 0.12506080E+03</pdfrwt>
<pdfrwt beam="2">  1       -4 0.22990649E-01 0.12506080E+03</pdfrwt>
<totfact> 0.94285682E+03</totfact>
</mgrwt>
</event>
<event>
 5    1  0.3251953E-002  0.1250054E+03  0.7818608E-02  0.1235061E+00
         -4   -1    0    0    0  501 -0.00000000000E+00  0.00000000000E+00  0.88370031024E+02  0.88379156384E+02  0.12700000000E+01 0. -1.
          4   -1    0    0  501    0  0.00000000000E+00 -0.00000000000E+00 -0.44186633392E+02  0.44204880619E+02  0.12700000000E+01 0. -1.
         25    2    1    2    0    0  0.00000000000E+00  0.00000000000E+00  0.44183397632E+02  0.13258403700E+03  0.12500541685E+03 0.  0.
    9000005    1    3    3    0    0  0.48545715157E+02 -0.36477651654E+02  0.64215762680E+01  0.61069977665E+02  0.10000000000E+01 0.  0.
    9000005    1    3    3    0    0 -0.48545715157E+02  0.36477651654E+02  0.37761821364E+02  0.71514059338E+02  0.10000000000E+01 0.  0.
<mgrwt>
<rscale>  0 0.12500542E+03</rscale>
<asrwt>0</asrwt>
<pdfrwt beam="2">  1        4 0.68000492E-02 0.12500542E+03</pdfrwt>
<pdfrwt beam="1">  1       -4 0.13597495E-01 0.12500542E+03</pdfrwt>
<totfact> 0.10287991E+04</totfact>
</mgrwt>
</event>
<event>
 5    1  0.3251953E-002  0.1250020E+03  0.7818608E-02  0.1235066E+00
         -4   -1    0    0    0  501 -0.00000000000E+00  0.00000000000E+00  0.85240906667E+02  0.85250366975E+02  0.12700000000E+01 0.  1.
          4   -1    0    0  501    0  0.00000000000E+00 -0.00000000000E+00 -0.45806661004E+02  0.45824263140E+02  0.12700000000E+01 0.  1.
         25    2    1    2    0    0  0.00000000000E+00  0.00000000000E+00  0.39434245663E+02  0.13107463012E+03  0.12500199570E+03 0.  0.
    9000005    1    3    3    0    0  0.45808189384E+02 -0.22163472271E+02  0.57752774494E+02  0.76980469467E+02  0.10000000000E+01 0.  0.
    9000005    1    3    3    0    0 -0.45808189384E+02  0.22163472271E+02 -0.18318528831E+02  0.54094160648E+02  0.10000000000E+01 0.  0.
<mgrwt>
<rscale>  0 0.12500200E+03</rscale>
<asrwt>0</asrwt>
<pdfrwt beam="2">  1        4 0.70492604E-02 0.12500200E+03</pdfrwt>
<pdfrwt beam="1">  1       -4 0.13116067E-01 0.12500200E+03</pdfrwt>
<totfact> 0.10321025E+04</totfact>
</mgrwt>
</event>
<event>
 5    1  0.3251953E-002  0.1249809E+03  0.7818608E-02  0.1235099E+00
          4   -1    0    0  501    0  0.00000000000E+00  0.00000000000E+00  0.11881973894E+03  0.11882652592E+03  0.12700000000E+01 0.  1.
         -4   -1    0    0    0  501 -0.00000000000E+00 -0.00000000000E+00 -0.32845386332E+02  0.32869930077E+02  0.12700000000E+01 0.  1.
         25    2    1    2    0    0  0.00000000000E+00  0.00000000000E+00  0.85974352613E+02  0.15169645600E+03  0.12498090036E+03 0.  0.
    9000005    1    3    3    0    0 -0.13977050679E+02 -0.59969828897E+02  0.30123753506E+02  0.68557850381E+02  0.10000000000E+01 0.  0.
    9000005    1    3    3    0    0  0.13977050679E+02  0.59969828897E+02  0.55850599107E+02  0.83138605618E+02  0.10000000000E+01 0.  0.
<mgrwt>
<rscale>  0 0.12498090E+03</rscale>
<asrwt>0</asrwt>
<pdfrwt beam="1">  1        4 0.18282370E-01 0.12498090E+03</pdfrwt>
<pdfrwt beam="2">  1       -4 0.50555465E-02 0.12498090E+03</pdfrwt>
<totfact> 0.99009149E+03</totfact>
</mgrwt>
</event>
<event>
 5    1  0.3251953E-002  0.1249854E+03  0.7818608E-02  0.1235092E+00
          4   -1    0    0  501    0  0.00000000000E+00  0.00000000000E+00  0.24916385797E+02  0.24948731053E+02  0.12700000000E+01 0. -1.
         -4   -1    0    0    0  501 -0.00000000000E+00 -0.00000000000E+00 -0.15660120589E+03  0.15660635551E+03  0.12700000000E+01 0. -1.
         25    2    1    2    0    0  0.00000000000E+00  0.00000000000E+00 -0.13168482009E+03  0.18155508656E+03  0.12498542961E+03 0.  0.
    9000005    1    3    3    0    0  0.23527415400E+02  0.97520099098E+01  0.17041669463E+02  0.30660389279E+02  0.10000000000E+01 0.  0.
    9000005    1    3    3    0    0 -0.23527415400E+02 -0.97520099098E+01 -0.14872648955E+03  0.15089469728E+03  0.10000000000E+01 0.  0.
<mgrwt>
<rscale>  0 0.12498543E+03</rscale>
<asrwt>0</asrwt>
<pdfrwt beam="1">  1        4 0.38361744E-02 0.12498543E+03</pdfrwt>
<pdfrwt beam="2">  1       -4 0.24095377E-01 0.12498543E+03</pdfrwt>
<totfact> 0.93368324E+03</totfact>
</mgrwt>
</event>
<event>
 5    1  0.3251953E-002  0.1249997E+03  0.7818608E-02  0.1235070E+00
         -4   -1    0    0    0  501 -0.00000000000E+00  0.00000000000E+00  0.38685182984E+02  0.38706023853E+02  0.12700000000E+01 0.  1.
          4   -1    0    0  501    0  0.00000000000E+00 -0.00000000000E+00 -0.10092277955E+03  0.10093077000E+03  0.12700000000E+01 0.  1.
         25    2    1    2    0    0  0.00000000000E+00  0.00000000000E+00 -0.62237596565E+02  0.13963679385E+03  0.12499966308E+03 0.  0.
    9000005    1    3    3    0    0 -0.45794580041E+02 -0.60723886249E+00 -0.78614707333E+02  0.90987826159E+02  0.10000000000E+01 0.  0.
    9000005    1    3    3    0    0  0.45794580041E+02  0.60723886249E+00  0.16377110768E+02  0.48648967690E+02  0.10000000000E+01 0.  0.
<mgrwt>
<rscale>  0 0.12499966E+03</rscale>
<asrwt>0</asrwt>
<pdfrwt beam="2">  1        4 0.15528799E-01 0.12499966E+03</pdfrwt>
<pdfrwt beam="1">  1       -4 0.59537844E-02 0.12499966E+03</pdfrwt>
<totfact> 0.10141196E+04</totfact>
</mgrwt>
</event>
<event>
 5    1  0.3251953E-002  0.1250045E+03  0.7818608E-02  0.1235062E+00
          4   -1    0    0  501    0  0.00000000000E+00  0.00000000000E+00  0.56341524472E+03  0.56341667608E+03  0.12700000000E+01 0.  1.
         -4   -1    0    0    0  501 -0.00000000000E+00 -0.00000000000E+00 -0.68740586347E+01  0.69903921287E+01  0.12700000000E+01 0.  1.
         25    2    1    2    0    0  0.00000000000E+00  0.00000000000E+00  0.55654118608E+03  0.57040706820E+03  0.12500452652E+03 0.  0.
    9000005    1    3    3    0    0  0.53482069199E+02 -0.87169086280E+01  0.42032987044E+03  0.42380952821E+03  0.10000000000E+01 0.  0.
    9000005    1    3    3    0    0 -0.53482069199E+02  0.87169086280E+01  0.13621131564E+03  0.14659753999E+03  0.10000000000E+01 0.  0.
<mgrwt>
<rscale>  0 0.12500453E+03</rscale>
<asrwt>0</asrwt>
<pdfrwt beam="1">  1        4 0.86688331E-01 0.12500453E+03</pdfrwt>
<pdfrwt beam="2">  1       -4 0.10666063E-02 0.12500453E+03</pdfrwt>
<totfact> 0.50785472E+03</totfact>
</mgrwt>
</event>
<event>
 5    1  0.3251953E-002  0.1249882E+03  0.7818608E-02  0.1235088E+00
          4   -1    0    0  501    0  0.00000000000E+00  0.00000000000E+00  0.81185606731E+01  0.82172944089E+01  0.12700000000E+01 0. -1.
         -4   -1    0    0    0  501 -0.00000000000E+00 -0.00000000000E+00 -0.47805294952E+03  0.47805463646E+03  0.12700000000E+01 0. -1.
         25    2    1    2    0    0  0.00000000000E+00  0.00000000000E+00 -0.46993438884E+03  0.48627193087E+03  0.12498824318E+03 0.  0.
    9000005    1    3    3    0    0  0.34680639653E+02 -0.51741702746E+02 -0.25424978806E+03  0.26177071131E+03  0.10000000000E+01 0.  0.
    9000005    1    3    3    0    0 -0.34680639653E+02  0.51741702746E+02 -0.21568460078E+03  0.22450121956E+03  0.10000000000E+01 0.  0.
<mgrwt>
<rscale>  0 0.12498824E+03</rscale>
<asrwt>0</asrwt>
<pdfrwt beam="1">  1        4 0.12567344E-02 0.12498824E+03</pdfrwt>
<pdfrwt beam="2">  1       -4 0.73554310E-01 0.12498824E+03</pdfrwt>
<totfact> 0.56960192E+03</totfact>
</mgrwt>
</event>
<event>
 5    1  0.3251953E-002  0.1250002E+03  0.7818608E-02  0.1235069E+00
          4   -1    0    0  501    0  0.00000000000E+00  0.00000000000E+00  0.20098690289E+03  0.20099091530E+03  0.12700000000E+01 0. -1.
         -4   -1    0    0    0  501 -0.00000000000E+00 -0.00000000000E+00 -0.19410457126E+02  0.19451959948E+02  0.12700000000E+01 0. -1.
         25    2    1    2    0    0  0.00000000000E+00  0.00000000000E+00  0.18157644577E+03  0.22044287525E+03  0.12500022237E+03 0.  0.
    9000005    1    3    3    0    0  0.13092377760E+02 -0.57248612448E+02  0.53110742989E+02  0.79186899191E+02  0.10000000000E+01 0.  0.
    9000005    1    3    3    0    0 -0.13092377760E+02  0.57248612448E+02  0.12846570278E+03  0.14125597606E+03  0.10000000000E+01 0.  0.
<mgrwt>
<rscale>  0 0.12500022E+03</rscale>
<asrwt>0</asrwt>
<pdfrwt beam="1">  1        4 0.30924561E-01 0.12500022E+03</pdfrwt>
<pdfrwt beam="2">  1       -4 0.29897256E-02 0.12500022E+03</pdfrwt>
<totfact> 0.86797889E+03</totfact>
</mgrwt>
</event>
<event>
 5    1  0.3251953E-002  0.1249905E+03  0.7818608E-02  0.1235084E+00
         -4   -1    0    0    0  501 -0.00000000000E+00  0.00000000000E+00  0.13804789476E+02  0.13863084523E+02  0.12700000000E+01 0.  1.
          4   -1    0    0  501    0  0.00000000000E+00 -0.00000000000E+00 -0.28226440647E+03  0.28226726353E+03  0.12700000000E+01 0.  1.
         25    2    1    2    0    0  0.00000000000E+00  0.00000000000E+00 -0.26845961700E+03  0.29613034806E+03  0.12499046796E+03 0.  0.
    9000005    1    3    3    0    0  0.50474950092E+02  0.34210786618E+02 -0.16658994591E+03  0.17740154618E+03  0.10000000000E+01 0.  0.
    9000005    1    3    3    0    0 -0.50474950092E+02 -0.34210786618E+02 -0.10186967108E+03  0.11872880187E+03  0.10000000000E+01 0.  0.
<mgrwt>
<rscale>  0 0.12499047E+03</rscale>
<asrwt>0</asrwt>
<pdfrwt beam="2">  1        4 0.43429993E-01 0.12499047E+03</pdfrwt>
<pdfrwt beam="1">  1       -4 0.21285180E-02 0.12499047E+03</pdfrwt>
<totfact> 0.76102927E+03</totfact>
</mgrwt>
</event>
<event>
 5    1  0.3251953E-002  0.1250000E+03  0.7818608E-02  0.1235069E+00
         -4   -1    0    0    0  501 -0.00000000000E+00  0.00000000000E+00  0.27292280734E+03  0.27292576218E+03  0.12700000000E+01 0. -1.
          4   -1    0    0  501    0  0.00000000000E+00 -0.00000000000E+00 -0.14281444832E+02  0.14337802010E+02  0.12700000000E+01 0. -1.
         25    2    1    2    0    0  0.00000000000E+00  0.00000000000E+00  0.25864136250E+03  0.28726356419E+03  0.12500000366E+03 0.  0.
    9000005    1    3    3    0    0  0.62204039644E+02 -0.59866766390E+01  0.12991723313E+03  0.14416889508E+03  0.10000000000E+01 0.  0.
    9000005    1    3    3    0    0 -0.62204039644E+02  0.59866766390E+01  0.12872412937E+03  0.14309466911E+03  0.10000000000E+01 0.  0.
<mgrwt>
<rscale>  0 0.12500000E+03</rscale>
<asrwt>0</asrwt>
<pdfrwt beam="2">  1        4 0.22017080E-02 0.12500000E+03</pdfrwt>
<pdfrwt beam="1">  1       -4 0.41992684E-01 0.12500000E+03</pdfrwt>
<totfact> 0.77224757E+03</totfact>
</mgrwt>
</event>
<event>
 5    1  0.3251953E-002  0.1250056E+03  0.7818608E-02  0.1235061E+00
          4   -1    0    0  501    0  0.00000000000E+00  0.00000000000E+00  0.10533130378E+02  0.10609417305E+02  0.12700000000E+01 0. -1.
         -4   -1    0    0    0  501 -0.00000000000E+00 -0.00000000000E+00 -0.36947110732E+03  0.36947329003E+03  0.12700000000E+01 0. -1.
         25    2    1    2    0    0  0.00000000000E+00  0.00000000000E+00 -0.35893797694E+03  0.38008270733E+03  0.12500557236E+03 0.  0.
    9000005    1    3    3    0    0 -0.18808829615E+02 -0.33441620673E+02 -0.32945923011E+03  0.33168735033E+03  0.10000000000E+01 0.  0.
    9000005    1    3    3    0    0  0.18808829615E+02  0.33441620673E+02 -0.29478746836E+02  0.48395357006E+02  0.10000000000E+01 0.  0.
<mgrwt>
<rscale>  0 0.12500557E+03</rscale>
<asrwt>0</asrwt>
<pdfrwt beam="1">  1        4 0.16265180E-02 0.12500557E+03</pdfrwt>
<pdfrwt beam="2">  1       -4 0.56847735E-01 0.12500557E+03</pdfrwt>
<totfact> 0.66528937E+03</totfact>
</mgrwt>
</event>
<event>
 5    1  0.3251953E-002  0.1250012E+03  0.7818608E-02  0.1235067E+00
         -4   -1    0    0    0  501 -0.00000000000E+00  0.00000000000E+00  0.19607873979E+01  0.23361479448E+01  0.12700000000E+01 0. -1.
          4   -1    0    0  501    0  0.00000000000E+00 -0.00000000000E+00 -0.18178154660E+04  0.18178159096E+04  0.12700000000E+01 0. -1.
         25    2    1    2    0    0  0.00000000000E+00  0.00000000000E+00 -0.18158546786E+04  0.18201520575E+04  0.12500119566E+03 0.  0.
    9000005    1    3    3    0    0 -0.54630129104E+02  0.21349569312E+02 -0.59391082663E+03  0.59680090910E+03  0.10000000000E+01 0.  0.
    9000005    1    3    3    0    0  0.54630129104E+02 -0.21349569312E+02 -0.12219438519E+04  0.12233511485E+04  0.10000000000E+01 0.  0.
<mgrwt>
<rscale>  0 0.12500120E+03</rscale>
<asrwt>0</asrwt>
<pdfrwt beam="2">  1        4 0.27969159E+00 0.12500120E+03</pdfrwt>
<pdfrwt beam="1">  1       -4 0.33056907E-03 0.12500120E+03</pdfrwt>
<totfact> 0.12395372E+03</totfact>
</mgrwt>
</event>
<event>
 5    1  0.3251953E-002  0.1250000E+03  0.7818608E-02  0.1235069E+00
         -4   -1    0    0    0  501 -0.00000000000E+00  0.00000000000E+00  0.48799814706E+02  0.48816337586E+02  0.12700000000E+01 0.  1.
          4   -1    0    0  501    0  0.00000000000E+00 -0.00000000000E+00 -0.80011268957E+02  0.80021347528E+02  0.12700000000E+01 0.  1.
         25    2    1    2    0    0  0.00000000000E+00  0.00000000000E+00 -0.31211454252E+02  0.12883768511E+03  0.12499997692E+03 0.  0.
    9000005    1    3    3    0    0  0.58479042292E+02  0.18673536128E+02 -0.35527201906E+01  0.61498952509E+02  0.10000000000E+01 0.  0.
    9000005    1    3    3    0    0 -0.58479042292E+02 -0.18673536128E+02 -0.27658734061E+02  0.67338732605E+02  0.10000000000E+01 0.  0.
<mgrwt>
<rscale>  0 0.12499998E+03</rscale>
<asrwt>0</asrwt>
<pdfrwt beam="2">  1        4 0.12311472E-01 0.12499998E+03</pdfrwt>
<pdfrwt beam="1">  1       -4 0.75097101E-02 0.12499998E+03</pdfrwt>
<totfact> 0.10369441E+04</totfact>
</mgrwt>
</event>
<event>
 5    1  0.3251953E-002  0.1250029E+03  0.7818608E-02  0.1235065E+00
         -4   -1    0    0    0  501 -0.00000000000E+00  0.00000000000E+00  0.29259241356E+03  0.29259516977E+03  0.12700000000E+01 0. -1.
          4   -1    0    0  501    0  0.00000000000E+00 -0.00000000000E+00 -0.13318080993E+02  0.13378496976E+02  0.12700000000E+01 0. -1.
         25    2    1    2    0    0  0.00000000000E+00  0.00000000000E+00  0.27927433256E+03  0.30597366674E+03  0.12500292761E+03 0.  0.
    9000005    1    3    3    0    0  0.32633333837E+02 -0.42097893196E+02  0.21963966419E+03  0.22600829448E+03  0.10000000000E+01 0.  0.
    9000005    1    3    3    0    0 -0.32633333837E+02  0.42097893196E+02  0.59634668373E+02  0.79965372261E+02  0.10000000000E+01 0.  0.
<mgrwt>
<rscale>  0 0.12500293E+03</rscale>
<asrwt>0</asrwt>
<pdfrwt beam="2">  1        4 0.20537948E-02 0.12500293E+03</pdfrwt>
<pdfrwt beam="1">  1       -4 0.45019080E-01 0.12500293E+03</pdfrwt>
<totfact> 0.74850704E+03</totfact>
</mgrwt>
</event>
<event>
 5    1  0.3251953E-002  0.1250035E+03  0.7818608E-02  0.1235064E+00
         -4   -1    0    0    0  501 -0.00000000000E+00  0.00000000000E+00  0.11834764354E+03  0.11835445759E+03  0.12700000000E+01 0.  1.
          4   -1    0    0  501    0  0.00000000000E+00 -0.00000000000E+00 -0.32988447486E+02  0.33012884872E+02  0.12700000000E+01 0.  1.
         25    2    1    2    0    0  0.00000000000E+00  0.00000000000E+00  0.85359196053E+02  0.15136734246E+03  0.12500352000E+03 0.  0.
    9000005    1    3    3    0    0 -0.79853200196E+01  0.29287508670E+02 -0.23466687307E+02  0.38382403691E+02  0.10000000000E+01 0.  0.
    9000005    1    3    3    0    0  0.79853200196E+01 -0.29287508670E+02  0.10882588336E+03  0.11298493877E+03  0.10000000000E+01 0.  0.
<mgrwt>
<rscale>  0 0.12500352E+03</rscale>
<asrwt>0</asrwt>
<pdfrwt beam="2">  1        4 0.50775496E-02 0.12500352E+03</pdfrwt>
<pdfrwt beam="1">  1       -4 0.18209734E-01 0.12500352E+03</pdfrwt>
<totfact> 0.99023990E+03</totfact>
</mgrwt>
</event>
<event>
 5    1  0.3251953E-002  0.1250037E+03  0.7818608E-02  0.1235064E+00
          4   -1    0    0  501    0  0.00000000000E+00  0.00000000000E+00  0.34503549035E+01  0.36766627477E+01  0.12700000000E+01 0.  1.
         -4   -1    0    0    0  501 -0.00000000000E+00 -0.00000000000E+00 -0.10960182389E+04  0.10960189747E+04  0.12700000000E+01 0.  1.
         25    2    1    2    0    0  0.00000000000E+00  0.00000000000E+00 -0.10925678840E+04  0.10996956374E+04  0.12500365546E+03 0.  0.
    9000005    1    3    3    0    0 -0.19433491844E+02 -0.56893599466E+02 -0.69633832079E+03  0.69892960967E+03  0.10000000000E+01 0.  0.
    9000005    1    3    3    0    0  0.19433491844E+02  0.56893599466E+02 -0.39622956317E+03  0.40076602775E+03  0.10000000000E+01 0.  0.
<mgrwt>
<rscale>  0 0.12500366E+03</rscale>
<asrwt>0</asrwt>
<pdfrwt beam="1">  1        4 0.54828960E-03 0.12500366E+03</pdfrwt>
<pdfrwt beam="2">  1       -4 0.16863539E+00 0.12500366E+03</pdfrwt>
<totfact> 0.27490156E+03</totfact>
</mgrwt>
</event>
<event>
 5    1  0.3251953E-002  0.1250011E+03  0.7818608E-02  0.1235068E+00
         -4   -1    0    0    0  501 -0.00000000000E+00  0.00000000000E+00  0.16914853193E+02  0.16962463222E+02  0.12700000000E+01 0. -1.
          4   -1    0    0  501    0  0.00000000000E+00 -0.00000000000E+00 -0.23056621996E+03  0.23056971762E+03  0.12700000000E+01 0. -1.
         25    2    1    2    0    0  0.00000000000E+00  0.00000000000E+00 -0.21365136676E+03  0.24753218084E+03  0.12500109613E+03 0.  0.
    9000005    1    3    3    0    0 -0.48369293548E+02  0.60601799740E+01 -0.18425798732E+03  0.19059989567E+03  0.10000000000E+01 0.  0.
    9000005    1    3    3    0    0  0.48369293548E+02 -0.60601799740E+01 -0.29393379441E+02  0.56932285170E+02  0.10000000000E+01 0.  0.
<mgrwt>
<rscale>  0 0.12500110E+03</rscale>
<asrwt>0</asrwt>
<pdfrwt beam="2">  1        4 0.35475655E-01 0.12500110E+03</pdfrwt>
<pdfrwt beam="1">  1       -4 0.26062166E-02 0.12500110E+03</pdfrwt>
<totfact> 0.82686199E+03</totfact>
</mgrwt>
</event>
<event>
 5    1  0.3251953E-002  0.1250035E+03  0.7818608E-02  0.1235064E+00
         -4   -1    0    0    0  501 -0.00000000000E+00  0.00000000000E+00  0.83634282247E+03  0.83634378673E+03  0.12700000000E+01 0.  1.
          4   -1    0    0  501    0  0.00000000000E+00 -0.00000000000E+00 -0.45835804392E+01  0.47562705603E+01  0.12700000000E+01 0.  1.
         25    2    1    2    0    0  0.00000000000E+00  0.00000000000E+00  0.83175924203E+03  0.84110005729E+03  0.12500347861E+03 0.  0.
    9000005    1    3    3    0    0 -0.17958660998E+02  0.59117468537E+02  0.47902787117E+03  0.48299698752E+03  0.10000000000E+01 0.  0.
    9000005    1    3    3    0    0  0.17958660998E+02 -0.59117468537E+02  0.35273137086E+03  0.35810306977E+03  0.10000000000E+01 0.  0.
<mgrwt>
<rscale>  0 0.12500348E+03</rscale>
<asrwt>0</asrwt>
<pdfrwt beam="2">  1        4 0.71852450E-03 0.12500348E+03</pdfrwt>
<pdfrwt beam="1">  1       -4 0.12868144E+00 0.12500348E+03</pdfrwt>
<totfact> 0.36491550E+03</totfact>
</mgrwt>
</event>
<event>
 5    1  0.3251953E-002  0.1250012E+03  0.7818608E-02  0.1235067E+00
         -4   -1    0    0    0  501 -0.00000000000E+00  0.00000000000E+00  0.72992206410E+03  0.72992316894E+03  0.12700000000E+01 0. -1.
          4   -1    0    0  501    0  0.00000000000E+00 -0.00000000000E+00 -0.52752279921E+01  0.54259497205E+01  0.12700000000E+01 0. -1.
         25    2    1    2    0    0  0.00000000000E+00  0.00000000000E+00  0.72464683611E+03  0.73534911866E+03  0.12500115695E+03 0.  0.
    9000005    1    3    3    0    0 -0.58318501589E+02  0.18351017922E+02  0.43846224217E+03  0.44270525781E+03  0.10000000000E+01 0.  0.
    9000005    1    3    3    0    0  0.58318501589E+02 -0.18351017922E+02  0.28618459394E+03  0.29264386085E+03  0.10000000000E+01 0.  0.
<mgrwt>
<rscale>  0 0.12500116E+03</rscale>
<asrwt>0</asrwt>
<pdfrwt beam="2">  1        4 0.82325248E-03 0.12500116E+03</pdfrwt>
<pdfrwt beam="1">  1       -4 0.11230738E+00 0.12500116E+03</pdfrwt>
<totfact> 0.41283838E+03</totfact>
</mgrwt>
</event>
<event>
 5    1  0.3251953E-002  0.1250060E+03  0.7818608E-02  0.1235060E+00
          4   -1    0    0  501    0  0.00000000000E+00  0.00000000000E+00  0.14166235130E+03  0.14166804395E+03  0.12700000000E+01 0.  1.
         -4   -1    0    0    0  501 -0.00000000000E+00 -0.00000000000E+00 -0.27556138943E+02  0.27585389130E+02  0.12700000000E+01 0.  1.
         25    2    1    2    0    0  0.00000000000E+00  0.00000000000E+00  0.11410621236E+03  0.16925343308E+03  0.12500598750E+03 0.  0.
    9000005    1    3    3    0    0  0.48261810092E+02  0.39642771085E+02  0.54064369069E+02  0.82611788599E+02  0.10000000000E+01 0.  0.
    9000005    1    3    3    0    0 -0.48261810092E+02 -0.39642771085E+02  0.60041843293E+02  0.86641644483E+02  0.10000000000E+01 0.  0.
<mgrwt>
<rscale>  0 0.12500599E+03</rscale>
<asrwt>0</asrwt>
<pdfrwt beam="1">  1        4 0.21796896E-01 0.12500599E+03</pdfrwt>
<pdfrwt beam="2">  1       -4 0.42420939E-02 0.12500599E+03</pdfrwt>
<totfact> 0.95575018E+03</totfact>
</mgrwt>
</event>
<event>
 5    1  0.3251953E-002  0.1249926E+03  0.7818608E-02  0.1235081E+00
         -4   -1    0    0    0  501 -0.00000000000E+00  0.00000000000E+00  0.38860457876E+03  0.38860665400E+03  0.12700000000E+01 0. -1.
          4   -1    0    0  501    0  0.00000000000E+00 -0.00000000000E+00 -0.10008580138E+02  0.10088834242E+02  0.12700000000E+01 0. -1.
         25    2    1    2    0    0  0.00000000000E+00  0.00000000000E+00  0.37859599862E+03  0.39869548824E+03  0.12499264847E+03 0.  0.
    9000005    1    3    3    0    0 -0.57332589988E+02 -0.21301932959E+02  0.14845020540E+03  0.16055921557E+03  0.10000000000E+01 0.  0.
    9000005    1    3    3    0    0  0.57332589988E+02  0.21301932959E+02  0.23014579322E+03  0.23813627267E+03  0.10000000000E+01 0.  0.
<mgrwt>
<rscale>  0 0.12499265E+03</rscale>
<asrwt>0</asrwt>
<pdfrwt beam="2">  1        4 0.15461144E-02 0.12499265E+03</pdfrwt>
<pdfrwt beam="1">  1       -4 0.59791661E-01 0.12499265E+03</pdfrwt>
<totfact> 0.64690355E+03</totfact>
</mgrwt>
</event>
<event>
 5    1  0.3251953E-002  0.1249994E+03  0.7818608E-02  0.1235070E+00
          4   -1    0    0  501    0  0.00000000000E+00  0.00000000000E+00  0.14393351174E+03  0.14393911456E+03  0.12700000000E+01 0.  1.
         -4   -1    0    0    0  501 -0.00000000000E+00 -0.00000000000E+00 -0.27117994482E+02  0.27147716750E+02  0.12700000000E+01 0.  1.
         25    2    1    2    0    0  0.00000000000E+00  0.00000000000E+00  0.11681551725E+03  0.17108683131E+03  0.12499935511E+03 0.  0.
    9000005    1    3    3    0    0  0.48308892448E+02 -0.36994266896E+02  0.38912294043E+02  0.72232205424E+02  0.10000000000E+01 0.  0.
    9000005    1    3    3    0    0 -0.48308892448E+02  0.36994266896E+02  0.77903223211E+02  0.98854625888E+02  0.10000000000E+01 0.  0.
<mgrwt>
<rscale>  0 0.12499936E+03</rscale>
<asrwt>0</asrwt>
<pdfrwt beam="1">  1        4 0.22146334E-01 0.12499936E+03</pdfrwt>
<pdfrwt beam="2">  1       -4 0.41747165E-02 0.12499936E+03</pdfrwt>
<totfact> 0.95247832E+03</totfact>
</mgrwt>
</event>
<event>
 5    1  0.3251953E-002  0.1250043E+03  0.7818608E-02  0.1235063E+00
          4   -1    0    0  501    0  0.00000000000E+00  0.00000000000E+00  0.27278300456E+02  0.27307848245E+02  0.12700000000E+01 0.  1.
         -4   -1    0    0    0  501 -0.00000000000E+00 -0.00000000000E+00 -0.14309989979E+03  0.14310553525E+03  0.12700000000E+01 0.  1.
         25    2    1    2    0    0  0.00000000000E+00  0.00000000000E+00 -0.11582159934E+03  0.17041338350E+03  0.12500431354E+03 0.  0.
    9000005    1    3    3    0    0  0.55943565674E+02  0.54173253756E+01 -0.95157739211E+02  0.11052160552E+03  0.10000000000E+01 0.  0.
    9000005    1    3    3    0    0 -0.55943565674E+02 -0.54173253756E+01 -0.20663860125E+02  0.59891777982E+02  0.10000000000E+01 0.  0.
<mgrwt>
<rscale>  0 0.12500431E+03</rscale>
<asrwt>0</asrwt>
<pdfrwt beam="1">  1        4 0.41993681E-02 0.12500431E+03</pdfrwt>
<pdfrwt beam="2">  1       -4 0.22018075E-01 0.12500431E+03</pdfrwt>
<totfact> 0.95362411E+03</totfact>
</mgrwt>
</event>
<event>
 5    1  0.3251953E-002  0.1249954E+03  0.7818608E-02  0.1235077E+00
         -4   -1    0    0    0  501 -0.00000000000E+00  0.00000000000E+00  0.50766627923E+01  0.52331066401E+01  0.12700000000E+01 0.  1.
          4   -1    0    0  501    0  0.00000000000E+00 -0.00000000000E+00 -0.75756329981E+03  0.75756436434E+03  0.12700000000E+01 0.  1.
         25    2    1    2    0    0  0.00000000000E+00  0.00000000000E+00 -0.75248663702E+03  0.76279747098E+03  0.12499537129E+03 0.  0.
    9000005    1    3    3    0    0  0.48567033326E+01 -0.61915097362E+02 -0.33400999636E+03  0.33973628672E+03  0.10000000000E+01 0.  0.
    9000005    1    3    3    0    0 -0.48567033326E+01  0.61915097362E+02 -0.41847664067E+03  0.42306118426E+03  0.10000000000E+01 0.  0.
<mgrwt>
<rscale>  0 0.12499537E+03</rscale>
<asrwt>0</asrwt>
<pdfrwt beam="2">  1        4 0.11656023E+00 0.12499537E+03</pdfrwt>
<pdfrwt beam="1">  1       -4 0.79314168E-03 0.12499537E+03</pdfrwt>
<totfact> 0.39973458E+03</totfact>
</mgrwt>
</event>
<event>
 5    1  0.3251953E-002  0.1249935E+03  0.7818608E-02  0.1235080E+00
          4   -1    0    0  501    0  0.00000000000E+00  0.00000000000E+00  0.20105928716E+03  0.20106329813E+03  0.12700000000E+01 0.  1.
         -4   -1    0    0    0  501 -0.00000000000E+00 -0.00000000000E+00 -0.19401347633E+02  0.19442869901E+02  0.12700000000E+01 0.  1.
         25    2    1    2    0    0  0.00000000000E+00  0.00000000000E+00  0.18165793953E+03  0.22050616803E+03  0.12499345241E+03 0.  0.
    9000005    1    3    3    0    0  0.61568272466E+02 -0.73893540886E+01  0.77211205698E+02  0.99034463767E+02  0.10000000000E+01 0.  0.
    9000005    1    3    3    0    0 -0.61568272466E+02  0.73893540886E+01  0.10444673383E+03  0.12147170426E+03  0.10000000000E+01 0.  0.
<mgrwt>
<rscale>  0 0.12499345E+03</rscale>
<asrwt>0</asrwt>
<pdfrwt beam="1">  1        4 0.30935698E-01 0.12499345E+03</pdfrwt>
<pdfrwt beam="2">  1       -4 0.29883255E-02 0.12499345E+03</pdfrwt>
<totfact> 0.86801014E+03</totfact>
</mgrwt>
</event>
<event>
 5    1  0.3251953E-002  0.1250540E+03  0.7818608E-02  0.1234985E+00
         -4   -1    0    0    0  501 -0.00000000000E+00  0.00000000000E+00  0.41100381212E+02  0.41119998003E+02  0.12700000000E+01 0.  1.
          4   -1    0    0  501    0  0.00000000000E+00 -0.00000000000E+00 -0.95077301404E+02  0.95085783071E+02  0.12700000000E+01 0.  1.
         25    2    1    2    0    0  0.00000000000E+00  0.00000000000E+00 -0.53976920192E+02  0.13620578107E+03  0.12505401587E+03 0.  0.
    9000005    1    3    3    0    0 -0.14062363408E+02  0.58673222923E+02 -0.91469272332E+01  0.61032478489E+02  0.10000000000E+01 0.  0.
    9000005    1    3    3    0    0  0.14062363408E+02 -0.58673222923E+02 -0.44829992959E+02  0.75173302584E+02  0.10000000000E+01 0.  0.
<mgrwt>
<rscale>  0 0.12505402E+03</rscale>
<asrwt>0</asrwt>
<pdfrwt beam="2">  1        4 0.14629439E-01 0.12505402E+03</pdfrwt>
<pdfrwt beam="1">  1       -4 0.63252970E-02 0.12505402E+03</pdfrwt>
<totfact> 0.10200289E+04</totfact>
</mgrwt>
</event>
<event>
 5    1  0.3251953E-002  0.1250000E+03  0.7818608E-02  0.1235069E+00
         -4   -1    0    0    0  501 -0.00000000000E+00  0.00000000000E+00  0.43757228572E+02  0.43775654790E+02  0.12700000000E+01 0. -1.
          4   -1    0    0  501    0  0.00000000000E+00 -0.00000000000E+00 -0.89229230341E+02  0.89238267841E+02  0.12700000000E+01 0. -1.
         25    2    1    2    0    0  0.00000000000E+00  0.00000000000E+00 -0.45472001769E+02  0.13301392263E+03  0.12500000268E+03 0.  0.
    9000005    1    3    3    0    0 -0.20759636852E+02  0.22910997996E+02  0.35053905244E+02  0.46750963885E+02  0.10000000000E+01 0.  0.
    9000005    1    3    3    0    0  0.20759636852E+02 -0.22910997996E+02 -0.80525907012E+02  0.86262958745E+02  0.10000000000E+01 0.  0.
<mgrwt>
<rscale>  0 0.12500000E+03</rscale>
<asrwt>0</asrwt>
<pdfrwt beam="2">  1        4 0.13729686E-01 0.12500000E+03</pdfrwt>
<pdfrwt beam="1">  1       -4 0.67339939E-02 0.12500000E+03</pdfrwt>
<totfact> 0.10280103E+04</totfact>
</mgrwt>
</event>
<event>
 5    1  0.3251953E-002  0.1249994E+03  0.7818608E-02  0.1235070E+00
         -4   -1    0    0    0  501 -0.00000000000E+00  0.00000000000E+00  0.40415849047E+02  0.40435797929E+02  0.12700000000E+01 0.  1.
          4   -1    0    0  501    0  0.00000000000E+00 -0.00000000000E+00 -0.96602592353E+02  0.96610940112E+02  0.12700000000E+01 0.  1.
         25    2    1    2    0    0  0.00000000000E+00  0.00000000000E+00 -0.56186743307E+02  0.13704673804E+03  0.12499943314E+03 0.  0.
    9000005    1    3    3    0    0 -0.30886324295E+02  0.30576074044E+02 -0.77324973663E+02  0.88707456758E+02  0.10000000000E+01 0.  0.
    9000005    1    3    3    0    0  0.30886324295E+02 -0.30576074044E+02  0.21138230356E+02  0.48339281284E+02  0.10000000000E+01 0.  0.
<mgrwt>
<rscale>  0 0.12499943E+03</rscale>
<asrwt>0</asrwt>
<pdfrwt beam="2">  1        4 0.14864114E-01 0.12499943E+03</pdfrwt>
<pdfrwt beam="1">  1       -4 0.62199996E-02 0.12499943E+03</pdfrwt>
<totfact> 0.10195239E+04</totfact>
</mgrwt>
</event>
<event>
 5    1  0.3251953E-002  0.1249972E+03  0.7818608E-02  0.1235074E+00
          4   -1    0    0  501    0  0.00000000000E+00  0.00000000000E+00  0.10550427068E+03  0.10551191417E+03  0.12700000000E+01 0. -1.
         -4   -1    0    0    0  501 -0.00000000000E+00 -0.00000000000E+00 -0.37003017111E+02  0.37024804865E+02  0.12700000000E+01 0. -1.
         25    2    1    2    0    0  0.00000000000E+00  0.00000000000E+00  0.68501253571E+02  0.14253671904E+03  0.12499717810E+03 0.  0.
    9000005    1    3    3    0    0  0.76115513834E+01 -0.55322310893E+02  0.22691912510E+01  0.55898506474E+02  0.10000000000E+01 0.  0.
    9000005    1    3    3    0    0 -0.76115513834E+01  0.55322310893E+02  0.66232062320E+02  0.86638212564E+02  0.10000000000E+01 0.  0.
<mgrwt>
<rscale>  0 0.12499718E+03</rscale>
<asrwt>0</asrwt>
<pdfrwt beam="1">  1        4 0.16233690E-01 0.12499718E+03</pdfrwt>
<pdfrwt beam="2">  1       -4 0.56950359E-02 0.12499718E+03</pdfrwt>
<totfact> 0.10081920E+04</totfact>
</mgrwt>
</event>
<event>
 5    1  0.3251953E-002  0.1250045E+03  0.7818608E-02  0.1235062E+00
         -4   -1    0    0    0  501 -0.00000000000E+00  0.00000000000E+00  0.30449852405E+03  0.30450117249E+03  0.12700000000E+01 0. -1.
          4   -1    0    0  501    0  0.00000000000E+00 -0.00000000000E+00 -0.12795255685E+02  0.12858128482E+02  0.12700000000E+01 0. -1.
         25    2    1    2    0    0  0.00000000000E+00  0.00000000000E+00  0.29170326837E+03  0.31735930097E+03  0.12500451648E+03 0.  0.
    9000005    1    3    3    0    0  0.57694282234E+02  0.14202996898E+01  0.84979861250E+02  0.10272888723E+03  0.10000000000E+01 0.  0.
    9000005    1    3    3    0    0 -0.57694282234E+02 -0.14202996898E+01  0.20672340712E+03  0.21463041374E+03  0.10000000000E+01 0.  0.
<mgrwt>
<rscale>  0 0.12500452E+03</rscale>
<asrwt>0</asrwt>
<pdfrwt beam="2">  1        4 0.19735409E-02 0.12500452E+03</pdfrwt>
<pdfrwt beam="1">  1       -4 0.46850968E-01 0.12500452E+03</pdfrwt>
<totfact> 0.73463947E+03</totfact>
</mgrwt>
</event>
<event>
 5    1  0.3251953E-002  0.1249972E+03  0.7818608E-02  0.1235074E+00
          4   -1    0    0  501    0  0.00000000000E+00  0.00000000000E+00  0.15157343168E+02  0.15210455349E+02  0.12700000000E+01 0. -1.
         -4   -1    0    0    0  501 -0.00000000000E+00 -0.00000000000E+00 -0.25719641484E+03  0.25719955036E+03  0.12700000000E+01 0. -1.
         25    2    1    2    0    0  0.00000000000E+00  0.00000000000E+00 -0.24203907167E+03  0.27241000571E+03  0.12499719595E+03 0.  0.
    9000005    1    3    3    0    0 -0.77538806457E+01  0.60980466161E+02 -0.96524147104E+02  0.11444059984E+03  0.10000000000E+01 0.  0.
    9000005    1    3    3    0    0  0.77538806457E+01 -0.60980466161E+02 -0.14551492457E+03  0.15796940587E+03  0.10000000000E+01 0.  0.
<mgrwt>
<rscale>  0 0.12499720E+03</rscale>
<asrwt>0</asrwt>
<pdfrwt beam="1">  1        4 0.23362259E-02 0.12499720E+03</pdfrwt>
<pdfrwt beam="2">  1       -4 0.39573003E-01 0.12499720E+03</pdfrwt>
<totfact> 0.79200308E+03</totfact>
</mgrwt>
</event>
<event>
 5    1  0.3251953E-002  0.1249998E+03  0.7818608E-02  0.1235070E+00
         -4   -1    0    0    0  501 -0.00000000000E+00  0.00000000000E+00  0.91589958242E+03  0.91590046292E+03  0.12700000000E+01 0. -1.
          4   -1    0    0  501    0  0.00000000000E+00 -0.00000000000E+00 -0.41694724752E+01  0.43586007757E+01  0.12700000000E+01 0. -1.
         25    2    1    2    0    0  0.00000000000E+00  0.00000000000E+00  0.91173010994E+03  0.92025906369E+03  0.12499980374E+03 0.  0.
    9000005    1    3    3    0    0  0.55336352661E+02  0.23127579773E+02  0.32661049385E+03  0.33207290098E+03  0.10000000000E+01 0.  0.
    9000005    1    3    3    0    0 -0.55336352661E+02 -0.23127579773E+02  0.58511961609E+03  0.58818616271E+03  0.10000000000E+01 0.  0.
<mgrwt>
<rscale>  0 0.12499980E+03</rscale>
<asrwt>0</asrwt>
<pdfrwt beam="2">  1        4 0.65607296E-03 0.12499980E+03</pdfrwt>
<pdfrwt beam="1">  1       -4 0.14092233E+00 0.12499980E+03</pdfrwt>
<totfact> 0.33396076E+03</totfact>
</mgrwt>
</event>
<event>
 5    1  0.3251953E-002  0.1250015E+03  0.7818608E-02  0.1235067E+00
          4   -1    0    0  501    0  0.00000000000E+00  0.00000000000E+00  0.27450167734E+02  0.27479530720E+02  0.12700000000E+01 0. -1.
         -4   -1    0    0    0  501 -0.00000000000E+00 -0.00000000000E+00 -0.14219852302E+03  0.14220419421E+03  0.12700000000E+01 0. -1.
         25    2    1    2    0    0  0.00000000000E+00  0.00000000000E+00 -0.11474835529E+03  0.16968372493E+03  0.12500152585E+03 0.  0.
    9000005    1    3    3    0    0  0.49283346300E+02  0.34288619210E+02 -0.80916805490E+02  0.10076252796E+03  0.10000000000E+01 0.  0.
    9000005    1    3    3    0    0 -0.49283346300E+02 -0.34288619210E+02 -0.33831549800E+02  0.68921196969E+02  0.10000000000E+01 0.  0.
<mgrwt>
<rscale>  0 0.12500153E+03</rscale>
<asrwt>0</asrwt>
<pdfrwt beam="1">  1        4 0.42257978E-02 0.12500153E+03</pdfrwt>
<pdfrwt beam="2">  1       -4 0.21879390E-01 0.12500153E+03</pdfrwt>
<totfact> 0.95504348E+03</totfact>
</mgrwt>
</event>
<event>
 5    1  0.3251953E-002  0.1249894E+03  0.7818608E-02  0.1235086E+00
          4   -1    0    0  501    0  0.00000000000E+00  0.00000000000E+00  0.44398259480E+03  0.44398441120E+03  0.12700000000E+01 0. -1.
         -4   -1    0    0    0  501 -0.00000000000E+00 -0.00000000000E+00 -0.87490310140E+01  0.88407264228E+01  0.12700000000E+01 0. -1.
         25    2    1    2    0    0  0.00000000000E+00  0.00000000000E+00  0.43523356379E+03  0.45282513762E+03  0.12498940041E+03 0.  0.
    9000005    1    3    3    0    0 -0.25420751319E+01 -0.41953976124E+01  0.44330169752E+03  0.44332996575E+03  0.10000000000E+01 0.  0.
    9000005    1    3    3    0    0  0.25420751319E+01  0.41953976124E+01 -0.80681337279E+01  0.94951718760E+01  0.10000000000E+01 0.  0.
<mgrwt>
<rscale>  0 0.12498940E+03</rscale>
<asrwt>0</asrwt>
<pdfrwt beam="1">  1        4 0.68312215E-01 0.12498940E+03</pdfrwt>
<pdfrwt beam="2">  1       -4 0.13531979E-02 0.12498940E+03</pdfrwt>
<totfact> 0.59733771E+03</totfact>
</mgrwt>
</event>
<event>
 5    1  0.3251953E-002  0.1249977E+03  0.7818608E-02  0.1235073E+00
         -4   -1    0    0    0  501 -0.00000000000E+00  0.00000000000E+00  0.41002328015E+01  0.42924129608E+01  0.12700000000E+01 0.  1.
          4   -1    0    0  501    0  0.00000000000E+00 -0.00000000000E+00 -0.93064726258E+03  0.93064812913E+03  0.12700000000E+01 0.  1.
         25    2    1    2    0    0  0.00000000000E+00  0.00000000000E+00 -0.92654702978E+03  0.93494054209E+03  0.12499767537E+03 0.  0.
    9000005    1    3    3    0    0 -0.83707079536E+00 -0.42168701367E+02 -0.11838034964E+03  0.12567341502E+03  0.10000000000E+01 0.  0.
    9000005    1    3    3    0    0  0.83707079536E+00  0.42168701367E+02 -0.80816668014E+03  0.80926712707E+03  0.10000000000E+01 0.  0.
<mgrwt>
<rscale>  0 0.12499768E+03</rscale>
<asrwt>0</asrwt>
<pdfrwt beam="2">  1        4 0.14319119E+00 0.12499768E+03</pdfrwt>
<pdfrwt beam="1">  1       -4 0.64565553E-03 0.12499768E+03</pdfrwt>
<totfact> 0.32858454E+03</totfact>
</mgrwt>
</event>
<event>
 5    1  0.3251953E-002  0.1250006E+03  0.7818608E-02  0.1235068E+00
          4   -1    0    0  501    0  0.00000000000E+00  0.00000000000E+00  0.59757070566E+01  0.61091713699E+01  0.12700000000E+01 0.  1.
         -4   -1    0    0    0  501 -0.00000000000E+00 -0.00000000000E+00 -0.64634092267E+03  0.64634217039E+03  0.12700000000E+01 0.  1.
         25    2    1    2    0    0  0.00000000000E+00  0.00000000000E+00 -0.64036521561E+03  0.65245134176E+03  0.12500057596E+03 0.  0.
    9000005    1    3    3    0    0  0.18965210306E+02  0.30878256590E+02 -0.58592775766E+03  0.58704810972E+03  0.10000000000E+01 0.  0.
    9000005    1    3    3    0    0 -0.18965210306E+02 -0.30878256590E+02 -0.54437457958E+02  0.65403232037E+02  0.10000000000E+01 0.  0.
<mgrwt>
<rscale>  0 0.12500058E+03</rscale>
<asrwt>0</asrwt>
<pdfrwt beam="1">  1        4 0.92970252E-03 0.12500058E+03</pdfrwt>
<pdfrwt beam="2">  1       -4 0.99447373E-01 0.12500058E+03</pdfrwt>
<totfact> 0.45714952E+03</totfact>
</mgrwt>
</event>
<event>
 5    1  0.3251953E-002  0.1250004E+03  0.7818608E-02  0.1235069E+00
         -4   -1    0    0    0  501 -0.00000000000E+00  0.00000000000E+00  0.63929851791E+02  0.63942465155E+02  0.12700000000E+01 0. -1.
          4   -1    0    0  501    0  0.00000000000E+00 -0.00000000000E+00 -0.61077240752E+02  0.61090443098E+02  0.12700000000E+01 0. -1.
         25    2    1    2    0    0  0.00000000000E+00  0.00000000000E+00  0.28526110394E+01  0.12503290825E+03  0.12500036303E+03 0.  0.
    9000005    1    3    3    0    0 -0.32642736700E+02  0.47036210986E+02 -0.23626558338E+02  0.61944875995E+02  0.10000000000E+01 0.  0.
    9000005    1    3    3    0    0  0.32642736700E+02 -0.47036210986E+02  0.26479169377E+02  0.63088032257E+02  0.10000000000E+01 0.  0.
<mgrwt>
<rscale>  0 0.12500036E+03</rscale>
<asrwt>0</asrwt>
<pdfrwt beam="2">  1        4 0.93984845E-02 0.12500036E+03</pdfrwt>
<pdfrwt beam="1">  1       -4 0.98373475E-02 0.12500036E+03</pdfrwt>
<totfact> 0.10452062E+04</totfact>
</mgrwt>
</event>
<event>
 5    1  0.3251953E-002  0.1249888E+03  0.7818608E-02  0.1235087E+00
         -4   -1    0    0    0  501 -0.00000000000E+00  0.00000000000E+00  0.83124475870E+02  0.83134177019E+02  0.12700000000E+01 0.  1.
          4   -1    0    0  501    0  0.00000000000E+00 -0.00000000000E+00 -0.46963357560E+02  0.46980526320E+02  0.12700000000E+01 0.  1.
         25    2    1    2    0    0  0.00000000000E+00  0.00000000000E+00  0.36161118310E+02  0.13011470334E+03  0.12498883769E+03 0.  0.
    9000005    1    3    3    0    0  0.33558402722E+01  0.34832812277E+02 -0.35810879997E+02  0.50079992025E+02  0.10000000000E+01 0.  0.
    9000005    1    3    3    0    0 -0.33558402722E+01 -0.34832812277E+02  0.71971998306E+02  0.80034711315E+02  0.10000000000E+01 0.  0.
<mgrwt>
<rscale>  0 0.12498884E+03</rscale>
<asrwt>0</asrwt>
<pdfrwt beam="2">  1        4 0.72271990E-02 0.12498884E+03</pdfrwt>
<pdfrwt beam="1">  1       -4 0.12790448E-01 0.12498884E+03</pdfrwt>
<totfact> 0.10344661E+04</totfact>
</mgrwt>
</event>
<event>
 5    1  0.3251953E-002  0.1250007E+03  0.7818608E-02  0.1235068E+00
          4   -1    0    0  501    0  0.00000000000E+00  0.00000000000E+00  0.11592206103E+03  0.11592901765E+03  0.12700000000E+01 0. -1.
         -4   -1    0    0    0  501 -0.00000000000E+00 -0.00000000000E+00 -0.33677666196E+02  0.33701603826E+02  0.12700000000E+01 0. -1.
         25    2    1    2    0    0  0.00000000000E+00  0.00000000000E+00  0.82244394834E+02  0.14963062148E+03  0.12500072961E+03 0.  0.
    9000005    1    3    3    0    0 -0.39919750355E+02 -0.54425402094E+01  0.98306142644E+02  0.10624643709E+03  0.10000000000E+01 0.  0.
    9000005    1    3    3    0    0  0.39919750355E+02  0.54425402094E+01 -0.16061747810E+02  0.43384184388E+02  0.10000000000E+01 0.  0.
<mgrwt>
<rscale>  0 0.12500073E+03</rscale>
<asrwt>0</asrwt>
<pdfrwt beam="1">  1        4 0.17836540E-01 0.12500073E+03</pdfrwt>
<pdfrwt beam="2">  1       -4 0.51835557E-02 0.12500073E+03</pdfrwt>
<totfact> 0.99375746E+03</totfact>
</mgrwt>
</event>
<event>
 5    1  0.3251953E-002  0.1250030E+03  0.7818608E-02  0.1235065E+00
          4   -1    0    0  501    0  0.00000000000E+00  0.00000000000E+00  0.26706194893E+02  0.26736374954E+02  0.12700000000E+01 0. -1.
         -4   -1    0    0    0  501 -0.00000000000E+00 -0.00000000000E+00 -0.14615901019E+03  0.14616452771E+03  0.12700000000E+01 0. -1.
         25    2    1    2    0    0  0.00000000000E+00  0.00000000000E+00 -0.11945281530E+03  0.17290090266E+03  0.12500298820E+03 0.  0.
    9000005    1    3    3    0    0 -0.58932782358E+02  0.12587675501E+02 -0.82618435260E+02  0.10226596822E+03  0.10000000000E+01 0.  0.
    9000005    1    3    3    0    0  0.58932782358E+02 -0.12587675501E+02 -0.36834380039E+02  0.70634934443E+02  0.10000000000E+01 0.  0.
<mgrwt>
<rscale>  0 0.12500299E+03</rscale>
<asrwt>0</asrwt>
<pdfrwt beam="1">  1        4 0.41113914E-02 0.12500299E+03</pdfrwt>
<pdfrwt beam="2">  1       -4 0.22488747E-01 0.12500299E+03</pdfrwt>
<totfact> 0.94904334E+03</totfact>
</mgrwt>
</event>
<event>
 5    1  0.3251953E-002  0.1250002E+03  0.7818608E-02  0.1235069E+00
         -4   -1    0    0    0  501 -0.00000000000E+00  0.00000000000E+00  0.29370715295E+03  0.29370989870E+03  0.12700000000E+01 0. -1.
          4   -1    0    0  501    0  0.00000000000E+00 -0.00000000000E+00 -0.13266723277E+02  0.13327372078E+02  0.12700000000E+01 0. -1.
         25    2    1    2    0    0  0.00000000000E+00  0.00000000000E+00  0.28044042967E+03  0.30703727077E+03  0.12500020420E+03 0.  0.
    9000005    1    3    3    0    0  0.67929313189E+01  0.30458793411E+02  0.72309790547E+01  0.32049478468E+02  0.10000000000E+01 0.  0.
    9000005    1    3    3    0    0 -0.67929313189E+01 -0.30458793411E+02  0.27320945062E+03  0.27498779231E+03  0.10000000000E+01 0.  0.
<mgrwt>
<rscale>  0 0.12500020E+03</rscale>
<asrwt>0</asrwt>
<pdfrwt beam="2">  1        4 0.20459108E-02 0.12500020E+03</pdfrwt>
<pdfrwt beam="1">  1       -4 0.45190593E-01 0.12500020E+03</pdfrwt>
<totfact> 0.74724151E+03</totfact>
</mgrwt>
</event>
<event>
 5    1  0.3251953E-002  0.1250019E+03  0.7818608E-02  0.1235066E+00
          4   -1    0    0  501    0  0.00000000000E+00  0.00000000000E+00  0.30569454910E+02  0.30595824446E+02  0.12700000000E+01 0.  1.
         -4   -1    0    0    0  501 -0.00000000000E+00 -0.00000000000E+00 -0.12770212497E+03  0.12770843990E+03  0.12700000000E+01 0.  1.
         25    2    1    2    0    0  0.00000000000E+00  0.00000000000E+00 -0.97132670056E+02  0.15830426434E+03  0.12500193805E+03 0.  0.
    9000005    1    3    3    0    0  0.18474994306E+02  0.40461901135E+02 -0.10415717452E+03  0.11326167870E+03  0.10000000000E+01 0.  0.
    9000005    1    3    3    0    0 -0.18474994306E+02 -0.40461901135E+02  0.70245044670E+01  0.45042585639E+02  0.10000000000E+01 0.  0.
<mgrwt>
<rscale>  0 0.12500194E+03</rscale>
<asrwt>0</asrwt>
<pdfrwt beam="1">  1        4 0.47055073E-02 0.12500194E+03</pdfrwt>
<pdfrwt beam="2">  1       -4 0.19648995E-01 0.12500194E+03</pdfrwt>
<totfact> 0.97666453E+03</totfact>
</mgrwt>
</event>
<event>
 5    1  0.3251953E-002  0.1250036E+03  0.7818608E-02  0.1235064E+00
          4   -1    0    0  501    0  0.00000000000E+00  0.00000000000E+00  0.13276362283E+03  0.13276969702E+03  0.12700000000E+01 0.  1.
         -4   -1    0    0    0  501 -0.00000000000E+00 -0.00000000000E+00 -0.29403839745E+02  0.29431253656E+02  0.12700000000E+01 0.  1.
         25    2    1    2    0    0  0.00000000000E+00  0.00000000000E+00  0.10335978308E+03  0.16220095067E+03  0.12500361451E+03 0.  0.
    9000005    1    3    3    0    0  0.59047685621E+02 -0.15957948269E+02  0.68306550765E+02  0.91695529703E+02  0.10000000000E+01 0.  0.
    9000005    1    3    3    0    0 -0.59047685621E+02  0.15957948269E+02  0.35053232316E+02  0.70505420969E+02  0.10000000000E+01 0.  0.
<mgrwt>
<rscale>  0 0.12500361E+03</rscale>
<asrwt>0</asrwt>
<pdfrwt beam="1">  1        4 0.20427749E-01 0.12500361E+03</pdfrwt>
<pdfrwt beam="2">  1       -4 0.45262437E-02 0.12500361E+03</pdfrwt>
<totfact> 0.96912258E+03</totfact>
</mgrwt>
</event>
<event>
 5    1  0.3251953E-002  0.1249987E+03  0.7818608E-02  0.1235071E+00
         -4   -1    0    0    0  501 -0.00000000000E+00  0.00000000000E+00  0.49957827908E+03  0.49957989334E+03  0.12700000000E+01 0.  1.
          4   -1    0    0  501    0  0.00000000000E+00 -0.00000000000E+00 -0.77657217250E+01  0.78688839050E+01  0.12700000000E+01 0.  1.
         25    2    1    2    0    0  0.00000000000E+00  0.00000000000E+00  0.49181255736E+03  0.50744877724E+03  0.12499867981E+03 0.  0.
    9000005    1    3    3    0    0  0.60015349124E+02  0.16305044958E+02  0.27075669421E+03  0.27780907847E+03  0.10000000000E+01 0.  0.
    9000005    1    3    3    0    0 -0.60015349124E+02 -0.16305044958E+02  0.22105586315E+03  0.22963969878E+03  0.10000000000E+01 0.  0.
<mgrwt>
<rscale>  0 0.12499868E+03</rscale>
<asrwt>0</asrwt>
<pdfrwt beam="2">  1        4 0.12027862E-02 0.12499868E+03</pdfrwt>
<pdfrwt beam="1">  1       -4 0.76866252E-01 0.12499868E+03</pdfrwt>
<totfact> 0.55292635E+03</totfact>
</mgrwt>
</event>
<event>
 5    1  0.3251953E-002  0.1249845E+03  0.7818608E-02  0.1235093E+00
         -4   -1    0    0    0  501 -0.00000000000E+00  0.00000000000E+00  0.66528978025E+01  0.67730310180E+01  0.12700000000E+01 0. -1.
          4   -1    0    0  501    0  0.00000000000E+00 -0.00000000000E+00 -0.58163152330E+03  0.58163290983E+03  0.12700000000E+01 0. -1.
         25    2    1    2    0    0  0.00000000000E+00  0.00000000000E+00 -0.57497862550E+03  0.58840594085E+03  0.12498452482E+03 0.  0.
    9000005    1    3    3    0    0  0.18657436168E+02  0.59531077921E+02 -0.27102287365E+03  0.27811229244E+03  0.10000000000E+01 0.  0.
    9000005    1    3    3    0    0 -0.18657436168E+02 -0.59531077921E+02 -0.30395575185E+03  0.31029364841E+03  0.10000000000E+01 0.  0.
<mgrwt>
<rscale>  0 0.12498452E+03</rscale>
<asrwt>0</asrwt>
<pdfrwt beam="2">  1        4 0.89491081E-01 0.12498452E+03</pdfrwt>
<pdfrwt beam="1">  1       -4 0.10328709E-02 0.12498452E+03</pdfrwt>
<totfact> 0.49624593E+03</totfact>
</mgrwt>
</event>
<event>
 5    1  0.3251953E-002  0.1250079E+03  0.7818608E-02  0.1235057E+00
          4   -1    0    0  501    0  0.00000000000E+00  0.00000000000E+00  0.17303083328E+03  0.17303549395E+03  0.12700000000E+01 0. -1.
         -4   -1    0    0    0  501 -0.00000000000E+00 -0.00000000000E+00 -0.22555472352E+02  0.22591198132E+02  0.12700000000E+01 0. -1.
         25    2    1    2    0    0  0.00000000000E+00  0.00000000000E+00  0.15047536093E+03  0.19562669208E+03  0.12500787338E+03 0.  0.
    9000005    1    3    3    0    0 -0.46062738870E+02  0.26649952841E+02  0.12651691868E+03  0.13725715504E+03  0.10000000000E+01 0.  0.
    9000005    1    3    3    0    0  0.46062738870E+02 -0.26649952841E+02  0.23958442248E+02  0.58369537034E+02  0.10000000000E+01 0.  0.
<mgrwt>
<rscale>  0 0.12500787E+03</rscale>
<asrwt>0</asrwt>
<pdfrwt beam="1">  1        4 0.26623234E-01 0.12500787E+03</pdfrwt>
<pdfrwt beam="2">  1       -4 0.34731794E-02 0.12500787E+03</pdfrwt>
<totfact> 0.90861384E+03</totfact>
</mgrwt>
</event>
<event>
 5    1  0.3251953E-002  0.1250080E+03  0.7818608E-02  0.1235057E+00
         -4   -1    0    0    0  501 -0.00000000000E+00  0.00000000000E+00  0.43600550224E+02  0.43619042629E+02  0.12700000000E+01 0.  1.
          4   -1    0    0  501    0  0.00000000000E+00 -0.00000000000E+00 -0.89561205311E+02  0.89570209315E+02  0.12700000000E+01 0.  1.
         25    2    1    2    0    0  0.00000000000E+00  0.00000000000E+00 -0.45960655086E+02  0.13318925194E+03  0.12500797981E+03 0.  0.
    9000005    1    3    3    0    0 -0.33100397773E+02 -0.36030675422E+02  0.18447616957E+02  0.52298761701E+02  0.10000000000E+01 0.  0.
    9000005    1    3    3    0    0  0.33100397773E+02  0.36030675422E+02 -0.64408272043E+02  0.80890490243E+02  0.10000000000E+01 0.  0.
<mgrwt>
<rscale>  0 0.12500798E+03</rscale>
<asrwt>0</asrwt>
<pdfrwt beam="2">  1        4 0.13780762E-01 0.12500798E+03</pdfrwt>
<pdfrwt beam="1">  1       -4 0.67098921E-02 0.12500798E+03</pdfrwt>
<totfact> 0.10274530E+04</totfact>
</mgrwt>
</event>
<event>
 5    1  0.3251953E-002  0.1249981E+03  0.7818608E-02  0.1235072E+00
         -4   -1    0    0    0  501 -0.00000000000E+00  0.00000000000E+00  0.18624837480E+03  0.18625270472E+03  0.12700000000E+01 0.  1.
          4   -1    0    0  501    0  0.00000000000E+00 -0.00000000000E+00 -0.20948904783E+02  0.20987365524E+02  0.12700000000E+01 0.  1.
         25    2    1    2    0    0  0.00000000000E+00  0.00000000000E+00  0.16529947002E+03  0.20724007025E+03  0.12499812769E+03 0.  0.
    9000005    1    3    3    0    0  0.70339821929E+01  0.46836053635E+02  0.15058407036E+02  0.49707629677E+02  0.10000000000E+01 0.  0.
    9000005    1    3    3    0    0 -0.70339821929E+01 -0.46836053635E+02  0.15024106298E+03  0.15753244057E+03  0.10000000000E+01 0.  0.
<mgrwt>
<rscale>  0 0.12499813E+03</rscale>
<asrwt>0</asrwt>
<pdfrwt beam="2">  1        4 0.32262000E-02 0.12499813E+03</pdfrwt>
<pdfrwt beam="1">  1       -4 0.28656888E-01 0.12499813E+03</pdfrwt>
<totfact> 0.88932329E+03</totfact>
</mgrwt>
</event>
<event>
 5    1  0.3251953E-002  0.1249978E+03  0.7818608E-02  0.1235073E+00
          4   -1    0    0  501    0  0.00000000000E+00  0.00000000000E+00  0.62832629514E+01  0.64103270834E+01  0.12700000000E+01 0. -1.
         -4   -1    0    0    0  501 -0.00000000000E+00 -0.00000000000E+00 -0.61531887358E+03  0.61532018420E+03  0.12700000000E+01 0. -1.
         25    2    1    2    0    0  0.00000000000E+00  0.00000000000E+00 -0.60903561063E+03  0.62173051129E+03  0.12499781457E+03 0.  0.
    9000005    1    3    3    0    0  0.55447739409E+01  0.58625573377E+02 -0.40854445960E+03  0.41276782559E+03  0.10000000000E+01 0.  0.
    9000005    1    3    3    0    0 -0.55447739409E+01 -0.58625573377E+02 -0.20049115104E+03  0.20896268570E+03  0.10000000000E+01 0.  0.
<mgrwt>
<rscale>  0 0.12499781E+03</rscale>
<asrwt>0</asrwt>
<pdfrwt beam="1">  1        4 0.97653131E-03 0.12499781E+03</pdfrwt>
<pdfrwt beam="2">  1       -4 0.94674270E-01 0.12499781E+03</pdfrwt>
<totfact> 0.47526327E+03</totfact>
</mgrwt>
</event>
<event>
 5    1  0.3251953E-002  0.1250031E+03  0.7818608E-02  0.1235064E+00
          4   -1    0    0  501    0  0.00000000000E+00  0.00000000000E+00  0.63451227726E+01  0.64709723380E+01  0.12700000000E+01 0. -1.
         -4   -1    0    0    0  501 -0.00000000000E+00 -0.00000000000E+00 -0.60948871795E+03  0.60949004111E+03  0.12700000000E+01 0. -1.
         25    2    1    2    0    0  0.00000000000E+00  0.00000000000E+00 -0.60314359518E+03  0.61596101345E+03  0.12500309468E+03 0.  0.
    9000005    1    3    3    0    0  0.45000103524E+02  0.43317048719E+02 -0.31150960417E+03  0.31771151933E+03  0.10000000000E+01 0.  0.
    9000005    1    3    3    0    0 -0.45000103524E+02 -0.43317048719E+02 -0.29163399101E+03  0.29824949412E+03  0.10000000000E+01 0.  0.
<mgrwt>
<rscale>  0 0.12500309E+03</rscale>
<asrwt>0</asrwt>
<pdfrwt beam="1">  1        4 0.98595574E-03 0.12500309E+03</pdfrwt>
<pdfrwt beam="2">  1       -4 0.93777231E-01 0.12500309E+03</pdfrwt>
<totfact> 0.47872130E+03</totfact>
</mgrwt>
</event>
<event>
 5    1  0.3251953E-002  0.1250036E+03  0.7818608E-02  0.1235064E+00
         -4   -1    0    0    0  501 -0.00000000000E+00  0.00000000000E+00  0.33248041253E+02  0.33272287976E+02  0.12700000000E+01 0.  1.
          4   -1    0    0  501    0  0.00000000000E+00 -0.00000000000E+00 -0.11742437726E+03  0.11743124488E+03  0.12700000000E+01 0.  1.
         25    2    1    2    0    0  0.00000000000E+00  0.00000000000E+00 -0.84176336006E+02  0.15070353286E+03  0.12500359704E+03 0.  0.
    9000005    1    3    3    0    0 -0.58529819286E+02 -0.15598099304E+02 -0.60625884169E+02  0.85706115761E+02  0.10000000000E+01 0.  0.
    9000005    1    3    3    0    0  0.58529819286E+02  0.15598099304E+02 -0.23550451837E+02  0.64997417097E+02  0.10000000000E+01 0.  0.
<mgrwt>
<rscale>  0 0.12500360E+03</rscale>
<asrwt>0</asrwt>
<pdfrwt beam="2">  1        4 0.18067682E-01 0.12500360E+03</pdfrwt>
<pdfrwt beam="1">  1       -4 0.51174767E-02 0.12500360E+03</pdfrwt>
<totfact> 0.99155618E+03</totfact>
</mgrwt>
</event>
<event>
 5    1  0.3251953E-002  0.1249991E+03  0.7818608E-02  0.1235071E+00
          4   -1    0    0  501    0  0.00000000000E+00  0.00000000000E+00  0.56322443244E+02  0.56336759873E+02  0.12700000000E+01 0.  1.
         -4   -1    0    0    0  501 -0.00000000000E+00 -0.00000000000E+00 -0.69325124219E+02  0.69336756111E+02  0.12700000000E+01 0.  1.
         25    2    1    2    0    0  0.00000000000E+00  0.00000000000E+00 -0.13002680975E+02  0.12567351598E+03  0.12499905163E+03 0.  0.
    9000005    1    3    3    0    0 -0.16174093787E+02 -0.25151745455E+02 -0.61669807893E+02  0.68544706687E+02  0.10000000000E+01 0.  0.
    9000005    1    3    3    0    0  0.16174093787E+02  0.25151745455E+02  0.48667126918E+02  0.57128809297E+02  0.10000000000E+01 0.  0.
<mgrwt>
<rscale>  0 0.12499905E+03</rscale>
<asrwt>0</asrwt>
<pdfrwt beam="1">  1        4 0.86669873E-02 0.12499905E+03</pdfrwt>
<pdfrwt beam="2">  1       -4 0.10667400E-01 0.12499905E+03</pdfrwt>
<totfact> 0.10438351E+04</totfact>
</mgrwt>
</event>
<event>
 5    1  0.3251953E-002  0.1250036E+03  0.7818608E-02  0.1235064E+00
          4   -1    0    0  501    0  0.00000000000E+00  0.00000000000E+00  0.14558756892E+02  0.14614044691E+02  0.12700000000E+01 0. -1.
         -4   -1    0    0    0  501 -0.00000000000E+00 -0.00000000000E+00 -0.26775946026E+03  0.26776247209E+03  0.12700000000E+01 0. -1.
         25    2    1    2    0    0  0.00000000000E+00  0.00000000000E+00 -0.25320070337E+03  0.28237651678E+03  0.12500360412E+03 0.  0.
    9000005    1    3    3    0    0  0.38967984316E+02  0.15315293661E+02 -0.23140218242E+03  0.23516171468E+03  0.10000000000E+01 0.  0.
    9000005    1    3    3    0    0 -0.38967984316E+02 -0.15315293661E+02 -0.21798520942E+02  0.47214802095E+02  0.10000000000E+01 0.  0.
<mgrwt>
<rscale>  0 0.12500360E+03</rscale>
<asrwt>0</asrwt>
<pdfrwt beam="1">  1        4 0.22442935E-02 0.12500360E+03</pdfrwt>
<pdfrwt beam="2">  1       -4 0.41198244E-01 0.12500360E+03</pdfrwt>
<totfact> 0.77857813E+03</totfact>
</mgrwt>
</event>
<event>
 5    1  0.3251953E-002  0.1250030E+03  0.7818608E-02  0.1235065E+00
          4   -1    0    0  501    0  0.00000000000E+00  0.00000000000E+00  0.32508453688E+02  0.32533251623E+02  0.12700000000E+01 0. -1.
         -4   -1    0    0    0  501 -0.00000000000E+00 -0.00000000000E+00 -0.12009291409E+03  0.12009962911E+03  0.12700000000E+01 0. -1.
         25    2    1    2    0    0  0.00000000000E+00  0.00000000000E+00 -0.87584460397E+02  0.15263288074E+03  0.12500303428E+03 0.  0.
    9000005    1    3    3    0    0  0.30582605078E+02  0.28283251306E+02  0.13090127147E+02  0.43675959824E+02  0.10000000000E+01 0.  0.
    9000005    1    3    3    0    0 -0.30582605078E+02 -0.28283251306E+02 -0.10067458754E+03  0.10895692091E+03  0.10000000000E+01 0.  0.
<mgrwt>
<rscale>  0 0.12500303E+03</rscale>
<asrwt>0</asrwt>
<pdfrwt beam="1">  1        4 0.50037247E-02 0.12500303E+03</pdfrwt>
<pdfrwt beam="2">  1       -4 0.18478257E-01 0.12500303E+03</pdfrwt>
<totfact> 0.98774695E+03</totfact>
</mgrwt>
</event>
<event>
 5    1  0.3251953E-002  0.1250007E+03  0.7818608E-02  0.1235068E+00
         -4   -1    0    0    0  501 -0.00000000000E+00  0.00000000000E+00  0.32234587543E+02  0.32259595999E+02  0.12700000000E+01 0. -1.
          4   -1    0    0  501    0  0.00000000000E+00 -0.00000000000E+00 -0.12110789559E+03  0.12111455434E+03  0.12700000000E+01 0. -1.
         25    2    1    2    0    0  0.00000000000E+00  0.00000000000E+00 -0.88873308047E+02  0.15337415034E+03  0.12500066044E+03 0.  0.
    9000005    1    3    3    0    0  0.57431360557E+01 -0.43769564650E+02  0.98362970945E+01  0.45238381292E+02  0.10000000000E+01 0.  0.
    9000005    1    3    3    0    0 -0.57431360557E+01  0.43769564650E+02 -0.98709605141E+02  0.10813576905E+03  0.10000000000E+01 0.  0.
<mgrwt>
<rscale>  0 0.12500066E+03</rscale>
<asrwt>0</asrwt>
<pdfrwt beam="2">  1        4 0.18634420E-01 0.12500066E+03</pdfrwt>
<pdfrwt beam="1">  1       -4 0.49616033E-02 0.12500066E+03</pdfrwt>
<totfact> 0.98633849E+03</totfact>
</mgrwt>
</event>
<event>
 5    1  0.3251953E-002  0.1250213E+03  0.7818608E-02  0.1235036E+00
         -4   -1    0    0    0  501 -0.00000000000E+00  0.00000000000E+00  0.90903793822E+02  0.90912664856E+02  0.12700000000E+01 0.  1.
          4   -1    0    0  501    0  0.00000000000E+00 -0.00000000000E+00 -0.42965563588E+02  0.42984329172E+02  0.12700000000E+01 0.  1.
         25    2    1    2    0    0  0.00000000000E+00  0.00000000000E+00  0.47938230234E+02  0.13389699403E+03  0.12502132255E+03 0.  0.
    9000005    1    3    3    0    0  0.17264468588E+02 -0.35611893518E+02  0.75780332636E+02  0.85498114892E+02  0.10000000000E+01 0.  0.
    9000005    1    3    3    0    0 -0.17264468588E+02  0.35611893518E+02 -0.27842102402E+02  0.48398879137E+02  0.10000000000E+01 0.  0.
<mgrwt>
<rscale>  0 0.12502132E+03</rscale>
<asrwt>0</asrwt>
<pdfrwt beam="2">  1        4 0.66122126E-02 0.12502132E+03</pdfrwt>
<pdfrwt beam="1">  1       -4 0.13987325E-01 0.12502132E+03</pdfrwt>
<totfact> 0.10256439E+04</totfact>
</mgrwt>
</event>
<event>
 5    1  0.3251953E-002  0.1250013E+03  0.7818608E-02  0.1235067E+00
          4   -1    0    0  501    0  0.00000000000E+00  0.00000000000E+00  0.43827658803E+02  0.43846055423E+02  0.12700000000E+01 0. -1.
         -4   -1    0    0    0  501 -0.00000000000E+00 -0.00000000000E+00 -0.89087692701E+02  0.89096744557E+02  0.12700000000E+01 0. -1.
         25    2    1    2    0    0  0.00000000000E+00  0.00000000000E+00 -0.45260033898E+02  0.13294279998E+03  0.12500126959E+03 0.  0.
    9000005    1    3    3    0    0  0.27504659747E+02 -0.12416340449E+02 -0.80830150248E+02  0.86285485494E+02  0.10000000000E+01 0.  0.
    9000005    1    3    3    0    0 -0.27504659747E+02  0.12416340449E+02  0.35570116349E+02  0.46657314486E+02  0.10000000000E+01 0.  0.
<mgrwt>
<rscale>  0 0.12500127E+03</rscale>
<asrwt>0</asrwt>
<pdfrwt beam="1">  1        4 0.67448282E-02 0.12500127E+03</pdfrwt>
<pdfrwt beam="2">  1       -4 0.13707910E-01 0.12500127E+03</pdfrwt>
<totfact> 0.10281321E+04</totfact>
</mgrwt>
</event>
<event>
 5    1  0.3251953E-002  0.1250264E+03  0.7818608E-02  0.1235028E+00
         -4   -1    0    0    0  501 -0.00000000000E+00  0.00000000000E+00  0.33718271819E+02  0.33742180642E+02  0.12700000000E+01 0.  1.
          4   -1    0    0  501    0  0.00000000000E+00 -0.00000000000E+00 -0.11583005623E+03  0.11583701838E+03  0.12700000000E+01 0.  1.
         25    2    1    2    0    0  0.00000000000E+00  0.00000000000E+00 -0.82111784413E+02  0.14957919902E+03  0.12502636378E+03 0.  0.
    9000005    1    3    3    0    0 -0.47655252187E+02 -0.26613846165E+02 -0.46187059770E+01  0.54787337164E+02  0.10000000000E+01 0.  0.
    9000005    1    3    3    0    0  0.47655252187E+02  0.26613846165E+02 -0.77493078436E+02  0.94791861856E+02  0.10000000000E+01 0.  0.
<mgrwt>
<rscale>  0 0.12502636E+03</rscale>
<asrwt>0</asrwt>
<pdfrwt beam="2">  1        4 0.17822383E-01 0.12502636E+03</pdfrwt>
<pdfrwt beam="1">  1       -4 0.51898012E-02 0.12502636E+03</pdfrwt>
<totfact> 0.99328695E+03</totfact>
</mgrwt>
</event>
<event>
 5    1  0.3251953E-002  0.1249879E+03  0.7818608E-02  0.1235088E+00
          4   -1    0    0  501    0  0.00000000000E+00  0.00000000000E+00  0.27921308759E+03  0.27921597587E+03  0.12700000000E+01 0. -1.
         -4   -1    0    0    0  501 -0.00000000000E+00 -0.00000000000E+00 -0.13955697420E+02  0.14013364710E+02  0.12700000000E+01 0. -1.
         25    2    1    2    0    0  0.00000000000E+00  0.00000000000E+00  0.26525739017E+03  0.29322934058E+03  0.12498785196E+03 0.  0.
    9000005    1    3    3    0    0 -0.20055038773E+02 -0.54082559132E+02  0.76256610542E+02  0.95620073384E+02  0.10000000000E+01 0.  0.
    9000005    1    3    3    0    0  0.20055038773E+02  0.54082559132E+02  0.18900077963E+03  0.19760926720E+03  0.10000000000E+01 0.  0.
<mgrwt>
<rscale>  0 0.12498785E+03</rscale>
<asrwt>0</asrwt>
<pdfrwt beam="1">  1        4 0.42960515E-01 0.12498785E+03</pdfrwt>
<pdfrwt beam="2">  1       -4 0.21516886E-02 0.12498785E+03</pdfrwt>
<totfact> 0.76476695E+03</totfact>
</mgrwt>
</event>
<event>
 5    1  0.3251953E-002  0.1249996E+03  0.7818608E-02  0.1235070E+00
         -4   -1    0    0    0  501 -0.00000000000E+00  0.00000000000E+00  0.22217826152E+02  0.22254093981E+02  0.12700000000E+01 0. -1.
          4   -1    0    0  501    0  0.00000000000E+00 -0.00000000000E+00 -0.17563290296E+03  0.17563749458E+03  0.12700000000E+01 0. -1.
         25    2    1    2    0    0  0.00000000000E+00  0.00000000000E+00 -0.15341507681E+03  0.19789158856E+03  0.12499958012E+03 0.  0.
    9000005    1    3    3    0    0 -0.39950753807E+02 -0.32291710010E+02 -0.13304604683E+03  0.14262211555E+03  0.10000000000E+01 0.  0.
    9000005    1    3    3    0    0  0.39950753807E+02  0.32291710010E+02 -0.20369029976E+02  0.55269473014E+02  0.10000000000E+01 0.  0.
<mgrwt>
<rscale>  0 0.12499958E+03</rscale>
<asrwt>0</asrwt>
<pdfrwt beam="2">  1        4 0.27023589E-01 0.12499958E+03</pdfrwt>
<pdfrwt beam="1">  1       -4 0.34212702E-02 0.12499958E+03</pdfrwt>
<totfact> 0.90492896E+03</totfact>
</mgrwt>
</event>
<event>
 5    1  0.3251953E-002  0.1250016E+03  0.7818608E-02  0.1235067E+00
          4   -1    0    0  501    0  0.00000000000E+00  0.00000000000E+00  0.13336338467E+02  0.13396672113E+02  0.12700000000E+01 0.  1.
         -4   -1    0    0    0  501 -0.00000000000E+00 -0.00000000000E+00 -0.29218763875E+03  0.29219039878E+03  0.12700000000E+01 0.  1.
         25    2    1    2    0    0  0.00000000000E+00  0.00000000000E+00 -0.27885130028E+03  0.30558707089E+03  0.12500164090E+03 0.  0.
    9000005    1    3    3    0    0 -0.20800494160E+02  0.14740570887E+02  0.57563928423E-01  0.25513688502E+02  0.10000000000E+01 0.  0.
    9000005    1    3    3    0    0  0.20800494160E+02 -0.14740570887E+02 -0.27890886421E+03  0.28007338239E+03  0.10000000000E+01 0.  0.
<mgrwt>
<rscale>  0 0.12500164E+03</rscale>
<asrwt>0</asrwt>
<pdfrwt beam="1">  1        4 0.20565980E-02 0.12500164E+03</pdfrwt>
<pdfrwt beam="2">  1       -4 0.44956793E-01 0.12500164E+03</pdfrwt>
<totfact> 0.74900584E+03</totfact>
</mgrwt>
</event>
<event>
 5    1  0.3251953E-002  0.1249977E+03  0.7818608E-02  0.1235073E+00
         -4   -1    0    0    0  501 -0.00000000000E+00  0.00000000000E+00  0.17867795214E+01  0.21921407478E+01  0.12700000000E+01 0. -1.
          4   -1    0    0  501    0  0.00000000000E+00 -0.00000000000E+00 -0.19629932289E+04  0.19629936397E+04  0.12700000000E+01 0. -1.
         25    2    1    2    0    0  0.00000000000E+00  0.00000000000E+00 -0.19612064494E+04  0.19651857805E+04  0.12499765876E+03 0.  0.
    9000005    1    3    3    0    0 -0.28444765011E+02 -0.45261325898E+02 -0.47178766739E+03  0.47480764040E+03  0.10000000000E+01 0.  0.
    9000005    1    3    3    0    0  0.28444765011E+02  0.45261325898E+02 -0.14894187820E+04  0.14903781401E+04  0.10000000000E+01 0.  0.
<mgrwt>
<rscale>  0 0.12499766E+03</rscale>
<asrwt>0</asrwt>
<pdfrwt beam="2">  1        4 0.30202862E+00 0.12499766E+03</pdfrwt>
<pdfrwt beam="1">  1       -4 0.30610396E-03 0.12499766E+03</pdfrwt>
<totfact> 0.10323273E+03</totfact>
</mgrwt>
</event>
<event>
 5    1  0.3251953E-002  0.1249990E+03  0.7818608E-02  0.1235071E+00
         -4   -1    0    0    0  501 -0.00000000000E+00  0.00000000000E+00  0.45688134894E+02  0.45705782677E+02  0.12700000000E+01 0. -1.
          4   -1    0    0  501    0  0.00000000000E+00 -0.00000000000E+00 -0.85457921483E+02  0.85467357770E+02  0.12700000000E+01 0. -1.
         25    2    1    2    0    0  0.00000000000E+00  0.00000000000E+00 -0.39769786588E+02  0.13117314045E+03  0.12499902739E+03 0.  0.
    9000005    1    3    3    0    0  0.49693411125E+02 -0.29447325577E+02 -0.44908228449E+02  0.73173281157E+02  0.10000000000E+01 0.  0.
    9000005    1    3    3    0    0 -0.49693411125E+02  0.29447325577E+02  0.51384418606E+01  0.57999859290E+02  0.10000000000E+01 0.  0.
<mgrwt>
<rscale>  0 0.12499903E+03</rscale>
<asrwt>0</asrwt>
<pdfrwt beam="2">  1        4 0.13149456E-01 0.12499903E+03</pdfrwt>
<pdfrwt beam="1">  1       -4 0.70310272E-02 0.12499903E+03</pdfrwt>
<totfact> 0.10319605E+04</totfact>
</mgrwt>
</event>
<event>
 5    1  0.3251953E-002  0.1249978E+03  0.7818608E-02  0.1235073E+00
         -4   -1    0    0    0  501 -0.00000000000E+00  0.00000000000E+00  0.13207719599E+03  0.13208330175E+03  0.12700000000E+01 0. -1.
          4   -1    0    0  501    0  0.00000000000E+00 -0.00000000000E+00 -0.29554031761E+02  0.29581306485E+02  0.12700000000E+01 0. -1.
         25    2    1    2    0    0  0.00000000000E+00  0.00000000000E+00  0.10252316423E+03  0.16166460824E+03  0.12499778539E+03 0.  0.
    9000005    1    3    3    0    0  0.53425147089E+02  0.32414305004E+02  0.51807361772E+02  0.81178422282E+02  0.10000000000E+01 0.  0.
    9000005    1    3    3    0    0 -0.53425147089E+02 -0.32414305004E+02  0.50715802461E+02  0.80486185955E+02  0.10000000000E+01 0.  0.
<mgrwt>
<rscale>  0 0.12499779E+03</rscale>
<asrwt>0</asrwt>
<pdfrwt beam="2">  1        4 0.45493418E-02 0.12499779E+03</pdfrwt>
<pdfrwt beam="1">  1       -4 0.20322137E-01 0.12499779E+03</pdfrwt>
<totfact> 0.97027647E+03</totfact>
</mgrwt>
</event>
<event>
 5    1  0.3251953E-002  0.1250000E+03  0.7818608E-02  0.1235069E+00
         -4   -1    0    0    0  501 -0.00000000000E+00  0.00000000000E+00  0.86046954825E+01  0.86979126431E+01  0.12700000000E+01 0.  1.
          4   -1    0    0  501    0  0.00000000000E+00 -0.00000000000E+00 -0.45142734817E+03  0.45142913461E+03  0.12700000000E+01 0.  1.
         25    2    1    2    0    0  0.00000000000E+00  0.00000000000E+00 -0.44282265269E+03  0.46012704725E+03  0.12499999153E+03 0.  0.
    9000005    1    3    3    0    0 -0.29374171308E+02 -0.52042881901E+02 -0.15414373376E+03  0.16532572139E+03  0.10000000000E+01 0.  0.
    9000005    1    3    3    0    0  0.29374171308E+02  0.52042881901E+02 -0.28867891893E+03  0.29480132586E+03  0.10000000000E+01 0.  0.
<mgrwt>
<rscale>  0 0.12499999E+03</rscale>
<asrwt>0</asrwt>
<pdfrwt beam="2">  1        4 0.69457651E-01 0.12499999E+03</pdfrwt>
<pdfrwt beam="1">  1       -4 0.13311076E-02 0.12499999E+03</pdfrwt>
<totfact> 0.59096440E+03</totfact>
</mgrwt>
</event>
<event>
 5    1  0.3251953E-002  0.1250047E+03  0.7818608E-02  0.1235062E+00
         -4   -1    0    0    0  501 -0.00000000000E+00  0.00000000000E+00  0.12922477590E+03  0.12923101643E+03  0.12700000000E+01 0. -1.
          4   -1    0    0  501    0  0.00000000000E+00 -0.00000000000E+00 -0.30210278403E+02  0.30236961176E+02  0.12700000000E+01 0. -1.
         25    2    1    2    0    0  0.00000000000E+00  0.00000000000E+00  0.99014497502E+02  0.15946797761E+03  0.12500466058E+03 0.  0.
    9000005    1    3    3    0    0  0.34410959520E+02  0.51896952134E+02  0.56273673944E+02  0.83935297432E+02  0.10000000000E+01 0.  0.
    9000005    1    3    3    0    0 -0.34410959520E+02 -0.51896952134E+02  0.42740823558E+02  0.75532680175E+02  0.10000000000E+01 0.  0.
<mgrwt>
<rscale>  0 0.12500466E+03</rscale>
<asrwt>0</asrwt>
<pdfrwt beam="2">  1        4 0.46502678E-02 0.12500466E+03</pdfrwt>
<pdfrwt beam="1">  1       -4 0.19883267E-01 0.12500466E+03</pdfrwt>
<totfact> 0.97435245E+03</totfact>
</mgrwt>
</event>
<event>
 5    1  0.3251953E-002  0.1249978E+03  0.7818608E-02  0.1235073E+00
         -4   -1    0    0    0  501 -0.00000000000E+00  0.00000000000E+00  0.24875409672E+03  0.24875733866E+03  0.12700000000E+01 0. -1.
          4   -1    0    0  501    0  0.00000000000E+00 -0.00000000000E+00 -0.15673666279E+02  0.15725034646E+02  0.12700000000E+01 0. -1.
         25    2    1    2    0    0  0.00000000000E+00  0.00000000000E+00  0.23308043044E+03  0.26448237330E+03  0.12499775491E+03 0.  0.
    9000005    1    3    3    0    0 -0.36911210489E+02 -0.37837301411E+02  0.46013497927E+02  0.70088093349E+02  0.10000000000E+01 0.  0.
    9000005    1    3    3    0    0  0.36911210489E+02  0.37837301411E+02  0.18706693252E+03  0.19439427995E+03  0.10000000000E+01 0.  0.
<mgrwt>
<rscale>  0 0.12499775E+03</rscale>
<asrwt>0</asrwt>
<pdfrwt beam="2">  1        4 0.24155340E-02 0.12499775E+03</pdfrwt>
<pdfrwt beam="1">  1       -4 0.38274063E-01 0.12499775E+03</pdfrwt>
<totfact> 0.80285119E+03</totfact>
</mgrwt>
</event>
<event>
 5    1  0.3251953E-002  0.1249973E+03  0.7818608E-02  0.1235074E+00
          4   -1    0    0  501    0  0.00000000000E+00  0.00000000000E+00  0.26938963736E+02  0.26968883313E+02  0.12700000000E+01 0.  1.
         -4   -1    0    0    0  501 -0.00000000000E+00 -0.00000000000E+00 -0.14488425253E+03  0.14488981859E+03  0.12700000000E+01 0.  1.
         25    2    1    2    0    0  0.00000000000E+00  0.00000000000E+00 -0.11794528879E+03  0.17185870190E+03  0.12499728905E+03 0.  0.
    9000005    1    3    3    0    0 -0.13986742905E+02  0.87131993332E+01  0.23904620975E+02  0.29051329120E+02  0.10000000000E+01 0.  0.
    9000005    1    3    3    0    0  0.13986742905E+02 -0.87131993332E+01 -0.14184990977E+03  0.14280737278E+03  0.10000000000E+01 0.  0.
<mgrwt>
<rscale>  0 0.12499729E+03</rscale>
<asrwt>0</asrwt>
<pdfrwt beam="1">  1        4 0.41471857E-02 0.12499729E+03</pdfrwt>
<pdfrwt beam="2">  1       -4 0.22292614E-01 0.12499729E+03</pdfrwt>
<totfact> 0.95109117E+03</totfact>
</mgrwt>
</event>
<event>
 5    1  0.3251953E-002  0.1249911E+03  0.7818608E-02  0.1235083E+00
         -4   -1    0    0    0  501 -0.00000000000E+00  0.00000000000E+00  0.46443623641E+01  0.48148729754E+01  0.12700000000E+01 0.  1.
          4   -1    0    0  501    0  0.00000000000E+00 -0.00000000000E+00 -0.82562371978E+03  0.82562469656E+03  0.12700000000E+01 0.  1.
         25    2    1    2    0    0  0.00000000000E+00  0.00000000000E+00 -0.82097935742E+03  0.83043956953E+03  0.12499109304E+03 0.  0.
    9000005    1    3    3    0    0 -0.16599798796E+02 -0.15680690586E+01 -0.81060359582E+03  0.81077567904E+03  0.10000000000E+01 0.  0.
    9000005    1    3    3    0    0  0.16599798796E+02  0.15680690586E+01 -0.10375761592E+02  0.19663890491E+02  0.10000000000E+01 0.  0.
<mgrwt>
<rscale>  0 0.12499109E+03</rscale>
<asrwt>0</asrwt>
<pdfrwt beam="2">  1        4 0.12703211E+00 0.12499109E+03</pdfrwt>
<pdfrwt beam="1">  1       -4 0.72770928E-03 0.12499109E+03</pdfrwt>
<totfact> 0.36948607E+03</totfact>
</mgrwt>
</event>
<event>
 5    1  0.3251953E-002  0.1250011E+03  0.7818608E-02  0.1235068E+00
          4   -1    0    0  501    0  0.00000000000E+00  0.00000000000E+00  0.14483766108E+02  0.14539339073E+02  0.12700000000E+01 0.  1.
         -4   -1    0    0    0  501 -0.00000000000E+00 -0.00000000000E+00 -0.26912976829E+03  0.26913276478E+03  0.12700000000E+01 0.  1.
         25    2    1    2    0    0  0.00000000000E+00  0.00000000000E+00 -0.25464600218E+03  0.28367210385E+03  0.12500110431E+03 0.  0.
    9000005    1    3    3    0    0  0.26400208542E+02  0.30692420033E+01 -0.25567569741E+03  0.25705535105E+03  0.10000000000E+01 0.  0.
    9000005    1    3    3    0    0 -0.26400208542E+02 -0.30692420033E+01  0.10296952309E+01  0.26616752803E+02  0.10000000000E+01 0.  0.
<mgrwt>
<rscale>  0 0.12500110E+03</rscale>
<asrwt>0</asrwt>
<pdfrwt beam="1">  1        4 0.22327772E-02 0.12500110E+03</pdfrwt>
<pdfrwt beam="2">  1       -4 0.41409081E-01 0.12500110E+03</pdfrwt>
<totfact> 0.77691812E+03</totfact>
</mgrwt>
</event>
<event>
 5    1  0.3251953E-002  0.1250409E+03  0.7818608E-02  0.1235005E+00
         -4   -1    0    0    0  501 -0.00000000000E+00  0.00000000000E+00  0.14248388947E+02  0.14304876357E+02  0.12700000000E+01 0.  1.
          4   -1    0    0  501    0  0.00000000000E+00 -0.00000000000E+00 -0.27373259430E+03  0.27373554041E+03  0.12700000000E+01 0.  1.
         25    2    1    2    0    0  0.00000000000E+00  0.00000000000E+00 -0.25948420536E+03  0.28804041677E+03  0.12504090875E+03 0.  0.
    9000005    1    3    3    0    0  0.18498818092E+02 -0.20645115330E+02 -0.67271080847E+00  0.27746704266E+02  0.10000000000E+01 0.  0.
    9000005    1    3    3    0    0 -0.18498818092E+02  0.20645115330E+02 -0.25881149455E+03  0.26029371250E+03  0.10000000000E+01 0.  0.
<mgrwt>
<rscale>  0 0.12504091E+03</rscale>
<asrwt>0</asrwt>
<pdfrwt beam="2">  1        4 0.42117275E-01 0.12504091E+03</pdfrwt>
<pdfrwt beam="1">  1       -4 0.21966318E-02 0.12504091E+03</pdfrwt>
<totfact> 0.77053891E+03</totfact>
</mgrwt>
</event>
<event>
 5    1  0.3251953E-002  0.1250048E+03  0.7818608E-02  0.1235062E+00
          4   -1    0    0  501    0  0.00000000000E+00  0.00000000000E+00  0.10253321501E+02  0.10331674686E+02  0.12700000000E+01 0. -1.
         -4   -1    0    0    0  501 -0.00000000000E+00 -0.00000000000E+00 -0.37947358849E+03  0.37947571366E+03  0.12700000000E+01 0. -1.
         25    2    1    2    0    0  0.00000000000E+00  0.00000000000E+00 -0.36922026698E+03  0.38980738835E+03  0.12500477774E+03 0.  0.
    9000005    1    3    3    0    0  0.42619298717E+02 -0.37412490341E+02 -0.10273072383E+03  0.11734862878E+03  0.10000000000E+01 0.  0.
    9000005    1    3    3    0    0 -0.42619298717E+02  0.37412490341E+02 -0.26648954315E+03  0.27245875957E+03  0.10000000000E+01 0.  0.
<mgrwt>
<rscale>  0 0.12500478E+03</rscale>
<asrwt>0</asrwt>
<pdfrwt beam="1">  1        4 0.15836250E-02 0.12500478E+03</pdfrwt>
<pdfrwt beam="2">  1       -4 0.58386732E-01 0.12500478E+03</pdfrwt>
<totfact> 0.65549418E+03</totfact>
</mgrwt>
</event>
<event>
 5    1  0.3251953E-002  0.1249994E+03  0.7818608E-02  0.1235070E+00
          4   -1    0    0  501    0  0.00000000000E+00  0.00000000000E+00  0.90315489601E+03  0.90315578894E+03  0.12700000000E+01 0. -1.
         -4   -1    0    0    0  501 -0.00000000000E+00 -0.00000000000E+00 -0.42309321544E+01  0.44174298970E+01  0.12700000000E+01 0. -1.
         25    2    1    2    0    0  0.00000000000E+00  0.00000000000E+00  0.89892396386E+03  0.90757321883E+03  0.12499941899E+03 0.  0.
    9000005    1    3    3    0    0 -0.11781722154E+02 -0.96530440656E+01  0.88950724644E+03  0.88963820271E+03  0.10000000000E+01 0.  0.
    9000005    1    3    3    0    0  0.11781722154E+02  0.96530440656E+01  0.94167174117E+01  0.17935016127E+02  0.10000000000E+01 0.  0.
<mgrwt>
<rscale>  0 0.12499942E+03</rscale>
<asrwt>0</asrwt>
<pdfrwt beam="1">  1        4 0.13896146E+00 0.12499942E+03</pdfrwt>
<pdfrwt beam="2">  1       -4 0.66532666E-03 0.12499942E+03</pdfrwt>
<totfact> 0.33871983E+03</totfact>
</mgrwt>
</event>
<event>
 5    1  0.3251953E-002  0.1249951E+03  0.7818608E-02  0.1235077E+00
          4   -1    0    0  501    0  0.00000000000E+00  0.00000000000E+00  0.78307261928E+02  0.78317559785E+02  0.12700000000E+01 0.  1.
         -4   -1    0    0    0  501 -0.00000000000E+00 -0.00000000000E+00 -0.49858019320E+02  0.49874191627E+02  0.12700000000E+01 0.  1.
         25    2    1    2    0    0  0.00000000000E+00  0.00000000000E+00  0.28449242608E+02  0.12819175141E+03  0.12499506280E+03 0.  0.
    9000005    1    3    3    0    0 -0.19498937349E+02  0.23370844721E+02  0.70196345384E+02  0.76517526398E+02  0.10000000000E+01 0.  0.
    9000005    1    3    3    0    0  0.19498937349E+02 -0.23370844721E+02 -0.41747102776E+02  0.51674225015E+02  0.10000000000E+01 0.  0.
<mgrwt>
<rscale>  0 0.12499506E+03</rscale>
<asrwt>0</asrwt>
<pdfrwt beam="1">  1        4 0.12049307E-01 0.12499506E+03</pdfrwt>
<pdfrwt beam="2">  1       -4 0.76725007E-02 0.12499506E+03</pdfrwt>
<totfact> 0.10384506E+04</totfact>
</mgrwt>
</event>
<event>
 5    1  0.3251953E-002  0.1250028E+03  0.7818608E-02  0.1235065E+00
         -4   -1    0    0    0  501 -0.00000000000E+00  0.00000000000E+00  0.51181548948E+02  0.51197303178E+02  0.12700000000E+01 0. -1.
          4   -1    0    0  501    0  0.00000000000E+00 -0.00000000000E+00 -0.76292140482E+02  0.76302710302E+02  0.12700000000E+01 0. -1.
         25    2    1    2    0    0  0.00000000000E+00  0.00000000000E+00 -0.25110591535E+02  0.12750001348E+03  0.12500284649E+03 0.  0.
    9000005    1    3    3    0    0  0.12187670128E+02 -0.32238384340E+02  0.40616473528E+02  0.53278050357E+02  0.10000000000E+01 0.  0.
    9000005    1    3    3    0    0 -0.12187670128E+02  0.32238384340E+02 -0.65727065063E+02  0.74221963122E+02  0.10000000000E+01 0.  0.
<mgrwt>
<rscale>  0 0.12500285E+03</rscale>
<asrwt>0</asrwt>
<pdfrwt beam="2">  1        4 0.11739277E-01 0.12500285E+03</pdfrwt>
<pdfrwt beam="1">  1       -4 0.78761093E-02 0.12500285E+03</pdfrwt>
<totfact> 0.10397632E+04</totfact>
</mgrwt>
</event>
<event>
 5    1  0.3251953E-002  0.1249983E+03  0.7818608E-02  0.1235072E+00
          4   -1    0    0  501    0  0.00000000000E+00  0.00000000000E+00  0.15071874354E+02  0.15125286660E+02  0.12700000000E+01 0.  1.
         -4   -1    0    0    0  501 -0.00000000000E+00 -0.00000000000E+00 -0.25865418765E+03  0.25865730551E+03  0.12700000000E+01 0.  1.
         25    2    1    2    0    0  0.00000000000E+00  0.00000000000E+00 -0.24358231330E+03  0.27378259217E+03  0.12499825767E+03 0.  0.
    9000005    1    3    3    0    0 -0.59533910281E+02  0.16995687307E+02 -0.10320575832E+03  0.12035600696E+03  0.10000000000E+01 0.  0.
    9000005    1    3    3    0    0  0.59533910281E+02 -0.16995687307E+02 -0.14037655498E+03  0.15342658521E+03  0.10000000000E+01 0.  0.
<mgrwt>
<rscale>  0 0.12499826E+03</rscale>
<asrwt>0</asrwt>
<pdfrwt beam="1">  1        4 0.23230986E-02 0.12499826E+03</pdfrwt>
<pdfrwt beam="2">  1       -4 0.39797297E-01 0.12499826E+03</pdfrwt>
<totfact> 0.79012840E+03</totfact>
</mgrwt>
</event>
<event>
 5    1  0.3251953E-002  0.1249963E+03  0.7818608E-02  0.1235075E+00
          4   -1    0    0  501    0  0.00000000000E+00  0.00000000000E+00  0.73603877472E+02  0.73614833281E+02  0.12700000000E+01 0. -1.
         -4   -1    0    0    0  501 -0.00000000000E+00 -0.00000000000E+00 -0.53045617551E+02  0.53060818326E+02  0.12700000000E+01 0. -1.
         25    2    1    2    0    0  0.00000000000E+00  0.00000000000E+00  0.20558259921E+02  0.12667565161E+03  0.12499631458E+03 0.  0.
    9000005    1    3    3    0    0  0.19025422043E+02 -0.58473034891E+02  0.21562316480E+02  0.65168980238E+02  0.10000000000E+01 0.  0.
    9000005    1    3    3    0    0 -0.19025422043E+02  0.58473034891E+02 -0.10040565595E+01  0.61506671368E+02  0.10000000000E+01 0.  0.
<mgrwt>
<rscale>  0 0.12499631E+03</rscale>
<asrwt>0</asrwt>
<pdfrwt beam="1">  1        4 0.11325686E-01 0.12499631E+03</pdfrwt>
<pdfrwt beam="2">  1       -4 0.81628762E-02 0.12499631E+03</pdfrwt>
<totfact> 0.10417067E+04</totfact>
</mgrwt>
</event>
<event>
 5    1  0.3251953E-002  0.1249976E+03  0.7818608E-02  0.1235073E+00
          4   -1    0    0  501    0  0.00000000000E+00  0.00000000000E+00  0.34245680970E+02  0.34269221834E+02  0.12700000000E+01 0.  1.
         -4   -1    0    0    0  501 -0.00000000000E+00 -0.00000000000E+00 -0.11399479814E+03  0.11400187236E+03  0.12700000000E+01 0.  1.
         25    2    1    2    0    0  0.00000000000E+00  0.00000000000E+00 -0.79749117165E+02  0.14827109420E+03  0.12499758272E+03 0.  0.
    9000005    1    3    3    0    0  0.37547763999E+02  0.45654217042E+02 -0.63921119143E+02  0.87069234449E+02  0.10000000000E+01 0.  0.
    9000005    1    3    3    0    0 -0.37547763999E+02 -0.45654217042E+02 -0.15827998022E+02  0.61201859747E+02  0.10000000000E+01 0.  0.
<mgrwt>
<rscale>  0 0.12499758E+03</rscale>
<asrwt>0</asrwt>
<pdfrwt beam="1">  1        4 0.52709214E-02 0.12499758E+03</pdfrwt>
<pdfrwt beam="2">  1       -4 0.17540016E-01 0.12499758E+03</pdfrwt>
<totfact> 0.99654874E+03</totfact>
</mgrwt>
</event>
<event>
 5    1  0.3251953E-002  0.1250000E+03  0.7818608E-02  0.1235069E+00
         -4   -1    0    0    0  501 -0.00000000000E+00  0.00000000000E+00  0.10816802640E+02  0.10891102761E+02  0.12700000000E+01 0.  1.
          4   -1    0    0  501    0  0.00000000000E+00 -0.00000000000E+00 -0.35981631273E+03  0.35981855401E+03  0.12700000000E+01 0.  1.
         25    2    1    2    0    0  0.00000000000E+00  0.00000000000E+00 -0.34899951009E+03  0.37070965677E+03  0.12499996631E+03 0.  0.
    9000005    1    3    3    0    0 -0.20840360322E+02  0.47989231550E+02 -0.27585311748E+03  0.28077255811E+03  0.10000000000E+01 0.  0.
    9000005    1    3    3    0    0  0.20840360322E+02 -0.47989231550E+02 -0.73146392610E+02  0.89937098657E+02  0.10000000000E+01 0.  0.
<mgrwt>
<rscale>  0 0.12499997E+03</rscale>
<asrwt>0</asrwt>
<pdfrwt beam="2">  1        4 0.55362235E-01 0.12499997E+03</pdfrwt>
<pdfrwt beam="1">  1       -4 0.16700116E-02 0.12499997E+03</pdfrwt>
<totfact> 0.67504813E+03</totfact>
</mgrwt>
</event>
<event>
 5    1  0.3251953E-002  0.1249999E+03  0.7818608E-02  0.1235070E+00
          4   -1    0    0  501    0  0.00000000000E+00  0.00000000000E+00  0.63540044140E+01  0.64796814808E+01  0.12700000000E+01 0.  1.
         -4   -1    0    0    0  501 -0.00000000000E+00 -0.00000000000E+00 -0.60862179510E+03  0.60862312014E+03  0.12700000000E+01 0.  1.
         25    2    1    2    0    0  0.00000000000E+00  0.00000000000E+00 -0.60226779068E+03  0.61510280162E+03  0.12499985946E+03 0.  0.
    9000005    1    3    3    0    0 -0.26614376790E+02  0.44775722613E+02 -0.13123695122E+03  0.14119960253E+03  0.10000000000E+01 0.  0.
    9000005    1    3    3    0    0  0.26614376790E+02 -0.44775722613E+02 -0.47103083946E+03  0.47390319909E+03  0.10000000000E+01 0.  0.
<mgrwt>
<rscale>  0 0.12499986E+03</rscale>
<asrwt>0</asrwt>
<pdfrwt beam="1">  1        4 0.98730901E-03 0.12499986E+03</pdfrwt>
<pdfrwt beam="2">  1       -4 0.93643846E-01 0.12499986E+03</pdfrwt>
<totfact> 0.47928112E+03</totfact>
</mgrwt>
</event>
<event>
 5    1  0.3251953E-002  0.1249947E+03  0.7818608E-02  0.1235078E+00
         -4   -1    0    0    0  501 -0.00000000000E+00  0.00000000000E+00  0.22064250179E+02  0.22100770031E+02  0.12700000000E+01 0.  1.
          4   -1    0    0  501    0  0.00000000000E+00 -0.00000000000E+00 -0.17683953775E+03  0.17684409804E+03  0.12700000000E+01 0.  1.
         25    2    1    2    0    0  0.00000000000E+00  0.00000000000E+00 -0.15477528757E+03  0.19894486807E+03  0.12499468344E+03 0.  0.
    9000005    1    3    3    0    0  0.74588666165E+01  0.82376640318E+01  0.20486704524E+02  0.23328070262E+02  0.10000000000E+01 0.  0.
    9000005    1    3    3    0    0 -0.74588666165E+01 -0.82376640318E+01 -0.17526199209E+03  0.17561679781E+03  0.10000000000E+01 0.  0.
<mgrwt>
<rscale>  0 0.12499468E+03</rscale>
<asrwt>0</asrwt>
<pdfrwt beam="2">  1        4 0.27209242E-01 0.12499468E+03</pdfrwt>
<pdfrwt beam="1">  1       -4 0.33976601E-02 0.12499468E+03</pdfrwt>
<totfact> 0.90324515E+03</totfact>
</mgrwt>
</event>
<event>
 5    1  0.3251953E-002  0.1249987E+03  0.7818608E-02  0.1235071E+00
         -4   -1    0    0    0  501 -0.00000000000E+00  0.00000000000E+00  0.28574602864E+01  0.31269760614E+01  0.12700000000E+01 0. -1.
          4   -1    0    0  501    0  0.00000000000E+00 -0.00000000000E+00 -0.13051731215E+04  0.13051737394E+04  0.12700000000E+01 0. -1.
         25    2    1    2    0    0  0.00000000000E+00  0.00000000000E+00 -0.13023156613E+04  0.13083007155E+04  0.12499872240E+03 0.  0.
    9000005    1    3    3    0    0 -0.45415370884E+02  0.22200835884E+02 -0.26663104168E+03  0.27138265497E+03  0.10000000000E+01 0.  0.
    9000005    1    3    3    0    0  0.45415370884E+02 -0.22200835884E+02 -0.10356846196E+04  0.10369180605E+04  0.10000000000E+01 0.  0.
<mgrwt>
<rscale>  0 0.12499872E+03</rscale>
<asrwt>0</asrwt>
<pdfrwt beam="2">  1        4 0.20081619E+00 0.12499872E+03</pdfrwt>
<pdfrwt beam="1">  1       -4 0.46038983E-03 0.12499872E+03</pdfrwt>
<totfact> 0.22034131E+03</totfact>
</mgrwt>
</event>
<event>
 5    1  0.3251953E-002  0.1249980E+03  0.7818608E-02  0.1235072E+00
          4   -1    0    0  501    0  0.00000000000E+00  0.00000000000E+00  0.37374843131E+01  0.39473648160E+01  0.12700000000E+01 0.  1.
         -4   -1    0    0    0  501 -0.00000000000E+00 -0.00000000000E+00 -0.10163671667E+04  0.10163679602E+04  0.12700000000E+01 0.  1.
         25    2    1    2    0    0  0.00000000000E+00  0.00000000000E+00 -0.10126296824E+04  0.10203153250E+04  0.12499795493E+03 0.  0.
    9000005    1    3    3    0    0  0.56006030706E+02  0.18440721374E+02 -0.33736826612E+03  0.34248369693E+03  0.10000000000E+01 0.  0.
    9000005    1    3    3    0    0 -0.56006030706E+02 -0.18440721374E+02 -0.67526141629E+03  0.67783162807E+03  0.10000000000E+01 0.  0.
<mgrwt>
<rscale>  0 0.12499795E+03</rscale>
<asrwt>0</asrwt>
<pdfrwt beam="1">  1        4 0.59120409E-03 0.12499795E+03</pdfrwt>
<pdfrwt beam="2">  1       -4 0.15638017E+00 0.12499795E+03</pdfrwt>
<totfact> 0.29941405E+03</totfact>
</mgrwt>
</event>
<event>
 5    1  0.3251953E-002  0.1250163E+03  0.7818608E-02  0.1235044E+00
         -4   -1    0    0    0  501 -0.00000000000E+00  0.00000000000E+00  0.87843287366E+01  0.88756594883E+01  0.12700000000E+01 0.  1.
          4   -1    0    0  501    0  0.00000000000E+00 -0.00000000000E+00 -0.44240724395E+03  0.44240906682E+03  0.12700000000E+01 0.  1.
         25    2    1    2    0    0  0.00000000000E+00  0.00000000000E+00 -0.43362291522E+03  0.45128472630E+03  0.12501628532E+03 0.  0.
    9000005    1    3    3    0    0 -0.43219342790E+02 -0.79616080397E-01 -0.37978736973E+03  0.38223993007E+03  0.10000000000E+01 0.  0.
    9000005    1    3    3    0    0  0.43219342790E+02  0.79616080397E-01 -0.53835545482E+02  0.69044796236E+02  0.10000000000E+01 0.  0.
<mgrwt>
<rscale>  0 0.12501629E+03</rscale>
<asrwt>0</asrwt>
<pdfrwt beam="2">  1        4 0.68069801E-01 0.12501629E+03</pdfrwt>
<pdfrwt beam="1">  1       -4 0.13586012E-02 0.12501629E+03</pdfrwt>
<totfact> 0.59831204E+03</totfact>
</mgrwt>
</event>
<event>
 5    1  0.3251953E-002  0.1249998E+03  0.7818608E-02  0.1235070E+00
         -4   -1    0    0    0  501 -0.00000000000E+00  0.00000000000E+00  0.86153490137E+03  0.86153583744E+03  0.12700000000E+01 0. -1.
          4   -1    0    0  501    0  0.00000000000E+00 -0.00000000000E+00 -0.44441543194E+01  0.46220566434E+01  0.12700000000E+01 0. -1.
         25    2    1    2    0    0  0.00000000000E+00  0.00000000000E+00  0.85709074705E+03  0.86615789408E+03  0.12499979515E+03 0.  0.
    9000005    1    3    3    0    0  0.57684989295E+02  0.80835031400E+01  0.58538842430E+03  0.58828012742E+03  0.10000000000E+01 0.  0.
    9000005    1    3    3    0    0 -0.57684989295E+02 -0.80835031400E+01  0.27170232276E+03  0.27787776666E+03  0.10000000000E+01 0.  0.
<mgrwt>
<rscale>  0 0.12499980E+03</rscale>
<asrwt>0</asrwt>
<pdfrwt beam="2">  1        4 0.69747230E-03 0.12499980E+03</pdfrwt>
<pdfrwt beam="1">  1       -4 0.13255769E+00 0.12499980E+03</pdfrwt>
<totfact> 0.35475231E+03</totfact>
</mgrwt>
</event>
<event>
 5    1  0.3251953E-002  0.1249897E+03  0.7818608E-02  0.1235085E+00
          4   -1    0    0  501    0  0.00000000000E+00  0.00000000000E+00  0.49289826395E+01  0.50899675697E+01  0.12700000000E+01 0. -1.
         -4   -1    0    0    0  501 -0.00000000000E+00 -0.00000000000E+00 -0.77948269979E+03  0.77948373438E+03  0.12700000000E+01 0. -1.
         25    2    1    2    0    0  0.00000000000E+00  0.00000000000E+00 -0.77455371715E+03  0.78457370195E+03  0.12498973177E+03 0.  0.
    9000005    1    3    3    0    0 -0.36060846453E+01 -0.24058908005E+01 -0.77856846579E+03  0.77858117630E+03  0.10000000000E+01 0.  0.
    9000005    1    3    3    0    0  0.36060846453E+01  0.24058908005E+01  0.40147486470E+01  0.59925256538E+01  0.10000000000E+01 0.  0.
<mgrwt>
<rscale>  0 0.12498973E+03</rscale>
<asrwt>0</asrwt>
<pdfrwt beam="1">  1        4 0.77076868E-03 0.12498973E+03</pdfrwt>
<pdfrwt beam="2">  1       -4 0.11993278E+00 0.12498973E+03</pdfrwt>
<totfact> 0.38971515E+03</totfact>
</mgrwt>
</event>
<event>
 5    1  0.3251953E-002  0.1249968E+03  0.7818608E-02  0.1235074E+00
          4   -1    0    0  501    0  0.00000000000E+00  0.00000000000E+00  0.29173071765E+02  0.29200702324E+02  0.12700000000E+01 0. -1.
         -4   -1    0    0    0  501 -0.00000000000E+00 -0.00000000000E+00 -0.13379821599E+03  0.13380424321E+03  0.12700000000E+01 0. -1.
         25    2    1    2    0    0  0.00000000000E+00  0.00000000000E+00 -0.10462514422E+03  0.16300494554E+03  0.12499676582E+03 0.  0.
    9000005    1    3    3    0    0  0.53458312199E+02  0.29991890397E+02 -0.36461603537E+02  0.71328487754E+02  0.10000000000E+01 0.  0.
    9000005    1    3    3    0    0 -0.53458312199E+02 -0.29991890397E+02 -0.68163540688E+02  0.91676457784E+02  0.10000000000E+01 0.  0.
<mgrwt>
<rscale>  0 0.12499677E+03</rscale>
<asrwt>0</asrwt>
<pdfrwt beam="1">  1        4 0.44907540E-02 0.12499677E+03</pdfrwt>
<pdfrwt beam="2">  1       -4 0.20586930E-01 0.12499677E+03</pdfrwt>
<totfact> 0.96773596E+03</totfact>
</mgrwt>
</event>
<event>
 5    1  0.3251953E-002  0.1250014E+03  0.7818608E-02  0.1235067E+00
          4   -1    0    0  501    0  0.00000000000E+00  0.00000000000E+00  0.32326905748E+03  0.32327155214E+03  0.12700000000E+01 0.  1.
         -4   -1    0    0    0  501 -0.00000000000E+00 -0.00000000000E+00 -0.12047943291E+02  0.12114695107E+02  0.12700000000E+01 0.  1.
         25    2    1    2    0    0  0.00000000000E+00  0.00000000000E+00  0.31122111419E+03  0.33538624725E+03  0.12500141170E+03 0.  0.
    9000005    1    3    3    0    0  0.19974426895E+02 -0.56946709916E+02  0.19915825485E+03  0.20810313783E+03  0.10000000000E+01 0.  0.
    9000005    1    3    3    0    0 -0.19974426895E+02  0.56946709916E+02  0.11206285934E+03  0.12728310942E+03  0.10000000000E+01 0.  0.
<mgrwt>
<rscale>  0 0.12500141E+03</rscale>
<asrwt>0</asrwt>
<pdfrwt beam="1">  1        4 0.49739030E-01 0.12500141E+03</pdfrwt>
<pdfrwt beam="2">  1       -4 0.18588563E-02 0.12500141E+03</pdfrwt>
<totfact> 0.71360511E+03</totfact>
</mgrwt>
</event>
<event>
 5    1  0.3251953E-002  0.1249989E+03  0.7818608E-02  0.1235071E+00
         -4   -1    0    0    0  501 -0.00000000000E+00  0.00000000000E+00  0.36909129865E+02  0.36930973009E+02  0.12700000000E+01 0.  1.
          4   -1    0    0  501    0  0.00000000000E+00 -0.00000000000E+00 -0.10577544090E+03  0.10578306479E+03  0.12700000000E+01 0.  1.
         25    2    1    2    0    0  0.00000000000E+00  0.00000000000E+00 -0.68866311033E+02  0.14271403780E+03  0.12499891116E+03 0.  0.
    9000005    1    3    3    0    0  0.52831286919E+01 -0.59816852135E+02 -0.14683845534E+02  0.61827037514E+02  0.10000000000E+01 0.  0.
    9000005    1    3    3    0    0 -0.52831286919E+01  0.59816852135E+02 -0.54182465499E+02  0.80887000289E+02  0.10000000000E+01 0.  0.
<mgrwt>
<rscale>  0 0.12499891E+03</rscale>
<asrwt>0</asrwt>
<pdfrwt beam="2">  1        4 0.16275411E-01 0.12499891E+03</pdfrwt>
<pdfrwt beam="1">  1       -4 0.56805944E-02 0.12499891E+03</pdfrwt>
<totfact> 0.10077890E+04</totfact>
</mgrwt>
</event>
<event>
 5    1  0.3251953E-002  0.1250053E+03  0.7818608E-02  0.1235061E+00
         -4   -1    0    0    0  501 -0.00000000000E+00  0.00000000000E+00  0.47991068726E+01  0.49643052661E+01  0.12700000000E+01 0. -1.
          4   -1    0    0  501    0  0.00000000000E+00 -0.00000000000E+00 -0.80008338709E+03  0.80008439504E+03  0.12700000000E+01 0. -1.
         25    2    1    2    0    0  0.00000000000E+00  0.00000000000E+00 -0.79528428021E+03  0.80504870031E+03  0.12500529395E+03 0.  0.
    9000005    1    3    3    0    0  0.20341461045E+02 -0.22411724938E+02 -0.45519045371E+02  0.54672149616E+02  0.10000000000E+01 0.  0.
    9000005    1    3    3    0    0 -0.20341461045E+02  0.22411724938E+02 -0.74976523484E+03  0.75037655069E+03  0.10000000000E+01 0.  0.
<mgrwt>
<rscale>  0 0.12500529E+03</rscale>
<asrwt>0</asrwt>
<pdfrwt beam="2">  1        4 0.12310243E+00 0.12500529E+03</pdfrwt>
<pdfrwt beam="1">  1       -4 0.75110987E-03 0.12500529E+03</pdfrwt>
<totfact> 0.38035959E+03</totfact>
</mgrwt>
</event>
<event>
 5    1  0.3251953E-002  0.1249972E+03  0.7818608E-02  0.1235074E+00
          4   -1    0    0  501    0  0.00000000000E+00  0.00000000000E+00  0.17997522506E+02  0.18042275808E+02  0.12700000000E+01 0.  1.
         -4   -1    0    0    0  501 -0.00000000000E+00 -0.00000000000E+00 -0.21671786736E+03  0.21672158853E+03  0.12700000000E+01 0.  1.
         25    2    1    2    0    0  0.00000000000E+00  0.00000000000E+00 -0.19872034486E+03  0.23476386434E+03  0.12499718612E+03 0.  0.
    9000005    1    3    3    0    0 -0.53837640229E+02 -0.53999120658E+00 -0.15893911840E+03  0.16781366587E+03  0.10000000000E+01 0.  0.
    9000005    1    3    3    0    0  0.53837640229E+02  0.53999120658E+00 -0.39781226459E+02  0.66950198465E+02  0.10000000000E+01 0.  0.
<mgrwt>
<rscale>  0 0.12499719E+03</rscale>
<asrwt>0</asrwt>
<pdfrwt beam="1">  1        4 0.27725786E-02 0.12499719E+03</pdfrwt>
<pdfrwt beam="2">  1       -4 0.33344937E-01 0.12499719E+03</pdfrwt>
<totfact> 0.84588738E+03</totfact>
</mgrwt>
</event>
<event>
 5    1  0.3251953E-002  0.1250004E+03  0.7818608E-02  0.1235069E+00
          4   -1    0    0  501    0  0.00000000000E+00  0.00000000000E+00  0.12199012784E+03  0.12199673844E+03  0.12700000000E+01 0.  1.
         -4   -1    0    0    0  501 -0.00000000000E+00 -0.00000000000E+00 -0.32001177291E+02  0.32026368012E+02  0.12700000000E+01 0.  1.
         25    2    1    2    0    0  0.00000000000E+00  0.00000000000E+00  0.89988950544E+02  0.15402310645E+03  0.12500042440E+03 0.  0.
    9000005    1    3    3    0    0 -0.46687513997E+02 -0.33093949060E+02  0.75930384982E+02  0.95086049403E+02  0.10000000000E+01 0.  0.
    9000005    1    3    3    0    0  0.46687513997E+02  0.33093949060E+02  0.14058565563E+02  0.58937057046E+02  0.10000000000E+01 0.  0.
<mgrwt>
<rscale>  0 0.12500042E+03</rscale>
<asrwt>0</asrwt>
<pdfrwt beam="1">  1        4 0.18770158E-01 0.12500042E+03</pdfrwt>
<pdfrwt beam="2">  1       -4 0.49257043E-02 0.12500042E+03</pdfrwt>
<totfact> 0.98506677E+03</totfact>
</mgrwt>
</event>
<event>
 5    1  0.3251953E-002  0.1250008E+03  0.7818608E-02  0.1235068E+00
         -4   -1    0    0    0  501 -0.00000000000E+00  0.00000000000E+00  0.23188381696E+01  0.26438438790E+01  0.12700000000E+01 0. -1.
          4   -1    0    0  501    0  0.00000000000E+00 -0.00000000000E+00 -0.15739453767E+04  0.15739458891E+04  0.12700000000E+01 0. -1.
         25    2    1    2    0    0  0.00000000000E+00  0.00000000000E+00 -0.15716265386E+04  0.15765897330E+04  0.12500083777E+03 0.  0.
    9000005    1    3    3    0    0  0.56872290071E+02 -0.23024195774E+02 -0.63618926909E+03  0.63914189119E+03  0.10000000000E+01 0.  0.
    9000005    1    3    3    0    0 -0.56872290071E+02  0.23024195774E+02 -0.93543726946E+03  0.93744784178E+03  0.10000000000E+01 0.  0.
<mgrwt>
<rscale>  0 0.12500084E+03</rscale>
<asrwt>0</asrwt>
<pdfrwt beam="2">  1        4 0.24216968E+00 0.12500084E+03</pdfrwt>
<pdfrwt beam="1">  1       -4 0.38178544E-03 0.12500084E+03</pdfrwt>
<totfact> 0.16472834E+03</totfact>
</mgrwt>
</event>
<event>
 5    1  0.3251953E-002  0.1250003E+03  0.7818608E-02  0.1235069E+00
          4   -1    0    0  501    0  0.00000000000E+00  0.00000000000E+00  0.60338240402E+03  0.60338374057E+03  0.12700000000E+01 0.  1.
         -4   -1    0    0    0  501 -0.00000000000E+00 -0.00000000000E+00 -0.64103093910E+01  0.65349037092E+01  0.12700000000E+01 0.  1.
         25    2    1    2    0    0  0.00000000000E+00  0.00000000000E+00  0.59697209463E+03  0.60991864428E+03  0.12500028348E+03 0.  0.
    9000005    1    3    3    0    0  0.24052351143E+02 -0.49640064203E+02  0.15517828879E+03  0.16469351196E+03  0.10000000000E+01 0.  0.
    9000005    1    3    3    0    0 -0.24052351143E+02  0.49640064203E+02  0.44179380584E+03  0.44522513232E+03  0.10000000000E+01 0.  0.
<mgrwt>
<rscale>  0 0.12500028E+03</rscale>
<asrwt>0</asrwt>
<pdfrwt beam="1">  1        4 0.92837739E-01 0.12500028E+03</pdfrwt>
<pdfrwt beam="2">  1       -4 0.99588855E-03 0.12500028E+03</pdfrwt>
<totfact> 0.48247147E+03</totfact>
</mgrwt>
</event>
<event>
 5    1  0.3251953E-002  0.1250262E+03  0.7818608E-02  0.1235028E+00
          4   -1    0    0  501    0  0.00000000000E+00  0.00000000000E+00  0.14574400111E+04  0.14574405645E+04  0.12700000000E+01 0. -1.
         -4   -1    0    0    0  501 -0.00000000000E+00 -0.00000000000E+00 -0.25303707575E+01  0.28311969502E+01  0.12700000000E+01 0. -1.
         25    2    1    2    0    0  0.00000000000E+00  0.00000000000E+00  0.14549096404E+04  0.14602717614E+04  0.12502621938E+03 0.  0.
    9000005    1    3    3    0    0 -0.14678114530E+01 -0.52234701757E+02  0.32687767963E+03  0.33102966027E+03  0.10000000000E+01 0.  0.
    9000005    1    3    3    0    0  0.14678114530E+01  0.52234701757E+02  0.11280319608E+04  0.11292421012E+04  0.10000000000E+01 0.  0.
<mgrwt>
<rscale>  0 0.12502622E+03</rscale>
<asrwt>0</asrwt>
<pdfrwt beam="1">  1        4 0.22424485E+00 0.12502622E+03</pdfrwt>
<pdfrwt beam="2">  1       -4 0.41247062E-03 0.12502622E+03</pdfrwt>
<totfact> 0.18712588E+03</totfact>
</mgrwt>
</event>
<event>
 5    1  0.3251953E-002  0.1250023E+03  0.7818608E-02  0.1235066E+00
         -4   -1    0    0    0  501 -0.00000000000E+00  0.00000000000E+00  0.14236362035E+02  0.14292896977E+02  0.12700000000E+01 0. -1.
          4   -1    0    0  501    0  0.00000000000E+00 -0.00000000000E+00 -0.27379383639E+03  0.27379678184E+03  0.12700000000E+01 0. -1.
         25    2    1    2    0    0  0.00000000000E+00  0.00000000000E+00 -0.25955747435E+03  0.28808967881E+03  0.12500232216E+03 0.  0.
    9000005    1    3    3    0    0  0.56508886360E+02  0.18016812459E+02 -0.17514837269E+03  0.18492109730E+03  0.10000000000E+01 0.  0.
    9000005    1    3    3    0    0 -0.56508886360E+02 -0.18016812459E+02 -0.84409101665E+02  0.10316858152E+03  0.10000000000E+01 0.  0.
<mgrwt>
<rscale>  0 0.12500232E+03</rscale>
<asrwt>0</asrwt>
<pdfrwt beam="2">  1        4 0.42126700E-01 0.12500232E+03</pdfrwt>
<pdfrwt beam="1">  1       -4 0.21947852E-02 0.12500232E+03</pdfrwt>
<totfact> 0.77113579E+03</totfact>
</mgrwt>
</event>
<event>
 5    1  0.3251953E-002  0.1249828E+03  0.7818608E-02  0.1235096E+00
          4   -1    0    0  501    0  0.00000000000E+00  0.00000000000E+00  0.12927466831E+02  0.12989699714E+02  0.12700000000E+01 0.  1.
         -4   -1    0    0    0  501 -0.00000000000E+00 -0.00000000000E+00 -0.30129455716E+03  0.30129723376E+03  0.12700000000E+01 0.  1.
         25    2    1    2    0    0  0.00000000000E+00  0.00000000000E+00 -0.28836709033E+03  0.31428693348E+03  0.12498278990E+03 0.  0.
    9000005    1    3    3    0    0  0.27717335576E+02  0.16365620958E+02 -0.95130324405E+01  0.33579488188E+02  0.10000000000E+01 0.  0.
    9000005    1    3    3    0    0 -0.27717335576E+02 -0.16365620958E+02 -0.27885405789E+03  0.28070744529E+03  0.10000000000E+01 0.  0.
<mgrwt>
<rscale>  0 0.12498279E+03</rscale>
<asrwt>0</asrwt>
<pdfrwt beam="1">  1        4 0.19938343E-02 0.12498279E+03</pdfrwt>
<pdfrwt beam="2">  1       -4 0.46357996E-01 0.12498279E+03</pdfrwt>
<totfact> 0.73869000E+03</totfact>
</mgrwt>
</event>
<event>
 5    1  0.3251953E-002  0.1249987E+03  0.7818608E-02  0.1235071E+00
          4   -1    0    0  501    0  0.00000000000E+00  0.00000000000E+00  0.16478898285E+03  0.16479387661E+03  0.12700000000E+01 0. -1.
         -4   -1    0    0    0  501 -0.00000000000E+00 -0.00000000000E+00 -0.23681808918E+02  0.23715838033E+02  0.12700000000E+01 0. -1.
         25    2    1    2    0    0  0.00000000000E+00  0.00000000000E+00  0.14110717393E+03  0.18850971464E+03  0.12499871192E+03 0.  0.
    9000005    1    3    3    0    0  0.50164328958E+02  0.46645438990E+01  0.12631127674E+03  0.13599175159E+03  0.10000000000E+01 0.  0.
    9000005    1    3    3    0    0 -0.50164328958E+02 -0.46645438990E+01  0.14795897193E+02  0.52517963054E+02  0.10000000000E+01 0.  0.
<mgrwt>
<rscale>  0 0.12499871E+03</rscale>
<asrwt>0</asrwt>
<pdfrwt beam="1">  1        4 0.25355146E-01 0.12499871E+03</pdfrwt>
<pdfrwt beam="2">  1       -4 0.36463492E-02 0.12499871E+03</pdfrwt>
<totfact> 0.92109925E+03</totfact>
</mgrwt>
</event>
<event>
 5    1  0.3251953E-002  0.1250167E+03  0.7818608E-02  0.1235043E+00
         -4   -1    0    0    0  501 -0.00000000000E+00  0.00000000000E+00  0.17540227337E+04  0.17540231935E+04  0.12700000000E+01 0. -1.
          4   -1    0    0  501    0  0.00000000000E+00 -0.00000000000E+00 -0.20461096279E+01  0.24082077588E+01  0.12700000000E+01 0. -1.
         25    2    1    2    0    0  0.00000000000E+00  0.00000000000E+00  0.17519766241E+04  0.17564314012E+04  0.12501670262E+03 0.  0.
    9000005    1    3    3    0    0 -0.31487734074E+02  0.29570728454E+02  0.15106168499E+04  0.15112346518E+04  0.10000000000E+01 0.  0.
    9000005    1    3    3    0    0  0.31487734074E+02 -0.29570728454E+02  0.24135977413E+03  0.24519674946E+03  0.10000000000E+01 0.  0.
<mgrwt>
<rscale>  0 0.12501670E+03</rscale>
<asrwt>0</asrwt>
<pdfrwt beam="2">  1        4 0.34267341E-03 0.12501670E+03</pdfrwt>
<pdfrwt beam="1">  1       -4 0.26987892E+00 0.12501670E+03</pdfrwt>
<totfact> 0.13381782E+03</totfact>
</mgrwt>
</event>
<event>
 5    1  0.3251953E-002  0.1249996E+03  0.7818608E-02  0.1235070E+00
          4   -1    0    0  501    0  0.00000000000E+00  0.00000000000E+00  0.98271256381E+01  0.99088494946E+01  0.12700000000E+01 0.  1.
         -4   -1    0    0    0  501 -0.00000000000E+00 -0.00000000000E+00 -0.39576514705E+03  0.39576718474E+03  0.12700000000E+01 0.  1.
         25    2    1    2    0    0  0.00000000000E+00  0.00000000000E+00 -0.38593802141E+03  0.40567603424E+03  0.12499955353E+03 0.  0.
    9000005    1    3    3    0    0  0.24447793231E+02  0.34244486792E+02 -0.43016471895E+02  0.60181361930E+02  0.10000000000E+01 0.  0.
    9000005    1    3    3    0    0 -0.24447793231E+02 -0.34244486792E+02 -0.34292154952E+03  0.34549467231E+03  0.10000000000E+01 0.  0.
<mgrwt>
<rscale>  0 0.12499955E+03</rscale>
<asrwt>0</asrwt>
<pdfrwt beam="1">  1        4 0.15183090E-02 0.12499955E+03</pdfrwt>
<pdfrwt beam="2">  1       -4 0.60893377E-01 0.12499955E+03</pdfrwt>
<totfact> 0.64005100E+03</totfact>
</mgrwt>
</event>
<event>
 5    1  0.3251953E-002  0.1249909E+03  0.7818608E-02  0.1235083E+00
          4   -1    0    0  501    0  0.00000000000E+00  0.00000000000E+00  0.40026430529E+02  0.40046573398E+02  0.12700000000E+01 0.  1.
         -4   -1    0    0    0  501 -0.00000000000E+00 -0.00000000000E+00 -0.97528763936E+02  0.97537032429E+02  0.12700000000E+01 0.  1.
         25    2    1    2    0    0  0.00000000000E+00  0.00000000000E+00 -0.57502333407E+02  0.13758360583E+03  0.12499092065E+03 0.  0.
    9000005    1    3    3    0    0  0.23187023460E+02  0.45061657467E+02 -0.68992404036E+02  0.85610413182E+02  0.10000000000E+01 0.  0.
    9000005    1    3    3    0    0 -0.23187023460E+02 -0.45061657467E+02  0.11490070629E+02  0.51973192644E+02  0.10000000000E+01 0.  0.
<mgrwt>
<rscale>  0 0.12499092E+03</rscale>
<asrwt>0</asrwt>
<pdfrwt beam="1">  1        4 0.61600979E-02 0.12499092E+03</pdfrwt>
<pdfrwt beam="2">  1       -4 0.15006611E-01 0.12499092E+03</pdfrwt>
<totfact> 0.10185982E+04</totfact>
</mgrwt>
</event>
<event>
 5    1  0.3251953E-002  0.1249943E+03  0.7818608E-02  0.1235078E+00
         -4   -1    0    0    0  501 -0.00000000000E+00  0.00000000000E+00  0.48631061139E+02  0.48647641335E+02  0.12700000000E+01 0. -1.
          4   -1    0    0  501    0  0.00000000000E+00 -0.00000000000E+00 -0.80281572430E+02  0.80291617071E+02  0.12700000000E+01 0. -1.
         25    2    1    2    0    0  0.00000000000E+00  0.00000000000E+00 -0.31650511291E+02  0.12893925841E+03  0.12499430984E+03 0.  0.
    9000005    1    3    3    0    0 -0.59460274235E+02  0.14601049735E+02 -0.28716859455E+02  0.67634110347E+02  0.10000000000E+01 0.  0.
    9000005    1    3    3    0    0  0.59460274235E+02 -0.14601049735E+02 -0.29336518364E+01  0.61305148059E+02  0.10000000000E+01 0.  0.
<mgrwt>
<rscale>  0 0.12499431E+03</rscale>
<asrwt>0</asrwt>
<pdfrwt beam="2">  1        4 0.12353059E-01 0.12499431E+03</pdfrwt>
<pdfrwt beam="1">  1       -4 0.74837498E-02 0.12499431E+03</pdfrwt>
<totfact> 0.10368584E+04</totfact>
</mgrwt>
</event>
<event>
 5    1  0.3251953E-002  0.1250270E+03  0.7818608E-02  0.1235027E+00
          4   -1    0    0  501    0  0.00000000000E+00  0.00000000000E+00  0.10105409511E+03  0.10106207517E+03  0.12700000000E+01 0. -1.
         -4   -1    0    0    0  501 -0.00000000000E+00 -0.00000000000E+00 -0.38651773809E+02  0.38672632683E+02  0.12700000000E+01 0. -1.
         25    2    1    2    0    0  0.00000000000E+00  0.00000000000E+00  0.62402321296E+02  0.13973470785E+03  0.12502695260E+03 0.  0.
    9000005    1    3    3    0    0  0.47210508519E+02  0.47572936216E+00 -0.14579347982E+02  0.49422826918E+02  0.10000000000E+01 0.  0.
    9000005    1    3    3    0    0 -0.47210508519E+02 -0.47572936216E+00  0.76981669278E+02  0.90311880934E+02  0.10000000000E+01 0.  0.
<mgrwt>
<rscale>  0 0.12502695E+03</rscale>
<asrwt>0</asrwt>
<pdfrwt beam="1">  1        4 0.15549002E-01 0.12502695E+03</pdfrwt>
<pdfrwt beam="2">  1       -4 0.59486451E-02 0.12502695E+03</pdfrwt>
<totfact> 0.10132933E+04</totfact>
</mgrwt>
</event>
<event>
 5    1  0.3251953E-002  0.1250087E+03  0.7818608E-02  0.1235056E+00
         -4   -1    0    0    0  501 -0.00000000000E+00  0.00000000000E+00  0.12743150429E+02  0.12806279040E+02  0.12700000000E+01 0. -1.
          4   -1    0    0  501    0  0.00000000000E+00 -0.00000000000E+00 -0.30575771175E+03  0.30576034928E+03  0.12700000000E+01 0. -1.
         25    2    1    2    0    0  0.00000000000E+00  0.00000000000E+00 -0.29301456132E+03  0.31856662832E+03  0.12500865384E+03 0.  0.
    9000005    1    3    3    0    0  0.19062360889E+02 -0.14790974245E+01  0.51194992686E+01  0.19818441024E+02  0.10000000000E+01 0.  0.
    9000005    1    3    3    0    0 -0.19062360889E+02  0.14790974245E+01 -0.29813406058E+03  0.29874818730E+03  0.10000000000E+01 0.  0.
<mgrwt>
<rscale>  0 0.12500865E+03</rscale>
<asrwt>0</asrwt>
<pdfrwt beam="2">  1        4 0.47044701E-01 0.12500865E+03</pdfrwt>
<pdfrwt beam="1">  1       -4 0.19655439E-02 0.12500865E+03</pdfrwt>
<totfact> 0.73312867E+03</totfact>
</mgrwt>
</event>
<event>
 5    1  0.3251953E-002  0.1249990E+03  0.7818608E-02  0.1235071E+00
         -4   -1    0    0    0  501 -0.00000000000E+00  0.00000000000E+00  0.23575567348E+03  0.23575909416E+03  0.12700000000E+01 0. -1.
          4   -1    0    0  501    0  0.00000000000E+00 -0.00000000000E+00 -0.16540918937E+02  0.16589602143E+02  0.12700000000E+01 0. -1.
         25    2    1    2    0    0  0.00000000000E+00  0.00000000000E+00  0.21921475455E+03  0.25234869630E+03  0.12499902366E+03 0.  0.
    9000005    1    3    3    0    0  0.57037361930E+02  0.61476810207E+01  0.59577880328E+02  0.82713834769E+02  0.10000000000E+01 0.  0.
    9000005    1    3    3    0    0 -0.57037361930E+02 -0.61476810207E+01  0.15963687422E+03  0.16963486153E+03  0.10000000000E+01 0.  0.
<mgrwt>
<rscale>  0 0.12499902E+03</rscale>
<asrwt>0</asrwt>
<pdfrwt beam="2">  1        4 0.25487649E-02 0.12499902E+03</pdfrwt>
<pdfrwt beam="1">  1       -4 0.36274110E-01 0.12499902E+03</pdfrwt>
<totfact> 0.81993733E+03</totfact>
</mgrwt>
</event>
<event>
 5    1  0.3251953E-002  0.1249981E+03  0.7818608E-02  0.1235072E+00
          4   -1    0    0  501    0  0.00000000000E+00  0.00000000000E+00  0.52632012770E+01  0.54142578145E+01  0.12700000000E+01 0. -1.
         -4   -1    0    0    0  501 -0.00000000000E+00 -0.00000000000E+00 -0.73150763201E+03  0.73150873446E+03  0.12700000000E+01 0. -1.
         25    2    1    2    0    0  0.00000000000E+00  0.00000000000E+00 -0.72624443073E+03  0.73692299227E+03  0.12499809346E+03 0.  0.
    9000005    1    3    3    0    0 -0.90988744158E+01  0.31153355328E+02 -0.48290123625E+02  0.58191555259E+02  0.10000000000E+01 0.  0.
    9000005    1    3    3    0    0  0.90988744158E+01 -0.31153355328E+02 -0.67795430711E+03  0.67873143701E+03  0.10000000000E+01 0.  0.
<mgrwt>
<rscale>  0 0.12499809E+03</rscale>
<asrwt>0</asrwt>
<pdfrwt beam="1">  1        4 0.82142839E-03 0.12499809E+03</pdfrwt>
<pdfrwt beam="2">  1       -4 0.11255126E+00 0.12499809E+03</pdfrwt>
<totfact> 0.41209300E+03</totfact>
</mgrwt>
</event>
<event>
 5    1  0.3251953E-002  0.1249987E+03  0.7818608E-02  0.1235071E+00
         -4   -1    0    0    0  501 -0.00000000000E+00  0.00000000000E+00  0.52284685843E+02  0.52300107779E+02  0.12700000000E+01 0. -1.
          4   -1    0    0  501    0  0.00000000000E+00 -0.00000000000E+00 -0.74677717504E+02  0.74688515794E+02  0.12700000000E+01 0. -1.
         25    2    1    2    0    0  0.00000000000E+00  0.00000000000E+00 -0.22393031660E+02  0.12698862357E+03  0.12499865059E+03 0.  0.
    9000005    1    3    3    0    0  0.18704312368E+02 -0.12124145018E+02  0.48113718366E+02  0.53035611513E+02  0.10000000000E+01 0.  0.
    9000005    1    3    3    0    0 -0.18704312368E+02  0.12124145018E+02 -0.70506750026E+02  0.73953012061E+02  0.10000000000E+01 0.  0.
<mgrwt>
<rscale>  0 0.12499865E+03</rscale>
<asrwt>0</asrwt>
<pdfrwt beam="2">  1        4 0.11490897E-01 0.12499865E+03</pdfrwt>
<pdfrwt beam="1">  1       -4 0.80458148E-02 0.12499865E+03</pdfrwt>
<totfact> 0.10409710E+04</totfact>
</mgrwt>
</event>
<event>
 5    1  0.3251953E-002  0.1250004E+03  0.7818608E-02  0.1235069E+00
          4   -1    0    0  501    0  0.00000000000E+00  0.00000000000E+00  0.29849296178E+02  0.29876301349E+02  0.12700000000E+01 0. -1.
         -4   -1    0    0    0  501 -0.00000000000E+00 -0.00000000000E+00 -0.13077721363E+03  0.13078338007E+03  0.12700000000E+01 0. -1.
         25    2    1    2    0    0  0.00000000000E+00  0.00000000000E+00 -0.10092791745E+03  0.16065968142E+03  0.12500035486E+03 0.  0.
    9000005    1    3    3    0    0  0.28690744450E+02 -0.50583915531E+02 -0.21060083570E+02  0.61858050790E+02  0.10000000000E+01 0.  0.
    9000005    1    3    3    0    0 -0.28690744450E+02  0.50583915531E+02 -0.79867833878E+02  0.98801630634E+02  0.10000000000E+01 0.  0.
<mgrwt>
<rscale>  0 0.12500035E+03</rscale>
<asrwt>0</asrwt>
<pdfrwt beam="1">  1        4 0.45947512E-02 0.12500035E+03</pdfrwt>
<pdfrwt beam="2">  1       -4 0.20122123E-01 0.12500035E+03</pdfrwt>
<totfact> 0.97214979E+03</totfact>
</mgrwt>
</event>
<event>
 5    1  0.3251953E-002  0.1250021E+03  0.7818608E-02  0.1235066E+00
         -4   -1    0    0    0  501 -0.00000000000E+00  0.00000000000E+00  0.22763822164E+03  0.22764176430E+03  0.12700000000E+01 0.  1.
          4   -1    0    0  501    0  0.00000000000E+00 -0.00000000000E+00 -0.17133295185E+02  0.17180299878E+02  0.12700000000E+01 0.  1.
         25    2    1    2    0    0  0.00000000000E+00  0.00000000000E+00  0.21050492646E+03  0.24482206418E+03  0.12500207616E+03 0.  0.
    9000005    1    3    3    0    0  0.26782650442E+02 -0.55533290483E+02  0.12523758312E+03  0.13959480271E+03  0.10000000000E+01 0.  0.
    9000005    1    3    3    0    0 -0.26782650442E+02  0.55533290483E+02  0.85267343335E+02  0.10522726147E+03  0.10000000000E+01 0.  0.
<mgrwt>
<rscale>  0 0.12500208E+03</rscale>
<asrwt>0</asrwt>
<pdfrwt beam="2">  1        4 0.26397800E-02 0.12500208E+03</pdfrwt>
<pdfrwt beam="1">  1       -4 0.35025151E-01 0.12500208E+03</pdfrwt>
<totfact> 0.83080565E+03</totfact>
</mgrwt>
</event>
<event>
 5    1  0.3251953E-002  0.1250191E+03  0.7818608E-02  0.1235039E+00
         -4   -1    0    0    0  501 -0.00000000000E+00  0.00000000000E+00  0.22362462688E+03  0.22362823312E+03  0.12700000000E+01 0.  1.
          4   -1    0    0  501    0  0.00000000000E+00 -0.00000000000E+00 -0.17446388809E+02  0.17492552200E+02  0.12700000000E+01 0.  1.
         25    2    1    2    0    0  0.00000000000E+00  0.00000000000E+00  0.20617823807E+03  0.24112078532E+03  0.12501906758E+03 0.  0.
    9000005    1    3    3    0    0 -0.26048204598E+02 -0.42749242162E+02  0.30913603485E+02  0.58844350184E+02  0.10000000000E+01 0.  0.
    9000005    1    3    3    0    0  0.26048204598E+02  0.42749242162E+02  0.17526463458E+03  0.18227643513E+03  0.10000000000E+01 0.  0.
<mgrwt>
<rscale>  0 0.12501907E+03</rscale>
<asrwt>0</asrwt>
<pdfrwt beam="2">  1        4 0.26878881E-02 0.12501907E+03</pdfrwt>
<pdfrwt beam="1">  1       -4 0.34407619E-01 0.12501907E+03</pdfrwt>
<totfact> 0.83595189E+03</totfact>
</mgrwt>
</event>
<event>
 5    1  0.3251953E-002  0.1250009E+03  0.7818608E-02  0.1235068E+00
          4   -1    0    0  501    0  0.00000000000E+00  0.00000000000E+00  0.90047807241E+02  0.90056762594E+02  0.12700000000E+01 0.  1.
         -4   -1    0    0    0  501 -0.00000000000E+00 -0.00000000000E+00 -0.43359953291E+02  0.43378548263E+02  0.12700000000E+01 0.  1.
         25    2    1    2    0    0  0.00000000000E+00  0.00000000000E+00  0.46687853949E+02  0.13343531086E+03  0.12500090590E+03 0.  0.
    9000005    1    3    3    0    0  0.57017695961E+02 -0.10633072247E+02  0.48177958861E+02  0.75406867049E+02  0.10000000000E+01 0.  0.
    9000005    1    3    3    0    0 -0.57017695961E+02  0.10633072247E+02 -0.14901049114E+01  0.58028443808E+02  0.10000000000E+01 0.  0.
<mgrwt>
<rscale>  0 0.12500091E+03</rscale>
<asrwt>0</asrwt>
<pdfrwt beam="1">  1        4 0.13855628E-01 0.12500091E+03</pdfrwt>
<pdfrwt beam="2">  1       -4 0.66728814E-02 0.12500091E+03</pdfrwt>
<totfact> 0.10270947E+04</totfact>
</mgrwt>
</event>
<event>
 5    1  0.3251953E-002  0.1249997E+03  0.7818608E-02  0.1235070E+00
          4   -1    0    0  501    0  0.00000000000E+00  0.00000000000E+00  0.90436312820E+02  0.90445229705E+02  0.12700000000E+01 0. -1.
         -4   -1    0    0    0  501 -0.00000000000E+00 -0.00000000000E+00 -0.43172792750E+02  0.43191468300E+02  0.12700000000E+01 0. -1.
         25    2    1    2    0    0  0.00000000000E+00  0.00000000000E+00  0.47263520069E+02  0.13363669800E+03  0.12499970690E+03 0.  0.
    9000005    1    3    3    0    0 -0.13546605924E+02  0.21912973352E+02 -0.37236742592E+02  0.45290881335E+02  0.10000000000E+01 0.  0.
    9000005    1    3    3    0    0  0.13546605924E+02 -0.21912973352E+02  0.84500262662E+02  0.88345816670E+02  0.10000000000E+01 0.  0.
<mgrwt>
<rscale>  0 0.12499971E+03</rscale>
<asrwt>0</asrwt>
<pdfrwt beam="1">  1        4 0.13915401E-01 0.12499971E+03</pdfrwt>
<pdfrwt beam="2">  1       -4 0.66440906E-02 0.12499971E+03</pdfrwt>
<totfact> 0.10266954E+04</totfact>
</mgrwt>
</event>
<event>
 5    1  0.3251953E-002  0.1250003E+03  0.7818608E-02  0.1235069E+00
          4   -1    0    0  501    0  0.00000000000E+00  0.00000000000E+00  0.17312378714E+02  0.17358898489E+02  0.12700000000E+01 0. -1.
         -4   -1    0    0    0  501 -0.00000000000E+00 -0.00000000000E+00 -0.22528341196E+03  0.22528699164E+03  0.12700000000E+01 0. -1.
         25    2    1    2    0    0  0.00000000000E+00  0.00000000000E+00 -0.20797103324E+03  0.24264589013E+03  0.12500030932E+03 0.  0.
    9000005    1    3    3    0    0 -0.40035614542E+02 -0.41455083668E+02 -0.15089160391E+03  0.16152600572E+03  0.10000000000E+01 0.  0.
    9000005    1    3    3    0    0  0.40035614542E+02  0.41455083668E+02 -0.57079429333E+02  0.81119884410E+02  0.10000000000E+01 0.  0.
<mgrwt>
<rscale>  0 0.12500031E+03</rscale>
<asrwt>0</asrwt>
<pdfrwt beam="1">  1        4 0.26672968E-02 0.12500031E+03</pdfrwt>
<pdfrwt beam="2">  1       -4 0.34662838E-01 0.12500031E+03</pdfrwt>
<totfact> 0.83404306E+03</totfact>
</mgrwt>
</event>
<event>
 5    1  0.3251953E-002  0.1250067E+03  0.7818608E-02  0.1235059E+00
          4   -1    0    0  501    0  0.00000000000E+00  0.00000000000E+00  0.25900150570E+02  0.25931268760E+02  0.12700000000E+01 0.  1.
         -4   -1    0    0    0  501 -0.00000000000E+00 -0.00000000000E+00 -0.15071138292E+03  0.15071673378E+03  0.12700000000E+01 0.  1.
         25    2    1    2    0    0  0.00000000000E+00  0.00000000000E+00 -0.12481123235E+03  0.17664800254E+03  0.12500669215E+03 0.  0.
    9000005    1    3    3    0    0  0.33210212081E+02  0.43321190581E+02 -0.19403808412E+02  0.57940931307E+02  0.10000000000E+01 0.  0.
    9000005    1    3    3    0    0 -0.33210212081E+02 -0.43321190581E+02 -0.10540742394E+03  0.11870707123E+03  0.10000000000E+01 0.  0.
<mgrwt>
<rscale>  0 0.12500669E+03</rscale>
<asrwt>0</asrwt>
<pdfrwt beam="1">  1        4 0.39874439E-02 0.12500669E+03</pdfrwt>
<pdfrwt beam="2">  1       -4 0.23189172E-01 0.12500669E+03</pdfrwt>
<totfact> 0.94209735E+03</totfact>
</mgrwt>
</event>
<event>
 5    1  0.3251953E-002  0.1250019E+03  0.7818608E-02  0.1235066E+00
          4   -1    0    0  501    0  0.00000000000E+00  0.00000000000E+00  0.59765343023E+01  0.61099805455E+01  0.12700000000E+01 0.  1.
         -4   -1    0    0    0  501 -0.00000000000E+00 -0.00000000000E+00 -0.64626726370E+03  0.64626851156E+03  0.12700000000E+01 0.  1.
         25    2    1    2    0    0  0.00000000000E+00  0.00000000000E+00 -0.64029072940E+03  0.65237849210E+03  0.12500191521E+03 0.  0.
    9000005    1    3    3    0    0 -0.66008782937E+01 -0.61609201213E+02 -0.36257782951E+03  0.36783549002E+03  0.10000000000E+01 0.  0.
    9000005    1    3    3    0    0  0.66008782937E+01  0.61609201213E+02 -0.27771289989E+03  0.28454300208E+03  0.10000000000E+01 0.  0.
<mgrwt>
<rscale>  0 0.12500192E+03</rscale>
<asrwt>0</asrwt>
<pdfrwt beam="1">  1        4 0.92982841E-03 0.12500192E+03</pdfrwt>
<pdfrwt beam="2">  1       -4 0.99436040E-01 0.12500192E+03</pdfrwt>
<totfact> 0.45717780E+03</totfact>
</mgrwt>
</event>
<event>
 5    1  0.3251953E-002  0.1249984E+03  0.7818608E-02  0.1235072E+00
         -4   -1    0    0    0  501 -0.00000000000E+00  0.00000000000E+00  0.78469034297E+02  0.78479310927E+02  0.12700000000E+01 0.  1.
          4   -1    0    0  501    0  0.00000000000E+00 -0.00000000000E+00 -0.49757878640E+02  0.49774083484E+02  0.12700000000E+01 0.  1.
         25    2    1    2    0    0  0.00000000000E+00  0.00000000000E+00  0.28711155658E+02  0.12825339441E+03  0.12499841087E+03 0.  0.
    9000005    1    3    3    0    0 -0.60534757641E+02  0.65740284716E+01 -0.62968549543E-01  0.60898921977E+02  0.10000000000E+01 0.  0.
    9000005    1    3    3    0    0  0.60534757641E+02 -0.65740284716E+01  0.28774124207E+02  0.67354472434E+02  0.10000000000E+01 0.  0.
<mgrwt>
<rscale>  0 0.12499841E+03</rscale>
<asrwt>0</asrwt>
<pdfrwt beam="2">  1        4 0.76570953E-02 0.12499841E+03</pdfrwt>
<pdfrwt beam="1">  1       -4 0.12074196E-01 0.12499841E+03</pdfrwt>
<totfact> 0.10382391E+04</totfact>
</mgrwt>
</event>
<event>
 5    1  0.3251953E-002  0.1250109E+03  0.7818608E-02  0.1235052E+00
         -4   -1    0    0    0  501 -0.00000000000E+00  0.00000000000E+00  0.75168370530E+03  0.75168477816E+03  0.12700000000E+01 0. -1.
          4   -1    0    0  501    0  0.00000000000E+00 -0.00000000000E+00 -0.51189052248E+01  0.52740961975E+01  0.12700000000E+01 0. -1.
         25    2    1    2    0    0  0.00000000000E+00  0.00000000000E+00  0.74656480008E+03  0.75695887436E+03  0.12501094653E+03 0.  0.
    9000005    1    3    3    0    0  0.61215005381E+02  0.48420519048E+01  0.44369195503E+03  0.44792217328E+03  0.10000000000E+01 0.  0.
    9000005    1    3    3    0    0 -0.61215005381E+02 -0.48420519048E+01  0.30287284505E+03  0.30903670108E+03  0.10000000000E+01 0.  0.
<mgrwt>
<rscale>  0 0.12501095E+03</rscale>
<asrwt>0</asrwt>
<pdfrwt beam="2">  1        4 0.79954395E-03 0.12501095E+03</pdfrwt>
<pdfrwt beam="1">  1       -4 0.11565570E+00 0.12501095E+03</pdfrwt>
<totfact> 0.40233847E+03</totfact>
</mgrwt>
</event>
<event>
 5    1  0.3251953E-002  0.1249971E+03  0.7818608E-02  0.1235074E+00
         -4   -1    0    0    0  501 -0.00000000000E+00  0.00000000000E+00  0.15896165600E+03  0.15896672915E+03  0.12700000000E+01 0. -1.
          4   -1    0    0  501    0  0.00000000000E+00 -0.00000000000E+00 -0.24550500401E+02  0.24583327073E+02  0.12700000000E+01 0. -1.
         25    2    1    2    0    0  0.00000000000E+00  0.00000000000E+00  0.13441115560E+03  0.18355005623E+03  0.12499705753E+03 0.  0.
    9000005    1    3    3    0    0 -0.53361609010E+02 -0.97926433933E+01  0.21667305082E+02  0.58427983794E+02  0.10000000000E+01 0.  0.
    9000005    1    3    3    0    0  0.53361609010E+02  0.97926433933E+01  0.11274385052E+03  0.12512207243E+03  0.10000000000E+01 0.  0.
<mgrwt>
<rscale>  0 0.12499706E+03</rscale>
<asrwt>0</asrwt>
<pdfrwt beam="2">  1        4 0.37799154E-02 0.12499706E+03</pdfrwt>
<pdfrwt beam="1">  1       -4 0.24458555E-01 0.12499706E+03</pdfrwt>
<totfact> 0.92987989E+03</totfact>
</mgrwt>
</event>
<event>
 5    1  0.3251953E-002  0.1249917E+03  0.7818608E-02  0.1235082E+00
         -4   -1    0    0    0  501 -0.00000000000E+00  0.00000000000E+00  0.85285011600E+02  0.85294467016E+02  0.12700000000E+01 0.  1.
          4   -1    0    0  501    0  0.00000000000E+00 -0.00000000000E+00 -0.45775432212E+02  0.45793046352E+02  0.12700000000E+01 0.  1.
         25    2    1    2    0    0  0.00000000000E+00  0.00000000000E+00  0.39509579388E+02  0.13108751337E+03  0.12499171692E+03 0.  0.
    9000005    1    3    3    0    0 -0.32947196189E+02  0.47015661513E+02 -0.61211888420E+01  0.57744775669E+02  0.10000000000E+01 0.  0.
    9000005    1    3    3    0    0  0.32947196189E+02 -0.47015661513E+02  0.45630768230E+02  0.73342737700E+02  0.10000000000E+01 0.  0.
<mgrwt>
<rscale>  0 0.12499172E+03</rscale>
<asrwt>0</asrwt>
<pdfrwt beam="2">  1        4 0.70444565E-02 0.12499172E+03</pdfrwt>
<pdfrwt beam="1">  1       -4 0.13122853E-01 0.12499172E+03</pdfrwt>
<totfact> 0.10323142E+04</totfact>
</mgrwt>
</event>
<event>
 4    1  0.3251953E-002  0.1249118E+03  0.7818608E-02  0.1235207E+00
          4   -1    0    0  501    0  0.00000000000E+00  0.00000000000E+00  0.30379168669E+02  0.30405703232E+02  0.12700000000E+01 0. -1.
         -4   -1    0    0    0  501 -0.00000000000E+00 -0.00000000000E+00 -0.12831608473E+03  0.12832236944E+03  0.12700000000E+01 0. -1.
    9000005    1    1    2    0    0  0.38234573886E+02 -0.43849272977E+02 -0.20128436647E+02  0.61569435134E+02  0.10000000000E+01 0.  0.
    9000005    1    1    2    0    0 -0.38234573886E+02  0.43849272977E+02 -0.77808479410E+02  0.97158637541E+02  0.10000000000E+01 0.  0.
<mgrwt>
<rscale>  0 0.12491182E+03</rscale>
<asrwt>0</asrwt>
<pdfrwt beam="1">  1        4 0.46762429E-02 0.12491182E+03</pdfrwt>
<pdfrwt beam="2">  1       -4 0.19743460E-01 0.12491182E+03</pdfrwt>
<totfact> 0.97782280E+03</totfact>
</mgrwt>
</event>
<event>
 5    1  0.3251953E-002  0.1249990E+03  0.7818608E-02  0.1235071E+00
         -4   -1    0    0    0  501 -0.00000000000E+00  0.00000000000E+00  0.36774624809E+03  0.36774844104E+03  0.12700000000E+01 0. -1.
          4   -1    0    0  501    0  0.00000000000E+00 -0.00000000000E+00 -0.10581772866E+02  0.10657711620E+02  0.12700000000E+01 0. -1.
         25    2    1    2    0    0  0.00000000000E+00  0.00000000000E+00  0.35716447522E+03  0.37840615266E+03  0.12499901602E+03 0.  0.
    9000005    1    3    3    0    0 -0.50041550716E+02 -0.42801174015E+01  0.66013574676E+02  0.82953410084E+02  0.10000000000E+01 0.  0.
    9000005    1    3    3    0    0  0.50041550716E+02  0.42801174015E+01  0.29115090055E+03  0.29545274257E+03  0.10000000000E+01 0.  0.
<mgrwt>
<rscale>  0 0.12499902E+03</rscale>
<asrwt>0</asrwt>
<pdfrwt beam="2">  1        4 0.16339755E-02 0.12499902E+03</pdfrwt>
<pdfrwt beam="1">  1       -4 0.56582344E-01 0.12499902E+03</pdfrwt>
<totfact> 0.66710027E+03</totfact>
</mgrwt>
</event>
<event>
 5    1  0.3251953E-002  0.1249943E+03  0.7818608E-02  0.1235078E+00
          4   -1    0    0  501    0  0.00000000000E+00  0.00000000000E+00  0.48738653178E+03  0.48738818642E+03  0.12700000000E+01 0.  1.
         -4   -1    0    0    0  501 -0.00000000000E+00 -0.00000000000E+00 -0.79619546042E+01  0.80626063478E+01  0.12700000000E+01 0.  1.
         25    2    1    2    0    0  0.00000000000E+00  0.00000000000E+00  0.47942457717E+03  0.49545079277E+03  0.12499425128E+03 0.  0.
    9000005    1    3    3    0    0  0.51185256965E+02 -0.16494578362E+02  0.36586350135E+03  0.36979602927E+03  0.10000000000E+01 0.  0.
    9000005    1    3    3    0    0 -0.51185256965E+02  0.16494578362E+02  0.11356107583E+03  0.12565476349E+03  0.10000000000E+01 0.  0.
<mgrwt>
<rscale>  0 0.12499425E+03</rscale>
<asrwt>0</asrwt>
<pdfrwt beam="1">  1        4 0.74990434E-01 0.12499425E+03</pdfrwt>
<pdfrwt beam="2">  1       -4 0.12327855E-02 0.12499425E+03</pdfrwt>
<totfact> 0.56226160E+03</totfact>
</mgrwt>
</event>
<event>
 5    1  0.3251953E-002  0.1249983E+03  0.7818608E-02  0.1235072E+00
         -4   -1    0    0    0  501 -0.00000000000E+00  0.00000000000E+00  0.13244815422E+03  0.13245424288E+03  0.12700000000E+01 0.  1.
          4   -1    0    0  501    0  0.00000000000E+00 -0.00000000000E+00 -0.29471431737E+02  0.29498782833E+02  0.12700000000E+01 0.  1.
         25    2    1    2    0    0  0.00000000000E+00  0.00000000000E+00  0.10297672249E+03  0.16195302571E+03  0.12499830864E+03 0.  0.
    9000005    1    3    3    0    0 -0.48391766295E+02 -0.37751026947E+02  0.66722001418E+02  0.90662718655E+02  0.10000000000E+01 0.  0.
    9000005    1    3    3    0    0  0.48391766295E+02  0.37751026947E+02  0.36254721068E+02  0.71290307058E+02  0.10000000000E+01 0.  0.
<mgrwt>
<rscale>  0 0.12499831E+03</rscale>
<asrwt>0</asrwt>
<pdfrwt beam="2">  1        4 0.45366387E-02 0.12499831E+03</pdfrwt>
<pdfrwt beam="1">  1       -4 0.20379211E-01 0.12499831E+03</pdfrwt>
<totfact> 0.96971259E+03</totfact>
</mgrwt>
</event>
<event>
 5    1  0.3251953E-002  0.1249974E+03  0.7818608E-02  0.1235073E+00
          4   -1    0    0  501    0  0.00000000000E+00  0.00000000000E+00  0.41566408978E+03  0.41566602993E+03  0.12700000000E+01 0.  1.
         -4   -1    0    0    0  501 -0.00000000000E+00 -0.00000000000E+00 -0.93523379589E+01  0.94381738328E+01  0.12700000000E+01 0.  1.
         25    2    1    2    0    0  0.00000000000E+00  0.00000000000E+00  0.40631175182E+03  0.42510420376E+03  0.12499737751E+03 0.  0.
    9000005    1    3    3    0    0 -0.31852736335E+02 -0.33451406030E+02  0.34629692108E+03  0.34936535451E+03  0.10000000000E+01 0.  0.
    9000005    1    3    3    0    0  0.31852736335E+02  0.33451406030E+02  0.60014830740E+02  0.75738849253E+02  0.10000000000E+01 0.  0.
<mgrwt>
<rscale>  0 0.12499738E+03</rscale>
<asrwt>0</asrwt>
<pdfrwt beam="1">  1        4 0.63955083E-01 0.12499738E+03</pdfrwt>
<pdfrwt beam="2">  1       -4 0.14455730E-02 0.12499738E+03</pdfrwt>
<totfact> 0.62185875E+03</totfact>
</mgrwt>
</event>
<event>
 5    1  0.3251953E-002  0.1250008E+03  0.7818608E-02  0.1235068E+00
         -4   -1    0    0    0  501 -0.00000000000E+00  0.00000000000E+00  0.64765309222E+02  0.64777759907E+02  0.12700000000E+01 0. -1.
          4   -1    0    0  501    0  0.00000000000E+00 -0.00000000000E+00 -0.60289793292E+02  0.60303168036E+02  0.12700000000E+01 0. -1.
         25    2    1    2    0    0  0.00000000000E+00  0.00000000000E+00  0.44755159305E+01  0.12508092794E+03  0.12500083317E+03 0.  0.
    9000005    1    3    3    0    0 -0.52858897334E+02 -0.33299104832E+02  0.68477670356E+00  0.62484896808E+02  0.10000000000E+01 0.  0.
    9000005    1    3    3    0    0  0.52858897334E+02  0.33299104832E+02  0.37907392270E+01  0.62596031135E+02  0.10000000000E+01 0.  0.
<mgrwt>
<rscale>  0 0.12500083E+03</rscale>
<asrwt>0</asrwt>
<pdfrwt beam="2">  1        4 0.92773393E-02 0.12500083E+03</pdfrwt>
<pdfrwt beam="1">  1       -4 0.99658804E-02 0.12500083E+03</pdfrwt>
<totfact> 0.10450908E+04</totfact>
</mgrwt>
</event>
<event>
 5    1  0.3251953E-002  0.1250033E+03  0.7818608E-02  0.1235064E+00
         -4   -1    0    0    0  501 -0.00000000000E+00  0.00000000000E+00  0.73851465240E+01  0.74935498384E+01  0.12700000000E+01 0. -1.
          4   -1    0    0  501    0  0.00000000000E+00 -0.00000000000E+00 -0.52499809921E+03  0.52499963531E+03  0.12700000000E+01 0. -1.
         25    2    1    2    0    0  0.00000000000E+00  0.00000000000E+00 -0.51761295268E+03  0.53249318514E+03  0.12500329371E+03 0.  0.
    9000005    1    3    3    0    0  0.60805230143E+02  0.11524764832E+02 -0.29578605964E+03  0.30219280153E+03  0.10000000000E+01 0.  0.
    9000005    1    3    3    0    0 -0.60805230143E+02 -0.11524764832E+02 -0.22182689304E+03  0.23030038362E+03  0.10000000000E+01 0.  0.
<mgrwt>
<rscale>  0 0.12500329E+03</rscale>
<asrwt>0</asrwt>
<pdfrwt beam="2">  1        4 0.80777366E-01 0.12500329E+03</pdfrwt>
<pdfrwt beam="1">  1       -4 0.11446337E-02 0.12500329E+03</pdfrwt>
<totfact> 0.53424729E+03</totfact>
</mgrwt>
</event>
<event>
 5    1  0.3251953E-002  0.1249953E+03  0.7818608E-02  0.1235077E+00
          4   -1    0    0  501    0  0.00000000000E+00  0.00000000000E+00  0.28547791827E+02  0.28576026984E+02  0.12700000000E+01 0.  1.
         -4   -1    0    0    0  501 -0.00000000000E+00 -0.00000000000E+00 -0.13672287079E+03  0.13672876909E+03  0.12700000000E+01 0.  1.
         25    2    1    2    0    0  0.00000000000E+00  0.00000000000E+00 -0.10817507896E+03  0.16530479607E+03  0.12499531150E+03 0.  0.
    9000005    1    3    3    0    0 -0.46562826488E+02 -0.25863753886E+01  0.92177379390E+00  0.46654429748E+02  0.10000000000E+01 0.  0.
    9000005    1    3    3    0    0  0.46562826488E+02  0.25863753886E+01 -0.10909685276E+03  0.11865036633E+03  0.10000000000E+01 0.  0.
<mgrwt>
<rscale>  0 0.12499531E+03</rscale>
<asrwt>0</asrwt>
<pdfrwt beam="1">  1        4 0.43945937E-02 0.12499531E+03</pdfrwt>
<pdfrwt beam="2">  1       -4 0.21036913E-01 0.12499531E+03</pdfrwt>
<totfact> 0.96339846E+03</totfact>
</mgrwt>
</event>
<event>
 5    1  0.3251953E-002  0.1250067E+03  0.7818608E-02  0.1235059E+00
         -4   -1    0    0    0  501 -0.00000000000E+00  0.00000000000E+00  0.12432176721E+03  0.12432825383E+03  0.12700000000E+01 0.  1.
          4   -1    0    0  501    0  0.00000000000E+00 -0.00000000000E+00 -0.31403718284E+02  0.31429387873E+02  0.12700000000E+01 0.  1.
         25    2    1    2    0    0  0.00000000000E+00  0.00000000000E+00  0.92918048923E+02  0.15575764171E+03  0.12500671636E+03 0.  0.
    9000005    1    3    3    0    0 -0.39071427485E+02  0.32392928432E+02  0.91895830590E+02  0.10498438902E+03  0.10000000000E+01 0.  0.
    9000005    1    3    3    0    0  0.39071427485E+02 -0.32392928432E+02  0.10222183326E+01  0.50773252687E+02  0.10000000000E+01 0.  0.
<mgrwt>
<rscale>  0 0.12500672E+03</rscale>
<asrwt>0</asrwt>
<pdfrwt beam="2">  1        4 0.48338148E-02 0.12500672E+03</pdfrwt>
<pdfrwt beam="1">  1       -4 0.19128899E-01 0.12500672E+03</pdfrwt>
<totfact> 0.98152144E+03</totfact>
</mgrwt>
</event>
<event>
 5    1  0.3251953E-002  0.1249981E+03  0.7818608E-02  0.1235072E+00
         -4   -1    0    0    0  501 -0.00000000000E+00  0.00000000000E+00  0.34756329513E+02  0.34779524741E+02  0.12700000000E+01 0.  1.
          4   -1    0    0  501    0  0.00000000000E+00 -0.00000000000E+00 -0.11232185673E+03  0.11232903632E+03  0.12700000000E+01 0.  1.
         25    2    1    2    0    0  0.00000000000E+00  0.00000000000E+00 -0.77565527221E+02  0.14710856106E+03  0.12499807088E+03 0.  0.
    9000005    1    3    3    0    0 -0.55419115346E+02 -0.10879429681E+02 -0.73026604821E+01  0.56955852957E+02  0.10000000000E+01 0.  0.
    9000005    1    3    3    0    0  0.55419115346E+02  0.10879429681E+02 -0.70262866739E+02  0.90152708103E+02  0.10000000000E+01 0.  0.
<mgrwt>
<rscale>  0 0.12499807E+03</rscale>
<asrwt>0</asrwt>
<pdfrwt beam="2">  1        4 0.17282622E-01 0.12499807E+03</pdfrwt>
<pdfrwt beam="1">  1       -4 0.53494642E-02 0.12499807E+03</pdfrwt>
<totfact> 0.99887555E+03</totfact>
</mgrwt>
</event>
<event>
 5    1  0.3251953E-002  0.1250065E+03  0.7818608E-02  0.1235059E+00
          4   -1    0    0  501    0  0.00000000000E+00  0.00000000000E+00  0.23049241000E+02  0.23084202622E+02  0.12700000000E+01 0. -1.
         -4   -1    0    0    0  501 -0.00000000000E+00 -0.00000000000E+00 -0.16932605715E+03  0.16933081978E+03  0.12700000000E+01 0. -1.
         25    2    1    2    0    0  0.00000000000E+00  0.00000000000E+00 -0.14627681615E+03  0.19241502241E+03  0.12500653545E+03 0.  0.
    9000005    1    3    3    0    0  0.29537946455E+02  0.54729163116E+02 -0.63664028195E+02  0.89004944032E+02  0.10000000000E+01 0.  0.
    9000005    1    3    3    0    0 -0.29537946455E+02 -0.54729163116E+02 -0.82612787952E+02  0.10341007837E+03  0.10000000000E+01 0.  0.
<mgrwt>
<rscale>  0 0.12500654E+03</rscale>
<asrwt>0</asrwt>
<pdfrwt beam="1">  1        4 0.35490929E-02 0.12500654E+03</pdfrwt>
<pdfrwt beam="2">  1       -4 0.26053218E-01 0.12500654E+03</pdfrwt>
<totfact> 0.91415419E+03</totfact>
</mgrwt>
</event>
<event>
 5    1  0.3251953E-002  0.1249842E+03  0.7818608E-02  0.1235094E+00
          4   -1    0    0  501    0  0.00000000000E+00  0.00000000000E+00  0.93915619664E+02  0.93924206235E+02  0.12700000000E+01 0.  1.
         -4   -1    0    0    0  501 -0.00000000000E+00 -0.00000000000E+00 -0.41562511989E+02  0.41581910764E+02  0.12700000000E+01 0.  1.
         25    2    1    2    0    0  0.00000000000E+00  0.00000000000E+00  0.52353107675E+02  0.13550611700E+03  0.12498423845E+03 0.  0.
    9000005    1    3    3    0    0  0.22557443852E+02  0.17074547872E+02 -0.34226176299E+02  0.44416321349E+02  0.10000000000E+01 0.  0.
    9000005    1    3    3    0    0 -0.22557443852E+02 -0.17074547872E+02  0.86579283974E+02  0.91089795650E+02  0.10000000000E+01 0.  0.
<mgrwt>
<rscale>  0 0.12498424E+03</rscale>
<asrwt>0</asrwt>
<pdfrwt beam="1">  1        4 0.14450710E-01 0.12498424E+03</pdfrwt>
<pdfrwt beam="2">  1       -4 0.63963854E-02 0.12498424E+03</pdfrwt>
<totfact> 0.10231050E+04</totfact>
</mgrwt>
</event>
<event>
 5    1  0.3251953E-002  0.1250011E+03  0.7818608E-02  0.1235068E+00
         -4   -1    0    0    0  501 -0.00000000000E+00  0.00000000000E+00  0.12173199346E+02  0.12239268046E+02  0.12700000000E+01 0.  1.
          4   -1    0    0  501    0  0.00000000000E+00 -0.00000000000E+00 -0.31995902100E+03  0.31996154147E+03  0.12700000000E+01 0.  1.
         25    2    1    2    0    0  0.00000000000E+00  0.00000000000E+00 -0.30778582166E+03  0.33220080952E+03  0.12500106332E+03 0.  0.
    9000005    1    3    3    0    0  0.90601555304E+01  0.61814368903E+02 -0.14993870046E+03  0.16243680776E+03  0.10000000000E+01 0.  0.
    9000005    1    3    3    0    0 -0.90601555304E+01 -0.61814368903E+02 -0.15784712120E+03  0.16976400176E+03  0.10000000000E+01 0.  0.
<mgrwt>
<rscale>  0 0.12500106E+03</rscale>
<asrwt>0</asrwt>
<pdfrwt beam="2">  1        4 0.49229735E-01 0.12500106E+03</pdfrwt>
<pdfrwt beam="1">  1       -4 0.18780762E-02 0.12500106E+03</pdfrwt>
<totfact> 0.71726432E+03</totfact>
</mgrwt>
</event>
<event>
 5    1  0.3251953E-002  0.1250100E+03  0.7818608E-02  0.1235054E+00
          4   -1    0    0  501    0  0.00000000000E+00  0.00000000000E+00  0.16811727220E+02  0.16859628469E+02  0.12700000000E+01 0. -1.
         -4   -1    0    0    0  501 -0.00000000000E+00 -0.00000000000E+00 -0.23200956179E+03  0.23201303770E+03  0.12700000000E+01 0. -1.
         25    2    1    2    0    0  0.00000000000E+00  0.00000000000E+00 -0.21519783457E+03  0.24887266617E+03  0.12500998345E+03 0.  0.
    9000005    1    3    3    0    0  0.10514242167E+02 -0.16034043512E+02  0.10821282028E+02  0.22039509624E+02  0.10000000000E+01 0.  0.
    9000005    1    3    3    0    0 -0.10514242167E+02  0.16034043512E+02 -0.22601911660E+03  0.22683315655E+03  0.10000000000E+01 0.  0.
<mgrwt>
<rscale>  0 0.12500998E+03</rscale>
<asrwt>0</asrwt>
<pdfrwt beam="1">  1        4 0.25903718E-02 0.12500998E+03</pdfrwt>
<pdfrwt beam="2">  1       -4 0.35697728E-01 0.12500998E+03</pdfrwt>
<totfact> 0.82475092E+03</totfact>
</mgrwt>
</event>
<event>
 5    1  0.3251953E-002  0.1250054E+03  0.7818608E-02  0.1235061E+00
         -4   -1    0    0    0  501 -0.00000000000E+00  0.00000000000E+00  0.18138876727E+03  0.18139321319E+03  0.12700000000E+01 0.  1.
          4   -1    0    0  501    0  0.00000000000E+00 -0.00000000000E+00 -0.21513677262E+02  0.21551130118E+02  0.12700000000E+01 0.  1.
         25    2    1    2    0    0  0.00000000000E+00  0.00000000000E+00  0.15987509001E+03  0.20294434331E+03  0.12500544819E+03 0.  0.
    9000005    1    3    3    0    0 -0.87262993024E+01  0.27967238866E+02 -0.96822380686E+01  0.30871677688E+02  0.10000000000E+01 0.  0.
    9000005    1    3    3    0    0  0.87262993024E+01 -0.27967238866E+02  0.16955732808E+03  0.17207266562E+03  0.10000000000E+01 0.  0.
<mgrwt>
<rscale>  0 0.12500545E+03</rscale>
<asrwt>0</asrwt>
<pdfrwt beam="2">  1        4 0.33130195E-02 0.12500545E+03</pdfrwt>
<pdfrwt beam="1">  1       -4 0.27909187E-01 0.12500545E+03</pdfrwt>
<totfact> 0.89630359E+03</totfact>
</mgrwt>
</event>
<event>
 5    1  0.3251953E-002  0.1250001E+03  0.7818608E-02  0.1235069E+00
         -4   -1    0    0    0  501 -0.00000000000E+00  0.00000000000E+00  0.50822915510E+03  0.50823074188E+03  0.12700000000E+01 0.  1.
          4   -1    0    0  501    0  0.00000000000E+00 -0.00000000000E+00 -0.76319406420E+01  0.77368868392E+01  0.12700000000E+01 0.  1.
         25    2    1    2    0    0  0.00000000000E+00  0.00000000000E+00  0.50059721446E+03  0.51596762872E+03  0.12500009106E+03 0.  0.
    9000005    1    3    3    0    0 -0.46548951764E+02  0.39613293378E+02  0.19660027825E+03  0.20588513140E+03  0.10000000000E+01 0.  0.
    9000005    1    3    3    0    0  0.46548951764E+02 -0.39613293378E+02  0.30399693620E+03  0.31008249732E+03  0.10000000000E+01 0.  0.
<mgrwt>
<rscale>  0 0.12500009E+03</rscale>
<asrwt>0</asrwt>
<pdfrwt beam="2">  1        4 0.11823396E-02 0.12500009E+03</pdfrwt>
<pdfrwt beam="1">  1       -4 0.78197291E-01 0.12500009E+03</pdfrwt>
<totfact> 0.54646306E+03</totfact>
</mgrwt>
</event>
<event>
 5    1  0.3251953E-002  0.1250001E+03  0.7818608E-02  0.1235069E+00
          4   -1    0    0  501    0  0.00000000000E+00  0.00000000000E+00  0.45326432123E+03  0.45326610044E+03  0.12700000000E+01 0. -1.
         -4   -1    0    0    0  501 -0.00000000000E+00 -0.00000000000E+00 -0.85694642550E+01  0.86630605226E+01  0.12700000000E+01 0. -1.
         25    2    1    2    0    0  0.00000000000E+00  0.00000000000E+00  0.44469485698E+03  0.46192916096E+03  0.12500013568E+03 0.  0.
    9000005    1    3    3    0    0 -0.17179640084E+01  0.58379967065E+01 -0.74899988386E+01  0.97022517223E+01  0.10000000000E+01 0.  0.
    9000005    1    3    3    0    0  0.17179640084E+01 -0.58379967065E+01  0.45218485582E+03  0.45222690924E+03  0.10000000000E+01 0.  0.
<mgrwt>
<rscale>  0 0.12500014E+03</rscale>
<asrwt>0</asrwt>
<pdfrwt beam="1">  1        4 0.69740303E-01 0.12500014E+03</pdfrwt>
<pdfrwt beam="2">  1       -4 0.13257158E-02 0.12500014E+03</pdfrwt>
<totfact> 0.58943951E+03</totfact>
</mgrwt>
</event>
<event>
 5    1  0.3251953E-002  0.1249983E+03  0.7818608E-02  0.1235072E+00
         -4   -1    0    0    0  501 -0.00000000000E+00  0.00000000000E+00  0.68702471113E+02  0.68714208407E+02  0.12700000000E+01 0. -1.
          4   -1    0    0  501    0  0.00000000000E+00 -0.00000000000E+00 -0.56832271291E+02  0.56846459522E+02  0.12700000000E+01 0. -1.
         25    2    1    2    0    0  0.00000000000E+00  0.00000000000E+00  0.11870199822E+02  0.12556066793E+03  0.12499831874E+03 0.  0.
    9000005    1    3    3    0    0  0.55491005195E+02 -0.14004236414E+02 -0.19273111080E+02  0.60397211076E+02  0.10000000000E+01 0.  0.
    9000005    1    3    3    0    0 -0.55491005195E+02  0.14004236414E+02  0.31143310901E+02  0.65163456853E+02  0.10000000000E+01 0.  0.
<mgrwt>
<rscale>  0 0.12499832E+03</rscale>
<asrwt>0</asrwt>
<pdfrwt beam="2">  1        4 0.87454207E-02 0.12499832E+03</pdfrwt>
<pdfrwt beam="1">  1       -4 0.10571605E-01 0.12499832E+03</pdfrwt>
<totfact> 0.10441010E+04</totfact>
</mgrwt>
</event>
<event>
 5    1  0.3251953E-002  0.1249999E+03  0.7818608E-02  0.1235069E+00
          4   -1    0    0  501    0  0.00000000000E+00  0.00000000000E+00  0.34011164130E+02  0.34034867202E+02  0.12700000000E+01 0.  1.
         -4   -1    0    0    0  501 -0.00000000000E+00 -0.00000000000E+00 -0.11478460314E+03  0.11479162870E+03  0.12700000000E+01 0.  1.
         25    2    1    2    0    0  0.00000000000E+00  0.00000000000E+00 -0.80773439014E+02  0.14882649590E+03  0.12499990973E+03 0.  0.
    9000005    1    3    3    0    0 -0.16046823594E+02 -0.58219870605E+02 -0.21255587557E+02  0.64030101383E+02  0.10000000000E+01 0.  0.
    9000005    1    3    3    0    0  0.16046823594E+02  0.58219870605E+02 -0.59517851457E+02  0.84796394515E+02  0.10000000000E+01 0.  0.
<mgrwt>
<rscale>  0 0.12499991E+03</rscale>
<asrwt>0</asrwt>
<pdfrwt beam="1">  1        4 0.52348506E-02 0.12499991E+03</pdfrwt>
<pdfrwt beam="2">  1       -4 0.17661533E-01 0.12499991E+03</pdfrwt>
<totfact> 0.99538337E+03</totfact>
</mgrwt>
</event>
<event>
 5    1  0.3251953E-002  0.1249982E+03  0.7818608E-02  0.1235072E+00
         -4   -1    0    0    0  501 -0.00000000000E+00  0.00000000000E+00  0.19747456962E+03  0.19747865339E+03  0.12700000000E+01 0. -1.
          4   -1    0    0  501    0  0.00000000000E+00 -0.00000000000E+00 -0.19755786921E+02  0.19796565785E+02  0.12700000000E+01 0. -1.
         25    2    1    2    0    0  0.00000000000E+00  0.00000000000E+00  0.17771878269E+03  0.21727521918E+03  0.12499822057E+03 0.  0.
    9000005    1    3    3    0    0 -0.17837310247E+02  0.41861560430E+02  0.14407700697E+02  0.47740357329E+02  0.10000000000E+01 0.  0.
    9000005    1    3    3    0    0  0.17837310247E+02 -0.41861560430E+02  0.16331108200E+03  0.16953486185E+03  0.10000000000E+01 0.  0.
<mgrwt>
<rscale>  0 0.12499822E+03</rscale>
<asrwt>0</asrwt>
<pdfrwt beam="2">  1        4 0.30428027E-02 0.12499822E+03</pdfrwt>
<pdfrwt beam="1">  1       -4 0.30384155E-01 0.12499822E+03</pdfrwt>
<totfact> 0.87304824E+03</totfact>
</mgrwt>
</event>
<event>
 5    1  0.3251953E-002  0.1249962E+03  0.7818608E-02  0.1235075E+00
         -4   -1    0    0    0  501 -0.00000000000E+00  0.00000000000E+00  0.13038851263E+02  0.13100555036E+02  0.12700000000E+01 0.  1.
          4   -1    0    0  501    0  0.00000000000E+00 -0.00000000000E+00 -0.29879705104E+03  0.29879975001E+03  0.12700000000E+01 0.  1.
         25    2    1    2    0    0  0.00000000000E+00  0.00000000000E+00 -0.28575819977E+03  0.31190030505E+03  0.12499620615E+03 0.  0.
    9000005    1    3    3    0    0  0.72539065469E+01  0.27727171288E+02 -0.43159254170E+01  0.29000731026E+02  0.10000000000E+01 0.  0.
    9000005    1    3    3    0    0 -0.72539065469E+01 -0.27727171288E+02 -0.28144227436E+03  0.28289957402E+03  0.10000000000E+01 0.  0.
<mgrwt>
<rscale>  0 0.12499621E+03</rscale>
<asrwt>0</asrwt>
<pdfrwt beam="2">  1        4 0.45973726E-01 0.12499621E+03</pdfrwt>
<pdfrwt beam="1">  1       -4 0.20109314E-02 0.12499621E+03</pdfrwt>
<totfact> 0.74136169E+03</totfact>
</mgrwt>
</event>
<event>
 5    1  0.3251953E-002  0.1250027E+03  0.7818608E-02  0.1235065E+00
          4   -1    0    0  501    0  0.00000000000E+00  0.00000000000E+00  0.18808894732E+02  0.18851721964E+02  0.12700000000E+01 0.  1.
         -4   -1    0    0    0  501 -0.00000000000E+00 -0.00000000000E+00 -0.20740901980E+03  0.20741290797E+03  0.12700000000E+01 0.  1.
         25    2    1    2    0    0  0.00000000000E+00  0.00000000000E+00 -0.18860012507E+03  0.22626462994E+03  0.12500270231E+03 0.  0.
    9000005    1    3    3    0    0  0.55817338151E+02  0.19688365038E+02 -0.57998547760E+02  0.82873629692E+02  0.10000000000E+01 0.  0.
    9000005    1    3    3    0    0 -0.55817338151E+02 -0.19688365038E+02 -0.13060157731E+03  0.14339100025E+03  0.10000000000E+01 0.  0.
<mgrwt>
<rscale>  0 0.12500270E+03</rscale>
<asrwt>0</asrwt>
<pdfrwt beam="1">  1        4 0.28972698E-02 0.12500270E+03</pdfrwt>
<pdfrwt beam="2">  1       -4 0.31912672E-01 0.12500270E+03</pdfrwt>
<totfact> 0.85881307E+03</totfact>
</mgrwt>
</event>
<event>
 5    1  0.3251953E-002  0.1249988E+03  0.7818608E-02  0.1235071E+00
          4   -1    0    0  501    0  0.00000000000E+00  0.00000000000E+00  0.10063756969E+03  0.10064558278E+03  0.12700000000E+01 0. -1.
         -4   -1    0    0    0  501 -0.00000000000E+00 -0.00000000000E+00 -0.38794343638E+02  0.38815125895E+02  0.12700000000E+01 0. -1.
         25    2    1    2    0    0  0.00000000000E+00  0.00000000000E+00  0.61843226049E+02  0.13946070867E+03  0.12499881861E+03 0.  0.
    9000005    1    3    3    0    0  0.22767414395E+02  0.27690808986E+02  0.88030004606E+02  0.95054814562E+02  0.10000000000E+01 0.  0.
    9000005    1    3    3    0    0 -0.22767414395E+02 -0.27690808986E+02 -0.26186778557E+02  0.44405894110E+02  0.10000000000E+01 0.  0.
<mgrwt>
<rscale>  0 0.12499882E+03</rscale>
<asrwt>0</asrwt>
<pdfrwt beam="1">  1        4 0.15484918E-01 0.12499882E+03</pdfrwt>
<pdfrwt beam="2">  1       -4 0.59705757E-02 0.12499882E+03</pdfrwt>
<totfact> 0.10145045E+04</totfact>
</mgrwt>
</event>
<event>
 5    1  0.3251953E-002  0.1250025E+03  0.7818608E-02  0.1235065E+00
         -4   -1    0    0    0  501 -0.00000000000E+00  0.00000000000E+00  0.36805318775E+01  0.38934836459E+01  0.12700000000E+01 0. -1.
          4   -1    0    0  501    0  0.00000000000E+00 -0.00000000000E+00 -0.10313152918E+04  0.10313160738E+04  0.12700000000E+01 0. -1.
         25    2    1    2    0    0  0.00000000000E+00  0.00000000000E+00 -0.10276347600E+04  0.10352095574E+04  0.12500251177E+03 0.  0.
    9000005    1    3    3    0    0  0.14137767511E+02  0.34700218795E+01 -0.10516180376E+02  0.17986316237E+02  0.10000000000E+01 0.  0.
    9000005    1    3    3    0    0 -0.14137767511E+02 -0.34700218795E+01 -0.10171185796E+04  0.10172232412E+04  0.10000000000E+01 0.  0.
<mgrwt>
<rscale>  0 0.12500251E+03</rscale>
<asrwt>0</asrwt>
<pdfrwt beam="2">  1        4 0.15868011E+00 0.12500251E+03</pdfrwt>
<pdfrwt beam="1">  1       -4 0.58267755E-03 0.12500251E+03</pdfrwt>
<totfact> 0.29459545E+03</totfact>
</mgrwt>
</event>
<event>
 5    1  0.3251953E-002  0.1250039E+03  0.7818608E-02  0.1235063E+00
         -4   -1    0    0    0  501 -0.00000000000E+00  0.00000000000E+00  0.14937533643E+02  0.14991424594E+02  0.12700000000E+01 0.  1.
          4   -1    0    0  501    0  0.00000000000E+00 -0.00000000000E+00 -0.26099565371E+03  0.26099874359E+03  0.12700000000E+01 0.  1.
         25    2    1    2    0    0  0.00000000000E+00  0.00000000000E+00 -0.24605812007E+03  0.27599016818E+03  0.12500389787E+03 0.  0.
    9000005    1    3    3    0    0 -0.54481313171E+02 -0.73443884115E+01 -0.57409392226E+02  0.79492086661E+02  0.10000000000E+01 0.  0.
    9000005    1    3    3    0    0  0.54481313171E+02  0.73443884115E+01 -0.18864872784E+03  0.19649808152E+03  0.10000000000E+01 0.  0.
<mgrwt>
<rscale>  0 0.12500390E+03</rscale>
<asrwt>0</asrwt>
<pdfrwt beam="2">  1        4 0.40157557E-01 0.12500390E+03</pdfrwt>
<pdfrwt beam="1">  1       -4 0.23024654E-02 0.12500390E+03</pdfrwt>
<totfact> 0.78705981E+03</totfact>
</mgrwt>
</event>
<event>
 5    1  0.3251953E-002  0.1249854E+03  0.7818608E-02  0.1235092E+00
         -4   -1    0    0    0  501 -0.00000000000E+00  0.00000000000E+00  0.43088840554E+03  0.43089027713E+03  0.12700000000E+01 0.  1.
          4   -1    0    0  501    0  0.00000000000E+00 -0.00000000000E+00 -0.90170612768E+01  0.91060580972E+01  0.12700000000E+01 0.  1.
         25    2    1    2    0    0  0.00000000000E+00  0.00000000000E+00  0.42187134426E+03  0.43999633523E+03  0.12498537477E+03 0.  0.
    9000005    1    3    3    0    0  0.53235722832E+02  0.22414694468E+02  0.29482685885E+03  0.30043358237E+03  0.10000000000E+01 0.  0.
    9000005    1    3    3    0    0 -0.53235722832E+02 -0.22414694468E+02  0.12704448541E+03  0.13956275286E+03  0.10000000000E+01 0.  0.
<mgrwt>
<rscale>  0 0.12498537E+03</rscale>
<asrwt>0</asrwt>
<pdfrwt beam="2">  1        4 0.13942305E-02 0.12498537E+03</pdfrwt>
<pdfrwt beam="1">  1       -4 0.66297493E-01 0.12498537E+03</pdfrwt>
<totfact> 0.60859845E+03</totfact>
</mgrwt>
</event>
<event>
 5    1  0.3251953E-002  0.1250094E+03  0.7818608E-02  0.1235055E+00
          4   -1    0    0  501    0  0.00000000000E+00  0.00000000000E+00  0.41546701594E+02  0.41566107748E+02  0.12700000000E+01 0. -1.
         -4   -1    0    0    0  501 -0.00000000000E+00 -0.00000000000E+00 -0.93989114298E+02  0.93997694155E+02  0.12700000000E+01 0. -1.
         25    2    1    2    0    0  0.00000000000E+00  0.00000000000E+00 -0.52442412704E+02  0.13556380190E+03  0.12500935060E+03 0.  0.
    9000005    1    3    3    0    0  0.30663249040E+02 -0.49650789969E+02 -0.50479447267E+02  0.77166121988E+02  0.10000000000E+01 0.  0.
    9000005    1    3    3    0    0 -0.30663249040E+02  0.49650789969E+02 -0.19629654368E+01  0.58397679916E+02  0.10000000000E+01 0.  0.
<mgrwt>
<rscale>  0 0.12500935E+03</rscale>
<asrwt>0</asrwt>
<pdfrwt beam="1">  1        4 0.63939530E-02 0.12500935E+03</pdfrwt>
<pdfrwt beam="2">  1       -4 0.14462016E-01 0.12500935E+03</pdfrwt>
<totfact> 0.10224045E+04</totfact>
</mgrwt>
</event>
<event>
 5    1  0.3251953E-002  0.1250007E+03  0.7818608E-02  0.1235068E+00
         -4   -1    0    0    0  501 -0.00000000000E+00  0.00000000000E+00  0.40454220023E+01  0.42400871662E+01  0.12700000000E+01 0. -1.
          4   -1    0    0  501    0  0.00000000000E+00 -0.00000000000E+00 -0.94272627336E+03  0.94272712880E+03  0.12700000000E+01 0. -1.
         25    2    1    2    0    0  0.00000000000E+00  0.00000000000E+00 -0.93868085135E+03  0.94696721597E+03  0.12500066967E+03 0.  0.
    9000005    1    3    3    0    0  0.43446311454E+02  0.17495219696E+02 -0.15592007708E+03  0.16280582031E+03  0.10000000000E+01 0.  0.
    9000005    1    3    3    0    0 -0.43446311454E+02 -0.17495219696E+02 -0.78276077427E+03  0.78416139565E+03  0.10000000000E+01 0.  0.
<mgrwt>
<rscale>  0 0.12500067E+03</rscale>
<asrwt>0</asrwt>
<pdfrwt beam="2">  1        4 0.14504968E+00 0.12500067E+03</pdfrwt>
<pdfrwt beam="1">  1       -4 0.63741341E-03 0.12500067E+03</pdfrwt>
<totfact> 0.32423456E+03</totfact>
</mgrwt>
</event>
<event>
 5    1  0.3251953E-002  0.1250008E+03  0.7818608E-02  0.1235068E+00
         -4   -1    0    0    0  501 -0.00000000000E+00  0.00000000000E+00  0.81318486808E+03  0.81318585980E+03  0.12700000000E+01 0. -1.
          4   -1    0    0  501    0  0.00000000000E+00 -0.00000000000E+00 -0.47187517871E+01  0.48866674154E+01  0.12700000000E+01 0. -1.
         25    2    1    2    0    0  0.00000000000E+00  0.00000000000E+00  0.80846611630E+03  0.81807252722E+03  0.12500079434E+03 0.  0.
    9000005    1    3    3    0    0  0.58070425382E+01  0.48340963610E+01  0.81021655917E+03  0.81025240695E+03  0.10000000000E+01 0.  0.
    9000005    1    3    3    0    0 -0.58070425382E+01 -0.48340963610E+01 -0.17504428686E+01  0.78201202615E+01  0.10000000000E+01 0.  0.
<mgrwt>
<rscale>  0 0.12500079E+03</rscale>
<asrwt>0</asrwt>
<pdfrwt beam="2">  1        4 0.73895484E-03 0.12500079E+03</pdfrwt>
<pdfrwt beam="1">  1       -4 0.12511833E+00 0.12500079E+03</pdfrwt>
<totfact> 0.37469903E+03</totfact>
</mgrwt>
</event>
<event>
 5    1  0.3251953E-002  0.1249822E+03  0.7818608E-02  0.1235097E+00
          4   -1    0    0  501    0  0.00000000000E+00  0.00000000000E+00  0.34034603232E+03  0.34034840181E+03  0.12700000000E+01 0.  1.
         -4   -1    0    0    0  501 -0.00000000000E+00 -0.00000000000E+00 -0.11436459830E+02  0.11506759467E+02  0.12700000000E+01 0.  1.
         25    2    1    2    0    0  0.00000000000E+00  0.00000000000E+00  0.32890957249E+03  0.35185516128E+03  0.12498218930E+03 0.  0.
    9000005    1    3    3    0    0 -0.61596273819E+02 -0.24316167653E+00  0.13493138385E+03  0.14832949276E+03  0.10000000000E+01 0.  0.
    9000005    1    3    3    0    0  0.61596273819E+02  0.24316167653E+00  0.19397818864E+03  0.20352566852E+03  0.10000000000E+01 0.  0.
<mgrwt>
<rscale>  0 0.12498219E+03</rscale>
<asrwt>0</asrwt>
<pdfrwt beam="1">  1        4 0.52366519E-01 0.12498219E+03</pdfrwt>
<pdfrwt beam="2">  1       -4 0.17650453E-02 0.12498219E+03</pdfrwt>
<totfact> 0.69548350E+03</totfact>
</mgrwt>
</event>
<event>
 5    1  0.3251953E-002  0.1250000E+03  0.7818608E-02  0.1235069E+00
          4   -1    0    0  501    0  0.00000000000E+00  0.00000000000E+00  0.16970068778E+02  0.17017524330E+02  0.12700000000E+01 0. -1.
         -4   -1    0    0    0  501 -0.00000000000E+00 -0.00000000000E+00 -0.22981398597E+03  0.22981749509E+03  0.12700000000E+01 0. -1.
         25    2    1    2    0    0  0.00000000000E+00  0.00000000000E+00 -0.21284391719E+03  0.24683501942E+03  0.12499997490E+03 0.  0.
    9000005    1    3    3    0    0  0.10755906186E+02  0.23804416188E+02 -0.21852589154E+03  0.22008385906E+03  0.10000000000E+01 0.  0.
    9000005    1    3    3    0    0 -0.10755906186E+02 -0.23804416188E+02  0.56819743428E+01  0.26751160355E+02  0.10000000000E+01 0.  0.
<mgrwt>
<rscale>  0 0.12499997E+03</rscale>
<asrwt>0</asrwt>
<pdfrwt beam="1">  1        4 0.26147003E-02 0.12499997E+03</pdfrwt>
<pdfrwt beam="2">  1       -4 0.35359916E-01 0.12499997E+03</pdfrwt>
<totfact> 0.82789876E+03</totfact>
</mgrwt>
</event>
<event>
 5    1  0.3251953E-002  0.1249989E+03  0.7818608E-02  0.1235071E+00
         -4   -1    0    0    0  501 -0.00000000000E+00  0.00000000000E+00  0.47671776004E+02  0.47688689722E+02  0.12700000000E+01 0. -1.
          4   -1    0    0  501    0  0.00000000000E+00 -0.00000000000E+00 -0.81902762970E+02  0.81912608811E+02  0.12700000000E+01 0. -1.
         25    2    1    2    0    0  0.00000000000E+00  0.00000000000E+00 -0.34230986966E+02  0.12960129853E+03  0.12499894445E+03 0.  0.
    9000005    1    3    3    0    0 -0.41610642517E+02 -0.12974071559E+02  0.29315160824E+02  0.52537136938E+02  0.10000000000E+01 0.  0.
    9000005    1    3    3    0    0  0.41610642517E+02  0.12974071559E+02 -0.63546147789E+02  0.77064161595E+02  0.10000000000E+01 0.  0.
<mgrwt>
<rscale>  0 0.12499894E+03</rscale>
<asrwt>0</asrwt>
<pdfrwt beam="2">  1        4 0.12602483E-01 0.12499894E+03</pdfrwt>
<pdfrwt beam="1">  1       -4 0.73361778E-02 0.12499894E+03</pdfrwt>
<totfact> 0.10353291E+04</totfact>
</mgrwt>
</event>
<event>
 5    1  0.3251953E-002  0.1249986E+03  0.7818608E-02  0.1235071E+00
         -4   -1    0    0    0  501 -0.00000000000E+00  0.00000000000E+00  0.11261638205E+02  0.11333022327E+02  0.12700000000E+01 0.  1.
          4   -1    0    0  501    0  0.00000000000E+00 -0.00000000000E+00 -0.34568737879E+03  0.34568971167E+03  0.12700000000E+01 0.  1.
         25    2    1    2    0    0  0.00000000000E+00  0.00000000000E+00 -0.33442574058E+03  0.35702273399E+03  0.12499862649E+03 0.  0.
    9000005    1    3    3    0    0 -0.16003907187E+02 -0.24828574122E+02 -0.32450132170E+03  0.32584458093E+03  0.10000000000E+01 0.  0.
    9000005    1    3    3    0    0  0.16003907187E+02  0.24828574122E+02 -0.99244188829E+01  0.31178153062E+02  0.10000000000E+01 0.  0.
<mgrwt>
<rscale>  0 0.12499863E+03</rscale>
<asrwt>0</asrwt>
<pdfrwt beam="2">  1        4 0.53188336E-01 0.12499863E+03</pdfrwt>
<pdfrwt beam="1">  1       -4 0.17382305E-02 0.12499863E+03</pdfrwt>
<totfact> 0.68960916E+03</totfact>
</mgrwt>
</event>
<event>
 5    1  0.3251953E-002  0.1249868E+03  0.7818608E-02  0.1235090E+00
          4   -1    0    0  501    0  0.00000000000E+00  0.00000000000E+00  0.67444666989E+03  0.67444786561E+03  0.12700000000E+01 0.  1.
         -4   -1    0    0    0  501 -0.00000000000E+00 -0.00000000000E+00 -0.57197152307E+01  0.58590137669E+01  0.12700000000E+01 0.  1.
         25    2    1    2    0    0  0.00000000000E+00  0.00000000000E+00  0.66872695466E+03  0.68030687938E+03  0.12498684027E+03 0.  0.
    9000005    1    3    3    0    0 -0.45938440947E+02 -0.18037057516E+02  0.12576325183E+03  0.13510392782E+03  0.10000000000E+01 0.  0.
    9000005    1    3    3    0    0  0.45938440947E+02  0.18037057516E+02  0.54296370283E+03  0.54520295156E+03  0.10000000000E+01 0.  0.
<mgrwt>
<rscale>  0 0.12498684E+03</rscale>
<asrwt>0</asrwt>
<pdfrwt beam="1">  1        4 0.10377183E+00 0.12498684E+03</pdfrwt>
<pdfrwt beam="2">  1       -4 0.89076343E-03 0.12498684E+03</pdfrwt>
<totfact> 0.44159575E+03</totfact>
</mgrwt>
</event>
<event>
 5    1  0.3251953E-002  0.1249990E+03  0.7818608E-02  0.1235071E+00
         -4   -1    0    0    0  501 -0.00000000000E+00  0.00000000000E+00  0.77492673228E+01  0.78526456714E+01  0.12700000000E+01 0.  1.
          4   -1    0    0  501    0  0.00000000000E+00 -0.00000000000E+00 -0.50062760107E+03  0.50062921195E+03  0.12700000000E+01 0.  1.
         25    2    1    2    0    0  0.00000000000E+00  0.00000000000E+00 -0.49287833375E+03  0.50848185762E+03  0.12499899059E+03 0.  0.
    9000005    1    3    3    0    0 -0.59478210641E+02  0.16723096294E+02 -0.28457057970E+03  0.29120222239E+03  0.10000000000E+01 0.  0.
    9000005    1    3    3    0    0  0.59478210641E+02 -0.16723096294E+02 -0.20830775405E+03  0.21727963523E+03  0.10000000000E+01 0.  0.
<mgrwt>
<rscale>  0 0.12499899E+03</rscale>
<asrwt>0</asrwt>
<pdfrwt beam="2">  1        4 0.77027682E-01 0.12499899E+03</pdfrwt>
<pdfrwt beam="1">  1       -4 0.12002715E-02 0.12499899E+03</pdfrwt>
<totfact> 0.55213468E+03</totfact>
</mgrwt>
</event>
<event>
 5    1  0.3251953E-002  0.1250071E+03  0.7818608E-02  0.1235058E+00
          4   -1    0    0  501    0  0.00000000000E+00  0.00000000000E+00  0.18750462591E+03  0.18750892682E+03  0.12700000000E+01 0. -1.
         -4   -1    0    0    0  501 -0.00000000000E+00 -0.00000000000E+00 -0.20811290149E+02  0.20850004740E+02  0.12700000000E+01 0. -1.
         25    2    1    2    0    0  0.00000000000E+00  0.00000000000E+00  0.16669333576E+03  0.20835893156E+03  0.12500710449E+03 0.  0.
    9000005    1    3    3    0    0 -0.31215554243E+02 -0.24960604537E+02  0.32676047960E+01  0.40113836100E+02  0.10000000000E+01 0.  0.
    9000005    1    3    3    0    0  0.31215554243E+02  0.24960604537E+02  0.16342573096E+03  0.16824509546E+03  0.10000000000E+01 0.  0.
<mgrwt>
<rscale>  0 0.12500710E+03</rscale>
<asrwt>0</asrwt>
<pdfrwt beam="1">  1        4 0.28850175E-01 0.12500710E+03</pdfrwt>
<pdfrwt beam="2">  1       -4 0.32050458E-02 0.12500710E+03</pdfrwt>
<totfact> 0.88730495E+03</totfact>
</mgrwt>
</event>
<event>
 5    1  0.3251953E-002  0.1250022E+03  0.7818608E-02  0.1235066E+00
         -4   -1    0    0    0  501 -0.00000000000E+00  0.00000000000E+00  0.25606442488E+02  0.25637917171E+02  0.12700000000E+01 0.  1.
          4   -1    0    0  501    0  0.00000000000E+00 -0.00000000000E+00 -0.15242705392E+03  0.15243234456E+03  0.12700000000E+01 0.  1.
         25    2    1    2    0    0  0.00000000000E+00  0.00000000000E+00 -0.12682061144E+03  0.17807026173E+03  0.12500220249E+03 0.  0.
    9000005    1    3    3    0    0  0.57486175664E+02  0.91587964476E+01 -0.95796010331E+02  0.11210004255E+03  0.10000000000E+01 0.  0.
    9000005    1    3    3    0    0 -0.57486175664E+02 -0.91587964476E+01 -0.31024601105E+02  0.65970219179E+02  0.10000000000E+01 0.  0.
<mgrwt>
<rscale>  0 0.12500220E+03</rscale>
<asrwt>0</asrwt>
<pdfrwt beam="2">  1        4 0.23453144E-01 0.12500220E+03</pdfrwt>
<pdfrwt beam="1">  1       -4 0.39422809E-02 0.12500220E+03</pdfrwt>
<totfact> 0.93960879E+03</totfact>
</mgrwt>
</event>
<event>
 5    1  0.3251953E-002  0.1250006E+03  0.7818608E-02  0.1235068E+00
         -4   -1    0    0    0  501 -0.00000000000E+00  0.00000000000E+00  0.22500206692E+02  0.22536020083E+02  0.12700000000E+01 0.  1.
          4   -1    0    0  501    0  0.00000000000E+00 -0.00000000000E+00 -0.17343494269E+03  0.17343959250E+03  0.12700000000E+01 0.  1.
         25    2    1    2    0    0  0.00000000000E+00  0.00000000000E+00 -0.15093473600E+03  0.19597561258E+03  0.12500058478E+03 0.  0.
    9000005    1    3    3    0    0  0.48611044867E+02  0.37900455053E+02 -0.59340501036E+02  0.85567360831E+02  0.10000000000E+01 0.  0.
    9000005    1    3    3    0    0 -0.48611044867E+02 -0.37900455053E+02 -0.91594234965E+02  0.11040825175E+03  0.10000000000E+01 0.  0.
<mgrwt>
<rscale>  0 0.12500058E+03</rscale>
<asrwt>0</asrwt>
<pdfrwt beam="2">  1        4 0.26685411E-01 0.12500058E+03</pdfrwt>
<pdfrwt beam="1">  1       -4 0.34646829E-02 0.12500058E+03</pdfrwt>
<totfact> 0.90816659E+03</totfact>
</mgrwt>
</event>
<event>
 4    1  0.3251953E-002  0.1250830E+03  0.7818608E-02  0.1234940E+00
          4   -1    0    0  501    0  0.00000000000E+00  0.00000000000E+00  0.11455365907E+03  0.11456069879E+03  0.12700000000E+01 0. -1.
         -4   -1    0    0    0  501 -0.00000000000E+00 -0.00000000000E+00 -0.34125150096E+02  0.34148774049E+02  0.12700000000E+01 0. -1.
    9000005    1    1    2    0    0  0.12897314787E+02 -0.13945148650E+02  0.11104665770E+03  0.11266396090E+03  0.10000000000E+01 0.  0.
    9000005    1    1    2    0    0 -0.12897314787E+02  0.13945148650E+02 -0.30618148723E+02  0.36045511937E+02  0.10000000000E+01 0.  0.
<mgrwt>
<rscale>  0 0.12508302E+03</rscale>
<asrwt>0</asrwt>
<pdfrwt beam="1">  1        4 0.17625998E-01 0.12508302E+03</pdfrwt>
<pdfrwt beam="2">  1       -4 0.52523819E-02 0.12508302E+03</pdfrwt>
<totfact> 0.99375746E+03</totfact>
</mgrwt>
</event>
<event>
 5    1  0.3251953E-002  0.1249902E+03  0.7818608E-02  0.1235085E+00
         -4   -1    0    0    0  501 -0.00000000000E+00  0.00000000000E+00  0.26199359808E+02  0.26230123034E+02  0.12700000000E+01 0. -1.
          4   -1    0    0  501    0  0.00000000000E+00 -0.00000000000E+00 -0.14895276352E+03  0.14895817755E+03  0.12700000000E+01 0. -1.
         25    2    1    2    0    0  0.00000000000E+00  0.00000000000E+00 -0.12275340371E+03  0.17518830058E+03  0.12499016977E+03 0.  0.
    9000005    1    3    3    0    0  0.20114495947E+02  0.56173894162E+02 -0.87393073991E+02  0.10582366802E+03  0.10000000000E+01 0.  0.
    9000005    1    3    3    0    0 -0.20114495947E+02 -0.56173894162E+02 -0.35360329717E+02  0.69364632560E+02  0.10000000000E+01 0.  0.
<mgrwt>
<rscale>  0 0.12499017E+03</rscale>
<asrwt>0</asrwt>
<pdfrwt beam="2">  1        4 0.22918592E-01 0.12499017E+03</pdfrwt>
<pdfrwt beam="1">  1       -4 0.40334537E-02 0.12499017E+03</pdfrwt>
<totfact> 0.94511205E+03</totfact>
</mgrwt>
</event>
<event>
 5    1  0.3251953E-002  0.1249952E+03  0.7818608E-02  0.1235077E+00
          4   -1    0    0  501    0  0.00000000000E+00  0.00000000000E+00  0.80293747657E+02  0.80303790775E+02  0.12700000000E+01 0. -1.
         -4   -1    0    0    0  501 -0.00000000000E+00 -0.00000000000E+00 -0.48624393727E+02  0.48640976196E+02  0.12700000000E+01 0. -1.
         25    2    1    2    0    0  0.00000000000E+00  0.00000000000E+00  0.31669353931E+02  0.12894476697E+03  0.12499521971E+03 0.  0.
    9000005    1    3    3    0    0  0.40176770471E+02  0.28062851672E+02 -0.24162248043E+02  0.54648977666E+02  0.10000000000E+01 0.  0.
    9000005    1    3    3    0    0 -0.40176770471E+02 -0.28062851672E+02  0.55831601974E+02  0.74295789305E+02  0.10000000000E+01 0.  0.
<mgrwt>
<rscale>  0 0.12499522E+03</rscale>
<asrwt>0</asrwt>
<pdfrwt beam="1">  1        4 0.12354932E-01 0.12499522E+03</pdfrwt>
<pdfrwt beam="2">  1       -4 0.74827241E-02 0.12499522E+03</pdfrwt>
<totfact> 0.10368253E+04</totfact>
</mgrwt>
</event>
<event>
 5    1  0.3251953E-002  0.1250102E+03  0.7818608E-02  0.1235053E+00
          4   -1    0    0  501    0  0.00000000000E+00  0.00000000000E+00  0.20805831123E+03  0.20806218727E+03  0.12700000000E+01 0.  1.
         -4   -1    0    0    0  501 -0.00000000000E+00 -0.00000000000E+00 -0.18752313742E+02  0.18795269902E+02  0.12700000000E+01 0.  1.
         25    2    1    2    0    0  0.00000000000E+00  0.00000000000E+00  0.18930599749E+03  0.22685745718E+03  0.12501018035E+03 0.  0.
    9000005    1    3    3    0    0  0.39909703833E+02 -0.47636340485E+02  0.10667413320E+03  0.12346001818E+03  0.10000000000E+01 0.  0.
    9000005    1    3    3    0    0 -0.39909703833E+02  0.47636340485E+02  0.82631864288E+02  0.10339743899E+03  0.10000000000E+01 0.  0.
<mgrwt>
<rscale>  0 0.12501018E+03</rscale>
<asrwt>0</asrwt>
<pdfrwt beam="1">  1        4 0.32012572E-01 0.12501018E+03</pdfrwt>
<pdfrwt beam="2">  1       -4 0.28885739E-02 0.12501018E+03</pdfrwt>
<totfact> 0.85774995E+03</totfact>
</mgrwt>
</event>
<event>
 5    1  0.3251953E-002  0.1249930E+03  0.7818608E-02  0.1235080E+00
          4   -1    0    0  501    0  0.00000000000E+00  0.00000000000E+00  0.93112183351E+03  0.93112269961E+03  0.12700000000E+01 0.  1.
         -4   -1    0    0    0  501 -0.00000000000E+00 -0.00000000000E+00 -0.40977260619E+01  0.42900185172E+01  0.12700000000E+01 0.  1.
         25    2    1    2    0    0  0.00000000000E+00  0.00000000000E+00  0.92702410744E+03  0.93541271813E+03  0.12499302962E+03 0.  0.
    9000005    1    3    3    0    0 -0.28131638001E+02  0.43287411476E+02  0.20002292956E+03  0.20658015732E+03  0.10000000000E+01 0.  0.
    9000005    1    3    3    0    0  0.28131638001E+02 -0.43287411476E+02  0.72700117788E+03  0.72883256081E+03  0.10000000000E+01 0.  0.
<mgrwt>
<rscale>  0 0.12499303E+03</rscale>
<asrwt>0</asrwt>
<pdfrwt beam="1">  1        4 0.14326439E+00 0.12499303E+03</pdfrwt>
<pdfrwt beam="2">  1       -4 0.64527764E-03 0.12499303E+03</pdfrwt>
<totfact> 0.32844596E+03</totfact>
</mgrwt>
</event>
<event>
 5    1  0.3251953E-002  0.1249990E+03  0.7818608E-02  0.1235071E+00
         -4   -1    0    0    0  501 -0.00000000000E+00  0.00000000000E+00  0.88508684850E+02  0.88517795917E+02  0.12700000000E+01 0. -1.
          4   -1    0    0  501    0  0.00000000000E+00 -0.00000000000E+00 -0.44112829158E+02  0.44131106901E+02  0.12700000000E+01 0. -1.
         25    2    1    2    0    0  0.00000000000E+00  0.00000000000E+00  0.44395855693E+02  0.13264890282E+03  0.12499895766E+03 0.  0.
    9000005    1    3    3    0    0  0.65660011082E+01  0.64351642762E+00 -0.43747424917E+02  0.44253402929E+02  0.10000000000E+01 0.  0.
    9000005    1    3    3    0    0 -0.65660011082E+01 -0.64351642762E+00  0.88143280610E+02  0.88395499889E+02  0.10000000000E+01 0.  0.
<mgrwt>
<rscale>  0 0.12499896E+03</rscale>
<asrwt>0</asrwt>
<pdfrwt beam="2">  1        4 0.67886960E-02 0.12499896E+03</pdfrwt>
<pdfrwt beam="1">  1       -4 0.13618828E-01 0.12499896E+03</pdfrwt>
<totfact> 0.10288109E+04</totfact>
</mgrwt>
</event>
<event>
 5    1  0.3251953E-002  0.1250008E+03  0.7818608E-02  0.1235068E+00
         -4   -1    0    0    0  501 -0.00000000000E+00  0.00000000000E+00  0.43412742164E+03  0.43412927927E+03  0.12700000000E+01 0. -1.
          4   -1    0    0  501    0  0.00000000000E+00 -0.00000000000E+00 -0.89513544359E+01  0.90409980775E+01  0.12700000000E+01 0. -1.
         25    2    1    2    0    0  0.00000000000E+00  0.00000000000E+00  0.42517606720E+03  0.44317027734E+03  0.12500082640E+03 0.  0.
    9000005    1    3    3    0    0 -0.72478283400E+00 -0.15189250318E+02  0.42748537442E+03  0.42775692160E+03  0.10000000000E+01 0.  0.
    9000005    1    3    3    0    0  0.72478283400E+00  0.15189250318E+02 -0.23093072203E+01  0.15413355742E+02  0.10000000000E+01 0.  0.
<mgrwt>
<rscale>  0 0.12500083E+03</rscale>
<asrwt>0</asrwt>
<pdfrwt beam="2">  1        4 0.13841701E-02 0.12500083E+03</pdfrwt>
<pdfrwt beam="1">  1       -4 0.66795868E-01 0.12500083E+03</pdfrwt>
<totfact> 0.60558953E+03</totfact>
</mgrwt>
</event>
<event>
 5    1  0.3251953E-002  0.1249992E+03  0.7818608E-02  0.1235071E+00
         -4   -1    0    0    0  501 -0.00000000000E+00  0.00000000000E+00  0.51508596115E+02  0.51524250346E+02  0.12700000000E+01 0. -1.
          4   -1    0    0  501    0  0.00000000000E+00 -0.00000000000E+00 -0.75803336646E+02  0.75813974613E+02  0.12700000000E+01 0. -1.
         25    2    1    2    0    0  0.00000000000E+00  0.00000000000E+00 -0.24294740531E+02  0.12733822496E+03  0.12499915647E+03 0.  0.
    9000005    1    3    3    0    0  0.60495914723E+02  0.13188203811E+02 -0.35325982679E+01  0.62025508208E+02  0.10000000000E+01 0.  0.
    9000005    1    3    3    0    0 -0.60495914723E+02 -0.13188203811E+02 -0.20762142263E+02  0.65312716750E+02  0.10000000000E+01 0.  0.
<mgrwt>
<rscale>  0 0.12499916E+03</rscale>
<asrwt>0</asrwt>
<pdfrwt beam="2">  1        4 0.11664074E-01 0.12499916E+03</pdfrwt>
<pdfrwt beam="1">  1       -4 0.79264219E-02 0.12499916E+03</pdfrwt>
<totfact> 0.10402004E+04</totfact>
</mgrwt>
</event>
<event>
 5    1  0.3251953E-002  0.1249912E+03  0.7818608E-02  0.1235083E+00
         -4   -1    0    0    0  501 -0.00000000000E+00  0.00000000000E+00  0.10435237480E+04  0.10435245208E+04  0.12700000000E+01 0. -1.
          4   -1    0    0  501    0  0.00000000000E+00 -0.00000000000E+00 -0.36342668921E+01  0.38497786745E+01  0.12700000000E+01 0. -1.
         25    2    1    2    0    0  0.00000000000E+00  0.00000000000E+00  0.10398894811E+04  0.10473742995E+04  0.12499116093E+03 0.  0.
    9000005    1    3    3    0    0  0.26327984816E+02  0.43993552944E+02  0.81928513146E+03  0.82088837373E+03  0.10000000000E+01 0.  0.
    9000005    1    3    3    0    0 -0.26327984816E+02 -0.43993552944E+02  0.22060434962E+03  0.22648592574E+03  0.10000000000E+01 0.  0.
<mgrwt>
<rscale>  0 0.12499116E+03</rscale>
<asrwt>0</asrwt>
<pdfrwt beam="2">  1        4 0.57575375E-03 0.12499116E+03</pdfrwt>
<pdfrwt beam="1">  1       -4 0.16055917E+00 0.12499116E+03</pdfrwt>
<totfact> 0.29082413E+03</totfact>
</mgrwt>
</event>
<event>
 5    1  0.3251953E-002  0.1250045E+03  0.7818608E-02  0.1235062E+00
          4   -1    0    0  501    0  0.00000000000E+00  0.00000000000E+00  0.11401464042E+03  0.11402171341E+03  0.12700000000E+01 0.  1.
         -4   -1    0    0    0  501 -0.00000000000E+00 -0.00000000000E+00 -0.34243509009E+02  0.34267051365E+02  0.12700000000E+01 0.  1.
         25    2    1    2    0    0  0.00000000000E+00  0.00000000000E+00  0.79771131410E+02  0.14828876478E+03  0.12500449733E+03 0.  0.
    9000005    1    3    3    0    0 -0.10455082521E+02 -0.80123808039E+01 -0.32583861526E+02  0.35159849667E+02  0.10000000000E+01 0.  0.
    9000005    1    3    3    0    0  0.10455082521E+02  0.80123808039E+01  0.11235499294E+03  0.11312891511E+03  0.10000000000E+01 0.  0.
<mgrwt>
<rscale>  0 0.12500450E+03</rscale>
<asrwt>0</asrwt>
<pdfrwt beam="1">  1        4 0.17543069E-01 0.12500450E+03</pdfrwt>
<pdfrwt beam="2">  1       -4 0.52705871E-02 0.12500450E+03</pdfrwt>
<totfact> 0.99635819E+03</totfact>
</mgrwt>
</event>
<event>
 5    1  0.3251953E-002  0.1250027E+03  0.7818608E-02  0.1235065E+00
          4   -1    0    0  501    0  0.00000000000E+00  0.00000000000E+00  0.78524177439E+01  0.79544556335E+01  0.12700000000E+01 0.  1.
         -4   -1    0    0    0  501 -0.00000000000E+00 -0.00000000000E+00 -0.49416524473E+03  0.49416687667E+03  0.12700000000E+01 0.  1.
         25    2    1    2    0    0  0.00000000000E+00  0.00000000000E+00 -0.48631282698E+03  0.50212133230E+03  0.12500266663E+03 0.  0.
    9000005    1    3    3    0    0 -0.50851607275E+02  0.36108706508E+02 -0.22724426612E+03  0.23564948787E+03  0.10000000000E+01 0.  0.
    9000005    1    3    3    0    0  0.50851607275E+02 -0.36108706508E+02 -0.25906856086E+03  0.26647184443E+03  0.10000000000E+01 0.  0.
<mgrwt>
<rscale>  0 0.12500267E+03</rscale>
<asrwt>0</asrwt>
<pdfrwt beam="1">  1        4 0.12160393E-02 0.12500267E+03</pdfrwt>
<pdfrwt beam="2">  1       -4 0.76033373E-01 0.12500267E+03</pdfrwt>
<totfact> 0.55696897E+03</totfact>
</mgrwt>
</event>
<event>
 5    1  0.3251953E-002  0.1249995E+03  0.7818608E-02  0.1235070E+00
         -4   -1    0    0    0  501 -0.00000000000E+00  0.00000000000E+00  0.48115897192E+03  0.48116064798E+03  0.12700000000E+01 0. -1.
          4   -1    0    0  501    0  0.00000000000E+00 -0.00000000000E+00 -0.80669898193E+01  0.81663470870E+01  0.12700000000E+01 0. -1.
         25    2    1    2    0    0  0.00000000000E+00  0.00000000000E+00  0.47309198210E+03  0.48932699506E+03  0.12499953827E+03 0.  0.
    9000005    1    3    3    0    0 -0.13119865098E+01 -0.11605566526E+02  0.47686765727E+03  0.47701171163E+03  0.10000000000E+01 0.  0.
    9000005    1    3    3    0    0  0.13119865098E+01  0.11605566526E+02 -0.37756751689E+01  0.12315283431E+02  0.10000000000E+01 0.  0.
<mgrwt>
<rscale>  0 0.12499954E+03</rscale>
<asrwt>0</asrwt>
<pdfrwt beam="2">  1        4 0.12488468E-02 0.12499954E+03</pdfrwt>
<pdfrwt beam="1">  1       -4 0.74032247E-01 0.12499954E+03</pdfrwt>
<totfact> 0.56702639E+03</totfact>
</mgrwt>
</event>
<event>
 5    1  0.3251953E-002  0.1250024E+03  0.7818608E-02  0.1235066E+00
          4   -1    0    0  501    0  0.00000000000E+00  0.00000000000E+00  0.72629963308E+03  0.72630074343E+03  0.12700000000E+01 0.  1.
         -4   -1    0    0    0  501 -0.00000000000E+00 -0.00000000000E+00 -0.53023932905E+01  0.54523641301E+01  0.12700000000E+01 0.  1.
         25    2    1    2    0    0  0.00000000000E+00  0.00000000000E+00  0.72099723979E+03  0.73175310756E+03  0.12500236256E+03 0.  0.
    9000005    1    3    3    0    0  0.58778220527E+01  0.40496876878E+02  0.63699007709E+03  0.63830392772E+03  0.10000000000E+01 0.  0.
    9000005    1    3    3    0    0 -0.58778220527E+01 -0.40496876878E+02  0.84007162696E+02  0.93449179842E+02  0.10000000000E+01 0.  0.
<mgrwt>
<rscale>  0 0.12500236E+03</rscale>
<asrwt>0</asrwt>
<pdfrwt beam="1">  1        4 0.11175007E+00 0.12500236E+03</pdfrwt>
<pdfrwt beam="2">  1       -4 0.82737416E-03 0.12500236E+03</pdfrwt>
<totfact> 0.41460306E+03</totfact>
</mgrwt>
</event>
<event>
 5    1  0.3251953E-002  0.1250028E+03  0.7818608E-02  0.1235065E+00
         -4   -1    0    0    0  501 -0.00000000000E+00  0.00000000000E+00  0.89026171717E+02  0.89035229829E+02  0.12700000000E+01 0.  1.
          4   -1    0    0  501    0  0.00000000000E+00 -0.00000000000E+00 -0.43859033653E+02  0.43877417119E+02  0.12700000000E+01 0.  1.
         25    2    1    2    0    0  0.00000000000E+00  0.00000000000E+00  0.45167138064E+02  0.13291264695E+03  0.12500280540E+03 0.  0.
    9000005    1    3    3    0    0 -0.18642770486E+02 -0.27913663159E+02 -0.33465366185E+02  0.47409452815E+02  0.10000000000E+01 0.  0.
    9000005    1    3    3    0    0  0.18642770486E+02  0.27913663159E+02  0.78632504249E+02  0.85503194132E+02  0.10000000000E+01 0.  0.
<mgrwt>
<rscale>  0 0.12500281E+03</rscale>
<asrwt>0</asrwt>
<pdfrwt beam="2">  1        4 0.67496547E-02 0.12500281E+03</pdfrwt>
<pdfrwt beam="1">  1       -4 0.13698445E-01 0.12500281E+03</pdfrwt>
<totfact> 0.10281606E+04</totfact>
</mgrwt>
</event>
<event>
 5    1  0.3251953E-002  0.1249970E+03  0.7818608E-02  0.1235074E+00
          4   -1    0    0  501    0  0.00000000000E+00  0.00000000000E+00  0.17289621516E+02  0.17336202357E+02  0.12700000000E+01 0. -1.
         -4   -1    0    0    0  501 -0.00000000000E+00 -0.00000000000E+00 -0.22556727473E+03  0.22557084991E+03  0.12700000000E+01 0. -1.
         25    2    1    2    0    0  0.00000000000E+00  0.00000000000E+00 -0.20827765321E+03  0.24290705226E+03  0.12499702081E+03 0.  0.
    9000005    1    3    3    0    0  0.35212144095E+02  0.33661885254E+02 -0.28075311491E+02  0.56233804121E+02  0.10000000000E+01 0.  0.
    9000005    1    3    3    0    0 -0.35212144095E+02 -0.33661885254E+02 -0.18020234172E+03  0.18667324814E+03  0.10000000000E+01 0.  0.
<mgrwt>
<rscale>  0 0.12499702E+03</rscale>
<asrwt>0</asrwt>
<pdfrwt beam="1">  1        4 0.26638001E-02 0.12499702E+03</pdfrwt>
<pdfrwt beam="2">  1       -4 0.34706514E-01 0.12499702E+03</pdfrwt>
<totfact> 0.83371847E+03</totfact>
</mgrwt>
</event>
<event>
 5    1  0.3251953E-002  0.1250134E+03  0.7818608E-02  0.1235048E+00
         -4   -1    0    0    0  501 -0.00000000000E+00  0.00000000000E+00  0.10322227179E+03  0.10323008424E+03  0.12700000000E+01 0.  1.
          4   -1    0    0  501    0  0.00000000000E+00 -0.00000000000E+00 -0.37831303571E+02  0.37852614571E+02  0.12700000000E+01 0.  1.
         25    2    1    2    0    0  0.00000000000E+00  0.00000000000E+00  0.65390968217E+02  0.14108269881E+03  0.12501339600E+03 0.  0.
    9000005    1    3    3    0    0  0.53425797647E+02  0.31907107124E+02  0.39247627808E+02  0.73578227947E+02  0.10000000000E+01 0.  0.
    9000005    1    3    3    0    0 -0.53425797647E+02 -0.31907107124E+02  0.26143340408E+02  0.67504470867E+02  0.10000000000E+01 0.  0.
<mgrwt>
<rscale>  0 0.12501340E+03</rscale>
<asrwt>0</asrwt>
<pdfrwt beam="2">  1        4 0.58224409E-02 0.12501340E+03</pdfrwt>
<pdfrwt beam="1">  1       -4 0.15882589E-01 0.12501340E+03</pdfrwt>
<totfact> 0.10108145E+04</totfact>
</mgrwt>
</event>
<event>
 5    1  0.3251953E-002  0.1249956E+03  0.7818608E-02  0.1235076E+00
          4   -1    0    0  501    0  0.00000000000E+00  0.00000000000E+00  0.13290120293E+03  0.13290727083E+03  0.12700000000E+01 0. -1.
         -4   -1    0    0    0  501 -0.00000000000E+00 -0.00000000000E+00 -0.29369620523E+02  0.29397066344E+02  0.12700000000E+01 0. -1.
         25    2    1    2    0    0  0.00000000000E+00  0.00000000000E+00  0.10353158241E+03  0.16230433718E+03  0.12499563717E+03 0.  0.
    9000005    1    3    3    0    0 -0.44288018297E+02 -0.19900491187E+02  0.10284607431E+03  0.11373554025E+03  0.10000000000E+01 0.  0.
    9000005    1    3    3    0    0  0.44288018297E+02  0.19900491187E+02  0.68550809980E+00  0.48568796933E+02  0.10000000000E+01 0.  0.
<mgrwt>
<rscale>  0 0.12499564E+03</rscale>
<asrwt>0</asrwt>
<pdfrwt beam="1">  1        4 0.20448917E-01 0.12499564E+03</pdfrwt>
<pdfrwt beam="2">  1       -4 0.45209811E-02 0.12499564E+03</pdfrwt>
<totfact> 0.96909858E+03</totfact>
</mgrwt>
</event>
<event>
 5    1  0.3251953E-002  0.1250036E+03  0.7818608E-02  0.1235064E+00
         -4   -1    0    0    0  501 -0.00000000000E+00  0.00000000000E+00  0.16730572842E+04  0.16730577662E+04  0.12700000000E+01 0. -1.
          4   -1    0    0  501    0  0.00000000000E+00 -0.00000000000E+00 -0.21617234935E+01  0.25071793838E+01  0.12700000000E+01 0. -1.
         25    2    1    2    0    0  0.00000000000E+00  0.00000000000E+00  0.16708955607E+04  0.16755649456E+04  0.12500364856E+03 0.  0.
    9000005    1    3    3    0    0  0.47194585502E+02  0.35029687043E+02  0.11201301860E+04  0.11216715391E+04  0.10000000000E+01 0.  0.
    9000005    1    3    3    0    0 -0.47194585502E+02 -0.35029687043E+02  0.55076537462E+03  0.55389340649E+03  0.10000000000E+01 0.  0.
<mgrwt>
<rscale>  0 0.12500365E+03</rscale>
<asrwt>0</asrwt>
<pdfrwt beam="2">  1        4 0.35918519E-03 0.12500365E+03</pdfrwt>
<pdfrwt beam="1">  1       -4 0.25741880E+00 0.12500365E+03</pdfrwt>
<totfact> 0.14718648E+03</totfact>
</mgrwt>
</event>
<event>
 5    1  0.3251953E-002  0.1250001E+03  0.7818608E-02  0.1235069E+00
         -4   -1    0    0    0  501 -0.00000000000E+00  0.00000000000E+00  0.71274762149E+03  0.71274875295E+03  0.12700000000E+01 0.  1.
          4   -1    0    0  501    0  0.00000000000E+00 -0.00000000000E+00 -0.54058376953E+01  0.55530155040E+01  0.12700000000E+01 0.  1.
         25    2    1    2    0    0  0.00000000000E+00  0.00000000000E+00  0.70734178379E+03  0.71830176846E+03  0.12500012588E+03 0.  0.
    9000005    1    3    3    0    0  0.25048724823E+02 -0.10586420126E+02  0.30349392146E+02  0.40762685264E+02  0.10000000000E+01 0.  0.
    9000005    1    3    3    0    0 -0.25048724823E+02  0.10586420126E+02  0.67699239165E+03  0.67753908319E+03  0.10000000000E+01 0.  0.
<mgrwt>
<rscale>  0 0.12500013E+03</rscale>
<asrwt>0</asrwt>
<pdfrwt beam="2">  1        4 0.84307546E-03 0.12500013E+03</pdfrwt>
<pdfrwt beam="1">  1       -4 0.10966493E+00 0.12500013E+03</pdfrwt>
<totfact> 0.42137879E+03</totfact>
</mgrwt>
</event>
<event>
 5    1  0.3251953E-002  0.1249997E+03  0.7818608E-02  0.1235070E+00
          4   -1    0    0  501    0  0.00000000000E+00  0.00000000000E+00  0.13265087615E+03  0.13265695551E+03  0.12700000000E+01 0.  1.
         -4   -1    0    0    0  501 -0.00000000000E+00 -0.00000000000E+00 -0.29427010611E+02  0.29454402956E+02  0.12700000000E+01 0.  1.
         25    2    1    2    0    0  0.00000000000E+00  0.00000000000E+00  0.10322386554E+03  0.16211135846E+03  0.12499970450E+03 0.  0.
    9000005    1    3    3    0    0 -0.21245905836E+02 -0.35227223808E+02 -0.93956688241E+01  0.42209292871E+02  0.10000000000E+01 0.  0.
    9000005    1    3    3    0    0  0.21245905836E+02  0.35227223808E+02  0.11261953437E+03  0.11990206559E+03  0.10000000000E+01 0.  0.
<mgrwt>
<rscale>  0 0.12499970E+03</rscale>
<asrwt>0</asrwt>
<pdfrwt beam="1">  1        4 0.20410402E-01 0.12499970E+03</pdfrwt>
<pdfrwt beam="2">  1       -4 0.45298071E-02 0.12499970E+03</pdfrwt>
<totfact> 0.96937913E+03</totfact>
</mgrwt>
</event>
<event>
 5    1  0.3251953E-002  0.1250062E+03  0.7818608E-02  0.1235060E+00
          4   -1    0    0  501    0  0.00000000000E+00  0.00000000000E+00  0.35513536772E+02  0.35536237759E+02  0.12700000000E+01 0.  1.
         -4   -1    0    0    0  501 -0.00000000000E+00 -0.00000000000E+00 -0.10994261241E+03  0.10994994735E+03  0.12700000000E+01 0.  1.
         25    2    1    2    0    0  0.00000000000E+00  0.00000000000E+00 -0.74429075637E+02  0.14548618511E+03  0.12500617088E+03 0.  0.
    9000005    1    3    3    0    0 -0.56966264970E+02 -0.21422624149E+02 -0.20691749375E+02  0.64290222136E+02  0.10000000000E+01 0.  0.
    9000005    1    3    3    0    0  0.56966264970E+02  0.21422624149E+02 -0.53737326262E+02  0.81195962977E+02  0.10000000000E+01 0.  0.
<mgrwt>
<rscale>  0 0.12500617E+03</rscale>
<asrwt>0</asrwt>
<pdfrwt beam="1">  1        4 0.54659315E-02 0.12500617E+03</pdfrwt>
<pdfrwt beam="2">  1       -4 0.16916558E-01 0.12500617E+03</pdfrwt>
<totfact> 0.10019727E+04</totfact>
</mgrwt>
</event>
<event>
 5    1  0.3251953E-002  0.1250039E+03  0.7818608E-02  0.1235063E+00
         -4   -1    0    0    0  501 -0.00000000000E+00  0.00000000000E+00  0.36532881871E+02  0.36554949839E+02  0.12700000000E+01 0. -1.
          4   -1    0    0  501    0  0.00000000000E+00 -0.00000000000E+00 -0.10687280095E+03  0.10688034657E+03  0.12700000000E+01 0. -1.
         25    2    1    2    0    0  0.00000000000E+00  0.00000000000E+00 -0.70339919078E+02  0.14343529641E+03  0.12500392010E+03 0.  0.
    9000005    1    3    3    0    0  0.25744994437E+02 -0.33453708390E+02 -0.88046446250E+02  0.97648000701E+02  0.10000000000E+01 0.  0.
    9000005    1    3    3    0    0 -0.25744994437E+02  0.33453708390E+02  0.17706527172E+02  0.45787295707E+02  0.10000000000E+01 0.  0.
<mgrwt>
<rscale>  0 0.12500392E+03</rscale>
<asrwt>0</asrwt>
<pdfrwt beam="2">  1        4 0.16444247E-01 0.12500392E+03</pdfrwt>
<pdfrwt beam="1">  1       -4 0.56227214E-02 0.12500392E+03</pdfrwt>
<totfact> 0.10061989E+04</totfact>
</mgrwt>
</event>
<event>
 5    1  0.3251953E-002  0.1249998E+03  0.7818608E-02  0.1235070E+00
          4   -1    0    0  501    0  0.00000000000E+00  0.00000000000E+00  0.23124252576E+03  0.23124601320E+03  0.12700000000E+01 0.  1.
         -4   -1    0    0    0  501 -0.00000000000E+00 -0.00000000000E+00 -0.16864901464E+02  0.16912652110E+02  0.12700000000E+01 0.  1.
         25    2    1    2    0    0  0.00000000000E+00  0.00000000000E+00  0.21437762430E+03  0.24815866531E+03  0.12499982947E+03 0.  0.
    9000005    1    3    3    0    0  0.71359044214E+01 -0.37399582501E+02  0.20556679252E+03  0.20906543495E+03  0.10000000000E+01 0.  0.
    9000005    1    3    3    0    0 -0.71359044214E+01  0.37399582501E+02  0.88108317736E+01  0.39093230356E+02  0.10000000000E+01 0.  0.
<mgrwt>
<rscale>  0 0.12499983E+03</rscale>
<asrwt>0</asrwt>
<pdfrwt beam="1">  1        4 0.35579715E-01 0.12499983E+03</pdfrwt>
<pdfrwt beam="2">  1       -4 0.25985416E-02 0.12499983E+03</pdfrwt>
<totfact> 0.82597401E+03</totfact>
</mgrwt>
</event>
<event>
 5    1  0.3251953E-002  0.1250007E+03  0.7818608E-02  0.1235068E+00
         -4   -1    0    0    0  501 -0.00000000000E+00  0.00000000000E+00  0.11421250644E+03  0.11421956718E+03  0.12700000000E+01 0. -1.
          4   -1    0    0  501    0  0.00000000000E+00 -0.00000000000E+00 -0.34182044084E+02  0.34205628744E+02  0.12700000000E+01 0. -1.
         25    2    1    2    0    0  0.00000000000E+00  0.00000000000E+00  0.80030462354E+02  0.14842519592E+03  0.12500065552E+03 0.  0.
    9000005    1    3    3    0    0 -0.25475734782E+01 -0.60796319984E+02  0.23113780832E+02  0.65099381860E+02  0.10000000000E+01 0.  0.
    9000005    1    3    3    0    0  0.25475734782E+01  0.60796319984E+02  0.56916681522E+02  0.83325814065E+02  0.10000000000E+01 0.  0.
<mgrwt>
<rscale>  0 0.12500066E+03</rscale>
<asrwt>0</asrwt>
<pdfrwt beam="2">  1        4 0.52611333E-02 0.12500066E+03</pdfrwt>
<pdfrwt beam="1">  1       -4 0.17573512E-01 0.12500066E+03</pdfrwt>
<totfact> 0.99617072E+03</totfact>
</mgrwt>
</event>
<event>
 5    1  0.3251953E-002  0.1250039E+03  0.7818608E-02  0.1235063E+00
          4   -1    0    0  501    0  0.00000000000E+00  0.00000000000E+00  0.73603583911E+02  0.73614539763E+02  0.12700000000E+01 0.  1.
         -4   -1    0    0    0  501 -0.00000000000E+00 -0.00000000000E+00 -0.53052256331E+02  0.53067455203E+02  0.12700000000E+01 0.  1.
         25    2    1    2    0    0  0.00000000000E+00  0.00000000000E+00  0.20551327580E+02  0.12668199497E+03  0.12500388307E+03 0.  0.
    9000005    1    3    3    0    0 -0.15746274796E+02  0.29439973072E+02  0.63813215909E+02  0.72026270964E+02  0.10000000000E+01 0.  0.
    9000005    1    3    3    0    0  0.15746274796E+02 -0.29439973072E+02 -0.43261888328E+02  0.54655724002E+02  0.10000000000E+01 0.  0.
<mgrwt>
<rscale>  0 0.12500388E+03</rscale>
<asrwt>0</asrwt>
<pdfrwt beam="1">  1        4 0.11325640E-01 0.12500388E+03</pdfrwt>
<pdfrwt beam="2">  1       -4 0.81638975E-02 0.12500388E+03</pdfrwt>
<totfact> 0.10415149E+04</totfact>
</mgrwt>
</event>
<event>
 5    1  0.3251953E-002  0.1249985E+03  0.7818608E-02  0.1235072E+00
         -4   -1    0    0    0  501 -0.00000000000E+00  0.00000000000E+00  0.20704056499E+03  0.20704446008E+03  0.12700000000E+01 0.  1.
          4   -1    0    0  501    0  0.00000000000E+00 -0.00000000000E+00 -0.18841184264E+02  0.18883938267E+02  0.12700000000E+01 0.  1.
         25    2    1    2    0    0  0.00000000000E+00  0.00000000000E+00  0.18819938072E+03  0.22592839835E+03  0.12499853709E+03 0.  0.
    9000005    1    3    3    0    0 -0.18174129123E+02 -0.56108718257E+02  0.56764993745E+02  0.81864227527E+02  0.10000000000E+01 0.  0.
    9000005    1    3    3    0    0  0.18174129123E+02  0.56108718257E+02  0.13143438698E+03  0.14406417082E+03  0.10000000000E+01 0.  0.
<mgrwt>
<rscale>  0 0.12499854E+03</rscale>
<asrwt>0</asrwt>
<pdfrwt beam="2">  1        4 0.29022321E-02 0.12499854E+03</pdfrwt>
<pdfrwt beam="1">  1       -4 0.31855984E-01 0.12499854E+03</pdfrwt>
<totfact> 0.85941546E+03</totfact>
</mgrwt>
</event>
<event>
 5    1  0.3251953E-002  0.1250005E+03  0.7818608E-02  0.1235068E+00
          4   -1    0    0  501    0  0.00000000000E+00  0.00000000000E+00  0.19363508368E+03  0.19363924843E+03  0.12700000000E+01 0.  1.
         -4   -1    0    0    0  501 -0.00000000000E+00 -0.00000000000E+00 -0.20149044462E+02  0.20189029019E+02  0.12700000000E+01 0.  1.
         25    2    1    2    0    0  0.00000000000E+00  0.00000000000E+00  0.17348603922E+03  0.21382827745E+03  0.12500050573E+03 0.  0.
    9000005    1    3    3    0    0 -0.37377452971E+02  0.46924786574E+02  0.56806105551E+02  0.82625318235E+02  0.10000000000E+01 0.  0.
    9000005    1    3    3    0    0  0.37377452971E+02 -0.46924786574E+02  0.11667993367E+03  0.13120295921E+03  0.10000000000E+01 0.  0.
<mgrwt>
<rscale>  0 0.12500051E+03</rscale>
<asrwt>0</asrwt>
<pdfrwt beam="1">  1        4 0.29793410E-01 0.12500051E+03</pdfrwt>
<pdfrwt beam="2">  1       -4 0.31032490E-02 0.12500051E+03</pdfrwt>
<totfact> 0.87853471E+03</totfact>
</mgrwt>
</event>
<event>
 5    1  0.3251953E-002  0.1250057E+03  0.7818608E-02  0.1235060E+00
          4   -1    0    0  501    0  0.00000000000E+00  0.00000000000E+00  0.16793769950E+02  0.16841722274E+02  0.12700000000E+01 0. -1.
         -4   -1    0    0    0  501 -0.00000000000E+00 -0.00000000000E+00 -0.23224117732E+03  0.23224464977E+03  0.12700000000E+01 0. -1.
         25    2    1    2    0    0  0.00000000000E+00  0.00000000000E+00 -0.21544740737E+03  0.24908637204E+03  0.12500574144E+03 0.  0.
    9000005    1    3    3    0    0 -0.20209136314E+02  0.59695261027E+00  0.10106897288E+02  0.22625536807E+02  0.10000000000E+01 0.  0.
    9000005    1    3    3    0    0  0.20209136314E+02 -0.59695261027E+00 -0.22555430466E+03  0.22646083523E+03  0.10000000000E+01 0.  0.
<mgrwt>
<rscale>  0 0.12500574E+03</rscale>
<asrwt>0</asrwt>
<pdfrwt beam="1">  1        4 0.25876128E-02 0.12500574E+03</pdfrwt>
<pdfrwt beam="2">  1       -4 0.35733365E-01 0.12500574E+03</pdfrwt>
<totfact> 0.82451909E+03</totfact>
</mgrwt>
</event>
<event>
 5    1  0.3251953E-002  0.1250012E+03  0.7818608E-02  0.1235067E+00
          4   -1    0    0  501    0  0.00000000000E+00  0.00000000000E+00  0.19404067069E+03  0.19404482673E+03  0.12700000000E+01 0. -1.
         -4   -1    0    0    0  501 -0.00000000000E+00 -0.00000000000E+00 -0.20107080006E+02  0.20147147847E+02  0.12700000000E+01 0. -1.
         25    2    1    2    0    0  0.00000000000E+00  0.00000000000E+00  0.17393359068E+03  0.21419197458E+03  0.12500123202E+03 0.  0.
    9000005    1    3    3    0    0  0.34965671844E+02 -0.59846019944E+01  0.17512419304E+03  0.17868378957E+03  0.10000000000E+01 0.  0.
    9000005    1    3    3    0    0 -0.34965671844E+02  0.59846019944E+01 -0.11906023559E+01  0.35508185007E+02  0.10000000000E+01 0.  0.
<mgrwt>
<rscale>  0 0.12500123E+03</rscale>
<asrwt>0</asrwt>
<pdfrwt beam="1">  1        4 0.29855812E-01 0.12500123E+03</pdfrwt>
<pdfrwt beam="2">  1       -4 0.30967989E-02 0.12500123E+03</pdfrwt>
<totfact> 0.87793403E+03</totfact>
</mgrwt>
</event>
<event>
 5    1  0.3251953E-002  0.1249917E+03  0.7818608E-02  0.1235082E+00
         -4   -1    0    0    0  501 -0.00000000000E+00  0.00000000000E+00  0.64028395721E+02  0.64040989675E+02  0.12700000000E+01 0. -1.
          4   -1    0    0  501    0  0.00000000000E+00 -0.00000000000E+00 -0.60974749677E+02  0.60987974209E+02  0.12700000000E+01 0. -1.
         25    2    1    2    0    0  0.00000000000E+00  0.00000000000E+00  0.30536460440E+01  0.12502896388E+03  0.12499166795E+03 0.  0.
    9000005    1    3    3    0    0  0.28203809560E+02 -0.49480890150E+02  0.27242778711E+02  0.63142555821E+02  0.10000000000E+01 0.  0.
    9000005    1    3    3    0    0 -0.28203809560E+02  0.49480890150E+02 -0.24189132667E+02  0.61886408063E+02  0.10000000000E+01 0.  0.
<mgrwt>
<rscale>  0 0.12499167E+03</rscale>
<asrwt>0</asrwt>
<pdfrwt beam="2">  1        4 0.93827168E-02 0.12499167E+03</pdfrwt>
<pdfrwt beam="1">  1       -4 0.98525084E-02 0.12499167E+03</pdfrwt>
<totfact> 0.10454202E+04</totfact>
</mgrwt>
</event>
<event>
 5    1  0.3251953E-002  0.1250006E+03  0.7818608E-02  0.1235068E+00
          4   -1    0    0  501    0  0.00000000000E+00  0.00000000000E+00  0.13178912747E+03  0.13179524657E+03  0.12700000000E+01 0.  1.
         -4   -1    0    0    0  501 -0.00000000000E+00 -0.00000000000E+00 -0.29620008308E+02  0.29647222335E+02  0.12700000000E+01 0.  1.
         25    2    1    2    0    0  0.00000000000E+00  0.00000000000E+00  0.10216911916E+03  0.16144246891E+03  0.12500056743E+03 0.  0.
    9000005    1    3    3    0    0 -0.47324225951E+01 -0.29111021408E+02 -0.20072254428E+02  0.35689533323E+02  0.10000000000E+01 0.  0.
    9000005    1    3    3    0    0  0.47324225951E+01  0.29111021408E+02  0.12224137359E+03  0.12575293558E+03  0.10000000000E+01 0.  0.
<mgrwt>
<rscale>  0 0.12500057E+03</rscale>
<asrwt>0</asrwt>
<pdfrwt beam="1">  1        4 0.20277814E-01 0.12500057E+03</pdfrwt>
<pdfrwt beam="2">  1       -4 0.45594885E-02 0.12500057E+03</pdfrwt>
<totfact> 0.97064170E+03</totfact>
</mgrwt>
</event>
<event>
 5    1  0.3251953E-002  0.1250045E+03  0.7818608E-02  0.1235062E+00
          4   -1    0    0  501    0  0.00000000000E+00  0.00000000000E+00  0.78909459571E+02  0.78919678850E+02  0.12700000000E+01 0.  1.
         -4   -1    0    0    0  501 -0.00000000000E+00 -0.00000000000E+00 -0.49484925408E+02  0.49501219608E+02  0.12700000000E+01 0.  1.
         25    2    1    2    0    0  0.00000000000E+00  0.00000000000E+00  0.29424534162E+02  0.12842089846E+03  0.12500449572E+03 0.  0.
    9000005    1    3    3    0    0  0.37254813907E+02 -0.11674740263E+02 -0.35420083012E+02  0.52723837114E+02  0.10000000000E+01 0.  0.
    9000005    1    3    3    0    0 -0.37254813907E+02  0.11674740263E+02  0.64844617175E+02  0.75697061343E+02  0.10000000000E+01 0.  0.
<mgrwt>
<rscale>  0 0.12500450E+03</rscale>
<asrwt>0</asrwt>
<pdfrwt beam="1">  1        4 0.12141956E-01 0.12500450E+03</pdfrwt>
<pdfrwt beam="2">  1       -4 0.76151050E-02 0.12500450E+03</pdfrwt>
<totfact> 0.10377355E+04</totfact>
</mgrwt>
</event>
<event>
 5    1  0.3251953E-002  0.1250007E+03  0.7818608E-02  0.1235068E+00
          4   -1    0    0  501    0  0.00000000000E+00  0.00000000000E+00  0.10602379774E+02  0.10678171981E+02  0.12700000000E+01 0.  1.
         -4   -1    0    0    0  501 -0.00000000000E+00 -0.00000000000E+00 -0.36704650335E+03  0.36704870047E+03  0.12700000000E+01 0.  1.
         25    2    1    2    0    0  0.00000000000E+00  0.00000000000E+00 -0.35644412357E+03  0.37772687245E+03  0.12500070778E+03 0.  0.
    9000005    1    3    3    0    0  0.30030297104E+01 -0.31669177226E+02 -0.15680252040E+02  0.35479927814E+02  0.10000000000E+01 0.  0.
    9000005    1    3    3    0    0 -0.30030297104E+01  0.31669177226E+02 -0.34076387153E+03  0.34224694464E+03  0.10000000000E+01 0.  0.
<mgrwt>
<rscale>  0 0.12500071E+03</rscale>
<asrwt>0</asrwt>
<pdfrwt beam="1">  1        4 0.16371348E-02 0.12500071E+03</pdfrwt>
<pdfrwt beam="2">  1       -4 0.56474682E-01 0.12500071E+03</pdfrwt>
<totfact> 0.66777195E+03</totfact>
</mgrwt>
</event>
<event>
 5    1  0.3251953E-002  0.1250017E+03  0.7818608E-02  0.1235067E+00
         -4   -1    0    0    0  501 -0.00000000000E+00  0.00000000000E+00  0.22027956681E+02  0.22064536604E+02  0.12700000000E+01 0.  1.
          4   -1    0    0  501    0  0.00000000000E+00 -0.00000000000E+00 -0.17715045668E+03  0.17715500896E+03  0.12700000000E+01 0.  1.
         25    2    1    2    0    0  0.00000000000E+00  0.00000000000E+00 -0.15512250000E+03  0.19921954557E+03  0.12500174931E+03 0.  0.
    9000005    1    3    3    0    0  0.50969277959E+02 -0.34706105224E+02 -0.61388319959E+02  0.87016704505E+02  0.10000000000E+01 0.  0.
    9000005    1    3    3    0    0 -0.50969277959E+02  0.34706105224E+02 -0.93734180037E+02  0.11220284106E+03  0.10000000000E+01 0.  0.
<mgrwt>
<rscale>  0 0.12500175E+03</rscale>
<asrwt>0</asrwt>
<pdfrwt beam="2">  1        4 0.27257079E-01 0.12500175E+03</pdfrwt>
<pdfrwt beam="1">  1       -4 0.33920806E-02 0.12500175E+03</pdfrwt>
<totfact> 0.90263770E+03</totfact>
</mgrwt>
</event>
<event>
 5    1  0.3251953E-002  0.1249994E+03  0.7818608E-02  0.1235070E+00
          4   -1    0    0  501    0  0.00000000000E+00  0.00000000000E+00  0.15179056502E+03  0.15179587784E+03  0.12700000000E+01 0.  1.
         -4   -1    0    0    0  501 -0.00000000000E+00 -0.00000000000E+00 -0.25712797976E+02  0.25744142630E+02  0.12700000000E+01 0.  1.
         25    2    1    2    0    0  0.00000000000E+00  0.00000000000E+00  0.12607776704E+03  0.17754002047E+03  0.12499942210E+03 0.  0.
    9000005    1    3    3    0    0  0.58303742210E+02 -0.11201365874E+02  0.90741333392E+02  0.10844254948E+03  0.10000000000E+01 0.  0.
    9000005    1    3    3    0    0 -0.58303742210E+02  0.11201365874E+02  0.35336433653E+02  0.69097470984E+02  0.10000000000E+01 0.  0.
<mgrwt>
<rscale>  0 0.12499942E+03</rscale>
<asrwt>0</asrwt>
<pdfrwt beam="1">  1        4 0.23355214E-01 0.12499942E+03</pdfrwt>
<pdfrwt beam="2">  1       -4 0.39586349E-02 0.12499942E+03</pdfrwt>
<totfact> 0.94062910E+03</totfact>
</mgrwt>
</event>
<event>
 5    1  0.3251953E-002  0.1249758E+03  0.7818608E-02  0.1235107E+00
         -4   -1    0    0    0  501 -0.00000000000E+00  0.00000000000E+00  0.18851232238E+02  0.18893963504E+02  0.12700000000E+01 0.  1.
          4   -1    0    0  501    0  0.00000000000E+00 -0.00000000000E+00 -0.20685509813E+03  0.20685899671E+03  0.12700000000E+01 0.  1.
         25    2    1    2    0    0  0.00000000000E+00  0.00000000000E+00 -0.18800386589E+03  0.22575296022E+03  0.12497577949E+03 0.  0.
    9000005    1    3    3    0    0 -0.11483737995E+02  0.44265737570E+02 -0.17090349792E+03  0.17691901356E+03  0.10000000000E+01 0.  0.
    9000005    1    3    3    0    0  0.11483737995E+02 -0.44265737570E+02 -0.17100367974E+02  0.48833946654E+02  0.10000000000E+01 0.  0.
<mgrwt>
<rscale>  0 0.12497578E+03</rscale>
<asrwt>0</asrwt>
<pdfrwt beam="2">  1        4 0.31827447E-01 0.12497578E+03</pdfrwt>
<pdfrwt beam="1">  1       -4 0.29037766E-02 0.12497578E+03</pdfrwt>
<totfact> 0.86012519E+03</totfact>
</mgrwt>
</event>
<event>
 5    1  0.3251953E-002  0.1249587E+03  0.7818608E-02  0.1235134E+00
         -4   -1    0    0    0  501 -0.00000000000E+00  0.00000000000E+00  0.24268423620E+03  0.24268755922E+03  0.12700000000E+01 0.  1.
          4   -1    0    0  501    0  0.00000000000E+00 -0.00000000000E+00 -0.16056867068E+02  0.16107013380E+02  0.12700000000E+01 0.  1.
         25    2    1    2    0    0  0.00000000000E+00  0.00000000000E+00  0.22662736913E+03  0.25879457260E+03  0.12495865863E+03 0.  0.
    9000005    1    3    3    0    0 -0.42437372507E+02 -0.43044528464E+02  0.14598790615E+03  0.15801022358E+03  0.10000000000E+01 0.  0.
    9000005    1    3    3    0    0  0.42437372507E+02  0.43044528464E+02  0.80639462986E+02  0.10078434902E+03  0.10000000000E+01 0.  0.
<mgrwt>
<rscale>  0 0.12495866E+03</rscale>
<asrwt>0</asrwt>
<pdfrwt beam="2">  1        4 0.24744004E-02 0.12495866E+03</pdfrwt>
<pdfrwt beam="1">  1       -4 0.37340148E-01 0.12495866E+03</pdfrwt>
<totfact> 0.81150186E+03</totfact>
</mgrwt>
</event>
<event>
 5    1  0.3251953E-002  0.1249984E+03  0.7818608E-02  0.1235072E+00
         -4   -1    0    0    0  501 -0.00000000000E+00  0.00000000000E+00  0.23234933850E+02  0.23269616478E+02  0.12700000000E+01 0. -1.
          4   -1    0    0  501    0  0.00000000000E+00 -0.00000000000E+00 -0.16795296733E+03  0.16795776890E+03  0.12700000000E+01 0. -1.
         25    2    1    2    0    0  0.00000000000E+00  0.00000000000E+00 -0.14471803348E+03  0.19122738538E+03  0.12499841481E+03 0.  0.
    9000005    1    3    3    0    0 -0.37496902943E+02  0.48215524865E+02 -0.52156090090E+02  0.80324419088E+02  0.10000000000E+01 0.  0.
    9000005    1    3    3    0    0  0.37496902943E+02 -0.48215524865E+02 -0.92561943385E+02  0.11090296629E+03  0.10000000000E+01 0.  0.
<mgrwt>
<rscale>  0 0.12499841E+03</rscale>
<asrwt>0</asrwt>
<pdfrwt beam="2">  1        4 0.25841955E-01 0.12499841E+03</pdfrwt>
<pdfrwt beam="1">  1       -4 0.35776426E-02 0.12499841E+03</pdfrwt>
<totfact> 0.91637445E+03</totfact>
</mgrwt>
</event>
<event>
 5    1  0.3251953E-002  0.1250016E+03  0.7818608E-02  0.1235067E+00
         -4   -1    0    0    0  501 -0.00000000000E+00  0.00000000000E+00  0.85681379071E+02  0.85690790751E+02  0.12700000000E+01 0.  1.
          4   -1    0    0  501    0  0.00000000000E+00 -0.00000000000E+00 -0.45570835012E+02  0.45588528203E+02  0.12700000000E+01 0.  1.
         25    2    1    2    0    0  0.00000000000E+00  0.00000000000E+00  0.40110544058E+02  0.13127931895E+03  0.12500161535E+03 0.  0.
    9000005    1    3    3    0    0 -0.20633515357E+02  0.37445618966E+02 -0.27812627697E+02  0.51014297948E+02  0.10000000000E+01 0.  0.
    9000005    1    3    3    0    0  0.20633515357E+02 -0.37445618966E+02  0.67923171755E+02  0.80265021006E+02  0.10000000000E+01 0.  0.
<mgrwt>
<rscale>  0 0.12500162E+03</rscale>
<asrwt>0</asrwt>
<pdfrwt beam="2">  1        4 0.70129828E-02 0.12500162E+03</pdfrwt>
<pdfrwt beam="1">  1       -4 0.13183835E-01 0.12500162E+03</pdfrwt>
<totfact> 0.10316729E+04</totfact>
</mgrwt>
</event>
<event>
 5    1  0.3251953E-002  0.1249991E+03  0.7818608E-02  0.1235071E+00
         -4   -1    0    0    0  501 -0.00000000000E+00  0.00000000000E+00  0.11557286761E+03  0.11557984524E+03  0.12700000000E+01 0. -1.
          4   -1    0    0  501    0  0.00000000000E+00 -0.00000000000E+00 -0.33778606211E+02  0.33802472359E+02  0.12700000000E+01 0. -1.
         25    2    1    2    0    0  0.00000000000E+00  0.00000000000E+00  0.81794261394E+02  0.14938231760E+03  0.12499910246E+03 0.  0.
    9000005    1    3    3    0    0 -0.42831579090E+02 -0.31751696033E+02  0.19430835702E+01  0.53361877236E+02  0.10000000000E+01 0.  0.
    9000005    1    3    3    0    0  0.42831579090E+02  0.31751696033E+02  0.79851177824E+02  0.96020440367E+02  0.10000000000E+01 0.  0.
<mgrwt>
<rscale>  0 0.12499910E+03</rscale>
<asrwt>0</asrwt>
<pdfrwt beam="2">  1        4 0.51990813E-02 0.12499910E+03</pdfrwt>
<pdfrwt beam="1">  1       -4 0.17782814E-01 0.12499910E+03</pdfrwt>
<totfact> 0.99428975E+03</totfact>
</mgrwt>
</event>
<event>
 5    1  0.3251953E-002  0.1249986E+03  0.7818608E-02  0.1235071E+00
         -4   -1    0    0    0  501 -0.00000000000E+00  0.00000000000E+00  0.21164049703E+03  0.21164430747E+03  0.12700000000E+01 0.  1.
          4   -1    0    0  501    0  0.00000000000E+00 -0.00000000000E+00 -0.18430760255E+02  0.18474464095E+02  0.12700000000E+01 0.  1.
         25    2    1    2    0    0  0.00000000000E+00  0.00000000000E+00  0.19320973678E+03  0.23011877157E+03  0.12499858656E+03 0.  0.
    9000005    1    3    3    0    0 -0.30270270674E+02 -0.64150074991E+01 -0.33468034451E+01  0.31139086390E+02  0.10000000000E+01 0.  0.
    9000005    1    3    3    0    0  0.30270270674E+02  0.64150074991E+01  0.19655654022E+03  0.19897968518E+03  0.10000000000E+01 0.  0.
<mgrwt>
<rscale>  0 0.12499859E+03</rscale>
<asrwt>0</asrwt>
<pdfrwt beam="2">  1        4 0.28391567E-02 0.12499859E+03</pdfrwt>
<pdfrwt beam="1">  1       -4 0.32563730E-01 0.12499859E+03</pdfrwt>
<totfact> 0.85294053E+03</totfact>
</mgrwt>
</event>
<event>
 5    1  0.3251953E-002  0.1249958E+03  0.7818608E-02  0.1235076E+00
          4   -1    0    0  501    0  0.00000000000E+00  0.00000000000E+00  0.36665453544E+03  0.36665673492E+03  0.12700000000E+01 0. -1.
         -4   -1    0    0    0  501 -0.00000000000E+00 -0.00000000000E+00 -0.10612963208E+02  0.10688680370E+02  0.12700000000E+01 0. -1.
         25    2    1    2    0    0  0.00000000000E+00  0.00000000000E+00  0.35604157223E+03  0.37734541529E+03  0.12499584505E+03 0.  0.
    9000005    1    3    3    0    0  0.39674238465E+02  0.43196508863E+02  0.11292196460E+03  0.12724917943E+03  0.10000000000E+01 0.  0.
    9000005    1    3    3    0    0 -0.39674238465E+02 -0.43196508863E+02  0.24311960763E+03  0.25009623586E+03  0.10000000000E+01 0.  0.
<mgrwt>
<rscale>  0 0.12499585E+03</rscale>
<asrwt>0</asrwt>
<pdfrwt beam="1">  1        4 0.56414393E-01 0.12499585E+03</pdfrwt>
<pdfrwt beam="2">  1       -4 0.16387569E-02 0.12499585E+03</pdfrwt>
<totfact> 0.66823535E+03</totfact>
</mgrwt>
</event>
<event>
 5    1  0.3251953E-002  0.1250039E+03  0.7818608E-02  0.1235063E+00
          4   -1    0    0  501    0  0.00000000000E+00  0.00000000000E+00  0.16040789249E+01  0.20459641242E+01  0.12700000000E+01 0.  1.
         -4   -1    0    0    0  501 -0.00000000000E+00 -0.00000000000E+00 -0.21400769948E+04  0.21400773716E+04  0.12700000000E+01 0.  1.
         25    2    1    2    0    0  0.00000000000E+00  0.00000000000E+00 -0.21384729158E+04  0.21421233357E+04  0.12500389458E+03 0.  0.
    9000005    1    3    3    0    0  0.35134484845E+02 -0.42566561383E+02 -0.15715272698E+04  0.15724965195E+04  0.10000000000E+01 0.  0.
    9000005    1    3    3    0    0 -0.35134484845E+02  0.42566561383E+02 -0.56694564601E+03  0.56962681618E+03  0.10000000000E+01 0.  0.
<mgrwt>
<rscale>  0 0.12500389E+03</rscale>
<asrwt>0</asrwt>
<pdfrwt beam="1">  1        4 0.28080324E-03 0.12500389E+03</pdfrwt>
<pdfrwt beam="2">  1       -4 0.32927463E+00 0.12500389E+03</pdfrwt>
<totfact> 0.81178358E+02</totfact>
</mgrwt>
</event>
<event>
 4    1  0.3251953E-002  0.1251009E+03  0.7818608E-02  0.1234912E+00
          4   -1    0    0  501    0  0.00000000000E+00  0.00000000000E+00  0.66632172707E+01  0.67831677258E+01  0.12700000000E+01 0.  1.
         -4   -1    0    0    0  501 -0.00000000000E+00 -0.00000000000E+00 -0.58182870276E+03  0.58183008882E+03  0.12700000000E+01 0.  1.
    9000005    1    1    2    0    0 -0.35712371743E+02 -0.26262291925E+02 -0.79998584405E+02  0.91465047857E+02  0.10000000000E+01 0.  0.
    9000005    1    1    2    0    0  0.35712371743E+02  0.26262291925E+02 -0.49516690108E+03  0.49714820868E+03  0.10000000000E+01 0.  0.
<mgrwt>
<rscale>  0 0.12510088E+03</rscale>
<asrwt>0</asrwt>
<pdfrwt beam="1">  1        4 0.10344444E-02 0.12510088E+03</pdfrwt>
<pdfrwt beam="2">  1       -4 0.89521402E-01 0.12510088E+03</pdfrwt>
<totfact> 0.49484797E+03</totfact>
</mgrwt>
</event>
<event>
 5    1  0.3251953E-002  0.1249928E+03  0.7818608E-02  0.1235081E+00
          4   -1    0    0  501    0  0.00000000000E+00  0.00000000000E+00  0.52386922098E+01  0.53904356103E+01  0.12700000000E+01 0. -1.
         -4   -1    0    0    0  501 -0.00000000000E+00 -0.00000000000E+00 -0.73477145022E+03  0.73477254777E+03  0.12700000000E+01 0. -1.
         25    2    1    2    0    0  0.00000000000E+00  0.00000000000E+00 -0.72953275801E+03  0.74016298338E+03  0.12499278763E+03 0.  0.
    9000005    1    3    3    0    0 -0.62419966944E+02 -0.13897346044E+01 -0.34953542314E+03  0.35506928291E+03  0.10000000000E+01 0.  0.
    9000005    1    3    3    0    0  0.62419966944E+02  0.13897346044E+01 -0.37999733487E+03  0.38509370047E+03  0.10000000000E+01 0.  0.
<mgrwt>
<rscale>  0 0.12499279E+03</rscale>
<asrwt>0</asrwt>
<pdfrwt beam="1">  1        4 0.81771023E-03 0.12499279E+03</pdfrwt>
<pdfrwt beam="2">  1       -4 0.11305344E+00 0.12499279E+03</pdfrwt>
<totfact> 0.41055617E+03</totfact>
</mgrwt>
</event>
<event>
 5    1  0.3251953E-002  0.1250064E+03  0.7818608E-02  0.1235059E+00
         -4   -1    0    0    0  501 -0.00000000000E+00  0.00000000000E+00  0.23299116268E+02  0.23333703497E+02  0.12700000000E+01 0. -1.
          4   -1    0    0  501    0  0.00000000000E+00 -0.00000000000E+00 -0.16751243126E+03  0.16751724546E+03  0.12700000000E+01 0. -1.
         25    2    1    2    0    0  0.00000000000E+00  0.00000000000E+00 -0.14421331499E+03  0.19085094896E+03  0.12500641782E+03 0.  0.
    9000005    1    3    3    0    0  0.14004856186E+02  0.25904290649E+02 -0.15626368907E+03  0.15901732230E+03  0.10000000000E+01 0.  0.
    9000005    1    3    3    0    0 -0.14004856186E+02 -0.25904290649E+02  0.12050374075E+02  0.31833626657E+02  0.10000000000E+01 0.  0.
<mgrwt>
<rscale>  0 0.12500642E+03</rscale>
<asrwt>0</asrwt>
<pdfrwt beam="2">  1        4 0.25774173E-01 0.12500642E+03</pdfrwt>
<pdfrwt beam="1">  1       -4 0.35875104E-02 0.12500642E+03</pdfrwt>
<totfact> 0.91686283E+03</totfact>
</mgrwt>
</event>
<event>
 5    1  0.3251953E-002  0.1250002E+03  0.7818608E-02  0.1235069E+00
         -4   -1    0    0    0  501 -0.00000000000E+00  0.00000000000E+00  0.79609259555E+01  0.80615905421E+01  0.12700000000E+01 0. -1.
          4   -1    0    0  501    0  0.00000000000E+00 -0.00000000000E+00 -0.48749544793E+03  0.48749710220E+03  0.12700000000E+01 0. -1.
         25    2    1    2    0    0  0.00000000000E+00  0.00000000000E+00 -0.47953452198E+03  0.49555869274E+03  0.12500024074E+03 0.  0.
    9000005    1    3    3    0    0 -0.21628595749E+02  0.42201391829E+02 -0.40112190382E+03  0.40391649552E+03  0.10000000000E+01 0.  0.
    9000005    1    3    3    0    0  0.21628595749E+02 -0.42201391829E+02 -0.78412618159E+02  0.91642197228E+02  0.10000000000E+01 0.  0.
<mgrwt>
<rscale>  0 0.12500024E+03</rscale>
<asrwt>0</asrwt>
<pdfrwt beam="2">  1        4 0.75007147E-01 0.12500024E+03</pdfrwt>
<pdfrwt beam="1">  1       -4 0.12326289E-02 0.12500024E+03</pdfrwt>
<totfact> 0.56210323E+03</totfact>
</mgrwt>
</event>
<event>
 5    1  0.3251953E-002  0.1250015E+03  0.7818608E-02  0.1235067E+00
          4   -1    0    0  501    0  0.00000000000E+00  0.00000000000E+00  0.71056124191E+01  0.72182150044E+01  0.12700000000E+01 0. -1.
         -4   -1    0    0    0  501 -0.00000000000E+00 -0.00000000000E+00 -0.54531984566E+03  0.54532132452E+03  0.12700000000E+01 0. -1.
         25    2    1    2    0    0  0.00000000000E+00  0.00000000000E+00 -0.53821423324E+03  0.55253953952E+03  0.12500152747E+03 0.  0.
    9000005    1    3    3    0    0  0.54725974904E+02  0.86031517783E+00 -0.13578853246E+03  0.14640764331E+03  0.10000000000E+01 0.  0.
    9000005    1    3    3    0    0 -0.54725974904E+02 -0.86031517783E+00 -0.40242570078E+03  0.40613189621E+03  0.10000000000E+01 0.  0.
<mgrwt>
<rscale>  0 0.12500153E+03</rscale>
<asrwt>0</asrwt>
<pdfrwt beam="1">  1        4 0.11019471E-02 0.12500153E+03</pdfrwt>
<pdfrwt beam="2">  1       -4 0.83904103E-01 0.12500153E+03</pdfrwt>
<totfact> 0.52005650E+03</totfact>
</mgrwt>
</event>
<event>
 5    1  0.3251953E-002  0.1250006E+03  0.7818608E-02  0.1235068E+00
         -4   -1    0    0    0  501 -0.00000000000E+00  0.00000000000E+00  0.22291834667E+02  0.22327982283E+02  0.12700000000E+01 0. -1.
          4   -1    0    0  501    0  0.00000000000E+00 -0.00000000000E+00 -0.17505348512E+03  0.17505809194E+03  0.12700000000E+01 0. -1.
         25    2    1    2    0    0  0.00000000000E+00  0.00000000000E+00 -0.15276165045E+03  0.19738607422E+03  0.12500056179E+03 0.  0.
    9000005    1    3    3    0    0  0.13974998976E+02  0.52788571889E+02 -0.28397758432E+02  0.61557831365E+02  0.10000000000E+01 0.  0.
    9000005    1    3    3    0    0 -0.13974998976E+02 -0.52788571889E+02 -0.12436389202E+03  0.13582824286E+03  0.10000000000E+01 0.  0.
<mgrwt>
<rscale>  0 0.12500056E+03</rscale>
<asrwt>0</asrwt>
<pdfrwt beam="2">  1        4 0.26934439E-01 0.12500056E+03</pdfrwt>
<pdfrwt beam="1">  1       -4 0.34326481E-02 0.12500056E+03</pdfrwt>
<totfact> 0.90576668E+03</totfact>
</mgrwt>
</event>
<event>
 5    1  0.3251953E-002  0.1249993E+03  0.7818608E-02  0.1235070E+00
          4   -1    0    0  501    0  0.00000000000E+00  0.00000000000E+00  0.27726243448E+02  0.27755314369E+02  0.12700000000E+01 0.  1.
         -4   -1    0    0    0  501 -0.00000000000E+00 -0.00000000000E+00 -0.14077903733E+03  0.14078476570E+03  0.12700000000E+01 0.  1.
         25    2    1    2    0    0  0.00000000000E+00  0.00000000000E+00 -0.11305279389E+03  0.16854008007E+03  0.12499929753E+03 0.  0.
    9000005    1    3    3    0    0 -0.44253406000E+02 -0.19741037254E+02 -0.10973214600E+03  0.11995922791E+03  0.10000000000E+01 0.  0.
    9000005    1    3    3    0    0  0.44253406000E+02  0.19741037254E+02 -0.33206478896E+01  0.48580852162E+02  0.10000000000E+01 0.  0.
<mgrwt>
<rscale>  0 0.12499930E+03</rscale>
<asrwt>0</asrwt>
<pdfrwt beam="1">  1        4 0.42682529E-02 0.12499930E+03</pdfrwt>
<pdfrwt beam="2">  1       -4 0.21660990E-01 0.12499930E+03</pdfrwt>
<totfact> 0.95722636E+03</totfact>
</mgrwt>
</event>
<event>
 5    1  0.3251953E-002  0.1249921E+03  0.7818608E-02  0.1235082E+00
         -4   -1    0    0    0  501 -0.00000000000E+00  0.00000000000E+00  0.12151032721E+03  0.12151696392E+03  0.12700000000E+01 0.  1.
          4   -1    0    0  501    0  0.00000000000E+00 -0.00000000000E+00 -0.32123370209E+02  0.32148465183E+02  0.12700000000E+01 0.  1.
         25    2    1    2    0    0  0.00000000000E+00  0.00000000000E+00  0.89386957003E+02  0.15366542910E+03  0.12499214382E+03 0.  0.
    9000005    1    3    3    0    0  0.34015698036E+01  0.36502192938E+02 -0.17519277556E+02  0.40643644676E+02  0.10000000000E+01 0.  0.
    9000005    1    3    3    0    0 -0.34015698036E+01 -0.36502192938E+02  0.10690623456E+03  0.11302178442E+03  0.10000000000E+01 0.  0.
<mgrwt>
<rscale>  0 0.12499214E+03</rscale>
<asrwt>0</asrwt>
<pdfrwt beam="2">  1        4 0.49444979E-02 0.12499214E+03</pdfrwt>
<pdfrwt beam="1">  1       -4 0.18696337E-01 0.12499214E+03</pdfrwt>
<totfact> 0.98595428E+03</totfact>
</mgrwt>
</event>
<event>
 5    1  0.3251953E-002  0.1249945E+03  0.7818608E-02  0.1235078E+00
          4   -1    0    0  501    0  0.00000000000E+00  0.00000000000E+00  0.18514205434E+03  0.18514641013E+03  0.12700000000E+01 0.  1.
         -4   -1    0    0    0  501 -0.00000000000E+00 -0.00000000000E+00 -0.21073073843E+02  0.21111308372E+02  0.12700000000E+01 0.  1.
         25    2    1    2    0    0  0.00000000000E+00  0.00000000000E+00  0.16406898049E+03  0.20625771850E+03  0.12499446420E+03 0.  0.
    9000005    1    3    3    0    0  0.50128681346E+02 -0.21129919451E+02  0.31293291594E+02  0.62766458306E+02  0.10000000000E+01 0.  0.
    9000005    1    3    3    0    0 -0.50128681346E+02  0.21129919451E+02  0.13277568890E+03  0.14349126019E+03  0.10000000000E+01 0.  0.
<mgrwt>
<rscale>  0 0.12499446E+03</rscale>
<asrwt>0</asrwt>
<pdfrwt beam="1">  1        4 0.28486669E-01 0.12499446E+03</pdfrwt>
<pdfrwt beam="2">  1       -4 0.32452875E-02 0.12499446E+03</pdfrwt>
<totfact> 0.89101745E+03</totfact>
</mgrwt>
</event>
<event>
 5    1  0.3251953E-002  0.1249932E+03  0.7818608E-02  0.1235080E+00
          4   -1    0    0  501    0  0.00000000000E+00  0.00000000000E+00  0.13003572391E+03  0.13004192552E+03  0.12700000000E+01 0.  1.
         -4   -1    0    0    0  501 -0.00000000000E+00 -0.00000000000E+00 -0.30016218013E+02  0.30043073142E+02  0.12700000000E+01 0.  1.
         25    2    1    2    0    0  0.00000000000E+00  0.00000000000E+00  0.10001950589E+03  0.16008499866E+03  0.12499322076E+03 0.  0.
    9000005    1    3    3    0    0  0.74618826282E+01 -0.43790974317E+01 -0.29251671107E+02  0.30520754401E+02  0.10000000000E+01 0.  0.
    9000005    1    3    3    0    0 -0.74618826282E+01  0.43790974317E+01  0.12927117700E+03  0.12956424426E+03  0.10000000000E+01 0.  0.
<mgrwt>
<rscale>  0 0.12499322E+03</rscale>
<asrwt>0</asrwt>
<pdfrwt beam="1">  1        4 0.20008038E-01 0.12499322E+03</pdfrwt>
<pdfrwt beam="2">  1       -4 0.46204226E-02 0.12499322E+03</pdfrwt>
<totfact> 0.97341232E+03</totfact>
</mgrwt>
</event>
<event>
 5    1  0.3251953E-002  0.1249996E+03  0.7818608E-02  0.1235070E+00
          4   -1    0    0  501    0  0.00000000000E+00  0.00000000000E+00  0.96098420373E+02  0.96106811924E+02  0.12700000000E+01 0. -1.
         -4   -1    0    0    0  501 -0.00000000000E+00 -0.00000000000E+00 -0.40628093257E+02  0.40647937976E+02  0.12700000000E+01 0. -1.
         25    2    1    2    0    0  0.00000000000E+00  0.00000000000E+00  0.55470327116E+02  0.13675474990E+03  0.12499961772E+03 0.  0.
    9000005    1    3    3    0    0 -0.40228518030E+02  0.33928947544E+02  0.64604827014E+02  0.83332411569E+02  0.10000000000E+01 0.  0.
    9000005    1    3    3    0    0  0.40228518030E+02 -0.33928947544E+02 -0.91344998985E+01  0.53422338331E+02  0.10000000000E+01 0.  0.
<mgrwt>
<rscale>  0 0.12499962E+03</rscale>
<asrwt>0</asrwt>
<pdfrwt beam="1">  1        4 0.14786544E-01 0.12499962E+03</pdfrwt>
<pdfrwt beam="2">  1       -4 0.62526479E-02 0.12499962E+03</pdfrwt>
<totfact> 0.10201304E+04</totfact>
</mgrwt>
</event>
<event>
 5    1  0.3251953E-002  0.1249984E+03  0.7818608E-02  0.1235072E+00
         -4   -1    0    0    0  501 -0.00000000000E+00  0.00000000000E+00  0.35021819733E+03  0.35022050003E+03  0.12700000000E+01 0.  1.
          4   -1    0    0  501    0  0.00000000000E+00 -0.00000000000E+00 -0.11114968061E+02  0.11187288099E+02  0.12700000000E+01 0.  1.
         25    2    1    2    0    0  0.00000000000E+00  0.00000000000E+00  0.33910322926E+03  0.36140778812E+03  0.12499835687E+03 0.  0.
    9000005    1    3    3    0    0 -0.25700698000E+02 -0.45686017767E+02  0.71187504022E+02  0.88410399988E+02  0.10000000000E+01 0.  0.
    9000005    1    3    3    0    0  0.25700698000E+02  0.45686017767E+02  0.26791572524E+03  0.27299738814E+03  0.10000000000E+01 0.  0.
<mgrwt>
<rscale>  0 0.12499836E+03</rscale>
<asrwt>0</asrwt>
<pdfrwt beam="2">  1        4 0.17157355E-02 0.12499836E+03</pdfrwt>
<pdfrwt beam="1">  1       -4 0.53885457E-01 0.12499836E+03</pdfrwt>
<totfact> 0.68490018E+03</totfact>
</mgrwt>
</event>
<event>
 5    1  0.3251953E-002  0.1250025E+03  0.7818608E-02  0.1235065E+00
          4   -1    0    0  501    0  0.00000000000E+00  0.00000000000E+00  0.71856721877E+01  0.72970394537E+01  0.12700000000E+01 0. -1.
         -4   -1    0    0    0  501 -0.00000000000E+00 -0.00000000000E+00 -0.53934585746E+03  0.53934735270E+03  0.12700000000E+01 0. -1.
         25    2    1    2    0    0  0.00000000000E+00  0.00000000000E+00 -0.53216018528E+03  0.54664439215E+03  0.12500251469E+03 0.  0.
    9000005    1    3    3    0    0 -0.12511467366E+02  0.57971138212E+02 -0.35224366471E+03  0.35720272817E+03  0.10000000000E+01 0.  0.
    9000005    1    3    3    0    0  0.12511467366E+02 -0.57971138212E+02 -0.17991652057E+03  0.18944166399E+03  0.10000000000E+01 0.  0.
<mgrwt>
<rscale>  0 0.12500251E+03</rscale>
<asrwt>0</asrwt>
<pdfrwt beam="1">  1        4 0.11141702E-02 0.12500251E+03</pdfrwt>
<pdfrwt beam="2">  1       -4 0.82984936E-01 0.12500251E+03</pdfrwt>
<totfact> 0.52415773E+03</totfact>
</mgrwt>
</event>
<event>
 5    1  0.3251953E-002  0.1250008E+03  0.7818608E-02  0.1235068E+00
         -4   -1    0    0    0  501 -0.00000000000E+00  0.00000000000E+00  0.21228991456E+02  0.21266945673E+02  0.12700000000E+01 0.  1.
          4   -1    0    0  501    0  0.00000000000E+00 -0.00000000000E+00 -0.18380343505E+03  0.18380782256E+03  0.12700000000E+01 0.  1.
         25    2    1    2    0    0  0.00000000000E+00  0.00000000000E+00 -0.16257444359E+03  0.20507476823E+03  0.12500084343E+03 0.  0.
    9000005    1    3    3    0    0  0.19090986195E+02  0.55711241168E+02 -0.46987784854E+02  0.75346267803E+02  0.10000000000E+01 0.  0.
    9000005    1    3    3    0    0 -0.19090986195E+02 -0.55711241168E+02 -0.11558665874E+03  0.12972850043E+03  0.10000000000E+01 0.  0.
<mgrwt>
<rscale>  0 0.12500084E+03</rscale>
<asrwt>0</asrwt>
<pdfrwt beam="2">  1        4 0.28280708E-01 0.12500084E+03</pdfrwt>
<pdfrwt beam="1">  1       -4 0.32692559E-02 0.12500084E+03</pdfrwt>
<totfact> 0.89284922E+03</totfact>
</mgrwt>
</event>
<event>
 5    1  0.3251953E-002  0.1249981E+03  0.7818608E-02  0.1235072E+00
         -4   -1    0    0    0  501 -0.00000000000E+00  0.00000000000E+00  0.62611638470E+02  0.62624517338E+02  0.12700000000E+01 0.  1.
          4   -1    0    0  501    0  0.00000000000E+00 -0.00000000000E+00 -0.62360868925E+02  0.62373799572E+02  0.12700000000E+01 0.  1.
         25    2    1    2    0    0  0.00000000000E+00  0.00000000000E+00  0.25076954495E+00  0.12499831691E+03  0.12499806537E+03 0.  0.
    9000005    1    3    3    0    0  0.56023434577E+02 -0.26728989026E+02  0.73410080784E+01  0.62513634319E+02  0.10000000000E+01 0.  0.
    9000005    1    3    3    0    0 -0.56023434577E+02  0.26728989026E+02 -0.70902385335E+01  0.62484682592E+02  0.10000000000E+01 0.  0.
<mgrwt>
<rscale>  0 0.12499807E+03</rscale>
<asrwt>0</asrwt>
<pdfrwt beam="2">  1        4 0.95959653E-02 0.12499807E+03</pdfrwt>
<pdfrwt beam="1">  1       -4 0.96345450E-02 0.12499807E+03</pdfrwt>
<totfact> 0.10453356E+04</totfact>
</mgrwt>
</event>
<event>
 5    1  0.3251953E-002  0.1249990E+03  0.7818608E-02  0.1235071E+00
         -4   -1    0    0    0  501 -0.00000000000E+00  0.00000000000E+00  0.17809670929E+03  0.17810123739E+03  0.12700000000E+01 0. -1.
          4   -1    0    0  501    0  0.00000000000E+00 -0.00000000000E+00 -0.21909766326E+02  0.21946543247E+02  0.12700000000E+01 0. -1.
         25    2    1    2    0    0  0.00000000000E+00  0.00000000000E+00  0.15618694296E+03  0.20004778063E+03  0.12499901354E+03 0.  0.
    9000005    1    3    3    0    0  0.56651991850E+02 -0.22243332373E+02  0.55405407024E+02  0.82310225022E+02  0.10000000000E+01 0.  0.
    9000005    1    3    3    0    0 -0.56651991850E+02  0.22243332373E+02  0.10078153594E+03  0.11773755561E+03  0.10000000000E+01 0.  0.
<mgrwt>
<rscale>  0 0.12499901E+03</rscale>
<asrwt>0</asrwt>
<pdfrwt beam="2">  1        4 0.33739105E-02 0.12499901E+03</pdfrwt>
<pdfrwt beam="1">  1       -4 0.27402672E-01 0.12499901E+03</pdfrwt>
<totfact> 0.90129436E+03</totfact>
</mgrwt>
</event>
<event>
 5    1  0.3251953E-002  0.1249990E+03  0.7818608E-02  0.1235071E+00
         -4   -1    0    0    0  501 -0.00000000000E+00  0.00000000000E+00  0.51032665615E+02  0.51048465793E+02  0.12700000000E+01 0.  1.
          4   -1    0    0  501    0  0.00000000000E+00 -0.00000000000E+00 -0.76509996165E+02  0.76520535892E+02  0.12700000000E+01 0.  1.
         25    2    1    2    0    0  0.00000000000E+00  0.00000000000E+00 -0.25477330550E+02  0.12756900169E+03  0.12499902327E+03 0.  0.
    9000005    1    3    3    0    0 -0.20163032317E+02  0.39574281638E+02 -0.57602896922E+02  0.72744521258E+02  0.10000000000E+01 0.  0.
    9000005    1    3    3    0    0  0.20163032317E+02 -0.39574281638E+02  0.32125566372E+02  0.54824480427E+02  0.10000000000E+01 0.  0.
<mgrwt>
<rscale>  0 0.12499902E+03</rscale>
<asrwt>0</asrwt>
<pdfrwt beam="2">  1        4 0.11772795E-01 0.12499902E+03</pdfrwt>
<pdfrwt beam="1">  1       -4 0.78532054E-02 0.12499902E+03</pdfrwt>
<totfact> 0.10397036E+04</totfact>
</mgrwt>
</event>
<event>
 5    1  0.3251953E-002  0.1249990E+03  0.7818608E-02  0.1235071E+00
         -4   -1    0    0    0  501 -0.00000000000E+00  0.00000000000E+00  0.10783046218E+02  0.10857577343E+02  0.12700000000E+01 0. -1.
          4   -1    0    0  501    0  0.00000000000E+00 -0.00000000000E+00 -0.36092965026E+03  0.36093188462E+03  0.12700000000E+01 0. -1.
         25    2    1    2    0    0  0.00000000000E+00  0.00000000000E+00 -0.35014660404E+03  0.37178946196E+03  0.12499903882E+03 0.  0.
    9000005    1    3    3    0    0 -0.15133142278E+02 -0.53520136171E+02 -0.25981705467E+03  0.26570532338E+03  0.10000000000E+01 0.  0.
    9000005    1    3    3    0    0  0.15133142278E+02  0.53520136171E+02 -0.90329549365E+02  0.10608413859E+03  0.10000000000E+01 0.  0.
<mgrwt>
<rscale>  0 0.12499904E+03</rscale>
<asrwt>0</asrwt>
<pdfrwt beam="2">  1        4 0.55533534E-01 0.12499904E+03</pdfrwt>
<pdfrwt beam="1">  1       -4 0.16648355E-02 0.12499904E+03</pdfrwt>
<totfact> 0.67393577E+03</totfact>
</mgrwt>
</event>
<event>
 5    1  0.3251953E-002  0.1250024E+03  0.7818608E-02  0.1235066E+00
          4   -1    0    0  501    0  0.00000000000E+00  0.00000000000E+00  0.17392926515E+02  0.17439231426E+02  0.12700000000E+01 0.  1.
         -4   -1    0    0    0  501 -0.00000000000E+00 -0.00000000000E+00 -0.22425035534E+03  0.22425395152E+03  0.12700000000E+01 0.  1.
         25    2    1    2    0    0  0.00000000000E+00  0.00000000000E+00 -0.20685742883E+03  0.24169318294E+03  0.12500239526E+03 0.  0.
    9000005    1    3    3    0    0 -0.82662785479E+01  0.35107256816E+02 -0.20210489269E+03  0.20530036165E+03  0.10000000000E+01 0.  0.
    9000005    1    3    3    0    0  0.82662785479E+01 -0.35107256816E+02 -0.47525361348E+01  0.36392821296E+02  0.10000000000E+01 0.  0.
<mgrwt>
<rscale>  0 0.12500240E+03</rscale>
<asrwt>0</asrwt>
<pdfrwt beam="1">  1        4 0.26796736E-02 0.12500240E+03</pdfrwt>
<pdfrwt beam="2">  1       -4 0.34503891E-01 0.12500240E+03</pdfrwt>
<totfact> 0.83541383E+03</totfact>
</mgrwt>
</event>
<event>
 5    1  0.3251953E-002  0.1250009E+03  0.7818608E-02  0.1235068E+00
          4   -1    0    0  501    0  0.00000000000E+00  0.00000000000E+00  0.49582505092E+02  0.49598767234E+02  0.12700000000E+01 0. -1.
         -4   -1    0    0    0  501 -0.00000000000E+00 -0.00000000000E+00 -0.78749709035E+02  0.78759949042E+02  0.12700000000E+01 0. -1.
         25    2    1    2    0    0  0.00000000000E+00  0.00000000000E+00 -0.29167203943E+02  0.12835871628E+03  0.12500093703E+03 0.  0.
    9000005    1    3    3    0    0 -0.47275470227E+02  0.30197566205E+02  0.13696064210E+02  0.57753313886E+02  0.10000000000E+01 0.  0.
    9000005    1    3    3    0    0  0.47275470227E+02 -0.30197566205E+02 -0.42863268153E+02  0.70605402390E+02  0.10000000000E+01 0.  0.
<mgrwt>
<rscale>  0 0.12500094E+03</rscale>
<asrwt>0</asrwt>
<pdfrwt beam="1">  1        4 0.76301163E-02 0.12500094E+03</pdfrwt>
<pdfrwt beam="2">  1       -4 0.12117378E-01 0.12500094E+03</pdfrwt>
<totfact> 0.10379528E+04</totfact>
</mgrwt>
</event>
<event>
 5    1  0.3251953E-002  0.1250012E+03  0.7818608E-02  0.1235067E+00
          4   -1    0    0  501    0  0.00000000000E+00  0.00000000000E+00  0.15033311317E+04  0.15033316681E+04  0.12700000000E+01 0.  1.
         -4   -1    0    0    0  501 -0.00000000000E+00 -0.00000000000E+00 -0.24426974042E+01  0.27531201587E+01  0.12700000000E+01 0.  1.
         25    2    1    2    0    0  0.00000000000E+00  0.00000000000E+00  0.15008884343E+04  0.15060847883E+04  0.12500118938E+03 0.  0.
    9000005    1    3    3    0    0  0.54576899040E+02 -0.14733670372E+02  0.42948952573E+03  0.43319507345E+03  0.10000000000E+01 0.  0.
    9000005    1    3    3    0    0 -0.54576899040E+02  0.14733670372E+02  0.10713989085E+04  0.10728897148E+04  0.10000000000E+01 0.  0.
<mgrwt>
<rscale>  0 0.12500119E+03</rscale>
<asrwt>0</asrwt>
<pdfrwt beam="1">  1        4 0.23130599E+00 0.12500119E+03</pdfrwt>
<pdfrwt beam="2">  1       -4 0.39971892E-03 0.12500119E+03</pdfrwt>
<totfact> 0.17810610E+03</totfact>
</mgrwt>
</event>
<event>
 5    1  0.3251953E-002  0.1249977E+03  0.7818608E-02  0.1235073E+00
         -4   -1    0    0    0  501 -0.00000000000E+00  0.00000000000E+00  0.30835876093E+03  0.30836137621E+03  0.12700000000E+01 0. -1.
          4   -1    0    0  501    0  0.00000000000E+00 -0.00000000000E+00 -0.12632907838E+02  0.12696584598E+02  0.12700000000E+01 0. -1.
         25    2    1    2    0    0  0.00000000000E+00  0.00000000000E+00  0.29572585309E+03  0.32105796081E+03  0.12499773604E+03 0.  0.
    9000005    1    3    3    0    0 -0.23815307291E+02  0.48865019570E+02  0.68689895988E+02  0.87602858457E+02  0.10000000000E+01 0.  0.
    9000005    1    3    3    0    0  0.23815307291E+02 -0.48865019570E+02  0.22703595710E+03  0.23345510235E+03  0.10000000000E+01 0.  0.
<mgrwt>
<rscale>  0 0.12499774E+03</rscale>
<asrwt>0</asrwt>
<pdfrwt beam="2">  1        4 0.19486234E-02 0.12499774E+03</pdfrwt>
<pdfrwt beam="1">  1       -4 0.47444915E-01 0.12499774E+03</pdfrwt>
<totfact> 0.73034130E+03</totfact>
</mgrwt>
</event>
<event>
 5    1  0.3251953E-002  0.1250011E+03  0.7818608E-02  0.1235068E+00
         -4   -1    0    0    0  501 -0.00000000000E+00  0.00000000000E+00  0.27576469283E+01  0.30360363274E+01  0.12700000000E+01 0. -1.
          4   -1    0    0  501    0  0.00000000000E+00 -0.00000000000E+00 -0.13481964198E+04  0.13481970180E+04  0.12700000000E+01 0. -1.
         25    2    1    2    0    0  0.00000000000E+00  0.00000000000E+00 -0.13454387729E+04  0.13512330543E+04  0.12500110191E+03 0.  0.
    9000005    1    3    3    0    0  0.11253417339E+01 -0.53749034370E+02 -0.10171244297E+04  0.10185447121E+04  0.10000000000E+01 0.  0.
    9000005    1    3    3    0    0 -0.11253417339E+01  0.53749034370E+02 -0.32831434316E+03  0.33268834216E+03  0.10000000000E+01 0.  0.
<mgrwt>
<rscale>  0 0.12500110E+03</rscale>
<asrwt>0</asrwt>
<pdfrwt beam="2">  1        4 0.20743579E+00 0.12500110E+03</pdfrwt>
<pdfrwt beam="1">  1       -4 0.44571503E-03 0.12500110E+03</pdfrwt>
<totfact> 0.21050178E+03</totfact>
</mgrwt>
</event>
<event>
 5    1  0.3251953E-002  0.1250004E+03  0.7818608E-02  0.1235069E+00
         -4   -1    0    0    0  501 -0.00000000000E+00  0.00000000000E+00  0.11697280021E+04  0.11697286916E+04  0.12700000000E+01 0. -1.
          4   -1    0    0  501    0  0.00000000000E+00 -0.00000000000E+00 -0.32180127749E+01  0.34595528930E+01  0.12700000000E+01 0. -1.
         25    2    1    2    0    0  0.00000000000E+00  0.00000000000E+00  0.11665099894E+04  0.11731882445E+04  0.12500040666E+03 0.  0.
    9000005    1    3    3    0    0  0.40333699201E+02  0.32196492984E+01  0.10302344541E+04  0.10310291964E+04  0.10000000000E+01 0.  0.
    9000005    1    3    3    0    0 -0.40333699201E+02 -0.32196492984E+01  0.13627553526E+03  0.14215904805E+03  0.10000000000E+01 0.  0.
<mgrwt>
<rscale>  0 0.12500041E+03</rscale>
<asrwt>0</asrwt>
<pdfrwt beam="2">  1        4 0.51371259E-03 0.12500041E+03</pdfrwt>
<pdfrwt beam="1">  1       -4 0.17997656E+00 0.12500041E+03</pdfrwt>
<totfact> 0.25425344E+03</totfact>
</mgrwt>
</event>
<event>
 5    1  0.3251953E-002  0.1250028E+03  0.7818608E-02  0.1235065E+00
          4   -1    0    0  501    0  0.00000000000E+00  0.00000000000E+00  0.18514427976E+02  0.18557934780E+02  0.12700000000E+01 0. -1.
         -4   -1    0    0    0  501 -0.00000000000E+00 -0.00000000000E+00 -0.21070055555E+03  0.21070438299E+03  0.12700000000E+01 0. -1.
         25    2    1    2    0    0  0.00000000000E+00  0.00000000000E+00 -0.19218612758E+03  0.22926231777E+03  0.12500281083E+03 0.  0.
    9000005    1    3    3    0    0  0.29273133147E+02  0.37788112544E+02 -0.16992538403E+03  0.17652335232E+03  0.10000000000E+01 0.  0.
    9000005    1    3    3    0    0 -0.29273133147E+02 -0.37788112544E+02 -0.22260743543E+02  0.52738965452E+02  0.10000000000E+01 0.  0.
<mgrwt>
<rscale>  0 0.12500281E+03</rscale>
<asrwt>0</asrwt>
<pdfrwt beam="1">  1        4 0.28520148E-02 0.12500281E+03</pdfrwt>
<pdfrwt beam="2">  1       -4 0.32419110E-01 0.12500281E+03</pdfrwt>
<totfact> 0.85417641E+03</totfact>
</mgrwt>
</event>
<event>
 5    1  0.3251953E-002  0.1249993E+03  0.7818608E-02  0.1235070E+00
          4   -1    0    0  501    0  0.00000000000E+00  0.00000000000E+00  0.11958316345E+03  0.11958990710E+03  0.12700000000E+01 0. -1.
         -4   -1    0    0    0  501 -0.00000000000E+00 -0.00000000000E+00 -0.32645158511E+02  0.32669852682E+02  0.12700000000E+01 0. -1.
         25    2    1    2    0    0  0.00000000000E+00  0.00000000000E+00  0.86938004938E+02  0.15225975978E+03  0.12499927098E+03 0.  0.
    9000005    1    3    3    0    0  0.54023901887E+02 -0.11865478990E+02  0.80431802145E+01  0.55902274683E+02  0.10000000000E+01 0.  0.
    9000005    1    3    3    0    0 -0.54023901887E+02  0.11865478990E+02  0.78894824723E+02  0.96357485100E+02  0.10000000000E+01 0.  0.
<mgrwt>
<rscale>  0 0.12499927E+03</rscale>
<asrwt>0</asrwt>
<pdfrwt beam="1">  1        4 0.18399828E-01 0.12499927E+03</pdfrwt>
<pdfrwt beam="2">  1       -4 0.50247503E-02 0.12499927E+03</pdfrwt>
<totfact> 0.98856763E+03</totfact>
</mgrwt>
</event>
<event>
 5    1  0.3251953E-002  0.1250020E+03  0.7818608E-02  0.1235066E+00
          4   -1    0    0  501    0  0.00000000000E+00  0.00000000000E+00  0.68720695215E+02  0.68732429398E+02  0.12700000000E+01 0. -1.
         -4   -1    0    0    0  501 -0.00000000000E+00 -0.00000000000E+00 -0.56820508021E+02  0.56834699188E+02  0.12700000000E+01 0. -1.
         25    2    1    2    0    0  0.00000000000E+00  0.00000000000E+00  0.11900187194E+02  0.12556712859E+03  0.12500195729E+03 0.  0.
    9000005    1    3    3    0    0  0.14760035290E+02  0.60638969428E+02  0.91941027839E+01  0.63091003963E+02  0.10000000000E+01 0.  0.
    9000005    1    3    3    0    0 -0.14760035290E+02 -0.60638969428E+02  0.27060844103E+01  0.62476124623E+02  0.10000000000E+01 0.  0.
<mgrwt>
<rscale>  0 0.12500196E+03</rscale>
<asrwt>0</asrwt>
<pdfrwt beam="1">  1        4 0.10574409E-01 0.12500196E+03</pdfrwt>
<pdfrwt beam="2">  1       -4 0.87436109E-02 0.12500196E+03</pdfrwt>
<totfact> 0.10440011E+04</totfact>
</mgrwt>
</event>
<event>
 5    1  0.3251953E-002  0.1249973E+03  0.7818608E-02  0.1235074E+00
         -4   -1    0    0    0  501 -0.00000000000E+00  0.00000000000E+00  0.26137352186E+03  0.26137660727E+03  0.12700000000E+01 0. -1.
          4   -1    0    0  501    0  0.00000000000E+00 -0.00000000000E+00 -0.14914275859E+02  0.14968250546E+02  0.12700000000E+01 0. -1.
         25    2    1    2    0    0  0.00000000000E+00  0.00000000000E+00  0.24645924600E+03  0.27634485782E+03  0.12499728198E+03 0.  0.
    9000005    1    3    3    0    0  0.59676767932E+02 -0.18256779597E+02  0.13037757372E+03  0.14454735681E+03  0.10000000000E+01 0.  0.
    9000005    1    3    3    0    0 -0.59676767932E+02  0.18256779597E+02  0.11608167228E+03  0.13179750101E+03  0.10000000000E+01 0.  0.
<mgrwt>
<rscale>  0 0.12499728E+03</rscale>
<asrwt>0</asrwt>
<pdfrwt beam="2">  1        4 0.22988932E-02 0.12499728E+03</pdfrwt>
<pdfrwt beam="1">  1       -4 0.40215701E-01 0.12499728E+03</pdfrwt>
<totfact> 0.78670012E+03</totfact>
</mgrwt>
</event>
<event>
 5    1  0.3251953E-002  0.1250123E+03  0.7818608E-02  0.1235050E+00
          4   -1    0    0  501    0  0.00000000000E+00  0.00000000000E+00  0.16091618862E+03  0.16092120015E+03  0.12700000000E+01 0. -1.
         -4   -1    0    0    0  501 -0.00000000000E+00 -0.00000000000E+00 -0.24257843851E+02  0.24291066018E+02  0.12700000000E+01 0. -1.
         25    2    1    2    0    0  0.00000000000E+00  0.00000000000E+00  0.13665834477E+03  0.18521226617E+03  0.12501232078E+03 0.  0.
    9000005    1    3    3    0    0  0.34439118261E+02 -0.91826145251E+01 -0.77315654596E+01  0.36484933610E+02  0.10000000000E+01 0.  0.
    9000005    1    3    3    0    0 -0.34439118261E+02  0.91826145251E+01  0.14438991023E+03  0.14872733256E+03  0.10000000000E+01 0.  0.
<mgrwt>
<rscale>  0 0.12501232E+03</rscale>
<asrwt>0</asrwt>
<pdfrwt beam="1">  1        4 0.24759278E-01 0.12501232E+03</pdfrwt>
<pdfrwt beam="2">  1       -4 0.37349170E-02 0.12501232E+03</pdfrwt>
<totfact> 0.92661515E+03</totfact>
</mgrwt>
</event>
<event>
 5    1  0.3251953E-002  0.1249870E+03  0.7818608E-02  0.1235090E+00
          4   -1    0    0  501    0  0.00000000000E+00  0.00000000000E+00  0.11421756929E+03  0.11422462972E+03  0.12700000000E+01 0.  1.
         -4   -1    0    0    0  501 -0.00000000000E+00 -0.00000000000E+00 -0.34173058833E+02  0.34196649689E+02  0.12700000000E+01 0.  1.
         25    2    1    2    0    0  0.00000000000E+00  0.00000000000E+00  0.80044510459E+02  0.14842127941E+03  0.12498700943E+03 0.  0.
    9000005    1    3    3    0    0  0.53097733808E+02 -0.88982795569E+01  0.77684518391E+02  0.94522130278E+02  0.10000000000E+01 0.  0.
    9000005    1    3    3    0    0 -0.53097733808E+02  0.88982795569E+01  0.23599920682E+01  0.53899149132E+02  0.10000000000E+01 0.  0.
<mgrwt>
<rscale>  0 0.12498701E+03</rscale>
<asrwt>0</asrwt>
<pdfrwt beam="1">  1        4 0.17574291E-01 0.12498701E+03</pdfrwt>
<pdfrwt beam="2">  1       -4 0.52597516E-02 0.12498701E+03</pdfrwt>
<totfact> 0.99648463E+03</totfact>
</mgrwt>
</event>
<event>
 5    1  0.3251953E-002  0.1250018E+03  0.7818608E-02  0.1235067E+00
          4   -1    0    0  501    0  0.00000000000E+00  0.00000000000E+00  0.51450558445E+02  0.51466230330E+02  0.12700000000E+01 0. -1.
         -4   -1    0    0    0  501 -0.00000000000E+00 -0.00000000000E+00 -0.75891983389E+02  0.75902608932E+02  0.12700000000E+01 0. -1.
         25    2    1    2    0    0  0.00000000000E+00  0.00000000000E+00 -0.24441424943E+02  0.12736883926E+03  0.12500175183E+03 0.  0.
    9000005    1    3    3    0    0  0.45168900915E+02 -0.39794020636E+02 -0.29318386959E+02  0.66965375398E+02  0.10000000000E+01 0.  0.
    9000005    1    3    3    0    0 -0.45168900915E+02  0.39794020636E+02  0.48769620155E+01  0.60403463864E+02  0.10000000000E+01 0.  0.
<mgrwt>
<rscale>  0 0.12500175E+03</rscale>
<asrwt>0</asrwt>
<pdfrwt beam="1">  1        4 0.79174934E-02 0.12500175E+03</pdfrwt>
<pdfrwt beam="2">  1       -4 0.11677713E-01 0.12500175E+03</pdfrwt>
<totfact> 0.10400731E+04</totfact>
</mgrwt>
</event>
<event>
 5    1  0.3251953E-002  0.1250364E+03  0.7818608E-02  0.1235012E+00
         -4   -1    0    0    0  501 -0.00000000000E+00  0.00000000000E+00  0.44469872080E+03  0.44470053427E+03  0.12700000000E+01 0. -1.
          4   -1    0    0  501    0  0.00000000000E+00 -0.00000000000E+00 -0.87414348410E+01  0.88332091042E+01  0.12700000000E+01 0. -1.
         25    2    1    2    0    0  0.00000000000E+00  0.00000000000E+00  0.43595728596E+03  0.45353374338E+03  0.12503639950E+03 0.  0.
    9000005    1    3    3    0    0  0.49243664591E+02 -0.23296966245E+02  0.32917733599E+03  0.33365611888E+03  0.10000000000E+01 0.  0.
    9000005    1    3    3    0    0 -0.49243664591E+02  0.23296966245E+02  0.10677994997E+03  0.11987762449E+03  0.10000000000E+01 0.  0.
<mgrwt>
<rscale>  0 0.12503640E+03</rscale>
<asrwt>0</asrwt>
<pdfrwt beam="2">  1        4 0.13520354E-02 0.12503640E+03</pdfrwt>
<pdfrwt beam="1">  1       -4 0.68422377E-01 0.12503640E+03</pdfrwt>
<totfact> 0.59611087E+03</totfact>
</mgrwt>
</event>
<event>
 5    1  0.3251953E-002  0.1249990E+03  0.7818608E-02  0.1235071E+00
          4   -1    0    0  501    0  0.00000000000E+00  0.00000000000E+00  0.86414000487E+01  0.87342254838E+01  0.12700000000E+01 0. -1.
         -4   -1    0    0    0  501 -0.00000000000E+00 -0.00000000000E+00 -0.44952346827E+03  0.44952526228E+03  0.12700000000E+01 0. -1.
         25    2    1    2    0    0  0.00000000000E+00  0.00000000000E+00 -0.44088206822E+03  0.45825948776E+03  0.12499904017E+03 0.  0.
    9000005    1    3    3    0    0 -0.35719011824E+01 -0.30152464822E+02 -0.20201249882E+02  0.36483148298E+02  0.10000000000E+01 0.  0.
    9000005    1    3    3    0    0  0.35719011824E+01  0.30152464822E+02 -0.42068081834E+03  0.42177633946E+03  0.10000000000E+01 0.  0.
<mgrwt>
<rscale>  0 0.12499904E+03</rscale>
<asrwt>0</asrwt>
<pdfrwt beam="1">  1        4 0.13367249E-02 0.12499904E+03</pdfrwt>
<pdfrwt beam="2">  1       -4 0.69164717E-01 0.12499904E+03</pdfrwt>
<totfact> 0.59256156E+03</totfact>
</mgrwt>
</event>
<event>
 5    1  0.3251953E-002  0.1250208E+03  0.7818608E-02  0.1235037E+00
         -4   -1    0    0    0  501 -0.00000000000E+00  0.00000000000E+00  0.15116715640E+03  0.15117249113E+03  0.12700000000E+01 0. -1.
          4   -1    0    0  501    0  0.00000000000E+00 -0.00000000000E+00 -0.25827795715E+02  0.25859000977E+02  0.12700000000E+01 0. -1.
         25    2    1    2    0    0  0.00000000000E+00  0.00000000000E+00  0.12533936069E+03  0.17703149211E+03  0.12502077372E+03 0.  0.
    9000005    1    3    3    0    0 -0.54868964599E+02 -0.34347923760E+01  0.10477439051E+03  0.11832613398E+03  0.10000000000E+01 0.  0.
    9000005    1    3    3    0    0  0.54868964599E+02  0.34347923760E+01  0.20564970174E+02  0.58705358130E+02  0.10000000000E+01 0.  0.
<mgrwt>
<rscale>  0 0.12502077E+03</rscale>
<asrwt>0</asrwt>
<pdfrwt beam="2">  1        4 0.39763179E-02 0.12502077E+03</pdfrwt>
<pdfrwt beam="1">  1       -4 0.23259296E-01 0.12502077E+03</pdfrwt>
<totfact> 0.94110234E+03</totfact>
</mgrwt>
</event>
<event>
 5    1  0.3251953E-002  0.1249998E+03  0.7818608E-02  0.1235070E+00
          4   -1    0    0  501    0  0.00000000000E+00  0.00000000000E+00  0.13646013993E+02  0.13704984418E+02  0.12700000000E+01 0. -1.
         -4   -1    0    0    0  501 -0.00000000000E+00 -0.00000000000E+00 -0.28557747191E+03  0.28558029582E+03  0.12700000000E+01 0. -1.
         25    2    1    2    0    0  0.00000000000E+00  0.00000000000E+00 -0.27193145792E+03  0.29928528024E+03  0.12499984466E+03 0.  0.
    9000005    1    3    3    0    0 -0.42729324219E+01  0.51264581079E+02 -0.22091816259E+03  0.22683066324E+03  0.10000000000E+01 0.  0.
    9000005    1    3    3    0    0  0.42729324219E+01 -0.51264581079E+02 -0.51013295333E+02  0.72454617006E+02  0.10000000000E+01 0.  0.
<mgrwt>
<rscale>  0 0.12499984E+03</rscale>
<asrwt>0</asrwt>
<pdfrwt beam="1">  1        4 0.21041404E-02 0.12499984E+03</pdfrwt>
<pdfrwt beam="2">  1       -4 0.43939745E-01 0.12499984E+03</pdfrwt>
<totfact> 0.75688842E+03</totfact>
</mgrwt>
</event>
<event>
 5    1  0.3251953E-002  0.1249947E+03  0.7818608E-02  0.1235078E+00
          4   -1    0    0  501    0  0.00000000000E+00  0.00000000000E+00  0.38628666949E+02  0.38649538293E+02  0.12700000000E+01 0.  1.
         -4   -1    0    0    0  501 -0.00000000000E+00 -0.00000000000E+00 -0.10106235673E+03  0.10107033614E+03  0.12700000000E+01 0.  1.
         25    2    1    2    0    0  0.00000000000E+00  0.00000000000E+00 -0.62433689781E+02  0.13971987444E+03  0.12499471066E+03 0.  0.
    9000005    1    3    3    0    0 -0.16765469753E+02 -0.21962588511E+02 -0.93868697653E+02  0.97855856591E+02  0.10000000000E+01 0.  0.
    9000005    1    3    3    0    0  0.16765469753E+02  0.21962588511E+02  0.31435007872E+02  0.41864017844E+02  0.10000000000E+01 0.  0.
<mgrwt>
<rscale>  0 0.12499471E+03</rscale>
<asrwt>0</asrwt>
<pdfrwt beam="1">  1        4 0.59450912E-02 0.12499471E+03</pdfrwt>
<pdfrwt beam="2">  1       -4 0.15550274E-01 0.12499471E+03</pdfrwt>
<totfact> 0.10140603E+04</totfact>
</mgrwt>
</event>
<event>
 5    1  0.3251953E-002  0.1249949E+03  0.7818608E-02  0.1235077E+00
         -4   -1    0    0    0  501 -0.00000000000E+00  0.00000000000E+00  0.67191927782E+02  0.67203928896E+02  0.12700000000E+01 0. -1.
          4   -1    0    0  501    0  0.00000000000E+00 -0.00000000000E+00 -0.58106810320E+02  0.58120687415E+02  0.12700000000E+01 0. -1.
         25    2    1    2    0    0  0.00000000000E+00  0.00000000000E+00  0.90851174614E+01  0.12532461631E+03  0.12499488027E+03 0.  0.
    9000005    1    3    3    0    0  0.48799720741E+02 -0.36217655095E+02 -0.10049139632E+02  0.61604516817E+02  0.10000000000E+01 0.  0.
    9000005    1    3    3    0    0 -0.48799720741E+02  0.36217655095E+02  0.19134257094E+02  0.63720099494E+02  0.10000000000E+01 0.  0.
<mgrwt>
<rscale>  0 0.12499488E+03</rscale>
<asrwt>0</asrwt>
<pdfrwt beam="2">  1        4 0.89414999E-02 0.12499488E+03</pdfrwt>
<pdfrwt beam="1">  1       -4 0.10339210E-01 0.12499488E+03</pdfrwt>
<totfact> 0.10447025E+04</totfact>
</mgrwt>
</event>
<event>
 5    1  0.3251953E-002  0.1249994E+03  0.7818608E-02  0.1235070E+00
          4   -1    0    0  501    0  0.00000000000E+00  0.00000000000E+00  0.50892970424E+01  0.52453640851E+01  0.12700000000E+01 0. -1.
         -4   -1    0    0    0  501 -0.00000000000E+00 -0.00000000000E+00 -0.75578745733E+03  0.75578852436E+03  0.12700000000E+01 0. -1.
         25    2    1    2    0    0  0.00000000000E+00  0.00000000000E+00 -0.75069816029E+03  0.76103388845E+03  0.12499940602E+03 0.  0.
    9000005    1    3    3    0    0  0.48883656114E+02 -0.40210284360E+01 -0.61110330710E+03  0.61306935371E+03  0.10000000000E+01 0.  0.
    9000005    1    3    3    0    0 -0.48883656114E+02  0.40210284360E+01 -0.13959485319E+03  0.14796453474E+03  0.10000000000E+01 0.  0.
<mgrwt>
<rscale>  0 0.12499941E+03</rscale>
<asrwt>0</asrwt>
<pdfrwt beam="1">  1        4 0.79505661E-03 0.12499941E+03</pdfrwt>
<pdfrwt beam="2">  1       -4 0.11628699E+00 0.12499941E+03</pdfrwt>
<totfact> 0.40052413E+03</totfact>
</mgrwt>
</event>
<event>
 5    1  0.3251953E-002  0.1250107E+03  0.7818608E-02  0.1235053E+00
         -4   -1    0    0    0  501 -0.00000000000E+00  0.00000000000E+00  0.26137316575E+02  0.26168152739E+02  0.12700000000E+01 0.  1.
          4   -1    0    0  501    0  0.00000000000E+00 -0.00000000000E+00 -0.14935489627E+03  0.14936029573E+03  0.12700000000E+01 0.  1.
         25    2    1    2    0    0  0.00000000000E+00  0.00000000000E+00 -0.12321757970E+03  0.17552844847E+03  0.12501065665E+03 0.  0.
    9000005    1    3    3    0    0  0.25486759222E+02  0.55671313141E+02 -0.44012787593E+02  0.75412170598E+02  0.10000000000E+01 0.  0.
    9000005    1    3    3    0    0 -0.25486759222E+02 -0.55671313141E+02 -0.79204792104E+02  0.10011627787E+03  0.10000000000E+01 0.  0.
<mgrwt>
<rscale>  0 0.12501066E+03</rscale>
<asrwt>0</asrwt>
<pdfrwt beam="2">  1        4 0.22980463E-01 0.12501066E+03</pdfrwt>
<pdfrwt beam="1">  1       -4 0.40239131E-02 0.12501066E+03</pdfrwt>
<totfact> 0.94405576E+03</totfact>
</mgrwt>
</event>
<event>
 5    1  0.3251953E-002  0.1249980E+03  0.7818608E-02  0.1235072E+00
         -4   -1    0    0    0  501 -0.00000000000E+00  0.00000000000E+00  0.82724771196E+02  0.82734519213E+02  0.12700000000E+01 0. -1.
          4   -1    0    0  501    0  0.00000000000E+00 -0.00000000000E+00 -0.47197282082E+02  0.47214365779E+02  0.12700000000E+01 0. -1.
         25    2    1    2    0    0  0.00000000000E+00  0.00000000000E+00  0.35527489114E+02  0.12994888499E+03  0.12499804090E+03 0.  0.
    9000005    1    3    3    0    0  0.21081091121E+02  0.10077296646E+02 -0.42490119889E+02  0.48501284506E+02  0.10000000000E+01 0.  0.
    9000005    1    3    3    0    0 -0.21081091121E+02 -0.10077296646E+02  0.78017609002E+02  0.81447600486E+02  0.10000000000E+01 0.  0.
<mgrwt>
<rscale>  0 0.12499804E+03</rscale>
<asrwt>0</asrwt>
<pdfrwt beam="2">  1        4 0.72631843E-02 0.12499804E+03</pdfrwt>
<pdfrwt beam="1">  1       -4 0.12728952E-01 0.12499804E+03</pdfrwt>
<totfact> 0.10346059E+04</totfact>
</mgrwt>
</event>
<event>
 4    1  0.3251953E-002  0.1248459E+03  0.7818608E-02  0.1235310E+00
         -4   -1    0    0    0  501 -0.00000000000E+00  0.00000000000E+00  0.20526682595E+03  0.20527075471E+03  0.12700000000E+01 0.  1.
          4   -1    0    0  501    0  0.00000000000E+00 -0.00000000000E+00 -0.18957872678E+02  0.19000364114E+02  0.12700000000E+01 0.  1.
    9000005    1    1    2    0    0 -0.45886945062E+02  0.22988703026E+02  0.29350378515E+02  0.59131522160E+02  0.10000000000E+01 0.  0.
    9000005    1    1    2    0    0  0.45886945062E+02 -0.22988703026E+02  0.15695857476E+03  0.16513959666E+03  0.10000000000E+01 0.  0.
<mgrwt>
<rscale>  0 0.12484594E+03</rscale>
<asrwt>0</asrwt>
<pdfrwt beam="2">  1        4 0.29201665E-02 0.12484594E+03</pdfrwt>
<pdfrwt beam="1">  1       -4 0.31583084E-01 0.12484594E+03</pdfrwt>
<totfact> 0.86494159E+03</totfact>
</mgrwt>
</event>
<event>
 5    1  0.3251953E-002  0.1249943E+03  0.7818608E-02  0.1235078E+00
         -4   -1    0    0    0  501 -0.00000000000E+00  0.00000000000E+00  0.25007074506E+02  0.25039302613E+02  0.12700000000E+01 0. -1.
          4   -1    0    0  501    0  0.00000000000E+00 -0.00000000000E+00 -0.15605614179E+03  0.15606130939E+03  0.12700000000E+01 0. -1.
         25    2    1    2    0    0  0.00000000000E+00  0.00000000000E+00 -0.13104906728E+03  0.18110061201E+03  0.12499429440E+03 0.  0.
    9000005    1    3    3    0    0 -0.61445901168E+02  0.99746158686E+01 -0.73434052673E+02  0.96273837693E+02  0.10000000000E+01 0.  0.
    9000005    1    3    3    0    0  0.61445901168E+02 -0.99746158686E+01 -0.57615014610E+02  0.84826774315E+02  0.10000000000E+01 0.  0.
<mgrwt>
<rscale>  0 0.12499429E+03</rscale>
<asrwt>0</asrwt>
<pdfrwt beam="2">  1        4 0.24011513E-01 0.12499429E+03</pdfrwt>
<pdfrwt beam="1">  1       -4 0.38501189E-02 0.12499429E+03</pdfrwt>
<totfact> 0.93431215E+03</totfact>
</mgrwt>
</event>
<event>
 5    1  0.3251953E-002  0.1250034E+03  0.7818608E-02  0.1235064E+00
          4   -1    0    0  501    0  0.00000000000E+00  0.00000000000E+00  0.63138035571E+03  0.63138163299E+03  0.12700000000E+01 0. -1.
         -4   -1    0    0    0  501 -0.00000000000E+00 -0.00000000000E+00 -0.61207051668E+01  0.62510744468E+01  0.12700000000E+01 0. -1.
         25    2    1    2    0    0  0.00000000000E+00  0.00000000000E+00  0.62525965054E+03  0.63763270743E+03  0.12500335594E+03 0.  0.
    9000005    1    3    3    0    0  0.54935686504E+02 -0.12447450764E+02  0.45069359357E+03  0.45420103915E+03  0.10000000000E+01 0.  0.
    9000005    1    3    3    0    0 -0.54935686504E+02  0.12447450764E+02  0.17456605697E+03  0.18343166828E+03  0.10000000000E+01 0.  0.
<mgrwt>
<rscale>  0 0.12500336E+03</rscale>
<asrwt>0</asrwt>
<pdfrwt beam="1">  1        4 0.97145548E-01 0.12500336E+03</pdfrwt>
<pdfrwt beam="2">  1       -4 0.95177378E-03 0.12500336E+03</pdfrwt>
<totfact> 0.46571704E+03</totfact>
</mgrwt>
</event>
<event>
 5    1  0.3251953E-002  0.1250241E+03  0.7818608E-02  0.1235032E+00
          4   -1    0    0  501    0  0.00000000000E+00  0.00000000000E+00  0.68021714546E+01  0.69197136139E+01  0.12700000000E+01 0.  1.
         -4   -1    0    0    0  501 -0.00000000000E+00 -0.00000000000E+00 -0.56944735409E+03  0.56944877029E+03  0.12700000000E+01 0.  1.
         25    2    1    2    0    0  0.00000000000E+00  0.00000000000E+00 -0.56264518264E+03  0.57636848390E+03  0.12502410844E+03 0.  0.
    9000005    1    3    3    0    0  0.10575672019E+02 -0.47253571694E+02 -0.99122475568E+02  0.11032230073E+03  0.10000000000E+01 0.  0.
    9000005    1    3    3    0    0 -0.10575672019E+02  0.47253571694E+02 -0.46352270707E+03  0.46604618317E+03  0.10000000000E+01 0.  0.
<mgrwt>
<rscale>  0 0.12502411E+03</rscale>
<asrwt>0</asrwt>
<pdfrwt beam="1">  1        4 0.10556390E-02 0.12502411E+03</pdfrwt>
<pdfrwt beam="2">  1       -4 0.87616399E-01 0.12502411E+03</pdfrwt>
<totfact> 0.50367473E+03</totfact>
</mgrwt>
</event>
<event>
 5    1  0.3251953E-002  0.1250007E+03  0.7818608E-02  0.1235068E+00
          4   -1    0    0  501    0  0.00000000000E+00  0.00000000000E+00  0.24326863397E+02  0.24359991435E+02  0.12700000000E+01 0.  1.
         -4   -1    0    0    0  501 -0.00000000000E+00 -0.00000000000E+00 -0.16043045298E+03  0.16043547969E+03  0.12700000000E+01 0.  1.
         25    2    1    2    0    0  0.00000000000E+00  0.00000000000E+00 -0.13610358958E+03  0.18479547113E+03  0.12500071620E+03 0.  0.
    9000005    1    3    3    0    0  0.60832106498E+02  0.13385837933E+02 -0.75527205410E+02  0.97903445268E+02  0.10000000000E+01 0.  0.
    9000005    1    3    3    0    0 -0.60832106498E+02 -0.13385837933E+02 -0.60576384172E+02  0.86892025857E+02  0.10000000000E+01 0.  0.
<mgrwt>
<rscale>  0 0.12500072E+03</rscale>
<asrwt>0</asrwt>
<pdfrwt beam="1">  1        4 0.37455294E-02 0.12500072E+03</pdfrwt>
<pdfrwt beam="2">  1       -4 0.24684542E-01 0.12500072E+03</pdfrwt>
<totfact> 0.92759367E+03</totfact>
</mgrwt>
</event>
<event>
 5    1  0.3251953E-002  0.1250026E+03  0.7818608E-02  0.1235065E+00
         -4   -1    0    0    0  501 -0.00000000000E+00  0.00000000000E+00  0.18090991188E+02  0.18135513838E+02  0.12700000000E+01 0.  1.
          4   -1    0    0  501    0  0.00000000000E+00 -0.00000000000E+00 -0.21561946787E+03  0.21562320799E+03  0.12700000000E+01 0.  1.
         25    2    1    2    0    0  0.00000000000E+00  0.00000000000E+00 -0.19752847668E+03  0.23375872183E+03  0.12500256370E+03 0.  0.
    9000005    1    3    3    0    0 -0.11900396398E+02  0.52371858268E+01  0.15542916936E+02  0.20288662270E+02  0.10000000000E+01 0.  0.
    9000005    1    3    3    0    0  0.11900396398E+02 -0.52371858268E+01 -0.21307139361E+03  0.21347005956E+03  0.10000000000E+01 0.  0.
<mgrwt>
<rscale>  0 0.12500256E+03</rscale>
<asrwt>0</asrwt>
<pdfrwt beam="2">  1        4 0.33175936E-01 0.12500256E+03</pdfrwt>
<pdfrwt beam="1">  1       -4 0.27869421E-02 0.12500256E+03</pdfrwt>
<totfact> 0.84730919E+03</totfact>
</mgrwt>
</event>
<event>
 5    1  0.3251953E-002  0.1249890E+03  0.7818608E-02  0.1235087E+00
          4   -1    0    0  501    0  0.00000000000E+00  0.00000000000E+00  0.12536892276E+03  0.12537535521E+03  0.12700000000E+01 0.  1.
         -4   -1    0    0    0  501 -0.00000000000E+00 -0.00000000000E+00 -0.31132357993E+02  0.31158251142E+02  0.12700000000E+01 0.  1.
         25    2    1    2    0    0  0.00000000000E+00  0.00000000000E+00  0.94236564762E+02  0.15653360635E+03  0.12498895862E+03 0.  0.
    9000005    1    3    3    0    0  0.61725269241E+02 -0.54019831422E+01  0.36992605756E+02  0.72170930196E+02  0.10000000000E+01 0.  0.
    9000005    1    3    3    0    0 -0.61725269241E+02  0.54019831422E+01  0.57243959006E+02  0.84362676151E+02  0.10000000000E+01 0.  0.
<mgrwt>
<rscale>  0 0.12498896E+03</rscale>
<asrwt>0</asrwt>
<pdfrwt beam="1">  1        4 0.19290014E-01 0.12498896E+03</pdfrwt>
<pdfrwt beam="2">  1       -4 0.47920800E-02 0.12498896E+03</pdfrwt>
<totfact> 0.98039610E+03</totfact>
</mgrwt>
</event>
<event>
 5    1  0.3251953E-002  0.1249996E+03  0.7818608E-02  0.1235070E+00
          4   -1    0    0  501    0  0.00000000000E+00  0.00000000000E+00  0.19040527060E+02  0.19082834452E+02  0.12700000000E+01 0. -1.
         -4   -1    0    0    0  501 -0.00000000000E+00 -0.00000000000E+00 -0.20488129747E+03  0.20488523361E+03  0.12700000000E+01 0. -1.
         25    2    1    2    0    0  0.00000000000E+00  0.00000000000E+00 -0.18584077041E+03  0.22396806807E+03  0.12499961427E+03 0.  0.
    9000005    1    3    3    0    0  0.30892333449E+02  0.14215704876E+02  0.10193361296E+01  0.34036180414E+02  0.10000000000E+01 0.  0.
    9000005    1    3    3    0    0 -0.30892333449E+02 -0.14215704876E+02 -0.18686010654E+03  0.18993188765E+03  0.10000000000E+01 0.  0.
<mgrwt>
<rscale>  0 0.12499961E+03</rscale>
<asrwt>0</asrwt>
<pdfrwt beam="1">  1        4 0.29328692E-02 0.12499961E+03</pdfrwt>
<pdfrwt beam="2">  1       -4 0.31523755E-01 0.12499961E+03</pdfrwt>
<totfact> 0.86245067E+03</totfact>
</mgrwt>
</event>
<event>
 5    1  0.3251953E-002  0.1249984E+03  0.7818608E-02  0.1235072E+00
          4   -1    0    0  501    0  0.00000000000E+00  0.00000000000E+00  0.14632028516E+02  0.14687040495E+02  0.12700000000E+01 0. -1.
         -4   -1    0    0    0  501 -0.00000000000E+00 -0.00000000000E+00 -0.26640136920E+03  0.26640439638E+03  0.12700000000E+01 0. -1.
         25    2    1    2    0    0  0.00000000000E+00  0.00000000000E+00 -0.25176934069E+03  0.28109143688E+03  0.12499837990E+03 0.  0.
    9000005    1    3    3    0    0 -0.58221003762E+02  0.22434486512E+02 -0.11804385106E+03  0.13352281542E+03  0.10000000000E+01 0.  0.
    9000005    1    3    3    0    0  0.58221003762E+02 -0.22434486512E+02 -0.13372548962E+03  0.14756862146E+03  0.10000000000E+01 0.  0.
<mgrwt>
<rscale>  0 0.12499838E+03</rscale>
<asrwt>0</asrwt>
<pdfrwt beam="1">  1        4 0.22555461E-02 0.12499838E+03</pdfrwt>
<pdfrwt beam="2">  1       -4 0.40989287E-01 0.12499838E+03</pdfrwt>
<totfact> 0.78036423E+03</totfact>
</mgrwt>
</event>
<event>
 5    1  0.3251953E-002  0.1249937E+03  0.7818608E-02  0.1235079E+00
         -4   -1    0    0    0  501 -0.00000000000E+00  0.00000000000E+00  0.36422273513E+03  0.36422494929E+03  0.12700000000E+01 0. -1.
          4   -1    0    0  501    0  0.00000000000E+00 -0.00000000000E+00 -0.10683952953E+02  0.10759170540E+02  0.12700000000E+01 0. -1.
         25    2    1    2    0    0  0.00000000000E+00  0.00000000000E+00  0.35353878218E+03  0.37498411983E+03  0.12499367833E+03 0.  0.
    9000005    1    3    3    0    0 -0.28659400020E+02  0.54596417922E+02  0.14636316101E+03  0.15882476180E+03  0.10000000000E+01 0.  0.
    9000005    1    3    3    0    0  0.28659400020E+02 -0.54596417922E+02  0.20717562117E+03  0.21615935803E+03  0.10000000000E+01 0.  0.
<mgrwt>
<rscale>  0 0.12499368E+03</rscale>
<asrwt>0</asrwt>
<pdfrwt beam="2">  1        4 0.16496415E-02 0.12499368E+03</pdfrwt>
<pdfrwt beam="1">  1       -4 0.56040218E-01 0.12499368E+03</pdfrwt>
<totfact> 0.67070081E+03</totfact>
</mgrwt>
</event>
<event>
 5    1  0.3251953E-002  0.1249977E+03  0.7818608E-02  0.1235073E+00
         -4   -1    0    0    0  501 -0.00000000000E+00  0.00000000000E+00  0.12582323398E+03  0.12582964320E+03  0.12700000000E+01 0. -1.
          4   -1    0    0  501    0  0.00000000000E+00 -0.00000000000E+00 -0.31024215247E+02  0.31050198577E+02  0.12700000000E+01 0. -1.
         25    2    1    2    0    0  0.00000000000E+00  0.00000000000E+00  0.94799018732E+02  0.15687984178E+03  0.12499772320E+03 0.  0.
    9000005    1    3    3    0    0 -0.69610355617E+01  0.20023006448E+02  0.12117888883E+03  0.12302316815E+03  0.10000000000E+01 0.  0.
    9000005    1    3    3    0    0  0.69610355617E+01 -0.20023006448E+02 -0.26379870096E+02  0.33856673635E+02  0.10000000000E+01 0.  0.
<mgrwt>
<rscale>  0 0.12499772E+03</rscale>
<asrwt>0</asrwt>
<pdfrwt beam="2">  1        4 0.47754480E-02 0.12499772E+03</pdfrwt>
<pdfrwt beam="1">  1       -4 0.19359912E-01 0.12499772E+03</pdfrwt>
<totfact> 0.97952736E+03</totfact>
</mgrwt>
</event>
<event>
 5    1  0.3251953E-002  0.1250011E+03  0.7818608E-02  0.1235068E+00
          4   -1    0    0  501    0  0.00000000000E+00  0.00000000000E+00  0.45167448748E+02  0.45185299892E+02  0.12700000000E+01 0. -1.
         -4   -1    0    0    0  501 -0.00000000000E+00 -0.00000000000E+00 -0.86445677645E+02  0.86455006121E+02  0.12700000000E+01 0. -1.
         25    2    1    2    0    0  0.00000000000E+00  0.00000000000E+00 -0.41278228897E+02  0.13164030601E+03  0.12500111194E+03 0.  0.
    9000005    1    3    3    0    0  0.54858148973E+02 -0.17345800394E+02  0.50496401571E+01  0.57764973520E+02  0.10000000000E+01 0.  0.
    9000005    1    3    3    0    0 -0.54858148973E+02  0.17345800394E+02 -0.46327869054E+02  0.73875332494E+02  0.10000000000E+01 0.  0.
<mgrwt>
<rscale>  0 0.12500111E+03</rscale>
<asrwt>0</asrwt>
<pdfrwt beam="1">  1        4 0.69509290E-02 0.12500111E+03</pdfrwt>
<pdfrwt beam="2">  1       -4 0.13301426E-01 0.12500111E+03</pdfrwt>
<totfact> 0.10309123E+04</totfact>
</mgrwt>
</event>
<event>
 5    1  0.3251953E-002  0.1249909E+03  0.7818608E-02  0.1235083E+00
         -4   -1    0    0    0  501 -0.00000000000E+00  0.00000000000E+00  0.22426418297E+02  0.22462349335E+02  0.12700000000E+01 0.  1.
          4   -1    0    0  501    0  0.00000000000E+00 -0.00000000000E+00 -0.17397781469E+03  0.17398244999E+03  0.12700000000E+01 0.  1.
         25    2    1    2    0    0  0.00000000000E+00  0.00000000000E+00 -0.15155139639E+03  0.19644479932E+03  0.12499093340E+03 0.  0.
    9000005    1    3    3    0    0 -0.24333820938E+02 -0.30474180748E+02 -0.15251247720E+03  0.15742257219E+03  0.10000000000E+01 0.  0.
    9000005    1    3    3    0    0  0.24333820938E+02  0.30474180748E+02  0.96108081223E+00  0.39022227128E+02  0.10000000000E+01 0.  0.
<mgrwt>
<rscale>  0 0.12499093E+03</rscale>
<asrwt>0</asrwt>
<pdfrwt beam="2">  1        4 0.26768937E-01 0.12499093E+03</pdfrwt>
<pdfrwt beam="1">  1       -4 0.34533388E-02 0.12499093E+03</pdfrwt>
<totfact> 0.90756295E+03</totfact>
</mgrwt>
</event>
<event>
 5    1  0.3251953E-002  0.1250013E+03  0.7818608E-02  0.1235067E+00
         -4   -1    0    0    0  501 -0.00000000000E+00  0.00000000000E+00  0.30199746422E+01  0.32761481712E+01  0.12700000000E+01 0. -1.
          4   -1    0    0  501    0  0.00000000000E+00 -0.00000000000E+00 -0.12406123051E+04  0.12406129551E+04  0.12700000000E+01 0. -1.
         25    2    1    2    0    0  0.00000000000E+00  0.00000000000E+00 -0.12375923305E+04  0.12438891033E+04  0.12500129972E+03 0.  0.
    9000005    1    3    3    0    0  0.12974575182E+01 -0.61799587884E+02 -0.71024738921E+03  0.71293283438E+03  0.10000000000E+01 0.  0.
    9000005    1    3    3    0    0 -0.12974575182E+01  0.61799587884E+02 -0.52734494125E+03  0.53095626893E+03  0.10000000000E+01 0.  0.
<mgrwt>
<rscale>  0 0.12500130E+03</rscale>
<asrwt>0</asrwt>
<pdfrwt beam="2">  1        4 0.19088280E+00 0.12500130E+03</pdfrwt>
<pdfrwt beam="1">  1       -4 0.48436813E-03 0.12500130E+03</pdfrwt>
<totfact> 0.23591368E+03</totfact>
</mgrwt>
</event>
<event>
 5    1  0.3251953E-002  0.1250005E+03  0.7818608E-02  0.1235068E+00
         -4   -1    0    0    0  501 -0.00000000000E+00  0.00000000000E+00  0.30634967522E+02  0.30661280715E+02  0.12700000000E+01 0. -1.
          4   -1    0    0  501    0  0.00000000000E+00 -0.00000000000E+00 -0.12742636412E+03  0.12743269271E+03  0.12700000000E+01 0. -1.
         25    2    1    2    0    0  0.00000000000E+00  0.00000000000E+00 -0.96791396594E+02  0.15809397343E+03  0.12500051992E+03 0.  0.
    9000005    1    3    3    0    0  0.58401867564E+02 -0.17608054773E+02 -0.65573022024E+02  0.89563625123E+02  0.10000000000E+01 0.  0.
    9000005    1    3    3    0    0 -0.58401867564E+02  0.17608054773E+02 -0.31218374570E+02  0.68530348304E+02  0.10000000000E+01 0.  0.
<mgrwt>
<rscale>  0 0.12500052E+03</rscale>
<asrwt>0</asrwt>
<pdfrwt beam="2">  1        4 0.19606567E-01 0.12500052E+03</pdfrwt>
<pdfrwt beam="1">  1       -4 0.47155829E-02 0.12500052E+03</pdfrwt>
<totfact> 0.97710373E+03</totfact>
</mgrwt>
</event>
<event>
 5    1  0.3251953E-002  0.1249977E+03  0.7818608E-02  0.1235073E+00
          4   -1    0    0  501    0  0.00000000000E+00  0.00000000000E+00  0.11523953846E+03  0.11524653628E+03  0.12700000000E+01 0.  1.
         -4   -1    0    0    0  501 -0.00000000000E+00 -0.00000000000E+00 -0.33875636919E+02  0.33899434754E+02  0.12700000000E+01 0.  1.
         25    2    1    2    0    0  0.00000000000E+00  0.00000000000E+00  0.81363901539E+02  0.14914597103E+03  0.12499774479E+03 0.  0.
    9000005    1    3    3    0    0 -0.34476312992E+02 -0.52119653088E+02  0.40904072662E+02  0.74694160119E+02  0.10000000000E+01 0.  0.
    9000005    1    3    3    0    0  0.34476312992E+02  0.52119653088E+02  0.40459828877E+02  0.74451810913E+02  0.10000000000E+01 0.  0.
<mgrwt>
<rscale>  0 0.12499774E+03</rscale>
<asrwt>0</asrwt>
<pdfrwt beam="1">  1        4 0.17731529E-01 0.12499774E+03</pdfrwt>
<pdfrwt beam="2">  1       -4 0.52140053E-02 0.12499774E+03</pdfrwt>
<totfact> 0.99479258E+03</totfact>
</mgrwt>
</event>
<event>
 5    1  0.3251953E-002  0.1249983E+03  0.7818608E-02  0.1235072E+00
         -4   -1    0    0    0  501 -0.00000000000E+00  0.00000000000E+00  0.13699269111E+03  0.13699857780E+03  0.12700000000E+01 0.  1.
          4   -1    0    0  501    0  0.00000000000E+00 -0.00000000000E+00 -0.28492884991E+02  0.28521174504E+02  0.12700000000E+01 0.  1.
         25    2    1    2    0    0  0.00000000000E+00  0.00000000000E+00  0.10849980612E+03  0.16551975230E+03  0.12499832188E+03 0.  0.
    9000005    1    3    3    0    0 -0.19158543180E+02  0.54463372640E+02  0.85915052118E+02  0.10351668907E+03  0.10000000000E+01 0.  0.
    9000005    1    3    3    0    0  0.19158543180E+02 -0.54463372640E+02  0.22584754003E+02  0.62003063227E+02  0.10000000000E+01 0.  0.
<mgrwt>
<rscale>  0 0.12499832E+03</rscale>
<asrwt>0</asrwt>
<pdfrwt beam="2">  1        4 0.43861497E-02 0.12499832E+03</pdfrwt>
<pdfrwt beam="1">  1       -4 0.21078428E-01 0.12499832E+03</pdfrwt>
<totfact> 0.96292680E+03</totfact>
</mgrwt>
</event>
<event>
 5    1  0.3251953E-002  0.1249984E+03  0.7818608E-02  0.1235072E+00
          4   -1    0    0  501    0  0.00000000000E+00  0.00000000000E+00  0.10093347472E+03  0.10094146432E+03  0.12700000000E+01 0. -1.
         -4   -1    0    0    0  501 -0.00000000000E+00 -0.00000000000E+00 -0.38680317632E+02  0.38701161121E+02  0.12700000000E+01 0. -1.
         25    2    1    2    0    0  0.00000000000E+00  0.00000000000E+00  0.62253157089E+02  0.13964262544E+03  0.12499842908E+03 0.  0.
    9000005    1    3    3    0    0 -0.61674656400E+02 -0.10058049198E+02  0.30597581809E+02  0.69585484178E+02  0.10000000000E+01 0.  0.
    9000005    1    3    3    0    0  0.61674656400E+02  0.10058049198E+02  0.31655575280E+02  0.70057141264E+02  0.10000000000E+01 0.  0.
<mgrwt>
<rscale>  0 0.12499843E+03</rscale>
<asrwt>0</asrwt>
<pdfrwt beam="1">  1        4 0.15530445E-01 0.12499843E+03</pdfrwt>
<pdfrwt beam="2">  1       -4 0.59530361E-02 0.12499843E+03</pdfrwt>
<totfact> 0.10141357E+04</totfact>
</mgrwt>
</event>
<event>
 5    1  0.3251953E-002  0.1249989E+03  0.7818608E-02  0.1235071E+00
          4   -1    0    0  501    0  0.00000000000E+00  0.00000000000E+00  0.42602468310E+03  0.42602657606E+03  0.12700000000E+01 0. -1.
         -4   -1    0    0    0  501 -0.00000000000E+00 -0.00000000000E+00 -0.91230111073E+01  0.92109842940E+01  0.12700000000E+01 0. -1.
         25    2    1    2    0    0  0.00000000000E+00  0.00000000000E+00  0.41690167199E+03  0.43523756035E+03  0.12499891933E+03 0.  0.
    9000005    1    3    3    0    0  0.36611515469E+02  0.46667058204E+02  0.13995628984E+03  0.15200980380E+03  0.10000000000E+01 0.  0.
    9000005    1    3    3    0    0 -0.36611515469E+02 -0.46667058204E+02  0.27694538215E+03  0.28322775655E+03  0.10000000000E+01 0.  0.
<mgrwt>
<rscale>  0 0.12499892E+03</rscale>
<asrwt>0</asrwt>
<pdfrwt beam="1">  1        4 0.65549172E-01 0.12499892E+03</pdfrwt>
<pdfrwt beam="2">  1       -4 0.14104529E-02 0.12499892E+03</pdfrwt>
<totfact> 0.61265549E+03</totfact>
</mgrwt>
</event>
<event>
 5    1  0.3251953E-002  0.1249987E+03  0.7818608E-02  0.1235071E+00
          4   -1    0    0  501    0  0.00000000000E+00  0.00000000000E+00  0.54556122191E+01  0.56014823650E+01  0.12700000000E+01 0. -1.
         -4   -1    0    0    0  501 -0.00000000000E+00 -0.00000000000E+00 -0.70639932834E+03  0.70640046997E+03  0.12700000000E+01 0. -1.
         25    2    1    2    0    0  0.00000000000E+00  0.00000000000E+00 -0.70094371612E+03  0.71200195234E+03  0.12499874785E+03 0.  0.
    9000005    1    3    3    0    0 -0.62113611020E+02  0.68602185750E+01 -0.34994768282E+03  0.35548494200E+03  0.10000000000E+01 0.  0.
    9000005    1    3    3    0    0  0.62113611020E+02 -0.68602185750E+01 -0.35099603330E+03  0.35651701034E+03  0.10000000000E+01 0.  0.
<mgrwt>
<rscale>  0 0.12499875E+03</rscale>
<asrwt>0</asrwt>
<pdfrwt beam="1">  1        4 0.85063411E-03 0.12499875E+03</pdfrwt>
<pdfrwt beam="2">  1       -4 0.10868806E+00 0.12499875E+03</pdfrwt>
<totfact> 0.42461845E+03</totfact>
</mgrwt>
</event>
<event>
 5    1  0.3251953E-002  0.1250015E+03  0.7818608E-02  0.1235067E+00
          4   -1    0    0  501    0  0.00000000000E+00  0.00000000000E+00  0.24252257147E+02  0.24285486957E+02  0.12700000000E+01 0.  1.
         -4   -1    0    0    0  501 -0.00000000000E+00 -0.00000000000E+00 -0.16092536999E+03  0.16093038124E+03  0.12700000000E+01 0.  1.
         25    2    1    2    0    0  0.00000000000E+00  0.00000000000E+00 -0.13667311284E+03  0.18521586820E+03  0.12500151222E+03 0.  0.
    9000005    1    3    3    0    0 -0.20755007225E+02 -0.58559911979E+02 -0.78310439256E+02  0.99967787373E+02  0.10000000000E+01 0.  0.
    9000005    1    3    3    0    0  0.20755007225E+02  0.58559911979E+02 -0.58362673585E+02  0.85248080822E+02  0.10000000000E+01 0.  0.
<mgrwt>
<rscale>  0 0.12500151E+03</rscale>
<asrwt>0</asrwt>
<pdfrwt beam="1">  1        4 0.37340582E-02 0.12500151E+03</pdfrwt>
<pdfrwt beam="2">  1       -4 0.24760690E-01 0.12500151E+03</pdfrwt>
<totfact> 0.92683326E+03</totfact>
</mgrwt>
</event>
<event>
 5    1  0.3251953E-002  0.1250035E+03  0.7818608E-02  0.1235064E+00
          4   -1    0    0  501    0  0.00000000000E+00  0.00000000000E+00  0.41431029282E+03  0.41431223930E+03  0.12700000000E+01 0. -1.
         -4   -1    0    0    0  501 -0.00000000000E+00 -0.00000000000E+00 -0.93841072998E+01  0.94696552109E+01  0.12700000000E+01 0. -1.
         25    2    1    2    0    0  0.00000000000E+00  0.00000000000E+00  0.40492618552E+03  0.42378189451E+03  0.12500351354E+03 0.  0.
    9000005    1    3    3    0    0  0.31945602171E+02 -0.53509730581E+02  0.21823984728E+03  0.22696573245E+03  0.10000000000E+01 0.  0.
    9000005    1    3    3    0    0 -0.31945602171E+02  0.53509730581E+02  0.18668633823E+03  0.19681616206E+03  0.10000000000E+01 0.  0.
<mgrwt>
<rscale>  0 0.12500351E+03</rscale>
<asrwt>0</asrwt>
<pdfrwt beam="1">  1        4 0.63746758E-01 0.12500351E+03</pdfrwt>
<pdfrwt beam="2">  1       -4 0.14504395E-02 0.12500351E+03</pdfrwt>
<totfact> 0.62298878E+03</totfact>
</mgrwt>
</event>
<event>
 5    1  0.3251953E-002  0.1249969E+03  0.7818608E-02  0.1235074E+00
          4   -1    0    0  501    0  0.00000000000E+00  0.00000000000E+00  0.14962699635E+02  0.15016500270E+02  0.12700000000E+01 0.  1.
         -4   -1    0    0    0  501 -0.00000000000E+00 -0.00000000000E+00 -0.26052893688E+03  0.26053203229E+03  0.12700000000E+01 0.  1.
         25    2    1    2    0    0  0.00000000000E+00  0.00000000000E+00 -0.24556623724E+03  0.27554853256E+03  0.12499686766E+03 0.  0.
    9000005    1    3    3    0    0  0.22066436646E+02  0.46222625967E+02 -0.20170082444E+03  0.20810497677E+03  0.10000000000E+01 0.  0.
    9000005    1    3    3    0    0 -0.22066436646E+02 -0.46222625967E+02 -0.43865412805E+02  0.67443555793E+02  0.10000000000E+01 0.  0.
<mgrwt>
<rscale>  0 0.12499687E+03</rscale>
<asrwt>0</asrwt>
<pdfrwt beam="1">  1        4 0.23063306E-02 0.12499687E+03</pdfrwt>
<pdfrwt beam="2">  1       -4 0.40085748E-01 0.12499687E+03</pdfrwt>
<totfact> 0.78777552E+03</totfact>
</mgrwt>
</event>
<event>
 5    1  0.3251953E-002  0.1249994E+03  0.7818608E-02  0.1235070E+00
         -4   -1    0    0    0  501 -0.00000000000E+00  0.00000000000E+00  0.22647496514E+02  0.22683077357E+02  0.12700000000E+01 0.  1.
          4   -1    0    0  501    0  0.00000000000E+00 -0.00000000000E+00 -0.17230554968E+03  0.17231022996E+03  0.12700000000E+01 0.  1.
         25    2    1    2    0    0  0.00000000000E+00  0.00000000000E+00 -0.14965805317E+03  0.19499330732E+03  0.12499942809E+03 0.  0.
    9000005    1    3    3    0    0  0.57047676242E+02 -0.23004281037E+02 -0.92029589129E+02  0.11069814626E+03  0.10000000000E+01 0.  0.
    9000005    1    3    3    0    0 -0.57047676242E+02  0.23004281037E+02 -0.57628464037E+02  0.84295161059E+02  0.10000000000E+01 0.  0.
<mgrwt>
<rscale>  0 0.12499943E+03</rscale>
<asrwt>0</asrwt>
<pdfrwt beam="2">  1        4 0.26511642E-01 0.12499943E+03</pdfrwt>
<pdfrwt beam="1">  1       -4 0.34873273E-02 0.12499943E+03</pdfrwt>
<totfact> 0.90986847E+03</totfact>
</mgrwt>
</event>
<event>
 5    1  0.3251953E-002  0.1250022E+03  0.7818608E-02  0.1235066E+00
         -4   -1    0    0    0  501 -0.00000000000E+00  0.00000000000E+00  0.56137271469E+02  0.56151635310E+02  0.12700000000E+01 0.  1.
          4   -1    0    0  501    0  0.00000000000E+00 -0.00000000000E+00 -0.69557335416E+02  0.69568928482E+02  0.12700000000E+01 0.  1.
         25    2    1    2    0    0  0.00000000000E+00  0.00000000000E+00 -0.13420063946E+02  0.12572056379E+03  0.12500224816E+03 0.  0.
    9000005    1    3    3    0    0  0.34843292429E+02  0.28686011168E+02 -0.50183975076E+02  0.67500915686E+02  0.10000000000E+01 0.  0.
    9000005    1    3    3    0    0 -0.34843292429E+02 -0.28686011168E+02  0.36763911129E+02  0.58219648106E+02  0.10000000000E+01 0.  0.
<mgrwt>
<rscale>  0 0.12500225E+03</rscale>
<asrwt>0</asrwt>
<pdfrwt beam="2">  1        4 0.10703125E-01 0.12500225E+03</pdfrwt>
<pdfrwt beam="1">  1       -4 0.86385000E-02 0.12500225E+03</pdfrwt>
<totfact> 0.10436562E+04</totfact>
</mgrwt>
</event>
<event>
 5    1  0.3251953E-002  0.1250024E+03  0.7818608E-02  0.1235066E+00
         -4   -1    0    0    0  501 -0.00000000000E+00  0.00000000000E+00  0.33589258148E+02  0.33613258737E+02  0.12700000000E+01 0.  1.
          4   -1    0    0  501    0  0.00000000000E+00 -0.00000000000E+00 -0.11623009216E+03  0.11623703034E+03  0.12700000000E+01 0.  1.
         25    2    1    2    0    0  0.00000000000E+00  0.00000000000E+00 -0.82640834009E+02  0.14985028908E+03  0.12500240674E+03 0.  0.
    9000005    1    3    3    0    0 -0.54145314004E+02  0.30040567665E+02 -0.31201577773E+02  0.69344712774E+02  0.10000000000E+01 0.  0.
    9000005    1    3    3    0    0  0.54145314004E+02 -0.30040567665E+02 -0.51439256236E+02  0.80505576306E+02  0.10000000000E+01 0.  0.
<mgrwt>
<rscale>  0 0.12500241E+03</rscale>
<asrwt>0</asrwt>
<pdfrwt beam="2">  1        4 0.17883932E-01 0.12500241E+03</pdfrwt>
<pdfrwt beam="1">  1       -4 0.51699581E-02 0.12500241E+03</pdfrwt>
<totfact> 0.99328169E+03</totfact>
</mgrwt>
</event>
<event>
 5    1  0.3251953E-002  0.1249966E+03  0.7818608E-02  0.1235075E+00
          4   -1    0    0  501    0  0.00000000000E+00  0.00000000000E+00  0.63857650401E+02  0.63870278023E+02  0.12700000000E+01 0.  1.
         -4   -1    0    0    0  501 -0.00000000000E+00 -0.00000000000E+00 -0.61142663118E+02  0.61155851341E+02  0.12700000000E+01 0.  1.
         25    2    1    2    0    0  0.00000000000E+00  0.00000000000E+00  0.27149872822E+01  0.12502612936E+03  0.12499664743E+03 0.  0.
    9000005    1    3    3    0    0 -0.13050930549E+02  0.45614384050E+02  0.42036996945E+02  0.63396434699E+02  0.10000000000E+01 0.  0.
    9000005    1    3    3    0    0  0.13050930549E+02 -0.45614384050E+02 -0.39322009662E+02  0.61629694664E+02  0.10000000000E+01 0.  0.
<mgrwt>
<rscale>  0 0.12499665E+03</rscale>
<asrwt>0</asrwt>
<pdfrwt beam="1">  1        4 0.98262398E-02 0.12499665E+03</pdfrwt>
<pdfrwt beam="2">  1       -4 0.94085494E-02 0.12499665E+03</pdfrwt>
<totfact> 0.10453087E+04</totfact>
</mgrwt>
</event>
<event>
 5    1  0.3251953E-002  0.1250001E+03  0.7818608E-02  0.1235069E+00
          4   -1    0    0  501    0  0.00000000000E+00  0.00000000000E+00  0.18441387618E+04  0.18441391991E+04  0.12700000000E+01 0.  1.
         -4   -1    0    0    0  501 -0.00000000000E+00 -0.00000000000E+00 -0.19273604103E+01  0.23081633719E+01  0.12700000000E+01 0.  1.
         25    2    1    2    0    0  0.00000000000E+00  0.00000000000E+00  0.18422114013E+04  0.18464473624E+04  0.12500005994E+03 0.  0.
    9000005    1    3    3    0    0  0.16795150170E+02 -0.47082271002E+02  0.36713503974E+03  0.37052389224E+03  0.10000000000E+01 0.  0.
    9000005    1    3    3    0    0 -0.16795150170E+02  0.47082271002E+02  0.14750763616E+04  0.14759234702E+04  0.10000000000E+01 0.  0.
<mgrwt>
<rscale>  0 0.12500006E+03</rscale>
<asrwt>0</asrwt>
<pdfrwt beam="1">  1        4 0.28374116E+00 0.12500006E+03</pdfrwt>
<pdfrwt beam="2">  1       -4 0.32584526E-03 0.12500006E+03</pdfrwt>
<totfact> 0.12001538E+03</totfact>
</mgrwt>
</event>
<event>
 5    1  0.3251953E-002  0.1250031E+03  0.7818608E-02  0.1235064E+00
          4   -1    0    0  501    0  0.00000000000E+00  0.00000000000E+00  0.22336116269E+02  0.22372192337E+02  0.12700000000E+01 0.  1.
         -4   -1    0    0    0  501 -0.00000000000E+00 -0.00000000000E+00 -0.17471398900E+03  0.17471860477E+03  0.12700000000E+01 0.  1.
         25    2    1    2    0    0  0.00000000000E+00  0.00000000000E+00 -0.15237787273E+03  0.19709079711E+03  0.12500306479E+03 0.  0.
    9000005    1    3    3    0    0  0.15288093957E+02 -0.58796138932E+02 -0.99293183738E+02  0.11640811014E+03  0.10000000000E+01 0.  0.
    9000005    1    3    3    0    0 -0.15288093957E+02  0.58796138932E+02 -0.53084688997E+02  0.80682686966E+02  0.10000000000E+01 0.  0.
<mgrwt>
<rscale>  0 0.12500306E+03</rscale>
<asrwt>0</asrwt>
<pdfrwt beam="1">  1        4 0.34394558E-02 0.12500306E+03</pdfrwt>
<pdfrwt beam="2">  1       -4 0.26882205E-01 0.12500306E+03</pdfrwt>
<totfact> 0.90621750E+03</totfact>
</mgrwt>
</event>
<event>
 5    1  0.3251953E-002  0.1249994E+03  0.7818608E-02  0.1235070E+00
          4   -1    0    0  501    0  0.00000000000E+00  0.00000000000E+00  0.37749910853E+02  0.37771267776E+02  0.12700000000E+01 0.  1.
         -4   -1    0    0    0  501 -0.00000000000E+00 -0.00000000000E+00 -0.10342147262E+03  0.10342927003E+03  0.12700000000E+01 0.  1.
         25    2    1    2    0    0  0.00000000000E+00  0.00000000000E+00 -0.65671561771E+02  0.14120053781E+03  0.12499935141E+03 0.  0.
    9000005    1    3    3    0    0 -0.41162211276E+02  0.22252708085E+02  0.13953795814E+02  0.48838704650E+02  0.10000000000E+01 0.  0.
    9000005    1    3    3    0    0  0.41162211276E+02 -0.22252708085E+02 -0.79625357585E+02  0.92361833161E+02  0.10000000000E+01 0.  0.
<mgrwt>
<rscale>  0 0.12499935E+03</rscale>
<asrwt>0</asrwt>
<pdfrwt beam="1">  1        4 0.58099213E-02 0.12499935E+03</pdfrwt>
<pdfrwt beam="2">  1       -4 0.15913238E-01 0.12499935E+03</pdfrwt>
<totfact> 0.10108912E+04</totfact>
</mgrwt>
</event>
<event>
 5    1  0.3251953E-002  0.1250008E+03  0.7818608E-02  0.1235068E+00
          4   -1    0    0  501    0  0.00000000000E+00  0.00000000000E+00  0.11499690467E+03  0.11500391726E+03  0.12700000000E+01 0.  1.
         -4   -1    0    0    0  501 -0.00000000000E+00 -0.00000000000E+00 -0.33948841658E+02  0.33972588213E+02  0.12700000000E+01 0.  1.
         25    2    1    2    0    0  0.00000000000E+00  0.00000000000E+00  0.81048063016E+02  0.14897650547E+03  0.12500084265E+03 0.  0.
    9000005    1    3    3    0    0  0.61142398728E+01 -0.62119114207E+02  0.36922024581E+02  0.72528643847E+02  0.10000000000E+01 0.  0.
    9000005    1    3    3    0    0 -0.61142398728E+01  0.62119114207E+02  0.44126038435E+02  0.76447861625E+02  0.10000000000E+01 0.  0.
<mgrwt>
<rscale>  0 0.12500084E+03</rscale>
<asrwt>0</asrwt>
<pdfrwt beam="1">  1        4 0.17694198E-01 0.12500084E+03</pdfrwt>
<pdfrwt beam="2">  1       -4 0.52252648E-02 0.12500084E+03</pdfrwt>
<totfact> 0.99506221E+03</totfact>
</mgrwt>
</event>
<event>
 5    1  0.3251953E-002  0.1249992E+03  0.7818608E-02  0.1235070E+00
         -4   -1    0    0    0  501 -0.00000000000E+00  0.00000000000E+00  0.22711918201E+02  0.22747398277E+02  0.12700000000E+01 0. -1.
          4   -1    0    0  501    0  0.00000000000E+00 -0.00000000000E+00 -0.17181704750E+03  0.17182174109E+03  0.12700000000E+01 0. -1.
         25    2    1    2    0    0  0.00000000000E+00  0.00000000000E+00 -0.14910512930E+03  0.19456913937E+03  0.12499924164E+03 0.  0.
    9000005    1    3    3    0    0  0.51514949251E+02 -0.21300713376E+02 -0.11851525450E+03  0.13097471487E+03  0.10000000000E+01 0.  0.
    9000005    1    3    3    0    0 -0.51514949251E+02  0.21300713376E+02 -0.30589874799E+02  0.63594424496E+02  0.10000000000E+01 0.  0.
<mgrwt>
<rscale>  0 0.12499924E+03</rscale>
<asrwt>0</asrwt>
<pdfrwt beam="2">  1        4 0.26436481E-01 0.12499924E+03</pdfrwt>
<pdfrwt beam="1">  1       -4 0.34972317E-02 0.12499924E+03</pdfrwt>
<totfact> 0.91059868E+03</totfact>
</mgrwt>
</event>
<event>
 5    1  0.3251953E-002  0.1250004E+03  0.7818608E-02  0.1235069E+00
          4   -1    0    0  501    0  0.00000000000E+00  0.00000000000E+00  0.18607076299E+02  0.18650366977E+02  0.12700000000E+01 0. -1.
         -4   -1    0    0    0  501 -0.00000000000E+00 -0.00000000000E+00 -0.20964564133E+03  0.20964948803E+03  0.12700000000E+01 0. -1.
         25    2    1    2    0    0  0.00000000000E+00  0.00000000000E+00 -0.19103856503E+03  0.22829985500E+03  0.12500036186E+03 0.  0.
    9000005    1    3    3    0    0 -0.46644714064E+02 -0.40418105473E+02 -0.11340675533E+03  0.12911794901E+03  0.10000000000E+01 0.  0.
    9000005    1    3    3    0    0  0.46644714064E+02  0.40418105473E+02 -0.77631809699E+02  0.99181905997E+02  0.10000000000E+01 0.  0.
<mgrwt>
<rscale>  0 0.12500036E+03</rscale>
<asrwt>0</asrwt>
<pdfrwt beam="1">  1        4 0.28662532E-02 0.12500036E+03</pdfrwt>
<pdfrwt beam="2">  1       -4 0.32256800E-01 0.12500036E+03</pdfrwt>
<totfact> 0.85570651E+03</totfact>
</mgrwt>
</event>
<event>
 5    1  0.3251953E-002  0.1249997E+03  0.7818608E-02  0.1235070E+00
          4   -1    0    0  501    0  0.00000000000E+00  0.00000000000E+00  0.33799868276E+02  0.33823719421E+02  0.12700000000E+01 0. -1.
         -4   -1    0    0    0  501 -0.00000000000E+00 -0.00000000000E+00 -0.11550122635E+03  0.11550820832E+03  0.12700000000E+01 0. -1.
         25    2    1    2    0    0  0.00000000000E+00  0.00000000000E+00 -0.81701358074E+02  0.14933192774E+03  0.12499965092E+03 0.  0.
    9000005    1    3    3    0    0  0.30986990694E+02 -0.21272216847E+02 -0.10049427783E+03  0.10729771982E+03  0.10000000000E+01 0.  0.
    9000005    1    3    3    0    0 -0.30986990694E+02  0.21272216847E+02  0.18792919760E+02  0.42034207914E+02  0.10000000000E+01 0.  0.
<mgrwt>
<rscale>  0 0.12499965E+03</rscale>
<asrwt>0</asrwt>
<pdfrwt beam="1">  1        4 0.52023516E-02 0.12499965E+03</pdfrwt>
<pdfrwt beam="2">  1       -4 0.17771791E-01 0.12499965E+03</pdfrwt>
<totfact> 0.99437816E+03</totfact>
</mgrwt>
</event>
<event>
 5    1  0.3251953E-002  0.1250034E+03  0.7818608E-02  0.1235064E+00
          4   -1    0    0  501    0  0.00000000000E+00  0.00000000000E+00  0.24551051104E+02  0.24583877040E+02  0.12700000000E+01 0.  1.
         -4   -1    0    0    0  501 -0.00000000000E+00 -0.00000000000E+00 -0.15897415840E+03  0.15897923115E+03  0.12700000000E+01 0.  1.
         25    2    1    2    0    0  0.00000000000E+00  0.00000000000E+00 -0.13442310729E+03  0.18356310819E+03  0.12500337161E+03 0.  0.
    9000005    1    3    3    0    0 -0.34354858192E+01  0.43277503908E+02 -0.13322255133E+03  0.14012135130E+03  0.10000000000E+01 0.  0.
    9000005    1    3    3    0    0  0.34354858192E+01 -0.43277503908E+02 -0.12005559639E+01  0.43441756893E+02  0.10000000000E+01 0.  0.
<mgrwt>
<rscale>  0 0.12500337E+03</rscale>
<asrwt>0</asrwt>
<pdfrwt beam="1">  1        4 0.37800002E-02 0.12500337E+03</pdfrwt>
<pdfrwt beam="2">  1       -4 0.24460477E-01 0.12500337E+03</pdfrwt>
<totfact> 0.92972510E+03</totfact>
</mgrwt>
</event>
<event>
 5    1  0.3251953E-002  0.1249894E+03  0.7818608E-02  0.1235086E+00
          4   -1    0    0  501    0  0.00000000000E+00  0.00000000000E+00  0.16166948132E+04  0.16166953120E+04  0.12700000000E+01 0. -1.
         -4   -1    0    0    0  501 -0.00000000000E+00 -0.00000000000E+00 -0.22483388958E+01  0.25822331015E+01  0.12700000000E+01 0. -1.
         25    2    1    2    0    0  0.00000000000E+00  0.00000000000E+00  0.16144464743E+04  0.16192775451E+04  0.12498939860E+03 0.  0.
    9000005    1    3    3    0    0  0.41987671732E+02  0.34254062223E+02  0.12103568987E+04  0.12115696958E+04  0.10000000000E+01 0.  0.
    9000005    1    3    3    0    0 -0.41987671732E+02 -0.34254062223E+02  0.40408957552E+03  0.40770784933E+03  0.10000000000E+01 0.  0.
<mgrwt>
<rscale>  0 0.12498940E+03</rscale>
<asrwt>0</asrwt>
<pdfrwt beam="1">  1        4 0.24874768E+00 0.12498940E+03</pdfrwt>
<pdfrwt beam="2">  1       -4 0.37162132E-03 0.12498940E+03</pdfrwt>
<totfact> 0.15703848E+03</totfact>
</mgrwt>
</event>
<event>
 5    1  0.3251953E-002  0.1249981E+03  0.7818608E-02  0.1235072E+00
          4   -1    0    0  501    0  0.00000000000E+00  0.00000000000E+00  0.68627054684E+03  0.68627172196E+03  0.12700000000E+01 0. -1.
         -4   -1    0    0    0  501 -0.00000000000E+00 -0.00000000000E+00 -0.56197897842E+01  0.57615047703E+01  0.12700000000E+01 0. -1.
         25    2    1    2    0    0  0.00000000000E+00  0.00000000000E+00  0.68065075706E+03  0.69203322673E+03  0.12499813525E+03 0.  0.
    9000005    1    3    3    0    0 -0.17490017896E+02  0.56724671243E+02  0.44846776637E+03  0.45238028972E+03  0.10000000000E+01 0.  0.
    9000005    1    3    3    0    0  0.17490017896E+02 -0.56724671243E+02  0.23218299069E+03  0.23965293702E+03  0.10000000000E+01 0.  0.
<mgrwt>
<rscale>  0 0.12499814E+03</rscale>
<asrwt>0</asrwt>
<pdfrwt beam="1">  1        4 0.10559096E+00 0.12499814E+03</pdfrwt>
<pdfrwt beam="2">  1       -4 0.87557554E-03 0.12499814E+03</pdfrwt>
<totfact> 0.43512408E+03</totfact>
</mgrwt>
</event>
<event>
 5    1  0.3251953E-002  0.1249980E+03  0.7818608E-02  0.1235072E+00
         -4   -1    0    0    0  501 -0.00000000000E+00  0.00000000000E+00  0.30667044000E+03  0.30667306969E+03  0.12700000000E+01 0.  1.
          4   -1    0    0  501    0  0.00000000000E+00 -0.00000000000E+00 -0.12702867441E+02  0.12766195252E+02  0.12700000000E+01 0.  1.
         25    2    1    2    0    0  0.00000000000E+00  0.00000000000E+00  0.29396757256E+03  0.31943926494E+03  0.12499804105E+03 0.  0.
    9000005    1    3    3    0    0 -0.22733563393E+02  0.25922159709E+02  0.13791737775E+02  0.37148153377E+02  0.10000000000E+01 0.  0.
    9000005    1    3    3    0    0  0.22733563393E+02 -0.25922159709E+02  0.28017583479E+03  0.28229111156E+03  0.10000000000E+01 0.  0.
<mgrwt>
<rscale>  0 0.12499804E+03</rscale>
<asrwt>0</asrwt>
<pdfrwt beam="2">  1        4 0.19593611E-02 0.12499804E+03</pdfrwt>
<pdfrwt beam="1">  1       -4 0.47185138E-01 0.12499804E+03</pdfrwt>
<totfact> 0.73226047E+03</totfact>
</mgrwt>
</event>
<event>
 5    1  0.3251953E-002  0.1249992E+03  0.7818608E-02  0.1235070E+00
          4   -1    0    0  501    0  0.00000000000E+00  0.00000000000E+00  0.13041373943E+02  0.13103065837E+02  0.12700000000E+01 0.  1.
         -4   -1    0    0    0  501 -0.00000000000E+00 -0.00000000000E+00 -0.29875398633E+03  0.29875668570E+03  0.12700000000E+01 0.  1.
         25    2    1    2    0    0  0.00000000000E+00  0.00000000000E+00 -0.28571261239E+03  0.31185975154E+03  0.12499923100E+03 0.  0.
    9000005    1    3    3    0    0  0.15701957345E+02 -0.55936913822E+02 -0.20027746498E+03  0.20853669407E+03  0.10000000000E+01 0.  0.
    9000005    1    3    3    0    0 -0.15701957345E+02  0.55936913822E+02 -0.85435147408E+02  0.10332305747E+03  0.10000000000E+01 0.  0.
<mgrwt>
<rscale>  0 0.12499923E+03</rscale>
<asrwt>0</asrwt>
<pdfrwt beam="1">  1        4 0.20113186E-02 0.12499923E+03</pdfrwt>
<pdfrwt beam="2">  1       -4 0.45967100E-01 0.12499923E+03</pdfrwt>
<totfact> 0.74136121E+03</totfact>
</mgrwt>
</event>
<event>
 5    1  0.3251953E-002  0.1250017E+03  0.7818608E-02  0.1235067E+00
          4   -1    0    0  501    0  0.00000000000E+00  0.00000000000E+00  0.19347649106E+03  0.19348065922E+03  0.12700000000E+01 0.  1.
         -4   -1    0    0    0  501 -0.00000000000E+00 -0.00000000000E+00 -0.20165965737E+02  0.20205916809E+02  0.12700000000E+01 0.  1.
         25    2    1    2    0    0  0.00000000000E+00  0.00000000000E+00  0.17331052532E+03  0.21368657603E+03  0.12500165834E+03 0.  0.
    9000005    1    3    3    0    0 -0.17926924180E+02 -0.28384838251E+02 -0.34498577677E+01  0.33763518355E+02  0.10000000000E+01 0.  0.
    9000005    1    3    3    0    0  0.17926924180E+02  0.28384838251E+02  0.17676038309E+03  0.17992305767E+03  0.10000000000E+01 0.  0.
<mgrwt>
<rscale>  0 0.12500166E+03</rscale>
<asrwt>0</asrwt>
<pdfrwt beam="1">  1        4 0.29769009E-01 0.12500166E+03</pdfrwt>
<pdfrwt beam="2">  1       -4 0.31058500E-02 0.12500166E+03</pdfrwt>
<totfact> 0.87874074E+03</totfact>
</mgrwt>
</event>
<event>
 5    1  0.3251953E-002  0.1249988E+03  0.7818608E-02  0.1235071E+00
          4   -1    0    0  501    0  0.00000000000E+00  0.00000000000E+00  0.12205778422E+03  0.12206439116E+03  0.12700000000E+01 0.  1.
         -4   -1    0    0    0  501 -0.00000000000E+00 -0.00000000000E+00 -0.31982594350E+02  0.32007799696E+02  0.12700000000E+01 0.  1.
         25    2    1    2    0    0  0.00000000000E+00  0.00000000000E+00  0.90075189873E+02  0.15407219086E+03  0.12499880065E+03 0.  0.
    9000005    1    3    3    0    0 -0.48039395190E+02  0.34117907417E+02  0.19378413623E+02  0.62034974098E+02  0.10000000000E+01 0.  0.
    9000005    1    3    3    0    0  0.48039395190E+02 -0.34117907417E+02  0.70696776250E+02  0.92037216760E+02  0.10000000000E+01 0.  0.
<mgrwt>
<rscale>  0 0.12499880E+03</rscale>
<asrwt>0</asrwt>
<pdfrwt beam="1">  1        4 0.18780568E-01 0.12499880E+03</pdfrwt>
<pdfrwt beam="2">  1       -4 0.49228461E-02 0.12499880E+03</pdfrwt>
<totfact> 0.98500604E+03</totfact>
</mgrwt>
</event>
<event>
 5    1  0.3251953E-002  0.1249985E+03  0.7818608E-02  0.1235072E+00
          4   -1    0    0  501    0  0.00000000000E+00  0.00000000000E+00  0.52387587733E+02  0.52402979385E+02  0.12700000000E+01 0.  1.
         -4   -1    0    0    0  501 -0.00000000000E+00 -0.00000000000E+00 -0.74530840401E+02  0.74541659969E+02  0.12700000000E+01 0.  1.
         25    2    1    2    0    0  0.00000000000E+00  0.00000000000E+00 -0.22143252668E+02  0.12694463935E+03  0.12499847128E+03 0.  0.
    9000005    1    3    3    0    0 -0.44226241155E+02  0.44146813149E+02 -0.11582385705E+02  0.63561412638E+02  0.10000000000E+01 0.  0.
    9000005    1    3    3    0    0  0.44226241155E+02 -0.44146813149E+02 -0.10560866963E+02  0.63383226716E+02  0.10000000000E+01 0.  0.
<mgrwt>
<rscale>  0 0.12499847E+03</rscale>
<asrwt>0</asrwt>
<pdfrwt beam="1">  1        4 0.80616451E-02 0.12499847E+03</pdfrwt>
<pdfrwt beam="2">  1       -4 0.11468299E-01 0.12499847E+03</pdfrwt>
<totfact> 0.10410708E+04</totfact>
</mgrwt>
</event>
<event>
 5    1  0.3251953E-002  0.1249835E+03  0.7818608E-02  0.1235095E+00
          4   -1    0    0  501    0  0.00000000000E+00  0.00000000000E+00  0.84828011722E+01  0.85773431625E+01  0.12700000000E+01 0. -1.
         -4   -1    0    0    0  501 -0.00000000000E+00 -0.00000000000E+00 -0.45772236228E+03  0.45772412416E+03  0.12700000000E+01 0. -1.
         25    2    1    2    0    0  0.00000000000E+00  0.00000000000E+00 -0.44923956111E+03  0.46630146732E+03  0.12498349953E+03 0.  0.
    9000005    1    3    3    0    0 -0.46029505350E+01  0.30694002389E+02 -0.22292260912E+02  0.38226349981E+02  0.10000000000E+01 0.  0.
    9000005    1    3    3    0    0  0.46029505350E+01 -0.30694002389E+02 -0.42694730020E+03  0.42807511734E+03  0.10000000000E+01 0.  0.
<mgrwt>
<rscale>  0 0.12498350E+03</rscale>
<asrwt>0</asrwt>
<pdfrwt beam="1">  1        4 0.13124547E-02 0.12498350E+03</pdfrwt>
<pdfrwt beam="2">  1       -4 0.70426214E-01 0.12498350E+03</pdfrwt>
<totfact> 0.58598453E+03</totfact>
</mgrwt>
</event>
<event>
 5    1  0.3251953E-002  0.1250005E+03  0.7818608E-02  0.1235068E+00
         -4   -1    0    0    0  501 -0.00000000000E+00  0.00000000000E+00  0.38168212054E+03  0.38168423342E+03  0.12700000000E+01 0.  1.
          4   -1    0    0  501    0  0.00000000000E+00 -0.00000000000E+00 -0.10192841721E+02  0.10271656261E+02  0.12700000000E+01 0.  1.
         25    2    1    2    0    0  0.00000000000E+00  0.00000000000E+00  0.37148927882E+03  0.39195588968E+03  0.12500054071E+03 0.  0.
    9000005    1    3    3    0    0 -0.27814614486E+02  0.10735623437E+02  0.35795851583E+03  0.35919939511E+03  0.10000000000E+01 0.  0.
    9000005    1    3    3    0    0  0.27814614486E+02 -0.10735623437E+02  0.13530762987E+02  0.32756494571E+02  0.10000000000E+01 0.  0.
<mgrwt>
<rscale>  0 0.12500054E+03</rscale>
<asrwt>0</asrwt>
<pdfrwt beam="2">  1        4 0.15743548E-02 0.12500054E+03</pdfrwt>
<pdfrwt beam="1">  1       -4 0.58726546E-01 0.12500054E+03</pdfrwt>
<totfact> 0.65341963E+03</totfact>
</mgrwt>
</event>
<event>
 5    1  0.3251953E-002  0.1250016E+03  0.7818608E-02  0.1235067E+00
          4   -1    0    0  501    0  0.00000000000E+00  0.00000000000E+00  0.33675749042E+02  0.33699688033E+02  0.12700000000E+01 0. -1.
         -4   -1    0    0    0  501 -0.00000000000E+00 -0.00000000000E+00 -0.11593033371E+03  0.11593728984E+03  0.12700000000E+01 0. -1.
         25    2    1    2    0    0  0.00000000000E+00  0.00000000000E+00 -0.82254584672E+02  0.14963697787E+03  0.12500163378E+03 0.  0.
    9000005    1    3    3    0    0 -0.59319450900E+02  0.26963781274E+01 -0.17813886157E+02  0.62003243868E+02  0.10000000000E+01 0.  0.
    9000005    1    3    3    0    0  0.59319450900E+02 -0.26963781274E+01 -0.64440698515E+02  0.87633734003E+02  0.10000000000E+01 0.  0.
<mgrwt>
<rscale>  0 0.12500163E+03</rscale>
<asrwt>0</asrwt>
<pdfrwt beam="1">  1        4 0.51832611E-02 0.12500163E+03</pdfrwt>
<pdfrwt beam="2">  1       -4 0.17837812E-01 0.12500163E+03</pdfrwt>
<totfact> 0.99372456E+03</totfact>
</mgrwt>
</event>
<event>
 5    1  0.3251953E-002  0.1250125E+03  0.7818608E-02  0.1235050E+00
          4   -1    0    0  501    0  0.00000000000E+00  0.00000000000E+00  0.34287463214E+01  0.36563918467E+01  0.12700000000E+01 0.  1.
         -4   -1    0    0    0  501 -0.00000000000E+00 -0.00000000000E+00 -0.11026534196E+04  0.11026541510E+04  0.12700000000E+01 0.  1.
         25    2    1    2    0    0  0.00000000000E+00  0.00000000000E+00 -0.10992246733E+04  0.11063105428E+04  0.12501253860E+03 0.  0.
    9000005    1    3    3    0    0  0.57633321461E+02  0.20352354819E+02 -0.66507010869E+03  0.66787354160E+03  0.10000000000E+01 0.  0.
    9000005    1    3    3    0    0 -0.57633321461E+02 -0.20352354819E+02 -0.43415456460E+03  0.43843700124E+03  0.10000000000E+01 0.  0.
<mgrwt>
<rscale>  0 0.12501254E+03</rscale>
<asrwt>0</asrwt>
<pdfrwt beam="1">  1        4 0.54506777E-03 0.12501254E+03</pdfrwt>
<pdfrwt beam="2">  1       -4 0.16965628E+00 0.12501254E+03</pdfrwt>
<totfact> 0.27292018E+03</totfact>
</mgrwt>
</event>
<event>
 5    1  0.3251953E-002  0.1250106E+03  0.7818608E-02  0.1235053E+00
          4   -1    0    0  501    0  0.00000000000E+00  0.00000000000E+00  0.61612445819E+03  0.61612576709E+03  0.12700000000E+01 0. -1.
         -4   -1    0    0    0  501 -0.00000000000E+00 -0.00000000000E+00 -0.62761958571E+01  0.64034002246E+01  0.12700000000E+01 0. -1.
         25    2    1    2    0    0  0.00000000000E+00  0.00000000000E+00  0.60984826233E+03  0.62252916732E+03  0.12501064393E+03 0.  0.
    9000005    1    3    3    0    0 -0.19093363032E+02  0.58868923447E+02  0.26156585669E+03  0.26878951625E+03  0.10000000000E+01 0.  0.
    9000005    1    3    3    0    0  0.19093363032E+02 -0.58868923447E+02  0.34828240564E+03  0.35373965106E+03  0.10000000000E+01 0.  0.
<mgrwt>
<rscale>  0 0.12501064E+03</rscale>
<asrwt>0</asrwt>
<pdfrwt beam="1">  1        4 0.94798265E-01 0.12501064E+03</pdfrwt>
<pdfrwt beam="2">  1       -4 0.97545422E-03 0.12501064E+03</pdfrwt>
<totfact> 0.47464626E+03</totfact>
</mgrwt>
</event>
<event>
 5    1  0.3251953E-002  0.1249982E+03  0.7818608E-02  0.1235072E+00
         -4   -1    0    0    0  501 -0.00000000000E+00  0.00000000000E+00  0.96161616097E+02  0.96170002134E+02  0.12700000000E+01 0. -1.
          4   -1    0    0  501    0  0.00000000000E+00 -0.00000000000E+00 -0.40600452040E+02  0.40620310262E+02  0.12700000000E+01 0. -1.
         25    2    1    2    0    0  0.00000000000E+00  0.00000000000E+00  0.55561164058E+02  0.13679031240E+03  0.12499818644E+03 0.  0.
    9000005    1    3    3    0    0 -0.58212575062E+02 -0.94014086987E+01  0.50421654206E+02  0.77591453097E+02  0.10000000000E+01 0.  0.
    9000005    1    3    3    0    0  0.58212575062E+02  0.94014086987E+01  0.51395098513E+01  0.59198859299E+02  0.10000000000E+01 0.  0.
<mgrwt>
<rscale>  0 0.12499819E+03</rscale>
<asrwt>0</asrwt>
<pdfrwt beam="2">  1        4 0.62483961E-02 0.12499819E+03</pdfrwt>
<pdfrwt beam="1">  1       -4 0.14796267E-01 0.12499819E+03</pdfrwt>
<totfact> 0.10200889E+04</totfact>
</mgrwt>
</event>
<event>
 5    1  0.3251953E-002  0.1250008E+03  0.7818608E-02  0.1235068E+00
          4   -1    0    0  501    0  0.00000000000E+00  0.00000000000E+00  0.11786208950E+03  0.11786893162E+03  0.12700000000E+01 0. -1.
         -4   -1    0    0    0  501 -0.00000000000E+00 -0.00000000000E+00 -0.33123004958E+02  0.33147343143E+02  0.12700000000E+01 0. -1.
         25    2    1    2    0    0  0.00000000000E+00  0.00000000000E+00  0.84739084544E+02  0.15101627477E+03  0.12500081118E+03 0.  0.
    9000005    1    3    3    0    0  0.24644959719E+02  0.73393892516E+01  0.11118014506E+03  0.11411952212E+03  0.10000000000E+01 0.  0.
    9000005    1    3    3    0    0 -0.24644959719E+02 -0.73393892516E+01 -0.26441060517E+02  0.36896752641E+02  0.10000000000E+01 0.  0.
<mgrwt>
<rscale>  0 0.12500081E+03</rscale>
<asrwt>0</asrwt>
<pdfrwt beam="1">  1        4 0.18135028E-01 0.12500081E+03</pdfrwt>
<pdfrwt beam="2">  1       -4 0.50982453E-02 0.12500081E+03</pdfrwt>
<totfact> 0.99099694E+03</totfact>
</mgrwt>
</event>
<event>
 5    1  0.3251953E-002  0.1250013E+03  0.7818608E-02  0.1235067E+00
         -4   -1    0    0    0  501 -0.00000000000E+00  0.00000000000E+00  0.85059372849E+02  0.85068853345E+02  0.12700000000E+01 0. -1.
          4   -1    0    0  501    0  0.00000000000E+00 -0.00000000000E+00 -0.45903958677E+02  0.45921523518E+02  0.12700000000E+01 0. -1.
         25    2    1    2    0    0  0.00000000000E+00  0.00000000000E+00  0.39155414172E+02  0.13099037686E+03  0.12500132948E+03 0.  0.
    9000005    1    3    3    0    0 -0.21813353829E+02  0.43141122563E+02  0.61077586958E+02  0.77900259883E+02  0.10000000000E+01 0.  0.
    9000005    1    3    3    0    0  0.21813353829E+02 -0.43141122563E+02 -0.21922172786E+02  0.53090116980E+02  0.10000000000E+01 0.  0.
<mgrwt>
<rscale>  0 0.12500133E+03</rscale>
<asrwt>0</asrwt>
<pdfrwt beam="2">  1        4 0.70642280E-02 0.12500133E+03</pdfrwt>
<pdfrwt beam="1">  1       -4 0.13088138E-01 0.12500133E+03</pdfrwt>
<totfact> 0.10322986E+04</totfact>
</mgrwt>
</event>
<event>
 5    1  0.3251953E-002  0.1250035E+03  0.7818608E-02  0.1235064E+00
         -4   -1    0    0    0  501 -0.00000000000E+00  0.00000000000E+00  0.12485211330E+02  0.12549637523E+02  0.12700000000E+01 0.  1.
          4   -1    0    0  501    0  0.00000000000E+00 -0.00000000000E+00 -0.31201666916E+03  0.31201925378E+03  0.12700000000E+01 0.  1.
         25    2    1    2    0    0  0.00000000000E+00  0.00000000000E+00 -0.29953145783E+03  0.32456889131E+03  0.12500348386E+03 0.  0.
    9000005    1    3    3    0    0  0.38273736751E+02  0.32893386283E+02 -0.54061129221E+02  0.73962554571E+02  0.10000000000E+01 0.  0.
    9000005    1    3    3    0    0 -0.38273736751E+02 -0.32893386283E+02 -0.24547032861E+03  0.25060633674E+03  0.10000000000E+01 0.  0.
<mgrwt>
<rscale>  0 0.12500348E+03</rscale>
<asrwt>0</asrwt>
<pdfrwt beam="2">  1        4 0.48007713E-01 0.12500348E+03</pdfrwt>
<pdfrwt beam="1">  1       -4 0.19259567E-02 0.12500348E+03</pdfrwt>
<totfact> 0.72610388E+03</totfact>
</mgrwt>
</event>
<event>
 5    1  0.3251953E-002  0.1249995E+03  0.7818608E-02  0.1235070E+00
         -4   -1    0    0    0  501 -0.00000000000E+00  0.00000000000E+00  0.26369480843E+03  0.26369786668E+03  0.12700000000E+01 0. -1.
          4   -1    0    0  501    0  0.00000000000E+00 -0.00000000000E+00 -0.14783032581E+02  0.14837484702E+02  0.12700000000E+01 0. -1.
         25    2    1    2    0    0  0.00000000000E+00  0.00000000000E+00  0.24891177585E+03  0.27853535139E+03  0.12499947926E+03 0.  0.
    9000005    1    3    3    0    0  0.58795290091E+00  0.59587774207E+02  0.16639095569E+03  0.17674274712E+03  0.10000000000E+01 0.  0.
    9000005    1    3    3    0    0 -0.58795290091E+00 -0.59587774207E+02  0.82520820155E+02  0.10179260426E+03  0.10000000000E+01 0.  0.
<mgrwt>
<rscale>  0 0.12499948E+03</rscale>
<asrwt>0</asrwt>
<pdfrwt beam="2">  1        4 0.22787367E-02 0.12499948E+03</pdfrwt>
<pdfrwt beam="1">  1       -4 0.40572853E-01 0.12499948E+03</pdfrwt>
<totfact> 0.78373617E+03</totfact>
</mgrwt>
</event>
<event>
 5    1  0.3251953E-002  0.1250008E+03  0.7818608E-02  0.1235068E+00
         -4   -1    0    0    0  501 -0.00000000000E+00  0.00000000000E+00  0.11641327615E+04  0.11641334543E+04  0.12700000000E+01 0.  1.
          4   -1    0    0  501    0  0.00000000000E+00 -0.00000000000E+00 -0.32346612855E+01  0.34750444072E+01  0.12700000000E+01 0.  1.
         25    2    1    2    0    0  0.00000000000E+00  0.00000000000E+00  0.11608981002E+04  0.11676084987E+04  0.12500082819E+03 0.  0.
    9000005    1    3    3    0    0  0.55736424384E+01  0.23067651978E+02  0.11204510366E+04  0.11207027739E+04  0.10000000000E+01 0.  0.
    9000005    1    3    3    0    0 -0.55736424384E+01 -0.23067651978E+02  0.40447063624E+02  0.46905724743E+02  0.10000000000E+01 0.  0.
<mgrwt>
<rscale>  0 0.12500083E+03</rscale>
<asrwt>0</asrwt>
<pdfrwt beam="2">  1        4 0.51618329E-03 0.12500083E+03</pdfrwt>
<pdfrwt beam="1">  1       -4 0.17911631E+00 0.12500083E+03</pdfrwt>
<totfact> 0.25576147E+03</totfact>
</mgrwt>
</event>
<event>
 5    1  0.3251953E-002  0.1249947E+03  0.7818608E-02  0.1235078E+00
         -4   -1    0    0    0  501 -0.00000000000E+00  0.00000000000E+00  0.16732204102E+03  0.16732686070E+03  0.12700000000E+01 0.  1.
          4   -1    0    0  501    0  0.00000000000E+00 -0.00000000000E+00 -0.23321289042E+02  0.23355843435E+02  0.12700000000E+01 0.  1.
         25    2    1    2    0    0  0.00000000000E+00  0.00000000000E+00  0.14400075198E+03  0.19068270413E+03  0.12499470823E+03 0.  0.
    9000005    1    3    3    0    0  0.23373653146E+02 -0.52574313995E+02  0.34803394308E+02  0.67250742812E+02  0.10000000000E+01 0.  0.
    9000005    1    3    3    0    0 -0.23373653146E+02  0.52574313995E+02  0.10919735767E+03  0.12343196132E+03  0.10000000000E+01 0.  0.
<mgrwt>
<rscale>  0 0.12499471E+03</rscale>
<asrwt>0</asrwt>
<pdfrwt beam="2">  1        4 0.35909195E-02 0.12499471E+03</pdfrwt>
<pdfrwt beam="1">  1       -4 0.25744881E-01 0.12499471E+03</pdfrwt>
<totfact> 0.91739535E+03</totfact>
</mgrwt>
</event>
<event>
 5    1  0.3251953E-002  0.1249976E+03  0.7818608E-02  0.1235073E+00
         -4   -1    0    0    0  501 -0.00000000000E+00  0.00000000000E+00  0.12772664202E+02  0.12835647659E+02  0.12700000000E+01 0. -1.
          4   -1    0    0  501    0  0.00000000000E+00 -0.00000000000E+00 -0.30500093574E+03  0.30500357981E+03  0.12700000000E+01 0. -1.
         25    2    1    2    0    0  0.00000000000E+00  0.00000000000E+00 -0.29222827153E+03  0.31783922747E+03  0.12499764733E+03 0.  0.
    9000005    1    3    3    0    0 -0.11053573550E+02  0.22507676712E+02 -0.29165977875E+03  0.29273743106E+03  0.10000000000E+01 0.  0.
    9000005    1    3    3    0    0  0.11053573550E+02 -0.22507676712E+02 -0.56849277847E+00  0.25101796414E+02  0.10000000000E+01 0.  0.
<mgrwt>
<rscale>  0 0.12499765E+03</rscale>
<asrwt>0</asrwt>
<pdfrwt beam="2">  1        4 0.46928264E-01 0.12499765E+03</pdfrwt>
<pdfrwt beam="1">  1       -4 0.19700738E-02 0.12499765E+03</pdfrwt>
<totfact> 0.73417691E+03</totfact>
</mgrwt>
</event>
<event>
 5    1  0.3251953E-002  0.1249984E+03  0.7818608E-02  0.1235072E+00
         -4   -1    0    0    0  501 -0.00000000000E+00  0.00000000000E+00  0.13465699927E+03  0.13466298805E+03  0.12700000000E+01 0.  1.
          4   -1    0    0  501    0  0.00000000000E+00 -0.00000000000E+00 -0.28987591215E+02  0.29015398402E+02  0.12700000000E+01 0.  1.
         25    2    1    2    0    0  0.00000000000E+00  0.00000000000E+00  0.10566940805E+03  0.16367838646E+03  0.12499836157E+03 0.  0.
    9000005    1    3    3    0    0 -0.14351604412E+02 -0.36293769728E+02 -0.11072901312E+02  0.40580973543E+02  0.10000000000E+01 0.  0.
    9000005    1    3    3    0    0  0.14351604412E+02  0.36293769728E+02  0.11674230936E+03  0.12309741291E+03  0.10000000000E+01 0.  0.
<mgrwt>
<rscale>  0 0.12499836E+03</rscale>
<asrwt>0</asrwt>
<pdfrwt beam="2">  1        4 0.44622291E-02 0.12499836E+03</pdfrwt>
<pdfrwt beam="1">  1       -4 0.20719061E-01 0.12499836E+03</pdfrwt>
<totfact> 0.96641829E+03</totfact>
</mgrwt>
</event>
<event>
 5    1  0.3251953E-002  0.1249969E+03  0.7818608E-02  0.1235074E+00
         -4   -1    0    0    0  501 -0.00000000000E+00  0.00000000000E+00  0.31492727236E+02  0.31518324333E+02  0.12700000000E+01 0. -1.
          4   -1    0    0  501    0  0.00000000000E+00 -0.00000000000E+00 -0.12395118653E+03  0.12395769255E+03  0.12700000000E+01 0. -1.
         25    2    1    2    0    0  0.00000000000E+00  0.00000000000E+00 -0.92458459297E+02  0.15547601689E+03  0.12499690049E+03 0.  0.
    9000005    1    3    3    0    0  0.64437520487E+01  0.43700267166E+02  0.87509997564E+01  0.45042372135E+02  0.10000000000E+01 0.  0.
    9000005    1    3    3    0    0 -0.64437520487E+01 -0.43700267166E+02 -0.10120945905E+03  0.11043364475E+03  0.10000000000E+01 0.  0.
<mgrwt>
<rscale>  0 0.12499690E+03</rscale>
<asrwt>0</asrwt>
<pdfrwt beam="2">  1        4 0.19071883E-01 0.12499690E+03</pdfrwt>
<pdfrwt beam="1">  1       -4 0.48475045E-02 0.12499690E+03</pdfrwt>
<totfact> 0.98228979E+03</totfact>
</mgrwt>
</event>
<event>
 5    1  0.3251953E-002  0.1250152E+03  0.7818608E-02  0.1235045E+00
          4   -1    0    0  501    0  0.00000000000E+00  0.00000000000E+00  0.16479950108E+03  0.16480439453E+03  0.12700000000E+01 0. -1.
         -4   -1    0    0    0  501 -0.00000000000E+00 -0.00000000000E+00 -0.23686570881E+02  0.23720593165E+02  0.12700000000E+01 0. -1.
         25    2    1    2    0    0  0.00000000000E+00  0.00000000000E+00  0.14111293020E+03  0.18852498770E+03  0.12501524674E+03 0.  0.
    9000005    1    3    3    0    0 -0.33566288302E+02 -0.24086277453E+02 -0.16544021749E+00  0.41326406115E+02  0.10000000000E+01 0.  0.
    9000005    1    3    3    0    0  0.33566288302E+02  0.24086277453E+02  0.14127837042E+03  0.14719858158E+03  0.10000000000E+01 0.  0.
<mgrwt>
<rscale>  0 0.12501525E+03</rscale>
<asrwt>0</asrwt>
<pdfrwt beam="1">  1        4 0.25356763E-01 0.12501525E+03</pdfrwt>
<pdfrwt beam="2">  1       -4 0.36470814E-02 0.12501525E+03</pdfrwt>
<totfact> 0.92073143E+03</totfact>
</mgrwt>
</event>
<event>
 5    1  0.3251953E-002  0.1249995E+03  0.7818608E-02  0.1235070E+00
         -4   -1    0    0    0  501 -0.00000000000E+00  0.00000000000E+00  0.52585113313E+02  0.52600447166E+02  0.12700000000E+01 0.  1.
          4   -1    0    0  501    0  0.00000000000E+00 -0.00000000000E+00 -0.74252162680E+02  0.74263022849E+02  0.12700000000E+01 0.  1.
         25    2    1    2    0    0  0.00000000000E+00  0.00000000000E+00 -0.21667049368E+02  0.12686347002E+03  0.12499951598E+03 0.  0.
    9000005    1    3    3    0    0 -0.26281222890E+02  0.27955796230E+02  0.39227353522E+02  0.54881822891E+02  0.10000000000E+01 0.  0.
    9000005    1    3    3    0    0  0.26281222890E+02 -0.27955796230E+02 -0.60894402890E+02  0.71981647125E+02  0.10000000000E+01 0.  0.
<mgrwt>
<rscale>  0 0.12499952E+03</rscale>
<asrwt>0</asrwt>
<pdfrwt beam="2">  1        4 0.11425425E-01 0.12499952E+03</pdfrwt>
<pdfrwt beam="1">  1       -4 0.80920324E-02 0.12499952E+03</pdfrwt>
<totfact> 0.10412227E+04</totfact>
</mgrwt>
</event>
<event>
 5    1  0.3251953E-002  0.1249995E+03  0.7818608E-02  0.1235070E+00
         -4   -1    0    0    0  501 -0.00000000000E+00  0.00000000000E+00  0.84131863457E+02  0.84141448459E+02  0.12700000000E+01 0.  1.
          4   -1    0    0  501    0  0.00000000000E+00 -0.00000000000E+00 -0.46408789790E+02  0.46426163634E+02  0.12700000000E+01 0.  1.
         25    2    1    2    0    0  0.00000000000E+00  0.00000000000E+00  0.37723073668E+02  0.13056761209E+03  0.12499948416E+03 0.  0.
    9000005    1    3    3    0    0  0.38534393520E+02  0.92229259165E+01 -0.31615573051E+02  0.50700160806E+02  0.10000000000E+01 0.  0.
    9000005    1    3    3    0    0 -0.38534393520E+02 -0.92229259165E+01  0.69338646718E+02  0.79867451287E+02  0.10000000000E+01 0.  0.
<mgrwt>
<rscale>  0 0.12499948E+03</rscale>
<asrwt>0</asrwt>
<pdfrwt beam="2">  1        4 0.71418876E-02 0.12499948E+03</pdfrwt>
<pdfrwt beam="1">  1       -4 0.12945437E-01 0.12499948E+03</pdfrwt>
<totfact> 0.10332488E+04</totfact>
</mgrwt>
</event>
<event>
 5    1  0.3251953E-002  0.1249995E+03  0.7818608E-02  0.1235070E+00
          4   -1    0    0  501    0  0.00000000000E+00  0.00000000000E+00  0.51417812288E+03  0.51417969131E+03  0.12700000000E+01 0.  1.
         -4   -1    0    0    0  501 -0.00000000000E+00 -0.00000000000E+00 -0.75423481846E+01  0.76485237881E+01  0.12700000000E+01 0.  1.
         25    2    1    2    0    0  0.00000000000E+00  0.00000000000E+00  0.50663577470E+03  0.52182821510E+03  0.12499951146E+03 0.  0.
    9000005    1    3    3    0    0 -0.18386119651E+02  0.75607359166E-01  0.50265148394E+03  0.50298863747E+03  0.10000000000E+01 0.  0.
    9000005    1    3    3    0    0  0.18386119651E+02 -0.75607359166E-01  0.39842907556E+01  0.18839577626E+02  0.10000000000E+01 0.  0.
<mgrwt>
<rscale>  0 0.12499951E+03</rscale>
<asrwt>0</asrwt>
<pdfrwt beam="1">  1        4 0.79112598E-01 0.12499951E+03</pdfrwt>
<pdfrwt beam="2">  1       -4 0.11686495E-02 0.12499951E+03</pdfrwt>
<totfact> 0.54210255E+03</totfact>
</mgrwt>
</event>
<event>
 5    1  0.3251953E-002  0.1250030E+03  0.7818608E-02  0.1235065E+00
         -4   -1    0    0    0  501 -0.00000000000E+00  0.00000000000E+00  0.25884006500E+02  0.25915144076E+02  0.12700000000E+01 0.  1.
          4   -1    0    0  501    0  0.00000000000E+00 -0.00000000000E+00 -0.15079627208E+03  0.15080161993E+03  0.12700000000E+01 0.  1.
         25    2    1    2    0    0  0.00000000000E+00  0.00000000000E+00 -0.12491226558E+03  0.17671676401E+03  0.12500296232E+03 0.  0.
    9000005    1    3    3    0    0 -0.32831837005E+02 -0.47439762893E+02 -0.28498628563E+02  0.64355516115E+02  0.10000000000E+01 0.  0.
    9000005    1    3    3    0    0  0.32831837005E+02  0.47439762893E+02 -0.96413637019E+02  0.11236124789E+03  0.10000000000E+01 0.  0.
<mgrwt>
<rscale>  0 0.12500296E+03</rscale>
<asrwt>0</asrwt>
<pdfrwt beam="2">  1        4 0.23202232E-01 0.12500296E+03</pdfrwt>
<pdfrwt beam="1">  1       -4 0.39849615E-02 0.12500296E+03</pdfrwt>
<totfact> 0.94205098E+03</totfact>
</mgrwt>
</event>
<event>
 5    1  0.3251953E-002  0.1249998E+03  0.7818608E-02  0.1235070E+00
         -4   -1    0    0    0  501 -0.00000000000E+00  0.00000000000E+00  0.10666991663E+04  0.10666999223E+04  0.12700000000E+01 0. -1.
          4   -1    0    0  501    0  0.00000000000E+00 -0.00000000000E+00 -0.35510957908E+01  0.37713633232E+01  0.12700000000E+01 0. -1.
         25    2    1    2    0    0  0.00000000000E+00  0.00000000000E+00  0.10631480705E+04  0.10704712856E+04  0.12499981426E+03 0.  0.
    9000005    1    3    3    0    0 -0.13799150729E+02  0.47612704883E+01  0.11212185996E+02  0.18433647830E+02  0.10000000000E+01 0.  0.
    9000005    1    3    3    0    0  0.13799150729E+02 -0.47612704883E+01  0.10519358845E+04  0.10520376378E+04  0.10000000000E+01 0.  0.
<mgrwt>
<rscale>  0 0.12499981E+03</rscale>
<asrwt>0</asrwt>
<pdfrwt beam="2">  1        4 0.56332334E-03 0.12499981E+03</pdfrwt>
<pdfrwt beam="1">  1       -4 0.16412483E+00 0.12499981E+03</pdfrwt>
<totfact> 0.28364153E+03</totfact>
</mgrwt>
</event>
<event>
 5    1  0.3251953E-002  0.1249959E+03  0.7818608E-02  0.1235076E+00
          4   -1    0    0  501    0  0.00000000000E+00  0.00000000000E+00  0.18704840449E+02  0.18747905382E+02  0.12700000000E+01 0. -1.
         -4   -1    0    0    0  501 -0.00000000000E+00 -0.00000000000E+00 -0.20853758581E+03  0.20854145294E+03  0.12700000000E+01 0. -1.
         25    2    1    2    0    0  0.00000000000E+00  0.00000000000E+00 -0.18983274536E+03  0.22728935832E+03  0.12499592472E+03 0.  0.
    9000005    1    3    3    0    0  0.41575490770E+02  0.15077345885E+02 -0.17519604704E+03  0.18069450099E+03  0.10000000000E+01 0.  0.
    9000005    1    3    3    0    0 -0.41575490770E+02 -0.15077345885E+02 -0.14636698319E+02  0.46594857327E+02  0.10000000000E+01 0.  0.
<mgrwt>
<rscale>  0 0.12499592E+03</rscale>
<asrwt>0</asrwt>
<pdfrwt beam="1">  1        4 0.28812781E-02 0.12499592E+03</pdfrwt>
<pdfrwt beam="2">  1       -4 0.32086314E-01 0.12499592E+03</pdfrwt>
<totfact> 0.85735362E+03</totfact>
</mgrwt>
</event>
<event>
 5    1  0.3251953E-002  0.1249970E+03  0.7818608E-02  0.1235074E+00
         -4   -1    0    0    0  501 -0.00000000000E+00  0.00000000000E+00  0.50186342702E+02  0.50202409243E+02  0.12700000000E+01 0. -1.
          4   -1    0    0  501    0  0.00000000000E+00 -0.00000000000E+00 -0.77797513793E+02  0.77807879115E+02  0.12700000000E+01 0. -1.
         25    2    1    2    0    0  0.00000000000E+00  0.00000000000E+00 -0.27611171091E+02  0.12801028836E+03  0.12499702859E+03 0.  0.
    9000005    1    3    3    0    0  0.24530596649E+02 -0.49461841453E+02 -0.43783067039E+02  0.70471135163E+02  0.10000000000E+01 0.  0.
    9000005    1    3    3    0    0 -0.24530596649E+02  0.49461841453E+02  0.16171895948E+02  0.57539153195E+02  0.10000000000E+01 0.  0.
<mgrwt>
<rscale>  0 0.12499703E+03</rscale>
<asrwt>0</asrwt>
<pdfrwt beam="2">  1        4 0.11970881E-01 0.12499703E+03</pdfrwt>
<pdfrwt beam="1">  1       -4 0.77230091E-02 0.12499703E+03</pdfrwt>
<totfact> 0.10387962E+04</totfact>
</mgrwt>
</event>
<event>
 5    1  0.3251953E-002  0.1249984E+03  0.7818608E-02  0.1235072E+00
          4   -1    0    0  501    0  0.00000000000E+00  0.00000000000E+00  0.13427462068E+02  0.13487388094E+02  0.12700000000E+01 0. -1.
         -4   -1    0    0    0  501 -0.00000000000E+00 -0.00000000000E+00 -0.29019864444E+03  0.29020142338E+03  0.12700000000E+01 0. -1.
         25    2    1    2    0    0  0.00000000000E+00  0.00000000000E+00 -0.27677118237E+03  0.30368881148E+03  0.12499842730E+03 0.  0.
    9000005    1    3    3    0    0  0.49723062770E+02 -0.36885103279E+02 -0.15903781796E+03  0.17066611075E+03  0.10000000000E+01 0.  0.
    9000005    1    3    3    0    0 -0.49723062770E+02  0.36885103279E+02 -0.11773336441E+03  0.13302270073E+03  0.10000000000E+01 0.  0.
<mgrwt>
<rscale>  0 0.12499843E+03</rscale>
<asrwt>0</asrwt>
<pdfrwt beam="1">  1        4 0.20705871E-02 0.12499843E+03</pdfrwt>
<pdfrwt beam="2">  1       -4 0.44650764E-01 0.12499843E+03</pdfrwt>
<totfact> 0.75141063E+03</totfact>
</mgrwt>
</event>
<event>
 5    1  0.3251953E-002  0.1249985E+03  0.7818608E-02  0.1235072E+00
         -4   -1    0    0    0  501 -0.00000000000E+00  0.00000000000E+00  0.59431545848E+02  0.59445113693E+02  0.12700000000E+01 0.  1.
          4   -1    0    0  501    0  0.00000000000E+00 -0.00000000000E+00 -0.65698109951E+02  0.65710383891E+02  0.12700000000E+01 0.  1.
         25    2    1    2    0    0  0.00000000000E+00  0.00000000000E+00 -0.62665641022E+01  0.12515549758E+03  0.12499851499E+03 0.  0.
    9000005    1    3    3    0    0  0.19442973751E+02  0.51384180618E+02 -0.32949766517E+02  0.64070666920E+02  0.10000000000E+01 0.  0.
    9000005    1    3    3    0    0 -0.19442973751E+02 -0.51384180618E+02  0.26683202415E+02  0.61084830663E+02  0.10000000000E+01 0.  0.
<mgrwt>
<rscale>  0 0.12499851E+03</rscale>
<asrwt>0</asrwt>
<pdfrwt beam="2">  1        4 0.10109389E-01 0.12499851E+03</pdfrwt>
<pdfrwt beam="1">  1       -4 0.91453025E-02 0.12499851E+03</pdfrwt>
<totfact> 0.10449837E+04</totfact>
</mgrwt>
</event>
<event>
 5    1  0.3251953E-002  0.1250010E+03  0.7818608E-02  0.1235068E+00
          4   -1    0    0  501    0  0.00000000000E+00  0.00000000000E+00  0.29590831061E+02  0.29618071897E+02  0.12700000000E+01 0. -1.
         -4   -1    0    0    0  501 -0.00000000000E+00 -0.00000000000E+00 -0.13191993402E+03  0.13192604706E+03  0.12700000000E+01 0. -1.
         25    2    1    2    0    0  0.00000000000E+00  0.00000000000E+00 -0.10232910296E+03  0.16154411895E+03  0.12500102822E+03 0.  0.
    9000005    1    3    3    0    0 -0.12271192220E+02 -0.51322541753E+02 -0.79004353686E+01  0.53366678082E+02  0.10000000000E+01 0.  0.
    9000005    1    3    3    0    0  0.12271192220E+02  0.51322541753E+02 -0.94428667590E+02  0.10817744087E+03  0.10000000000E+01 0.  0.
<mgrwt>
<rscale>  0 0.12500103E+03</rscale>
<asrwt>0</asrwt>
<pdfrwt beam="1">  1        4 0.45550013E-02 0.12500103E+03</pdfrwt>
<pdfrwt beam="2">  1       -4 0.20297940E-01 0.12500103E+03</pdfrwt>
<totfact> 0.97043672E+03</totfact>
</mgrwt>
</event>
<event>
 5    1  0.3251953E-002  0.1249931E+03  0.7818608E-02  0.1235080E+00
         -4   -1    0    0    0  501 -0.00000000000E+00  0.00000000000E+00  0.12470499039E+02  0.12535000849E+02  0.12700000000E+01 0.  1.
          4   -1    0    0  501    0  0.00000000000E+00 -0.00000000000E+00 -0.31233082847E+03  0.31233341050E+03  0.12700000000E+01 0.  1.
         25    2    1    2    0    0  0.00000000000E+00  0.00000000000E+00 -0.29986032943E+03  0.32486841135E+03  0.12499306991E+03 0.  0.
    9000005    1    3    3    0    0  0.18742071837E+02  0.62656850539E+01  0.41477961778E+01  0.20217029433E+02  0.10000000000E+01 0.  0.
    9000005    1    3    3    0    0 -0.18742071837E+02 -0.62656850539E+01 -0.30400812561E+03  0.30465138191E+03  0.10000000000E+01 0.  0.
<mgrwt>
<rscale>  0 0.12499307E+03</rscale>
<asrwt>0</asrwt>
<pdfrwt beam="2">  1        4 0.48056051E-01 0.12499307E+03</pdfrwt>
<pdfrwt beam="1">  1       -4 0.19236988E-02 0.12499307E+03</pdfrwt>
<totfact> 0.72591960E+03</totfact>
</mgrwt>
</event>
<event>
 5    1  0.3251953E-002  0.1250023E+03  0.7818608E-02  0.1235066E+00
         -4   -1    0    0    0  501 -0.00000000000E+00  0.00000000000E+00  0.16213654031E+03  0.16214151413E+03  0.12700000000E+01 0.  1.
          4   -1    0    0  501    0  0.00000000000E+00 -0.00000000000E+00 -0.24071153362E+02  0.24104632837E+02  0.12700000000E+01 0.  1.
         25    2    1    2    0    0  0.00000000000E+00  0.00000000000E+00  0.13806538695E+03  0.18624614696E+03  0.12500230472E+03 0.  0.
    9000005    1    3    3    0    0  0.19623037651E+02 -0.42248345243E+02  0.69643657461E+01  0.47111449486E+02  0.10000000000E+01 0.  0.
    9000005    1    3    3    0    0 -0.19623037651E+02  0.42248345243E+02  0.13110102120E+03  0.13913469748E+03  0.10000000000E+01 0.  0.
<mgrwt>
<rscale>  0 0.12500230E+03</rscale>
<asrwt>0</asrwt>
<pdfrwt beam="2">  1        4 0.37062123E-02 0.12500230E+03</pdfrwt>
<pdfrwt beam="1">  1       -4 0.24947041E-01 0.12500230E+03</pdfrwt>
<totfact> 0.92499829E+03</totfact>
</mgrwt>
</event>
<event>
 5    1  0.3251953E-002  0.1250078E+03  0.7818608E-02  0.1235057E+00
          4   -1    0    0  501    0  0.00000000000E+00  0.00000000000E+00  0.10146824941E+03  0.10147619690E+03  0.12700000000E+01 0.  1.
         -4   -1    0    0    0  501 -0.00000000000E+00 -0.00000000000E+00 -0.38482145135E+02  0.38503095904E+02  0.12700000000E+01 0.  1.
         25    2    1    2    0    0  0.00000000000E+00  0.00000000000E+00  0.62986104274E+02  0.13997929281E+03  0.12500781209E+03 0.  0.
    9000005    1    3    3    0    0 -0.54412001089E+02 -0.22645060958E+02  0.54774286824E+02  0.80465440689E+02  0.10000000000E+01 0.  0.
    9000005    1    3    3    0    0  0.54412001089E+02  0.22645060958E+02  0.82118174507E+01  0.59513852120E+02  0.10000000000E+01 0.  0.
<mgrwt>
<rscale>  0 0.12500781E+03</rscale>
<asrwt>0</asrwt>
<pdfrwt beam="1">  1        4 0.15612723E-01 0.12500781E+03</pdfrwt>
<pdfrwt beam="2">  1       -4 0.59225530E-02 0.12500781E+03</pdfrwt>
<totfact> 0.10132232E+04</totfact>
</mgrwt>
</event>
<event>
 5    1  0.3251953E-002  0.1250050E+03  0.7818608E-02  0.1235062E+00
         -4   -1    0    0    0  501 -0.00000000000E+00  0.00000000000E+00  0.18942850967E+02  0.18985376024E+02  0.12700000000E+01 0. -1.
          4   -1    0    0  501    0  0.00000000000E+00 -0.00000000000E+00 -0.20595300667E+03  0.20595692233E+03  0.12700000000E+01 0. -1.
         25    2    1    2    0    0  0.00000000000E+00  0.00000000000E+00 -0.18701015570E+03  0.22494229836E+03  0.12500495692E+03 0.  0.
    9000005    1    3    3    0    0 -0.43953758564E+01  0.46176787343E+02 -0.16886698032E+03  0.17512473287E+03  0.10000000000E+01 0.  0.
    9000005    1    3    3    0    0  0.43953758564E+01 -0.46176787343E+02 -0.18143175379E+02  0.49817565488E+02  0.10000000000E+01 0.  0.
<mgrwt>
<rscale>  0 0.12500496E+03</rscale>
<asrwt>0</asrwt>
<pdfrwt beam="2">  1        4 0.31688649E-01 0.12500496E+03</pdfrwt>
<pdfrwt beam="1">  1       -4 0.29178573E-02 0.12500496E+03</pdfrwt>
<totfact> 0.86082760E+03</totfact>
</mgrwt>
</event>
<event>
 5    1  0.3251953E-002  0.1249991E+03  0.7818608E-02  0.1235071E+00
         -4   -1    0    0    0  501 -0.00000000000E+00  0.00000000000E+00  0.35072623000E+03  0.35072852937E+03  0.12700000000E+01 0. -1.
          4   -1    0    0  501    0  0.00000000000E+00 -0.00000000000E+00 -0.11098903889E+02  0.11171327922E+02  0.12700000000E+01 0. -1.
         25    2    1    2    0    0  0.00000000000E+00  0.00000000000E+00  0.33962732611E+03  0.36189985729E+03  0.12499914425E+03 0.  0.
    9000005    1    3    3    0    0 -0.40369261603E+02 -0.42765356061E+02  0.23100105010E+03  0.23837163864E+03  0.10000000000E+01 0.  0.
    9000005    1    3    3    0    0  0.40369261603E+02  0.42765356061E+02  0.10862627601E+03  0.12352821865E+03  0.10000000000E+01 0.  0.
<mgrwt>
<rscale>  0 0.12499914E+03</rscale>
<asrwt>0</asrwt>
<pdfrwt beam="2">  1        4 0.17132716E-02 0.12499914E+03</pdfrwt>
<pdfrwt beam="1">  1       -4 0.53963630E-01 0.12499914E+03</pdfrwt>
<totfact> 0.68436258E+03</totfact>
</mgrwt>
</event>
<event>
 5    1  0.3251953E-002  0.1249985E+03  0.7818608E-02  0.1235072E+00
          4   -1    0    0  501    0  0.00000000000E+00  0.00000000000E+00  0.93095734147E+01  0.93957999746E+01  0.12700000000E+01 0. -1.
         -4   -1    0    0    0  501 -0.00000000000E+00 -0.00000000000E+00 -0.41756384268E+03  0.41756577400E+03  0.12700000000E+01 0. -1.
         25    2    1    2    0    0  0.00000000000E+00  0.00000000000E+00 -0.40825426927E+03  0.42696157397E+03  0.12499854909E+03 0.  0.
    9000005    1    3    3    0    0 -0.42027087136E+02  0.65563463011E+00 -0.36208225728E+03  0.36451511210E+03  0.10000000000E+01 0.  0.
    9000005    1    3    3    0    0  0.42027087136E+02 -0.65563463011E+00 -0.46172011985E+02  0.62446461875E+02  0.10000000000E+01 0.  0.
<mgrwt>
<rscale>  0 0.12499855E+03</rscale>
<asrwt>0</asrwt>
<pdfrwt beam="1">  1        4 0.14390238E-02 0.12499855E+03</pdfrwt>
<pdfrwt beam="2">  1       -4 0.64247358E-01 0.12499855E+03</pdfrwt>
<totfact> 0.62014365E+03</totfact>
</mgrwt>
</event>
<event>
 5    1  0.3251953E-002  0.1250006E+03  0.7818608E-02  0.1235068E+00
          4   -1    0    0  501    0  0.00000000000E+00  0.00000000000E+00  0.41352649670E+02  0.41372146847E+02  0.12700000000E+01 0.  1.
         -4   -1    0    0    0  501 -0.00000000000E+00 -0.00000000000E+00 -0.94416725523E+02  0.94425266526E+02  0.12700000000E+01 0.  1.
         25    2    1    2    0    0  0.00000000000E+00  0.00000000000E+00 -0.53064075853E+02  0.13579741337E+03  0.12500056533E+03 0.  0.
    9000005    1    3    3    0    0 -0.29857626196E+02 -0.54588800712E+02 -0.20209532339E+02  0.65428130055E+02  0.10000000000E+01 0.  0.
    9000005    1    3    3    0    0  0.29857626196E+02  0.54588800712E+02 -0.32854543514E+02  0.70369283318E+02  0.10000000000E+01 0.  0.
<mgrwt>
<rscale>  0 0.12500057E+03</rscale>
<asrwt>0</asrwt>
<pdfrwt beam="1">  1        4 0.63641029E-02 0.12500057E+03</pdfrwt>
<pdfrwt beam="2">  1       -4 0.14527807E-01 0.12500057E+03</pdfrwt>
<totfact> 0.10221160E+04</totfact>
</mgrwt>
</event>
<event>
 5    1  0.3251953E-002  0.1250049E+03  0.7818608E-02  0.1235062E+00
          4   -1    0    0  501    0  0.00000000000E+00  0.00000000000E+00  0.11376935742E+02  0.11447600922E+02  0.12700000000E+01 0. -1.
         -4   -1    0    0    0  501 -0.00000000000E+00 -0.00000000000E+00 -0.34224027540E+03  0.34224263178E+03  0.12700000000E+01 0. -1.
         25    2    1    2    0    0  0.00000000000E+00  0.00000000000E+00 -0.33086333966E+03  0.35369023270E+03  0.12500492461E+03 0.  0.
    9000005    1    3    3    0    0  0.14556124932E+02 -0.50532406121E+02 -0.26096996834E+03  0.26621744724E+03  0.10000000000E+01 0.  0.
    9000005    1    3    3    0    0 -0.14556124932E+02  0.50532406121E+02 -0.69893371319E+02  0.87472785458E+02  0.10000000000E+01 0.  0.
<mgrwt>
<rscale>  0 0.12500492E+03</rscale>
<asrwt>0</asrwt>
<pdfrwt beam="1">  1        4 0.17559151E-02 0.12500492E+03</pdfrwt>
<pdfrwt beam="2">  1       -4 0.52657959E-01 0.12500492E+03</pdfrwt>
<totfact> 0.69312935E+03</totfact>
</mgrwt>
</event>
<event>
 5    1  0.3251953E-002  0.1250004E+03  0.7818608E-02  0.1235069E+00
          4   -1    0    0  501    0  0.00000000000E+00  0.00000000000E+00  0.65861933472E+02  0.65874176888E+02  0.12700000000E+01 0. -1.
         -4   -1    0    0    0  501 -0.00000000000E+00 -0.00000000000E+00 -0.59285453078E+02  0.59299054349E+02  0.12700000000E+01 0. -1.
         25    2    1    2    0    0  0.00000000000E+00  0.00000000000E+00  0.65764803940E+01  0.12517323124E+03  0.12500035090E+03 0.  0.
    9000005    1    3    3    0    0  0.40179716754E+02  0.46412124920E+02  0.14999583005E+02  0.63201918233E+02  0.10000000000E+01 0.  0.
    9000005    1    3    3    0    0 -0.40179716754E+02 -0.46412124920E+02 -0.84231026109E+01  0.61971313005E+02  0.10000000000E+01 0.  0.
<mgrwt>
<rscale>  0 0.12500035E+03</rscale>
<asrwt>0</asrwt>
<pdfrwt beam="1">  1        4 0.10134593E-01 0.12500035E+03</pdfrwt>
<pdfrwt beam="2">  1       -4 0.91228269E-02 0.12500035E+03</pdfrwt>
<totfact> 0.10449018E+04</totfact>
</mgrwt>
</event>
<event>
 5    1  0.3251953E-002  0.1249998E+03  0.7818608E-02  0.1235070E+00
          4   -1    0    0  501    0  0.00000000000E+00  0.00000000000E+00  0.33492036416E+01  0.35819080157E+01  0.12700000000E+01 0. -1.
         -4   -1    0    0    0  501 -0.00000000000E+00 -0.00000000000E+00 -0.11269279960E+04  0.11269287116E+04  0.12700000000E+01 0. -1.
         25    2    1    2    0    0  0.00000000000E+00  0.00000000000E+00 -0.11235787924E+04  0.11305106196E+04  0.12499983387E+03 0.  0.
    9000005    1    3    3    0    0 -0.11710638475E+02 -0.56188973445E+02 -0.33825198790E+03  0.34308854121E+03  0.10000000000E+01 0.  0.
    9000005    1    3    3    0    0  0.11710638475E+02  0.56188973445E+02 -0.78532680445E+03  0.78742207842E+03  0.10000000000E+01 0.  0.
<mgrwt>
<rscale>  0 0.12499983E+03</rscale>
<asrwt>0</asrwt>
<pdfrwt beam="1">  1        4 0.53321838E-03 0.12499983E+03</pdfrwt>
<pdfrwt beam="2">  1       -4 0.17339120E+00 0.12499983E+03</pdfrwt>
<totfact> 0.26607284E+03</totfact>
</mgrwt>
</event>
<event>
 5    1  0.3251953E-002  0.1250064E+03  0.7818608E-02  0.1235059E+00
         -4   -1    0    0    0  501 -0.00000000000E+00  0.00000000000E+00  0.28682609023E+02  0.28710711596E+02  0.12700000000E+01 0. -1.
          4   -1    0    0  501    0  0.00000000000E+00 -0.00000000000E+00 -0.13610488410E+03  0.13611080918E+03  0.12700000000E+01 0. -1.
         25    2    1    2    0    0  0.00000000000E+00  0.00000000000E+00 -0.10742227507E+03  0.16482152077E+03  0.12500635395E+03 0.  0.
    9000005    1    3    3    0    0 -0.17633291524E+02 -0.12199714288E+02 -0.13110953608E+03  0.13285509569E+03  0.10000000000E+01 0.  0.
    9000005    1    3    3    0    0  0.17633291524E+02  0.12199714288E+02  0.23687261008E+02  0.31966425086E+02  0.10000000000E+01 0.  0.
<mgrwt>
<rscale>  0 0.12500635E+03</rscale>
<asrwt>0</asrwt>
<pdfrwt beam="2">  1        4 0.20941830E-01 0.12500635E+03</pdfrwt>
<pdfrwt beam="1">  1       -4 0.44153267E-02 0.12500635E+03</pdfrwt>
<totfact> 0.96407442E+03</totfact>
</mgrwt>
</event>
<event>
 5    1  0.3251953E-002  0.1250012E+03  0.7818608E-02  0.1235067E+00
          4   -1    0    0  501    0  0.00000000000E+00  0.00000000000E+00  0.17235212332E+03  0.17235680234E+03  0.12700000000E+01 0. -1.
         -4   -1    0    0    0  501 -0.00000000000E+00 -0.00000000000E+00 -0.22642024067E+02  0.22677613495E+02  0.12700000000E+01 0. -1.
         25    2    1    2    0    0  0.00000000000E+00  0.00000000000E+00  0.14971009925E+03  0.19503441583E+03  0.12500123816E+03 0.  0.
    9000005    1    3    3    0    0 -0.35549188914E+02 -0.44291467001E+02  0.11553711676E+03  0.12874511342E+03  0.10000000000E+01 0.  0.
    9000005    1    3    3    0    0  0.35549188914E+02  0.44291467001E+02  0.34172982492E+02  0.66289302410E+02  0.10000000000E+01 0.  0.
<mgrwt>
<rscale>  0 0.12500124E+03</rscale>
<asrwt>0</asrwt>
<pdfrwt beam="1">  1        4 0.26518808E-01 0.12500124E+03</pdfrwt>
<pdfrwt beam="2">  1       -4 0.34864860E-02 0.12500124E+03</pdfrwt>
<totfact> 0.90976125E+03</totfact>
</mgrwt>
</event>
<event>
 5    1  0.3251953E-002  0.1249984E+03  0.7818608E-02  0.1235072E+00
          4   -1    0    0  501    0  0.00000000000E+00  0.00000000000E+00  0.46467413347E+02  0.46484765280E+02  0.12700000000E+01 0.  1.
         -4   -1    0    0    0  501 -0.00000000000E+00 -0.00000000000E+00 -0.84024312894E+02  0.84033910163E+02  0.12700000000E+01 0.  1.
         25    2    1    2    0    0  0.00000000000E+00  0.00000000000E+00 -0.37556899547E+02  0.13051867544E+03  0.12499841573E+03 0.  0.
    9000005    1    3    3    0    0  0.52850518706E+02 -0.31191852596E+02 -0.31090804905E+02  0.68802232126E+02  0.10000000000E+01 0.  0.
    9000005    1    3    3    0    0 -0.52850518706E+02  0.31191852596E+02 -0.64660946421E+01  0.61716443318E+02  0.10000000000E+01 0.  0.
<mgrwt>
<rscale>  0 0.12499842E+03</rscale>
<asrwt>0</asrwt>
<pdfrwt beam="1">  1        4 0.71509058E-02 0.12499842E+03</pdfrwt>
<pdfrwt beam="2">  1       -4 0.12928890E-01 0.12499842E+03</pdfrwt>
<totfact> 0.10333788E+04</totfact>
</mgrwt>
</event>
<event>
 5    1  0.3251953E-002  0.1249994E+03  0.7818608E-02  0.1235070E+00
          4   -1    0    0  501    0  0.00000000000E+00  0.00000000000E+00  0.30869022032E+01  0.33379432608E+01  0.12700000000E+01 0.  1.
         -4   -1    0    0    0  501 -0.00000000000E+00 -0.00000000000E+00 -0.12157198967E+04  0.12157205601E+04  0.12700000000E+01 0.  1.
         25    2    1    2    0    0  0.00000000000E+00  0.00000000000E+00 -0.12126329945E+04  0.12190585033E+04  0.12499942062E+03 0.  0.
    9000005    1    3    3    0    0  0.19316308394E+02  0.10171160093E+02 -0.11773710368E+04  0.11775738323E+04  0.10000000000E+01 0.  0.
    9000005    1    3    3    0    0 -0.19316308394E+02 -0.10171160093E+02 -0.35261957762E+02  0.41484671058E+02  0.10000000000E+01 0.  0.
<mgrwt>
<rscale>  0 0.12499942E+03</rscale>
<asrwt>0</asrwt>
<pdfrwt beam="1">  1        4 0.49427088E-03 0.12499942E+03</pdfrwt>
<pdfrwt beam="2">  1       -4 0.18705282E+00 0.12499942E+03</pdfrwt>
<totfact> 0.24219647E+03</totfact>
</mgrwt>
</event>
<event>
 5    1  0.3251953E-002  0.1249992E+03  0.7818608E-02  0.1235071E+00
          4   -1    0    0  501    0  0.00000000000E+00  0.00000000000E+00  0.26603547478E+02  0.26633843853E+02  0.12700000000E+01 0. -1.
         -4   -1    0    0    0  501 -0.00000000000E+00 -0.00000000000E+00 -0.14671346224E+03  0.14671895891E+03  0.12700000000E+01 0. -1.
         25    2    1    2    0    0  0.00000000000E+00  0.00000000000E+00 -0.12010991476E+03  0.17335280276E+03  0.12499921040E+03 0.  0.
    9000005    1    3    3    0    0  0.23256469856E+02  0.35360514543E+02  0.37086881060E+01  0.42496867490E+02  0.10000000000E+01 0.  0.
    9000005    1    3    3    0    0 -0.23256469856E+02 -0.35360514543E+02 -0.12381860287E+03  0.13085593527E+03  0.10000000000E+01 0.  0.
<mgrwt>
<rscale>  0 0.12499921E+03</rscale>
<asrwt>0</asrwt>
<pdfrwt beam="1">  1        4 0.40956068E-02 0.12499921E+03</pdfrwt>
<pdfrwt beam="2">  1       -4 0.22574055E-01 0.12499921E+03</pdfrwt>
<totfact> 0.94829070E+03</totfact>
</mgrwt>
</event>
<event>
 5    1  0.3251953E-002  0.1249865E+03  0.7818608E-02  0.1235090E+00
          4   -1    0    0  501    0  0.00000000000E+00  0.00000000000E+00  0.17510052858E+02  0.17556048846E+02  0.12700000000E+01 0. -1.
         -4   -1    0    0    0  501 -0.00000000000E+00 -0.00000000000E+00 -0.22269767404E+03  0.22270129529E+03  0.12700000000E+01 0. -1.
         25    2    1    2    0    0  0.00000000000E+00  0.00000000000E+00 -0.20518762119E+03  0.24025734414E+03  0.12498652537E+03 0.  0.
    9000005    1    3    3    0    0  0.16838646557E+02  0.24580714446E+02 -0.20817253147E+03  0.21029634899E+03  0.10000000000E+01 0.  0.
    9000005    1    3    3    0    0 -0.16838646557E+02 -0.24580714446E+02  0.29849102869E+01  0.29960995143E+02  0.10000000000E+01 0.  0.
<mgrwt>
<rscale>  0 0.12498653E+03</rscale>
<asrwt>0</asrwt>
<pdfrwt beam="1">  1        4 0.26976712E-02 0.12498653E+03</pdfrwt>
<pdfrwt beam="2">  1       -4 0.34264995E-01 0.12498653E+03</pdfrwt>
<totfact> 0.83784222E+03</totfact>
</mgrwt>
</event>
<event>
 5    1  0.3251953E-002  0.1250065E+03  0.7818608E-02  0.1235059E+00
          4   -1    0    0  501    0  0.00000000000E+00  0.00000000000E+00  0.43803130559E+02  0.43821537476E+02  0.12700000000E+01 0.  1.
         -4   -1    0    0    0  501 -0.00000000000E+00 -0.00000000000E+00 -0.89145036729E+02  0.89154082763E+02  0.12700000000E+01 0.  1.
         25    2    1    2    0    0  0.00000000000E+00  0.00000000000E+00 -0.45341906170E+02  0.13297562024E+03  0.12500650832E+03 0.  0.
    9000005    1    3    3    0    0  0.56040801783E+02  0.18983520700E+02 -0.44070867812E+02  0.73784733600E+02  0.10000000000E+01 0.  0.
    9000005    1    3    3    0    0 -0.56040801783E+02 -0.18983520700E+02 -0.12710383579E+01  0.59190886640E+02  0.10000000000E+01 0.  0.
<mgrwt>
<rscale>  0 0.12500651E+03</rscale>
<asrwt>0</asrwt>
<pdfrwt beam="1">  1        4 0.67410549E-02 0.12500651E+03</pdfrwt>
<pdfrwt beam="2">  1       -4 0.13716733E-01 0.12500651E+03</pdfrwt>
<totfact> 0.10279409E+04</totfact>
</mgrwt>
</event>
<event>
 5    1  0.3251953E-002  0.1249851E+03  0.7818608E-02  0.1235093E+00
         -4   -1    0    0    0  501 -0.00000000000E+00  0.00000000000E+00  0.13896798682E+02  0.13954709370E+02  0.12700000000E+01 0.  1.
          4   -1    0    0  501    0  0.00000000000E+00 -0.00000000000E+00 -0.28037933366E+03  0.28038220993E+03  0.12700000000E+01 0.  1.
         25    2    1    2    0    0  0.00000000000E+00  0.00000000000E+00 -0.26648253498E+03  0.29433691930E+03  0.12498512157E+03 0.  0.
    9000005    1    3    3    0    0  0.41348168248E+02  0.30194019100E+02 -0.48889394118E+02  0.70799171352E+02  0.10000000000E+01 0.  0.
    9000005    1    3    3    0    0 -0.41348168248E+02 -0.30194019100E+02 -0.21759314086E+03  0.22353774795E+03  0.10000000000E+01 0.  0.
<mgrwt>
<rscale>  0 0.12498512E+03</rscale>
<asrwt>0</asrwt>
<pdfrwt beam="2">  1        4 0.43139954E-01 0.12498512E+03</pdfrwt>
<pdfrwt beam="1">  1       -4 0.21426452E-02 0.12498512E+03</pdfrwt>
<totfact> 0.76339963E+03</totfact>
</mgrwt>
</event>
<event>
 5    1  0.3251953E-002  0.1249997E+03  0.7818608E-02  0.1235070E+00
         -4   -1    0    0    0  501 -0.00000000000E+00  0.00000000000E+00  0.28982646859E+01  0.31643069051E+01  0.12700000000E+01 0.  1.
          4   -1    0    0  501    0  0.00000000000E+00 -0.00000000000E+00 -0.12883715765E+04  0.12883722025E+04  0.12700000000E+01 0.  1.
         25    2    1    2    0    0  0.00000000000E+00  0.00000000000E+00 -0.12854733119E+04  0.12915365094E+04  0.12499967839E+03 0.  0.
    9000005    1    3    3    0    0 -0.56504903550E+02  0.20835954762E+02 -0.81510028416E+03  0.81732271128E+03  0.10000000000E+01 0.  0.
    9000005    1    3    3    0    0  0.56504903550E+02 -0.20835954762E+02 -0.47037302770E+03  0.47421379811E+03  0.10000000000E+01 0.  0.
<mgrwt>
<rscale>  0 0.12499968E+03</rscale>
<asrwt>0</asrwt>
<pdfrwt beam="2">  1        4 0.19823109E+00 0.12499968E+03</pdfrwt>
<pdfrwt beam="1">  1       -4 0.46640084E-03 0.12499968E+03</pdfrwt>
<totfact> 0.22429378E+03</totfact>
</mgrwt>
</event>
<event>
 5    1  0.3251953E-002  0.1249952E+03  0.7818608E-02  0.1235077E+00
          4   -1    0    0  501    0  0.00000000000E+00  0.00000000000E+00  0.17822769326E+03  0.17823221803E+03  0.12700000000E+01 0. -1.
         -4   -1    0    0    0  501 -0.00000000000E+00 -0.00000000000E+00 -0.21892287634E+02  0.21929093868E+02  0.12700000000E+01 0. -1.
         25    2    1    2    0    0  0.00000000000E+00  0.00000000000E+00  0.15633540562E+03  0.20016131190E+03  0.12499516682E+03 0.  0.
    9000005    1    3    3    0    0  0.45851723095E+02 -0.23720022956E+02  0.21779904179E+02  0.56039131201E+02  0.10000000000E+01 0.  0.
    9000005    1    3    3    0    0 -0.45851723095E+02  0.23720022956E+02  0.13455550144E+03  0.14412218069E+03  0.10000000000E+01 0.  0.
<mgrwt>
<rscale>  0 0.12499517E+03</rscale>
<asrwt>0</asrwt>
<pdfrwt beam="1">  1        4 0.27422825E-01 0.12499517E+03</pdfrwt>
<pdfrwt beam="2">  1       -4 0.33712235E-02 0.12499517E+03</pdfrwt>
<totfact> 0.90118052E+03</totfact>
</mgrwt>
</event>
<event>
 5    1  0.3251953E-002  0.1250017E+03  0.7818608E-02  0.1235067E+00
         -4   -1    0    0    0  501 -0.00000000000E+00  0.00000000000E+00  0.38713621460E+02  0.38734447027E+02  0.12700000000E+01 0.  1.
          4   -1    0    0  501    0  0.00000000000E+00 -0.00000000000E+00 -0.10085193972E+03  0.10085993578E+03  0.12700000000E+01 0.  1.
         25    2    1    2    0    0  0.00000000000E+00  0.00000000000E+00 -0.62138318260E+02  0.13959438281E+03  0.12500168445E+03 0.  0.
    9000005    1    3    3    0    0 -0.37448239170E+02 -0.46300620691E+02 -0.99029676772E+01  0.60375382915E+02  0.10000000000E+01 0.  0.
    9000005    1    3    3    0    0  0.37448239170E+02  0.46300620691E+02 -0.52235350583E+02  0.79218999891E+02  0.10000000000E+01 0.  0.
<mgrwt>
<rscale>  0 0.12500168E+03</rscale>
<asrwt>0</asrwt>
<pdfrwt beam="2">  1        4 0.15517900E-01 0.12500168E+03</pdfrwt>
<pdfrwt beam="1">  1       -4 0.59581588E-02 0.12500168E+03</pdfrwt>
<totfact> 0.10141614E+04</totfact>
</mgrwt>
</event>
<event>
 5    1  0.3251953E-002  0.1250005E+03  0.7818608E-02  0.1235068E+00
          4   -1    0    0  501    0  0.00000000000E+00  0.00000000000E+00  0.78688100103E+02  0.78698348127E+02  0.12700000000E+01 0. -1.
         -4   -1    0    0    0  501 -0.00000000000E+00 -0.00000000000E+00 -0.49620992099E+02  0.49637241633E+02  0.12700000000E+01 0. -1.
         25    2    1    2    0    0  0.00000000000E+00  0.00000000000E+00  0.29067108004E+02  0.12833558976E+03  0.12500050732E+03 0.  0.
    9000005    1    3    3    0    0 -0.42949773991E+02  0.27122454246E+02 -0.22837774568E+02  0.55703451934E+02  0.10000000000E+01 0.  0.
    9000005    1    3    3    0    0  0.42949773991E+02 -0.27122454246E+02  0.51904882572E+02  0.72632137825E+02  0.10000000000E+01 0.  0.
<mgrwt>
<rscale>  0 0.12500051E+03</rscale>
<asrwt>0</asrwt>
<pdfrwt beam="1">  1        4 0.12107900E-01 0.12500051E+03</pdfrwt>
<pdfrwt beam="2">  1       -4 0.76360371E-02 0.12500051E+03</pdfrwt>
<totfact> 0.10380128E+04</totfact>
</mgrwt>
</event>
<event>
 5    1  0.3251953E-002  0.1249894E+03  0.7818608E-02  0.1235086E+00
         -4   -1    0    0    0  501 -0.00000000000E+00  0.00000000000E+00  0.50662203977E+02  0.50678119656E+02  0.12700000000E+01 0.  1.
          4   -1    0    0  501    0  0.00000000000E+00 -0.00000000000E+00 -0.77057471319E+02  0.77067936174E+02  0.12700000000E+01 0.  1.
         25    2    1    2    0    0  0.00000000000E+00  0.00000000000E+00 -0.26395267342E+02  0.12774605583E+03  0.12498937812E+03 0.  0.
    9000005    1    3    3    0    0 -0.49730753606E+02 -0.36861653512E+02 -0.44857404083E+01  0.62072950799E+02  0.10000000000E+01 0.  0.
    9000005    1    3    3    0    0  0.49730753606E+02  0.36861653512E+02 -0.21909526933E+02  0.65673105030E+02  0.10000000000E+01 0.  0.
<mgrwt>
<rscale>  0 0.12498938E+03</rscale>
<asrwt>0</asrwt>
<pdfrwt beam="2">  1        4 0.11857025E-01 0.12498938E+03</pdfrwt>
<pdfrwt beam="1">  1       -4 0.77962145E-02 0.12498938E+03</pdfrwt>
<totfact> 0.10395468E+04</totfact>
</mgrwt>
</event>
<event>
 5    1  0.3251953E-002  0.1250003E+03  0.7818608E-02  0.1235069E+00
          4   -1    0    0  501    0  0.00000000000E+00  0.00000000000E+00  0.94903330241E+03  0.94903415217E+03  0.12700000000E+01 0.  1.
         -4   -1    0    0    0  501 -0.00000000000E+00 -0.00000000000E+00 -0.40172134539E+01  0.42131821625E+01  0.12700000000E+01 0.  1.
         25    2    1    2    0    0  0.00000000000E+00  0.00000000000E+00  0.94501608896E+03  0.95324733433E+03  0.12500028810E+03 0.  0.
    9000005    1    3    3    0    0  0.52641510794E+02  0.32198405980E+02  0.54777052405E+03  0.55123625881E+03  0.10000000000E+01 0.  0.
    9000005    1    3    3    0    0 -0.52641510794E+02 -0.32198405980E+02  0.39724556490E+03  0.40201107552E+03  0.10000000000E+01 0.  0.
<mgrwt>
<rscale>  0 0.12500029E+03</rscale>
<asrwt>0</asrwt>
<pdfrwt beam="1">  1        4 0.14602042E+00 0.12500029E+03</pdfrwt>
<pdfrwt beam="2">  1       -4 0.63317206E-03 0.12500029E+03</pdfrwt>
<totfact> 0.32200718E+03</totfact>
</mgrwt>
</event>
<event>
 5    1  0.3251953E-002  0.1250003E+03  0.7818608E-02  0.1235069E+00
          4   -1    0    0  501    0  0.00000000000E+00  0.00000000000E+00  0.11170043481E+03  0.11170765433E+03  0.12700000000E+01 0. -1.
         -4   -1    0    0    0  501 -0.00000000000E+00 -0.00000000000E+00 -0.34951035830E+02  0.34974101927E+02  0.12700000000E+01 0. -1.
         25    2    1    2    0    0  0.00000000000E+00  0.00000000000E+00  0.76749398980E+02  0.14668175626E+03  0.12500026950E+03 0.  0.
    9000005    1    3    3    0    0 -0.10232973209E+02 -0.42068440902E+01  0.11054774500E+03  0.11110452377E+03  0.10000000000E+01 0.  0.
    9000005    1    3    3    0    0  0.10232973209E+02  0.42068440902E+01 -0.33798346020E+02  0.35577232489E+02  0.10000000000E+01 0.  0.
<mgrwt>
<rscale>  0 0.12500027E+03</rscale>
<asrwt>0</asrwt>
<pdfrwt beam="1">  1        4 0.17187012E-01 0.12500027E+03</pdfrwt>
<pdfrwt beam="2">  1       -4 0.53794121E-02 0.12500027E+03</pdfrwt>
<totfact> 0.99968695E+03</totfact>
</mgrwt>
</event>
<event>
 5    1  0.3251953E-002  0.1250017E+03  0.7818608E-02  0.1235067E+00
          4   -1    0    0  501    0  0.00000000000E+00  0.00000000000E+00  0.36509249477E+01  0.38655081133E+01  0.12700000000E+01 0.  1.
         -4   -1    0    0    0  501 -0.00000000000E+00 -0.00000000000E+00 -0.10392026059E+04  0.10392033819E+04  0.12700000000E+01 0.  1.
         25    2    1    2    0    0  0.00000000000E+00  0.00000000000E+00 -0.10355516810E+04  0.10430688900E+04  0.12500170178E+03 0.  0.
    9000005    1    3    3    0    0  0.34377392324E+02 -0.52057438310E+02 -0.54851960162E+03  0.55205664143E+03  0.10000000000E+01 0.  0.
    9000005    1    3    3    0    0 -0.34377392324E+02  0.52057438310E+02 -0.48703207934E+03  0.49101224862E+03  0.10000000000E+01 0.  0.
<mgrwt>
<rscale>  0 0.12500170E+03</rscale>
<asrwt>0</asrwt>
<pdfrwt beam="1">  1        4 0.57824768E-03 0.12500170E+03</pdfrwt>
<pdfrwt beam="2">  1       -4 0.15989366E+00 0.12500170E+03</pdfrwt>
<totfact> 0.29211136E+03</totfact>
</mgrwt>
</event>
<event>
 5    1  0.3251953E-002  0.1250013E+03  0.7818608E-02  0.1235067E+00
         -4   -1    0    0    0  501 -0.00000000000E+00  0.00000000000E+00  0.40828206637E+03  0.40828404160E+03  0.12700000000E+01 0. -1.
          4   -1    0    0  501    0  0.00000000000E+00 -0.00000000000E+00 -0.95235785427E+01  0.96078846922E+01  0.12700000000E+01 0. -1.
         25    2    1    2    0    0  0.00000000000E+00  0.00000000000E+00  0.39875848783E+03  0.41789192629E+03  0.12500132175E+03 0.  0.
    9000005    1    3    3    0    0  0.41236498401E+02  0.27348138826E+02  0.32698599561E+03  0.33071016135E+03  0.10000000000E+01 0.  0.
    9000005    1    3    3    0    0 -0.41236498401E+02 -0.27348138826E+02  0.71772492224E+02  0.87181764938E+02  0.10000000000E+01 0.  0.
<mgrwt>
<rscale>  0 0.12500132E+03</rscale>
<asrwt>0</asrwt>
<pdfrwt beam="2">  1        4 0.14718033E-02 0.12500132E+03</pdfrwt>
<pdfrwt beam="1">  1       -4 0.62819247E-01 0.12500132E+03</pdfrwt>
<totfact> 0.62847237E+03</totfact>
</mgrwt>
</event>
<event>
 5    1  0.3251953E-002  0.1249912E+03  0.7818608E-02  0.1235083E+00
         -4   -1    0    0    0  501 -0.00000000000E+00  0.00000000000E+00  0.22069908382E+02  0.22106418886E+02  0.12700000000E+01 0.  1.
          4   -1    0    0  501    0  0.00000000000E+00 -0.00000000000E+00 -0.17678443947E+03  0.17678900118E+03  0.12700000000E+01 0.  1.
         25    2    1    2    0    0  0.00000000000E+00  0.00000000000E+00 -0.15471453109E+03  0.19889542007E+03  0.12499120767E+03 0.  0.
    9000005    1    3    3    0    0  0.22131064208E+02 -0.57706783578E+02 -0.92014597558E+02  0.11084919051E+03  0.10000000000E+01 0.  0.
    9000005    1    3    3    0    0 -0.22131064208E+02  0.57706783578E+02 -0.62699933532E+02  0.88046229555E+02  0.10000000000E+01 0.  0.
<mgrwt>
<rscale>  0 0.12499121E+03</rscale>
<asrwt>0</asrwt>
<pdfrwt beam="2">  1        4 0.27200765E-01 0.12499121E+03</pdfrwt>
<pdfrwt beam="1">  1       -4 0.33985300E-02 0.12499121E+03</pdfrwt>
<totfact> 0.90339913E+03</totfact>
</mgrwt>
</event>
<event>
 5    1  0.3251953E-002  0.1250021E+03  0.7818608E-02  0.1235066E+00
         -4   -1    0    0    0  501 -0.00000000000E+00  0.00000000000E+00  0.10201153904E+02  0.10279904716E+02  0.12700000000E+01 0.  1.
          4   -1    0    0  501    0  0.00000000000E+00 -0.00000000000E+00 -0.38138289301E+03  0.38138500755E+03  0.12700000000E+01 0.  1.
         25    2    1    2    0    0  0.00000000000E+00  0.00000000000E+00 -0.37118173911E+03  0.39166491226E+03  0.12500208019E+03 0.  0.
    9000005    1    3    3    0    0  0.57876910783E+02  0.22402014310E+02 -0.20857140648E+03  0.21761116389E+03  0.10000000000E+01 0.  0.
    9000005    1    3    3    0    0 -0.57876910783E+02 -0.22402014310E+02 -0.16261033263E+03  0.17405374838E+03  0.10000000000E+01 0.  0.
<mgrwt>
<rscale>  0 0.12500208E+03</rscale>
<asrwt>0</asrwt>
<pdfrwt beam="2">  1        4 0.58680501E-01 0.12500208E+03</pdfrwt>
<pdfrwt beam="1">  1       -4 0.15756290E-02 0.12500208E+03</pdfrwt>
<totfact> 0.65368605E+03</totfact>
</mgrwt>
</event>
<event>
 5    1  0.3251953E-002  0.1250010E+03  0.7818608E-02  0.1235068E+00
          4   -1    0    0  501    0  0.00000000000E+00  0.00000000000E+00  0.30035245315E+02  0.30062083447E+02  0.12700000000E+01 0.  1.
         -4   -1    0    0    0  501 -0.00000000000E+00 -0.00000000000E+00 -0.12996954243E+03  0.12997574720E+03  0.12700000000E+01 0.  1.
         25    2    1    2    0    0  0.00000000000E+00  0.00000000000E+00 -0.99934297113E+02  0.16003783064E+03  0.12500097398E+03 0.  0.
    9000005    1    3    3    0    0 -0.27480435564E+02 -0.47043012793E+02 -0.89159403735E+02  0.10449219428E+03  0.10000000000E+01 0.  0.
    9000005    1    3    3    0    0  0.27480435564E+02  0.47043012793E+02 -0.10774893379E+02  0.55545636361E+02  0.10000000000E+01 0.  0.
<mgrwt>
<rscale>  0 0.12500097E+03</rscale>
<asrwt>0</asrwt>
<pdfrwt beam="1">  1        4 0.46233488E-02 0.12500097E+03</pdfrwt>
<pdfrwt beam="2">  1       -4 0.19997856E-01 0.12500097E+03</pdfrwt>
<totfact> 0.97333361E+03</totfact>
</mgrwt>
</event>
<event>
 5    1  0.3251953E-002  0.1249939E+03  0.7818608E-02  0.1235079E+00
         -4   -1    0    0    0  501 -0.00000000000E+00  0.00000000000E+00  0.36973937824E+02  0.36995742704E+02  0.12700000000E+01 0.  1.
          4   -1    0    0  501    0  0.00000000000E+00 -0.00000000000E+00 -0.10558172928E+03  0.10558936716E+03  0.12700000000E+01 0.  1.
         25    2    1    2    0    0  0.00000000000E+00  0.00000000000E+00 -0.68607791452E+02  0.14258510986E+03  0.12499393788E+03 0.  0.
    9000005    1    3    3    0    0  0.17592019467E+02  0.57098590541E+02 -0.13420541311E+02  0.61244094570E+02  0.10000000000E+01 0.  0.
    9000005    1    3    3    0    0 -0.17592019467E+02 -0.57098590541E+02 -0.55187250141E+02  0.81341015292E+02  0.10000000000E+01 0.  0.
<mgrwt>
<rscale>  0 0.12499394E+03</rscale>
<asrwt>0</asrwt>
<pdfrwt beam="2">  1        4 0.16245608E-01 0.12499394E+03</pdfrwt>
<pdfrwt beam="1">  1       -4 0.56905630E-02 0.12499394E+03</pdfrwt>
<totfact> 0.10081663E+04</totfact>
</mgrwt>
</event>
<event>
 5    1  0.3251953E-002  0.1250003E+03  0.7818608E-02  0.1235069E+00
          4   -1    0    0  501    0  0.00000000000E+00  0.00000000000E+00  0.39712457703E+01  0.41693756089E+01  0.12700000000E+01 0.  1.
         -4   -1    0    0    0  501 -0.00000000000E+00 -0.00000000000E+00 -0.95949864601E+03  0.95949948650E+03  0.12700000000E+01 0.  1.
         25    2    1    2    0    0  0.00000000000E+00  0.00000000000E+00 -0.95552740024E+03  0.96366886211E+03  0.12500025276E+03 0.  0.
    9000005    1    3    3    0    0  0.26610064650E+02  0.35321069475E+02 -0.13736426044E+03  0.14431082266E+03  0.10000000000E+01 0.  0.
    9000005    1    3    3    0    0 -0.26610064650E+02 -0.35321069475E+02 -0.81816313980E+03  0.81935803945E+03  0.10000000000E+01 0.  0.
<mgrwt>
<rscale>  0 0.12500025E+03</rscale>
<asrwt>0</asrwt>
<pdfrwt beam="1">  1        4 0.62626706E-03 0.12500025E+03</pdfrwt>
<pdfrwt beam="2">  1       -4 0.14763030E+00 0.12500025E+03</pdfrwt>
<totfact> 0.31835453E+03</totfact>
</mgrwt>
</event>
<event>
 5    1  0.3251953E-002  0.1250006E+03  0.7818608E-02  0.1235068E+00
         -4   -1    0    0    0  501 -0.00000000000E+00  0.00000000000E+00  0.47997438740E+03  0.47997606759E+03  0.12700000000E+01 0.  1.
          4   -1    0    0  501    0  0.00000000000E+00 -0.00000000000E+00 -0.80872866451E+01  0.81863975765E+01  0.12700000000E+01 0.  1.
         25    2    1    2    0    0  0.00000000000E+00  0.00000000000E+00  0.47188710075E+03  0.48816246517E+03  0.12500062616E+03 0.  0.
    9000005    1    3    3    0    0  0.52982681040E+02  0.27220541697E+02  0.16213822341E+03  0.17273657942E+03  0.10000000000E+01 0.  0.
    9000005    1    3    3    0    0 -0.52982681040E+02 -0.27220541697E+02  0.30974887735E+03  0.31542588574E+03  0.10000000000E+01 0.  0.
<mgrwt>
<rscale>  0 0.12500063E+03</rscale>
<asrwt>0</asrwt>
<pdfrwt beam="2">  1        4 0.12519511E-02 0.12500063E+03</pdfrwt>
<pdfrwt beam="1">  1       -4 0.73849968E-01 0.12500063E+03</pdfrwt>
<totfact> 0.56793870E+03</totfact>
</mgrwt>
</event>
<event>
 5    1  0.3251953E-002  0.1249665E+03  0.7818608E-02  0.1235122E+00
          4   -1    0    0  501    0  0.00000000000E+00  0.00000000000E+00  0.32616762346E+03  0.32617009595E+03  0.12700000000E+01 0.  1.
         -4   -1    0    0    0  501 -0.00000000000E+00 -0.00000000000E+00 -0.11933580005E+02  0.12000967950E+02  0.12700000000E+01 0.  1.
         25    2    1    2    0    0  0.00000000000E+00  0.00000000000E+00  0.31423404345E+03  0.33817106390E+03  0.12496653310E+03 0.  0.
    9000005    1    3    3    0    0 -0.17849862857E+02 -0.24055510697E+02  0.30548086157E+03  0.30694762091E+03  0.10000000000E+01 0.  0.
    9000005    1    3    3    0    0  0.17849862857E+02  0.24055510697E+02  0.87531818846E+01  0.31223442988E+02  0.10000000000E+01 0.  0.
<mgrwt>
<rscale>  0 0.12496653E+03</rscale>
<asrwt>0</asrwt>
<pdfrwt beam="1">  1        4 0.50184997E-01 0.12496653E+03</pdfrwt>
<pdfrwt beam="2">  1       -4 0.18413097E-02 0.12496653E+03</pdfrwt>
<totfact> 0.71098476E+03</totfact>
</mgrwt>
</event>
<event>
 5    1  0.3251953E-002  0.1249998E+03  0.7818608E-02  0.1235070E+00
          4   -1    0    0  501    0  0.00000000000E+00  0.00000000000E+00  0.56832629210E+01  0.58234334743E+01  0.12700000000E+01 0.  1.
         -4   -1    0    0    0  501 -0.00000000000E+00 -0.00000000000E+00 -0.67880953439E+03  0.67881072242E+03  0.12700000000E+01 0.  1.
         25    2    1    2    0    0  0.00000000000E+00  0.00000000000E+00 -0.67312627147E+03  0.68463415590E+03  0.12499980033E+03 0.  0.
    9000005    1    3    3    0    0  0.37883467582E+01  0.56826086060E+02 -0.47745109148E+03  0.48083687502E+03  0.10000000000E+01 0.  0.
    9000005    1    3    3    0    0 -0.37883467582E+01 -0.56826086060E+02 -0.19567517999E+03  0.20379728088E+03  0.10000000000E+01 0.  0.
<mgrwt>
<rscale>  0 0.12499980E+03</rscale>
<asrwt>0</asrwt>
<pdfrwt beam="1">  1        4 0.88522241E-03 0.12499980E+03</pdfrwt>
<pdfrwt beam="2">  1       -4 0.10444305E+00 0.12499980E+03</pdfrwt>
<totfact> 0.43910558E+03</totfact>
</mgrwt>
</event>
<event>
 5    1  0.3251953E-002  0.1249943E+03  0.7818608E-02  0.1235078E+00
         -4   -1    0    0    0  501 -0.00000000000E+00  0.00000000000E+00  0.12176011872E+03  0.12176674181E+03  0.12700000000E+01 0.  1.
          4   -1    0    0  501    0  0.00000000000E+00 -0.00000000000E+00 -0.32058532231E+02  0.32083677919E+02  0.12700000000E+01 0.  1.
         25    2    1    2    0    0  0.00000000000E+00  0.00000000000E+00  0.89701586494E+02  0.15385041973E+03  0.12499430800E+03 0.  0.
    9000005    1    3    3    0    0  0.53680094428E+02  0.87716760489E+01  0.82716466371E+02  0.99002568893E+02  0.10000000000E+01 0.  0.
    9000005    1    3    3    0    0 -0.53680094428E+02 -0.87716760489E+01  0.69851201230E+01  0.54847850839E+02  0.10000000000E+01 0.  0.
<mgrwt>
<rscale>  0 0.12499431E+03</rscale>
<asrwt>0</asrwt>
<pdfrwt beam="2">  1        4 0.49345257E-02 0.12499431E+03</pdfrwt>
<pdfrwt beam="1">  1       -4 0.18734770E-01 0.12499431E+03</pdfrwt>
<totfact> 0.98554256E+03</totfact>
</mgrwt>
</event>
<event>
 5    1  0.3251953E-002  0.1249997E+03  0.7818608E-02  0.1235070E+00
          4   -1    0    0  501    0  0.00000000000E+00  0.00000000000E+00  0.14146597240E+03  0.14147167295E+03  0.12700000000E+01 0. -1.
         -4   -1    0    0    0  501 -0.00000000000E+00 -0.00000000000E+00 -0.27591654054E+02  0.27620866631E+02  0.12700000000E+01 0. -1.
         25    2    1    2    0    0  0.00000000000E+00  0.00000000000E+00  0.11387431834E+03  0.16909253958E+03  0.12499970625E+03 0.  0.
    9000005    1    3    3    0    0 -0.43297495386E+02  0.45025222814E+02  0.59390009704E+02  0.86198126713E+02  0.10000000000E+01 0.  0.
    9000005    1    3    3    0    0  0.43297495386E+02 -0.45025222814E+02  0.54484308640E+02  0.82894412865E+02  0.10000000000E+01 0.  0.
<mgrwt>
<rscale>  0 0.12499971E+03</rscale>
<asrwt>0</asrwt>
<pdfrwt beam="1">  1        4 0.21766681E-01 0.12499971E+03</pdfrwt>
<pdfrwt beam="2">  1       -4 0.42475555E-02 0.12499971E+03</pdfrwt>
<totfact> 0.95618525E+03</totfact>
</mgrwt>
</event>
<event>
 5    1  0.3251953E-002  0.1249875E+03  0.7818608E-02  0.1235089E+00
         -4   -1    0    0    0  501 -0.00000000000E+00  0.00000000000E+00  0.45855292451E+02  0.45872875926E+02  0.12700000000E+01 0. -1.
          4   -1    0    0  501    0  0.00000000000E+00 -0.00000000000E+00 -0.85130789160E+02  0.85140261704E+02  0.12700000000E+01 0. -1.
         25    2    1    2    0    0  0.00000000000E+00  0.00000000000E+00 -0.39275496709E+02  0.13101313763E+03  0.12498750974E+03 0.  0.
    9000005    1    3    3    0    0 -0.34140399898E+02  0.23175444567E+02 -0.68823270999E+02  0.80251546820E+02  0.10000000000E+01 0.  0.
    9000005    1    3    3    0    0  0.34140399898E+02 -0.23175444567E+02  0.29547774290E+02  0.50761590810E+02  0.10000000000E+01 0.  0.
<mgrwt>
<rscale>  0 0.12498751E+03</rscale>
<asrwt>0</asrwt>
<pdfrwt beam="2">  1        4 0.13099126E-01 0.12498751E+03</pdfrwt>
<pdfrwt beam="1">  1       -4 0.70567416E-02 0.12498751E+03</pdfrwt>
<totfact> 0.10325717E+04</totfact>
</mgrwt>
</event>
<event>
 5    1  0.3251953E-002  0.1249795E+03  0.7818608E-02  0.1235101E+00
          4   -1    0    0  501    0  0.00000000000E+00  0.00000000000E+00  0.25610496098E+02  0.25641965806E+02  0.12700000000E+01 0. -1.
         -4   -1    0    0    0  501 -0.00000000000E+00 -0.00000000000E+00 -0.15234754566E+03  0.15235283905E+03  0.12700000000E+01 0. -1.
         25    2    1    2    0    0  0.00000000000E+00  0.00000000000E+00 -0.12673704956E+03  0.17799480486E+03  0.12497948162E+03 0.  0.
    9000005    1    3    3    0    0 -0.36967605417E+02 -0.49236643920E+02 -0.78515714687E+02  0.99782605736E+02  0.10000000000E+01 0.  0.
    9000005    1    3    3    0    0  0.36967605417E+02  0.49236643920E+02 -0.48221334872E+02  0.78212199123E+02  0.10000000000E+01 0.  0.
<mgrwt>
<rscale>  0 0.12497948E+03</rscale>
<asrwt>0</asrwt>
<pdfrwt beam="1">  1        4 0.39429043E-02 0.12497948E+03</pdfrwt>
<pdfrwt beam="2">  1       -4 0.23440911E-01 0.12497948E+03</pdfrwt>
<totfact> 0.94022453E+03</totfact>
</mgrwt>
</event>
<event>
 5    1  0.3251953E-002  0.1249980E+03  0.7818608E-02  0.1235072E+00
         -4   -1    0    0    0  501 -0.00000000000E+00  0.00000000000E+00  0.60432894628E+02  0.60446237708E+02  0.12700000000E+01 0.  1.
          4   -1    0    0  501    0  0.00000000000E+00 -0.00000000000E+00 -0.64608978959E+02  0.64621459765E+02  0.12700000000E+01 0.  1.
         25    2    1    2    0    0  0.00000000000E+00  0.00000000000E+00 -0.41760843319E+01  0.12506769747E+03  0.12499795707E+03 0.  0.
    9000005    1    3    3    0    0 -0.82450617395E+01  0.46210782187E+02 -0.43362783673E+02  0.63912036748E+02  0.10000000000E+01 0.  0.
    9000005    1    3    3    0    0  0.82450617395E+01 -0.46210782187E+02  0.39186699342E+02  0.61155660725E+02  0.10000000000E+01 0.  0.
<mgrwt>
<rscale>  0 0.12499796E+03</rscale>
<asrwt>0</asrwt>
<pdfrwt beam="2">  1        4 0.99418294E-02 0.12499796E+03</pdfrwt>
<pdfrwt beam="1">  1       -4 0.92993549E-02 0.12499796E+03</pdfrwt>
<totfact> 0.10451875E+04</totfact>
</mgrwt>
</event>
<event>
 5    1  0.3251953E-002  0.1250052E+03  0.7818608E-02  0.1235061E+00
          4   -1    0    0  501    0  0.00000000000E+00  0.00000000000E+00  0.98678561888E+02  0.98686734044E+02  0.12700000000E+01 0.  1.
         -4   -1    0    0    0  501 -0.00000000000E+00 -0.00000000000E+00 -0.39568892360E+02  0.39589268023E+02  0.12700000000E+01 0.  1.
         25    2    1    2    0    0  0.00000000000E+00  0.00000000000E+00  0.59109669529E+02  0.13827600207E+03  0.12500519876E+03 0.  0.
    9000005    1    3    3    0    0  0.45667743953E+02  0.83096794743E+01 -0.16732214469E+02  0.49351399289E+02  0.10000000000E+01 0.  0.
    9000005    1    3    3    0    0 -0.45667743953E+02 -0.83096794743E+01  0.75841883998E+02  0.88924602777E+02  0.10000000000E+01 0.  0.
<mgrwt>
<rscale>  0 0.12500520E+03</rscale>
<asrwt>0</asrwt>
<pdfrwt beam="1">  1        4 0.15183513E-01 0.12500520E+03</pdfrwt>
<pdfrwt beam="2">  1       -4 0.60897179E-02 0.12500520E+03</pdfrwt>
<totfact> 0.10168251E+04</totfact>
</mgrwt>
</event>
<event>
 5    1  0.3251953E-002  0.1250001E+03  0.7818608E-02  0.1235069E+00
          4   -1    0    0  501    0  0.00000000000E+00  0.00000000000E+00  0.27446543331E+02  0.27475910191E+02  0.12700000000E+01 0.  1.
         -4   -1    0    0    0  501 -0.00000000000E+00 -0.00000000000E+00 -0.14221396199E+03  0.14221963256E+03  0.12700000000E+01 0.  1.
         25    2    1    2    0    0  0.00000000000E+00  0.00000000000E+00 -0.11476741866E+03  0.16969554275E+03  0.12500006737E+03 0.  0.
    9000005    1    3    3    0    0 -0.52354040263E+02  0.33142805103E+02 -0.46366250576E+02  0.77396513193E+02  0.10000000000E+01 0.  0.
    9000005    1    3    3    0    0  0.52354040263E+02 -0.33142805103E+02 -0.68401168084E+02  0.92299029558E+02  0.10000000000E+01 0.  0.
<mgrwt>
<rscale>  0 0.12500007E+03</rscale>
<asrwt>0</asrwt>
<pdfrwt beam="1">  1        4 0.42252404E-02 0.12500007E+03</pdfrwt>
<pdfrwt beam="2">  1       -4 0.21881766E-01 0.12500007E+03</pdfrwt>
<totfact> 0.95505269E+03</totfact>
</mgrwt>
</event>
<event>
 5    1  0.3251953E-002  0.1249993E+03  0.7818608E-02  0.1235070E+00
          4   -1    0    0  501    0  0.00000000000E+00  0.00000000000E+00  0.26422580774E+01  0.29316254446E+01  0.12700000000E+01 0.  1.
         -4   -1    0    0    0  501 -0.00000000000E+00 -0.00000000000E+00 -0.14013208625E+04  0.14013214380E+04  0.12700000000E+01 0.  1.
         25    2    1    2    0    0  0.00000000000E+00  0.00000000000E+00 -0.13986786044E+04  0.14042530634E+04  0.12499931081E+03 0.  0.
    9000005    1    3    3    0    0  0.34894035378E+02 -0.44650294438E+02 -0.99528113969E+03  0.99689356981E+03  0.10000000000E+01 0.  0.
    9000005    1    3    3    0    0 -0.34894035378E+02  0.44650294438E+02 -0.40339746469E+03  0.40735949359E+03  0.10000000000E+01 0.  0.
<mgrwt>
<rscale>  0 0.12499931E+03</rscale>
<asrwt>0</asrwt>
<pdfrwt beam="1">  1        4 0.42880566E-03 0.12499931E+03</pdfrwt>
<pdfrwt beam="2">  1       -4 0.21560957E+00 0.12499931E+03</pdfrwt>
<totfact> 0.19890217E+03</totfact>
</mgrwt>
</event>
<event>
 5    1  0.3251953E-002  0.1249990E+03  0.7818608E-02  0.1235071E+00
          4   -1    0    0  501    0  0.00000000000E+00  0.00000000000E+00  0.21428025763E+02  0.21465628062E+02  0.12700000000E+01 0. -1.
         -4   -1    0    0    0  501 -0.00000000000E+00 -0.00000000000E+00 -0.18209363354E+03  0.18209806226E+03  0.12700000000E+01 0. -1.
         25    2    1    2    0    0  0.00000000000E+00  0.00000000000E+00 -0.16066560778E+03  0.20356369032E+03  0.12499895396E+03 0.  0.
    9000005    1    3    3    0    0  0.42807477110E+01 -0.46383630745E+02 -0.12491206806E+02  0.48236876449E+02  0.10000000000E+01 0.  0.
    9000005    1    3    3    0    0 -0.42807477110E+01  0.46383630745E+02 -0.14817440098E+03  0.15532681387E+03  0.10000000000E+01 0.  0.
<mgrwt>
<rscale>  0 0.12499895E+03</rscale>
<asrwt>0</asrwt>
<pdfrwt beam="1">  1        4 0.32998526E-02 0.12499895E+03</pdfrwt>
<pdfrwt beam="2">  1       -4 0.28017637E-01 0.12499895E+03</pdfrwt>
<totfact> 0.89540018E+03</totfact>
</mgrwt>
</event>
<event>
 5    1  0.3251953E-002  0.1249977E+03  0.7818608E-02  0.1235073E+00
         -4   -1    0    0    0  501 -0.00000000000E+00  0.00000000000E+00  0.28190454974E+03  0.28190741044E+03  0.12700000000E+01 0.  1.
          4   -1    0    0  501    0  0.00000000000E+00 -0.00000000000E+00 -0.13824093494E+02  0.13882307478E+02  0.12700000000E+01 0.  1.
         25    2    1    2    0    0  0.00000000000E+00  0.00000000000E+00  0.26808045624E+03  0.29578971792E+03  0.12499770481E+03 0.  0.
    9000005    1    3    3    0    0 -0.50732970510E+02  0.20033369726E+02  0.61878380010E+02  0.82493054932E+02  0.10000000000E+01 0.  0.
    9000005    1    3    3    0    0  0.50732970510E+02 -0.20033369726E+02  0.20620207623E+03  0.21329666299E+03  0.10000000000E+01 0.  0.
<mgrwt>
<rscale>  0 0.12499770E+03</rscale>
<asrwt>0</asrwt>
<pdfrwt beam="2">  1        4 0.21314818E-02 0.12499770E+03</pdfrwt>
<pdfrwt beam="1">  1       -4 0.43374626E-01 0.12499770E+03</pdfrwt>
<totfact> 0.76133903E+03</totfact>
</mgrwt>
</event>
<event>
 5    1  0.3251953E-002  0.1250010E+03  0.7818608E-02  0.1235068E+00
         -4   -1    0    0    0  501 -0.00000000000E+00  0.00000000000E+00  0.45767905332E+03  0.45768081535E+03  0.12700000000E+01 0.  1.
          4   -1    0    0  501    0  0.00000000000E+00 -0.00000000000E+00 -0.84860133366E+01  0.85805199347E+01  0.12700000000E+01 0.  1.
         25    2    1    2    0    0  0.00000000000E+00  0.00000000000E+00  0.44919303998E+03  0.46626133529E+03  0.12500098248E+03 0.  0.
    9000005    1    3    3    0    0  0.13229392150E+02  0.49956884530E+02  0.35565944770E+03  0.35939581226E+03  0.10000000000E+01 0.  0.
    9000005    1    3    3    0    0 -0.13229392150E+02 -0.49956884530E+02  0.93533592274E+02  0.10686552303E+03  0.10000000000E+01 0.  0.
<mgrwt>
<rscale>  0 0.12500098E+03</rscale>
<asrwt>0</asrwt>
<pdfrwt beam="2">  1        4 0.13129455E-02 0.12500098E+03</pdfrwt>
<pdfrwt beam="1">  1       -4 0.70419586E-01 0.12500098E+03</pdfrwt>
<totfact> 0.58579235E+03</totfact>
</mgrwt>
</event>
<event>
 5    1  0.3251953E-002  0.1250058E+03  0.7818608E-02  0.1235060E+00
         -4   -1    0    0    0  501 -0.00000000000E+00  0.00000000000E+00  0.37349580837E+01  0.39449729894E+01  0.12700000000E+01 0. -1.
          4   -1    0    0  501    0  0.00000000000E+00 -0.00000000000E+00 -0.10171461204E+04  0.10171469133E+04  0.12700000000E+01 0. -1.
         25    2    1    2    0    0  0.00000000000E+00  0.00000000000E+00 -0.10134111624E+04  0.10210918863E+04  0.12500582486E+03 0.  0.
    9000005    1    3    3    0    0  0.36115691164E+02  0.44410386013E+02 -0.30184616187E+03  0.30722749059E+03  0.10000000000E+01 0.  0.
    9000005    1    3    3    0    0 -0.36115691164E+02 -0.44410386013E+02 -0.71156500049E+03  0.71386439571E+03  0.10000000000E+01 0.  0.
<mgrwt>
<rscale>  0 0.12500582E+03</rscale>
<asrwt>0</asrwt>
<pdfrwt beam="2">  1        4 0.15650002E+00 0.12500582E+03</pdfrwt>
<pdfrwt beam="1">  1       -4 0.59082573E-03 0.12500582E+03</pdfrwt>
<totfact> 0.29911066E+03</totfact>
</mgrwt>
</event>
<event>
 5    1  0.3251953E-002  0.1249993E+03  0.7818608E-02  0.1235070E+00
         -4   -1    0    0    0  501 -0.00000000000E+00  0.00000000000E+00  0.84683061359E+02  0.84692583979E+02  0.12700000000E+01 0.  1.
          4   -1    0    0  501    0  0.00000000000E+00 -0.00000000000E+00 -0.46106502932E+02  0.46123990641E+02  0.12700000000E+01 0.  1.
         25    2    1    2    0    0  0.00000000000E+00  0.00000000000E+00  0.38576558427E+02  0.13081657462E+03  0.12499930134E+03 0.  0.
    9000005    1    3    3    0    0  0.16872007197E+02 -0.25599930685E+02  0.76275975816E+02  0.82213414749E+02  0.10000000000E+01 0.  0.
    9000005    1    3    3    0    0 -0.16872007197E+02  0.25599930685E+02 -0.37699417389E+02  0.48603159871E+02  0.10000000000E+01 0.  0.
<mgrwt>
<rscale>  0 0.12499930E+03</rscale>
<asrwt>0</asrwt>
<pdfrwt beam="2">  1        4 0.70953860E-02 0.12499930E+03</pdfrwt>
<pdfrwt beam="1">  1       -4 0.13030241E-01 0.12499930E+03</pdfrwt>
<totfact> 0.10327186E+04</totfact>
</mgrwt>
</event>
<event>
 5    1  0.3251953E-002  0.1250021E+03  0.7818608E-02  0.1235066E+00
          4   -1    0    0  501    0  0.00000000000E+00  0.00000000000E+00  0.72442888743E+02  0.72454020106E+02  0.12700000000E+01 0. -1.
         -4   -1    0    0    0  501 -0.00000000000E+00 -0.00000000000E+00 -0.53900857245E+02  0.53915816898E+02  0.12700000000E+01 0. -1.
         25    2    1    2    0    0  0.00000000000E+00  0.00000000000E+00  0.18542031498E+02  0.12636983700E+03  0.12500211507E+03 0.  0.
    9000005    1    3    3    0    0  0.57476433254E+02  0.17656168774E+02 -0.79477121970E+01  0.60658443802E+02  0.10000000000E+01 0.  0.
    9000005    1    3    3    0    0 -0.57476433254E+02 -0.17656168774E+02  0.26489743695E+02  0.65711393201E+02  0.10000000000E+01 0.  0.
<mgrwt>
<rscale>  0 0.12500212E+03</rscale>
<asrwt>0</asrwt>
<pdfrwt beam="1">  1        4 0.11147067E-01 0.12500212E+03</pdfrwt>
<pdfrwt beam="2">  1       -4 0.82944466E-02 0.12500212E+03</pdfrwt>
<totfact> 0.10422371E+04</totfact>
</mgrwt>
</event>
<event>
 5    1  0.3251953E-002  0.1250008E+03  0.7818608E-02  0.1235068E+00
         -4   -1    0    0    0  501 -0.00000000000E+00  0.00000000000E+00  0.95740490652E+01  0.96579146560E+01  0.12700000000E+01 0.  1.
          4   -1    0    0  501    0  0.00000000000E+00 -0.00000000000E+00 -0.40614536259E+03  0.40614734820E+03  0.12700000000E+01 0.  1.
         25    2    1    2    0    0  0.00000000000E+00  0.00000000000E+00 -0.39657131352E+03  0.41580526286E+03  0.12500083964E+03 0.  0.
    9000005    1    3    3    0    0  0.30466727532E+02 -0.39501339919E+02 -0.73081181800E+02  0.88489753504E+02  0.10000000000E+01 0.  0.
    9000005    1    3    3    0    0 -0.30466727532E+02  0.39501339919E+02 -0.32349013172E+03  0.32731550935E+03  0.10000000000E+01 0.  0.
<mgrwt>
<rscale>  0 0.12500084E+03</rscale>
<asrwt>0</asrwt>
<pdfrwt beam="2">  1        4 0.62490493E-01 0.12500084E+03</pdfrwt>
<pdfrwt beam="1">  1       -4 0.14795349E-02 0.12500084E+03</pdfrwt>
<totfact> 0.63042916E+03</totfact>
</mgrwt>
</event>
<event>
 5    1  0.3251953E-002  0.1250024E+03  0.7818608E-02  0.1235066E+00
          4   -1    0    0  501    0  0.00000000000E+00  0.00000000000E+00  0.73450284380E+02  0.73461263095E+02  0.12700000000E+01 0.  1.
         -4   -1    0    0    0  501 -0.00000000000E+00 -0.00000000000E+00 -0.53161751943E+02  0.53176919520E+02  0.12700000000E+01 0.  1.
         25    2    1    2    0    0  0.00000000000E+00  0.00000000000E+00  0.20288532437E+02  0.12663818262E+03  0.12500241897E+03 0.  0.
    9000005    1    3    3    0    0 -0.21403418818E+02  0.43083651650E+02  0.50554758884E+02  0.69793201835E+02  0.10000000000E+01 0.  0.
    9000005    1    3    3    0    0  0.21403418818E+02 -0.43083651650E+02 -0.30266226447E+02  0.56844980780E+02  0.10000000000E+01 0.  0.
<mgrwt>
<rscale>  0 0.12500242E+03</rscale>
<asrwt>0</asrwt>
<pdfrwt beam="1">  1        4 0.11302055E-01 0.12500242E+03</pdfrwt>
<pdfrwt beam="2">  1       -4 0.81807423E-02 0.12500242E+03</pdfrwt>
<totfact> 0.10416448E+04</totfact>
</mgrwt>
</event>
<event>
 5    1  0.3251953E-002  0.1249955E+03  0.7818608E-02  0.1235076E+00
          4   -1    0    0  501    0  0.00000000000E+00  0.00000000000E+00  0.64416444794E+03  0.64416569987E+03  0.12700000000E+01 0. -1.
         -4   -1    0    0    0  501 -0.00000000000E+00 -0.00000000000E+00 -0.59958474810E+01  0.61288732256E+01  0.12700000000E+01 0. -1.
         25    2    1    2    0    0  0.00000000000E+00  0.00000000000E+00  0.63816860046E+03  0.65029457309E+03  0.12499547666E+03 0.  0.
    9000005    1    3    3    0    0 -0.20440122728E+02  0.53854972830E+02  0.44511164918E+03  0.44882461714E+03  0.10000000000E+01 0.  0.
    9000005    1    3    3    0    0  0.20440122728E+02 -0.53854972830E+02  0.19305695128E+03  0.20146995596E+03  0.10000000000E+01 0.  0.
<mgrwt>
<rscale>  0 0.12499548E+03</rscale>
<asrwt>0</asrwt>
<pdfrwt beam="1">  1        4 0.99112554E-01 0.12499548E+03</pdfrwt>
<pdfrwt beam="2">  1       -4 0.93276711E-03 0.12499548E+03</pdfrwt>
<totfact> 0.45843711E+03</totfact>
</mgrwt>
</event>
<event>
 5    1  0.3251953E-002  0.1250029E+03  0.7818608E-02  0.1235065E+00
          4   -1    0    0  501    0  0.00000000000E+00  0.00000000000E+00  0.20154645794E+03  0.20155045921E+03  0.12700000000E+01 0.  1.
         -4   -1    0    0    0  501 -0.00000000000E+00 -0.00000000000E+00 -0.19357296985E+02  0.19398913541E+02  0.12700000000E+01 0.  1.
         25    2    1    2    0    0  0.00000000000E+00  0.00000000000E+00  0.18218916095E+03  0.22094937275E+03  0.12500293977E+03 0.  0.
    9000005    1    3    3    0    0  0.18012819253E+02  0.27091355138E+02  0.18540694006E+03  0.18824222853E+03  0.10000000000E+01 0.  0.
    9000005    1    3    3    0    0 -0.18012819253E+02 -0.27091355138E+02 -0.32177791041E+01  0.32707144220E+02  0.10000000000E+01 0.  0.
<mgrwt>
<rscale>  0 0.12500294E+03</rscale>
<asrwt>0</asrwt>
<pdfrwt beam="1">  1        4 0.31010656E-01 0.12500294E+03</pdfrwt>
<pdfrwt beam="2">  1       -4 0.29815548E-02 0.12500294E+03</pdfrwt>
<totfact> 0.86712652E+03</totfact>
</mgrwt>
</event>
<event>
 5    1  0.3251953E-002  0.1250017E+03  0.7818608E-02  0.1235067E+00
          4   -1    0    0  501    0  0.00000000000E+00  0.00000000000E+00  0.33945286042E+02  0.33969035083E+02  0.12700000000E+01 0.  1.
         -4   -1    0    0    0  501 -0.00000000000E+00 -0.00000000000E+00 -0.11501055071E+03  0.11501756246E+03  0.12700000000E+01 0.  1.
         25    2    1    2    0    0  0.00000000000E+00  0.00000000000E+00 -0.81065264670E+02  0.14898659755E+03  0.12500171644E+03 0.  0.
    9000005    1    3    3    0    0 -0.17888467307E+02  0.42189529359E+02  0.10110245982E+02  0.46937945459E+02  0.10000000000E+01 0.  0.
    9000005    1    3    3    0    0  0.17888467307E+02 -0.42189529359E+02 -0.91175510653E+02  0.10204865209E+03  0.10000000000E+01 0.  0.
<mgrwt>
<rscale>  0 0.12500172E+03</rscale>
<asrwt>0</asrwt>
<pdfrwt beam="1">  1        4 0.52247180E-02 0.12500172E+03</pdfrwt>
<pdfrwt beam="2">  1       -4 0.17696297E-01 0.12500172E+03</pdfrwt>
<totfact> 0.99502245E+03</totfact>
</mgrwt>
</event>
<event>
 5    1  0.3251953E-002  0.1249988E+03  0.7818608E-02  0.1235071E+00
         -4   -1    0    0    0  501 -0.00000000000E+00  0.00000000000E+00  0.38333340220E+02  0.38354372272E+02  0.12700000000E+01 0. -1.
          4   -1    0    0  501    0  0.00000000000E+00 -0.00000000000E+00 -0.10184723975E+03  0.10185515767E+03  0.12700000000E+01 0. -1.
         25    2    1    2    0    0  0.00000000000E+00  0.00000000000E+00 -0.63513899529E+02  0.14020952994E+03  0.12499878741E+03 0.  0.
    9000005    1    3    3    0    0  0.62043939269E+02  0.15739926985E+01 -0.39941912319E+02  0.73812493609E+02  0.10000000000E+01 0.  0.
    9000005    1    3    3    0    0 -0.62043939269E+02 -0.15739926985E+01 -0.23571987209E+02  0.66397036335E+02  0.10000000000E+01 0.  0.
<mgrwt>
<rscale>  0 0.12499879E+03</rscale>
<asrwt>0</asrwt>
<pdfrwt beam="2">  1        4 0.15671033E-01 0.12499879E+03</pdfrwt>
<pdfrwt beam="1">  1       -4 0.58996639E-02 0.12499879E+03</pdfrwt>
<totfact> 0.10129522E+04</totfact>
</mgrwt>
</event>
<event>
 5    1  0.3251953E-002  0.1249979E+03  0.7818608E-02  0.1235073E+00
          4   -1    0    0  501    0  0.00000000000E+00  0.00000000000E+00  0.60895434257E+02  0.60908676011E+02  0.12700000000E+01 0. -1.
         -4   -1    0    0    0  501 -0.00000000000E+00 -0.00000000000E+00 -0.64118172668E+02  0.64130748992E+02  0.12700000000E+01 0. -1.
         25    2    1    2    0    0  0.00000000000E+00  0.00000000000E+00 -0.32227384105E+01  0.12503942500E+03  0.12499788703E+03 0.  0.
    9000005    1    3    3    0    0 -0.90347624953E+01  0.48113681297E+02 -0.40464521796E+02  0.63521105040E+02  0.10000000000E+01 0.  0.
    9000005    1    3    3    0    0  0.90347624953E+01 -0.48113681297E+02  0.37241783386E+02  0.61518319963E+02  0.10000000000E+01 0.  0.
<mgrwt>
<rscale>  0 0.12499789E+03</rscale>
<asrwt>0</asrwt>
<pdfrwt beam="1">  1        4 0.93705143E-02 0.12499789E+03</pdfrwt>
<pdfrwt beam="2">  1       -4 0.98663203E-02 0.12499789E+03</pdfrwt>
<totfact> 0.10452505E+04</totfact>
</mgrwt>
</event>
<event>
 5    1  0.3251953E-002  0.1250011E+03  0.7818608E-02  0.1235068E+00
          4   -1    0    0  501    0  0.00000000000E+00  0.00000000000E+00  0.94987797058E+03  0.94987881958E+03  0.12700000000E+01 0. -1.
         -4   -1    0    0    0  501 -0.00000000000E+00 -0.00000000000E+00 -0.40135228450E+01  0.42096633627E+01  0.12700000000E+01 0. -1.
         25    2    1    2    0    0  0.00000000000E+00  0.00000000000E+00  0.94586444773E+03  0.95408848294E+03  0.12500111920E+03 0.  0.
    9000005    1    3    3    0    0 -0.18404881184E+02 -0.58508616718E+02  0.38155640415E+03  0.38645606145E+03  0.10000000000E+01 0.  0.
    9000005    1    3    3    0    0  0.18404881184E+02  0.58508616718E+02  0.56430804358E+03  0.56763242149E+03  0.10000000000E+01 0.  0.
<mgrwt>
<rscale>  0 0.12500112E+03</rscale>
<asrwt>0</asrwt>
<pdfrwt beam="1">  1        4 0.14615006E+00 0.12500112E+03</pdfrwt>
<pdfrwt beam="2">  1       -4 0.63261879E-03 0.12500112E+03</pdfrwt>
<totfact> 0.32170505E+03</totfact>
</mgrwt>
</event>
<event>
 5    1  0.3251953E-002  0.1250042E+03  0.7818608E-02  0.1235063E+00
          4   -1    0    0  501    0  0.00000000000E+00  0.00000000000E+00  0.14528216952E+03  0.14528772033E+03  0.12700000000E+01 0.  1.
         -4   -1    0    0    0  501 -0.00000000000E+00 -0.00000000000E+00 -0.26868060440E+02  0.26898058886E+02  0.12700000000E+01 0.  1.
         25    2    1    2    0    0  0.00000000000E+00  0.00000000000E+00  0.11841410908E+03  0.17218577922E+03  0.12500416528E+03 0.  0.
    9000005    1    3    3    0    0  0.16344179778E+02 -0.48227879197E+02  0.10910861709E+03  0.12041075893E+03  0.10000000000E+01 0.  0.
    9000005    1    3    3    0    0 -0.16344179778E+02  0.48227879197E+02  0.93054919909E+01  0.51775020286E+02  0.10000000000E+01 0.  0.
<mgrwt>
<rscale>  0 0.12500417E+03</rscale>
<asrwt>0</asrwt>
<pdfrwt beam="1">  1        4 0.22353837E-01 0.12500417E+03</pdfrwt>
<pdfrwt beam="2">  1       -4 0.41362824E-02 0.12500417E+03</pdfrwt>
<totfact> 0.95033917E+03</totfact>
</mgrwt>
</event>
<event>
 5    1  0.3251953E-002  0.1250002E+03  0.7818608E-02  0.1235069E+00
          4   -1    0    0  501    0  0.00000000000E+00  0.00000000000E+00  0.29179069742E+03  0.29179346120E+03  0.12700000000E+01 0. -1.
         -4   -1    0    0    0  501 -0.00000000000E+00 -0.00000000000E+00 -0.13354247213E+02  0.13414500312E+02  0.12700000000E+01 0. -1.
         25    2    1    2    0    0  0.00000000000E+00  0.00000000000E+00  0.27843645020E+03  0.30520796151E+03  0.12500017187E+03 0.  0.
    9000005    1    3    3    0    0  0.65753009236E+01 -0.28737094620E+02  0.27375804227E+03  0.27534255192E+03  0.10000000000E+01 0.  0.
    9000005    1    3    3    0    0 -0.65753009236E+01  0.28737094620E+02  0.46784079354E+01  0.29865409594E+02  0.10000000000E+01 0.  0.
<mgrwt>
<rscale>  0 0.12500017E+03</rscale>
<asrwt>0</asrwt>
<pdfrwt beam="1">  1        4 0.44895722E-01 0.12500017E+03</pdfrwt>
<pdfrwt beam="2">  1       -4 0.20593471E-02 0.12500017E+03</pdfrwt>
<totfact> 0.74949886E+03</totfact>
</mgrwt>
</event>
<event>
 5    1  0.3251953E-002  0.1250006E+03  0.7818608E-02  0.1235068E+00
         -4   -1    0    0    0  501 -0.00000000000E+00  0.00000000000E+00  0.20552063855E+02  0.20591265835E+02  0.12700000000E+01 0. -1.
          4   -1    0    0  501    0  0.00000000000E+00 -0.00000000000E+00 -0.18984560900E+03  0.18984985688E+03  0.12700000000E+01 0. -1.
         25    2    1    2    0    0  0.00000000000E+00  0.00000000000E+00 -0.16929354515E+03  0.21044112272E+03  0.12500064680E+03 0.  0.
    9000005    1    3    3    0    0  0.24352987617E+02 -0.31279457358E+01  0.12099827338E+02  0.27390835548E+02  0.10000000000E+01 0.  0.
    9000005    1    3    3    0    0 -0.24352987617E+02  0.31279457358E+01 -0.18139337249E+03  0.18305028717E+03  0.10000000000E+01 0.  0.
<mgrwt>
<rscale>  0 0.12500065E+03</rscale>
<asrwt>0</asrwt>
<pdfrwt beam="2">  1        4 0.29210358E-01 0.12500065E+03</pdfrwt>
<pdfrwt beam="1">  1       -4 0.31651984E-02 0.12500065E+03</pdfrwt>
<totfact> 0.88402613E+03</totfact>
</mgrwt>
</event>
<event>
 5    1  0.3251953E-002  0.1249999E+03  0.7818608E-02  0.1235069E+00
         -4   -1    0    0    0  501 -0.00000000000E+00  0.00000000000E+00  0.84749632033E+01  0.85695916645E+01  0.12700000000E+01 0.  1.
          4   -1    0    0  501    0  0.00000000000E+00 -0.00000000000E+00 -0.45826119780E+03  0.45826295760E+03  0.12700000000E+01 0.  1.
         25    2    1    2    0    0  0.00000000000E+00  0.00000000000E+00 -0.44978623460E+03  0.46683254927E+03  0.12499988888E+03 0.  0.
    9000005    1    3    3    0    0 -0.29818936769E+02 -0.17648616406E+02 -0.41911718988E+03  0.42054828677E+03  0.10000000000E+01 0.  0.
    9000005    1    3    3    0    0  0.29818936769E+02  0.17648616406E+02 -0.30669044717E+02  0.46284262498E+02  0.10000000000E+01 0.  0.
<mgrwt>
<rscale>  0 0.12499989E+03</rscale>
<asrwt>0</asrwt>
<pdfrwt beam="2">  1        4 0.70509118E-01 0.12499989E+03</pdfrwt>
<pdfrwt beam="1">  1       -4 0.13112553E-02 0.12499989E+03</pdfrwt>
<totfact> 0.58532983E+03</totfact>
</mgrwt>
</event>
<event>
 5    1  0.3251953E-002  0.1249991E+03  0.7818608E-02  0.1235071E+00
         -4   -1    0    0    0  501 -0.00000000000E+00  0.00000000000E+00  0.23541174688E+02  0.23575406798E+02  0.12700000000E+01 0.  1.
          4   -1    0    0  501    0  0.00000000000E+00 -0.00000000000E+00 -0.16577310697E+03  0.16577797168E+03  0.12700000000E+01 0.  1.
         25    2    1    2    0    0  0.00000000000E+00  0.00000000000E+00 -0.14223193228E+03  0.18935337848E+03  0.12499911752E+03 0.  0.
    9000005    1    3    3    0    0 -0.46316105330E+02  0.14493790918E+02 -0.13075409525E+03  0.13947359970E+03  0.10000000000E+01 0.  0.
    9000005    1    3    3    0    0  0.46316105330E+02 -0.14493790918E+02 -0.11477837032E+02  0.49879778779E+02  0.10000000000E+01 0.  0.
<mgrwt>
<rscale>  0 0.12499912E+03</rscale>
<asrwt>0</asrwt>
<pdfrwt beam="2">  1        4 0.25506562E-01 0.12499912E+03</pdfrwt>
<pdfrwt beam="1">  1       -4 0.36247267E-02 0.12499912E+03</pdfrwt>
<totfact> 0.91961765E+03</totfact>
</mgrwt>
</event>
<event>
 5    1  0.3251953E-002  0.1250097E+03  0.7818608E-02  0.1235054E+00
         -4   -1    0    0    0  501 -0.00000000000E+00  0.00000000000E+00  0.98684412685E+02  0.98692584357E+02  0.12700000000E+01 0. -1.
          4   -1    0    0  501    0  0.00000000000E+00 -0.00000000000E+00 -0.39569373670E+02  0.39589749085E+02  0.12700000000E+01 0. -1.
         25    2    1    2    0    0  0.00000000000E+00  0.00000000000E+00  0.59115039016E+02  0.13828233344E+03  0.12500966324E+03 0.  0.
    9000005    1    3    3    0    0 -0.36656079997E+02 -0.28611253943E+02  0.75747129266E+02  0.88887004927E+02  0.10000000000E+01 0.  0.
    9000005    1    3    3    0    0  0.36656079997E+02  0.28611253943E+02 -0.16632090250E+02  0.49395328514E+02  0.10000000000E+01 0.  0.
<mgrwt>
<rscale>  0 0.12500966E+03</rscale>
<asrwt>0</asrwt>
<pdfrwt beam="2">  1        4 0.60897919E-02 0.12500966E+03</pdfrwt>
<pdfrwt beam="1">  1       -4 0.15184413E-01 0.12500966E+03</pdfrwt>
<totfact> 0.10167096E+04</totfact>
</mgrwt>
</event>
<event>
 5    1  0.3251953E-002  0.1250001E+03  0.7818608E-02  0.1235069E+00
          4   -1    0    0  501    0  0.00000000000E+00  0.00000000000E+00  0.13018692354E+02  0.13080491221E+02  0.12700000000E+01 0. -1.
         -4   -1    0    0    0  501 -0.00000000000E+00 -0.00000000000E+00 -0.29927630565E+03  0.29927900031E+03  0.12700000000E+01 0. -1.
         25    2    1    2    0    0  0.00000000000E+00  0.00000000000E+00 -0.28625761330E+03  0.31235949153E+03  0.12500012311E+03 0.  0.
    9000005    1    3    3    0    0  0.61884745456E+02  0.53358805318E+01 -0.16027194431E+03  0.17189034142E+03  0.10000000000E+01 0.  0.
    9000005    1    3    3    0    0 -0.61884745456E+02 -0.53358805318E+01 -0.12598566899E+03  0.14046915011E+03  0.10000000000E+01 0.  0.
<mgrwt>
<rscale>  0 0.12500012E+03</rscale>
<asrwt>0</asrwt>
<pdfrwt beam="1">  1        4 0.20078370E-02 0.12500012E+03</pdfrwt>
<pdfrwt beam="2">  1       -4 0.46047464E-01 0.12500012E+03</pdfrwt>
<totfact> 0.74073973E+03</totfact>
</mgrwt>
</event>
<event>
 5    1  0.3251953E-002  0.1250005E+03  0.7818608E-02  0.1235069E+00
         -4   -1    0    0    0  501 -0.00000000000E+00  0.00000000000E+00  0.67989579726E+02  0.68001440068E+02  0.12700000000E+01 0.  1.
          4   -1    0    0  501    0  0.00000000000E+00 -0.00000000000E+00 -0.57430186851E+02  0.57444227401E+02  0.12700000000E+01 0.  1.
         25    2    1    2    0    0  0.00000000000E+00  0.00000000000E+00  0.10559392875E+02  0.12544566747E+03  0.12500045883E+03 0.  0.
    9000005    1    3    3    0    0  0.53777504259E+02  0.23801811685E+02  0.26491022543E+02  0.64508297755E+02  0.10000000000E+01 0.  0.
    9000005    1    3    3    0    0 -0.53777504259E+02 -0.23801811685E+02 -0.15931629668E+02  0.60937369714E+02  0.10000000000E+01 0.  0.
<mgrwt>
<rscale>  0 0.12500046E+03</rscale>
<asrwt>0</asrwt>
<pdfrwt beam="2">  1        4 0.88374057E-02 0.12500046E+03</pdfrwt>
<pdfrwt beam="1">  1       -4 0.10461928E-01 0.12500046E+03</pdfrwt>
<totfact> 0.10443048E+04</totfact>
</mgrwt>
</event>
<event>
 5    1  0.3251953E-002  0.1250279E+03  0.7818608E-02  0.1235026E+00
         -4   -1    0    0    0  501 -0.00000000000E+00  0.00000000000E+00  0.91592323613E+03  0.91592411661E+03  0.12700000000E+01 0. -1.
          4   -1    0    0  501    0  0.00000000000E+00 -0.00000000000E+00 -0.41713232698E+01  0.43603712940E+01  0.12700000000E+01 0. -1.
         25    2    1    2    0    0  0.00000000000E+00  0.00000000000E+00  0.91175191286E+03  0.92028448790E+03  0.12502794915E+03 0.  0.
    9000005    1    3    3    0    0  0.55621963748E+02  0.28070088501E+02  0.41887877787E+03  0.42348809106E+03  0.10000000000E+01 0.  0.
    9000005    1    3    3    0    0 -0.55621963748E+02 -0.28070088501E+02  0.49287313499E+03  0.49679639684E+03  0.10000000000E+01 0.  0.
<mgrwt>
<rscale>  0 0.12502795E+03</rscale>
<asrwt>0</asrwt>
<pdfrwt beam="2">  1        4 0.65635206E-03 0.12502795E+03</pdfrwt>
<pdfrwt beam="1">  1       -4 0.14092585E+00 0.12502795E+03</pdfrwt>
<totfact> 0.33374658E+03</totfact>
</mgrwt>
</event>
<event>
 5    1  0.3251953E-002  0.1249999E+03  0.7818608E-02  0.1235069E+00
         -4   -1    0    0    0  501 -0.00000000000E+00  0.00000000000E+00  0.22463546594E+03  0.22463905595E+03  0.12700000000E+01 0.  1.
          4   -1    0    0  501    0  0.00000000000E+00 -0.00000000000E+00 -0.17362324606E+02  0.17408710915E+02  0.12700000000E+01 0.  1.
         25    2    1    2    0    0  0.00000000000E+00  0.00000000000E+00  0.20727314133E+03  0.24204776687E+03  0.12499986530E+03 0.  0.
    9000005    1    3    3    0    0  0.45401605519E+02  0.41694065515E+01  0.18639410393E+03  0.19189177084E+03  0.10000000000E+01 0.  0.
    9000005    1    3    3    0    0 -0.45401605519E+02 -0.41694065515E+01  0.20879037401E+02  0.50155996027E+02  0.10000000000E+01 0.  0.
<mgrwt>
<rscale>  0 0.12499987E+03</rscale>
<asrwt>0</asrwt>
<pdfrwt beam="2">  1        4 0.26749712E-02 0.12499987E+03</pdfrwt>
<pdfrwt beam="1">  1       -4 0.34563146E-01 0.12499987E+03</pdfrwt>
<totfact> 0.83493581E+03</totfact>
</mgrwt>
</event>
<event>
 5    1  0.3251953E-002  0.1250043E+03  0.7818608E-02  0.1235063E+00
         -4   -1    0    0    0  501 -0.00000000000E+00  0.00000000000E+00  0.70440457468E+01  0.71576169556E+01  0.12700000000E+01 0.  1.
          4   -1    0    0  501    0  0.00000000000E+00 -0.00000000000E+00 -0.55003491887E+03  0.55003638505E+03  0.12700000000E+01 0.  1.
         25    2    1    2    0    0  0.00000000000E+00  0.00000000000E+00 -0.54299087313E+03  0.55719400201E+03  0.12500427022E+03 0.  0.
    9000005    1    3    3    0    0 -0.54414033407E+02  0.27993896045E+02 -0.21494235479E+03  0.22348548304E+03  0.10000000000E+01 0.  0.
    9000005    1    3    3    0    0  0.54414033407E+02 -0.27993896045E+02 -0.32804851834E+03  0.33370851897E+03  0.10000000000E+01 0.  0.
<mgrwt>
<rscale>  0 0.12500427E+03</rscale>
<asrwt>0</asrwt>
<pdfrwt beam="2">  1        4 0.84629572E-01 0.12500427E+03</pdfrwt>
<pdfrwt beam="1">  1       -4 0.10925488E-02 0.12500427E+03</pdfrwt>
<totfact> 0.51681325E+03</totfact>
</mgrwt>
</event>
<event>
 5    1  0.3251953E-002  0.1249944E+03  0.7818608E-02  0.1235078E+00
          4   -1    0    0  501    0  0.00000000000E+00  0.00000000000E+00  0.19147047344E+02  0.19189119886E+02  0.12700000000E+01 0.  1.
         -4   -1    0    0    0  501 -0.00000000000E+00 -0.00000000000E+00 -0.20372690783E+03  0.20373086628E+03  0.12700000000E+01 0.  1.
         25    2    1    2    0    0  0.00000000000E+00  0.00000000000E+00 -0.18457986049E+03  0.22291998616E+03  0.12499438121E+03 0.  0.
    9000005    1    3    3    0    0  0.13182681674E+02  0.34062046030E+02 -0.18624359383E+01  0.36585171087E+02  0.10000000000E+01 0.  0.
    9000005    1    3    3    0    0 -0.13182681674E+02 -0.34062046030E+02 -0.18271742455E+03  0.18633481508E+03  0.10000000000E+01 0.  0.
<mgrwt>
<rscale>  0 0.12499438E+03</rscale>
<asrwt>0</asrwt>
<pdfrwt beam="1">  1        4 0.29492406E-02 0.12499438E+03</pdfrwt>
<pdfrwt beam="2">  1       -4 0.31346140E-01 0.12499438E+03</pdfrwt>
<totfact> 0.86419242E+03</totfact>
</mgrwt>
</event>
<event>
 5    1  0.3251953E-002  0.1250006E+03  0.7818608E-02  0.1235068E+00
         -4   -1    0    0    0  501 -0.00000000000E+00  0.00000000000E+00  0.53874417789E+01  0.55351087542E+01  0.12700000000E+01 0.  1.
          4   -1    0    0  501    0  0.00000000000E+00 -0.00000000000E+00 -0.71512213850E+03  0.71512326621E+03  0.12700000000E+01 0.  1.
         25    2    1    2    0    0  0.00000000000E+00  0.00000000000E+00 -0.70973469672E+03  0.72065837496E+03  0.12500061469E+03 0.  0.
    9000005    1    3    3    0    0 -0.36385883194E+02 -0.25596993340E+02 -0.10184299391E+03  0.11114015463E+03  0.10000000000E+01 0.  0.
    9000005    1    3    3    0    0  0.36385883194E+02  0.25596993340E+02 -0.60789170281E+03  0.60951822033E+03  0.10000000000E+01 0.  0.
<mgrwt>
<rscale>  0 0.12500061E+03</rscale>
<asrwt>0</asrwt>
<pdfrwt beam="2">  1        4 0.11003016E+00 0.12500061E+03</pdfrwt>
<pdfrwt beam="1">  1       -4 0.84028351E-03 0.12500061E+03</pdfrwt>
<totfact> 0.42017808E+03</totfact>
</mgrwt>
</event>
<event>
 5    1  0.3251953E-002  0.1249938E+03  0.7818608E-02  0.1235079E+00
         -4   -1    0    0    0  501 -0.00000000000E+00  0.00000000000E+00  0.23294994339E+03  0.23295340527E+03  0.12700000000E+01 0. -1.
          4   -1    0    0  501    0  0.00000000000E+00 -0.00000000000E+00 -0.16739320101E+02  0.16787427958E+02  0.12700000000E+01 0. -1.
         25    2    1    2    0    0  0.00000000000E+00  0.00000000000E+00  0.21621062329E+03  0.24974083323E+03  0.12499380047E+03 0.  0.
    9000005    1    3    3    0    0  0.30990599026E+02 -0.36503473877E+02  0.18832403558E+03  0.19431897286E+03  0.10000000000E+01 0.  0.
    9000005    1    3    3    0    0 -0.30990599026E+02  0.36503473877E+02  0.27886587709E+02  0.55421860372E+02  0.10000000000E+01 0.  0.
<mgrwt>
<rscale>  0 0.12499380E+03</rscale>
<asrwt>0</asrwt>
<pdfrwt beam="2">  1        4 0.25792470E-02 0.12499380E+03</pdfrwt>
<pdfrwt beam="1">  1       -4 0.35842419E-01 0.12499380E+03</pdfrwt>
<totfact> 0.82379076E+03</totfact>
</mgrwt>
</event>
<event>
 5    1  0.3251953E-002  0.1250002E+03  0.7818608E-02  0.1235069E+00
         -4   -1    0    0    0  501 -0.00000000000E+00  0.00000000000E+00  0.11201427070E+03  0.11202147000E+03  0.12700000000E+01 0.  1.
          4   -1    0    0  501    0  0.00000000000E+00 -0.00000000000E+00 -0.34853019606E+02  0.34876150528E+02  0.12700000000E+01 0.  1.
         25    2    1    2    0    0  0.00000000000E+00  0.00000000000E+00  0.77161251093E+02  0.14689762052E+03  0.12500020898E+03 0.  0.
    9000005    1    3    3    0    0 -0.55597556352E+02  0.56718249822E+01  0.71443749113E+02  0.90710898784E+02  0.10000000000E+01 0.  0.
    9000005    1    3    3    0    0  0.55597556352E+02 -0.56718249822E+01  0.57175019798E+01  0.56186721739E+02  0.10000000000E+01 0.  0.
<mgrwt>
<rscale>  0 0.12500021E+03</rscale>
<asrwt>0</asrwt>
<pdfrwt beam="2">  1        4 0.53643360E-02 0.12500021E+03</pdfrwt>
<pdfrwt beam="1">  1       -4 0.17235298E-01 0.12500021E+03</pdfrwt>
<totfact> 0.99925275E+03</totfact>
</mgrwt>
</event>
<event>
 5    1  0.3251953E-002  0.1250017E+03  0.7818608E-02  0.1235067E+00
         -4   -1    0    0    0  501 -0.00000000000E+00  0.00000000000E+00  0.29832090431E+02  0.29859111163E+02  0.12700000000E+01 0. -1.
          4   -1    0    0  501    0  0.00000000000E+00 -0.00000000000E+00 -0.13085529760E+03  0.13086146037E+03  0.12700000000E+01 0. -1.
         25    2    1    2    0    0  0.00000000000E+00  0.00000000000E+00 -0.10102320717E+03  0.16072057153E+03  0.12500165490E+03 0.  0.
    9000005    1    3    3    0    0  0.22052421833E+02 -0.54005717089E+02 -0.21691732297E+02  0.62245144687E+02  0.10000000000E+01 0.  0.
    9000005    1    3    3    0    0 -0.22052421833E+02  0.54005717089E+02 -0.79331474868E+02  0.98475426842E+02  0.10000000000E+01 0.  0.
<mgrwt>
<rscale>  0 0.12500165E+03</rscale>
<asrwt>0</asrwt>
<pdfrwt beam="2">  1        4 0.20134136E-01 0.12500165E+03</pdfrwt>
<pdfrwt beam="1">  1       -4 0.45921050E-02 0.12500165E+03</pdfrwt>
<totfact> 0.97200429E+03</totfact>
</mgrwt>
</event>
<event>
 5    1  0.3251953E-002  0.1250002E+03  0.7818608E-02  0.1235069E+00
         -4   -1    0    0    0  501 -0.00000000000E+00  0.00000000000E+00  0.50344476134E+02  0.50360492225E+02  0.12700000000E+01 0.  1.
          4   -1    0    0  501    0  0.00000000000E+00 -0.00000000000E+00 -0.77557153330E+02  0.77567550771E+02  0.12700000000E+01 0.  1.
         25    2    1    2    0    0  0.00000000000E+00  0.00000000000E+00 -0.27212677196E+02  0.12792804300E+03  0.12500021754E+03 0.  0.
    9000005    1    3    3    0    0  0.57666163044E+02 -0.18781946223E+02 -0.29029684426E+02  0.67244854390E+02  0.10000000000E+01 0.  0.
    9000005    1    3    3    0    0 -0.57666163044E+02  0.18781946223E+02  0.18170072294E+01  0.60683188606E+02  0.10000000000E+01 0.  0.
<mgrwt>
<rscale>  0 0.12500022E+03</rscale>
<asrwt>0</asrwt>
<pdfrwt beam="2">  1        4 0.11933902E-01 0.12500022E+03</pdfrwt>
<pdfrwt beam="1">  1       -4 0.77473358E-02 0.12500022E+03</pdfrwt>
<totfact> 0.10388991E+04</totfact>
</mgrwt>
</event>
<event>
 5    1  0.3251953E-002  0.1249925E+03  0.7818608E-02  0.1235081E+00
          4   -1    0    0  501    0  0.00000000000E+00  0.00000000000E+00  0.19386627962E+03  0.19387043940E+03  0.12700000000E+01 0.  1.
         -4   -1    0    0    0  501 -0.00000000000E+00 -0.00000000000E+00 -0.20122378395E+02  0.20162415834E+02  0.12700000000E+01 0.  1.
         25    2    1    2    0    0  0.00000000000E+00  0.00000000000E+00  0.17374390123E+03  0.21403285524E+03  0.12499247940E+03 0.  0.
    9000005    1    3    3    0    0  0.51661881843E+02  0.13165566619E+02  0.31055710119E+02  0.61706882200E+02  0.10000000000E+01 0.  0.
    9000005    1    3    3    0    0 -0.51661881843E+02 -0.13165566619E+02  0.14268819111E+03  0.15232597304E+03  0.10000000000E+01 0.  0.
<mgrwt>
<rscale>  0 0.12499248E+03</rscale>
<asrwt>0</asrwt>
<pdfrwt beam="1">  1        4 0.29828981E-01 0.12499248E+03</pdfrwt>
<pdfrwt beam="2">  1       -4 0.30991504E-02 0.12499248E+03</pdfrwt>
<totfact> 0.87836231E+03</totfact>
</mgrwt>
</event>
<event>
 5    1  0.3251953E-002  0.1249976E+03  0.7818608E-02  0.1235073E+00
         -4   -1    0    0    0  501 -0.00000000000E+00  0.00000000000E+00  0.49899221718E+02  0.49915380677E+02  0.12700000000E+01 0. -1.
          4   -1    0    0  501    0  0.00000000000E+00 -0.00000000000E+00 -0.78245737078E+02  0.78256043031E+02  0.12700000000E+01 0. -1.
         25    2    1    2    0    0  0.00000000000E+00  0.00000000000E+00 -0.28346515360E+02  0.12817142371E+03  0.12499755567E+03 0.  0.
    9000005    1    3    3    0    0 -0.35102442560E+02  0.38938593840E+02  0.20700630337E+02  0.56372969234E+02  0.10000000000E+01 0.  0.
    9000005    1    3    3    0    0  0.35102442560E+02 -0.38938593840E+02 -0.49047145697E+02  0.71798454474E+02  0.10000000000E+01 0.  0.
<mgrwt>
<rscale>  0 0.12499756E+03</rscale>
<asrwt>0</asrwt>
<pdfrwt beam="2">  1        4 0.12039841E-01 0.12499756E+03</pdfrwt>
<pdfrwt beam="1">  1       -4 0.76788391E-02 0.12499756E+03</pdfrwt>
<totfact> 0.10384360E+04</totfact>
</mgrwt>
</event>
<event>
 5    1  0.3251953E-002  0.1249995E+03  0.7818608E-02  0.1235070E+00
          4   -1    0    0  501    0  0.00000000000E+00  0.00000000000E+00  0.11243949344E+03  0.11244666552E+03  0.12700000000E+01 0. -1.
         -4   -1    0    0    0  501 -0.00000000000E+00 -0.00000000000E+00 -0.34720718786E+02  0.34743937788E+02  0.12700000000E+01 0. -1.
         25    2    1    2    0    0  0.00000000000E+00  0.00000000000E+00  0.77718774657E+02  0.14719060330E+03  0.12499946307E+03 0.  0.
    9000005    1    3    3    0    0  0.35417299089E+01  0.59471975087E+02  0.16649389058E+02  0.61868100241E+02  0.10000000000E+01 0.  0.
    9000005    1    3    3    0    0 -0.35417299089E+01 -0.59471975087E+02  0.61069385599E+02  0.85322503063E+02  0.10000000000E+01 0.  0.
<mgrwt>
<rscale>  0 0.12499946E+03</rscale>
<asrwt>0</asrwt>
<pdfrwt beam="1">  1        4 0.17300721E-01 0.12499946E+03</pdfrwt>
<pdfrwt beam="2">  1       -4 0.53439869E-02 0.12499946E+03</pdfrwt>
<totfact> 0.99867893E+03</totfact>
</mgrwt>
</event>
<event>
 5    1  0.3251953E-002  0.1249998E+03  0.7818608E-02  0.1235070E+00
          4   -1    0    0  501    0  0.00000000000E+00  0.00000000000E+00  0.68197655434E+02  0.68209479596E+02  0.12700000000E+01 0. -1.
         -4   -1    0    0    0  501 -0.00000000000E+00 -0.00000000000E+00 -0.57254383709E+02  0.57268467361E+02  0.12700000000E+01 0. -1.
         25    2    1    2    0    0  0.00000000000E+00  0.00000000000E+00  0.10943271725E+02  0.12547794696E+03  0.12499983991E+03 0.  0.
    9000005    1    3    3    0    0  0.48107860544E+02 -0.12503329922E+02 -0.32548560248E+02  0.59423129163E+02  0.10000000000E+01 0.  0.
    9000005    1    3    3    0    0 -0.48107860544E+02  0.12503329922E+02  0.43491831974E+02  0.66054817793E+02  0.10000000000E+01 0.  0.
<mgrwt>
<rscale>  0 0.12499984E+03</rscale>
<asrwt>0</asrwt>
<pdfrwt beam="1">  1        4 0.10493940E-01 0.12499984E+03</pdfrwt>
<pdfrwt beam="2">  1       -4 0.88103596E-02 0.12499984E+03</pdfrwt>
<totfact> 0.10442479E+04</totfact>
</mgrwt>
</event>
<event>
 5    1  0.3251953E-002  0.1250007E+03  0.7818608E-02  0.1235068E+00
         -4   -1    0    0    0  501 -0.00000000000E+00  0.00000000000E+00  0.40503211543E+01  0.42447616486E+01  0.12700000000E+01 0.  1.
          4   -1    0    0  501    0  0.00000000000E+00 -0.00000000000E+00 -0.94163936870E+03  0.94164022513E+03  0.12700000000E+01 0.  1.
         25    2    1    2    0    0  0.00000000000E+00  0.00000000000E+00 -0.93758904754E+03  0.94588498678E+03  0.12500074455E+03 0.  0.
    9000005    1    3    3    0    0 -0.39697472099E+02  0.43963309437E+02 -0.31809181189E+03  0.32356152839E+03  0.10000000000E+01 0.  0.
    9000005    1    3    3    0    0  0.39697472099E+02 -0.43963309437E+02 -0.61949723566E+03  0.62232345838E+03  0.10000000000E+01 0.  0.
<mgrwt>
<rscale>  0 0.12500074E+03</rscale>
<asrwt>0</asrwt>
<pdfrwt beam="2">  1        4 0.14488245E+00 0.12500074E+03</pdfrwt>
<pdfrwt beam="1">  1       -4 0.63814992E-03 0.12500074E+03</pdfrwt>
<totfact> 0.32462033E+03</totfact>
</mgrwt>
</event>
<event>
 5    1  0.3251953E-002  0.1250021E+03  0.7818608E-02  0.1235066E+00
         -4   -1    0    0    0  501 -0.00000000000E+00  0.00000000000E+00  0.86803276995E+03  0.86803369900E+03  0.12700000000E+01 0.  1.
          4   -1    0    0  501    0  0.00000000000E+00 -0.00000000000E+00 -0.44097154071E+01  0.45889530366E+01  0.12700000000E+01 0.  1.
         25    2    1    2    0    0  0.00000000000E+00  0.00000000000E+00  0.86362305454E+03  0.87262265204E+03  0.12500205005E+03 0.  0.
    9000005    1    3    3    0    0  0.27307488873E+02 -0.43604264360E+02  0.67944514904E+03  0.68139103411E+03  0.10000000000E+01 0.  0.
    9000005    1    3    3    0    0 -0.27307488873E+02  0.43604264360E+02  0.18417790550E+03  0.19123161793E+03  0.10000000000E+01 0.  0.
<mgrwt>
<rscale>  0 0.12500205E+03</rscale>
<asrwt>0</asrwt>
<pdfrwt beam="2">  1        4 0.69227739E-03 0.12500205E+03</pdfrwt>
<pdfrwt beam="1">  1       -4 0.13355723E+00 0.12500205E+03</pdfrwt>
<totfact> 0.35217501E+03</totfact>
</mgrwt>
</event>
<event>
 5    1  0.3251953E-002  0.1250025E+03  0.7818608E-02  0.1235065E+00
         -4   -1    0    0    0  501 -0.00000000000E+00  0.00000000000E+00  0.17237470984E+03  0.17237938825E+03  0.12700000000E+01 0. -1.
          4   -1    0    0  501    0  0.00000000000E+00 -0.00000000000E+00 -0.22639515118E+02  0.22675108484E+02  0.12700000000E+01 0. -1.
         25    2    1    2    0    0  0.00000000000E+00  0.00000000000E+00  0.14973519473E+03  0.19505449673E+03  0.12500251260E+03 0.  0.
    9000005    1    3    3    0    0 -0.22922368424E+02 -0.34774897130E+02  0.14756769366E+03  0.15333607748E+03  0.10000000000E+01 0.  0.
    9000005    1    3    3    0    0  0.22922368424E+02  0.34774897130E+02  0.21675010681E+01  0.41718419258E+02  0.10000000000E+01 0.  0.
<mgrwt>
<rscale>  0 0.12500251E+03</rscale>
<asrwt>0</asrwt>
<pdfrwt beam="2">  1        4 0.34861001E-02 0.12500251E+03</pdfrwt>
<pdfrwt beam="1">  1       -4 0.26522285E-01 0.12500251E+03</pdfrwt>
<totfact> 0.90970092E+03</totfact>
</mgrwt>
</event>
<event>
 5    1  0.3251953E-002  0.1250120E+03  0.7818608E-02  0.1235051E+00
         -4   -1    0    0    0  501 -0.00000000000E+00  0.00000000000E+00  0.14473220722E+03  0.14473777913E+03  0.12700000000E+01 0.  1.
          4   -1    0    0  501    0  0.00000000000E+00 -0.00000000000E+00 -0.26973656776E+02  0.27003537914E+02  0.12700000000E+01 0.  1.
         25    2    1    2    0    0  0.00000000000E+00  0.00000000000E+00  0.11775855044E+03  0.17174131704E+03  0.12501201453E+03 0.  0.
    9000005    1    3    3    0    0  0.31085113779E+02 -0.24809873257E+02 -0.73513040760E+01  0.40458074365E+02  0.10000000000E+01 0.  0.
    9000005    1    3    3    0    0 -0.31085113779E+02  0.24809873257E+02  0.12510985452E+03  0.13128324268E+03  0.10000000000E+01 0.  0.
<mgrwt>
<rscale>  0 0.12501201E+03</rscale>
<asrwt>0</asrwt>
<pdfrwt beam="2">  1        4 0.41525206E-02 0.12501201E+03</pdfrwt>
<pdfrwt beam="1">  1       -4 0.22269220E-01 0.12501201E+03</pdfrwt>
<totfact> 0.95099429E+03</totfact>
</mgrwt>
</event>
<event>
 5    1  0.3251953E-002  0.1250005E+03  0.7818608E-02  0.1235068E+00
         -4   -1    0    0    0  501 -0.00000000000E+00  0.00000000000E+00  0.35630171463E+03  0.35630397801E+03  0.12700000000E+01 0. -1.
          4   -1    0    0  501    0  0.00000000000E+00 -0.00000000000E+00 -0.10924330436E+02  0.10997904140E+02  0.12700000000E+01 0. -1.
         25    2    1    2    0    0  0.00000000000E+00  0.00000000000E+00  0.34537738419E+03  0.36730188215E+03  0.12500054048E+03 0.  0.
    9000005    1    3    3    0    0 -0.53405916948E+02  0.15458347181E+02  0.25653008669E+03  0.26248778608E+03  0.10000000000E+01 0.  0.
    9000005    1    3    3    0    0  0.53405916948E+02 -0.15458347181E+02  0.88847297501E+02  0.10481409607E+03  0.10000000000E+01 0.  0.
<mgrwt>
<rscale>  0 0.12500054E+03</rscale>
<asrwt>0</asrwt>
<pdfrwt beam="2">  1        4 0.16864997E-02 0.12500054E+03</pdfrwt>
<pdfrwt beam="1">  1       -4 0.54821486E-01 0.12500054E+03</pdfrwt>
<totfact> 0.67861343E+03</totfact>
</mgrwt>
</event>
<event>
 5    1  0.3251953E-002  0.1249932E+03  0.7818608E-02  0.1235080E+00
         -4   -1    0    0    0  501 -0.00000000000E+00  0.00000000000E+00  0.14752156560E+03  0.14752703216E+03  0.12700000000E+01 0.  1.
          4   -1    0    0  501    0  0.00000000000E+00 -0.00000000000E+00 -0.26455112324E+02  0.26485578492E+02  0.12700000000E+01 0.  1.
         25    2    1    2    0    0  0.00000000000E+00  0.00000000000E+00  0.12106645328E+03  0.17401261065E+03  0.12499321004E+03 0.  0.
    9000005    1    3    3    0    0  0.41837181826E+02  0.12444080520E+02 -0.17208956848E+01  0.43694008801E+02  0.10000000000E+01 0.  0.
    9000005    1    3    3    0    0 -0.41837181826E+02 -0.12444080520E+02  0.12278734896E+03  0.13031860185E+03  0.10000000000E+01 0.  0.
<mgrwt>
<rscale>  0 0.12499321E+03</rscale>
<asrwt>0</asrwt>
<pdfrwt beam="2">  1        4 0.40727812E-02 0.12499321E+03</pdfrwt>
<pdfrwt beam="1">  1       -4 0.22698390E-01 0.12499321E+03</pdfrwt>
<totfact> 0.94720418E+03</totfact>
</mgrwt>
</event>
<event>
 5    1  0.3251953E-002  0.1250011E+03  0.7818608E-02  0.1235068E+00
         -4   -1    0    0    0  501 -0.00000000000E+00  0.00000000000E+00  0.47529027613E+02  0.47545992111E+02  0.12700000000E+01 0.  1.
          4   -1    0    0  501    0  0.00000000000E+00 -0.00000000000E+00 -0.82151459897E+02  0.82161275935E+02  0.12700000000E+01 0.  1.
         25    2    1    2    0    0  0.00000000000E+00  0.00000000000E+00 -0.34622432284E+02  0.12970726805E+03  0.12500105026E+03 0.  0.
    9000005    1    3    3    0    0 -0.60337935963E+02 -0.16163161797E+02 -0.15397512042E+02  0.64342813838E+02  0.10000000000E+01 0.  0.
    9000005    1    3    3    0    0  0.60337935963E+02  0.16163161797E+02 -0.19224920242E+02  0.65364454208E+02  0.10000000000E+01 0.  0.
<mgrwt>
<rscale>  0 0.12500105E+03</rscale>
<asrwt>0</asrwt>
<pdfrwt beam="2">  1        4 0.12640746E-01 0.12500105E+03</pdfrwt>
<pdfrwt beam="1">  1       -4 0.73142182E-02 0.12500105E+03</pdfrwt>
<totfact> 0.10350528E+04</totfact>
</mgrwt>
</event>
<event>
 5    1  0.3251953E-002  0.1249979E+03  0.7818608E-02  0.1235073E+00
         -4   -1    0    0    0  501 -0.00000000000E+00  0.00000000000E+00  0.10808944414E+02  0.10883298183E+02  0.12700000000E+01 0.  1.
          4   -1    0    0  501    0  0.00000000000E+00 -0.00000000000E+00 -0.36006421958E+03  0.36006645931E+03  0.12700000000E+01 0.  1.
         25    2    1    2    0    0  0.00000000000E+00  0.00000000000E+00 -0.34925527517E+03  0.37094975750E+03  0.12499790140E+03 0.  0.
    9000005    1    3    3    0    0  0.10734325870E+01  0.50359368822E+01  0.10192886701E+02  0.11463326615E+02  0.10000000000E+01 0.  0.
    9000005    1    3    3    0    0 -0.10734325870E+01 -0.50359368822E+01 -0.35944816187E+03  0.35948643088E+03  0.10000000000E+01 0.  0.
<mgrwt>
<rscale>  0 0.12499790E+03</rscale>
<asrwt>0</asrwt>
<pdfrwt beam="2">  1        4 0.55400378E-01 0.12499790E+03</pdfrwt>
<pdfrwt beam="1">  1       -4 0.16688066E-02 0.12499790E+03</pdfrwt>
<totfact> 0.67482826E+03</totfact>
</mgrwt>
</event>
<event>
 5    1  0.3251953E-002  0.1249999E+03  0.7818608E-02  0.1235069E+00
         -4   -1    0    0    0  501 -0.00000000000E+00  0.00000000000E+00  0.11762707665E+03  0.11763393244E+03  0.12700000000E+01 0.  1.
          4   -1    0    0  501    0  0.00000000000E+00 -0.00000000000E+00 -0.33188743431E+02  0.33213033443E+02  0.12700000000E+01 0.  1.
         25    2    1    2    0    0  0.00000000000E+00  0.00000000000E+00  0.84438333220E+02  0.15084696588E+03  0.12499990000E+03 0.  0.
    9000005    1    3    3    0    0  0.45493449387E+02 -0.24981421317E+02  0.84223289576E+02  0.98935776416E+02  0.10000000000E+01 0.  0.
    9000005    1    3    3    0    0 -0.45493449387E+02  0.24981421317E+02  0.21504364444E+00  0.51911189468E+02  0.10000000000E+01 0.  0.
<mgrwt>
<rscale>  0 0.12499990E+03</rscale>
<asrwt>0</asrwt>
<pdfrwt beam="2">  1        4 0.51083564E-02 0.12499990E+03</pdfrwt>
<pdfrwt beam="1">  1       -4 0.18098869E-01 0.12499990E+03</pdfrwt>
<totfact> 0.99135359E+03</totfact>
</mgrwt>
</event>
<event>
 5    1  0.3251953E-002  0.1249922E+03  0.7818608E-02  0.1235081E+00
         -4   -1    0    0    0  501 -0.00000000000E+00  0.00000000000E+00  0.36265476050E+02  0.36287706639E+02  0.12700000000E+01 0. -1.
          4   -1    0    0  501    0  0.00000000000E+00 -0.00000000000E+00 -0.10764018528E+03  0.10764767711E+03  0.12700000000E+01 0. -1.
         25    2    1    2    0    0  0.00000000000E+00  0.00000000000E+00 -0.71374709228E+02  0.14393538375E+03  0.12499218206E+03 0.  0.
    9000005    1    3    3    0    0  0.17674592867E+02  0.30881510319E+02  0.23466075484E+02  0.42634676160E+02  0.10000000000E+01 0.  0.
    9000005    1    3    3    0    0 -0.17674592867E+02 -0.30881510319E+02 -0.94840784712E+02  0.10130070759E+03  0.10000000000E+01 0.  0.
<mgrwt>
<rscale>  0 0.12499218E+03</rscale>
<asrwt>0</asrwt>
<pdfrwt beam="2">  1        4 0.16562315E-01 0.12499218E+03</pdfrwt>
<pdfrwt beam="1">  1       -4 0.55815904E-02 0.12499218E+03</pdfrwt>
<totfact> 0.10054434E+04</totfact>
</mgrwt>
</event>
<event>
 5    1  0.3251953E-002  0.1250004E+03  0.7818608E-02  0.1235069E+00
          4   -1    0    0  501    0  0.00000000000E+00  0.00000000000E+00  0.16305507791E+03  0.16306002371E+03  0.12700000000E+01 0.  1.
         -4   -1    0    0    0  501 -0.00000000000E+00 -0.00000000000E+00 -0.23934649412E+02  0.23968319559E+02  0.12700000000E+01 0.  1.
         25    2    1    2    0    0  0.00000000000E+00  0.00000000000E+00  0.13912042850E+03  0.18702834327E+03  0.12500043024E+03 0.  0.
    9000005    1    3    3    0    0 -0.57553235697E+02 -0.17353640685E+02  0.44003579687E+02  0.74503951637E+02  0.10000000000E+01 0.  0.
    9000005    1    3    3    0    0  0.57553235697E+02  0.17353640685E+02  0.95116848815E+02  0.11252439163E+03  0.10000000000E+01 0.  0.
<mgrwt>
<rscale>  0 0.12500043E+03</rscale>
<asrwt>0</asrwt>
<pdfrwt beam="1">  1        4 0.25088367E-01 0.12500043E+03</pdfrwt>
<pdfrwt beam="2">  1       -4 0.36852242E-02 0.12500043E+03</pdfrwt>
<totfact> 0.92366068E+03</totfact>
</mgrwt>
</event>
<event>
 5    1  0.3251953E-002  0.1249988E+03  0.7818608E-02  0.1235071E+00
          4   -1    0    0  501    0  0.00000000000E+00  0.00000000000E+00  0.32394922548E+02  0.32419807324E+02  0.12700000000E+01 0.  1.
         -4   -1    0    0    0  501 -0.00000000000E+00 -0.00000000000E+00 -0.12050530746E+03  0.12051199951E+03  0.12700000000E+01 0.  1.
         25    2    1    2    0    0  0.00000000000E+00  0.00000000000E+00 -0.88110384911E+02  0.15293180683E+03  0.12499879044E+03 0.  0.
    9000005    1    3    3    0    0  0.50662600323E+02 -0.36570642381E+02 -0.45316874768E+02  0.77192811158E+02  0.10000000000E+01 0.  0.
    9000005    1    3    3    0    0 -0.50662600323E+02  0.36570642381E+02 -0.42793510143E+02  0.75738995676E+02  0.10000000000E+01 0.  0.
<mgrwt>
<rscale>  0 0.12499879E+03</rscale>
<asrwt>0</asrwt>
<pdfrwt beam="1">  1        4 0.49862633E-02 0.12499879E+03</pdfrwt>
<pdfrwt beam="2">  1       -4 0.18541707E-01 0.12499879E+03</pdfrwt>
<totfact> 0.98725151E+03</totfact>
</mgrwt>
</event>
<event>
 5    1  0.3251953E-002  0.1249978E+03  0.7818608E-02  0.1235073E+00
          4   -1    0    0  501    0  0.00000000000E+00  0.00000000000E+00  0.21770151501E+03  0.21770521936E+03  0.12700000000E+01 0. -1.
         -4   -1    0    0    0  501 -0.00000000000E+00 -0.00000000000E+00 -0.17916172682E+02  0.17961128684E+02  0.12700000000E+01 0. -1.
         25    2    1    2    0    0  0.00000000000E+00  0.00000000000E+00  0.19978534232E+03  0.23566634804E+03  0.12499777835E+03 0.  0.
    9000005    1    3    3    0    0 -0.20047443606E+02 -0.43546228919E+02  0.17547055307E+03  0.18190406550E+03  0.10000000000E+01 0.  0.
    9000005    1    3    3    0    0  0.20047443606E+02  0.43546228919E+02  0.24314789250E+02  0.53762282545E+02  0.10000000000E+01 0.  0.
<mgrwt>
<rscale>  0 0.12499778E+03</rscale>
<asrwt>0</asrwt>
<pdfrwt beam="1">  1        4 0.33496283E-01 0.12499778E+03</pdfrwt>
<pdfrwt beam="2">  1       -4 0.27600774E-02 0.12499778E+03</pdfrwt>
<totfact> 0.84451234E+03</totfact>
</mgrwt>
</event>
<event>
 5    1  0.3251953E-002  0.1249979E+03  0.7818608E-02  0.1235073E+00
          4   -1    0    0  501    0  0.00000000000E+00  0.00000000000E+00  0.23691594357E+02  0.23725609437E+02  0.12700000000E+01 0. -1.
         -4   -1    0    0    0  501 -0.00000000000E+00 -0.00000000000E+00 -0.16471893755E+03  0.16472383340E+03  0.12700000000E+01 0. -1.
         25    2    1    2    0    0  0.00000000000E+00  0.00000000000E+00 -0.14102734320E+03  0.18844944283E+03  0.12499792388E+03 0.  0.
    9000005    1    3    3    0    0  0.65484929869E+01  0.57579955603E+02 -0.10576705701E+03  0.12060681737E+03  0.10000000000E+01 0.  0.
    9000005    1    3    3    0    0 -0.65484929869E+01 -0.57579955603E+02 -0.35260286183E+02  0.67842625460E+02  0.10000000000E+01 0.  0.
<mgrwt>
<rscale>  0 0.12499792E+03</rscale>
<asrwt>0</asrwt>
<pdfrwt beam="1">  1        4 0.36478539E-02 0.12499792E+03</pdfrwt>
<pdfrwt beam="2">  1       -4 0.25344367E-01 0.12499792E+03</pdfrwt>
<totfact> 0.92122093E+03</totfact>
</mgrwt>
</event>
<event>
 4    1  0.3251953E-002  0.1247577E+03  0.7818608E-02  0.1235448E+00
         -4   -1    0    0    0  501 -0.00000000000E+00  0.00000000000E+00  0.13112106584E+03  0.13112721611E+03  0.12700000000E+01 0. -1.
          4   -1    0    0  501    0  0.00000000000E+00 -0.00000000000E+00 -0.29655363908E+02  0.29682545520E+02  0.12700000000E+01 0. -1.
    9000005    1    1    2    0    0  0.27788580637E+02  0.48513100913E+02  0.15095591403E+02  0.57918935192E+02  0.10000000000E+01 0.  0.
    9000005    1    1    2    0    0 -0.27788580637E+02 -0.48513100913E+02  0.86370110524E+02  0.10289082644E+03  0.10000000000E+01 0.  0.
<mgrwt>
<rscale>  0 0.12475773E+03</rscale>
<asrwt>0</asrwt>
<pdfrwt beam="2">  1        4 0.45649277E-02 0.12475773E+03</pdfrwt>
<pdfrwt beam="1">  1       -4 0.20175036E-01 0.12475773E+03</pdfrwt>
<totfact> 0.97717990E+03</totfact>
</mgrwt>
</event>
<event>
 5    1  0.3251953E-002  0.1249991E+03  0.7818608E-02  0.1235071E+00
         -4   -1    0    0    0  501 -0.00000000000E+00  0.00000000000E+00  0.40335489434E+02  0.40355478041E+02  0.12700000000E+01 0.  1.
          4   -1    0    0  501    0  0.00000000000E+00 -0.00000000000E+00 -0.96794521503E+02  0.96802852711E+02  0.12700000000E+01 0.  1.
         25    2    1    2    0    0  0.00000000000E+00  0.00000000000E+00 -0.56459032068E+02  0.13715833075E+03  0.12499914157E+03 0.  0.
    9000005    1    3    3    0    0  0.26094273069E+01  0.58012721691E+02 -0.28990809609E+01  0.58152297111E+02  0.10000000000E+01 0.  0.
    9000005    1    3    3    0    0 -0.26094273069E+01 -0.58012721691E+02 -0.53559951107E+02  0.79006033640E+02  0.10000000000E+01 0.  0.
<mgrwt>
<rscale>  0 0.12499914E+03</rscale>
<asrwt>0</asrwt>
<pdfrwt beam="2">  1        4 0.14893643E-01 0.12499914E+03</pdfrwt>
<pdfrwt beam="1">  1       -4 0.62076384E-02 0.12499914E+03</pdfrwt>
<totfact> 0.10192974E+04</totfact>
</mgrwt>
</event>
<event>
 5    1  0.3251953E-002  0.1250016E+03  0.7818608E-02  0.1235067E+00
         -4   -1    0    0    0  501 -0.00000000000E+00  0.00000000000E+00  0.14716044937E+03  0.14716592934E+03  0.12700000000E+01 0. -1.
          4   -1    0    0  501    0  0.00000000000E+00 -0.00000000000E+00 -0.26523662334E+02  0.26554049853E+02  0.12700000000E+01 0. -1.
         25    2    1    2    0    0  0.00000000000E+00  0.00000000000E+00  0.12063678703E+03  0.17371997919E+03  0.12500158713E+03 0.  0.
    9000005    1    3    3    0    0  0.33385731069E+02 -0.52447149132E+02  0.51524640722E+02  0.80753322487E+02  0.10000000000E+01 0.  0.
    9000005    1    3    3    0    0 -0.33385731069E+02  0.52447149132E+02  0.69112146309E+02  0.92966656703E+02  0.10000000000E+01 0.  0.
<mgrwt>
<rscale>  0 0.12500159E+03</rscale>
<asrwt>0</asrwt>
<pdfrwt beam="2">  1        4 0.40833225E-02 0.12500159E+03</pdfrwt>
<pdfrwt beam="1">  1       -4 0.22642828E-01 0.12500159E+03</pdfrwt>
<totfact> 0.94756423E+03</totfact>
</mgrwt>
</event>
<event>
 5    1  0.3251953E-002  0.1250013E+03  0.7818608E-02  0.1235067E+00
         -4   -1    0    0    0  501 -0.00000000000E+00  0.00000000000E+00  0.10151957518E+03  0.10152751866E+03  0.12700000000E+01 0.  1.
          4   -1    0    0  501    0  0.00000000000E+00 -0.00000000000E+00 -0.38458664166E+02  0.38479627719E+02  0.12700000000E+01 0.  1.
         25    2    1    2    0    0  0.00000000000E+00  0.00000000000E+00  0.63060911012E+02  0.14000714637E+03  0.12500129015E+03 0.  0.
    9000005    1    3    3    0    0 -0.31855445830E+02  0.38381377984E+02 -0.10637901148E+02  0.51010435656E+02  0.10000000000E+01 0.  0.
    9000005    1    3    3    0    0  0.31855445830E+02 -0.38381377984E+02  0.73698812160E+02  0.88996710719E+02  0.10000000000E+01 0.  0.
<mgrwt>
<rscale>  0 0.12500129E+03</rscale>
<asrwt>0</asrwt>
<pdfrwt beam="2">  1        4 0.59189412E-02 0.12500129E+03</pdfrwt>
<pdfrwt beam="1">  1       -4 0.15620620E-01 0.12500129E+03</pdfrwt>
<totfact> 0.10133143E+04</totfact>
</mgrwt>
</event>
<event>
 5    1  0.3251953E-002  0.1249956E+03  0.7818608E-02  0.1235076E+00
         -4   -1    0    0    0  501 -0.00000000000E+00  0.00000000000E+00  0.47742629323E+02  0.47759517948E+02  0.12700000000E+01 0.  1.
          4   -1    0    0  501    0  0.00000000000E+00 -0.00000000000E+00 -0.81776807579E+02  0.81786668582E+02  0.12700000000E+01 0.  1.
         25    2    1    2    0    0  0.00000000000E+00  0.00000000000E+00 -0.34034178256E+02  0.12954618653E+03  0.12499555654E+03 0.  0.
    9000005    1    3    3    0    0 -0.19397664032E+02 -0.11873117491E+02  0.43306140042E+02  0.48925065704E+02  0.10000000000E+01 0.  0.
    9000005    1    3    3    0    0  0.19397664032E+02  0.11873117491E+02 -0.77340318298E+02  0.80621120826E+02  0.10000000000E+01 0.  0.
<mgrwt>
<rscale>  0 0.12499556E+03</rscale>
<asrwt>0</asrwt>
<pdfrwt beam="2">  1        4 0.12583105E-01 0.12499556E+03</pdfrwt>
<pdfrwt beam="1">  1       -4 0.73470776E-02 0.12499556E+03</pdfrwt>
<totfact> 0.10355264E+04</totfact>
</mgrwt>
</event>
<event>
 5    1  0.3251953E-002  0.1249951E+03  0.7818608E-02  0.1235077E+00
          4   -1    0    0  501    0  0.00000000000E+00  0.00000000000E+00  0.21441450213E+03  0.21441826327E+03  0.12700000000E+01 0.  1.
         -4   -1    0    0    0  501 -0.00000000000E+00 -0.00000000000E+00 -0.18190719372E+02  0.18234998527E+02  0.12700000000E+01 0.  1.
         25    2    1    2    0    0  0.00000000000E+00  0.00000000000E+00  0.19622378276E+03  0.23265326179E+03  0.12499506912E+03 0.  0.
    9000005    1    3    3    0    0 -0.34864330651E+02  0.49165395547E+01  0.20203697309E+01  0.35281380455E+02  0.10000000000E+01 0.  0.
    9000005    1    3    3    0    0  0.34864330651E+02 -0.49165395547E+01  0.19420341303E+03  0.19737188134E+03  0.10000000000E+01 0.  0.
<mgrwt>
<rscale>  0 0.12499507E+03</rscale>
<asrwt>0</asrwt>
<pdfrwt beam="1">  1        4 0.32990541E-01 0.12499507E+03</pdfrwt>
<pdfrwt beam="2">  1       -4 0.28022677E-02 0.12499507E+03</pdfrwt>
<totfact> 0.84913184E+03</totfact>
</mgrwt>
</event>
<event>
 5    1  0.3251953E-002  0.1249989E+03  0.7818608E-02  0.1235071E+00
          4   -1    0    0  501    0  0.00000000000E+00  0.00000000000E+00  0.98876334977E+02  0.98884490788E+02  0.12700000000E+01 0. -1.
         -4   -1    0    0    0  501 -0.00000000000E+00 -0.00000000000E+00 -0.39485732389E+02  0.39506150943E+02  0.12700000000E+01 0. -1.
         25    2    1    2    0    0  0.00000000000E+00  0.00000000000E+00  0.59390602588E+02  0.13839064173E+03  0.12499890417E+03 0.  0.
    9000005    1    3    3    0    0  0.61640093220E+02  0.76592686382E+01  0.37286728994E+02  0.72453196253E+02  0.10000000000E+01 0.  0.
    9000005    1    3    3    0    0 -0.61640093220E+02 -0.76592686382E+01  0.22103873594E+02  0.65937445478E+02  0.10000000000E+01 0.  0.
<mgrwt>
<rscale>  0 0.12499890E+03</rscale>
<asrwt>0</asrwt>
<pdfrwt beam="1">  1        4 0.15213941E-01 0.12499890E+03</pdfrwt>
<pdfrwt beam="2">  1       -4 0.60769262E-02 0.12499890E+03</pdfrwt>
<totfact> 0.10167301E+04</totfact>
</mgrwt>
</event>
<event>
 5    1  0.3251953E-002  0.1249981E+03  0.7818608E-02  0.1235072E+00
         -4   -1    0    0    0  501 -0.00000000000E+00  0.00000000000E+00  0.83685338881E+02  0.83694975020E+02  0.12700000000E+01 0.  1.
          4   -1    0    0  501    0  0.00000000000E+00 -0.00000000000E+00 -0.46655457662E+02  0.46672739685E+02  0.12700000000E+01 0.  1.
         25    2    1    2    0    0  0.00000000000E+00  0.00000000000E+00  0.37029881219E+02  0.13036771470E+03  0.12499811572E+03 0.  0.
    9000005    1    3    3    0    0  0.52692075987E+02  0.11817234211E+02  0.51314755514E+02  0.74500376037E+02  0.10000000000E+01 0.  0.
    9000005    1    3    3    0    0 -0.52692075987E+02 -0.11817234211E+02 -0.14284874295E+02  0.55867338668E+02  0.10000000000E+01 0.  0.
<mgrwt>
<rscale>  0 0.12499812E+03</rscale>
<asrwt>0</asrwt>
<pdfrwt beam="2">  1        4 0.71798334E-02 0.12499812E+03</pdfrwt>
<pdfrwt beam="1">  1       -4 0.12876738E-01 0.12499812E+03</pdfrwt>
<totfact> 0.10337087E+04</totfact>
</mgrwt>
</event>
<event>
 5    1  0.3251953E-002  0.1249980E+03  0.7818608E-02  0.1235072E+00
         -4   -1    0    0    0  501 -0.00000000000E+00  0.00000000000E+00  0.80017118092E+02  0.80027195926E+02  0.12700000000E+01 0.  1.
          4   -1    0    0  501    0  0.00000000000E+00 -0.00000000000E+00 -0.48794731356E+02  0.48811255957E+02  0.12700000000E+01 0.  1.
         25    2    1    2    0    0  0.00000000000E+00  0.00000000000E+00  0.31222386737E+02  0.12883845188E+03  0.12499803698E+03 0.  0.
    9000005    1    3    3    0    0  0.60552573049E+02  0.10126854736E+02  0.35927583587E+01  0.61506708596E+02  0.10000000000E+01 0.  0.
    9000005    1    3    3    0    0 -0.60552573049E+02 -0.10126854736E+02  0.27629628378E+02  0.67331743287E+02  0.10000000000E+01 0.  0.
<mgrwt>
<rscale>  0 0.12499804E+03</rscale>
<asrwt>0</asrwt>
<pdfrwt beam="2">  1        4 0.75089281E-02 0.12499804E+03</pdfrwt>
<pdfrwt beam="1">  1       -4 0.12312372E-01 0.12499804E+03</pdfrwt>
<totfact> 0.10369879E+04</totfact>
</mgrwt>
</event>
<event>
 5    1  0.3251953E-002  0.1250004E+03  0.7818608E-02  0.1235069E+00
         -4   -1    0    0    0  501 -0.00000000000E+00  0.00000000000E+00  0.32585418501E+03  0.32585665988E+03  0.12700000000E+01 0. -1.
          4   -1    0    0  501    0  0.00000000000E+00 -0.00000000000E+00 -0.11951629648E+02  0.12018916392E+02  0.12700000000E+01 0. -1.
         25    2    1    2    0    0  0.00000000000E+00  0.00000000000E+00  0.31390255537E+03  0.33787557628E+03  0.12500036312E+03 0.  0.
    9000005    1    3    3    0    0 -0.56344376814E+02  0.26483975931E+02  0.17155319418E+03  0.18250366630E+03  0.10000000000E+01 0.  0.
    9000005    1    3    3    0    0  0.56344376814E+02 -0.26483975931E+02  0.14234936119E+03  0.15537190998E+03  0.10000000000E+01 0.  0.
<mgrwt>
<rscale>  0 0.12500036E+03</rscale>
<asrwt>0</asrwt>
<pdfrwt beam="2">  1        4 0.18440784E-02 0.12500036E+03</pdfrwt>
<pdfrwt beam="1">  1       -4 0.50136784E-01 0.12500036E+03</pdfrwt>
<totfact> 0.71078738E+03</totfact>
</mgrwt>
</event>
<event>
 5    1  0.3251953E-002  0.1250025E+03  0.7818608E-02  0.1235065E+00
          4   -1    0    0  501    0  0.00000000000E+00  0.00000000000E+00  0.70141671874E+01  0.71282144561E+01  0.12700000000E+01 0.  1.
         -4   -1    0    0    0  501 -0.00000000000E+00 -0.00000000000E+00 -0.55232501343E+03  0.55232647353E+03  0.12700000000E+01 0.  1.
         25    2    1    2    0    0  0.00000000000E+00  0.00000000000E+00 -0.54531084624E+03  0.55945468798E+03  0.12500251549E+03 0.  0.
    9000005    1    3    3    0    0 -0.23225831611E+02 -0.35581203920E+02 -0.47774813007E+03  0.47963500406E+03  0.10000000000E+01 0.  0.
    9000005    1    3    3    0    0  0.23225831611E+02  0.35581203920E+02 -0.67562716167E+02  0.79819683928E+02  0.10000000000E+01 0.  0.
<mgrwt>
<rscale>  0 0.12500252E+03</rscale>
<asrwt>0</asrwt>
<pdfrwt beam="1">  1        4 0.10879883E-02 0.12500252E+03</pdfrwt>
<pdfrwt beam="2">  1       -4 0.84981930E-01 0.12500252E+03</pdfrwt>
<totfact> 0.51528394E+03</totfact>
</mgrwt>
</event>
<event>
 5    1  0.3251953E-002  0.1250397E+03  0.7818608E-02  0.1235007E+00
         -4   -1    0    0    0  501 -0.00000000000E+00  0.00000000000E+00  0.21945204945E+02  0.21981922574E+02  0.12700000000E+01 0. -1.
          4   -1    0    0  501    0  0.00000000000E+00 -0.00000000000E+00 -0.17792551737E+03  0.17793004983E+03  0.12700000000E+01 0. -1.
         25    2    1    2    0    0  0.00000000000E+00  0.00000000000E+00 -0.15598031243E+03  0.19991197240E+03  0.12503974906E+03 0.  0.
    9000005    1    3    3    0    0 -0.31857723578E+02 -0.74263103002E+01  0.71769048292E+01  0.33504814567E+02  0.10000000000E+01 0.  0.
    9000005    1    3    3    0    0  0.31857723578E+02  0.74263103002E+01 -0.16315721726E+03  0.16640715784E+03  0.10000000000E+01 0.  0.
<mgrwt>
<rscale>  0 0.12503975E+03</rscale>
<asrwt>0</asrwt>
<pdfrwt beam="2">  1        4 0.27376329E-01 0.12503975E+03</pdfrwt>
<pdfrwt beam="1">  1       -4 0.33793586E-02 0.12503975E+03</pdfrwt>
<totfact> 0.90070215E+03</totfact>
</mgrwt>
</event>
<event>
 5    1  0.3251953E-002  0.1249977E+03  0.7818608E-02  0.1235073E+00
          4   -1    0    0  501    0  0.00000000000E+00  0.00000000000E+00  0.32077676081E+02  0.32102806774E+02  0.12700000000E+01 0.  1.
         -4   -1    0    0    0  501 -0.00000000000E+00 -0.00000000000E+00 -0.12169404454E+03  0.12170067122E+03  0.12700000000E+01 0.  1.
         25    2    1    2    0    0  0.00000000000E+00  0.00000000000E+00 -0.89616368458E+02  0.15380347800E+03  0.12499766537E+03 0.  0.
    9000005    1    3    3    0    0 -0.21396022047E+02 -0.24709923443E+01  0.27372293116E+02  0.34844482964E+02  0.10000000000E+01 0.  0.
    9000005    1    3    3    0    0  0.21396022047E+02  0.24709923443E+01 -0.11698866157E+03  0.11895899503E+03  0.10000000000E+01 0.  0.
<mgrwt>
<rscale>  0 0.12499767E+03</rscale>
<asrwt>0</asrwt>
<pdfrwt beam="1">  1        4 0.49374700E-02 0.12499767E+03</pdfrwt>
<pdfrwt beam="2">  1       -4 0.18724603E-01 0.12499767E+03</pdfrwt>
<totfact> 0.98556039E+03</totfact>
</mgrwt>
</event>
<event>
 5    1  0.3251953E-002  0.1250045E+03  0.7818608E-02  0.1235062E+00
         -4   -1    0    0    0  501 -0.00000000000E+00  0.00000000000E+00  0.76722274927E+01  0.77766300349E+01  0.12700000000E+01 0.  1.
          4   -1    0    0  501    0  0.00000000000E+00 -0.00000000000E+00 -0.50563231170E+03  0.50563390664E+03  0.12700000000E+01 0.  1.
         25    2    1    2    0    0  0.00000000000E+00  0.00000000000E+00 -0.49796008421E+03  0.51341053667E+03  0.12500453470E+03 0.  0.
    9000005    1    3    3    0    0 -0.59521443975E+02 -0.18090290596E+02 -0.27344165076E+03  0.28043073526E+03  0.10000000000E+01 0.  0.
    9000005    1    3    3    0    0  0.59521443975E+02  0.18090290596E+02 -0.22451843345E+03  0.23297980141E+03  0.10000000000E+01 0.  0.
<mgrwt>
<rscale>  0 0.12500453E+03</rscale>
<asrwt>0</asrwt>
<pdfrwt beam="2">  1        4 0.77797714E-01 0.12500453E+03</pdfrwt>
<pdfrwt beam="1">  1       -4 0.11884967E-02 0.12500453E+03</pdfrwt>
<totfact> 0.54833228E+03</totfact>
</mgrwt>
</event>
<event>
 5    1  0.3251953E-002  0.1249983E+03  0.7818608E-02  0.1235072E+00
          4   -1    0    0  501    0  0.00000000000E+00  0.00000000000E+00  0.31372702772E+02  0.31398397717E+02  0.12700000000E+01 0. -1.
         -4   -1    0    0    0  501 -0.00000000000E+00 -0.00000000000E+00 -0.12442790550E+03  0.12443438659E+03  0.12700000000E+01 0. -1.
         25    2    1    2    0    0  0.00000000000E+00  0.00000000000E+00 -0.93055202726E+02  0.15583278431E+03  0.12499834363E+03 0.  0.
    9000005    1    3    3    0    0  0.49675767660E+02  0.32984322566E+02 -0.23221073842E+02  0.63998950758E+02  0.10000000000E+01 0.  0.
    9000005    1    3    3    0    0 -0.49675767660E+02 -0.32984322566E+02 -0.69834128884E+02  0.91833833551E+02  0.10000000000E+01 0.  0.
<mgrwt>
<rscale>  0 0.12499834E+03</rscale>
<asrwt>0</asrwt>
<pdfrwt beam="1">  1        4 0.48290448E-02 0.12499834E+03</pdfrwt>
<pdfrwt beam="2">  1       -4 0.19145230E-01 0.12499834E+03</pdfrwt>
<totfact> 0.98155917E+03</totfact>
</mgrwt>
</event>
<event>
 5    1  0.3251953E-002  0.1249975E+03  0.7818608E-02  0.1235073E+00
         -4   -1    0    0    0  501 -0.00000000000E+00  0.00000000000E+00  0.66313922633E+02  0.66326082615E+02  0.12700000000E+01 0. -1.
          4   -1    0    0  501    0  0.00000000000E+00 -0.00000000000E+00 -0.58878701221E+02  0.58892396432E+02  0.12700000000E+01 0. -1.
         25    2    1    2    0    0  0.00000000000E+00  0.00000000000E+00  0.74352214119E+01  0.12521847905E+03  0.12499753989E+03 0.  0.
    9000005    1    3    3    0    0  0.11628417194E+01  0.23953604904E+02 -0.54090269546E+02  0.59176723873E+02  0.10000000000E+01 0.  0.
    9000005    1    3    3    0    0 -0.11628417194E+01 -0.23953604904E+02  0.61525490958E+02  0.66041755174E+02  0.10000000000E+01 0.  0.
<mgrwt>
<rscale>  0 0.12499754E+03</rscale>
<asrwt>0</asrwt>
<pdfrwt beam="2">  1        4 0.90602506E-02 0.12499754E+03</pdfrwt>
<pdfrwt beam="1">  1       -4 0.10204131E-01 0.12499754E+03</pdfrwt>
<totfact> 0.10448700E+04</totfact>
</mgrwt>
</event>
<event>
 5    1  0.3251953E-002  0.1249995E+03  0.7818608E-02  0.1235070E+00
         -4   -1    0    0    0  501 -0.00000000000E+00  0.00000000000E+00  0.50279070710E+01  0.51858219709E+01  0.12700000000E+01 0.  1.
          4   -1    0    0  501    0  0.00000000000E+00 -0.00000000000E+00 -0.76473664986E+03  0.76473770441E+03  0.12700000000E+01 0.  1.
         25    2    1    2    0    0  0.00000000000E+00  0.00000000000E+00 -0.75970874279E+03  0.76992352638E+03  0.12499945039E+03 0.  0.
    9000005    1    3    3    0    0  0.20417732243E+02  0.58158585031E+02 -0.44324275930E+03  0.44750916021E+03  0.10000000000E+01 0.  0.
    9000005    1    3    3    0    0 -0.20417732243E+02 -0.58158585031E+02 -0.31646598350E+03  0.32241436617E+03  0.10000000000E+01 0.  0.
<mgrwt>
<rscale>  0 0.12499945E+03</rscale>
<asrwt>0</asrwt>
<pdfrwt beam="2">  1        4 0.11766393E+00 0.12499945E+03</pdfrwt>
<pdfrwt beam="1">  1       -4 0.78575319E-03 0.12499945E+03</pdfrwt>
<totfact> 0.39639334E+03</totfact>
</mgrwt>
</event>
<event>
 5    1  0.3251953E-002  0.1250024E+03  0.7818608E-02  0.1235066E+00
         -4   -1    0    0    0  501 -0.00000000000E+00  0.00000000000E+00  0.10905852916E+02  0.10979550438E+02  0.12700000000E+01 0.  1.
          4   -1    0    0  501    0  0.00000000000E+00 -0.00000000000E+00 -0.35691179388E+03  0.35691405340E+03  0.12700000000E+01 0.  1.
         25    2    1    2    0    0  0.00000000000E+00  0.00000000000E+00 -0.34600594097E+03  0.36789360384E+03  0.12500237021E+03 0.  0.
    9000005    1    3    3    0    0 -0.54938548909E+01 -0.53622391718E+02 -0.79940954073E+02  0.96421467906E+02  0.10000000000E+01 0.  0.
    9000005    1    3    3    0    0  0.54938548909E+01  0.53622391718E+02 -0.26606498689E+03  0.27147213593E+03  0.10000000000E+01 0.  0.
<mgrwt>
<rscale>  0 0.12500237E+03</rscale>
<asrwt>0</asrwt>
<pdfrwt beam="2">  1        4 0.54915341E-01 0.12500237E+03</pdfrwt>
<pdfrwt beam="1">  1       -4 0.16836666E-02 0.12500237E+03</pdfrwt>
<totfact> 0.67796334E+03</totfact>
</mgrwt>
</event>
<event>
 5    1  0.3251953E-002  0.1250093E+03  0.7818608E-02  0.1235055E+00
         -4   -1    0    0    0  501 -0.00000000000E+00  0.00000000000E+00  0.12795611244E+03  0.12796241484E+03  0.12700000000E+01 0. -1.
          4   -1    0    0  501    0  0.00000000000E+00 -0.00000000000E+00 -0.30512312215E+02  0.30538731092E+02  0.12700000000E+01 0. -1.
         25    2    1    2    0    0  0.00000000000E+00  0.00000000000E+00  0.97443800226E+02  0.15850114593E+03  0.12500927589E+03 0.  0.
    9000005    1    3    3    0    0  0.45590581822E+02 -0.41884692226E+02  0.37888742048E+02  0.72590532218E+02  0.10000000000E+01 0.  0.
    9000005    1    3    3    0    0 -0.45590581822E+02  0.41884692226E+02  0.59555058178E+02  0.85910613712E+02  0.10000000000E+01 0.  0.
<mgrwt>
<rscale>  0 0.12500928E+03</rscale>
<asrwt>0</asrwt>
<pdfrwt beam="2">  1        4 0.46967189E-02 0.12500928E+03</pdfrwt>
<pdfrwt beam="1">  1       -4 0.19688073E-01 0.12500928E+03</pdfrwt>
<totfact> 0.97612176E+03</totfact>
</mgrwt>
</event>
<event>
 5    1  0.3251953E-002  0.1249986E+03  0.7818608E-02  0.1235071E+00
         -4   -1    0    0    0  501 -0.00000000000E+00  0.00000000000E+00  0.25008757872E+02  0.25040983812E+02  0.12700000000E+01 0. -1.
          4   -1    0    0  501    0  0.00000000000E+00 -0.00000000000E+00 -0.15605649041E+03  0.15606165800E+03  0.12700000000E+01 0. -1.
         25    2    1    2    0    0  0.00000000000E+00  0.00000000000E+00 -0.13104773254E+03  0.18110264182E+03  0.12499863467E+03 0.  0.
    9000005    1    3    3    0    0  0.13461731128E+02  0.52567654421E+00  0.22886892240E+02  0.26576387587E+02  0.10000000000E+01 0.  0.
    9000005    1    3    3    0    0 -0.13461731128E+02 -0.52567654421E+00 -0.15393462478E+03  0.15452625423E+03  0.10000000000E+01 0.  0.
<mgrwt>
<rscale>  0 0.12499863E+03</rscale>
<asrwt>0</asrwt>
<pdfrwt beam="2">  1        4 0.24011567E-01 0.12499863E+03</pdfrwt>
<pdfrwt beam="1">  1       -4 0.38503777E-02 0.12499863E+03</pdfrwt>
<totfact> 0.93421760E+03</totfact>
</mgrwt>
</event>
<event>
 5    1  0.3251953E-002  0.1250054E+03  0.7818608E-02  0.1235061E+00
         -4   -1    0    0    0  501 -0.00000000000E+00  0.00000000000E+00  0.35842889878E+02  0.35865382401E+02  0.12700000000E+01 0. -1.
          4   -1    0    0  501    0  0.00000000000E+00 -0.00000000000E+00 -0.10893165945E+03  0.10893906246E+03  0.12700000000E+01 0. -1.
         25    2    1    2    0    0  0.00000000000E+00  0.00000000000E+00 -0.73088769569E+02  0.14480444486E+03  0.12500543594E+03 0.  0.
    9000005    1    3    3    0    0 -0.43315322480E+02  0.24303740171E+02 -0.80482177680E+02  0.94579436835E+02  0.10000000000E+01 0.  0.
    9000005    1    3    3    0    0  0.43315322480E+02 -0.24303740171E+02  0.73934081107E+01  0.50225008027E+02  0.10000000000E+01 0.  0.
<mgrwt>
<rscale>  0 0.12500544E+03</rscale>
<asrwt>0</asrwt>
<pdfrwt beam="2">  1        4 0.16761016E-01 0.12500544E+03</pdfrwt>
<pdfrwt beam="1">  1       -4 0.55165905E-02 0.12500544E+03</pdfrwt>
<totfact> 0.10033735E+04</totfact>
</mgrwt>
</event>
<event>
 5    1  0.3251953E-002  0.1249998E+03  0.7818608E-02  0.1235070E+00
         -4   -1    0    0    0  501 -0.00000000000E+00  0.00000000000E+00  0.25151076156E+03  0.25151396796E+03  0.12700000000E+01 0.  1.
          4   -1    0    0  501    0  0.00000000000E+00 -0.00000000000E+00 -0.15501817109E+02  0.15553753042E+02  0.12700000000E+01 0.  1.
         25    2    1    2    0    0  0.00000000000E+00  0.00000000000E+00  0.23600894445E+03  0.26706772100E+03  0.12499978297E+03 0.  0.
    9000005    1    3    3    0    0 -0.13952967537E+02 -0.14451349680E+02 -0.84261299401E+01  0.21806569570E+02  0.10000000000E+01 0.  0.
    9000005    1    3    3    0    0  0.13952967537E+02  0.14451349680E+02  0.24443507439E+03  0.24526115143E+03  0.10000000000E+01 0.  0.
<mgrwt>
<rscale>  0 0.12499978E+03</rscale>
<asrwt>0</asrwt>
<pdfrwt beam="2">  1        4 0.23891366E-02 0.12499978E+03</pdfrwt>
<pdfrwt beam="1">  1       -4 0.38698206E-01 0.12499978E+03</pdfrwt>
<totfact> 0.79924709E+03</totfact>
</mgrwt>
</event>
<event>
 5    1  0.3251953E-002  0.1249961E+03  0.7818608E-02  0.1235075E+00
         -4   -1    0    0    0  501 -0.00000000000E+00  0.00000000000E+00  0.73041741304E+02  0.73052781417E+02  0.12700000000E+01 0. -1.
          4   -1    0    0  501    0  0.00000000000E+00 -0.00000000000E+00 -0.53453750485E+02  0.53468835230E+02  0.12700000000E+01 0. -1.
         25    2    1    2    0    0  0.00000000000E+00  0.00000000000E+00  0.19587990819E+02  0.12652161665E+03  0.12499612032E+03 0.  0.
    9000005    1    3    3    0    0  0.68159031654E+01  0.60647668836E+02 -0.38016556606E+01  0.61155938852E+02  0.10000000000E+01 0.  0.
    9000005    1    3    3    0    0 -0.68159031654E+01 -0.60647668836E+02  0.23389646480E+02  0.65365677795E+02  0.10000000000E+01 0.  0.
<mgrwt>
<rscale>  0 0.12499612E+03</rscale>
<asrwt>0</asrwt>
<pdfrwt beam="2">  1        4 0.82256635E-02 0.12499612E+03</pdfrwt>
<pdfrwt beam="1">  1       -4 0.11239201E-01 0.12499612E+03</pdfrwt>
<totfact> 0.10420469E+04</totfact>
</mgrwt>
</event>
<event>
 5    1  0.3251953E-002  0.1250098E+03  0.7818608E-02  0.1235054E+00
         -4   -1    0    0    0  501 -0.00000000000E+00  0.00000000000E+00  0.16747204005E+02  0.16795289280E+02  0.12700000000E+01 0. -1.
          4   -1    0    0  501    0  0.00000000000E+00 -0.00000000000E+00 -0.23290021037E+03  0.23290367298E+03  0.12700000000E+01 0. -1.
         25    2    1    2    0    0  0.00000000000E+00  0.00000000000E+00 -0.21615300636E+03  0.24969896226E+03  0.12500979800E+03 0.  0.
    9000005    1    3    3    0    0  0.21838746413E+02  0.57904648714E+02 -0.90665190833E+02  0.10977730192E+03  0.10000000000E+01 0.  0.
    9000005    1    3    3    0    0 -0.21838746413E+02 -0.57904648714E+02 -0.12548781553E+03  0.13992166035E+03  0.10000000000E+01 0.  0.
<mgrwt>
<rscale>  0 0.12500980E+03</rscale>
<asrwt>0</asrwt>
<pdfrwt beam="2">  1        4 0.35834765E-01 0.12500980E+03</pdfrwt>
<pdfrwt beam="1">  1       -4 0.25804583E-02 0.12500980E+03</pdfrwt>
<totfact> 0.82355781E+03</totfact>
</mgrwt>
</event>
<event>
 5    1  0.3251953E-002  0.1249975E+03  0.7818608E-02  0.1235073E+00
          4   -1    0    0  501    0  0.00000000000E+00  0.00000000000E+00  0.14969770594E+02  0.15023545907E+02  0.12700000000E+01 0. -1.
         -4   -1    0    0    0  501 -0.00000000000E+00 -0.00000000000E+00 -0.26040902916E+03  0.26041212600E+03  0.12700000000E+01 0. -1.
         25    2    1    2    0    0  0.00000000000E+00  0.00000000000E+00 -0.24543925856E+03  0.27543567190E+03  0.12499751883E+03 0.  0.
    9000005    1    3    3    0    0  0.12648016013E+02  0.90463536162E+00 -0.25755516302E+03  0.25786906110E+03  0.10000000000E+01 0.  0.
    9000005    1    3    3    0    0 -0.12648016013E+02 -0.90463536162E+00  0.12115904459E+02  0.17566610802E+02  0.10000000000E+01 0.  0.
<mgrwt>
<rscale>  0 0.12499752E+03</rscale>
<asrwt>0</asrwt>
<pdfrwt beam="1">  1        4 0.23074166E-02 0.12499752E+03</pdfrwt>
<pdfrwt beam="2">  1       -4 0.40067299E-01 0.12499752E+03</pdfrwt>
<totfact> 0.78791568E+03</totfact>
</mgrwt>
</event>
<event>
 5    1  0.3251953E-002  0.1250016E+03  0.7818608E-02  0.1235067E+00
         -4   -1    0    0    0  501 -0.00000000000E+00  0.00000000000E+00  0.90380368900E+02  0.90389291304E+02  0.12700000000E+01 0. -1.
          4   -1    0    0  501    0  0.00000000000E+00 -0.00000000000E+00 -0.43200843043E+02  0.43219506471E+02  0.12700000000E+01 0. -1.
         25    2    1    2    0    0  0.00000000000E+00  0.00000000000E+00  0.47179525857E+02  0.13360879777E+03  0.12500161272E+03 0.  0.
    9000005    1    3    3    0    0  0.45020567613E+02 -0.29788330230E+02 -0.10060631238E+02  0.54921875669E+02  0.10000000000E+01 0.  0.
    9000005    1    3    3    0    0 -0.45020567613E+02  0.29788330230E+02  0.57240157095E+02  0.78686922106E+02  0.10000000000E+01 0.  0.
<mgrwt>
<rscale>  0 0.12500161E+03</rscale>
<asrwt>0</asrwt>
<pdfrwt beam="2">  1        4 0.66484055E-02 0.12500161E+03</pdfrwt>
<pdfrwt beam="1">  1       -4 0.13906794E-01 0.12500161E+03</pdfrwt>
<totfact> 0.10267104E+04</totfact>
</mgrwt>
</event>
<event>
 5    1  0.3251953E-002  0.1249990E+03  0.7818608E-02  0.1235071E+00
         -4   -1    0    0    0  501 -0.00000000000E+00  0.00000000000E+00  0.38889220011E+02  0.38909951594E+02  0.12700000000E+01 0.  1.
          4   -1    0    0  501    0  0.00000000000E+00 -0.00000000000E+00 -0.10039242883E+03  0.10040046149E+03  0.12700000000E+01 0.  1.
         25    2    1    2    0    0  0.00000000000E+00  0.00000000000E+00 -0.61503208820E+02  0.13931041308E+03  0.12499898599E+03 0.  0.
    9000005    1    3    3    0    0 -0.63598149000E+00  0.56160926710E+02 -0.61288134639E+02  0.83136572030E+02  0.10000000000E+01 0.  0.
    9000005    1    3    3    0    0  0.63598149000E+00 -0.56160926710E+02 -0.21507418059E+00  0.56173841050E+02  0.10000000000E+01 0.  0.
<mgrwt>
<rscale>  0 0.12499899E+03</rscale>
<asrwt>0</asrwt>
<pdfrwt beam="2">  1        4 0.15447202E-01 0.12499899E+03</pdfrwt>
<pdfrwt beam="1">  1       -4 0.59851696E-02 0.12499899E+03</pdfrwt>
<totfact> 0.10148130E+04</totfact>
</mgrwt>
</event>
<event>
 5    1  0.3251953E-002  0.1249933E+03  0.7818608E-02  0.1235080E+00
         -4   -1    0    0    0  501 -0.00000000000E+00  0.00000000000E+00  0.17996097238E+02  0.18040854077E+02  0.12700000000E+01 0.  1.
          4   -1    0    0  501    0  0.00000000000E+00 -0.00000000000E+00 -0.21672153834E+03  0.21672525944E+03  0.12700000000E+01 0.  1.
         25    2    1    2    0    0  0.00000000000E+00  0.00000000000E+00 -0.19872544110E+03  0.23476611352E+03  0.12499330828E+03 0.  0.
    9000005    1    3    3    0    0  0.30054769227E+02 -0.14561634188E+02 -0.16265890532E+00  0.33411926036E+02  0.10000000000E+01 0.  0.
    9000005    1    3    3    0    0 -0.30054769227E+02  0.14561634188E+02 -0.19856278220E+03  0.20135418748E+03  0.10000000000E+01 0.  0.
<mgrwt>
<rscale>  0 0.12499331E+03</rscale>
<asrwt>0</asrwt>
<pdfrwt beam="2">  1        4 0.33345502E-01 0.12499331E+03</pdfrwt>
<pdfrwt beam="1">  1       -4 0.27723596E-02 0.12499331E+03</pdfrwt>
<totfact> 0.84595714E+03</totfact>
</mgrwt>
</event>
<event>
 5    1  0.3251953E-002  0.1249989E+03  0.7818608E-02  0.1235071E+00
         -4   -1    0    0    0  501 -0.00000000000E+00  0.00000000000E+00  0.27220068274E+03  0.27220364543E+03  0.12700000000E+01 0.  1.
          4   -1    0    0  501    0  0.00000000000E+00 -0.00000000000E+00 -0.14319234288E+02  0.14375443318E+02  0.12700000000E+01 0.  1.
         25    2    1    2    0    0  0.00000000000E+00  0.00000000000E+00  0.25788144845E+03  0.28657908874E+03  0.12499893060E+03 0.  0.
    9000005    1    3    3    0    0  0.54278670232E+02  0.16419666750E+02  0.68743704063E+02  0.89120571961E+02  0.10000000000E+01 0.  0.
    9000005    1    3    3    0    0 -0.54278670232E+02 -0.16419666750E+02  0.18913774439E+03  0.19745851678E+03  0.10000000000E+01 0.  0.
<mgrwt>
<rscale>  0 0.12499893E+03</rscale>
<asrwt>0</asrwt>
<pdfrwt beam="2">  1        4 0.22075107E-02 0.12499893E+03</pdfrwt>
<pdfrwt beam="1">  1       -4 0.41881581E-01 0.12499893E+03</pdfrwt>
<totfact> 0.77315610E+03</totfact>
</mgrwt>
</event>
<event>
 5    1  0.3251953E-002  0.1249992E+03  0.7818608E-02  0.1235070E+00
          4   -1    0    0  501    0  0.00000000000E+00  0.00000000000E+00  0.15395891205E+03  0.15396415005E+03  0.12700000000E+01 0. -1.
         -4   -1    0    0    0  501 -0.00000000000E+00 -0.00000000000E+00 -0.25350148986E+02  0.25381941486E+02  0.12700000000E+01 0. -1.
         25    2    1    2    0    0  0.00000000000E+00  0.00000000000E+00  0.12860876307E+03  0.17934609154E+03  0.12499922644E+03 0.  0.
    9000005    1    3    3    0    0  0.32186300313E+02  0.45960420560E+02  0.10377728755E+03  0.11797899643E+03  0.10000000000E+01 0.  0.
    9000005    1    3    3    0    0 -0.32186300313E+02 -0.45960420560E+02  0.24831475514E+02  0.61367095109E+02  0.10000000000E+01 0.  0.
<mgrwt>
<rscale>  0 0.12499923E+03</rscale>
<asrwt>0</asrwt>
<pdfrwt beam="1">  1        4 0.23688835E-01 0.12499923E+03</pdfrwt>
<pdfrwt beam="2">  1       -4 0.39028713E-02 0.12499923E+03</pdfrwt>
<totfact> 0.93736467E+03</totfact>
</mgrwt>
</event>
<event>
 5    1  0.3251953E-002  0.1249980E+03  0.7818608E-02  0.1235072E+00
          4   -1    0    0  501    0  0.00000000000E+00  0.00000000000E+00  0.25018083484E+02  0.25050297427E+02  0.12700000000E+01 0. -1.
         -4   -1    0    0    0  501 -0.00000000000E+00 -0.00000000000E+00 -0.15599687282E+03  0.15600204239E+03  0.12700000000E+01 0. -1.
         25    2    1    2    0    0  0.00000000000E+00  0.00000000000E+00 -0.13097878934E+03  0.18105233982E+03  0.12499802597E+03 0.  0.
    9000005    1    3    3    0    0  0.47909440343E+02  0.13629534764E+02 -0.10830192143E+02  0.50984034302E+02  0.10000000000E+01 0.  0.
    9000005    1    3    3    0    0 -0.47909440343E+02 -0.13629534764E+02 -0.12014859719E+03  0.13006830551E+03  0.10000000000E+01 0.  0.
<mgrwt>
<rscale>  0 0.12499803E+03</rscale>
<asrwt>0</asrwt>
<pdfrwt beam="1">  1        4 0.38518117E-02 0.12499803E+03</pdfrwt>
<pdfrwt beam="2">  1       -4 0.24002394E-01 0.12499803E+03</pdfrwt>
<totfact> 0.93432056E+03</totfact>
</mgrwt>
</event>
<event>
 5    1  0.3251953E-002  0.1250023E+03  0.7818608E-02  0.1235066E+00
          4   -1    0    0  501    0  0.00000000000E+00  0.00000000000E+00  0.40782385036E+02  0.40802154713E+02  0.12700000000E+01 0. -1.
         -4   -1    0    0    0  501 -0.00000000000E+00 -0.00000000000E+00 -0.95739131186E+02  0.95747554226E+02  0.12700000000E+01 0. -1.
         25    2    1    2    0    0  0.00000000000E+00  0.00000000000E+00 -0.54956746150E+02  0.13654970894E+03  0.12500231623E+03 0.  0.
    9000005    1    3    3    0    0 -0.32809349483E+02 -0.19267576225E+02 -0.81633218104E+02  0.90070390279E+02  0.10000000000E+01 0.  0.
    9000005    1    3    3    0    0  0.32809349483E+02  0.19267576225E+02  0.26676471954E+02  0.46479318659E+02  0.10000000000E+01 0.  0.
<mgrwt>
<rscale>  0 0.12500232E+03</rscale>
<asrwt>0</asrwt>
<pdfrwt beam="1">  1        4 0.62763818E-02 0.12500232E+03</pdfrwt>
<pdfrwt beam="2">  1       -4 0.14731266E-01 0.12500232E+03</pdfrwt>
<totfact> 0.10204976E+04</totfact>
</mgrwt>
</event>
<event>
 5    1  0.3251953E-002  0.1249995E+03  0.7818608E-02  0.1235070E+00
          4   -1    0    0  501    0  0.00000000000E+00  0.00000000000E+00  0.89173957010E+03  0.89174047445E+03  0.12700000000E+01 0. -1.
         -4   -1    0    0    0  501 -0.00000000000E+00 -0.00000000000E+00 -0.42874706612E+01  0.44716109704E+01  0.12700000000E+01 0. -1.
         25    2    1    2    0    0  0.00000000000E+00  0.00000000000E+00  0.88745209944E+03  0.89621208542E+03  0.12499949306E+03 0.  0.
    9000005    1    3    3    0    0  0.24064533509E+02  0.33557616604E+02  0.10743588022E+03  0.11510292683E+03  0.10000000000E+01 0.  0.
    9000005    1    3    3    0    0 -0.24064533509E+02 -0.33557616604E+02  0.78001621921E+03  0.78110915859E+03  0.10000000000E+01 0.  0.
<mgrwt>
<rscale>  0 0.12499949E+03</rscale>
<asrwt>0</asrwt>
<pdfrwt beam="1">  1        4 0.13720484E+00 0.12499949E+03</pdfrwt>
<pdfrwt beam="2">  1       -4 0.67384557E-03 0.12499949E+03</pdfrwt>
<totfact> 0.34305779E+03</totfact>
</mgrwt>
</event>
<event>
 5    1  0.3251953E-002  0.1250063E+03  0.7818608E-02  0.1235059E+00
          4   -1    0    0  501    0  0.00000000000E+00  0.00000000000E+00  0.12032687017E+02  0.12099523001E+02  0.12700000000E+01 0.  1.
         -4   -1    0    0    0  501 -0.00000000000E+00 -0.00000000000E+00 -0.32370194459E+03  0.32370443591E+03  0.12700000000E+01 0.  1.
         25    2    1    2    0    0  0.00000000000E+00  0.00000000000E+00 -0.31166925757E+03  0.33580395892E+03  0.12500629067E+03 0.  0.
    9000005    1    3    3    0    0 -0.81574794391E+01 -0.91297460934E+01 -0.32046201224E+03  0.32069736204E+03  0.10000000000E+01 0.  0.
    9000005    1    3    3    0    0  0.81574794391E+01  0.91297460934E+01  0.87927546639E+01  0.15106596874E+02  0.10000000000E+01 0.  0.
<mgrwt>
<rscale>  0 0.12500629E+03</rscale>
<asrwt>0</asrwt>
<pdfrwt beam="1">  1        4 0.18565157E-02 0.12500629E+03</pdfrwt>
<pdfrwt beam="2">  1       -4 0.49805625E-01 0.12500629E+03</pdfrwt>
<totfact> 0.71305125E+03</totfact>
</mgrwt>
</event>
<event>
 5    1  0.3251953E-002  0.1250146E+03  0.7818608E-02  0.1235046E+00
          4   -1    0    0  501    0  0.00000000000E+00  0.00000000000E+00  0.50981556052E+03  0.50981714236E+03  0.12700000000E+01 0.  1.
         -4   -1    0    0    0  501 -0.00000000000E+00 -0.00000000000E+00 -0.76096550420E+01  0.77149043973E+01  0.12700000000E+01 0.  1.
         25    2    1    2    0    0  0.00000000000E+00  0.00000000000E+00  0.50220590547E+03  0.51753204676E+03  0.12501459086E+03 0.  0.
    9000005    1    3    3    0    0 -0.26544667149E+02  0.86035487802E+01  0.19589250070E+02  0.34108343905E+02  0.10000000000E+01 0.  0.
    9000005    1    3    3    0    0  0.26544667149E+02 -0.86035487802E+01  0.48261665540E+03  0.48342370285E+03  0.10000000000E+01 0.  0.
<mgrwt>
<rscale>  0 0.12501459E+03</rscale>
<asrwt>0</asrwt>
<pdfrwt beam="1">  1        4 0.78441426E-01 0.12501459E+03</pdfrwt>
<pdfrwt beam="2">  1       -4 0.11789333E-02 0.12501459E+03</pdfrwt>
<totfact> 0.54511795E+03</totfact>
</mgrwt>
</event>
<event>
 5    1  0.3251953E-002  0.1250067E+03  0.7818608E-02  0.1235059E+00
          4   -1    0    0  501    0  0.00000000000E+00  0.00000000000E+00  0.38789604758E+01  0.40815725368E+01  0.12700000000E+01 0.  1.
         -4   -1    0    0    0  501 -0.00000000000E+00 -0.00000000000E+00 -0.98130560325E+03  0.98130642506E+03  0.12700000000E+01 0.  1.
         25    2    1    2    0    0  0.00000000000E+00  0.00000000000E+00 -0.97742664277E+03  0.98538799760E+03  0.12500665506E+03 0.  0.
    9000005    1    3    3    0    0  0.43524332283E+02 -0.40893716160E+02 -0.34357719112E+03  0.34873048301E+03  0.10000000000E+01 0.  0.
    9000005    1    3    3    0    0 -0.43524332283E+02  0.40893716160E+02 -0.63384945165E+03  0.63665751459E+03  0.10000000000E+01 0.  0.
<mgrwt>
<rscale>  0 0.12500666E+03</rscale>
<asrwt>0</asrwt>
<pdfrwt beam="1">  1        4 0.61241269E-03 0.12500666E+03</pdfrwt>
<pdfrwt beam="2">  1       -4 0.15098555E+00 0.12500666E+03</pdfrwt>
<totfact> 0.31087443E+03</totfact>
</mgrwt>
</event>
<event>
 5    1  0.3251953E-002  0.1250058E+03  0.7818608E-02  0.1235060E+00
          4   -1    0    0  501    0  0.00000000000E+00  0.00000000000E+00  0.68407242029E+02  0.68419029970E+02  0.12700000000E+01 0. -1.
         -4   -1    0    0    0  501 -0.00000000000E+00 -0.00000000000E+00 -0.57084354863E+02  0.57098480454E+02  0.12700000000E+01 0. -1.
         25    2    1    2    0    0  0.00000000000E+00  0.00000000000E+00  0.11322887167E+02  0.12551751042E+03  0.12500575046E+03 0.  0.
    9000005    1    3    3    0    0  0.50473301272E+01  0.60438690560E+02 -0.94767014490E+01  0.61393148871E+02  0.10000000000E+01 0.  0.
    9000005    1    3    3    0    0 -0.50473301272E+01 -0.60438690560E+02  0.20799588616E+02  0.64124361553E+02  0.10000000000E+01 0.  0.
<mgrwt>
<rscale>  0 0.12500575E+03</rscale>
<asrwt>0</asrwt>
<pdfrwt beam="1">  1        4 0.10526184E-01 0.12500575E+03</pdfrwt>
<pdfrwt beam="2">  1       -4 0.87842017E-02 0.12500575E+03</pdfrwt>
<totfact> 0.10440213E+04</totfact>
</mgrwt>
</event>
<event>
 5    1  0.3251953E-002  0.1250000E+03  0.7818608E-02  0.1235069E+00
          4   -1    0    0  501    0  0.00000000000E+00  0.00000000000E+00  0.22868806961E+02  0.22904044006E+02  0.12700000000E+01 0.  1.
         -4   -1    0    0    0  501 -0.00000000000E+00 -0.00000000000E+00 -0.17064212165E+03  0.17064684756E+03  0.12700000000E+01 0.  1.
         25    2    1    2    0    0  0.00000000000E+00  0.00000000000E+00 -0.14777331469E+03  0.19355089156E+03  0.12499998036E+03 0.  0.
    9000005    1    3    3    0    0 -0.37170582729E+02  0.22968275150E+02 -0.47081047380E+01  0.43958618427E+02  0.10000000000E+01 0.  0.
    9000005    1    3    3    0    0  0.37170582729E+02 -0.22968275150E+02 -0.14306520995E+03  0.14959227314E+03  0.10000000000E+01 0.  0.
<mgrwt>
<rscale>  0 0.12499998E+03</rscale>
<asrwt>0</asrwt>
<pdfrwt beam="1">  1        4 0.35213522E-02 0.12499998E+03</pdfrwt>
<pdfrwt beam="2">  1       -4 0.26255707E-01 0.12499998E+03</pdfrwt>
<totfact> 0.91233156E+03</totfact>
</mgrwt>
</event>
<event>
 5    1  0.3251953E-002  0.1249974E+03  0.7818608E-02  0.1235073E+00
         -4   -1    0    0    0  501 -0.00000000000E+00  0.00000000000E+00  0.84688584571E+03  0.84688679796E+03  0.12700000000E+01 0. -1.
          4   -1    0    0  501    0  0.00000000000E+00 -0.00000000000E+00 -0.45239003642E+01  0.46987843646E+01  0.12700000000E+01 0. -1.
         25    2    1    2    0    0  0.00000000000E+00  0.00000000000E+00  0.84236194534E+03  0.85158558233E+03  0.12499742822E+03 0.  0.
    9000005    1    3    3    0    0  0.96197328841E+01 -0.70321257594E+01  0.32543314697E+01  0.12392769133E+02  0.10000000000E+01 0.  0.
    9000005    1    3    3    0    0 -0.96197328841E+01  0.70321257594E+01  0.83910761387E+03  0.83919281319E+03  0.10000000000E+01 0.  0.
<mgrwt>
<rscale>  0 0.12499743E+03</rscale>
<asrwt>0</asrwt>
<pdfrwt beam="2">  1        4 0.70951043E-03 0.12499743E+03</pdfrwt>
<pdfrwt beam="1">  1       -4 0.13030368E+00 0.12499743E+03</pdfrwt>
<totfact> 0.36064545E+03</totfact>
</mgrwt>
</event>
<event>
 5    1  0.3251953E-002  0.1249937E+03  0.7818608E-02  0.1235079E+00
         -4   -1    0    0    0  501 -0.00000000000E+00  0.00000000000E+00  0.10236723850E+03  0.10237511621E+03  0.12700000000E+01 0.  1.
          4   -1    0    0  501    0  0.00000000000E+00 -0.00000000000E+00 -0.38135442558E+02  0.38156583692E+02  0.12700000000E+01 0.  1.
         25    2    1    2    0    0  0.00000000000E+00  0.00000000000E+00  0.64231795942E+02  0.14053169990E+03  0.12499374011E+03 0.  0.
    9000005    1    3    3    0    0  0.54658121953E+02  0.13331605198E+02  0.62692513488E+02  0.84241279905E+02  0.10000000000E+01 0.  0.
    9000005    1    3    3    0    0 -0.54658121953E+02 -0.13331605198E+02  0.15392824546E+01  0.56290419993E+02  0.10000000000E+01 0.  0.
<mgrwt>
<rscale>  0 0.12499374E+03</rscale>
<asrwt>0</asrwt>
<pdfrwt beam="2">  1        4 0.58692233E-02 0.12499374E+03</pdfrwt>
<pdfrwt beam="1">  1       -4 0.15751038E-01 0.12499374E+03</pdfrwt>
<totfact> 0.10124006E+04</totfact>
</mgrwt>
</event>
<event>
 5    1  0.3251953E-002  0.1249970E+03  0.7818608E-02  0.1235074E+00
          4   -1    0    0  501    0  0.00000000000E+00  0.00000000000E+00  0.90428599348E+02  0.90437516994E+02  0.12700000000E+01 0. -1.
         -4   -1    0    0    0  501 -0.00000000000E+00 -0.00000000000E+00 -0.43174599765E+02  0.43193274533E+02  0.12700000000E+01 0. -1.
         25    2    1    2    0    0  0.00000000000E+00  0.00000000000E+00  0.47253999582E+02  0.13363079153E+03  0.12499699183E+03 0.  0.
    9000005    1    3    3    0    0 -0.31585937261E+02 -0.44497178741E+02  0.56183564168E+02  0.78327921147E+02  0.10000000000E+01 0.  0.
    9000005    1    3    3    0    0  0.31585937261E+02  0.44497178741E+02 -0.89295645859E+01  0.55302870380E+02  0.10000000000E+01 0.  0.
<mgrwt>
<rscale>  0 0.12499699E+03</rscale>
<asrwt>0</asrwt>
<pdfrwt beam="1">  1        4 0.13914214E-01 0.12499699E+03</pdfrwt>
<pdfrwt beam="2">  1       -4 0.66443687E-02 0.12499699E+03</pdfrwt>
<totfact> 0.10267708E+04</totfact>
</mgrwt>
</event>
<event>
 5    1  0.3251953E-002  0.1249996E+03  0.7818608E-02  0.1235070E+00
         -4   -1    0    0    0  501 -0.00000000000E+00  0.00000000000E+00  0.30661601987E+02  0.30687892342E+02  0.12700000000E+01 0. -1.
          4   -1    0    0  501    0  0.00000000000E+00 -0.00000000000E+00 -0.12731391262E+03  0.12732024681E+03  0.12700000000E+01 0. -1.
         25    2    1    2    0    0  0.00000000000E+00  0.00000000000E+00 -0.96652310638E+02  0.15800813915E+03  0.12499961155E+03 0.  0.
    9000005    1    3    3    0    0  0.12962335221E+02  0.50448077230E+02 -0.91972156464E+02  0.10570197820E+03  0.10000000000E+01 0.  0.
    9000005    1    3    3    0    0 -0.12962335221E+02 -0.50448077230E+02 -0.46801541736E+01  0.52306160953E+02  0.10000000000E+01 0.  0.
<mgrwt>
<rscale>  0 0.12499961E+03</rscale>
<asrwt>0</asrwt>
<pdfrwt beam="2">  1        4 0.19589265E-01 0.12499961E+03</pdfrwt>
<pdfrwt beam="1">  1       -4 0.47196792E-02 0.12499961E+03</pdfrwt>
<totfact> 0.97729033E+03</totfact>
</mgrwt>
</event>
<event>
 5    1  0.3251953E-002  0.1249920E+03  0.7818608E-02  0.1235082E+00
          4   -1    0    0  501    0  0.00000000000E+00  0.00000000000E+00  0.19325906327E+03  0.19326323612E+03  0.12700000000E+01 0.  1.
         -4   -1    0    0    0  501 -0.00000000000E+00 -0.00000000000E+00 -0.20185569010E+02  0.20225481360E+02  0.12700000000E+01 0.  1.
         25    2    1    2    0    0  0.00000000000E+00  0.00000000000E+00  0.17307349426E+03  0.21348871748E+03  0.12499199205E+03 0.  0.
    9000005    1    3    3    0    0  0.24478373135E+02  0.24262747816E+02  0.17556498839E+03  0.17891879955E+03  0.10000000000E+01 0.  0.
    9000005    1    3    3    0    0 -0.24478373135E+02 -0.24262747816E+02 -0.24914941312E+01  0.34569917933E+02  0.10000000000E+01 0.  0.
<mgrwt>
<rscale>  0 0.12499199E+03</rscale>
<asrwt>0</asrwt>
<pdfrwt beam="1">  1        4 0.29735554E-01 0.12499199E+03</pdfrwt>
<pdfrwt beam="2">  1       -4 0.31088634E-02 0.12499199E+03</pdfrwt>
<totfact> 0.87925013E+03</totfact>
</mgrwt>
</event>
<event>
 5    1  0.3251953E-002  0.1250021E+03  0.7818608E-02  0.1235066E+00
         -4   -1    0    0    0  501 -0.00000000000E+00  0.00000000000E+00  0.21018471752E+02  0.21056805427E+02  0.12700000000E+01 0.  1.
          4   -1    0    0  501    0  0.00000000000E+00 -0.00000000000E+00 -0.18564484366E+03  0.18564918766E+03  0.12700000000E+01 0.  1.
         25    2    1    2    0    0  0.00000000000E+00  0.00000000000E+00 -0.16462637191E+03  0.20670599309E+03  0.12500210098E+03 0.  0.
    9000005    1    3    3    0    0  0.12211467558E+02  0.42893805194E+02 -0.15470290542E+03  0.16100617196E+03  0.10000000000E+01 0.  0.
    9000005    1    3    3    0    0 -0.12211467558E+02 -0.42893805194E+02 -0.99234664945E+01  0.45699821129E+02  0.10000000000E+01 0.  0.
<mgrwt>
<rscale>  0 0.12500210E+03</rscale>
<asrwt>0</asrwt>
<pdfrwt beam="2">  1        4 0.28564027E-01 0.12500210E+03</pdfrwt>
<pdfrwt beam="1">  1       -4 0.32368941E-02 0.12500210E+03</pdfrwt>
<totfact> 0.89012495E+03</totfact>
</mgrwt>
</event>
<event>
 5    1  0.3251953E-002  0.1249939E+03  0.7818608E-02  0.1235079E+00
          4   -1    0    0  501    0  0.00000000000E+00  0.00000000000E+00  0.96630941218E+01  0.97461935137E+01  0.12700000000E+01 0. -1.
         -4   -1    0    0    0  501 -0.00000000000E+00 -0.00000000000E+00 -0.40239007852E+03  0.40239208267E+03  0.12700000000E+01 0. -1.
         25    2    1    2    0    0  0.00000000000E+00  0.00000000000E+00 -0.39272698440E+03  0.41213827618E+03  0.12499389752E+03 0.  0.
    9000005    1    3    3    0    0  0.44673025557E+02  0.24496791049E+02 -0.77063616612E+02  0.92388164769E+02  0.10000000000E+01 0.  0.
    9000005    1    3    3    0    0 -0.44673025557E+02 -0.24496791049E+02 -0.31566336779E+03  0.31975011141E+03  0.10000000000E+01 0.  0.
<mgrwt>
<rscale>  0 0.12499390E+03</rscale>
<asrwt>0</asrwt>
<pdfrwt beam="1">  1        4 0.14931766E-02 0.12499390E+03</pdfrwt>
<pdfrwt beam="2">  1       -4 0.61912699E-01 0.12499390E+03</pdfrwt>
<totfact> 0.63397654E+03</totfact>
</mgrwt>
</event>
<event>
 5    1  0.3251953E-002  0.1250001E+03  0.7818608E-02  0.1235069E+00
         -4   -1    0    0    0  501 -0.00000000000E+00  0.00000000000E+00  0.13765404670E+03  0.13765990510E+03  0.12700000000E+01 0. -1.
          4   -1    0    0  501    0  0.00000000000E+00 -0.00000000000E+00 -0.28356670574E+02  0.28385095844E+02  0.12700000000E+01 0. -1.
         25    2    1    2    0    0  0.00000000000E+00  0.00000000000E+00  0.10929737612E+03  0.16604500094E+03  0.12500010364E+03 0.  0.
    9000005    1    3    3    0    0  0.16789402831E+02  0.16224430702E+02  0.13164929283E+03  0.13370733900E+03  0.10000000000E+01 0.  0.
    9000005    1    3    3    0    0 -0.16789402831E+02 -0.16224430702E+02 -0.22351916713E+02  0.32337661940E+02  0.10000000000E+01 0.  0.
<mgrwt>
<rscale>  0 0.12500010E+03</rscale>
<asrwt>0</asrwt>
<pdfrwt beam="2">  1        4 0.43652020E-02 0.12500010E+03</pdfrwt>
<pdfrwt beam="1">  1       -4 0.21180182E-01 0.12500010E+03</pdfrwt>
<totfact> 0.96189627E+03</totfact>
</mgrwt>
</event>
<event>
 5    1  0.3251953E-002  0.1249923E+03  0.7818608E-02  0.1235081E+00
          4   -1    0    0  501    0  0.00000000000E+00  0.00000000000E+00  0.10567994635E+02  0.10644031689E+02  0.12700000000E+01 0.  1.
         -4   -1    0    0    0  501 -0.00000000000E+00 -0.00000000000E+00 -0.36818253578E+03  0.36818472613E+03  0.12700000000E+01 0.  1.
         25    2    1    2    0    0  0.00000000000E+00  0.00000000000E+00 -0.35761454115E+03  0.37882875782E+03  0.12499227060E+03 0.  0.
    9000005    1    3    3    0    0 -0.10721207936E+02 -0.58853862113E+02 -0.23353392708E+03  0.24107637064E+03  0.10000000000E+01 0.  0.
    9000005    1    3    3    0    0  0.10721207936E+02  0.58853862113E+02 -0.12408061407E+03  0.13775238718E+03  0.10000000000E+01 0.  0.
<mgrwt>
<rscale>  0 0.12499227E+03</rscale>
<asrwt>0</asrwt>
<pdfrwt beam="1">  1        4 0.16318631E-02 0.12499227E+03</pdfrwt>
<pdfrwt beam="2">  1       -4 0.56649475E-01 0.12499227E+03</pdfrwt>
<totfact> 0.66676681E+03</totfact>
</mgrwt>
</event>
<event>
 5    1  0.3251953E-002  0.1250055E+03  0.7818608E-02  0.1235061E+00
          4   -1    0    0  501    0  0.00000000000E+00  0.00000000000E+00  0.31373590627E+02  0.31399284846E+02  0.12700000000E+01 0. -1.
         -4   -1    0    0    0  501 -0.00000000000E+00 -0.00000000000E+00 -0.12443858951E+03  0.12444507004E+03  0.12700000000E+01 0. -1.
         25    2    1    2    0    0  0.00000000000E+00  0.00000000000E+00 -0.93064998878E+02  0.15584435489E+03  0.12500547562E+03 0.  0.
    9000005    1    3    3    0    0 -0.56480660866E+02  0.75339645144E+01 -0.78530866184E+02  0.97030524149E+02  0.10000000000E+01 0.  0.
    9000005    1    3    3    0    0  0.56480660866E+02 -0.75339645144E+01 -0.14534132694E+02  0.58813830740E+02  0.10000000000E+01 0.  0.
<mgrwt>
<rscale>  0 0.12500548E+03</rscale>
<asrwt>0</asrwt>
<pdfrwt beam="1">  1        4 0.48291813E-02 0.12500548E+03</pdfrwt>
<pdfrwt beam="2">  1       -4 0.19146873E-01 0.12500548E+03</pdfrwt>
<totfact> 0.98137911E+03</totfact>
</mgrwt>
</event>
<event>
 5    1  0.3251953E-002  0.1249999E+03  0.7818608E-02  0.1235069E+00
          4   -1    0    0  501    0  0.00000000000E+00  0.00000000000E+00  0.97213548279E+03  0.97213631236E+03  0.12700000000E+01 0. -1.
         -4   -1    0    0    0  501 -0.00000000000E+00 -0.00000000000E+00 -0.39170092274E+01  0.41177495416E+01  0.12700000000E+01 0. -1.
         25    2    1    2    0    0  0.00000000000E+00  0.00000000000E+00  0.96821847356E+03  0.97625406190E+03  0.12499992329E+03 0.  0.
    9000005    1    3    3    0    0 -0.54148164806E+02  0.70736229543E+01  0.24680933938E+03  0.25278035901E+03  0.10000000000E+01 0.  0.
    9000005    1    3    3    0    0  0.54148164806E+02 -0.70736229543E+01  0.72140913418E+03  0.72347370289E+03  0.10000000000E+01 0.  0.
<mgrwt>
<rscale>  0 0.12499992E+03</rscale>
<asrwt>0</asrwt>
<pdfrwt beam="1">  1        4 0.14957504E+00 0.12499992E+03</pdfrwt>
<pdfrwt beam="2">  1       -4 0.61812123E-03 0.12499992E+03</pdfrwt>
<totfact> 0.31401804E+03</totfact>
</mgrwt>
</event>
<event>
 5    1  0.3251953E-002  0.1249983E+03  0.7818608E-02  0.1235072E+00
         -4   -1    0    0    0  501 -0.00000000000E+00  0.00000000000E+00  0.32972475445E+03  0.32972720026E+03  0.12700000000E+01 0.  1.
          4   -1    0    0  501    0  0.00000000000E+00 -0.00000000000E+00 -0.11810140461E+02  0.11878228727E+02  0.12700000000E+01 0.  1.
         25    2    1    2    0    0  0.00000000000E+00  0.00000000000E+00  0.31791461398E+03  0.34160542899E+03  0.12499826931E+03 0.  0.
    9000005    1    3    3    0    0 -0.21224520146E+02  0.41691573680E+02  0.45733067579E+02  0.65430734686E+02  0.10000000000E+01 0.  0.
    9000005    1    3    3    0    0  0.21224520146E+02 -0.41691573680E+02  0.27218154641E+03  0.27617469431E+03  0.10000000000E+01 0.  0.
<mgrwt>
<rscale>  0 0.12499827E+03</rscale>
<asrwt>0</asrwt>
<pdfrwt beam="2">  1        4 0.18223706E-02 0.12499827E+03</pdfrwt>
<pdfrwt beam="1">  1       -4 0.50732306E-01 0.12499827E+03</pdfrwt>
<totfact> 0.70660752E+03</totfact>
</mgrwt>
</event>
<event>
 5    1  0.3251953E-002  0.1249972E+03  0.7818608E-02  0.1235074E+00
         -4   -1    0    0    0  501 -0.00000000000E+00  0.00000000000E+00  0.17074710387E+02  0.17121875913E+02  0.12700000000E+01 0.  1.
          4   -1    0    0  501    0  0.00000000000E+00 -0.00000000000E+00 -0.22839914640E+03  0.22840267725E+03  0.12700000000E+01 0.  1.
         25    2    1    2    0    0  0.00000000000E+00  0.00000000000E+00 -0.21132443601E+03  0.24552455317E+03  0.12499715577E+03 0.  0.
    9000005    1    3    3    0    0 -0.12410012367E+02 -0.58384129515E+02 -0.14200637200E+03  0.15404390502E+03  0.10000000000E+01 0.  0.
    9000005    1    3    3    0    0  0.12410012367E+02  0.58384129515E+02 -0.69318064013E+02  0.91480648142E+02  0.10000000000E+01 0.  0.
<mgrwt>
<rscale>  0 0.12499716E+03</rscale>
<asrwt>0</asrwt>
<pdfrwt beam="2">  1        4 0.35142228E-01 0.12499716E+03</pdfrwt>
<pdfrwt beam="1">  1       -4 0.26307784E-02 0.12499716E+03</pdfrwt>
<totfact> 0.82986663E+03</totfact>
</mgrwt>
</event>
<event>
 5    1  0.3251953E-002  0.1249995E+03  0.7818608E-02  0.1235070E+00
          4   -1    0    0  501    0  0.00000000000E+00  0.00000000000E+00  0.56134458036E+03  0.56134601700E+03  0.12700000000E+01 0.  1.
         -4   -1    0    0    0  501 -0.00000000000E+00 -0.00000000000E+00 -0.68992839755E+01  0.70151991686E+01  0.12700000000E+01 0.  1.
         25    2    1    2    0    0  0.00000000000E+00  0.00000000000E+00  0.55444529639E+03  0.56836121617E+03  0.12499954144E+03 0.  0.
    9000005    1    3    3    0    0 -0.62105390136E+02  0.36866519903E+01  0.25049609900E+03  0.25810843943E+03  0.10000000000E+01 0.  0.
    9000005    1    3    3    0    0  0.62105390136E+02 -0.36866519903E+01  0.30394919738E+03  0.31025277674E+03  0.10000000000E+01 0.  0.
<mgrwt>
<rscale>  0 0.12499954E+03</rscale>
<asrwt>0</asrwt>
<pdfrwt beam="1">  1        4 0.86369720E-01 0.12499954E+03</pdfrwt>
<pdfrwt beam="2">  1       -4 0.10704555E-02 0.12499954E+03</pdfrwt>
<totfact> 0.50928165E+03</totfact>
</mgrwt>
</event>
<event>
 5    1  0.3251953E-002  0.1250000E+03  0.7818608E-02  0.1235069E+00
         -4   -1    0    0    0  501 -0.00000000000E+00  0.00000000000E+00  0.28346397360E+03  0.28346681857E+03  0.12700000000E+01 0.  1.
          4   -1    0    0  501    0  0.00000000000E+00 -0.00000000000E+00 -0.13748219162E+02  0.13806753062E+02  0.12700000000E+01 0.  1.
         25    2    1    2    0    0  0.00000000000E+00  0.00000000000E+00  0.26971575444E+03  0.29727357163E+03  0.12499995279E+03 0.  0.
    9000005    1    3    3    0    0 -0.46050320843E+02 -0.29279638945E+02  0.62437507642E+02  0.82929920216E+02  0.10000000000E+01 0.  0.
    9000005    1    3    3    0    0  0.46050320843E+02  0.29279638945E+02  0.20727824680E+03  0.21434365141E+03  0.10000000000E+01 0.  0.
<mgrwt>
<rscale>  0 0.12499995E+03</rscale>
<asrwt>0</asrwt>
<pdfrwt beam="2">  1        4 0.21198322E-02 0.12499995E+03</pdfrwt>
<pdfrwt beam="1">  1       -4 0.43614561E-01 0.12499995E+03</pdfrwt>
<totfact> 0.75942194E+03</totfact>
</mgrwt>
</event>
<event>
 5    1  0.3251953E-002  0.1249995E+03  0.7818608E-02  0.1235070E+00
         -4   -1    0    0    0  501 -0.00000000000E+00  0.00000000000E+00  0.27903618376E+02  0.27932504694E+02  0.12700000000E+01 0. -1.
          4   -1    0    0  501    0  0.00000000000E+00 -0.00000000000E+00 -0.13988541206E+03  0.13989117701E+03  0.12700000000E+01 0. -1.
         25    2    1    2    0    0  0.00000000000E+00  0.00000000000E+00 -0.11198179368E+03  0.16782368171E+03  0.12499946410E+03 0.  0.
    9000005    1    3    3    0    0 -0.51199353863E+02 -0.22303218076E+02 -0.18340516496E+02  0.58789301050E+02  0.10000000000E+01 0.  0.
    9000005    1    3    3    0    0  0.51199353863E+02  0.22303218076E+02 -0.93641277185E+02  0.10903438066E+03  0.10000000000E+01 0.  0.
<mgrwt>
<rscale>  0 0.12499946E+03</rscale>
<asrwt>0</asrwt>
<pdfrwt beam="2">  1        4 0.21523498E-01 0.12499946E+03</pdfrwt>
<pdfrwt beam="1">  1       -4 0.42955300E-02 0.12499946E+03</pdfrwt>
<totfact> 0.95856442E+03</totfact>
</mgrwt>
</event>
<event>
 5    1  0.3251953E-002  0.1249996E+03  0.7818608E-02  0.1235070E+00
          4   -1    0    0  501    0  0.00000000000E+00  0.00000000000E+00  0.38013523648E+02  0.38034732550E+02  0.12700000000E+01 0. -1.
         -4   -1    0    0    0  501 -0.00000000000E+00 -0.00000000000E+00 -0.10270504614E+03  0.10271289794E+03  0.12700000000E+01 0. -1.
         25    2    1    2    0    0  0.00000000000E+00  0.00000000000E+00 -0.64691522495E+02  0.14074763049E+03  0.12499960962E+03 0.  0.
    9000005    1    3    3    0    0  0.21519999060E+02  0.76791140366E+01 -0.97838452112E+02  0.10047607608E+03  0.10000000000E+01 0.  0.
    9000005    1    3    3    0    0 -0.21519999060E+02 -0.76791140366E+01  0.33146929617E+02  0.40271554414E+02  0.10000000000E+01 0.  0.
<mgrwt>
<rscale>  0 0.12499961E+03</rscale>
<asrwt>0</asrwt>
<pdfrwt beam="1">  1        4 0.58504699E-02 0.12499961E+03</pdfrwt>
<pdfrwt beam="2">  1       -4 0.15803012E-01 0.12499961E+03</pdfrwt>
<totfact> 0.10118203E+04</totfact>
</mgrwt>
</event>
<event>
 5    1  0.3251953E-002  0.1250013E+03  0.7818608E-02  0.1235067E+00
          4   -1    0    0  501    0  0.00000000000E+00  0.00000000000E+00  0.11382616282E+03  0.11383324753E+03  0.12700000000E+01 0. -1.
         -4   -1    0    0    0  501 -0.00000000000E+00 -0.00000000000E+00 -0.34298501657E+02  0.34322006293E+02  0.12700000000E+01 0. -1.
         25    2    1    2    0    0  0.00000000000E+00  0.00000000000E+00  0.79527661163E+02  0.14815525382E+03  0.12500132137E+03 0.  0.
    9000005    1    3    3    0    0  0.57739270686E+02 -0.21088318941E+02  0.26417914249E+02  0.66913726307E+02  0.10000000000E+01 0.  0.
    9000005    1    3    3    0    0 -0.57739270686E+02  0.21088318941E+02  0.53109746914E+02  0.81241527511E+02  0.10000000000E+01 0.  0.
<mgrwt>
<rscale>  0 0.12500132E+03</rscale>
<asrwt>0</asrwt>
<pdfrwt beam="1">  1        4 0.17514071E-01 0.12500132E+03</pdfrwt>
<pdfrwt beam="2">  1       -4 0.52790455E-02 0.12500132E+03</pdfrwt>
<totfact> 0.99669734E+03</totfact>
</mgrwt>
</event>
<event>
 5    1  0.3251953E-002  0.1249991E+03  0.7818608E-02  0.1235071E+00
          4   -1    0    0  501    0  0.00000000000E+00  0.00000000000E+00  0.45784755561E+03  0.45784931700E+03  0.12700000000E+01 0.  1.
         -4   -1    0    0    0  501 -0.00000000000E+00 -0.00000000000E+00 -0.84825903069E+01  0.85771346215E+01  0.12700000000E+01 0.  1.
         25    2    1    2    0    0  0.00000000000E+00  0.00000000000E+00  0.44936496530E+03  0.46642645162E+03  0.12499905092E+03 0.  0.
    9000005    1    3    3    0    0 -0.45551156676E+02 -0.11303007609E+02  0.37864789986E+03  0.38154671788E+03  0.10000000000E+01 0.  0.
    9000005    1    3    3    0    0  0.45551156676E+02  0.11303007609E+02  0.70717065444E+02  0.84879733744E+02  0.10000000000E+01 0.  0.
<mgrwt>
<rscale>  0 0.12499905E+03</rscale>
<asrwt>0</asrwt>
<pdfrwt beam="1">  1        4 0.70445509E-01 0.12499905E+03</pdfrwt>
<pdfrwt beam="2">  1       -4 0.13124217E-02 0.12499905E+03</pdfrwt>
<totfact> 0.58567938E+03</totfact>
</mgrwt>
</event>
<event>
 5    1  0.3251953E-002  0.1249982E+03  0.7818608E-02  0.1235072E+00
          4   -1    0    0  501    0  0.00000000000E+00  0.00000000000E+00  0.70113407239E+02  0.70124908375E+02  0.12700000000E+01 0.  1.
         -4   -1    0    0    0  501 -0.00000000000E+00 -0.00000000000E+00 -0.55688421528E+02  0.55702901112E+02  0.12700000000E+01 0.  1.
         25    2    1    2    0    0  0.00000000000E+00  0.00000000000E+00  0.14424985710E+02  0.12582780949E+03  0.12499822970E+03 0.  0.
    9000005    1    3    3    0    0  0.41572666987E+02  0.19752643561E+01 -0.39711800920E+02  0.57534471771E+02  0.10000000000E+01 0.  0.
    9000005    1    3    3    0    0 -0.41572666987E+02 -0.19752643561E+01  0.54136786630E+02  0.68293337716E+02  0.10000000000E+01 0.  0.
<mgrwt>
<rscale>  0 0.12499823E+03</rscale>
<asrwt>0</asrwt>
<pdfrwt beam="1">  1        4 0.10788676E-01 0.12499823E+03</pdfrwt>
<pdfrwt beam="2">  1       -4 0.85694480E-02 0.12499823E+03</pdfrwt>
<totfact> 0.10435151E+04</totfact>
</mgrwt>
</event>
<event>
 5    1  0.3251953E-002  0.1249978E+03  0.7818608E-02  0.1235073E+00
         -4   -1    0    0    0  501 -0.00000000000E+00  0.00000000000E+00  0.11663490126E+03  0.11664181536E+03  0.12700000000E+01 0.  1.
          4   -1    0    0  501    0  0.00000000000E+00 -0.00000000000E+00 -0.33470118819E+02  0.33494204779E+02  0.12700000000E+01 0.  1.
         25    2    1    2    0    0  0.00000000000E+00  0.00000000000E+00  0.83164782436E+02  0.15013602014E+03  0.12499777400E+03 0.  0.
    9000005    1    3    3    0    0 -0.48655863649E+02 -0.33011960246E+02  0.67003053806E+02  0.89149266997E+02  0.10000000000E+01 0.  0.
    9000005    1    3    3    0    0  0.48655863649E+02  0.33011960246E+02  0.16161728630E+02  0.60986753144E+02  0.10000000000E+01 0.  0.
<mgrwt>
<rscale>  0 0.12499777E+03</rscale>
<asrwt>0</asrwt>
<pdfrwt beam="2">  1        4 0.51516337E-02 0.12499777E+03</pdfrwt>
<pdfrwt beam="1">  1       -4 0.17946216E-01 0.12499777E+03</pdfrwt>
<totfact> 0.99281565E+03</totfact>
</mgrwt>
</event>
<event>
 5    1  0.3251953E-002  0.1249930E+03  0.7818608E-02  0.1235080E+00
         -4   -1    0    0    0  501 -0.00000000000E+00  0.00000000000E+00  0.98240455284E+02  0.98248663882E+02  0.12700000000E+01 0. -1.
          4   -1    0    0  501    0  0.00000000000E+00 -0.00000000000E+00 -0.39737646118E+02  0.39757935296E+02  0.12700000000E+01 0. -1.
         25    2    1    2    0    0  0.00000000000E+00  0.00000000000E+00  0.58502809166E+02  0.13800659918E+03  0.12499297075E+03 0.  0.
    9000005    1    3    3    0    0 -0.56608550982E+01  0.32066287191E+02 -0.29635490359E+02  0.44040371745E+02  0.10000000000E+01 0.  0.
    9000005    1    3    3    0    0  0.56608550982E+01 -0.32066287191E+02  0.88138299525E+02  0.93966227432E+02  0.10000000000E+01 0.  0.
<mgrwt>
<rscale>  0 0.12499297E+03</rscale>
<asrwt>0</asrwt>
<pdfrwt beam="2">  1        4 0.61156761E-02 0.12499297E+03</pdfrwt>
<pdfrwt beam="1">  1       -4 0.15116108E-01 0.12499297E+03</pdfrwt>
<totfact> 0.10176680E+04</totfact>
</mgrwt>
</event>
<event>
 5    1  0.3251953E-002  0.1250014E+03  0.7818608E-02  0.1235067E+00
         -4   -1    0    0    0  501 -0.00000000000E+00  0.00000000000E+00  0.14434966380E+03  0.14435525047E+03  0.12700000000E+01 0. -1.
          4   -1    0    0  501    0  0.00000000000E+00 -0.00000000000E+00 -0.27040606252E+02  0.27070413489E+02  0.12700000000E+01 0. -1.
         25    2    1    2    0    0  0.00000000000E+00  0.00000000000E+00  0.11730905755E+03  0.17142566396E+03  0.12500137312E+03 0.  0.
    9000005    1    3    3    0    0  0.51799117698E+02 -0.48981180179E+01  0.11183906062E+02  0.53227999297E+02  0.10000000000E+01 0.  0.
    9000005    1    3    3    0    0 -0.51799117698E+02  0.48981180179E+01  0.10612515148E+03  0.11819766466E+03  0.10000000000E+01 0.  0.
<mgrwt>
<rscale>  0 0.12500137E+03</rscale>
<asrwt>0</asrwt>
<pdfrwt beam="2">  1        4 0.41628159E-02 0.12500137E+03</pdfrwt>
<pdfrwt beam="1">  1       -4 0.22210363E-01 0.12500137E+03</pdfrwt>
<totfact> 0.95180645E+03</totfact>
</mgrwt>
</event>
<event>
 5    1  0.3251953E-002  0.1249964E+03  0.7818608E-02  0.1235075E+00
         -4   -1    0    0    0  501 -0.00000000000E+00  0.00000000000E+00  0.43470318528E+03  0.43470504045E+03  0.12700000000E+01 0. -1.
          4   -1    0    0  501    0  0.00000000000E+00 -0.00000000000E+00 -0.89387361685E+01  0.90285050972E+01  0.12700000000E+01 0. -1.
         25    2    1    2    0    0  0.00000000000E+00  0.00000000000E+00  0.42576444911E+03  0.44373354555E+03  0.12499637321E+03 0.  0.
    9000005    1    3    3    0    0 -0.23565426318E+02  0.24343538066E+02  0.39928398919E+03  0.40072015320E+03  0.10000000000E+01 0.  0.
    9000005    1    3    3    0    0  0.23565426318E+02 -0.24343538066E+02  0.26480459928E+02  0.43013392346E+02  0.10000000000E+01 0.  0.
<mgrwt>
<rscale>  0 0.12499637E+03</rscale>
<asrwt>0</asrwt>
<pdfrwt beam="2">  1        4 0.13822383E-02 0.12499637E+03</pdfrwt>
<pdfrwt beam="1">  1       -4 0.66884457E-01 0.12499637E+03</pdfrwt>
<totfact> 0.60515364E+03</totfact>
</mgrwt>
</event>
<event>
 5    1  0.3251953E-002  0.1249997E+03  0.7818608E-02  0.1235070E+00
          4   -1    0    0  501    0  0.00000000000E+00  0.00000000000E+00  0.27109306827E+03  0.27109604306E+03  0.12700000000E+01 0.  1.
         -4   -1    0    0    0  501 -0.00000000000E+00 -0.00000000000E+00 -0.14378141589E+02  0.14434121226E+02  0.12700000000E+01 0.  1.
         25    2    1    2    0    0  0.00000000000E+00  0.00000000000E+00  0.25671492668E+03  0.28553016429E+03  0.12499968455E+03 0.  0.
    9000005    1    3    3    0    0  0.41733959226E+02 -0.43710127919E+02  0.16468572909E+03  0.17542715868E+03  0.10000000000E+01 0.  0.
    9000005    1    3    3    0    0 -0.41733959226E+02  0.43710127919E+02  0.92029197588E+02  0.11010300561E+03  0.10000000000E+01 0.  0.
<mgrwt>
<rscale>  0 0.12499968E+03</rscale>
<asrwt>0</asrwt>
<pdfrwt beam="1">  1        4 0.41711160E-01 0.12499968E+03</pdfrwt>
<pdfrwt beam="2">  1       -4 0.22165568E-02 0.12499968E+03</pdfrwt>
<totfact> 0.77451056E+03</totfact>
</mgrwt>
</event>
<event>
 5    1  0.3251953E-002  0.1249995E+03  0.7818608E-02  0.1235070E+00
         -4   -1    0    0    0  501 -0.00000000000E+00  0.00000000000E+00  0.29201725740E+02  0.29229329212E+02  0.12700000000E+01 0.  1.
          4   -1    0    0  501    0  0.00000000000E+00 -0.00000000000E+00 -0.13367283777E+03  0.13367887064E+03  0.12700000000E+01 0.  1.
         25    2    1    2    0    0  0.00000000000E+00  0.00000000000E+00 -0.10447111203E+03  0.16290819985E+03  0.12499947333E+03 0.  0.
    9000005    1    3    3    0    0 -0.42523166921E+02  0.12938175792E+02  0.50135244513E+01  0.44740938135E+02  0.10000000000E+01 0.  0.
    9000005    1    3    3    0    0  0.42523166921E+02 -0.12938175792E+02 -0.10948463648E+03  0.11816726172E+03  0.10000000000E+01 0.  0.
<mgrwt>
<rscale>  0 0.12499947E+03</rscale>
<asrwt>0</asrwt>
<pdfrwt beam="2">  1        4 0.20567639E-01 0.12499947E+03</pdfrwt>
<pdfrwt beam="1">  1       -4 0.44951607E-02 0.12499947E+03</pdfrwt>
<totfact> 0.96786164E+03</totfact>
</mgrwt>
</event>
<event>
 5    1  0.3251953E-002  0.1249954E+03  0.7818608E-02  0.1235076E+00
         -4   -1    0    0    0  501 -0.00000000000E+00  0.00000000000E+00  0.10124111271E+03  0.10124907804E+03  0.12700000000E+01 0.  1.
          4   -1    0    0  501    0  0.00000000000E+00 -0.00000000000E+00 -0.38560887359E+02  0.38581795369E+02  0.12700000000E+01 0.  1.
         25    2    1    2    0    0  0.00000000000E+00  0.00000000000E+00  0.62680225353E+02  0.13983087340E+03  0.12499544994E+03 0.  0.
    9000005    1    3    3    0    0  0.25959398425E+02 -0.47752790854E+02  0.65833923017E+02  0.85377542836E+02  0.10000000000E+01 0.  0.
    9000005    1    3    3    0    0 -0.25959398425E+02  0.47752790854E+02 -0.31536976640E+01  0.54453330568E+02  0.10000000000E+01 0.  0.
<mgrwt>
<rscale>  0 0.12499545E+03</rscale>
<asrwt>0</asrwt>
<pdfrwt beam="2">  1        4 0.59346653E-02 0.12499545E+03</pdfrwt>
<pdfrwt beam="1">  1       -4 0.15577777E-01 0.12499545E+03</pdfrwt>
<totfact> 0.10138131E+04</totfact>
</mgrwt>
</event>
<event>
 5    1  0.3251953E-002  0.1250014E+03  0.7818608E-02  0.1235067E+00
         -4   -1    0    0    0  501 -0.00000000000E+00  0.00000000000E+00  0.11117253646E+01  0.16878487155E+01  0.12700000000E+01 0.  1.
          4   -1    0    0  501    0  0.00000000000E+00 -0.00000000000E+00 -0.27900880274E+04  0.27900883164E+04  0.12700000000E+01 0.  1.
         25    2    1    2    0    0  0.00000000000E+00  0.00000000000E+00 -0.27889763020E+04  0.27917761651E+04  0.12500137208E+03 0.  0.
    9000005    1    3    3    0    0 -0.41879631514E+02  0.43069689857E+02 -0.10099584875E+04  0.10117440626E+04  0.10000000000E+01 0.  0.
    9000005    1    3    3    0    0  0.41879631514E+02 -0.43069689857E+02 -0.17790178145E+04  0.17800321025E+04  0.10000000000E+01 0.  0.
<mgrwt>
<rscale>  0 0.12500137E+03</rscale>
<asrwt>0</asrwt>
<pdfrwt beam="2">  1        4 0.42928420E+00 0.12500137E+03</pdfrwt>
<pdfrwt beam="1">  1       -4 0.21537632E-03 0.12500137E+03</pdfrwt>
<totfact> 0.27611594E+02</totfact>
</mgrwt>
</event>
<event>
 5    1  0.3251953E-002  0.1249990E+03  0.7818608E-02  0.1235071E+00
          4   -1    0    0  501    0  0.00000000000E+00  0.00000000000E+00  0.17415417150E+02  0.17461662421E+02  0.12700000000E+01 0.  1.
         -4   -1    0    0    0  501 -0.00000000000E+00 -0.00000000000E+00 -0.22394935491E+03  0.22395295592E+03  0.12700000000E+01 0.  1.
         25    2    1    2    0    0  0.00000000000E+00  0.00000000000E+00 -0.20653393776E+03  0.24141461834E+03  0.12499900200E+03 0.  0.
    9000005    1    3    3    0    0  0.47103300701E+01 -0.12301346875E+02 -0.22124714984E+03  0.22164117771E+03  0.10000000000E+01 0.  0.
    9000005    1    3    3    0    0 -0.47103300701E+01  0.12301346875E+02  0.14713212084E+02  0.19773440625E+02  0.10000000000E+01 0.  0.
<mgrwt>
<rscale>  0 0.12499900E+03</rscale>
<asrwt>0</asrwt>
<pdfrwt beam="1">  1        4 0.26831294E-02 0.12499900E+03</pdfrwt>
<pdfrwt beam="2">  1       -4 0.34457579E-01 0.12499900E+03</pdfrwt>
<totfact> 0.83588996E+03</totfact>
</mgrwt>
</event>
<event>
 5    1  0.3251953E-002  0.1250020E+03  0.7818608E-02  0.1235066E+00
          4   -1    0    0  501    0  0.00000000000E+00  0.00000000000E+00  0.12458922048E+03  0.12459569319E+03  0.12700000000E+01 0. -1.
         -4   -1    0    0    0  501 -0.00000000000E+00 -0.00000000000E+00 -0.31333891538E+02  0.31359618284E+02  0.12700000000E+01 0. -1.
         25    2    1    2    0    0  0.00000000000E+00  0.00000000000E+00  0.93255328944E+02  0.15595531147E+03  0.12500201118E+03 0.  0.
    9000005    1    3    3    0    0 -0.51890324281E+02  0.24187073542E+02  0.77886903770E+02  0.96669488772E+02  0.10000000000E+01 0.  0.
    9000005    1    3    3    0    0  0.51890324281E+02 -0.24187073542E+02  0.15368425174E+02  0.59285822697E+02  0.10000000000E+01 0.  0.
<mgrwt>
<rscale>  0 0.12500201E+03</rscale>
<asrwt>0</asrwt>
<pdfrwt beam="1">  1        4 0.19170049E-01 0.12500201E+03</pdfrwt>
<pdfrwt beam="2">  1       -4 0.48230757E-02 0.12500201E+03</pdfrwt>
<totfact> 0.98123847E+03</totfact>
</mgrwt>
</event>
<event>
 5    1  0.3251953E-002  0.1250175E+03  0.7818608E-02  0.1235042E+00
          4   -1    0    0  501    0  0.00000000000E+00  0.00000000000E+00  0.43088373761E+03  0.43088560923E+03  0.12700000000E+01 0.  1.
         -4   -1    0    0    0  501 -0.00000000000E+00 -0.00000000000E+00 -0.90218394199E+01  0.91107895661E+01  0.12700000000E+01 0.  1.
         25    2    1    2    0    0  0.00000000000E+00  0.00000000000E+00  0.42186189819E+03  0.43999639879E+03  0.12501747800E+03 0.  0.
    9000005    1    3    3    0    0  0.43094304391E+02 -0.40901801841E+02  0.27920031495E+03  0.28545383573E+03  0.10000000000E+01 0.  0.
    9000005    1    3    3    0    0 -0.43094304391E+02  0.40901801841E+02  0.14266158324E+03  0.15454256306E+03  0.10000000000E+01 0.  0.
<mgrwt>
<rscale>  0 0.12501748E+03</rscale>
<asrwt>0</asrwt>
<pdfrwt beam="1">  1        4 0.66296798E-01 0.12501748E+03</pdfrwt>
<pdfrwt beam="2">  1       -4 0.13949615E-02 0.12501748E+03</pdfrwt>
<totfact> 0.60816779E+03</totfact>
</mgrwt>
</event>
<event>
 5    1  0.3251953E-002  0.1249988E+03  0.7818608E-02  0.1235071E+00
          4   -1    0    0  501    0  0.00000000000E+00  0.00000000000E+00  0.53438828857E+02  0.53453917814E+02  0.12700000000E+01 0. -1.
         -4   -1    0    0    0  501 -0.00000000000E+00 -0.00000000000E+00 -0.73065283106E+02  0.73076319662E+02  0.12700000000E+01 0. -1.
         25    2    1    2    0    0  0.00000000000E+00  0.00000000000E+00 -0.19626454249E+02  0.12653023748E+03  0.12499881315E+03 0.  0.
    9000005    1    3    3    0    0  0.20832808495E+02 -0.55938054452E+02  0.89094304734E+01  0.60360995660E+02  0.10000000000E+01 0.  0.
    9000005    1    3    3    0    0 -0.20832808495E+02  0.55938054452E+02 -0.28535884723E+02  0.66169241816E+02  0.10000000000E+01 0.  0.
<mgrwt>
<rscale>  0 0.12499881E+03</rscale>
<asrwt>0</asrwt>
<pdfrwt beam="1">  1        4 0.82233679E-02 0.12499881E+03</pdfrwt>
<pdfrwt beam="2">  1       -4 0.11242822E-01 0.12499881E+03</pdfrwt>
<totfact> 0.10419648E+04</totfact>
</mgrwt>
</event>
<event>
 5    1  0.3251953E-002  0.1250002E+03  0.7818608E-02  0.1235069E+00
          4   -1    0    0  501    0  0.00000000000E+00  0.00000000000E+00  0.65306568060E+01  0.66529976941E+01  0.12700000000E+01 0.  1.
         -4   -1    0    0    0  501 -0.00000000000E+00 -0.00000000000E+00 -0.59246910178E+03  0.59247046295E+03  0.12700000000E+01 0.  1.
         25    2    1    2    0    0  0.00000000000E+00  0.00000000000E+00 -0.58593844498E+03  0.59912346064E+03  0.12500023917E+03 0.  0.
    9000005    1    3    3    0    0 -0.13012874441E+02  0.34667473881E+02 -0.51691602796E+02  0.63593949761E+02  0.10000000000E+01 0.  0.
    9000005    1    3    3    0    0  0.13012874441E+02 -0.34667473881E+02 -0.53424684218E+03  0.53552951088E+03  0.10000000000E+01 0.  0.
<mgrwt>
<rscale>  0 0.12500024E+03</rscale>
<asrwt>0</asrwt>
<pdfrwt beam="1">  1        4 0.10142324E-02 0.12500024E+03</pdfrwt>
<pdfrwt beam="2">  1       -4 0.91158566E-01 0.12500024E+03</pdfrwt>
<totfact> 0.48922747E+03</totfact>
</mgrwt>
</event>
<event>
 5    1  0.3251953E-002  0.1249852E+03  0.7818608E-02  0.1235092E+00
          4   -1    0    0  501    0  0.00000000000E+00  0.00000000000E+00  0.76294201461E+02  0.76304770995E+02  0.12700000000E+01 0. -1.
         -4   -1    0    0    0  501 -0.00000000000E+00 -0.00000000000E+00 -0.51165744589E+02  0.51181503684E+02  0.12700000000E+01 0. -1.
         25    2    1    2    0    0  0.00000000000E+00  0.00000000000E+00  0.25128456872E+02  0.12748627468E+03  0.12498524268E+03 0.  0.
    9000005    1    3    3    0    0 -0.11799072341E+02 -0.58592025358E+02  0.31152062425E+02  0.67406932410E+02  0.10000000000E+01 0.  0.
    9000005    1    3    3    0    0  0.11799072341E+02  0.58592025358E+02 -0.60236055522E+01  0.60079342269E+02  0.10000000000E+01 0.  0.
<mgrwt>
<rscale>  0 0.12498524E+03</rscale>
<asrwt>0</asrwt>
<pdfrwt beam="1">  1        4 0.11739595E-01 0.12498524E+03</pdfrwt>
<pdfrwt beam="2">  1       -4 0.78736783E-02 0.12498524E+03</pdfrwt>
<totfact> 0.10402063E+04</totfact>
</mgrwt>
</event>
<event>
 5    1  0.3251953E-002  0.1249978E+03  0.7818608E-02  0.1235073E+00
         -4   -1    0    0    0  501 -0.00000000000E+00  0.00000000000E+00  0.99878703234E+01  0.10068289507E+02  0.12700000000E+01 0.  1.
          4   -1    0    0  501    0  0.00000000000E+00 -0.00000000000E+00 -0.38943614808E+03  0.38943821889E+03  0.12700000000E+01 0.  1.
         25    2    1    2    0    0  0.00000000000E+00  0.00000000000E+00 -0.37944827776E+03  0.39950650840E+03  0.12499781901E+03 0.  0.
    9000005    1    3    3    0    0  0.11255328977E+01 -0.56794866164E+02 -0.27295744162E+03  0.27880761930E+03  0.10000000000E+01 0.  0.
    9000005    1    3    3    0    0 -0.11255328977E+01  0.56794866164E+02 -0.10649083614E+03  0.12069888910E+03  0.10000000000E+01 0.  0.
<mgrwt>
<rscale>  0 0.12499782E+03</rscale>
<asrwt>0</asrwt>
<pdfrwt beam="2">  1        4 0.59919587E-01 0.12499782E+03</pdfrwt>
<pdfrwt beam="1">  1       -4 0.15429411E-02 0.12499782E+03</pdfrwt>
<totfact> 0.64603930E+03</totfact>
</mgrwt>
</event>
<event>
 5    1  0.3251953E-002  0.1250037E+03  0.7818608E-02  0.1235064E+00
         -4   -1    0    0    0  501 -0.00000000000E+00  0.00000000000E+00  0.89061139820E+02  0.89070194375E+02  0.12700000000E+01 0. -1.
          4   -1    0    0  501    0  0.00000000000E+00 -0.00000000000E+00 -0.43842407344E+02  0.43860797778E+02  0.12700000000E+01 0. -1.
         25    2    1    2    0    0  0.00000000000E+00  0.00000000000E+00  0.45218732476E+02  0.13293099215E+03  0.12500365958E+03 0.  0.
    9000005    1    3    3    0    0 -0.35702262276E+01  0.61106029818E+02  0.36009486894E+02  0.71023774483E+02  0.10000000000E+01 0.  0.
    9000005    1    3    3    0    0  0.35702262276E+01 -0.61106029818E+02  0.92092455815E+01  0.61907217670E+02  0.10000000000E+01 0.  0.
<mgrwt>
<rscale>  0 0.12500366E+03</rscale>
<asrwt>0</asrwt>
<pdfrwt beam="2">  1        4 0.67470970E-02 0.12500366E+03</pdfrwt>
<pdfrwt beam="1">  1       -4 0.13703825E-01 0.12500366E+03</pdfrwt>
<totfact> 0.10281018E+04</totfact>
</mgrwt>
</event>
<event>
 5    1  0.3251953E-002  0.1249990E+03  0.7818608E-02  0.1235071E+00
         -4   -1    0    0    0  501 -0.00000000000E+00  0.00000000000E+00  0.16310061870E+03  0.16310556312E+03  0.12700000000E+01 0. -1.
          4   -1    0    0  501    0  0.00000000000E+00 -0.00000000000E+00 -0.23927394144E+02  0.23961074486E+02  0.12700000000E+01 0. -1.
         25    2    1    2    0    0  0.00000000000E+00  0.00000000000E+00  0.13917322456E+03  0.18706663761E+03  0.12499896188E+03 0.  0.
    9000005    1    3    3    0    0 -0.36057765856E+02  0.48273896962E+02  0.94388372922E+02  0.11198525148E+03  0.10000000000E+01 0.  0.
    9000005    1    3    3    0    0  0.36057765856E+02 -0.48273896962E+02  0.44784851634E+02  0.75081386124E+02  0.10000000000E+01 0.  0.
<mgrwt>
<rscale>  0 0.12499896E+03</rscale>
<asrwt>0</asrwt>
<pdfrwt beam="2">  1        4 0.36841088E-02 0.12499896E+03</pdfrwt>
<pdfrwt beam="1">  1       -4 0.25095373E-01 0.12499896E+03</pdfrwt>
<totfact> 0.92362378E+03</totfact>
</mgrwt>
</event>
<event>
 5    1  0.3251953E-002  0.1249931E+03  0.7818608E-02  0.1235080E+00
          4   -1    0    0  501    0  0.00000000000E+00  0.00000000000E+00  0.47860979641E+02  0.47877826519E+02  0.12700000000E+01 0. -1.
         -4   -1    0    0    0  501 -0.00000000000E+00 -0.00000000000E+00 -0.81571468192E+02  0.81581354016E+02  0.12700000000E+01 0. -1.
         25    2    1    2    0    0  0.00000000000E+00  0.00000000000E+00 -0.33710488551E+02  0.12945918053E+03  0.12499312936E+03 0.  0.
    9000005    1    3    3    0    0  0.12474999461E+02  0.56672329532E+02 -0.40866370679E+02  0.70981961079E+02  0.10000000000E+01 0.  0.
    9000005    1    3    3    0    0 -0.12474999461E+02 -0.56672329532E+02  0.71558821278E+01  0.58477219455E+02  0.10000000000E+01 0.  0.
<mgrwt>
<rscale>  0 0.12499313E+03</rscale>
<asrwt>0</asrwt>
<pdfrwt beam="1">  1        4 0.73652840E-02 0.12499313E+03</pdfrwt>
<pdfrwt beam="2">  1       -4 0.12551513E-01 0.12499313E+03</pdfrwt>
<totfact> 0.10357697E+04</totfact>
</mgrwt>
</event>
<event>
 5    1  0.3251953E-002  0.1250037E+03  0.7818608E-02  0.1235064E+00
         -4   -1    0    0    0  501 -0.00000000000E+00  0.00000000000E+00  0.13406118018E+03  0.13406719558E+03  0.12700000000E+01 0. -1.
          4   -1    0    0  501    0  0.00000000000E+00 -0.00000000000E+00 -0.29119013635E+02  0.29146695440E+02  0.12700000000E+01 0. -1.
         25    2    1    2    0    0  0.00000000000E+00  0.00000000000E+00  0.10494216654E+03  0.16321389102E+03  0.12500366356E+03 0.  0.
    9000005    1    3    3    0    0  0.32571742286E+02 -0.42008842323E+01 -0.16949875968E+02  0.36971125479E+02  0.10000000000E+01 0.  0.
    9000005    1    3    3    0    0 -0.32571742286E+02  0.42008842323E+01  0.12189204251E+03  0.12624276554E+03  0.10000000000E+01 0.  0.
<mgrwt>
<rscale>  0 0.12500366E+03</rscale>
<asrwt>0</asrwt>
<pdfrwt beam="2">  1        4 0.44824404E-02 0.12500366E+03</pdfrwt>
<pdfrwt beam="1">  1       -4 0.20627389E-01 0.12500366E+03</pdfrwt>
<totfact> 0.96718764E+03</totfact>
</mgrwt>
</event>
<event>
 5    1  0.3251953E-002  0.1249972E+03  0.7818608E-02  0.1235074E+00
          4   -1    0    0  501    0  0.00000000000E+00  0.00000000000E+00  0.46161079719E+02  0.46178546760E+02  0.12700000000E+01 0. -1.
         -4   -1    0    0    0  501 -0.00000000000E+00 -0.00000000000E+00 -0.84580060891E+02  0.84589595106E+02  0.12700000000E+01 0. -1.
         25    2    1    2    0    0  0.00000000000E+00  0.00000000000E+00 -0.38418981171E+02  0.13076814187E+03  0.12499715522E+03 0.  0.
    9000005    1    3    3    0    0 -0.24850204910E+01  0.54831581479E+02 -0.50461667779E+02  0.74565793561E+02  0.10000000000E+01 0.  0.
    9000005    1    3    3    0    0  0.24850204910E+01 -0.54831581479E+02  0.12042686608E+02  0.56202348306E+02  0.10000000000E+01 0.  0.
<mgrwt>
<rscale>  0 0.12499716E+03</rscale>
<asrwt>0</asrwt>
<pdfrwt beam="1">  1        4 0.71037816E-02 0.12499716E+03</pdfrwt>
<pdfrwt beam="2">  1       -4 0.13014394E-01 0.12499716E+03</pdfrwt>
<totfact> 0.10328725E+04</totfact>
</mgrwt>
</event>
<event>
 5    1  0.3251953E-002  0.1250024E+03  0.7818608E-02  0.1235065E+00
          4   -1    0    0  501    0  0.00000000000E+00  0.00000000000E+00  0.21473909610E+02  0.21511431703E+02  0.12700000000E+01 0.  1.
         -4   -1    0    0    0  501 -0.00000000000E+00 -0.00000000000E+00 -0.18171534381E+03  0.18171978174E+03  0.12700000000E+01 0.  1.
         25    2    1    2    0    0  0.00000000000E+00  0.00000000000E+00 -0.16024143420E+03  0.20323121344E+03  0.12500243551E+03 0.  0.
    9000005    1    3    3    0    0  0.16673298203E+02 -0.10154106274E+02 -0.17663869502E+03  0.17771700348E+03  0.10000000000E+01 0.  0.
    9000005    1    3    3    0    0 -0.16673298203E+02  0.10154106274E+02  0.16397260827E+02  0.25514209958E+02  0.10000000000E+01 0.  0.
<mgrwt>
<rscale>  0 0.12500244E+03</rscale>
<asrwt>0</asrwt>
<pdfrwt beam="1">  1        4 0.33069062E-02 0.12500244E+03</pdfrwt>
<pdfrwt beam="2">  1       -4 0.27959433E-01 0.12500244E+03</pdfrwt>
<totfact> 0.89588502E+03</totfact>
</mgrwt>
</event>
<event>
 5    1  0.3251953E-002  0.1250036E+03  0.7818608E-02  0.1235064E+00
         -4   -1    0    0    0  501 -0.00000000000E+00  0.00000000000E+00  0.34758562859E+03  0.34758794873E+03  0.12700000000E+01 0.  1.
          4   -1    0    0  501    0  0.00000000000E+00 -0.00000000000E+00 -0.11200649247E+02  0.11272419596E+02  0.12700000000E+01 0.  1.
         25    2    1    2    0    0  0.00000000000E+00  0.00000000000E+00  0.33638497935E+03  0.35886036833E+03  0.12500363846E+03 0.  0.
    9000005    1    3    3    0    0  0.61484637884E+02  0.10942692761E+02  0.16153731895E+03  0.17319182612E+03  0.10000000000E+01 0.  0.
    9000005    1    3    3    0    0 -0.61484637884E+02 -0.10942692761E+02  0.17484766039E+03  0.18566854221E+03  0.10000000000E+01 0.  0.
<mgrwt>
<rscale>  0 0.12500364E+03</rscale>
<asrwt>0</asrwt>
<pdfrwt beam="2">  1        4 0.17288760E-02 0.12500364E+03</pdfrwt>
<pdfrwt beam="1">  1       -4 0.53480414E-01 0.12500364E+03</pdfrwt>
<totfact> 0.68755144E+03</totfact>
</mgrwt>
</event>
<event>
 5    1  0.3251953E-002  0.1249878E+03  0.7818608E-02  0.1235088E+00
          4   -1    0    0  501    0  0.00000000000E+00  0.00000000000E+00  0.34923526868E+03  0.34923757787E+03  0.12700000000E+01 0. -1.
         -4   -1    0    0    0  501 -0.00000000000E+00 -0.00000000000E+00 -0.11144562908E+02  0.11216692134E+02  0.12700000000E+01 0. -1.
         25    2    1    2    0    0  0.00000000000E+00  0.00000000000E+00  0.33809070578E+03  0.36045427000E+03  0.12498782112E+03 0.  0.
    9000005    1    3    3    0    0  0.61128736096E+02  0.93448553185E+01  0.14317996840E+03  0.15596650938E+03  0.10000000000E+01 0.  0.
    9000005    1    3    3    0    0 -0.61128736096E+02 -0.93448553185E+01  0.19491073738E+03  0.20448776062E+03  0.10000000000E+01 0.  0.
<mgrwt>
<rscale>  0 0.12498782E+03</rscale>
<asrwt>0</asrwt>
<pdfrwt beam="1">  1        4 0.53734219E-01 0.12498782E+03</pdfrwt>
<pdfrwt beam="2">  1       -4 0.17202745E-02 0.12498782E+03</pdfrwt>
<totfact> 0.68608051E+03</totfact>
</mgrwt>
</event>
<event>
 5    1  0.3251953E-002  0.1249994E+03  0.7818608E-02  0.1235070E+00
         -4   -1    0    0    0  501 -0.00000000000E+00  0.00000000000E+00  0.43764383967E+02  0.43782807173E+02  0.12700000000E+01 0. -1.
          4   -1    0    0  501    0  0.00000000000E+00 -0.00000000000E+00 -0.89213829939E+02  0.89222868999E+02  0.12700000000E+01 0. -1.
         25    2    1    2    0    0  0.00000000000E+00  0.00000000000E+00 -0.45449445973E+02  0.13300567617E+03  0.12499943102E+03 0.  0.
    9000005    1    3    3    0    0  0.26086757634E+02  0.12697554276E+02 -0.81618415849E+02  0.86627435689E+02  0.10000000000E+01 0.  0.
    9000005    1    3    3    0    0 -0.26086757634E+02 -0.12697554276E+02  0.36168969876E+02  0.46378240483E+02  0.10000000000E+01 0.  0.
<mgrwt>
<rscale>  0 0.12499943E+03</rscale>
<asrwt>0</asrwt>
<pdfrwt beam="2">  1        4 0.13727317E-01 0.12499943E+03</pdfrwt>
<pdfrwt beam="1">  1       -4 0.67350946E-02 0.12499943E+03</pdfrwt>
<totfact> 0.10280411E+04</totfact>
</mgrwt>
</event>
<event>
 5    1  0.3251953E-002  0.1250002E+03  0.7818608E-02  0.1235069E+00
         -4   -1    0    0    0  501 -0.00000000000E+00  0.00000000000E+00  0.57617069954E+01  0.59000141949E+01  0.12700000000E+01 0. -1.
          4   -1    0    0  501    0  0.00000000000E+00 -0.00000000000E+00 -0.66979021963E+03  0.66979142366E+03  0.12700000000E+01 0. -1.
         25    2    1    2    0    0  0.00000000000E+00  0.00000000000E+00 -0.66402851263E+03  0.67569143785E+03  0.12500021441E+03 0.  0.
    9000005    1    3    3    0    0  0.29924675404E+02 -0.16271362141E+02 -0.48803063961E+02  0.59522957554E+02  0.10000000000E+01 0.  0.
    9000005    1    3    3    0    0 -0.29924675404E+02  0.16271362141E+02 -0.61522544867E+03  0.61616848030E+03  0.10000000000E+01 0.  0.
<mgrwt>
<rscale>  0 0.12500021E+03</rscale>
<asrwt>0</asrwt>
<pdfrwt beam="2">  1        4 0.10305532E+00 0.12500021E+03</pdfrwt>
<pdfrwt beam="1">  1       -4 0.89714862E-03 0.12500021E+03</pdfrwt>
<totfact> 0.44401164E+03</totfact>
</mgrwt>
</event>
<event>
 5    1  0.3251953E-002  0.1249903E+03  0.7818608E-02  0.1235084E+00
          4   -1    0    0  501    0  0.00000000000E+00  0.00000000000E+00  0.30437013690E+02  0.30463497868E+02  0.12700000000E+01 0.  1.
         -4   -1    0    0    0  501 -0.00000000000E+00 -0.00000000000E+00 -0.12823353590E+03  0.12823982467E+03  0.12700000000E+01 0.  1.
         25    2    1    2    0    0  0.00000000000E+00  0.00000000000E+00 -0.97796522213E+02  0.15870332253E+03  0.12499033893E+03 0.  0.
    9000005    1    3    3    0    0  0.47166239084E+02 -0.40857655209E+02 -0.44755744946E+02  0.76798950541E+02  0.10000000000E+01 0.  0.
    9000005    1    3    3    0    0 -0.47166239084E+02  0.40857655209E+02 -0.53040777267E+02  0.81904371993E+02  0.10000000000E+01 0.  0.
<mgrwt>
<rscale>  0 0.12499034E+03</rscale>
<asrwt>0</asrwt>
<pdfrwt beam="1">  1        4 0.46851386E-02 0.12499034E+03</pdfrwt>
<pdfrwt beam="2">  1       -4 0.19730757E-01 0.12499034E+03</pdfrwt>
<totfact> 0.97614557E+03</totfact>
</mgrwt>
</event>
<event>
 5    1  0.3251953E-002  0.1250196E+03  0.7818608E-02  0.1235039E+00
         -4   -1    0    0    0  501 -0.00000000000E+00  0.00000000000E+00  0.17282900665E+02  0.17329499572E+02  0.12700000000E+01 0.  1.
          4   -1    0    0  501    0  0.00000000000E+00 -0.00000000000E+00 -0.22573620813E+03  0.22573978063E+03  0.12700000000E+01 0.  1.
         25    2    1    2    0    0  0.00000000000E+00  0.00000000000E+00 -0.20845330746E+03  0.24306928021E+03  0.12501957282E+03 0.  0.
    9000005    1    3    3    0    0  0.78479927825E+00  0.12275161393E+02  0.14916014625E+02  0.19359312731E+02  0.10000000000E+01 0.  0.
    9000005    1    3    3    0    0 -0.78479927825E+00 -0.12275161393E+02 -0.22336932209E+03  0.22370996747E+03  0.10000000000E+01 0.  0.
<mgrwt>
<rscale>  0 0.12501957E+03</rscale>
<asrwt>0</asrwt>
<pdfrwt beam="2">  1        4 0.34732505E-01 0.12501957E+03</pdfrwt>
<pdfrwt beam="1">  1       -4 0.26627673E-02 0.12501957E+03</pdfrwt>
<totfact> 0.83306020E+03</totfact>
</mgrwt>
</event>
<event>
 5    1  0.3251953E-002  0.1249977E+03  0.7818608E-02  0.1235073E+00
          4   -1    0    0  501    0  0.00000000000E+00  0.00000000000E+00  0.10423209833E+04  0.10423217570E+04  0.12700000000E+01 0. -1.
         -4   -1    0    0    0  501 -0.00000000000E+00 -0.00000000000E+00 -0.36391124797E+01  0.38543533361E+01  0.12700000000E+01 0. -1.
         25    2    1    2    0    0  0.00000000000E+00  0.00000000000E+00  0.10386818708E+04  0.10461761104E+04  0.12499770030E+03 0.  0.
    9000005    1    3    3    0    0  0.12735724484E+02 -0.46258915141E+01  0.10299191685E+04  0.10300087821E+04  0.10000000000E+01 0.  0.
    9000005    1    3    3    0    0 -0.12735724484E+02  0.46258915141E+01  0.87627023052E+01  0.16167328231E+02  0.10000000000E+01 0.  0.
<mgrwt>
<rscale>  0 0.12499770E+03</rscale>
<asrwt>0</asrwt>
<pdfrwt beam="1">  1        4 0.16037369E+00 0.12499770E+03</pdfrwt>
<pdfrwt beam="2">  1       -4 0.57647996E-03 0.12499770E+03</pdfrwt>
<totfact> 0.29115924E+03</totfact>
</mgrwt>
</event>
<event>
 5    1  0.3251953E-002  0.1249955E+03  0.7818608E-02  0.1235076E+00
         -4   -1    0    0    0  501 -0.00000000000E+00  0.00000000000E+00  0.30515477313E+02  0.30541893452E+02  0.12700000000E+01 0. -1.
          4   -1    0    0  501    0  0.00000000000E+00 -0.00000000000E+00 -0.12791458643E+03  0.12792089087E+03  0.12700000000E+01 0. -1.
         25    2    1    2    0    0  0.00000000000E+00  0.00000000000E+00 -0.97399109112E+02  0.15846278432E+03  0.12499547015E+03 0.  0.
    9000005    1    3    3    0    0 -0.30383034144E+02 -0.51447168122E+02 -0.71904092450E+02  0.93494055333E+02  0.10000000000E+01 0.  0.
    9000005    1    3    3    0    0  0.30383034144E+02  0.51447168122E+02 -0.25495016662E+02  0.64968728987E+02  0.10000000000E+01 0.  0.
<mgrwt>
<rscale>  0 0.12499547E+03</rscale>
<asrwt>0</asrwt>
<pdfrwt beam="2">  1        4 0.19681684E-01 0.12499547E+03</pdfrwt>
<pdfrwt beam="1">  1       -4 0.46972059E-02 0.12499547E+03</pdfrwt>
<totfact> 0.97649913E+03</totfact>
</mgrwt>
</event>
<event>
 5    1  0.3251953E-002  0.1249997E+03  0.7818608E-02  0.1235070E+00
         -4   -1    0    0    0  501 -0.00000000000E+00  0.00000000000E+00  0.16885561886E+03  0.16886039476E+03  0.12700000000E+01 0. -1.
          4   -1    0    0  501    0  0.00000000000E+00 -0.00000000000E+00 -0.23111028214E+02  0.23145896507E+02  0.12700000000E+01 0. -1.
         25    2    1    2    0    0  0.00000000000E+00  0.00000000000E+00  0.14574459064E+03  0.19200629127E+03  0.12499972074E+03 0.  0.
    9000005    1    3    3    0    0 -0.14410341819E+02 -0.27010563593E+02 -0.10810978246E+02  0.32482391347E+02  0.10000000000E+01 0.  0.
    9000005    1    3    3    0    0  0.14410341819E+02  0.27010563593E+02  0.15655556889E+03  0.15952389992E+03  0.10000000000E+01 0.  0.
<mgrwt>
<rscale>  0 0.12499972E+03</rscale>
<asrwt>0</asrwt>
<pdfrwt beam="2">  1        4 0.35585923E-02 0.12499972E+03</pdfrwt>
<pdfrwt beam="1">  1       -4 0.25980838E-01 0.12499972E+03</pdfrwt>
<totfact> 0.91499965E+03</totfact>
</mgrwt>
</event>
<event>
 5    1  0.3251953E-002  0.1250008E+03  0.7818608E-02  0.1235068E+00
          4   -1    0    0  501    0  0.00000000000E+00  0.00000000000E+00  0.26379288174E+03  0.26379593885E+03  0.12700000000E+01 0.  1.
         -4   -1    0    0    0  501 -0.00000000000E+00 -0.00000000000E+00 -0.14777821564E+02  0.14832292815E+02  0.12700000000E+01 0.  1.
         25    2    1    2    0    0  0.00000000000E+00  0.00000000000E+00  0.24901506017E+03  0.27862823167E+03  0.12500076515E+03 0.  0.
    9000005    1    3    3    0    0 -0.33301017510E+02 -0.40533617590E+02  0.20020755123E+03  0.20696858576E+03  0.10000000000E+01 0.  0.
    9000005    1    3    3    0    0  0.33301017510E+02  0.40533617590E+02  0.48807508939E+02  0.71659645903E+02  0.10000000000E+01 0.  0.
<mgrwt>
<rscale>  0 0.12500077E+03</rscale>
<asrwt>0</asrwt>
<pdfrwt beam="1">  1        4 0.40587949E-01 0.12500077E+03</pdfrwt>
<pdfrwt beam="2">  1       -4 0.22779361E-02 0.12500077E+03</pdfrwt>
<totfact> 0.78359007E+03</totfact>
</mgrwt>
</event>
<event>
 5    1  0.3251953E-002  0.1250091E+03  0.7818608E-02  0.1235055E+00
          4   -1    0    0  501    0  0.00000000000E+00  0.00000000000E+00  0.12182248370E+02  0.12248268259E+02  0.12700000000E+01 0. -1.
         -4   -1    0    0    0  501 -0.00000000000E+00 -0.00000000000E+00 -0.31976382326E+03  0.31976634526E+03  0.12700000000E+01 0. -1.
         25    2    1    2    0    0  0.00000000000E+00  0.00000000000E+00 -0.30758157489E+03  0.33201461352E+03  0.12500911320E+03 0.  0.
    9000005    1    3    3    0    0 -0.21862752789E+02  0.58036757990E+02 -0.13329119571E+03  0.14701628512E+03  0.10000000000E+01 0.  0.
    9000005    1    3    3    0    0  0.21862752789E+02 -0.58036757990E+02 -0.17429037917E+03  0.18499832840E+03  0.10000000000E+01 0.  0.
<mgrwt>
<rscale>  0 0.12500911E+03</rscale>
<asrwt>0</asrwt>
<pdfrwt beam="1">  1        4 0.18794648E-02 0.12500911E+03</pdfrwt>
<pdfrwt beam="2">  1       -4 0.49199700E-01 0.12500911E+03</pdfrwt>
<totfact> 0.71735090E+03</totfact>
</mgrwt>
</event>
<event>
 5    1  0.3251953E-002  0.1249997E+03  0.7818608E-02  0.1235070E+00
          4   -1    0    0  501    0  0.00000000000E+00  0.00000000000E+00  0.21640181561E+03  0.21640554221E+03  0.12700000000E+01 0.  1.
         -4   -1    0    0    0  501 -0.00000000000E+00 -0.00000000000E+00 -0.18024592183E+02  0.18069278441E+02  0.12700000000E+01 0.  1.
         25    2    1    2    0    0  0.00000000000E+00  0.00000000000E+00  0.19837722343E+03  0.23447482065E+03  0.12499967498E+03 0.  0.
    9000005    1    3    3    0    0 -0.81422302033E+00 -0.58556446484E+02  0.58275910848E+02  0.82623254409E+02  0.10000000000E+01 0.  0.
    9000005    1    3    3    0    0  0.81422302033E+00  0.58556446484E+02  0.14010131258E+03  0.15185156624E+03  0.10000000000E+01 0.  0.
<mgrwt>
<rscale>  0 0.12499967E+03</rscale>
<asrwt>0</asrwt>
<pdfrwt beam="1">  1        4 0.33296312E-01 0.12499967E+03</pdfrwt>
<pdfrwt beam="2">  1       -4 0.27767381E-02 0.12499967E+03</pdfrwt>
<totfact> 0.84627798E+03</totfact>
</mgrwt>
</event>
<event>
 5    1  0.3251953E-002  0.1250027E+03  0.7818608E-02  0.1235065E+00
          4   -1    0    0  501    0  0.00000000000E+00  0.00000000000E+00  0.39345491027E+03  0.39345695993E+03  0.12700000000E+01 0.  1.
         -4   -1    0    0    0  501 -0.00000000000E+00 -0.00000000000E+00 -0.98858096107E+01  0.99670523054E+01  0.12700000000E+01 0.  1.
         25    2    1    2    0    0  0.00000000000E+00  0.00000000000E+00  0.38356910066E+03  0.40342401224E+03  0.12500271463E+03 0.  0.
    9000005    1    3    3    0    0  0.41765672971E+02  0.37408882489E+01  0.42242344729E+02  0.59529667997E+02  0.10000000000E+01 0.  0.
    9000005    1    3    3    0    0 -0.41765672971E+02 -0.37408882489E+01  0.34132675593E+03  0.34389434424E+03  0.10000000000E+01 0.  0.
<mgrwt>
<rscale>  0 0.12500271E+03</rscale>
<asrwt>0</asrwt>
<pdfrwt beam="1">  1        4 0.60537938E-01 0.12500271E+03</pdfrwt>
<pdfrwt beam="2">  1       -4 0.15273007E-02 0.12500271E+03</pdfrwt>
<totfact> 0.64217277E+03</totfact>
</mgrwt>
</event>
<event>
 5    1  0.3251953E-002  0.1249974E+03  0.7818608E-02  0.1235073E+00
         -4   -1    0    0    0  501 -0.00000000000E+00  0.00000000000E+00  0.39344423309E+03  0.39344628281E+03  0.12700000000E+01 0.  1.
          4   -1    0    0  501    0  0.00000000000E+00 -0.00000000000E+00 -0.98852303886E+01  0.99664778049E+01  0.12700000000E+01 0.  1.
         25    2    1    2    0    0  0.00000000000E+00  0.00000000000E+00  0.38355900270E+03  0.40341276061E+03  0.12499738745E+03 0.  0.
    9000005    1    3    3    0    0  0.49160633828E+02  0.30089359873E+01  0.31590805688E+03  0.31972601085E+03  0.10000000000E+01 0.  0.
    9000005    1    3    3    0    0 -0.49160633828E+02 -0.30089359873E+01  0.67650945823E+02  0.83686749757E+02  0.10000000000E+01 0.  0.
<mgrwt>
<rscale>  0 0.12499739E+03</rscale>
<asrwt>0</asrwt>
<pdfrwt beam="2">  1        4 0.15272118E-02 0.12499739E+03</pdfrwt>
<pdfrwt beam="1">  1       -4 0.60536304E-01 0.12499739E+03</pdfrwt>
<totfact> 0.64225910E+03</totfact>
</mgrwt>
</event>
<event>
 5    1  0.3251953E-002  0.1249910E+03  0.7818608E-02  0.1235083E+00
         -4   -1    0    0    0  501 -0.00000000000E+00  0.00000000000E+00  0.11539084102E+04  0.11539091091E+04  0.12700000000E+01 0. -1.
          4   -1    0    0  501    0  0.00000000000E+00 -0.00000000000E+00 -0.32648910646E+01  0.35032004887E+01  0.12700000000E+01 0. -1.
         25    2    1    2    0    0  0.00000000000E+00  0.00000000000E+00  0.11506435191E+04  0.11574123095E+04  0.12499098457E+03 0.  0.
    9000005    1    3    3    0    0 -0.31008545955E+02  0.50065205555E+02  0.76881558117E+03  0.77106838386E+03  0.10000000000E+01 0.  0.
    9000005    1    3    3    0    0  0.31008545955E+02 -0.50065205555E+02  0.38182793793E+03  0.38634392569E+03  0.10000000000E+01 0.  0.
<mgrwt>
<rscale>  0 0.12499098E+03</rscale>
<asrwt>0</asrwt>
<pdfrwt beam="2">  1        4 0.52067528E-03 0.12499098E+03</pdfrwt>
<pdfrwt beam="1">  1       -4 0.17754306E+00 0.12499098E+03</pdfrwt>
<totfact> 0.25860491E+03</totfact>
</mgrwt>
</event>
<event>
 5    1  0.3251953E-002  0.1249920E+03  0.7818608E-02  0.1235082E+00
          4   -1    0    0  501    0  0.00000000000E+00  0.00000000000E+00  0.28292099586E+02  0.28320589665E+02  0.12700000000E+01 0. -1.
         -4   -1    0    0    0  501 -0.00000000000E+00 -0.00000000000E+00 -0.13794996331E+03  0.13795580915E+03  0.12700000000E+01 0. -1.
         25    2    1    2    0    0  0.00000000000E+00  0.00000000000E+00 -0.10965786372E+03  0.16627639881E+03  0.12499197464E+03 0.  0.
    9000005    1    3    3    0    0 -0.13989332390E+02  0.14278302637E+02  0.23930661059E+02  0.31196921092E+02  0.10000000000E+01 0.  0.
    9000005    1    3    3    0    0  0.13989332390E+02 -0.14278302637E+02 -0.13358852478E+03  0.13507947772E+03  0.10000000000E+01 0.  0.
<mgrwt>
<rscale>  0 0.12499197E+03</rscale>
<asrwt>0</asrwt>
<pdfrwt beam="1">  1        4 0.43552720E-02 0.12499197E+03</pdfrwt>
<pdfrwt beam="2">  1       -4 0.21225712E-01 0.12499197E+03</pdfrwt>
<totfact> 0.96163541E+03</totfact>
</mgrwt>
</event>
<event>
 4    1  0.3251953E-002  0.1251803E+03  0.7818608E-02  0.1234788E+00
         -4   -1    0    0    0  501 -0.00000000000E+00  0.00000000000E+00  0.15196028688E+03  0.15196559377E+03  0.12700000000E+01 0.  1.
          4   -1    0    0  501    0  0.00000000000E+00 -0.00000000000E+00 -0.25758544532E+02  0.25789833586E+02  0.12700000000E+01 0.  1.
    9000005    1    1    2    0    0  0.23386614400E+02  0.56732226099E+02  0.45648859057E+02  0.76487237788E+02  0.10000000000E+01 0.  0.
    9000005    1    1    2    0    0 -0.23386614400E+02 -0.56732226099E+02  0.80552883296E+02  0.10126818957E+03  0.10000000000E+01 0.  0.
<mgrwt>
<rscale>  0 0.12518032E+03</rscale>
<asrwt>0</asrwt>
<pdfrwt beam="2">  1        4 0.39656681E-02 0.12518032E+03</pdfrwt>
<pdfrwt beam="1">  1       -4 0.23381321E-01 0.12518032E+03</pdfrwt>
<totfact> 0.93643381E+03</totfact>
</mgrwt>
</event>
<event>
 5    1  0.3251953E-002  0.1250016E+03  0.7818608E-02  0.1235067E+00
          4   -1    0    0  501    0  0.00000000000E+00  0.00000000000E+00  0.75680284325E+02  0.75690939587E+02  0.12700000000E+01 0.  1.
         -4   -1    0    0    0  501 -0.00000000000E+00 -0.00000000000E+00 -0.51594346281E+02  0.51609974503E+02  0.12700000000E+01 0.  1.
         25    2    1    2    0    0  0.00000000000E+00  0.00000000000E+00  0.24085938044E+02  0.12730091409E+03  0.12500156126E+03 0.  0.
    9000005    1    3    3    0    0  0.16736926029E+02 -0.59409831720E+02  0.22005282696E+02  0.65535374146E+02  0.10000000000E+01 0.  0.
    9000005    1    3    3    0    0 -0.16736926029E+02  0.59409831720E+02  0.20806553477E+01  0.61765539944E+02  0.10000000000E+01 0.  0.
<mgrwt>
<rscale>  0 0.12500156E+03</rscale>
<asrwt>0</asrwt>
<pdfrwt beam="1">  1        4 0.11645143E-01 0.12500156E+03</pdfrwt>
<pdfrwt beam="2">  1       -4 0.79396135E-02 0.12500156E+03</pdfrwt>
<totfact> 0.10402248E+04</totfact>
</mgrwt>
</event>
<event>
 5    1  0.3251953E-002  0.1250009E+03  0.7818608E-02  0.1235068E+00
         -4   -1    0    0    0  501 -0.00000000000E+00  0.00000000000E+00  0.48144769959E+02  0.48161517567E+02  0.12700000000E+01 0.  1.
          4   -1    0    0  501    0  0.00000000000E+00 -0.00000000000E+00 -0.81100806961E+02  0.81110750149E+02  0.12700000000E+01 0.  1.
         25    2    1    2    0    0  0.00000000000E+00  0.00000000000E+00 -0.32956037003E+02  0.12927226772E+03  0.12500087530E+03 0.  0.
    9000005    1    3    3    0    0 -0.32610185248E+02  0.95915865241E+01  0.37753197406E+02  0.50810694035E+02  0.10000000000E+01 0.  0.
    9000005    1    3    3    0    0  0.32610185248E+02 -0.95915865241E+01 -0.70709234408E+02  0.78461573682E+02  0.10000000000E+01 0.  0.
<mgrwt>
<rscale>  0 0.12500088E+03</rscale>
<asrwt>0</asrwt>
<pdfrwt beam="2">  1        4 0.12479100E-01 0.12500088E+03</pdfrwt>
<pdfrwt beam="1">  1       -4 0.74089408E-02 0.12500088E+03</pdfrwt>
<totfact> 0.10359895E+04</totfact>
</mgrwt>
</event>
<event>
 5    1  0.3251953E-002  0.1250113E+03  0.7818608E-02  0.1235052E+00
         -4   -1    0    0    0  501 -0.00000000000E+00  0.00000000000E+00  0.61938142215E+01  0.63226762222E+01  0.12700000000E+01 0.  1.
          4   -1    0    0  501    0  0.00000000000E+00 -0.00000000000E+00 -0.62415967086E+03  0.62416096292E+03  0.12700000000E+01 0.  1.
         25    2    1    2    0    0  0.00000000000E+00  0.00000000000E+00 -0.61796585664E+03  0.63048363914E+03  0.12501127649E+03 0.  0.
    9000005    1    3    3    0    0 -0.35093424030E+02 -0.44914220831E+02 -0.17969835700E+03  0.18852409701E+03  0.10000000000E+01 0.  0.
    9000005    1    3    3    0    0  0.35093424030E+02  0.44914220831E+02 -0.43826749964E+03  0.44195954213E+03  0.10000000000E+01 0.  0.
<mgrwt>
<rscale>  0 0.12501128E+03</rscale>
<asrwt>0</asrwt>
<pdfrwt beam="2">  1        4 0.96034527E-01 0.12501128E+03</pdfrwt>
<pdfrwt beam="1">  1       -4 0.96290684E-03 0.12501128E+03</pdfrwt>
<totfact> 0.46986656E+03</totfact>
</mgrwt>
</event>
<event>
 5    1  0.3251953E-002  0.1250005E+03  0.7818608E-02  0.1235068E+00
         -4   -1    0    0    0  501 -0.00000000000E+00  0.00000000000E+00  0.12863980988E+03  0.12864607878E+03  0.12700000000E+01 0.  1.
          4   -1    0    0  501    0  0.00000000000E+00 -0.00000000000E+00 -0.30345760207E+02  0.30372323957E+02  0.12700000000E+01 0.  1.
         25    2    1    2    0    0  0.00000000000E+00  0.00000000000E+00  0.98294049674E+02  0.15901840274E+03  0.12500052883E+03 0.  0.
    9000005    1    3    3    0    0 -0.25369909156E+02 -0.35703628062E+02 -0.75582849932E+01  0.44457946640E+02  0.10000000000E+01 0.  0.
    9000005    1    3    3    0    0  0.25369909156E+02  0.35703628062E+02  0.10585233467E+03  0.11456045610E+03  0.10000000000E+01 0.  0.
<mgrwt>
<rscale>  0 0.12500053E+03</rscale>
<asrwt>0</asrwt>
<pdfrwt beam="2">  1        4 0.46711040E-02 0.12500053E+03</pdfrwt>
<pdfrwt beam="1">  1       -4 0.19793266E-01 0.12500053E+03</pdfrwt>
<totfact> 0.97531203E+03</totfact>
</mgrwt>
</event>
<event>
 5    1  0.3251953E-002  0.1250016E+03  0.7818608E-02  0.1235067E+00
         -4   -1    0    0    0  501 -0.00000000000E+00  0.00000000000E+00  0.51085188441E+03  0.51085346304E+03  0.12700000000E+01 0.  1.
          4   -1    0    0  501    0  0.00000000000E+00 -0.00000000000E+00 -0.75924083705E+01  0.76978935343E+01  0.12700000000E+01 0.  1.
         25    2    1    2    0    0  0.00000000000E+00  0.00000000000E+00  0.50325947604E+03  0.51855135658E+03  0.12500163674E+03 0.  0.
    9000005    1    3    3    0    0 -0.50268840733E+02 -0.36550672732E+02  0.27865597711E+03  0.28550492396E+03  0.10000000000E+01 0.  0.
    9000005    1    3    3    0    0  0.50268840733E+02  0.36550672732E+02  0.22460349893E+03  0.23304643262E+03  0.10000000000E+01 0.  0.
<mgrwt>
<rscale>  0 0.12500164E+03</rscale>
<asrwt>0</asrwt>
<pdfrwt beam="2">  1        4 0.11762983E-02 0.12500164E+03</pdfrwt>
<pdfrwt beam="1">  1       -4 0.78600847E-01 0.12500164E+03</pdfrwt>
<totfact> 0.54451234E+03</totfact>
</mgrwt>
</event>
<event>
 5    1  0.3251953E-002  0.1250047E+03  0.7818608E-02  0.1235062E+00
         -4   -1    0    0    0  501 -0.00000000000E+00  0.00000000000E+00  0.57563217942E+01  0.58947553468E+01  0.12700000000E+01 0. -1.
          4   -1    0    0  501    0  0.00000000000E+00 -0.00000000000E+00 -0.67045022378E+03  0.67045142663E+03  0.12700000000E+01 0. -1.
         25    2    1    2    0    0  0.00000000000E+00  0.00000000000E+00 -0.66469390199E+03  0.67634618197E+03  0.12500469805E+03 0.  0.
    9000005    1    3    3    0    0  0.55990300499E+02  0.14651568735E+00 -0.48254337107E+03  0.48578188540E+03  0.10000000000E+01 0.  0.
    9000005    1    3    3    0    0 -0.55990300499E+02 -0.14651568735E+00 -0.18215053091E+03  0.19056429657E+03  0.10000000000E+01 0.  0.
<mgrwt>
<rscale>  0 0.12500470E+03</rscale>
<asrwt>0</asrwt>
<pdfrwt beam="2">  1        4 0.10315687E+00 0.12500470E+03</pdfrwt>
<pdfrwt beam="1">  1       -4 0.89632976E-03 0.12500470E+03</pdfrwt>
<totfact> 0.44360569E+03</totfact>
</mgrwt>
</event>
<event>
 5    1  0.3251953E-002  0.1250032E+03  0.7818608E-02  0.1235064E+00
          4   -1    0    0  501    0  0.00000000000E+00  0.00000000000E+00  0.30178171855E+03  0.30178439083E+03  0.12700000000E+01 0. -1.
         -4   -1    0    0    0  501 -0.00000000000E+00 -0.00000000000E+00 -0.12910739759E+02  0.12973052884E+02  0.12700000000E+01 0. -1.
         25    2    1    2    0    0  0.00000000000E+00  0.00000000000E+00  0.28887097879E+03  0.31475744372E+03  0.12500322391E+03 0.  0.
    9000005    1    3    3    0    0 -0.30639935592E+02  0.17401312237E+02  0.27439524263E+03  0.27665024941E+03  0.10000000000E+01 0.  0.
    9000005    1    3    3    0    0  0.30639935592E+02 -0.17401312237E+02  0.14475736163E+02  0.38107194309E+02  0.10000000000E+01 0.  0.
<mgrwt>
<rscale>  0 0.12500322E+03</rscale>
<asrwt>0</asrwt>
<pdfrwt beam="1">  1        4 0.46432956E-01 0.12500322E+03</pdfrwt>
<pdfrwt beam="2">  1       -4 0.19912665E-02 0.12500322E+03</pdfrwt>
<totfact> 0.73778750E+03</totfact>
</mgrwt>
</event>
<event>
 5    1  0.3251953E-002  0.1250007E+03  0.7818608E-02  0.1235068E+00
         -4   -1    0    0    0  501 -0.00000000000E+00  0.00000000000E+00  0.24492818767E+04  0.24492822060E+04  0.12700000000E+01 0.  1.
          4   -1    0    0  501    0  0.00000000000E+00 -0.00000000000E+00 -0.13416663958E+01  0.18474221817E+01  0.12700000000E+01 0.  1.
         25    2    1    2    0    0  0.00000000000E+00  0.00000000000E+00  0.24479402103E+04  0.24511296281E+04  0.12500072291E+03 0.  0.
    9000005    1    3    3    0    0  0.29095370395E+02  0.43947529112E+02  0.18823656065E+04  0.18831036090E+04  0.10000000000E+01 0.  0.
    9000005    1    3    3    0    0 -0.29095370395E+02 -0.43947529112E+02  0.56557460382E+03  0.56802601910E+03  0.10000000000E+01 0.  0.
<mgrwt>
<rscale>  0 0.12500072E+03</rscale>
<asrwt>0</asrwt>
<pdfrwt beam="2">  1        4 0.24533872E-03 0.12500072E+03</pdfrwt>
<pdfrwt beam="1">  1       -4 0.37685323E+00 0.12500072E+03</pdfrwt>
<totfact> 0.50645994E+02</totfact>
</mgrwt>
</event>
<event>
 5    1  0.3251953E-002  0.1249995E+03  0.7818608E-02  0.1235070E+00
         -4   -1    0    0    0  501 -0.00000000000E+00  0.00000000000E+00  0.71240864712E+02  0.71252183861E+02  0.12700000000E+01 0. -1.
          4   -1    0    0  501    0  0.00000000000E+00 -0.00000000000E+00 -0.54808085096E+02  0.54822797192E+02  0.12700000000E+01 0. -1.
         25    2    1    2    0    0  0.00000000000E+00  0.00000000000E+00  0.16432779616E+02  0.12607498105E+03  0.12499945840E+03 0.  0.
    9000005    1    3    3    0    0  0.43858970829E+02  0.44266382642E+02  0.12957279832E+02  0.63655424396E+02  0.10000000000E+01 0.  0.
    9000005    1    3    3    0    0 -0.43858970829E+02 -0.44266382642E+02  0.34754997836E+01  0.62419556656E+02  0.10000000000E+01 0.  0.
<mgrwt>
<rscale>  0 0.12499946E+03</rscale>
<asrwt>0</asrwt>
<pdfrwt beam="2">  1        4 0.84340155E-02 0.12499946E+03</pdfrwt>
<pdfrwt beam="1">  1       -4 0.10962135E-01 0.12499946E+03</pdfrwt>
<totfact> 0.10429442E+04</totfact>
</mgrwt>
</event>
<event>
 5    1  0.3251953E-002  0.1249979E+03  0.7818608E-02  0.1235073E+00
         -4   -1    0    0    0  501 -0.00000000000E+00  0.00000000000E+00  0.68132569365E+02  0.68144404820E+02  0.12700000000E+01 0. -1.
          4   -1    0    0  501    0  0.00000000000E+00 -0.00000000000E+00 -0.57307297998E+02  0.57321368650E+02  0.12700000000E+01 0. -1.
         25    2    1    2    0    0  0.00000000000E+00  0.00000000000E+00  0.10825271366E+02  0.12546577347E+03  0.12499789523E+03 0.  0.
    9000005    1    3    3    0    0  0.34366298344E+02 -0.24555727228E+02  0.51640342130E+02  0.66721444355E+02  0.10000000000E+01 0.  0.
    9000005    1    3    3    0    0 -0.34366298344E+02  0.24555727228E+02 -0.40815070764E+02  0.58744329114E+02  0.10000000000E+01 0.  0.
<mgrwt>
<rscale>  0 0.12499790E+03</rscale>
<asrwt>0</asrwt>
<pdfrwt beam="2">  1        4 0.88185002E-02 0.12499790E+03</pdfrwt>
<pdfrwt beam="1">  1       -4 0.10483926E-01 0.12499790E+03</pdfrwt>
<totfact> 0.10443207E+04</totfact>
</mgrwt>
</event>
<event>
 5    1  0.3251953E-002  0.1250011E+03  0.7818608E-02  0.1235068E+00
          4   -1    0    0  501    0  0.00000000000E+00  0.00000000000E+00  0.26336153590E+02  0.26366757213E+02  0.12700000000E+01 0. -1.
         -4   -1    0    0    0  501 -0.00000000000E+00 -0.00000000000E+00 -0.14820587173E+03  0.14821131305E+03  0.12700000000E+01 0. -1.
         25    2    1    2    0    0  0.00000000000E+00  0.00000000000E+00 -0.12186971814E+03  0.17457807026E+03  0.12500109766E+03 0.  0.
    9000005    1    3    3    0    0  0.56335506191E+02  0.27036969754E+02 -0.62044803727E+02  0.88063866942E+02  0.10000000000E+01 0.  0.
    9000005    1    3    3    0    0 -0.56335506191E+02 -0.27036969754E+02 -0.59824914415E+02  0.86514203320E+02  0.10000000000E+01 0.  0.
<mgrwt>
<rscale>  0 0.12500110E+03</rscale>
<asrwt>0</asrwt>
<pdfrwt beam="1">  1        4 0.40544887E-02 0.12500110E+03</pdfrwt>
<pdfrwt beam="2">  1       -4 0.22803675E-01 0.12500110E+03</pdfrwt>
<totfact> 0.94599843E+03</totfact>
</mgrwt>
</event>
<event>
 5    1  0.3251953E-002  0.1250011E+03  0.7818608E-02  0.1235068E+00
          4   -1    0    0  501    0  0.00000000000E+00  0.00000000000E+00  0.40016279546E+03  0.40016481076E+03  0.12700000000E+01 0.  1.
         -4   -1    0    0    0  501 -0.00000000000E+00 -0.00000000000E+00 -0.97184618035E+01  0.98010917671E+01  0.12700000000E+01 0.  1.
         25    2    1    2    0    0  0.00000000000E+00  0.00000000000E+00  0.39044433366E+03  0.40996590253E+03  0.12500105420E+03 0.  0.
    9000005    1    3    3    0    0  0.49053540527E+02 -0.31607506259E+02  0.12188353800E+03  0.13513652772E+03  0.10000000000E+01 0.  0.
    9000005    1    3    3    0    0 -0.49053540527E+02  0.31607506259E+02  0.26856079566E+03  0.27482937481E+03  0.10000000000E+01 0.  0.
<mgrwt>
<rscale>  0 0.12500105E+03</rscale>
<asrwt>0</asrwt>
<pdfrwt beam="1">  1        4 0.61570029E-01 0.12500105E+03</pdfrwt>
<pdfrwt beam="2">  1       -4 0.15016589E-02 0.12500105E+03</pdfrwt>
<totfact> 0.63593435E+03</totfact>
</mgrwt>
</event>
<event>
 4    1  0.3251953E-002  0.1262584E+03  0.7818608E-02  0.1233116E+00
          4   -1    0    0  501    0  0.00000000000E+00  0.00000000000E+00  0.85702161062E+02  0.85711570460E+02  0.12700000000E+01 0.  1.
         -4   -1    0    0    0  501 -0.00000000000E+00 -0.00000000000E+00 -0.46481032552E+02  0.46498379402E+02  0.12700000000E+01 0.  1.
    9000005    1    1    2    0    0 -0.31324583233E+02  0.50355259909E+02 -0.30282569890E+01  0.59388989347E+02  0.10000000000E+01 0.  0.
    9000005    1    1    2    0    0  0.31324583233E+02 -0.50355259909E+02  0.42249385500E+02  0.72820960515E+02  0.10000000000E+01 0.  0.
<mgrwt>
<rscale>  0 0.12625836E+03</rscale>
<asrwt>0</asrwt>
<pdfrwt beam="1">  1        4 0.13187006E-01 0.12625836E+03</pdfrwt>
<pdfrwt beam="2">  1       -4 0.71529862E-02 0.12625836E+03</pdfrwt>
<totfact> 0.10010288E+04</totfact>
</mgrwt>
</event>
<event>
 4    1  0.3251953E-002  0.1251590E+03  0.7818608E-02  0.1234821E+00
         -4   -1    0    0    0  501 -0.00000000000E+00  0.00000000000E+00  0.28406644404E+01  0.31116353358E+01  0.12700000000E+01 0. -1.
          4   -1    0    0  501    0  0.00000000000E+00 -0.00000000000E+00 -0.13155884602E+04  0.13155890732E+04  0.12700000000E+01 0. -1.
    9000005    1    1    2    0    0 -0.67226862829E+01  0.59977283270E+01 -0.13087705387E+04  0.13088019293E+04  0.10000000000E+01 0.  0.
    9000005    1    1    2    0    0  0.67226862829E+01 -0.59977283270E+01 -0.39772570629E+01  0.98987792019E+01  0.10000000000E+01 0.  0.
<mgrwt>
<rscale>  0 0.12515903E+03</rscale>
<asrwt>0</asrwt>
<pdfrwt beam="2">  1        4 0.20241865E+00 0.12515903E+03</pdfrwt>
<pdfrwt beam="1">  1       -4 0.45791742E-03 0.12515903E+03</pdfrwt>
<totfact> 0.21716008E+03</totfact>
</mgrwt>
</event>
<event>
 5    1  0.3251953E-002  0.1250031E+03  0.7818608E-02  0.1235064E+00
          4   -1    0    0  501    0  0.00000000000E+00  0.00000000000E+00  0.11280424248E+03  0.11281139136E+03  0.12700000000E+01 0. -1.
         -4   -1    0    0    0  501 -0.00000000000E+00 -0.00000000000E+00 -0.34610390996E+02  0.34633683963E+02  0.12700000000E+01 0. -1.
         25    2    1    2    0    0  0.00000000000E+00  0.00000000000E+00  0.78193851482E+02  0.14744507532E+03  0.12500308727E+03 0.  0.
    9000005    1    3    3    0    0  0.53977395618E+02 -0.31449607249E+02  0.41072745914E+02  0.74770365057E+02  0.10000000000E+01 0.  0.
    9000005    1    3    3    0    0 -0.53977395618E+02  0.31449607249E+02  0.37121105568E+02  0.72674710267E+02  0.10000000000E+01 0.  0.
<mgrwt>
<rscale>  0 0.12500309E+03</rscale>
<asrwt>0</asrwt>
<pdfrwt beam="1">  1        4 0.17356840E-01 0.12500309E+03</pdfrwt>
<pdfrwt beam="2">  1       -4 0.53270172E-02 0.12500309E+03</pdfrwt>
<totfact> 0.99808507E+03</totfact>
</mgrwt>
</event>
<event>
 5    1  0.3251953E-002  0.1249953E+03  0.7818608E-02  0.1235077E+00
          4   -1    0    0  501    0  0.00000000000E+00  0.00000000000E+00  0.28818317281E+02  0.28846287645E+02  0.12700000000E+01 0.  1.
         -4   -1    0    0    0  501 -0.00000000000E+00 -0.00000000000E+00 -0.13544061560E+03  0.13544656973E+03  0.12700000000E+01 0.  1.
         25    2    1    2    0    0  0.00000000000E+00  0.00000000000E+00 -0.10662229831E+03  0.16429285738E+03  0.12499531386E+03 0.  0.
    9000005    1    3    3    0    0 -0.34491332839E+02 -0.84509330028E+01  0.14273238121E+02  0.38285710599E+02  0.10000000000E+01 0.  0.
    9000005    1    3    3    0    0  0.34491332839E+02  0.84509330028E+01 -0.12089553644E+03  0.12600714678E+03  0.10000000000E+01 0.  0.
<mgrwt>
<rscale>  0 0.12499531E+03</rscale>
<asrwt>0</asrwt>
<pdfrwt beam="1">  1        4 0.44361969E-02 0.12499531E+03</pdfrwt>
<pdfrwt beam="2">  1       -4 0.20839627E-01 0.12499531E+03</pdfrwt>
<totfact> 0.96531644E+03</totfact>
</mgrwt>
</event>
<event>
 5    1  0.3251953E-002  0.1250005E+03  0.7818608E-02  0.1235069E+00
          4   -1    0    0  501    0  0.00000000000E+00  0.00000000000E+00  0.41252327110E+02  0.41271871680E+02  0.12700000000E+01 0.  1.
         -4   -1    0    0    0  501 -0.00000000000E+00 -0.00000000000E+00 -0.94646092523E+02  0.94654612830E+02  0.12700000000E+01 0.  1.
         25    2    1    2    0    0  0.00000000000E+00  0.00000000000E+00 -0.53393765413E+02  0.13592648451E+03  0.12500046002E+03 0.  0.
    9000005    1    3    3    0    0  0.11024932877E+02  0.42931546383E+02  0.21206019074E+02  0.49146333177E+02  0.10000000000E+01 0.  0.
    9000005    1    3    3    0    0 -0.11024932877E+02 -0.42931546383E+02 -0.74599784488E+02  0.86780151333E+02  0.10000000000E+01 0.  0.
<mgrwt>
<rscale>  0 0.12500046E+03</rscale>
<asrwt>0</asrwt>
<pdfrwt beam="1">  1        4 0.63486707E-02 0.12500046E+03</pdfrwt>
<pdfrwt beam="2">  1       -4 0.14563096E-01 0.12500046E+03</pdfrwt>
<totfact> 0.10218474E+04</totfact>
</mgrwt>
</event>
<event>
 5    1  0.3251953E-002  0.1250050E+03  0.7818608E-02  0.1235061E+00
          4   -1    0    0  501    0  0.00000000000E+00  0.00000000000E+00  0.35275391871E+02  0.35298246014E+02  0.12700000000E+01 0.  1.
         -4   -1    0    0    0  501 -0.00000000000E+00 -0.00000000000E+00 -0.11068236780E+03  0.11068965373E+03  0.12700000000E+01 0.  1.
         25    2    1    2    0    0  0.00000000000E+00  0.00000000000E+00 -0.75406975931E+02  0.14598789974E+03  0.12500501931E+03 0.  0.
    9000005    1    3    3    0    0 -0.27923179429E+02  0.43663119414E+02 -0.78484785378E+02  0.94058670425E+02  0.10000000000E+01 0.  0.
    9000005    1    3    3    0    0  0.27923179429E+02 -0.43663119414E+02  0.30778094469E+01  0.51929229316E+02  0.10000000000E+01 0.  0.
<mgrwt>
<rscale>  0 0.12500502E+03</rscale>
<asrwt>0</asrwt>
<pdfrwt beam="1">  1        4 0.54293019E-02 0.12500502E+03</pdfrwt>
<pdfrwt beam="2">  1       -4 0.17030375E-01 0.12500502E+03</pdfrwt>
<totfact> 0.10009824E+04</totfact>
</mgrwt>
</event>
<event>
 5    1  0.3251953E-002  0.1249987E+03  0.7818608E-02  0.1235071E+00
          4   -1    0    0  501    0  0.00000000000E+00  0.00000000000E+00  0.88367960306E+02  0.88377085880E+02  0.12700000000E+01 0. -1.
         -4   -1    0    0    0  501 -0.00000000000E+00 -0.00000000000E+00 -0.44182898763E+02  0.44201147532E+02  0.12700000000E+01 0. -1.
         25    2    1    2    0    0  0.00000000000E+00  0.00000000000E+00  0.44185061543E+02  0.13257823341E+03  0.12499867324E+03 0.  0.
    9000005    1    3    3    0    0  0.48513729049E+02 -0.31744478228E+02  0.46827745410E+02  0.74532754843E+02  0.10000000000E+01 0.  0.
    9000005    1    3    3    0    0 -0.48513729049E+02  0.31744478228E+02 -0.26426838673E+01  0.58045478569E+02  0.10000000000E+01 0.  0.
<mgrwt>
<rscale>  0 0.12499867E+03</rscale>
<asrwt>0</asrwt>
<pdfrwt beam="1">  1        4 0.13597177E-01 0.12499867E+03</pdfrwt>
<pdfrwt beam="2">  1       -4 0.67994747E-02 0.12499867E+03</pdfrwt>
<totfact> 0.10289680E+04</totfact>
</mgrwt>
</event>
<event>
 5    1  0.3251953E-002  0.1250080E+03  0.7818608E-02  0.1235057E+00
          4   -1    0    0  501    0  0.00000000000E+00  0.00000000000E+00  0.18645615466E+03  0.18646047976E+03  0.12700000000E+01 0. -1.
         -4   -1    0    0    0  501 -0.00000000000E+00 -0.00000000000E+00 -0.20928836941E+02  0.20967334492E+02  0.12700000000E+01 0. -1.
         25    2    1    2    0    0  0.00000000000E+00  0.00000000000E+00  0.16552731772E+03  0.20742781425E+03  0.12500802059E+03 0.  0.
    9000005    1    3    3    0    0  0.58407460356E+02  0.11010337548E+02  0.11481434134E+03  0.12929033968E+03  0.10000000000E+01 0.  0.
    9000005    1    3    3    0    0 -0.58407460356E+02 -0.11010337548E+02  0.50712976380E+02  0.78137474565E+02  0.10000000000E+01 0.  0.
<mgrwt>
<rscale>  0 0.12500802E+03</rscale>
<asrwt>0</asrwt>
<pdfrwt beam="1">  1        4 0.28688857E-01 0.12500802E+03</pdfrwt>
<pdfrwt beam="2">  1       -4 0.32231151E-02 0.12500802E+03</pdfrwt>
<totfact> 0.88881740E+03</totfact>
</mgrwt>
</event>
<event>
 5    1  0.3251953E-002  0.1249993E+03  0.7818608E-02  0.1235070E+00
          4   -1    0    0  501    0  0.00000000000E+00  0.00000000000E+00  0.11878134977E+03  0.11878813894E+03  0.12700000000E+01 0.  1.
         -4   -1    0    0    0  501 -0.00000000000E+00 -0.00000000000E+00 -0.32865678210E+02  0.32890206813E+02  0.12700000000E+01 0.  1.
         25    2    1    2    0    0  0.00000000000E+00  0.00000000000E+00  0.85915671563E+02  0.15167834576E+03  0.12499927180E+03 0.  0.
    9000005    1    3    3    0    0  0.21224292427E+02  0.76808310368E+01 -0.27752554568E+02  0.35786450501E+02  0.10000000000E+01 0.  0.
    9000005    1    3    3    0    0 -0.21224292427E+02 -0.76808310368E+01  0.11366822613E+03  0.11589189526E+03  0.10000000000E+01 0.  0.
<mgrwt>
<rscale>  0 0.12499927E+03</rscale>
<asrwt>0</asrwt>
<pdfrwt beam="1">  1        4 0.18276463E-01 0.12499927E+03</pdfrwt>
<pdfrwt beam="2">  1       -4 0.50586672E-02 0.12499927E+03</pdfrwt>
<totfact> 0.98971813E+03</totfact>
</mgrwt>
</event>
<event>
 5    1  0.3251953E-002  0.1250001E+03  0.7818608E-02  0.1235069E+00
         -4   -1    0    0    0  501 -0.00000000000E+00  0.00000000000E+00  0.28689951332E+03  0.28690232422E+03  0.12700000000E+01 0.  1.
          4   -1    0    0  501    0  0.00000000000E+00 -0.00000000000E+00 -0.13582913542E+02  0.13642156731E+02  0.12700000000E+01 0.  1.
         25    2    1    2    0    0  0.00000000000E+00  0.00000000000E+00  0.27331659978E+03  0.30054448095E+03  0.12500008527E+03 0.  0.
    9000005    1    3    3    0    0  0.19745350905E+02  0.44193924239E+02  0.23169185629E+03  0.23669621479E+03  0.10000000000E+01 0.  0.
    9000005    1    3    3    0    0 -0.19745350905E+02 -0.44193924239E+02  0.41624743484E+02  0.63848266164E+02  0.10000000000E+01 0.  0.
<mgrwt>
<rscale>  0 0.12500009E+03</rscale>
<asrwt>0</asrwt>
<pdfrwt beam="2">  1        4 0.20944523E-02 0.12500009E+03</pdfrwt>
<pdfrwt beam="1">  1       -4 0.44143162E-01 0.12500009E+03</pdfrwt>
<totfact> 0.75530445E+03</totfact>
</mgrwt>
</event>
<event>
 5    1  0.3251953E-002  0.1250019E+03  0.7818608E-02  0.1235066E+00
          4   -1    0    0  501    0  0.00000000000E+00  0.00000000000E+00  0.27790385509E+01  0.30554795479E+01  0.12700000000E+01 0. -1.
         -4   -1    0    0    0  501 -0.00000000000E+00 -0.00000000000E+00 -0.13387775937E+04  0.13387781961E+04  0.12700000000E+01 0. -1.
         25    2    1    2    0    0  0.00000000000E+00  0.00000000000E+00 -0.13359985551E+04  0.13418336756E+04  0.12500189471E+03 0.  0.
    9000005    1    3    3    0    0  0.58540855233E+02 -0.70270944397E+01 -0.89032452532E+03  0.89227527825E+03  0.10000000000E+01 0.  0.
    9000005    1    3    3    0    0 -0.58540855233E+02  0.70270944397E+01 -0.44567402981E+03  0.44955839736E+03  0.10000000000E+01 0.  0.
<mgrwt>
<rscale>  0 0.12500189E+03</rscale>
<asrwt>0</asrwt>
<pdfrwt beam="1">  1        4 0.44885649E-03 0.12500189E+03</pdfrwt>
<pdfrwt beam="2">  1       -4 0.20598660E+00 0.12500189E+03</pdfrwt>
<totfact> 0.21261353E+03</totfact>
</mgrwt>
</event>
<event>
 5    1  0.3251953E-002  0.1249993E+03  0.7818608E-02  0.1235070E+00
          4   -1    0    0  501    0  0.00000000000E+00  0.00000000000E+00  0.19369120249E+02  0.19410711456E+02  0.12700000000E+01 0. -1.
         -4   -1    0    0    0  501 -0.00000000000E+00 -0.00000000000E+00 -0.20141205413E+03  0.20141605807E+03  0.12700000000E+01 0. -1.
         25    2    1    2    0    0  0.00000000000E+00  0.00000000000E+00 -0.18204293388E+03  0.22082676953E+03  0.12499932945E+03 0.  0.
    9000005    1    3    3    0    0 -0.20094729705E+02 -0.26441224054E+01  0.13410028417E+02  0.24323207177E+02  0.10000000000E+01 0.  0.
    9000005    1    3    3    0    0  0.20094729705E+02  0.26441224054E+01 -0.19545296230E+03  0.19650356235E+03  0.10000000000E+01 0.  0.
<mgrwt>
<rscale>  0 0.12499933E+03</rscale>
<asrwt>0</asrwt>
<pdfrwt beam="1">  1        4 0.29833721E-02 0.12499933E+03</pdfrwt>
<pdfrwt beam="2">  1       -4 0.30989976E-01 0.12499933E+03</pdfrwt>
<totfact> 0.86738993E+03</totfact>
</mgrwt>
</event>
<event>
 4    1  0.3251953E-002  0.1252218E+03  0.7818608E-02  0.1234723E+00
         -4   -1    0    0    0  501 -0.00000000000E+00  0.00000000000E+00  0.50447782263E+01  0.52021810188E+01  0.12700000000E+01 0.  1.
          4   -1    0    0  501    0  0.00000000000E+00 -0.00000000000E+00 -0.76497097424E+03  0.76497202847E+03  0.12700000000E+01 0.  1.
    9000005    1    1    2    0    0 -0.48717994836E+02  0.34076328029E+02 -0.50056325356E+03  0.50408254281E+03  0.10000000000E+01 0.  0.
    9000005    1    1    2    0    0  0.48717994836E+02 -0.34076328029E+02 -0.25936294246E+03  0.26609166667E+03  0.10000000000E+01 0.  0.
<mgrwt>
<rscale>  0 0.12522176E+03</rscale>
<asrwt>0</asrwt>
<pdfrwt beam="2">  1        4 0.11769994E+00 0.12522176E+03</pdfrwt>
<pdfrwt beam="1">  1       -4 0.78830934E-03 0.12522176E+03</pdfrwt>
<totfact> 0.39435850E+03</totfact>
</mgrwt>
</event>
<event>
 5    1  0.3251953E-002  0.1250008E+03  0.7818608E-02  0.1235068E+00
         -4   -1    0    0    0  501 -0.00000000000E+00  0.00000000000E+00  0.73114713898E+01  0.74209510094E+01  0.12700000000E+01 0.  1.
          4   -1    0    0  501    0  0.00000000000E+00 -0.00000000000E+00 -0.53018947232E+03  0.53019099338E+03  0.12700000000E+01 0.  1.
         25    2    1    2    0    0  0.00000000000E+00  0.00000000000E+00 -0.52287800093E+03  0.53761194439E+03  0.12500079556E+03 0.  0.
    9000005    1    3    3    0    0  0.40330625717E+02  0.40031376546E+02 -0.14959746880E+03  0.16002960085E+03  0.10000000000E+01 0.  0.
    9000005    1    3    3    0    0 -0.40330625717E+02 -0.40031376546E+02 -0.37328053213E+03  0.37758234353E+03  0.10000000000E+01 0.  0.
<mgrwt>
<rscale>  0 0.12500080E+03</rscale>
<asrwt>0</asrwt>
<pdfrwt beam="2">  1        4 0.81576120E-01 0.12500080E+03</pdfrwt>
<pdfrwt beam="1">  1       -4 0.11333807E-02 0.12500080E+03</pdfrwt>
<totfact> 0.53058925E+03</totfact>
</mgrwt>
</event>
<event>
 5    1  0.3251953E-002  0.1249990E+03  0.7818608E-02  0.1235071E+00
          4   -1    0    0  501    0  0.00000000000E+00  0.00000000000E+00  0.12823826814E+03  0.12824455667E+03  0.12700000000E+01 0. -1.
         -4   -1    0    0    0  501 -0.00000000000E+00 -0.00000000000E+00 -0.30440110509E+02  0.30466591995E+02  0.12700000000E+01 0. -1.
         25    2    1    2    0    0  0.00000000000E+00  0.00000000000E+00  0.97798157630E+02  0.15871114867E+03  0.12499899630E+03 0.  0.
    9000005    1    3    3    0    0  0.59522168259E+02  0.39304550890E+01  0.25252303109E+02  0.64784379320E+02  0.10000000000E+01 0.  0.
    9000005    1    3    3    0    0 -0.59522168259E+02 -0.39304550890E+01  0.72545854521E+02  0.93926769346E+02  0.10000000000E+01 0.  0.
<mgrwt>
<rscale>  0 0.12499900E+03</rscale>
<asrwt>0</asrwt>
<pdfrwt beam="1">  1        4 0.19731485E-01 0.12499900E+03</pdfrwt>
<pdfrwt beam="2">  1       -4 0.46856147E-02 0.12499900E+03</pdfrwt>
<totfact> 0.97594044E+03</totfact>
</mgrwt>
</event>
<event>
 5    1  0.3251953E-002  0.1250159E+03  0.7818608E-02  0.1235044E+00
          4   -1    0    0  501    0  0.00000000000E+00  0.00000000000E+00  0.28383562012E+03  0.28383846136E+03  0.12700000000E+01 0. -1.
         -4   -1    0    0    0  501 -0.00000000000E+00 -0.00000000000E+00 -0.13733658515E+02  0.13792254211E+02  0.12700000000E+01 0. -1.
         25    2    1    2    0    0  0.00000000000E+00  0.00000000000E+00  0.27010196160E+03  0.29763071557E+03  0.12501589175E+03 0.  0.
    9000005    1    3    3    0    0  0.36688305480E+02 -0.48920343368E+02  0.10428393699E+03  0.12089404976E+03  0.10000000000E+01 0.  0.
    9000005    1    3    3    0    0 -0.36688305480E+02  0.48920343368E+02  0.16581802461E+03  0.17673666581E+03  0.10000000000E+01 0.  0.
<mgrwt>
<rscale>  0 0.12501589E+03</rscale>
<asrwt>0</asrwt>
<pdfrwt beam="1">  1        4 0.43671743E-01 0.12501589E+03</pdfrwt>
<pdfrwt beam="2">  1       -4 0.21175965E-02 0.12501589E+03</pdfrwt>
<totfact> 0.75870228E+03</totfact>
</mgrwt>
</event>
<event>
 5    1  0.3251953E-002  0.1249774E+03  0.7818608E-02  0.1235105E+00
          4   -1    0    0  501    0  0.00000000000E+00  0.00000000000E+00  0.58887964196E+02  0.58901657253E+02  0.12700000000E+01 0. -1.
         -4   -1    0    0    0  501 -0.00000000000E+00 -0.00000000000E+00 -0.66282070422E+02  0.66294236246E+02  0.12700000000E+01 0. -1.
         25    2    1    2    0    0  0.00000000000E+00  0.00000000000E+00 -0.73941062259E+01  0.12519589350E+03  0.12497735372E+03 0.  0.
    9000005    1    3    3    0    0 -0.30845394867E+01  0.26148051885E+02 -0.60458288882E+02  0.65950281999E+02  0.10000000000E+01 0.  0.
    9000005    1    3    3    0    0  0.30845394867E+01 -0.26148051885E+02  0.53064182656E+02  0.59245611501E+02  0.10000000000E+01 0.  0.
<mgrwt>
<rscale>  0 0.12497735E+03</rscale>
<asrwt>0</asrwt>
<pdfrwt beam="1">  1        4 0.90616759E-02 0.12497735E+03</pdfrwt>
<pdfrwt beam="2">  1       -4 0.10199231E-01 0.12497735E+03</pdfrwt>
<totfact> 0.10453959E+04</totfact>
</mgrwt>
</event>
<event>
 5    1  0.3251953E-002  0.1249999E+03  0.7818608E-02  0.1235069E+00
         -4   -1    0    0    0  501 -0.00000000000E+00  0.00000000000E+00  0.52346600311E+03  0.52346754370E+03  0.12700000000E+01 0. -1.
          4   -1    0    0  501    0  0.00000000000E+00 -0.00000000000E+00 -0.74066761944E+01  0.75147689418E+01  0.12700000000E+01 0. -1.
         25    2    1    2    0    0  0.00000000000E+00  0.00000000000E+00  0.51605932691E+03  0.53098231264E+03  0.12499994979E+03 0.  0.
    9000005    1    3    3    0    0  0.19629157075E+02  0.53687205049E+02  0.36529356478E+03  0.36974046068E+03  0.10000000000E+01 0.  0.
    9000005    1    3    3    0    0 -0.19629157075E+02 -0.53687205049E+02  0.15076576213E+03  0.16124185196E+03  0.10000000000E+01 0.  0.
<mgrwt>
<rscale>  0 0.12499995E+03</rscale>
<asrwt>0</asrwt>
<pdfrwt beam="2">  1        4 0.11479220E-02 0.12499995E+03</pdfrwt>
<pdfrwt beam="1">  1       -4 0.80541665E-01 0.12499995E+03</pdfrwt>
<totfact> 0.53538234E+03</totfact>
</mgrwt>
</event>
<event>
 5    1  0.3251953E-002  0.1250017E+03  0.7818608E-02  0.1235067E+00
          4   -1    0    0  501    0  0.00000000000E+00  0.00000000000E+00  0.85778799934E+02  0.85788200926E+02  0.12700000000E+01 0.  1.
         -4   -1    0    0    0  501 -0.00000000000E+00 -0.00000000000E+00 -0.45519103656E+02  0.45536816947E+02  0.12700000000E+01 0.  1.
         25    2    1    2    0    0  0.00000000000E+00  0.00000000000E+00  0.40259696278E+02  0.13132501787E+03  0.12500166869E+03 0.  0.
    9000005    1    3    3    0    0  0.24004479089E+02  0.26728516121E+02 -0.33591230746E+02  0.49193489136E+02  0.10000000000E+01 0.  0.
    9000005    1    3    3    0    0 -0.24004479089E+02 -0.26728516121E+02  0.73850927023E+02  0.82131528736E+02  0.10000000000E+01 0.  0.
<mgrwt>
<rscale>  0 0.12500167E+03</rscale>
<asrwt>0</asrwt>
<pdfrwt beam="1">  1        4 0.13198824E-01 0.12500167E+03</pdfrwt>
<pdfrwt beam="2">  1       -4 0.70050248E-02 0.12500167E+03</pdfrwt>
<totfact> 0.10315738E+04</totfact>
</mgrwt>
</event>
<event>
 5    1  0.3251953E-002  0.1249941E+03  0.7818608E-02  0.1235078E+00
          4   -1    0    0  501    0  0.00000000000E+00  0.00000000000E+00  0.17152789433E+03  0.17153259583E+03  0.12700000000E+01 0.  1.
         -4   -1    0    0    0  501 -0.00000000000E+00 -0.00000000000E+00 -0.22748395524E+02  0.22783818796E+02  0.12700000000E+01 0.  1.
         25    2    1    2    0    0  0.00000000000E+00  0.00000000000E+00  0.14877949880E+03  0.19431641462E+03  0.12499411878E+03 0.  0.
    9000005    1    3    3    0    0 -0.61550275015E+02  0.10253971830E+02  0.79616120467E+02  0.10115980887E+03  0.10000000000E+01 0.  0.
    9000005    1    3    3    0    0  0.61550275015E+02 -0.10253971830E+02  0.69163378335E+02  0.93156605753E+02  0.10000000000E+01 0.  0.
<mgrwt>
<rscale>  0 0.12499412E+03</rscale>
<asrwt>0</asrwt>
<pdfrwt beam="1">  1        4 0.26391993E-01 0.12499412E+03</pdfrwt>
<pdfrwt beam="2">  1       -4 0.35028398E-02 0.12499412E+03</pdfrwt>
<totfact> 0.91113648E+03</totfact>
</mgrwt>
</event>
<event>
 5    1  0.3251953E-002  0.1250017E+03  0.7818608E-02  0.1235067E+00
          4   -1    0    0  501    0  0.00000000000E+00  0.00000000000E+00  0.72449325300E+02  0.72460455674E+02  0.12700000000E+01 0. -1.
         -4   -1    0    0    0  501 -0.00000000000E+00 -0.00000000000E+00 -0.53895713275E+02  0.53910674355E+02  0.12700000000E+01 0. -1.
         25    2    1    2    0    0  0.00000000000E+00  0.00000000000E+00  0.18553612025E+02  0.12637113003E+03  0.12500170393E+03 0.  0.
    9000005    1    3    3    0    0 -0.56784450634E+02  0.99861876213E+01  0.33648140770E+02  0.66763726336E+02  0.10000000000E+01 0.  0.
    9000005    1    3    3    0    0  0.56784450634E+02 -0.99861876213E+01 -0.15094528744E+02  0.59607403693E+02  0.10000000000E+01 0.  0.
<mgrwt>
<rscale>  0 0.12500170E+03</rscale>
<asrwt>0</asrwt>
<pdfrwt beam="1">  1        4 0.11148057E-01 0.12500170E+03</pdfrwt>
<pdfrwt beam="2">  1       -4 0.82936552E-02 0.12500170E+03</pdfrwt>
<totfact> 0.10422439E+04</totfact>
</mgrwt>
</event>
<event>
 5    1  0.3251953E-002  0.1249989E+03  0.7818608E-02  0.1235071E+00
          4   -1    0    0  501    0  0.00000000000E+00  0.00000000000E+00  0.14000109990E+03  0.14000686010E+03  0.12700000000E+01 0.  1.
         -4   -1    0    0    0  501 -0.00000000000E+00 -0.00000000000E+00 -0.27880276537E+02  0.27909187014E+02  0.12700000000E+01 0.  1.
         25    2    1    2    0    0  0.00000000000E+00  0.00000000000E+00  0.11212082337E+03  0.16791604711E+03  0.12499887938E+03 0.  0.
    9000005    1    3    3    0    0  0.40418092702E+01  0.32422068477E+02  0.12761965547E+03  0.13173952789E+03  0.10000000000E+01 0.  0.
    9000005    1    3    3    0    0 -0.40418092702E+01 -0.32422068477E+02 -0.15498832102E+02  0.36176519222E+02  0.10000000000E+01 0.  0.
<mgrwt>
<rscale>  0 0.12499888E+03</rscale>
<asrwt>0</asrwt>
<pdfrwt beam="1">  1        4 0.21541298E-01 0.12499888E+03</pdfrwt>
<pdfrwt beam="2">  1       -4 0.42919403E-02 0.12499888E+03</pdfrwt>
<totfact> 0.95840384E+03</totfact>
</mgrwt>
</event>
<event>
 5    1  0.3251953E-002  0.1249590E+03  0.7818608E-02  0.1235133E+00
          4   -1    0    0  501    0  0.00000000000E+00  0.00000000000E+00  0.31791282006E+02  0.31816638911E+02  0.12700000000E+01 0. -1.
         -4   -1    0    0    0  501 -0.00000000000E+00 -0.00000000000E+00 -0.12271359979E+03  0.12272017142E+03  0.12700000000E+01 0. -1.
         25    2    1    2    0    0  0.00000000000E+00  0.00000000000E+00 -0.90922317786E+02  0.15453681033E+03  0.12495902479E+03 0.  0.
    9000005    1    3    3    0    0 -0.42587521339E+02 -0.15490304577E+02  0.77175534932E+01  0.45980508279E+02  0.10000000000E+01 0.  0.
    9000005    1    3    3    0    0  0.42587521339E+02  0.15490304577E+02 -0.98639871279E+02  0.10855630205E+03  0.10000000000E+01 0.  0.
<mgrwt>
<rscale>  0 0.12495902E+03</rscale>
<asrwt>0</asrwt>
<pdfrwt beam="1">  1        4 0.48934226E-02 0.12495902E+03</pdfrwt>
<pdfrwt beam="2">  1       -4 0.18881471E-01 0.12495902E+03</pdfrwt>
<totfact> 0.98497249E+03</totfact>
</mgrwt>
</event>
<event>
 5    1  0.3251953E-002  0.1249914E+03  0.7818608E-02  0.1235083E+00
          4   -1    0    0  501    0  0.00000000000E+00  0.00000000000E+00  0.59346964832E+02  0.59360552009E+02  0.12700000000E+01 0. -1.
         -4   -1    0    0    0  501 -0.00000000000E+00 -0.00000000000E+00 -0.65784275134E+02  0.65796533001E+02  0.12700000000E+01 0. -1.
         25    2    1    2    0    0  0.00000000000E+00  0.00000000000E+00 -0.64373103024E+01  0.12515708501E+03  0.12499142756E+03 0.  0.
    9000005    1    3    3    0    0 -0.10739127256E+02  0.36217821801E+02  0.46623361710E+02  0.60014975859E+02  0.10000000000E+01 0.  0.
    9000005    1    3    3    0    0  0.10739127256E+02 -0.36217821801E+02 -0.53060672012E+02  0.65142109151E+02  0.10000000000E+01 0.  0.
<mgrwt>
<rscale>  0 0.12499143E+03</rscale>
<asrwt>0</asrwt>
<pdfrwt beam="1">  1        4 0.91322904E-02 0.12499143E+03</pdfrwt>
<pdfrwt beam="2">  1       -4 0.10122646E-01 0.12499143E+03</pdfrwt>
<totfact> 0.10451476E+04</totfact>
</mgrwt>
</event>
<event>
 5    1  0.3251953E-002  0.1249952E+03  0.7818608E-02  0.1235077E+00
          4   -1    0    0  501    0  0.00000000000E+00  0.00000000000E+00  0.31915244857E+03  0.31915497541E+03  0.12700000000E+01 0.  1.
         -4   -1    0    0    0  501 -0.00000000000E+00 -0.00000000000E+00 -0.12202984391E+02  0.12268892699E+02  0.12700000000E+01 0.  1.
         25    2    1    2    0    0  0.00000000000E+00  0.00000000000E+00  0.30694946418E+03  0.33142386811E+03  0.12499522708E+03 0.  0.
    9000005    1    3    3    0    0 -0.36659365920E+02 -0.41094459660E+02  0.23178528571E+03  0.23823954835E+03  0.10000000000E+01 0.  0.
    9000005    1    3    3    0    0  0.36659365920E+02  0.41094459660E+02  0.75164178462E+02  0.93184319755E+02  0.10000000000E+01 0.  0.
<mgrwt>
<rscale>  0 0.12499523E+03</rscale>
<asrwt>0</asrwt>
<pdfrwt beam="1">  1        4 0.49105641E-01 0.12499523E+03</pdfrwt>
<pdfrwt beam="2">  1       -4 0.18826464E-02 0.12499523E+03</pdfrwt>
<totfact> 0.71825288E+03</totfact>
</mgrwt>
</event>
<event>
 5    1  0.3251953E-002  0.1249677E+03  0.7818608E-02  0.1235120E+00
          4   -1    0    0  501    0  0.00000000000E+00  0.00000000000E+00  0.14956229671E+02  0.15010053496E+02  0.12700000000E+01 0. -1.
         -4   -1    0    0    0  501 -0.00000000000E+00 -0.00000000000E+00 -0.26051974376E+03  0.26052283929E+03  0.12700000000E+01 0. -1.
         25    2    1    2    0    0  0.00000000000E+00  0.00000000000E+00 -0.24556351409E+03  0.27553289278E+03  0.12496773805E+03 0.  0.
    9000005    1    3    3    0    0  0.58000928112E+02  0.22505169145E+02 -0.13537897045E+03  0.14899347617E+03  0.10000000000E+01 0.  0.
    9000005    1    3    3    0    0 -0.58000928112E+02 -0.22505169145E+02 -0.11018454364E+03  0.12653941661E+03  0.10000000000E+01 0.  0.
<mgrwt>
<rscale>  0 0.12496774E+03</rscale>
<asrwt>0</asrwt>
<pdfrwt beam="1">  1        4 0.23053370E-02 0.12496774E+03</pdfrwt>
<pdfrwt beam="2">  1       -4 0.40084336E-01 0.12496774E+03</pdfrwt>
<totfact> 0.78830700E+03</totfact>
</mgrwt>
</event>
<event>
 5    1  0.3251953E-002  0.1250120E+03  0.7818608E-02  0.1235051E+00
          4   -1    0    0  501    0  0.00000000000E+00  0.00000000000E+00  0.13609772249E+02  0.13668899030E+02  0.12700000000E+01 0.  1.
         -4   -1    0    0    0  501 -0.00000000000E+00 -0.00000000000E+00 -0.28639044957E+03  0.28639326547E+03  0.12700000000E+01 0.  1.
         25    2    1    2    0    0  0.00000000000E+00  0.00000000000E+00 -0.27278067732E+03  0.30006216450E+03  0.12501201799E+03 0.  0.
    9000005    1    3    3    0    0  0.22100259655E+02 -0.19135905452E+01 -0.27663489259E+03  0.27752467837E+03  0.10000000000E+01 0.  0.
    9000005    1    3    3    0    0 -0.22100259655E+02  0.19135905452E+01  0.38542152701E+01  0.22537486127E+02  0.10000000000E+01 0.  0.
<mgrwt>
<rscale>  0 0.12501202E+03</rscale>
<asrwt>0</asrwt>
<pdfrwt beam="1">  1        4 0.20985762E-02 0.12501202E+03</pdfrwt>
<pdfrwt beam="2">  1       -4 0.44064829E-01 0.12501202E+03</pdfrwt>
<totfact> 0.75570880E+03</totfact>
</mgrwt>
</event>
<event>
 5    1  0.3251953E-002  0.1250017E+03  0.7818608E-02  0.1235067E+00
          4   -1    0    0  501    0  0.00000000000E+00  0.00000000000E+00  0.12769227759E+03  0.12769859300E+03  0.12700000000E+01 0.  1.
         -4   -1    0    0    0  501 -0.00000000000E+00 -0.00000000000E+00 -0.30571683909E+02  0.30598051524E+02  0.12700000000E+01 0.  1.
         25    2    1    2    0    0  0.00000000000E+00  0.00000000000E+00  0.97120593676E+02  0.15829664453E+03  0.12500167180E+03 0.  0.
    9000005    1    3    3    0    0 -0.47664613033E+02 -0.40399102902E+02  0.50032561737E+02  0.80051608884E+02  0.10000000000E+01 0.  0.
    9000005    1    3    3    0    0  0.47664613033E+02  0.40399102902E+02  0.47088031939E+02  0.78245035643E+02  0.10000000000E+01 0.  0.
<mgrwt>
<rscale>  0 0.12500167E+03</rscale>
<asrwt>0</asrwt>
<pdfrwt beam="1">  1        4 0.19647480E-01 0.12500167E+03</pdfrwt>
<pdfrwt beam="2">  1       -4 0.47058500E-02 0.12500167E+03</pdfrwt>
<totfact> 0.97668515E+03</totfact>
</mgrwt>
</event>
<event>
 5    1  0.3251953E-002  0.1249987E+03  0.7818608E-02  0.1235071E+00
          4   -1    0    0  501    0  0.00000000000E+00  0.00000000000E+00  0.19651202020E+03  0.19651612398E+03  0.12700000000E+01 0. -1.
         -4   -1    0    0    0  501 -0.00000000000E+00 -0.00000000000E+00 -0.19852911873E+02  0.19893491645E+02  0.12700000000E+01 0. -1.
         25    2    1    2    0    0  0.00000000000E+00  0.00000000000E+00  0.17665910833E+03  0.21640961563E+03  0.12499872471E+03 0.  0.
    9000005    1    3    3    0    0 -0.17802870007E+02  0.46645202160E+02  0.23262969766E+02  0.55089770624E+02  0.10000000000E+01 0.  0.
    9000005    1    3    3    0    0  0.17802870007E+02 -0.46645202160E+02  0.15339613856E+03  0.16131984500E+03  0.10000000000E+01 0.  0.
<mgrwt>
<rscale>  0 0.12499872E+03</rscale>
<asrwt>0</asrwt>
<pdfrwt beam="1">  1        4 0.30236056E-01 0.12499872E+03</pdfrwt>
<pdfrwt beam="2">  1       -4 0.30577313E-02 0.12499872E+03</pdfrwt>
<totfact> 0.87442179E+03</totfact>
</mgrwt>
</event>
<event>
 5    1  0.3251953E-002  0.1249995E+03  0.7818608E-02  0.1235070E+00
         -4   -1    0    0    0  501 -0.00000000000E+00  0.00000000000E+00  0.11964988328E+03  0.11965662317E+03  0.12700000000E+01 0. -1.
          4   -1    0    0  501    0  0.00000000000E+00 -0.00000000000E+00 -0.32627040353E+02  0.32651748226E+02  0.12700000000E+01 0. -1.
         25    2    1    2    0    0  0.00000000000E+00  0.00000000000E+00  0.87022842930E+02  0.15230837140E+03  0.12499945923E+03 0.  0.
    9000005    1    3    3    0    0 -0.43076899899E+02  0.42603940524E+02  0.24852431661E+02  0.65493193635E+02  0.10000000000E+01 0.  0.
    9000005    1    3    3    0    0  0.43076899899E+02 -0.42603940524E+02  0.62170411269E+02  0.86815177765E+02  0.10000000000E+01 0.  0.
<mgrwt>
<rscale>  0 0.12499946E+03</rscale>
<asrwt>0</asrwt>
<pdfrwt beam="2">  1        4 0.50219637E-02 0.12499946E+03</pdfrwt>
<pdfrwt beam="1">  1       -4 0.18410093E-01 0.12499946E+03</pdfrwt>
<totfact> 0.98846736E+03</totfact>
</mgrwt>
</event>
<event>
 5    1  0.3251953E-002  0.1249988E+03  0.7818608E-02  0.1235071E+00
         -4   -1    0    0    0  501 -0.00000000000E+00  0.00000000000E+00  0.40163185055E+02  0.40183259372E+02  0.12700000000E+01 0.  1.
          4   -1    0    0  501    0  0.00000000000E+00 -0.00000000000E+00 -0.97209154635E+02  0.97217450311E+02  0.12700000000E+01 0.  1.
         25    2    1    2    0    0  0.00000000000E+00  0.00000000000E+00 -0.57045969580E+02  0.13740070968E+03  0.12499884950E+03 0.  0.
    9000005    1    3    3    0    0  0.34355014011E+02  0.49176795588E+02 -0.47768802599E+02  0.76690825486E+02  0.10000000000E+01 0.  0.
    9000005    1    3    3    0    0 -0.34355014011E+02 -0.49176795588E+02 -0.92771669813E+01  0.60709884197E+02  0.10000000000E+01 0.  0.
<mgrwt>
<rscale>  0 0.12499885E+03</rscale>
<asrwt>0</asrwt>
<pdfrwt beam="2">  1        4 0.14957437E-01 0.12499885E+03</pdfrwt>
<pdfrwt beam="1">  1       -4 0.61811339E-02 0.12499885E+03</pdfrwt>
<totfact> 0.10187978E+04</totfact>
</mgrwt>
</event>
<event>
 5    1  0.3251953E-002  0.1250017E+03  0.7818608E-02  0.1235067E+00
          4   -1    0    0  501    0  0.00000000000E+00  0.00000000000E+00  0.19740514850E+02  0.19781325197E+02  0.12700000000E+01 0. -1.
         -4   -1    0    0    0  501 -0.00000000000E+00 -0.00000000000E+00 -0.19763811746E+03  0.19764219786E+03  0.12700000000E+01 0. -1.
         25    2    1    2    0    0  0.00000000000E+00  0.00000000000E+00 -0.17789760261E+03  0.21742352305E+03  0.12500172544E+03 0.  0.
    9000005    1    3    3    0    0  0.56629470299E+02  0.25616012531E+02 -0.10025879349E+03  0.11796568432E+03  0.10000000000E+01 0.  0.
    9000005    1    3    3    0    0 -0.56629470299E+02 -0.25616012531E+02 -0.77638809120E+02  0.99457838735E+02  0.10000000000E+01 0.  0.
<mgrwt>
<rscale>  0 0.12500173E+03</rscale>
<asrwt>0</asrwt>
<pdfrwt beam="1">  1        4 0.30404556E-02 0.12500173E+03</pdfrwt>
<pdfrwt beam="2">  1       -4 0.30409316E-01 0.12500173E+03</pdfrwt>
<totfact> 0.87274328E+03</totfact>
</mgrwt>
</event>
<event>
 5    1  0.3251953E-002  0.1250016E+03  0.7818608E-02  0.1235067E+00
         -4   -1    0    0    0  501 -0.00000000000E+00  0.00000000000E+00  0.44273184646E+02  0.44291396215E+02  0.12700000000E+01 0. -1.
          4   -1    0    0  501    0  0.00000000000E+00 -0.00000000000E+00 -0.88191909647E+02  0.88201053436E+02  0.12700000000E+01 0. -1.
         25    2    1    2    0    0  0.00000000000E+00  0.00000000000E+00 -0.43918725001E+02  0.13249244965E+03  0.12500157923E+03 0.  0.
    9000005    1    3    3    0    0  0.35997559208E+02  0.48703088074E+02 -0.38295079347E+02  0.71661204002E+02  0.10000000000E+01 0.  0.
    9000005    1    3    3    0    0 -0.35997559208E+02 -0.48703088074E+02 -0.56236456541E+01  0.60831245649E+02  0.10000000000E+01 0.  0.
<mgrwt>
<rscale>  0 0.12500158E+03</rscale>
<asrwt>0</asrwt>
<pdfrwt beam="2">  1        4 0.13570090E-01 0.12500158E+03</pdfrwt>
<pdfrwt beam="1">  1       -4 0.68133635E-02 0.12500158E+03</pdfrwt>
<totfact> 0.10290832E+04</totfact>
</mgrwt>
</event>
<event>
 5    1  0.3251953E-002  0.1249997E+03  0.7818608E-02  0.1235070E+00
         -4   -1    0    0    0  501 -0.00000000000E+00  0.00000000000E+00  0.10764057338E+03  0.10764806518E+03  0.12700000000E+01 0. -1.
          4   -1    0    0  501    0  0.00000000000E+00 -0.00000000000E+00 -0.36269731726E+02  0.36291959709E+02  0.12700000000E+01 0. -1.
         25    2    1    2    0    0  0.00000000000E+00  0.00000000000E+00  0.71370841654E+02  0.14394002489E+03  0.12499973491E+03 0.  0.
    9000005    1    3    3    0    0 -0.15204311398E+02 -0.28771852171E+02 -0.25748531910E+02  0.41508763629E+02  0.10000000000E+01 0.  0.
    9000005    1    3    3    0    0  0.15204311398E+02  0.28771852171E+02  0.97119373564E+02  0.10243126126E+03  0.10000000000E+01 0.  0.
<mgrwt>
<rscale>  0 0.12499973E+03</rscale>
<asrwt>0</asrwt>
<pdfrwt beam="2">  1        4 0.55822450E-02 0.12499973E+03</pdfrwt>
<pdfrwt beam="1">  1       -4 0.16562374E-01 0.12499973E+03</pdfrwt>
<totfact> 0.10052629E+04</totfact>
</mgrwt>
</event>
<event>
 5    1  0.3251953E-002  0.1250014E+03  0.7818608E-02  0.1235067E+00
          4   -1    0    0  501    0  0.00000000000E+00  0.00000000000E+00  0.12135670157E+02  0.12201942065E+02  0.12700000000E+01 0.  1.
         -4   -1    0    0    0  501 -0.00000000000E+00 -0.00000000000E+00 -0.32094464611E+03  0.32094715884E+03  0.12700000000E+01 0.  1.
         25    2    1    2    0    0  0.00000000000E+00  0.00000000000E+00 -0.30880897595E+03  0.33314910090E+03  0.12500135921E+03 0.  0.
    9000005    1    3    3    0    0  0.41640064754E+02  0.68237985782E+01 -0.27725887754E+03  0.28045310552E+03  0.10000000000E+01 0.  0.
    9000005    1    3    3    0    0 -0.41640064754E+02 -0.68237985782E+01 -0.31550098410E+02  0.52695995383E+02  0.10000000000E+01 0.  0.
<mgrwt>
<rscale>  0 0.12500136E+03</rscale>
<asrwt>0</asrwt>
<pdfrwt beam="1">  1        4 0.18723175E-02 0.12500136E+03</pdfrwt>
<pdfrwt beam="2">  1       -4 0.49381384E-01 0.12500136E+03</pdfrwt>
<totfact> 0.71616878E+03</totfact>
</mgrwt>
</event>
<event>
 5    1  0.3251953E-002  0.1249960E+03  0.7818608E-02  0.1235076E+00
         -4   -1    0    0    0  501 -0.00000000000E+00  0.00000000000E+00  0.42208902781E+01  0.44078129202E+01  0.12700000000E+01 0. -1.
          4   -1    0    0  501    0  0.00000000000E+00 -0.00000000000E+00 -0.90516314730E+03  0.90516403824E+03  0.12700000000E+01 0. -1.
         25    2    1    2    0    0  0.00000000000E+00  0.00000000000E+00 -0.90094225702E+03  0.90957185116E+03  0.12499600771E+03 0.  0.
    9000005    1    3    3    0    0  0.13519642983E+02 -0.16407723415E+02 -0.22869295649E+02  0.31240979779E+02  0.10000000000E+01 0.  0.
    9000005    1    3    3    0    0 -0.13519642983E+02  0.16407723415E+02 -0.87807296137E+03  0.87833087138E+03  0.10000000000E+01 0.  0.
<mgrwt>
<rscale>  0 0.12499601E+03</rscale>
<asrwt>0</asrwt>
<pdfrwt beam="2">  1        4 0.13927016E+00 0.12499601E+03</pdfrwt>
<pdfrwt beam="1">  1       -4 0.66381566E-03 0.12499601E+03</pdfrwt>
<totfact> 0.33799026E+03</totfact>
</mgrwt>
</event>
<event>
 5    1  0.3251953E-002  0.1249965E+03  0.7818608E-02  0.1235075E+00
         -4   -1    0    0    0  501 -0.00000000000E+00  0.00000000000E+00  0.15860392851E+02  0.15911158392E+02  0.12700000000E+01 0.  1.
          4   -1    0    0  501    0  0.00000000000E+00 -0.00000000000E+00 -0.24583007420E+03  0.24583335469E+03  0.12700000000E+01 0.  1.
         25    2    1    2    0    0  0.00000000000E+00  0.00000000000E+00 -0.22996968135E+03  0.26174451308E+03  0.12499654312E+03 0.  0.
    9000005    1    3    3    0    0  0.18410193607E+02  0.55515481826E+02 -0.68910346052E+02  0.90391037963E+02  0.10000000000E+01 0.  0.
    9000005    1    3    3    0    0 -0.18410193607E+02 -0.55515481826E+02 -0.16105933529E+03  0.17135347512E+03  0.10000000000E+01 0.  0.
<mgrwt>
<rscale>  0 0.12499654E+03</rscale>
<asrwt>0</asrwt>
<pdfrwt beam="2">  1        4 0.37824166E-01 0.12499654E+03</pdfrwt>
<pdfrwt beam="1">  1       -4 0.24442180E-02 0.12499654E+03</pdfrwt>
<totfact> 0.80668073E+03</totfact>
</mgrwt>
</event>
<event>
 4    1  0.3251953E-002  0.1249272E+03  0.7818608E-02  0.1235183E+00
         -4   -1    0    0    0  501 -0.00000000000E+00  0.00000000000E+00  0.15341302059E+03  0.15341827722E+03  0.12700000000E+01 0. -1.
          4   -1    0    0  501    0  0.00000000000E+00 -0.00000000000E+00 -0.25411121201E+02  0.25442837512E+02  0.12700000000E+01 0. -1.
    9000005    1    1    2    0    0 -0.14007416313E+02  0.85494159115E+00  0.15113351653E+03  0.15178695088E+03  0.10000000000E+01 0.  0.
    9000005    1    1    2    0    0  0.14007416313E+02 -0.85494159115E+00 -0.23131617145E+02  0.27074163859E+02  0.10000000000E+01 0.  0.
<mgrwt>
<rscale>  0 0.12492723E+03</rscale>
<asrwt>0</asrwt>
<pdfrwt beam="2">  1        4 0.39122474E-02 0.12492723E+03</pdfrwt>
<pdfrwt beam="1">  1       -4 0.23604847E-01 0.12492723E+03</pdfrwt>
<totfact> 0.93975681E+03</totfact>
</mgrwt>
</event>
<event>
 5    1  0.3251953E-002  0.1250009E+03  0.7818608E-02  0.1235068E+00
          4   -1    0    0  501    0  0.00000000000E+00  0.00000000000E+00  0.39419042411E+02  0.39439495491E+02  0.12700000000E+01 0. -1.
         -4   -1    0    0    0  501 -0.00000000000E+00 -0.00000000000E+00 -0.99046774532E+02  0.99054916310E+02  0.12700000000E+01 0. -1.
         25    2    1    2    0    0  0.00000000000E+00  0.00000000000E+00 -0.59627732122E+02  0.13849441180E+03  0.12500094265E+03 0.  0.
    9000005    1    3    3    0    0 -0.20340735753E+02  0.57713987004E+02 -0.43857244898E+02  0.75293477519E+02  0.10000000000E+01 0.  0.
    9000005    1    3    3    0    0  0.20340735753E+02 -0.57713987004E+02 -0.15770487223E+02  0.63200934282E+02  0.10000000000E+01 0.  0.
<mgrwt>
<rscale>  0 0.12500094E+03</rscale>
<asrwt>0</asrwt>
<pdfrwt beam="1">  1        4 0.60666677E-02 0.12500094E+03</pdfrwt>
<pdfrwt beam="2">  1       -4 0.15240165E-01 0.12500094E+03</pdfrwt>
<totfact> 0.10164670E+04</totfact>
</mgrwt>
</event>
<event>
 5    1  0.3251953E-002  0.1250033E+03  0.7818608E-02  0.1235064E+00
          4   -1    0    0  501    0  0.00000000000E+00  0.00000000000E+00  0.63720127021E+02  0.63732781891E+02  0.12700000000E+01 0.  1.
         -4   -1    0    0    0  501 -0.00000000000E+00 -0.00000000000E+00 -0.61281178557E+02  0.61294336977E+02  0.12700000000E+01 0.  1.
         25    2    1    2    0    0  0.00000000000E+00  0.00000000000E+00  0.24389484637E+01  0.12502711887E+03  0.12500332789E+03 0.  0.
    9000005    1    3    3    0    0 -0.50151576338E+02  0.23175122774E+02  0.30434468074E+02  0.63083466707E+02  0.10000000000E+01 0.  0.
    9000005    1    3    3    0    0  0.50151576338E+02 -0.23175122774E+02 -0.27995519611E+02  0.61943652161E+02  0.10000000000E+01 0.  0.
<mgrwt>
<rscale>  0 0.12500333E+03</rscale>
<asrwt>0</asrwt>
<pdfrwt beam="1">  1        4 0.98050821E-02 0.12500333E+03</pdfrwt>
<pdfrwt beam="2">  1       -4 0.94298593E-02 0.12500333E+03</pdfrwt>
<totfact> 0.10451487E+04</totfact>
</mgrwt>
</event>
<event>
 5    1  0.3251953E-002  0.1250161E+03  0.7818608E-02  0.1235044E+00
         -4   -1    0    0    0  501 -0.00000000000E+00  0.00000000000E+00  0.88958477175E+02  0.88967542178E+02  0.12700000000E+01 0. -1.
          4   -1    0    0  501    0  0.00000000000E+00 -0.00000000000E+00 -0.43901759617E+02  0.43920125199E+02  0.12700000000E+01 0. -1.
         25    2    1    2    0    0  0.00000000000E+00  0.00000000000E+00  0.45056717558E+02  0.13288766738E+03  0.12501609634E+03 0.  0.
    9000005    1    3    3    0    0  0.26747647316E+02  0.25315672849E+02  0.76204760917E+02  0.84643283934E+02  0.10000000000E+01 0.  0.
    9000005    1    3    3    0    0 -0.26747647316E+02 -0.25315672849E+02 -0.31148043359E+02  0.48244383443E+02  0.10000000000E+01 0.  0.
<mgrwt>
<rscale>  0 0.12501610E+03</rscale>
<asrwt>0</asrwt>
<pdfrwt beam="2">  1        4 0.67562269E-02 0.12501610E+03</pdfrwt>
<pdfrwt beam="1">  1       -4 0.13688030E-01 0.12501610E+03</pdfrwt>
<totfact> 0.10279055E+04</totfact>
</mgrwt>
</event>
<event>
 5    1  0.3251953E-002  0.1250006E+03  0.7818608E-02  0.1235068E+00
         -4   -1    0    0    0  501 -0.00000000000E+00  0.00000000000E+00  0.65193402218E+01  0.66418895601E+01  0.12700000000E+01 0. -1.
          4   -1    0    0  501    0  0.00000000000E+00 -0.00000000000E+00 -0.59348211063E+03  0.59348346947E+03  0.12700000000E+01 0. -1.
         25    2    1    2    0    0  0.00000000000E+00  0.00000000000E+00 -0.58696277041E+03  0.60012535903E+03  0.12500061084E+03 0.  0.
    9000005    1    3    3    0    0 -0.95852211082E+01  0.25251550023E+02 -0.22927092874E+02  0.35442472119E+02  0.10000000000E+01 0.  0.
    9000005    1    3    3    0    0  0.95852211082E+01 -0.25251550023E+02 -0.56403567753E+03  0.56468288691E+03  0.10000000000E+01 0.  0.
<mgrwt>
<rscale>  0 0.12500061E+03</rscale>
<asrwt>0</asrwt>
<pdfrwt beam="2">  1        4 0.91314429E-01 0.12500061E+03</pdfrwt>
<pdfrwt beam="1">  1       -4 0.10125073E-02 0.12500061E+03</pdfrwt>
<totfact> 0.48859061E+03</totfact>
</mgrwt>
</event>
<event>
 4    1  0.3251953E-002  0.1251136E+03  0.7818608E-02  0.1234892E+00
         -4   -1    0    0    0  501 -0.00000000000E+00  0.00000000000E+00  0.50388008215E+03  0.50388168263E+03  0.12700000000E+01 0.  1.
          4   -1    0    0  501    0  0.00000000000E+00 -0.00000000000E+00 -0.77128981969E+01  0.78167575501E+01  0.12700000000E+01 0.  1.
    9000005    1    1    2    0    0  0.54245260696E+02  0.16264485450E+02  0.13946901407E+03  0.15053135115E+03  0.10000000000E+01 0.  0.
    9000005    1    1    2    0    0 -0.54245260696E+02 -0.16264485450E+02  0.35669816989E+03  0.36116708903E+03  0.10000000000E+01 0.  0.
<mgrwt>
<rscale>  0 0.12511363E+03</rscale>
<asrwt>0</asrwt>
<pdfrwt beam="2">  1        4 0.11947118E-02 0.12511363E+03</pdfrwt>
<pdfrwt beam="1">  1       -4 0.77528139E-01 0.12511363E+03</pdfrwt>
<totfact> 0.54830936E+03</totfact>
</mgrwt>
</event>
<event>
 5    1  0.3251953E-002  0.1250051E+03  0.7818608E-02  0.1235061E+00
          4   -1    0    0  501    0  0.00000000000E+00  0.00000000000E+00  0.82008107439E+03  0.82008205777E+03  0.12700000000E+01 0. -1.
         -4   -1    0    0    0  501 -0.00000000000E+00 -0.00000000000E+00 -0.46779883657E+01  0.48473162832E+01  0.12700000000E+01 0. -1.
         25    2    1    2    0    0  0.00000000000E+00  0.00000000000E+00  0.81540308602E+03  0.82492937405E+03  0.12500511779E+03 0.  0.
    9000005    1    3    3    0    0  0.99533941725E+01 -0.27678076832E+02  0.77157974635E+03  0.77214082328E+03  0.10000000000E+01 0.  0.
    9000005    1    3    3    0    0 -0.99533941725E+01  0.27678076832E+02  0.43823339674E+02  0.52788550774E+02  0.10000000000E+01 0.  0.
<mgrwt>
<rscale>  0 0.12500512E+03</rscale>
<asrwt>0</asrwt>
<pdfrwt beam="1">  1        4 0.12617946E+00 0.12500512E+03</pdfrwt>
<pdfrwt beam="2">  1       -4 0.73279114E-03 0.12500512E+03</pdfrwt>
<totfact> 0.37171578E+03</totfact>
</mgrwt>
</event>
<event>
 5    1  0.3251953E-002  0.1249993E+03  0.7818608E-02  0.1235070E+00
         -4   -1    0    0    0  501 -0.00000000000E+00  0.00000000000E+00  0.14872495198E+03  0.14873037431E+03  0.12700000000E+01 0.  1.
          4   -1    0    0  501    0  0.00000000000E+00 -0.00000000000E+00 -0.26243395376E+02  0.26274107042E+02  0.12700000000E+01 0.  1.
         25    2    1    2    0    0  0.00000000000E+00  0.00000000000E+00  0.12248155661E+03  0.17500448135E+03  0.12499934714E+03 0.  0.
    9000005    1    3    3    0    0 -0.59167470703E+02  0.16804018647E+02  0.45773972058E+02  0.76677383563E+02  0.10000000000E+01 0.  0.
    9000005    1    3    3    0    0  0.59167470703E+02 -0.16804018647E+02  0.76707584548E+02  0.98327097787E+02  0.10000000000E+01 0.  0.
<mgrwt>
<rscale>  0 0.12499935E+03</rscale>
<asrwt>0</asrwt>
<pdfrwt beam="2">  1        4 0.40402249E-02 0.12499935E+03</pdfrwt>
<pdfrwt beam="1">  1       -4 0.22883542E-01 0.12499935E+03</pdfrwt>
<totfact> 0.94525404E+03</totfact>
</mgrwt>
</event>
<event>
 5    1  0.3251953E-002  0.1249993E+03  0.7818608E-02  0.1235070E+00
         -4   -1    0    0    0  501 -0.00000000000E+00  0.00000000000E+00  0.17907261501E+03  0.17907711843E+03  0.12700000000E+01 0.  1.
          4   -1    0    0  501    0  0.00000000000E+00 -0.00000000000E+00 -0.21790261423E+02  0.21827239699E+02  0.12700000000E+01 0.  1.
         25    2    1    2    0    0  0.00000000000E+00  0.00000000000E+00  0.15728235358E+03  0.20090435813E+03  0.12499928947E+03 0.  0.
    9000005    1    3    3    0    0 -0.58477379776E+02 -0.17577399751E+02  0.57280144300E+02  0.83729229416E+02  0.10000000000E+01 0.  0.
    9000005    1    3    3    0    0  0.58477379776E+02  0.17577399751E+02  0.10000220928E+03  0.11717512871E+03  0.10000000000E+01 0.  0.
<mgrwt>
<rscale>  0 0.12499929E+03</rscale>
<asrwt>0</asrwt>
<pdfrwt beam="2">  1        4 0.33555387E-02 0.12499929E+03</pdfrwt>
<pdfrwt beam="1">  1       -4 0.27552825E-01 0.12499929E+03</pdfrwt>
<totfact> 0.89984632E+03</totfact>
</mgrwt>
</event>
<event>
 5    1  0.3251953E-002  0.1249990E+03  0.7818608E-02  0.1235071E+00
          4   -1    0    0  501    0  0.00000000000E+00  0.00000000000E+00  0.64275083490E+02  0.64287629118E+02  0.12700000000E+01 0. -1.
         -4   -1    0    0    0  501 -0.00000000000E+00 -0.00000000000E+00 -0.60747818594E+02  0.60761092518E+02  0.12700000000E+01 0. -1.
         25    2    1    2    0    0  0.00000000000E+00  0.00000000000E+00  0.35272648959E+01  0.12504872164E+03  0.12499896474E+03 0.  0.
    9000005    1    3    3    0    0 -0.54440910368E+02  0.28739290479E+02  0.12511547040E+02  0.62827528586E+02  0.10000000000E+01 0.  0.
    9000005    1    3    3    0    0  0.54440910368E+02 -0.28739290479E+02 -0.89842821445E+01  0.62221193050E+02  0.10000000000E+01 0.  0.
<mgrwt>
<rscale>  0 0.12499896E+03</rscale>
<asrwt>0</asrwt>
<pdfrwt beam="1">  1        4 0.98904605E-02 0.12499896E+03</pdfrwt>
<pdfrwt beam="2">  1       -4 0.93478044E-02 0.12499896E+03</pdfrwt>
<totfact> 0.10452049E+04</totfact>
</mgrwt>
</event>
<event>
 5    1  0.3251953E-002  0.1249984E+03  0.7818608E-02  0.1235072E+00
          4   -1    0    0  501    0  0.00000000000E+00  0.00000000000E+00  0.47660661159E+03  0.47660830366E+03  0.12700000000E+01 0. -1.
         -4   -1    0    0    0  501 -0.00000000000E+00 -0.00000000000E+00 -0.81448343543E+01  0.82432534026E+01  0.12700000000E+01 0. -1.
         25    2    1    2    0    0  0.00000000000E+00  0.00000000000E+00  0.46846177724E+03  0.48485155706E+03  0.12499838258E+03 0.  0.
    9000005    1    3    3    0    0 -0.56709677183E+02 -0.59742789344E-01  0.33605807809E+03  0.34081083156E+03  0.10000000000E+01 0.  0.
    9000005    1    3    3    0    0  0.56709677183E+02  0.59742789344E-01  0.13240369914E+03  0.14404072550E+03  0.10000000000E+01 0.  0.
<mgrwt>
<rscale>  0 0.12499838E+03</rscale>
<asrwt>0</asrwt>
<pdfrwt beam="1">  1        4 0.73331832E-01 0.12499838E+03</pdfrwt>
<pdfrwt beam="2">  1       -4 0.12607517E-02 0.12499838E+03</pdfrwt>
<totfact> 0.57061167E+03</totfact>
</mgrwt>
</event>
<event>
 5    1  0.3251953E-002  0.1249951E+03  0.7818608E-02  0.1235077E+00
         -4   -1    0    0    0  501 -0.00000000000E+00  0.00000000000E+00  0.44298761379E+02  0.44316962437E+02  0.12700000000E+01 0.  1.
          4   -1    0    0  501    0  0.00000000000E+00 -0.00000000000E+00 -0.88131799080E+02  0.88140949105E+02  0.12700000000E+01 0.  1.
         25    2    1    2    0    0  0.00000000000E+00  0.00000000000E+00 -0.43833037701E+02  0.13245791154E+03  0.12499505245E+03 0.  0.
    9000005    1    3    3    0    0  0.23710508978E+01  0.56449424069E+02 -0.50208493912E+02  0.75591350173E+02  0.10000000000E+01 0.  0.
    9000005    1    3    3    0    0 -0.23710508978E+01 -0.56449424069E+02  0.63754562103E+01  0.56866561369E+02  0.10000000000E+01 0.  0.
<mgrwt>
<rscale>  0 0.12499505E+03</rscale>
<asrwt>0</asrwt>
<pdfrwt beam="2">  1        4 0.13560842E-01 0.12499505E+03</pdfrwt>
<pdfrwt beam="1">  1       -4 0.68172980E-02 0.12499505E+03</pdfrwt>
<totfact> 0.10293083E+04</totfact>
</mgrwt>
</event>
